FOO
135168
    1MOL0     O    1   2.778   3.768   6.799  0.3900  0.4794 -0.5097
    1MOL0     C    2   2.861   3.684   6.818  0.3056 -0.4524 -0.2389
    1MOL0     O    3   2.840   3.551   6.787  0.5714  0.0828 -0.0591
    1MOL0     C    4   2.716   3.508   6.745  1.1835  0.3611 -0.3770
    1MOL0     C    5   2.589   3.531   6.800 -0.2613 -0.2859 -0.8331
    1MOL0     C    6   2.472   3.455   6.770  0.0592 -0.4091  0.2859
    1MOL0     C    7   2.476   3.362   6.672 -0.2050  0.5682  0.8670
    1MOL0     O    8   2.365   3.305   6.624  0.5035 -0.3850 -0.1419
    1MOL0     C    9   2.297   3.218   6.714  1.2654 -0.4958  0.8620
    1MOL0     C   10   2.198   3.144   6.631  0.9995 -0.1905  0.3782
    1MOL0     C   11   2.246   3.001   6.588 -0.4884  0.7150  0.6374
    1MOL0     C   12   2.144   2.921   6.499  0.4620  0.5690 -0.3333
    1MOL0     C   13   1.997   2.926   6.545  0.1519 -0.1701  0.3294
    1MOL0     C   14   1.967   2.896   6.690 -0.3234  0.4003 -0.3421
    1MOL0     C   15   2.035   2.760   6.725 -0.1651 -0.4949 -0.8750
    1MOL0     C   16   2.016   2.717   6.869  0.3875 -0.1523  0.1021
    1MOL0     N   17   1.871   2.711   6.894 -0.0632  0.2034 -0.3682
    1MOL0     C   18   1.769   2.661   6.815  0.8829 -0.2035  0.0307
    1MOL0     C   19   1.653   2.708   6.875 -0.8351  0.6106  0.2481
    1MOL0     C   20   1.520   2.699   6.814  0.2013  0.7562 -0.6884
    1MOL0     C   21   1.389   2.684   6.902  0.5485  0.3345 -0.2067
    1MOL0     C   22   1.391   2.576   7.006 -0.3562  0.9480 -0.5381
    1MOL0     C   23   1.256   2.542   7.063 -0.3596 -0.0719 -1.5373
    1MOL0     O   24   1.186   2.483   6.959 -0.0288 -0.5920 -0.6411
    1MOL0     C   25   1.065   2.430   6.986 -0.8487 -0.3185  0.0332
    1MOL0     C   26   0.994   2.370   6.879 -0.6352 -1.0448 -0.0095
    1MOL0     C   27   0.866   2.312   6.906 -0.4566  0.4859  0.4385
    1MOL0     C   28   0.812   2.302   7.036 -1.4607  0.0930 -0.5615
    1MOL0     C   29   0.677   2.233   7.051 -0.0034 -0.0258  0.3532
    1MOL0     O   30   0.637   2.216   7.181 -0.2283  0.1669 -0.6674
    1MOL0     C   31   0.538   2.126   7.201  0.4931 -0.3317  1.0533
    1MOL0     C   32   0.422   2.169   7.266 -0.5113  0.8494  0.5053
    1MOL0     C   33   0.337   2.072   7.297  0.1953 -0.0121 -0.5556
    1MOL0     C   34   0.353   1.932   7.274  1.1693 -0.6691  0.4145
    1MOL0     O   35   0.260   1.836   7.304 -0.0289 -0.2409  0.5635
    1MOL0     C   36   0.139   1.879   7.377  0.2610 -0.1254  0.2475
    1MOL0     C   37   0.068   1.763   7.456 -0.6951  0.3753  0.2041
    1MOL0     C   38  -0.038   1.800   7.556 -0.0655  0.2507 -0.3792
    1MOL0     C   39  -0.095   1.682   7.633  0.6962  0.4681  0.1802
    1MOL0     C   40  -0.184   1.733   7.752  0.7234  0.6314  0.3518
    1MOL0     C   41  -0.304   1.828   7.698 -1.3349  0.4914 -0.5735
    1MOL0     C   42  -0.405   1.849   7.806  0.0728  0.5956 -0.7588
    1MOL0     C   43  -0.526   1.758   7.790  0.7734  0.0748  0.2288
    1MOL0    Cl   44  -0.630   1.754   7.933 -0.1930  0.3571 -0.1678
    1MOL0     C   45   0.469   1.894   7.215  1.1861 -0.3980 -0.4686
    1MOL0     C   46   0.567   1.987   7.183  0.3453 -0.8608 -0.8492
    1MOL0     O   47   0.633   2.173   6.955  0.1947 -1.4693  0.8523
    1MOL0     C   48   0.886   2.353   7.147 -0.5166  0.3960  0.6660
    1MOL0     C   49   1.012   2.417   7.120  0.2351 -0.5783  0.2895
    1MOL0     N   50   1.683   2.783   6.982 -0.2299 -0.2016 -0.0892
    1MOL0     N   51   1.811   2.779   7.006  0.5614  0.3192 -0.1543
    1MOL0     C   52   2.605   3.331   6.621  0.1416 -0.0780 -0.7392
    1MOL0     C   53   2.719   3.402   6.652 -0.7332 -0.5216  0.2261
    1MOL0     C   54   2.995   3.716   6.865 -0.2487 -0.2081 -0.7530
    1MOL0     C   55   3.023   3.855   6.914  0.8807 -0.3394 -0.5521
    1MOL0     C   56   3.142   3.874   6.970  0.0279  0.1889 -0.7502
    1MOL0     C   57   3.241   3.782   6.984 -0.5125 -0.2254 -0.1029
    1MOL0     O   58   3.368   3.821   7.035  0.4028  0.6205  0.2849
    1MOL0     C   59   3.460   3.719   7.071 -0.3509  0.0046 -0.3294
    1MOL0     C   60   3.525   3.760   7.211  0.7140  0.4053  1.1528
    1MOL0     C   61   3.577   3.899   7.205  0.2636 -0.5500 -0.3382
    1MOL0     C   62   3.726   3.912   7.223 -0.8777  0.4747  0.0276
    1MOL0     C   63   3.745   4.049   7.256  0.1293  0.4409  0.9461
    1MOL0     C   64   3.772   4.161   7.275 -0.7149 -0.5609 -0.3387
    1MOL0     C   65   3.215   3.656   6.928 -0.2707  0.2226  0.4565
    1MOL0     C   66   3.093   3.621   6.875 -0.4405  0.4818 -0.0716
    1MOL0     H   67   2.585   3.610   6.874 -1.9030 -2.0817  1.1419
    1MOL0     H   68   2.367   3.476   6.787 -0.4631 -0.4576 -2.4276
    1MOL0     H   69   2.252   3.284   6.789  1.2211  2.8996 -1.9103
    1MOL0     H   70   2.362   3.151   6.771 -0.1006 -3.8225 -1.2653
    1MOL0     H   71   2.179   3.210   6.546 -0.1308  1.0823  1.5867
    1MOL0     H   72   2.100   3.140   6.680  1.5453  2.2374  1.8313
    1MOL0     H   73   2.262   2.944   6.679 -1.5042 -0.2190  0.2495
    1MOL0     H   74   2.339   3.007   6.530 -0.0647  0.0018  1.2323
    1MOL0     H   75   2.158   2.968   6.401  2.8519 -2.0694 -1.4150
    1MOL0     H   76   2.180   2.818   6.491  0.1966  0.6325 -3.7857
    1MOL0     H   77   1.929   2.868   6.482  1.9396 -1.2516 -0.6690
    1MOL0     H   78   1.963   3.030   6.540 -1.4324 -0.5459  1.9847
    1MOL0     H   79   1.860   2.876   6.707 -0.1199 -1.7033 -1.1975
    1MOL0     H   80   2.000   2.971   6.762  0.7858 -0.0556 -0.3662
    1MOL0     H   81   1.992   2.690   6.652  1.8372  0.5355 -3.1808
    1MOL0     H   82   2.143   2.753   6.710  0.5701 -0.1245  3.0980
    1MOL0     H   83   2.053   2.790   6.941  1.4009 -0.7957  0.2411
    1MOL0     H   84   2.054   2.617   6.889 -1.3124 -0.8902 -0.1846
    1MOL0     H   85   1.762   2.631   6.711 -0.2558  1.9335 -0.5577
    1MOL0     H   86   1.512   2.613   6.746  0.3225  0.0332  0.2046
    1MOL0     H   87   1.509   2.791   6.754 -0.9288 -0.7716 -3.0008
    1MOL0     H   88   1.300   2.680   6.838 -0.1611 -0.3113  0.8053
    1MOL0     H   89   1.373   2.783   6.946  1.2767  1.3397 -2.0644
    1MOL0     H   90   1.429   2.485   6.958 -0.2783  1.8670 -2.2933
    1MOL0     H   91   1.456   2.603   7.090 -0.1604 -1.7018  0.2824
    1MOL0     H   92   1.195   2.630   7.084 -2.0391 -0.9593 -2.4855
    1MOL0     H   93   1.257   2.472   7.147 -1.1306 -0.0252 -1.4822
    1MOL0     H   94   1.031   2.378   6.778  2.4863  3.7072  1.1666
    1MOL0     H   95   0.823   2.259   6.821  2.5242 -2.2343  0.4028
    1MOL0     H   96   0.419   2.277   7.277 -0.3397  1.1805 -2.0677
    1MOL0     H   97   0.246   2.109   7.342  0.4763 -1.5774  1.4393
    1MOL0     H   98   0.067   1.913   7.302 -1.0045 -3.2657 -0.1060
    1MOL0     H   99   0.166   1.958   7.448 -1.4903  0.0510  0.7585
    1MOL0     H  100   0.145   1.709   7.511 -1.3808  0.8654  1.6926
    1MOL0     H  101   0.015   1.697   7.387  1.5213 -1.2931  0.0135
    1MOL0     H  102  -0.121   1.852   7.508 -0.6550 -1.4189 -1.2423
    1MOL0     H  103   0.014   1.866   7.627 -0.2673 -0.6976  0.6833
    1MOL0     H  104  -0.148   1.614   7.565 -0.8918 -1.2400  2.9000
    1MOL0     H  105  -0.016   1.624   7.682  1.2160 -0.8788 -2.0869
    1MOL0     H  106  -0.131   1.796   7.825 -0.6707  3.3581 -0.8523
    1MOL0     H  107  -0.223   1.652   7.813  3.8695 -1.3864 -0.0838
    1MOL0     H  108  -0.345   1.779   7.609 -4.8016  0.6249  0.8060
    1MOL0     H  109  -0.269   1.927   7.669  1.0207 -0.3303 -0.7386
    1MOL0     H  110  -0.366   1.832   7.907 -0.1922  0.9564 -0.5941
    1MOL0     H  111  -0.436   1.954   7.800  1.1460  0.9405 -0.4589
    1MOL0     H  112  -0.500   1.658   7.757 -2.2529 -0.6310 -0.2879
    1MOL0     H  113  -0.589   1.790   7.707  0.4818 -1.2876 -0.0884
    1MOL0     H  114   0.488   1.787   7.214 -0.2445 -0.6790  0.0739
    1MOL0     H  115   0.659   1.957   7.134 -0.4450 -2.2072 -1.5530
    1MOL0     H  116   0.848   2.350   7.249 -2.1033  0.4070  0.0980
    1MOL0     H  117   1.068   2.456   7.203  2.2363  1.1511 -1.7558
    1MOL0     H  118   2.612   3.251   6.547  1.1505  1.6663 -2.6294
    1MOL0     H  119   2.810   3.350   6.622  0.1607 -1.7718  4.4570
    1MOL0     H  120   2.947   3.931   6.905  0.9265 -0.1166  0.7971
    1MOL0     H  121   3.158   3.975   7.006  1.0009  1.0102 -3.2752
    1MOL0     H  122   3.547   3.710   7.006  1.2876  2.0570  1.4090
    1MOL0     H  123   3.405   3.627   7.091 -0.2856  0.4612  2.2869
    1MOL0     H  124   3.438   3.764   7.277 -1.2875  2.8865 -1.3625
    1MOL0     H  125   3.600   3.690   7.248 -0.1434 -2.1286 -1.5373
    1MOL0     H  126   3.524   3.966   7.273  1.3901  1.2562 -1.1718
    1MOL0     H  127   3.563   3.929   7.101 -0.8290 -0.3489 -0.1394
    1MOL0     H  128   3.765   3.847   7.302 -3.6472 -0.6905  0.5448
    1MOL0     H  129   3.775   3.890   7.128 -0.8629 -0.1025  0.1667
    1MOL0     H  130   3.816   4.256   7.297  0.0794 -0.5872 -1.7115
    1MOL0     H  131   3.292   3.581   6.913 -1.4369 -0.4744 -3.1233
    1MOL0     H  132   3.083   3.519   6.839  0.6975  0.0455  0.7610
    2MOL0     O  133   7.202   9.743   8.551 -0.3096 -0.8432  0.3264
    2MOL0     C  134   7.287   9.687   8.474 -0.0465  0.3538  0.1169
    2MOL0     O  135   7.265   9.570   8.400 -0.8061  0.2336 -0.2794
    2MOL0     C  136   7.137   9.510   8.392  0.6445 -0.0717 -1.0500
    2MOL0     C  137   7.133   9.388   8.331 -0.4103  0.9328  0.9394
    2MOL0     C  138   7.015   9.318   8.318  1.3462  0.1445  0.2621
    2MOL0     C  139   6.887   9.372   8.355  0.6088  0.0967  1.0069
    2MOL0     O  140   6.768   9.303   8.329 -0.1124 -0.1770 -0.8907
    2MOL0     C  141   6.636   9.353   8.359 -0.6166  0.0097  0.1423
    2MOL0     C  142   6.531   9.233   8.332  0.0606 -0.1396 -0.2566
    2MOL0     C  143   6.416   9.276   8.252  0.2552 -0.6958 -0.3032
    2MOL0     C  144   6.323   9.368   8.331 -1.6050  0.5631  0.7157
    2MOL0     C  145   6.188   9.407   8.257 -0.1658 -0.5006 -1.2677
    2MOL0     C  146   6.097   9.288   8.247  0.5016 -0.1653  0.0001
    2MOL0     C  147   6.035   9.238   8.378  0.6253 -0.8142 -0.8392
    2MOL0     C  148   5.893   9.200   8.350 -0.5385  0.1532 -0.2765
    2MOL0     N  149   5.798   9.315   8.331 -0.0877  1.1961  0.2783
    2MOL0     C  150   5.776   9.418   8.414 -0.5789  0.6492  0.3619
    2MOL0     C  151   5.697   9.504   8.350 -0.1111 -0.5310  0.3926
    2MOL0     C  152   5.633   9.623   8.418  0.2410  0.1536  0.6653
    2MOL0     C  153   5.481   9.583   8.448  0.5282 -0.0713  0.5178
    2MOL0     C  154   5.463   9.475   8.556  0.2352  0.7601 -0.3068
    2MOL0     C  155   5.491   9.527   8.700  0.3564 -0.0266 -0.7324
    2MOL0     O  156   5.394   9.626   8.740  0.6949  0.7975  0.0541
    2MOL0     C  157   5.260   9.587   8.764  0.3011 -0.0081  0.1485
    2MOL0     C  158   5.230   9.544   8.890  0.8864  0.4813  0.1502
    2MOL0     C  159   5.092   9.527   8.918 -0.5329  0.4378 -1.0510
    2MOL0     C  160   4.994   9.553   8.823 -0.1127 -0.0722  0.4414
    2MOL0     C  161   4.852   9.550   8.859 -0.2828 -0.2274 -0.4764
    2MOL0     O  162   4.824   9.492   8.984  0.0860  0.2111  1.4080
    2MOL0     C  163   4.691   9.490   9.037 -0.4016 -0.1170 -0.2216
    2MOL0     C  164   4.608   9.601   9.039  0.2885  0.2045 -0.2298
    2MOL0     C  165   4.466   9.598   9.082  0.0606  1.6622  0.0071
    2MOL0     C  166   4.426   9.470   9.133  0.3546 -0.2545 -0.0339
    2MOL0     O  167   4.303   9.448   9.189 -0.0291  0.0043  0.3463
    2MOL0     C  168   4.225   9.562   9.225 -0.6697  0.5174 -0.0955
    2MOL0     C  169   4.084   9.516   9.260 -0.0298 -0.4231 -0.1043
    2MOL0     C  170   4.078   9.422   9.368  0.0557  0.6256 -0.6473
    2MOL0     C  171   3.932   9.398   9.427 -0.7201 -1.0012  0.1508
    2MOL0     C  172   3.884   9.507   9.532 -0.4649  0.6083 -0.4665
    2MOL0     C  173   3.729   9.493   9.554 -0.3318  0.7128  0.0546
    2MOL0     C  174   3.683   9.606   9.651  0.3368 -1.1069 -0.9735
    2MOL0     C  175   3.525   9.615   9.661  0.3259 -0.4541  0.6447
    2MOL0    Cl  176   3.484   9.462   9.763 -0.0456 -0.0248 -0.7037
    2MOL0     C  177   4.505   9.358   9.135 -0.4025 -0.4535  0.7125
    2MOL0     C  178   4.639   9.371   9.082  0.2692  0.2952  0.0434
    2MOL0     O  179   4.784   9.617   8.789  0.4990 -0.5853 -0.1482
    2MOL0     C  180   5.032   9.594   8.694 -0.7587 -0.9668 -0.3159
    2MOL0     C  181   5.166   9.620   8.663  0.4701 -0.2438 -0.4954
    2MOL0     N  182   5.668   9.446   8.223  0.1648 -0.6028 -0.1589
    2MOL0     N  183   5.736   9.335   8.212  0.6089  0.2442  0.2054
    2MOL0     C  184   6.893   9.495   8.426 -0.6610  0.0208 -0.3276
    2MOL0     C  185   7.018   9.560   8.446 -0.6095  0.4436  0.1536
    2MOL0     C  186   7.423   9.740   8.442  0.9825  0.1111  1.5734
    2MOL0     C  187   7.473   9.845   8.522  0.4637 -0.1920  0.3731
    2MOL0     C  188   7.598   9.900   8.484  1.0181  0.6291 -0.6581
    2MOL0     C  189   7.675   9.860   8.367 -0.2990 -0.2431 -0.1946
    2MOL0     O  190   7.801   9.912   8.344 -0.7551  0.1223 -0.0429
    2MOL0     C  191   7.893   9.856   8.238  0.1128  0.4364  0.0805
    2MOL0     C  192   8.029   9.920   8.246  0.6746 -0.0296  0.8321
    2MOL0     C  193   8.136   9.824   8.187 -0.9025 -0.3150  0.7497
    2MOL0     C  194   8.153   9.689   8.256  0.3084  0.4115  0.4006
    2MOL0     C  195   8.293   9.643   8.236  0.0397  0.5127 -0.7820
    2MOL0     C  196   8.411   9.617   8.230  0.8368 -0.4214 -0.7624
    2MOL0     C  197   7.622   9.759   8.297 -0.3545 -0.3987  0.1050
    2MOL0     C  198   7.499   9.697   8.327  0.4869 -0.6137 -0.1311
    2MOL0     H  199   7.231   9.352   8.299 -0.8511 -2.0232  2.6390
    2MOL0     H  200   7.022   9.220   8.274  0.8384  0.1374  0.1928
    2MOL0     H  201   6.634   9.436   8.287  1.4728 -0.5187 -0.5795
    2MOL0     H  202   6.626   9.387   8.462 -0.5935  2.0014 -0.4604
    2MOL0     H  203   6.496   9.203   8.431  3.2906  1.1490  1.4444
    2MOL0     H  204   6.589   9.155   8.282 -0.2531  0.7694 -2.1121
    2MOL0     H  205   6.360   9.183   8.233  2.2501 -1.8931 -0.5864
    2MOL0     H  206   6.446   9.314   8.154  0.0863  1.5317  0.4599
    2MOL0     H  207   6.312   9.335   8.435 -2.1988 -0.5098  0.3275
    2MOL0     H  208   6.368   9.467   8.342 -2.3183  0.6510  3.9766
    2MOL0     H  209   6.199   9.452   8.158 -2.5808  0.5936 -1.1211
    2MOL0     H  210   6.139   9.485   8.317  0.0925  1.3837 -3.3702
    2MOL0     H  211   6.141   9.208   8.188 -1.0712 -2.3067  1.5758
    2MOL0     H  212   6.025   9.340   8.183  1.6539 -2.2646 -3.2223
    2MOL0     H  213   6.080   9.141   8.402  0.2040 -1.3476 -2.1534
    2MOL0     H  214   6.043   9.308   8.462 -1.4323  0.4132 -1.5954
    2MOL0     H  215   5.868   9.140   8.439 -0.8936 -2.6010 -2.0853
    2MOL0     H  216   5.888   9.135   8.262  0.8027  0.0211 -0.2736
    2MOL0     H  217   5.818   9.418   8.514 -0.0615 -0.7379  0.1684
    2MOL0     H  218   5.636   9.713   8.356  1.0366  0.4030  1.0564
    2MOL0     H  219   5.680   9.653   8.512 -1.8404 -0.3333  1.9305
    2MOL0     H  220   5.443   9.544   8.353  1.2284  1.2444 -0.3397
    2MOL0     H  221   5.429   9.677   8.467  1.6997  0.2545  2.3273
    2MOL0     H  222   5.363   9.432   8.548 -0.6376  2.8484 -1.1982
    2MOL0     H  223   5.539   9.397   8.548 -0.7110 -0.0861 -1.4415
    2MOL0     H  224   5.580   9.589   8.712  0.3246 -0.0485 -0.3655
    2MOL0     H  225   5.501   9.448   8.776 -1.8950  0.9636  0.6989
    2MOL0     H  226   5.305   9.496   8.953  0.6193 -5.1648 -3.1844
    2MOL0     H  227   5.066   9.497   9.019 -0.8237  0.1250 -1.2178
    2MOL0     H  228   4.638   9.697   8.998  0.3071  0.9607  1.4658
    2MOL0     H  229   4.394   9.679   9.079  0.8050  2.3255 -0.3715
    2MOL0     H  230   4.203   9.617   9.134 -2.9401 -0.1448 -0.0245
    2MOL0     H  231   4.266   9.625   9.304  0.1179 -0.7090  0.4999
    2MOL0     H  232   4.029   9.466   9.179  1.8457 -1.7821 -0.6092
    2MOL0     H  233   4.028   9.601   9.300  0.7738 -1.0326  2.5408
    2MOL0     H  234   4.141   9.451   9.452 -2.2181 -1.1479  1.8293
    2MOL0     H  235   4.110   9.328   9.322 -0.3843 -1.0685  2.2597
    2MOL0     H  236   3.872   9.396   9.335  2.9983 -1.4586 -2.5227
    2MOL0     H  237   3.922   9.298   9.470 -3.4170 -0.7135  0.3467
    2MOL0     H  238   3.907   9.607   9.494 -0.2013  0.6347 -0.2424
    2MOL0     H  239   3.940   9.487   9.624 -2.1270  1.6683  0.8397
    2MOL0     H  240   3.713   9.395   9.600 -0.1243 -0.8706 -2.9482
    2MOL0     H  241   3.685   9.492   9.453  0.8449  1.4052 -0.4743
    2MOL0     H  242   3.721   9.590   9.753 -3.5634 -5.1885  0.1649
    2MOL0     H  243   3.720   9.704   9.620 -1.1274  0.2422  1.3068
    2MOL0     H  244   3.485   9.613   9.559 -2.5247  1.3137  1.6263
    2MOL0     H  245   3.481   9.695   9.720 -1.7877 -2.5687  2.1008
    2MOL0     H  246   4.466   9.265   9.174 -3.1621  1.0828  1.8552
    2MOL0     H  247   4.686   9.273   9.086  0.7282  0.5134  0.0358
    2MOL0     H  248   4.956   9.618   8.621 -0.2250 -1.1044 -0.9203
    2MOL0     H  249   5.207   9.658   8.570  1.9549  0.8226  0.5379
    2MOL0     H  250   6.801   9.539   8.462  0.2058 -0.4445  2.6963
    2MOL0     H  251   7.008   9.650   8.506  0.1349  0.8635 -0.3324
    2MOL0     H  252   7.420   9.873   8.612 -1.5861  3.6336 -1.7607
    2MOL0     H  253   7.640   9.978   8.548 -0.8297  1.7800 -0.7517
    2MOL0     H  254   7.858   9.863   8.135 -0.5998  1.3154  0.3628
    2MOL0     H  255   7.892   9.748   8.258 -2.0493  0.2430 -0.7486
    2MOL0     H  256   8.037  10.018   8.198  1.1618  0.2517  1.4776
    2MOL0     H  257   8.045   9.930   8.354 -2.2728  0.2813  1.3275
    2MOL0     H  258   8.232   9.877   8.191 -1.8407  1.4358  0.8964
    2MOL0     H  259   8.121   9.810   8.080  0.9998  0.0595  0.4004
    2MOL0     H  260   8.128   9.698   8.362 -2.2129  0.3065 -0.1253
    2MOL0     H  261   8.097   9.603   8.219  0.7595 -1.0967  2.9771
    2MOL0     H  262   8.517   9.602   8.221  0.9227  0.5254 -1.5602
    2MOL0     H  263   7.672   9.709   8.215 -1.9332 -1.9974  0.0523
    2MOL0     H  264   7.472   9.608   8.270  1.2158 -1.4655  0.8086
    3MOL0     O  265   2.440   2.771   8.030  0.5248 -0.3784  0.5723
    3MOL0     C  266   2.531   2.852   8.003  0.1618  0.1796  0.3698
    3MOL0     O  267   2.524   2.946   7.907 -0.1082 -0.1028 -0.1350
    3MOL0     C  268   2.406   2.970   7.848 -0.6438  0.2395 -0.0191
    3MOL0     C  269   2.383   2.944   7.711 -0.8273  0.4717  0.3288
    3MOL0     C  270   2.259   2.955   7.656 -0.0968 -0.5802 -0.3207
    3MOL0     C  271   2.155   3.017   7.718  0.4483 -0.6000  1.0905
    3MOL0     O  272   2.053   3.048   7.636 -0.2316 -0.2845 -0.1208
    3MOL0     C  273   1.954   3.133   7.694  0.1796 -0.3187  0.4172
    3MOL0     C  274   1.859   3.048   7.772 -0.3073 -0.4132  0.4253
    3MOL0     C  275   1.772   3.138   7.865 -0.3912 -0.0873 -0.3717
    3MOL0     C  276   1.643   3.070   7.919  0.8036  0.6987 -0.8450
    3MOL0     C  277   1.528   3.160   7.976  0.0654  0.2717 -0.2817
    3MOL0     C  278   1.410   3.092   8.032  0.1594 -0.8036 -0.4590
    3MOL0     C  279   1.299   3.188   8.062  0.0317 -0.0996  0.0094
    3MOL0     C  280   1.174   3.101   8.094 -0.2204  0.4668 -0.6324
    3MOL0     N  281   1.172   3.053   8.237  0.1244 -0.5375 -0.5507
    3MOL0     C  282   1.082   2.961   8.292 -0.8305 -0.2430  1.4401
    3MOL0     C  283   1.115   2.948   8.424  0.1967 -0.3510  0.8496
    3MOL0     C  284   1.039   2.851   8.515 -0.1967  0.6664  0.6433
    3MOL0     C  285   1.049   2.910   8.662  1.5947  0.0549  0.4305
    3MOL0     C  286   0.984   2.802   8.759 -0.5215 -0.2444  0.5459
    3MOL0     C  287   0.841   2.753   8.720  0.0733 -0.2147 -0.7940
    3MOL0     O  288   0.802   2.641   8.800  0.0921  0.2051 -0.3690
    3MOL0     C  289   0.671   2.588   8.799 -0.3840  0.6567 -0.3390
    3MOL0     C  290   0.651   2.479   8.889  0.2184  0.0566  0.7927
    3MOL0     C  291   0.518   2.435   8.914 -0.4749  0.8643 -0.0435
    3MOL0     C  292   0.410   2.475   8.840 -0.0451  0.3874 -0.3148
    3MOL0     C  293   0.273   2.429   8.878  1.0493 -0.7105  0.1850
    3MOL0     O  294   0.178   2.495   8.810 -0.4785  0.2260  0.3080
    3MOL0     C  295   0.042   2.505   8.841 -0.5901 -0.8136  0.7166
    3MOL0     C  296  -0.047   2.582   8.749 -0.2989  1.2367  0.0703
    3MOL0     C  297  -0.178   2.609   8.782  0.6751  0.3029 -0.3712
    3MOL0     C  298  -0.224   2.567   8.907 -0.6440 -0.6286  0.2266
    3MOL0     O  299  -0.348   2.593   8.955  0.0626  0.0273 -0.4463
    3MOL0     C  300  -0.453   2.569   8.864 -0.3131 -0.3691 -1.6592
    3MOL0     C  301  -0.571   2.578   8.957  0.3001 -0.0853 -0.3456
    3MOL0     C  302  -0.705   2.570   8.884  0.5217  1.3229 -0.6302
    3MOL0     C  303  -0.826   2.576   8.976 -0.0027  0.4501  0.6049
    3MOL0     C  304  -0.962   2.554   8.908 -0.0697 -0.6056 -0.6407
    3MOL0     C  305  -1.075   2.558   9.007  0.5755  0.3241 -0.1405
    3MOL0     C  306  -1.219   2.555   8.946 -0.9318  0.9426  1.1747
    3MOL0     C  307  -1.312   2.595   9.049  0.4231 -0.2362  0.1293
    3MOL0    Cl  308  -1.475   2.586   8.978  0.0839  0.2019  0.0005
    3MOL0     C  309  -0.144   2.503   9.003 -0.0159 -0.6452 -0.8428
    3MOL0     C  310  -0.013   2.475   8.969  0.0014 -0.8593 -0.9597
    3MOL0     O  311   0.253   2.331   8.951 -0.0549 -0.5109 -1.0720
    3MOL0     C  312   0.438   2.566   8.741  0.5310 -0.0441  0.4336
    3MOL0     C  313   0.566   2.627   8.720  0.5124 -0.0921  0.6717
    3MOL0     N  314   1.217   3.032   8.453  0.4942  0.0898 -0.2798
    3MOL0     N  315   1.247   3.110   8.349  1.3618  0.3637  1.6951
    3MOL0     C  316   2.182   3.057   7.849 -0.4054  0.7530  0.5737
    3MOL0     C  317   2.303   3.037   7.918  0.3604  0.5585 -0.2127
    3MOL0     C  318   2.656   2.831   8.078  0.0145 -1.0688  0.0725
    3MOL0     C  319   2.698   2.709   8.124 -0.5509 -0.8791  0.9793
    3MOL0     C  320   2.824   2.700   8.193 -0.2711 -0.0432 -0.2284
    3MOL0     C  321   2.902   2.820   8.221  0.0582 -0.1363 -0.3418
    3MOL0     O  322   3.023   2.801   8.283 -0.0768 -0.1459  0.5124
    3MOL0     C  323   3.119   2.916   8.276  0.3745  0.6934  0.1720
    3MOL0     C  324   3.259   2.872   8.267 -0.8024 -0.8475  0.9455
    3MOL0     C  325   3.283   2.799   8.123  0.2766  1.1396 -0.0497
    3MOL0     C  326   3.317   2.885   8.001 -0.2848 -0.4248  0.3741
    3MOL0     C  327   3.346   2.797   7.887 -0.4072  0.1325 -0.1785
    3MOL0     C  328   3.379   2.707   7.809  0.2062 -0.0510  0.2718
    3MOL0     C  329   2.855   2.941   8.162  0.2374 -0.0696 -0.1856
    3MOL0     C  330   2.736   2.944   8.093 -0.3219 -0.1048  0.0728
    3MOL0     H  331   2.470   2.913   7.654  0.4308 -0.5521  2.6881
    3MOL0     H  332   2.258   2.922   7.553  1.3983 -3.1609  0.4104
    3MOL0     H  333   1.896   3.179   7.613  3.5674  1.3596 -1.2699
    3MOL0     H  334   1.993   3.218   7.751 -1.6819  0.2909  0.8413
    3MOL0     H  335   1.920   2.976   7.829 -0.9406 -0.2545  1.3310
    3MOL0     H  336   1.796   2.983   7.710  1.3616 -0.7463 -0.9946
    3MOL0     H  337   1.740   3.225   7.808  0.2734  1.5523  1.6328
    3MOL0     H  338   1.828   3.183   7.948 -1.2597 -0.4240  0.4156
    3MOL0     H  339   1.602   3.012   7.836  0.7100  0.8796 -0.9234
    3MOL0     H  340   1.656   2.996   7.999 -3.0108  0.7119 -0.0213
    3MOL0     H  341   1.496   3.239   7.906 -1.9620  0.1021  0.3857
    3MOL0     H  342   1.576   3.220   8.054  3.0566 -1.2956 -0.7837
    3MOL0     H  343   1.455   3.051   8.123  2.7574  0.8730 -0.8708
    3MOL0     H  344   1.365   3.024   7.959 -1.3719 -0.2958 -0.0203
    3MOL0     H  345   1.338   3.249   8.144  1.8888 -0.3175 -0.6522
    3MOL0     H  346   1.279   3.250   7.974 -1.0083  1.0763  1.0393
    3MOL0     H  347   1.172   3.017   8.024  1.5783  2.0013 -2.6534
    3MOL0     H  348   1.081   3.156   8.079 -1.7953 -2.0121 -0.4899
    3MOL0     H  349   1.009   2.900   8.240  0.0093 -1.1622  1.3185
    3MOL0     H  350   1.087   2.753   8.512 -0.9268  0.3247 -1.5969
    3MOL0     H  351   0.934   2.854   8.485  0.1038 -1.7357 -0.8892
    3MOL0     H  352   1.008   3.011   8.669  1.7410  0.2262 -0.8831
    3MOL0     H  353   1.153   2.912   8.697  2.0422 -0.6615 -0.8095
    3MOL0     H  354   1.053   2.719   8.775 -2.2615 -1.2868  3.3934
    3MOL0     H  355   0.974   2.843   8.860  0.3864 -0.0735  0.5695
    3MOL0     H  356   0.830   2.720   8.616  3.1239  1.4660 -1.7613
    3MOL0     H  357   0.777   2.840   8.737  1.3435  0.3237  1.5592
    3MOL0     H  358   0.731   2.451   8.957  2.5445 -0.3147 -1.9188
    3MOL0     H  359   0.501   2.354   8.984 -2.6308  0.2070 -1.2085
    3MOL0     H  360  -0.008   2.598   8.649  0.1431 -1.3671 -0.2637
    3MOL0     H  361  -0.245   2.663   8.716 -0.8674 -0.3603  0.5867
    3MOL0     H  362  -0.457   2.470   8.818 -1.4184 -0.9484 -0.4056
    3MOL0     H  363  -0.451   2.654   8.796  1.8184  0.0273 -1.1589
    3MOL0     H  364  -0.567   2.677   9.005 -2.1112 -0.0902 -0.0010
    3MOL0     H  365  -0.567   2.508   9.040  0.2867 -0.5321 -0.7194
    3MOL0     H  366  -0.703   2.467   8.847 -1.2702 -0.1123  2.7407
    3MOL0     H  367  -0.715   2.639   8.801 -1.9463  1.9937  0.1327
    3MOL0     H  368  -0.818   2.498   9.053 -3.1957  0.7961  1.4221
    3MOL0     H  369  -0.811   2.675   9.019 -0.3290  0.0562  1.6557
    3MOL0     H  370  -0.968   2.457   8.858 -0.6106 -0.3536 -1.0764
    3MOL0     H  371  -0.972   2.630   8.830 -0.4475 -1.1333 -1.1099
    3MOL0     H  372  -1.066   2.652   9.063  1.7123  1.0195 -1.4181
    3MOL0     H  373  -1.074   2.471   9.073 -0.8900 -0.7602 -1.4927
    3MOL0     H  374  -1.213   2.628   8.865 -1.8283  1.5008  1.6026
    3MOL0     H  375  -1.240   2.457   8.902  4.1717 -0.5987  1.5201
    3MOL0     H  376  -1.307   2.703   9.065  0.8882  0.0135 -1.4802
    3MOL0     H  377  -1.307   2.553   9.149 -0.6106  1.6307  1.0087
    3MOL0     H  378  -0.192   2.467   9.093  1.8446  0.5676  0.7390
    3MOL0     H  379   0.046   2.424   9.045  0.6388  0.0861 -0.8061
    3MOL0     H  380   0.357   2.607   8.683  0.1106 -2.7318 -1.0861
    3MOL0     H  381   0.577   2.710   8.651  1.0090 -0.3674  0.4160
    3MOL0     H  382   2.113   3.119   7.905 -2.3910 -0.9835  0.1714
    3MOL0     H  383   2.312   3.061   8.024 -0.2243 -2.8757  0.7234
    3MOL0     H  384   2.634   2.622   8.121 -1.2216 -0.3663 -0.1945
    3MOL0     H  385   2.853   2.608   8.243  3.0115  0.6505 -0.6146
    3MOL0     H  386   3.107   2.980   8.364 -2.6752  1.2237 -0.4835
    3MOL0     H  387   3.100   2.967   8.181  1.5091  0.3951 -0.2232
    3MOL0     H  388   3.328   2.957   8.281 -0.7475 -0.3015 -1.9150
    3MOL0     H  389   3.278   2.803   8.349  0.4545 -2.6940 -0.8043
    3MOL0     H  390   3.186   2.753   8.104  0.2859  1.6913 -1.5432
    3MOL0     H  391   3.368   2.731   8.136  0.0087  0.6903 -0.5911
    3MOL0     H  392   3.239   2.951   7.962 -0.3298  0.3387  1.7155
    3MOL0     H  393   3.404   2.946   8.027  0.0031 -1.2938  1.5424
    3MOL0     H  394   3.394   2.633   7.734 -1.6761 -0.3590  0.1531
    3MOL0     H  395   2.918   3.028   8.173 -1.2507  0.9442  0.7812
    3MOL0     H  396   2.709   3.043   8.057  0.6564 -0.4355 -1.7231
    4MOL0     O  397   4.513   3.989   3.467  0.6503  1.1831  0.0629
    4MOL0     C  398   4.584   4.041   3.382  0.0378 -0.4385 -0.6088
    4MOL0     O  399   4.633   3.972   3.274 -0.5164  0.9051 -0.0316
    4MOL0     C  400   4.584   3.847   3.261  0.2376 -0.1384 -0.0021
    4MOL0     C  401   4.650   3.740   3.321 -0.4191 -0.9206 -0.7905
    4MOL0     C  402   4.614   3.609   3.290 -0.6645 -0.3182 -0.7446
    4MOL0     C  403   4.498   3.585   3.218  0.4781 -0.2540  1.1994
    4MOL0     O  404   4.475   3.459   3.168  1.0249 -0.0960  0.2460
    4MOL0     C  405   4.341   3.436   3.128 -0.2885  1.0258  0.4166
    4MOL0     C  406   4.310   3.285   3.115 -0.2091 -0.2191  0.0273
    4MOL0     C  407   4.327   3.199   3.244  0.3508  0.1699  0.9527
    4MOL0     C  408   4.283   3.055   3.213  0.5016  1.0221 -0.5242
    4MOL0     C  409   4.315   2.964   3.329  0.1446  0.6314  0.0514
    4MOL0     C  410   4.257   3.013   3.470  0.5662 -0.0743  0.1807
    4MOL0     C  411   4.272   2.912   3.590 -0.6730  0.3450  0.2902
    4MOL0     C  412   4.156   2.891   3.692  0.1714  0.5345  0.2514
    4MOL0     N  413   4.043   2.826   3.622 -0.0227  0.0166  0.5930
    4MOL0     C  414   3.935   2.898   3.583  0.5559  0.2093  0.7625
    4MOL0     C  415   3.860   2.802   3.524  0.8916 -0.4908 -1.2121
    4MOL0     C  416   3.723   2.822   3.463 -0.1532  0.4235  1.1529
    4MOL0     C  417   3.710   2.905   3.334  0.2161  0.5844  0.7857
    4MOL0     C  418   3.752   2.822   3.207  0.0511  0.5890  0.0386
    4MOL0     C  419   3.735   2.921   3.094  1.2745 -0.2504  0.5971
    4MOL0     O  420   3.758   2.860   2.963 -0.1749 -1.0813 -0.4008
    4MOL0     C  421   3.874   2.885   2.901 -0.2663  0.2036 -0.5674
    4MOL0     C  422   3.879   2.880   2.761 -0.7456  0.6562  0.5645
    4MOL0     C  423   3.996   2.927   2.687  0.4656 -0.0454 -0.0540
    4MOL0     C  424   4.108   2.965   2.761  0.0871  1.4473  0.2985
    4MOL0     C  425   4.230   3.026   2.696  0.0554 -0.4559  0.3919
    4MOL0     O  426   4.342   3.061   2.769 -0.3114 -0.2901  0.0104
    4MOL0     C  427   4.457   3.101   2.709  0.1657  0.8153  0.4815
    4MOL0     C  428   4.484   3.213   2.631  0.0306 -0.9753 -0.6923
    4MOL0     C  429   4.601   3.235   2.557 -0.5070 -0.7124  0.7486
    4MOL0     C  430   4.716   3.163   2.584 -0.5101  0.4253 -0.0807
    4MOL0     O  431   4.822   3.194   2.507  0.4074  0.4177 -0.2708
    4MOL0     C  432   4.945   3.172   2.579  0.2535  0.2813  0.7499
    4MOL0     C  433   5.054   3.238   2.492 -0.3334 -1.0372  1.0397
    4MOL0     C  434   5.188   3.240   2.571  1.1013 -1.0280 -0.5988
    4MOL0     C  435   5.196   3.367   2.666  0.2152 -0.0819 -0.5994
    4MOL0     C  436   5.303   3.343   2.767 -0.2165  0.3587  0.0037
    4MOL0     C  437   5.366   3.462   2.831 -0.4958 -0.2514  0.1026
    4MOL0     C  438   5.281   3.511   2.953 -0.4189 -0.1286  0.5299
    4MOL0     C  439   5.352   3.620   3.037  0.5319  0.5176 -0.4268
    4MOL0    Cl  440   5.474   3.535   3.132  0.3324  0.0136  0.0045
    4MOL0     C  441   4.708   3.056   2.674 -0.7617  0.4945  0.2141
    4MOL0     C  442   4.581   3.024   2.726  0.9943  0.6913 -0.5547
    4MOL0     O  443   4.220   3.039   2.576 -0.1007 -0.1854  0.5168
    4MOL0     C  444   4.107   2.957   2.901  0.3119  0.1689 -0.4296
    4MOL0     C  445   3.989   2.927   2.970 -0.4494  1.1255 -0.2876
    4MOL0     N  446   3.929   2.687   3.515 -0.0024  0.0589  0.3274
    4MOL0     N  447   4.036   2.694   3.578 -1.0265 -0.2056 -0.1908
    4MOL0     C  448   4.420   3.694   3.174  0.1550  0.0165  0.0781
    4MOL0     C  449   4.469   3.825   3.188  0.4170 -0.7591  0.2079
    4MOL0     C  450   4.623   4.184   3.380 -0.4305 -0.1114 -1.0743
    4MOL0     C  451   4.596   4.269   3.486  0.3325  0.5802 -0.0929
    4MOL0     C  452   4.648   4.401   3.475 -0.7617  0.5774  0.1435
    4MOL0     C  453   4.731   4.445   3.374 -0.1701  0.5757  0.1670
    4MOL0     O  454   4.777   4.572   3.348 -0.1094 -0.0841  0.8725
    4MOL0     C  455   4.746   4.679   3.439  0.7584  0.7015  1.3184
    4MOL0     C  456   4.606   4.730   3.424 -0.2025 -0.3133 -0.6986
    4MOL0     C  457   4.574   4.855   3.517  0.2276  0.2367  0.1722
    4MOL0     C  458   4.503   4.816   3.654  0.9000  0.1094  0.2497
    4MOL0     C  459   4.366   4.751   3.630 -0.5879 -1.5665 -0.0324
    4MOL0     C  460   4.259   4.705   3.606  0.3094  0.6210 -0.1860
    4MOL0     C  461   4.766   4.358   3.278  0.1798  0.0086 -0.2808
    4MOL0     C  462   4.715   4.228   3.283 -0.0814  0.6495  0.4603
    4MOL0     H  463   4.727   3.760   3.394 -2.0065  0.2727  0.6334
    4MOL0     H  464   4.668   3.526   3.336  0.8770 -0.4279 -2.6378
    4MOL0     H  465   4.325   3.481   3.030 -2.6412 -1.3774 -0.4121
    4MOL0     H  466   4.272   3.482   3.199  0.1053 -0.5665  1.8917
    4MOL0     H  467   4.374   3.235   3.042  2.0994 -0.5877  2.1574
    4MOL0     H  468   4.211   3.281   3.070 -0.4898  0.1905  0.5930
    4MOL0     H  469   4.260   3.242   3.319 -1.2913 -1.3229  0.4085
    4MOL0     H  470   4.431   3.196   3.280  0.9969  0.0210 -0.8162
    4MOL0     H  471   4.175   3.057   3.193  0.4518  3.1716 -0.2084
    4MOL0     H  472   4.337   3.026   3.122  0.7571 -1.7068  0.4090
    4MOL0     H  473   4.424   2.960   3.341  0.0730  0.0280  0.5804
    4MOL0     H  474   4.285   2.862   3.305  2.2601  0.1847 -0.8818
    4MOL0     H  475   4.152   3.042   3.461  0.8652  1.0824  0.2712
    4MOL0     H  476   4.305   3.106   3.503  0.7340  0.7648 -2.2565
    4MOL0     H  477   4.297   2.816   3.545 -2.7344  0.2262 -0.7360
    4MOL0     H  478   4.348   2.949   3.660 -0.4101  1.4176 -0.5440
    4MOL0     H  479   4.132   2.986   3.742  0.2650  0.6058  0.1609
    4MOL0     H  480   4.189   2.820   3.768  1.2955 -0.4174 -1.0924
    4MOL0     H  481   3.912   3.004   3.588  1.2456  0.3931  0.1528
    4MOL0     H  482   3.666   2.865   3.545  1.8146 -0.1632  2.8967
    4MOL0     H  483   3.680   2.723   3.445  3.5986 -1.2308  0.1540
    4MOL0     H  484   3.765   2.998   3.348  1.2473 -0.1998  2.2989
    4MOL0     H  485   3.602   2.919   3.327  0.0372 -1.3818 -2.1078
    4MOL0     H  486   3.854   2.785   3.219  0.0093  0.8422  1.2768
    4MOL0     H  487   3.675   2.744   3.197  0.1921  0.2290  1.4832
    4MOL0     H  488   3.788   3.014   3.115  0.9014 -0.1718  1.1989
    4MOL0     H  489   3.629   2.949   3.085  0.8995 -1.2793  1.5994
    4MOL0     H  490   3.785   2.856   2.712  0.1504  3.2428 -2.8124
    4MOL0     H  491   4.013   2.929   2.580  3.2403 -1.7967  0.2510
    4MOL0     H  492   4.403   3.281   2.608 -0.0828 -1.2145 -1.0096
    4MOL0     H  493   4.594   3.315   2.485  0.2809 -0.5478  0.8487
    4MOL0     H  494   4.978   3.068   2.581 -0.0257  0.0892 -1.5203
    4MOL0     H  495   4.941   3.224   2.675  3.1702 -3.0958  2.9266
    4MOL0     H  496   5.029   3.343   2.476  2.3209 -0.4680  0.2293
    4MOL0     H  497   5.059   3.190   2.394  0.6162 -1.7385  1.4151
    4MOL0     H  498   5.267   3.247   2.496  2.3656  2.8821  0.8512
    4MOL0     H  499   5.197   3.148   2.629  3.1483 -0.4921  0.0365
    4MOL0     H  500   5.220   3.455   2.605  1.0417 -2.2645 -3.6161
    4MOL0     H  501   5.106   3.379   2.726  0.8610  1.9749  0.0418
    4MOL0     H  502   5.380   3.277   2.726  0.4116  0.7695  0.5044
    4MOL0     H  503   5.262   3.275   2.842 -0.8202  0.7096  0.0065
    4MOL0     H  504   5.383   3.545   2.762  4.0385  1.6727  3.0829
    4MOL0     H  505   5.460   3.426   2.875 -0.4307 -0.1732  0.0270
    4MOL0     H  506   5.187   3.555   2.918 -1.0940 -2.2917 -0.5834
    4MOL0     H  507   5.238   3.430   3.013 -1.1158 -1.3909 -1.5560
    4MOL0     H  508   5.288   3.686   3.096  1.2460  3.0987 -2.3453
    4MOL0     H  509   5.414   3.687   2.977  1.3134  0.0469 -0.1650
    4MOL0     H  510   4.791   2.988   2.688  1.2350  2.9289  0.9888
    4MOL0     H  511   4.566   2.930   2.778  2.0502  0.5612 -0.4656
    4MOL0     H  512   4.196   2.986   2.956  1.0319  1.8828 -2.3411
    4MOL0     H  513   4.000   2.933   3.078  1.9899 -0.3828 -0.3598
    4MOL0     H  514   4.327   3.691   3.118 -0.0340  4.1231 -0.0999
    4MOL0     H  515   4.410   3.906   3.146  1.4547 -1.2815 -2.5149
    4MOL0     H  516   4.540   4.236   3.573  0.2009  2.1841  0.4761
    4MOL0     H  517   4.618   4.475   3.548  0.3774  2.3482 -1.1185
    4MOL0     H  518   4.818   4.761   3.429  0.3066  0.8168 -2.8532
    4MOL0     H  519   4.759   4.657   3.545 -4.3393 -1.3911  1.7775
    4MOL0     H  520   4.600   4.758   3.319  2.3066  1.0883 -0.5480
    4MOL0     H  521   4.538   4.649   3.454  0.5320 -1.6410 -2.4822
    4MOL0     H  522   4.508   4.915   3.454 -1.9052 -2.6911 -0.5803
    4MOL0     H  523   4.663   4.915   3.538  0.7546 -0.7102  0.7526
    4MOL0     H  524   4.569   4.748   3.708  1.0230  0.8098  1.0028
    4MOL0     H  525   4.482   4.908   3.709 -1.8840 -0.4047  0.1798
    4MOL0     H  526   4.159   4.674   3.583 -0.3398  0.3910  2.6336
    4MOL0     H  527   4.828   4.379   3.192  0.8870 -3.3342 -0.7251
    4MOL0     H  528   4.750   4.160   3.206  0.3761 -0.9420  2.0068
    5MOL0     O  529   5.248   1.965   8.561  0.5233  0.3488 -0.3122
    5MOL0     C  530   5.307   2.011   8.460  0.3700  0.2325  0.3392
    5MOL0     O  531   5.266   1.995   8.336 -0.1726 -0.0120  0.8147
    5MOL0     C  532   5.151   1.936   8.291  0.6442  1.2007 -0.9770
    5MOL0     C  533   5.026   1.933   8.370  0.2114 -0.0351 -0.0702
    5MOL0     C  534   4.923   1.851   8.333  0.3244 -0.0492 -0.6295
    5MOL0     C  535   4.908   1.796   8.212  1.5984  0.1351 -1.1460
    5MOL0     O  536   4.802   1.716   8.184  0.1807 -0.0256  0.4450
    5MOL0     C  537   4.727   1.749   8.064  0.2494 -0.0086  0.2723
    5MOL0     C  538   4.575   1.715   8.080 -0.4865 -0.2650 -0.5238
    5MOL0     C  539   4.485   1.745   7.956 -0.1879 -0.3544  0.1010
    5MOL0     C  540   4.347   1.694   7.979 -0.2446  0.0402  0.9239
    5MOL0     C  541   4.281   1.768   8.093 -0.3378  0.5854  0.7012
    5MOL0     C  542   4.144   1.709   8.125  0.4313  0.2948 -0.7162
    5MOL0     C  543   4.100   1.762   8.262  0.4744 -0.5639 -0.9850
    5MOL0     C  544   3.978   1.698   8.332 -0.1437  0.1622  0.1103
    5MOL0     N  545   3.863   1.735   8.255 -0.1284  0.3262  0.8649
    5MOL0     C  546   3.771   1.842   8.277 -0.5037  1.2708  0.2380
    5MOL0     C  547   3.675   1.828   8.180 -0.1195  0.1560  0.3387
    5MOL0     C  548   3.556   1.920   8.162  0.3084 -0.2005  0.0917
    5MOL0     C  549   3.444   1.892   8.269  0.1156 -0.1301 -0.7609
    5MOL0     C  550   3.383   1.757   8.241  0.4331 -0.3425  1.0925
    5MOL0     C  551   3.242   1.751   8.296 -0.1070  0.9293  1.1570
    5MOL0     O  552   3.203   1.619   8.273  0.7009 -0.4050  0.5277
    5MOL0     C  553   3.080   1.581   8.327  0.4917  0.6458  0.5264
    5MOL0     C  554   3.083   1.444   8.358  0.2064 -0.3331  0.0689
    5MOL0     C  555   2.956   1.382   8.395  0.6058  0.1113 -0.7556
    5MOL0     C  556   2.839   1.466   8.402  0.0613  1.1323 -0.1402
    5MOL0     C  557   2.713   1.400   8.469 -0.6086 -0.6291  0.6398
    5MOL0     O  558   2.593   1.472   8.439  0.8634  0.5038 -0.6006
    5MOL0     C  559   2.466   1.420   8.446  0.9528  0.0232 -0.3186
    5MOL0     C  560   2.366   1.509   8.487  0.3448  1.2755 -0.2497
    5MOL0     C  561   2.225   1.466   8.478 -0.4541  0.1226  0.4925
    5MOL0     C  562   2.188   1.332   8.434  0.8153  0.0765  0.1104
    5MOL0     O  563   2.059   1.297   8.414  0.4958 -0.3702 -0.0214
    5MOL0     C  564   1.976   1.393   8.348 -0.1061  0.1066  0.2287
    5MOL0     C  565   1.845   1.331   8.297  0.5670 -0.2296 -0.3261
    5MOL0     C  566   1.778   1.431   8.197 -0.0317 -0.1798 -0.6986
    5MOL0     C  567   1.651   1.379   8.130 -0.5711 -0.0057 -0.1683
    5MOL0     C  568   1.525   1.363   8.219 -0.2365  0.2517 -0.4832
    5MOL0     C  569   1.407   1.286   8.166 -0.1629 -0.3341 -0.0663
    5MOL0     C  570   1.291   1.279   8.268 -0.2656 -0.3490 -1.3220
    5MOL0     C  571   1.194   1.172   8.228 -0.6870  0.8916 -0.1705
    5MOL0    Cl  572   1.102   1.228   8.089 -0.0815  0.3123  0.1921
    5MOL0     C  573   2.287   1.246   8.412 -0.2630  0.3248  0.3904
    5MOL0     C  574   2.428   1.290   8.409 -0.8553 -0.1217  0.9090
    5MOL0     O  575   2.719   1.300   8.532 -0.6576  0.3758 -0.6379
    5MOL0     C  576   2.844   1.594   8.369 -0.8892  0.0501  0.1319
    5MOL0     C  577   2.964   1.656   8.328  0.0304  0.0791 -0.3117
    5MOL0     N  578   3.710   1.719   8.102 -0.3625  0.4427  0.2520
    5MOL0     N  579   3.831   1.676   8.140  0.4233 -0.0477 -0.6878
    5MOL0     C  580   5.015   1.829   8.121  0.3397 -1.0443  0.0537
    5MOL0     C  581   5.139   1.896   8.158  0.2544 -0.3081 -0.2511
    5MOL0     C  582   5.443   2.062   8.491 -0.7010 -0.3835  1.0186
    5MOL0     C  583   5.505   2.162   8.410  0.5903 -0.4624  0.3940
    5MOL0     C  584   5.634   2.200   8.429  0.2084  0.6218 -0.1713
    5MOL0     C  585   5.709   2.150   8.538  0.3589 -0.2522  0.2095
    5MOL0     O  586   5.834   2.201   8.583  0.7316 -0.1674 -0.4046
    5MOL0     C  587   5.918   2.267   8.500 -0.6609 -0.0309  0.1447
    5MOL0     C  588   6.068   2.249   8.517  0.5228 -0.2780  0.1451
    5MOL0     C  589   6.124   2.347   8.625 -0.0082  0.1300 -0.1792
    5MOL0     C  590   6.268   2.315   8.675 -1.1904 -0.6824  0.0491
    5MOL0     C  591   6.326   2.449   8.706 -0.1978  0.5778  0.1482
    5MOL0     C  592   6.369   2.560   8.726 -0.0580 -1.0757 -0.4982
    5MOL0     C  593   5.650   2.048   8.612  0.1779 -0.3353 -0.2484
    5MOL0     C  594   5.527   1.997   8.588  0.2237 -0.9233  0.7270
    5MOL0     H  595   5.018   1.980   8.468 -0.1961  1.2070 -0.6753
    5MOL0     H  596   4.849   1.841   8.411  0.3473 -0.5260 -0.6654
    5MOL0     H  597   4.769   1.689   7.983 -0.2220  0.5275 -0.3755
    5MOL0     H  598   4.731   1.858   8.051 -1.8515 -0.1886 -3.0429
    5MOL0     H  599   4.540   1.779   8.161  0.4933  0.9455 -1.0234
    5MOL0     H  600   4.576   1.610   8.109  0.0884 -0.2489 -0.4770
    5MOL0     H  601   4.532   1.705   7.866 -0.8036  3.9964 -2.4451
    5MOL0     H  602   4.484   1.853   7.934  0.0456 -0.2684  0.4971
    5MOL0     H  603   4.293   1.697   7.884  2.4762 -0.5924 -0.7625
    5MOL0     H  604   4.357   1.588   8.003 -0.7524 -0.4084 -0.6831
    5MOL0     H  605   4.263   1.875   8.078  0.4145  0.9356  2.0789
    5MOL0     H  606   4.346   1.758   8.181  2.4964  3.5393 -0.8168
    5MOL0     H  607   4.142   1.600   8.128 -1.8987  0.3097 -0.3652
    5MOL0     H  608   4.076   1.729   8.042 -1.0265  2.3904  0.8759
    5MOL0     H  609   4.182   1.757   8.333  2.0739 -2.6071 -2.8543
    5MOL0     H  610   4.070   1.867   8.248  1.3625 -0.1677  0.0101
    5MOL0     H  611   3.958   1.730   8.434 -0.5723 -0.6448  0.2884
    5MOL0     H  612   3.980   1.589   8.334 -4.0852 -0.0748 -0.1556
    5MOL0     H  613   3.784   1.919   8.353 -2.5115 -0.2331  2.2640
    5MOL0     H  614   3.519   1.917   8.059  0.7171  0.7597 -0.0989
    5MOL0     H  615   3.597   2.022   8.163  0.7428 -0.2969 -2.2200
    5MOL0     H  616   3.369   1.972   8.266 -1.5899 -1.6570 -0.1011
    5MOL0     H  617   3.485   1.879   8.369  0.4652 -1.2898 -1.0381
    5MOL0     H  618   3.386   1.746   8.133  1.7794  2.7329  0.6968
    5MOL0     H  619   3.444   1.682   8.292  0.6670  0.5102  2.1040
    5MOL0     H  620   3.174   1.823   8.248 -1.5365 -1.2235 -0.2425
    5MOL0     H  621   3.253   1.776   8.401 -0.8042  2.3870  0.9019
    5MOL0     H  622   3.174   1.386   8.357 -0.7906 -1.9334 -0.1618
    5MOL0     H  623   2.944   1.279   8.425  1.8581 -0.2449 -1.4162
    5MOL0     H  624   2.388   1.607   8.527  0.0563  0.0360  3.3522
    5MOL0     H  625   2.157   1.545   8.510 -2.0173 -1.3029  0.8124
    5MOL0     H  626   2.023   1.469   8.284  1.3737  0.4881  1.7074
    5MOL0     H  627   1.938   1.448   8.434  2.5114  0.4408  1.2733
    5MOL0     H  628   1.777   1.311   8.380  2.0487 -2.2431  0.4849
    5MOL0     H  629   1.874   1.237   8.251  3.6026  0.5214 -0.1925
    5MOL0     H  630   1.853   1.460   8.123  0.3976  0.1932 -0.1271
    5MOL0     H  631   1.742   1.517   8.253 -0.0247  0.0027 -0.9735
    5MOL0     H  632   1.621   1.452   8.054 -0.9564  1.7305  1.5759
    5MOL0     H  633   1.698   1.293   8.081  1.5875  0.8519  0.2833
    5MOL0     H  634   1.497   1.467   8.242 -0.8134  0.1341 -0.6497
    5MOL0     H  635   1.549   1.311   8.312 -0.7730 -0.1658 -0.5743
    5MOL0     H  636   1.437   1.182   8.149  1.2170  0.1815 -0.9000
    5MOL0     H  637   1.373   1.333   8.073  0.1211  0.1961  0.0971
    5MOL0     H  638   1.326   1.250   8.367  3.1627 -0.4362 -2.4374
    5MOL0     H  639   1.242   1.374   8.292  1.2286 -0.2412  1.8713
    5MOL0     H  640   1.129   1.151   8.313 -0.6729  3.8289  0.6436
    5MOL0     H  641   1.240   1.076   8.202 -0.5152  0.4617  1.6433
    5MOL0     H  642   2.272   1.142   8.387 -0.9677  0.2737  0.9874
    5MOL0     H  643   2.500   1.225   8.358 -2.1799 -1.4205  0.6148
    5MOL0     H  644   2.753   1.649   8.390 -0.2016  0.1142  3.3209
    5MOL0     H  645   2.961   1.762   8.309 -0.3218  0.2306  0.5766
    5MOL0     H  646   5.004   1.805   8.015 -0.2935 -0.0524 -0.1103
    5MOL0     H  647   5.214   1.940   8.094  0.2272 -3.2466 -2.5067
    5MOL0     H  648   5.445   2.216   8.337  1.7384  2.3637  1.3970
    5MOL0     H  649   5.689   2.275   8.373 -0.4142  2.2386  1.2623
    5MOL0     H  650   5.888   2.371   8.513 -0.4292  0.0550 -0.0017
    5MOL0     H  651   5.890   2.238   8.398  0.0569  1.9084 -0.6456
    5MOL0     H  652   6.084   2.143   8.537  0.1320 -0.8771 -2.4341
    5MOL0     H  653   6.115   2.269   8.420  1.9438  1.0632  1.0604
    5MOL0     H  654   6.069   2.345   8.720  0.8416  4.0356  0.6041
    5MOL0     H  655   6.102   2.451   8.600  0.6801  1.4767  4.0045
    5MOL0     H  656   6.265   2.251   8.763 -0.8680  2.8701  2.8864
    5MOL0     H  657   6.336   2.267   8.603 -2.0029 -1.5565 -0.1460
    5MOL0     H  658   6.416   2.655   8.739  1.1302 -1.6105 -0.7425
    5MOL0     H  659   5.686   1.992   8.698  2.6569  2.5756  0.7589
    5MOL0     H  660   5.489   1.913   8.646  1.7500 -1.0206  1.6379
    6MOL0     O  661   3.790   4.244   2.795 -0.0838  0.6106 -0.1651
    6MOL0     C  662   3.698   4.307   2.835  0.2215 -0.8607  0.0759
    6MOL0     O  663   3.703   4.442   2.870 -0.2052  0.0508 -0.1561
    6MOL0     C  664   3.803   4.519   2.818 -0.7099  0.3650 -0.0424
    6MOL0     C  665   3.814   4.554   2.684 -0.1990  0.3520  0.6527
    6MOL0     C  666   3.922   4.643   2.651  0.7261 -0.0481  0.1115
    6MOL0     C  667   4.003   4.705   2.747 -0.5451 -0.4718  0.8284
    6MOL0     O  668   4.099   4.791   2.702  0.7967 -0.8855  0.4515
    6MOL0     C  669   4.223   4.790   2.777  0.6404 -0.9697  1.4716
    6MOL0     C  670   4.339   4.830   2.684  0.7628 -0.4330  0.3991
    6MOL0     C  671   4.324   4.969   2.605 -0.2976  0.5913 -0.7070
    6MOL0     C  672   4.271   5.092   2.696 -0.4235 -0.6458  0.6447
    6MOL0     C  673   4.286   5.235   2.622  0.4177  0.4148  0.2288
    6MOL0     C  674   4.155   5.288   2.564  0.3829 -0.0504  0.4677
    6MOL0     C  675   4.168   5.438   2.528  0.2803  0.1525  0.5488
    6MOL0     C  676   4.041   5.519   2.547 -0.2059  0.3775 -0.2400
    6MOL0     N  677   3.930   5.444   2.495 -0.3583  0.7215  0.3585
    6MOL0     C  678   3.816   5.401   2.569  0.0308  0.8074 -0.3178
    6MOL0     C  679   3.731   5.360   2.475  0.2033  0.0980 -0.3940
    6MOL0     C  680   3.588   5.307   2.487 -0.6641  0.5938 -0.9077
    6MOL0     C  681   3.505   5.289   2.364 -0.5341 -0.2355  0.8003
    6MOL0     C  682   3.408   5.181   2.382  0.1825 -1.0426 -0.5217
    6MOL0     C  683   3.334   5.165   2.253  0.6450 -0.0254  1.4973
    6MOL0     O  684   3.240   5.063   2.277  0.8352  0.1175  0.2542
    6MOL0     C  685   3.119   5.073   2.216 -0.1473  0.1800 -0.0968
    6MOL0     C  686   3.096   5.119   2.081 -0.7711  0.3267 -0.9983
    6MOL0     C  687   2.963   5.111   2.038 -0.1525 -0.3321  0.9653
    6MOL0     C  688   2.855   5.059   2.115 -0.0381  0.4097  0.2305
    6MOL0     C  689   2.711   5.058   2.073  0.3325 -1.5034  0.0924
    6MOL0     O  690   2.679   5.146   1.978  0.9334  0.0397 -0.3058
    6MOL0     C  691   2.554   5.177   1.929 -0.3027 -0.9025  0.0532
    6MOL0     C  692   2.529   5.311   1.891 -0.2503  0.2221  0.5819
    6MOL0     C  693   2.406   5.353   1.849  0.8566  0.4792  0.5285
    6MOL0     C  694   2.299   5.264   1.851  0.6698  0.0127  0.2419
    6MOL0     O  695   2.176   5.333   1.822  0.0676  0.1770  0.2156
    6MOL0     C  696   2.065   5.304   1.911 -0.1885  0.0099  0.2295
    6MOL0     C  697   1.944   5.331   1.835 -0.3539  0.2258  0.5819
    6MOL0     C  698   1.939   5.457   1.759 -0.0586 -0.1695 -0.1812
    6MOL0     C  699   1.973   5.581   1.851  1.4085 -0.3560  0.1291
    6MOL0     C  700   2.006   5.703   1.764  0.0888  0.0051 -0.9875
    6MOL0     C  701   2.157   5.687   1.718  0.2176  0.1332 -0.1106
    6MOL0     C  702   2.255   5.714   1.831 -0.6479 -0.3587 -1.1299
    6MOL0     C  703   2.392   5.757   1.780 -0.3147 -1.3679 -0.4641
    6MOL0    Cl  704   2.511   5.763   1.914  0.0638  0.2696  0.3206
    6MOL0     C  705   2.320   5.123   1.886 -0.5868  0.5711  0.1523
    6MOL0     C  706   2.453   5.081   1.929  0.2308  0.2830  0.4088
    6MOL0     O  707   2.631   5.011   2.153 -0.8403 -0.0761  0.2653
    6MOL0     C  708   2.892   5.011   2.241  0.4151  0.8795  0.5143
    6MOL0     C  709   3.019   5.018   2.288  0.1117  0.7625 -0.0440
    6MOL0     N  710   3.795   5.369   2.351 -1.2771 -0.5849  0.8079
    6MOL0     N  711   3.916   5.418   2.360 -0.0504 -0.4596 -0.0778
    6MOL0     C  712   3.987   4.665   2.879  0.5213  0.2546  0.8485
    6MOL0     C  713   3.887   4.575   2.917  0.2432  0.0284  0.5052
    6MOL0     C  714   3.578   4.233   2.869 -0.2562 -0.1703 -0.4518
    6MOL0     C  715   3.459   4.300   2.913  0.5788  0.9145 -0.3119
    6MOL0     C  716   3.344   4.226   2.955 -0.4711 -0.5777 -0.1749
    6MOL0     C  717   3.349   4.087   2.949 -0.8175  0.1039  0.7607
    6MOL0     O  718   3.241   4.027   2.990  0.9076 -0.3472 -0.4151
    6MOL0     C  719   3.141   3.975   2.895 -0.4823  0.1337  0.2607
    6MOL0     C  720   3.009   4.057   2.907  1.1093 -0.1275  0.3931
    6MOL0     C  721   2.908   3.993   2.823  0.2465 -0.3698 -0.6352
    6MOL0     C  722   2.787   4.096   2.787 -0.5346 -0.8157 -0.0463
    6MOL0     C  723   2.707   4.129   2.908  0.8602  1.3464  0.7893
    6MOL0     C  724   2.650   4.151   3.008  0.4875  0.0236  0.4218
    6MOL0     C  725   3.469   4.021   2.908  0.0329  0.3349 -0.1725
    6MOL0     C  726   3.574   4.093   2.859 -0.5733 -0.1033  0.5309
    6MOL0     H  727   3.754   4.501   2.612 -2.1250  0.9137  1.7576
    6MOL0     H  728   3.945   4.662   2.547  2.1862 -1.8050  0.0700
    6MOL0     H  729   4.248   4.697   2.827  0.0465 -0.3632  2.9330
    6MOL0     H  730   4.211   4.867   2.854 -3.2881 -2.5036  2.6366
    6MOL0     H  731   4.356   4.744   2.618 -0.2723 -1.8973  1.9340
    6MOL0     H  732   4.430   4.840   2.744  1.6994  1.5258 -1.2294
    6MOL0     H  733   4.253   4.937   2.529  0.9186 -1.6660 -0.9783
    6MOL0     H  734   4.412   5.018   2.561 -0.6835  1.2118 -0.8078
    6MOL0     H  735   4.163   5.081   2.709 -0.9292  1.5352 -1.1293
    6MOL0     H  736   4.336   5.085   2.783 -0.1762 -1.0938  0.4283
    6MOL0     H  737   4.370   5.230   2.552  3.1579 -2.8077  3.3083
    6MOL0     H  738   4.321   5.304   2.699  0.4834  2.5726 -1.6402
    6MOL0     H  739   4.076   5.282   2.639 -0.4513 -2.3907 -0.5051
    6MOL0     H  740   4.119   5.232   2.477 -0.3302  1.5916 -0.3358
    6MOL0     H  741   4.247   5.484   2.587  0.5879  0.4507 -0.0838
    6MOL0     H  742   4.182   5.436   2.419 -0.9253 -1.6720  0.3722
    6MOL0     H  743   4.060   5.616   2.500 -0.5251  1.1762  1.1892
    6MOL0     H  744   4.014   5.537   2.652 -1.9703 -0.5494 -0.4914
    6MOL0     H  745   3.809   5.403   2.678  0.9891  1.6464 -0.2507
    6MOL0     H  746   3.531   5.364   2.561  1.8043 -0.3429  1.9186
    6MOL0     H  747   3.599   5.209   2.533  3.0931  1.5920  0.6463
    6MOL0     H  748   3.575   5.255   2.287 -0.1035 -0.2891  1.2138
    6MOL0     H  749   3.468   5.387   2.329  1.6983 -0.1735 -1.6927
    6MOL0     H  750   3.447   5.083   2.411 -1.5748 -1.1751  1.6119
    6MOL0     H  751   3.331   5.214   2.452  2.3050  2.0788  0.5457
    6MOL0     H  752   3.404   5.129   2.177  0.5505 -0.5742  1.6642
    6MOL0     H  753   3.294   5.264   2.229 -1.6426 -1.5791 -1.9053
    6MOL0     H  754   3.162   5.157   2.004 -0.3413 -1.0277 -1.3323
    6MOL0     H  755   2.940   5.148   1.938  1.5720  0.2675  0.7601
    6MOL0     H  756   2.609   5.384   1.877  0.0044  0.1620  1.6893
    6MOL0     H  757   2.397   5.456   1.816  1.5219  0.1896 -0.6059
    6MOL0     H  758   2.076   5.360   2.004 -0.3567 -2.1013  1.5823
    6MOL0     H  759   2.074   5.196   1.928  0.4762  0.0318  0.0361
    6MOL0     H  760   1.857   5.302   1.895 -0.4987 -0.7152 -0.0555
    6MOL0     H  761   1.938   5.249   1.762  0.0019 -2.5946  3.5060
    6MOL0     H  762   1.839   5.476   1.719 -0.1376  1.4551  0.7123
    6MOL0     H  763   2.009   5.461   1.676 -2.2065  0.2781 -2.0769
    6MOL0     H  764   1.883   5.599   1.910  0.8205  0.6728 -1.0219
    6MOL0     H  765   2.050   5.561   1.927  1.5705 -3.8314 -0.7552
    6MOL0     H  766   1.990   5.799   1.814  0.7543 -1.0386  1.3589
    6MOL0     H  767   1.943   5.703   1.674  2.1691  1.2304 -2.5130
    6MOL0     H  768   2.159   5.753   1.631 -2.1461  0.2601 -0.1230
    6MOL0     H  769   2.176   5.587   1.677 -1.5884 -0.4591  0.3890
    6MOL0     H  770   2.227   5.789   1.907 -0.1532 -1.6177  0.3559
    6MOL0     H  771   2.272   5.627   1.896 -0.6440 -1.1844 -2.2190
    6MOL0     H  772   2.382   5.856   1.736 -2.1812  0.4847  3.5287
    6MOL0     H  773   2.427   5.688   1.703  1.0956  1.7974 -2.8759
    6MOL0     H  774   2.230   5.064   1.899 -0.6273  0.8405  1.1667
    6MOL0     H  775   2.487   4.986   1.969 -0.3458  0.3239  1.0051
    6MOL0     H  776   2.818   4.955   2.297  0.9900 -3.8681 -2.8821
    6MOL0     H  777   3.030   4.975   2.387  0.8687  0.5231 -0.2178
    6MOL0     H  778   4.044   4.698   2.966 -0.1730  0.7271  1.1287
    6MOL0     H  779   3.878   4.569   3.025 -2.8994  1.6446  0.4451
    6MOL0     H  780   3.457   4.409   2.912  1.0130  0.9542 -2.1617
    6MOL0     H  781   3.249   4.269   2.987  0.4423  0.4704  1.2410
    6MOL0     H  782   3.121   3.868   2.897  2.2222 -0.4179  0.8243
    6MOL0     H  783   3.176   3.988   2.793  1.8277  0.7029  1.0730
    6MOL0     H  784   2.971   4.068   3.009 -0.2209  4.6022 -0.4087
    6MOL0     H  785   3.022   4.153   2.857 -3.3584 -1.1538 -3.3752
    6MOL0     H  786   2.878   3.900   2.873  4.5724 -0.0854  3.1150
    6MOL0     H  787   2.951   3.959   2.728 -0.4721 -0.6375 -0.8799
    6MOL0     H  788   2.822   4.192   2.750  0.6023 -1.4338 -0.6220
    6MOL0     H  789   2.714   4.051   2.718 -1.3487 -1.9263  1.4614
    6MOL0     H  790   2.606   4.190   3.097  1.6609  4.1357 -0.5681
    6MOL0     H  791   3.473   3.913   2.916  1.1061  0.4447  1.3011
    6MOL0     H  792   3.667   4.047   2.828  0.4014  1.9790  0.2257
    7MOL0     O  793   8.907   4.037  10.917  0.0689 -0.3142  0.2440
    7MOL0     C  794   8.937   3.997  11.033  0.1547  0.2458  0.3837
    7MOL0     O  795   8.859   3.906  11.098  0.4828 -0.1726 -0.1698
    7MOL0     C  796   8.722   3.909  11.104 -0.0550 -0.1183 -0.6733
    7MOL0     C  797   8.647   4.017  11.058 -0.5284  0.4049  0.2491
    7MOL0     C  798   8.515   4.014  11.055 -0.4152  0.8041  0.1095
    7MOL0     C  799   8.450   3.896  11.086  1.1457  0.3372 -0.5582
    7MOL0     O  800   8.313   3.878  11.095  0.4105 -0.0703  0.1357
    7MOL0     C  801   8.234   3.953  11.006 -0.8881  0.2060  0.0118
    7MOL0     C  802   8.083   3.902  11.009 -0.7870 -1.1478  0.3671
    7MOL0     C  803   7.997   3.944  10.889  0.5228  0.0097  0.0782
    7MOL0     C  804   7.859   3.884  10.911  0.1420 -0.7586  1.4150
    7MOL0     C  805   7.778   3.965  11.012 -0.0527  0.3797 -0.6830
    7MOL0     C  806   7.700   4.084  10.950 -0.5023  0.1574 -0.2355
    7MOL0     C  807   7.629   4.159  11.063  0.1341 -0.1056  0.1597
    7MOL0     C  808   7.572   4.304  11.032 -0.1567  0.1191 -0.6282
    7MOL0     N  809   7.460   4.303  10.940 -0.4662  0.3588  0.9574
    7MOL0     C  810   7.330   4.278  10.973  0.1898 -0.2078 -0.7570
    7MOL0     C  811   7.262   4.271  10.855 -0.2801  0.3285  0.0160
    7MOL0     C  812   7.120   4.252  10.833  0.4324  0.7405  0.3983
    7MOL0     C  813   7.061   4.119  10.889  0.3383  0.1985 -0.3919
    7MOL0     C  814   7.109   3.992  10.805 -0.1264 -0.0160 -0.3840
    7MOL0     C  815   7.256   3.952  10.829 -0.0097  0.4222 -0.8891
    7MOL0     O  816   7.272   3.935  10.975  0.1975 -0.0382 -0.2548
    7MOL0     C  817   7.378   3.846  11.020  0.4498  0.4811  0.4425
    7MOL0     C  818   7.381   3.825  11.158 -0.1139 -0.1699  0.2495
    7MOL0     C  819   7.469   3.729  11.208  0.1309  0.2931 -0.4273
    7MOL0     C  820   7.574   3.674  11.123  0.3550 -0.2339 -0.6936
    7MOL0     C  821   7.685   3.592  11.184 -0.0884 -0.1527  0.3480
    7MOL0     O  822   7.799   3.564  11.110  0.3023  0.6445  0.2326
    7MOL0     C  823   7.917   3.521  11.174 -0.9202 -0.8330 -0.0348
    7MOL0     C  824   7.955   3.386  11.173 -0.0301  0.1425 -0.2986
    7MOL0     C  825   8.083   3.360  11.219  0.0400  0.0176  0.9606
    7MOL0     C  826   8.171   3.458  11.260 -0.2959  0.5711  1.0463
    7MOL0     O  827   8.302   3.445  11.311  0.5711 -0.3418 -0.1573
    7MOL0     C  828   8.378   3.331  11.268  0.1875 -0.3050 -0.5236
    7MOL0     C  829   8.516   3.324  11.334 -0.2798 -0.6678 -0.5287
    7MOL0     C  830   8.626   3.426  11.301 -0.0688 -0.3882 -0.8653
    7MOL0     C  831   8.752   3.385  11.379  1.1453 -0.4657  1.4575
    7MOL0     C  832   8.863   3.461  11.315 -0.0599  0.4586 -0.5701
    7MOL0     C  833   8.985   3.424  11.394  0.3435 -0.0118 -0.2787
    7MOL0     C  834   9.092   3.501  11.339 -0.7208  0.6888  0.2216
    7MOL0     C  835   9.205   3.475  11.437  0.2593 -0.3834 -1.3041
    7MOL0    Cl  836   9.242   3.300  11.487 -0.0777 -0.8334  0.0916
    7MOL0     C  837   8.121   3.591  11.265 -0.3865  0.1828  0.3065
    7MOL0     C  838   7.995   3.629  11.218  0.0867 -0.1438 -0.9911
    7MOL0     O  839   7.676   3.573  11.302  0.6951  0.5910  0.9220
    7MOL0     C  840   7.569   3.702  10.989  0.0938  0.6736  1.1183
    7MOL0     C  841   7.466   3.777  10.934  0.0137 -0.3486  0.1650
    7MOL0     N  842   7.356   4.278  10.752  0.5833  0.3033  0.2299
    7MOL0     N  843   7.471   4.295  10.797  0.3273 -0.1117  0.2308
    7MOL0     C  844   8.519   3.786  11.130  0.2401  0.0898 -0.6182
    7MOL0     C  845   8.660   3.796  11.134 -0.0440 -0.0525 -0.7040
    7MOL0     C  846   9.075   4.023  11.092  0.8179 -0.6138  0.7211
    7MOL0     C  847   9.120   3.973  11.217 -0.3008  0.3234 -0.8352
    7MOL0     C  848   9.247   3.998  11.256 -0.1460  0.4564  0.9129
    7MOL0     C  849   9.334   4.095  11.194 -0.0044  0.1395  0.4720
    7MOL0     O  850   9.454   4.128  11.249 -0.2110  0.1270  0.6188
    7MOL0     C  851   9.537   4.236  11.200 -0.9658  0.6207 -0.7822
    7MOL0     C  852   9.640   4.255  11.313  1.6768  0.1133 -0.0200
    7MOL0     C  853   9.752   4.168  11.287 -0.8677 -0.0000  0.4404
    7MOL0     C  854   9.877   4.214  11.366  0.8324  0.1541  0.7921
    7MOL0     C  855   9.955   4.326  11.295  0.4876 -0.0308 -0.1905
    7MOL0     C  856  10.013   4.411  11.230 -0.7107 -0.6651  0.9402
    7MOL0     C  857   9.283   4.151  11.081  0.8169  0.1211 -0.4382
    7MOL0     C  858   9.157   4.102  11.023  0.2387 -0.9884  0.5674
    7MOL0     H  859   8.696   4.111  11.037 -0.6106  0.7304  1.4536
    7MOL0     H  860   8.469   4.100  11.008  0.8466  0.5490 -1.7108
    7MOL0     H  861   8.264   3.943  10.901 -1.6454 -0.1632 -0.1740
    7MOL0     H  862   8.251   4.059  11.030  3.1556  0.4564 -2.9570
    7MOL0     H  863   8.029   3.942  11.095 -0.6977  3.0738 -1.3282
    7MOL0     H  864   8.096   3.793  11.014 -2.1751 -1.3620 -0.1530
    7MOL0     H  865   8.043   3.892  10.804  1.6814  1.4170 -0.1926
    7MOL0     H  866   7.999   4.053  10.884  1.0752  0.0363  0.7204
    7MOL0     H  867   7.804   3.893  10.817  0.5684  0.2711  1.2546
    7MOL0     H  868   7.861   3.777  10.935 -2.2254 -1.6831 -1.7742
    7MOL0     H  869   7.842   4.000  11.094  0.5355 -0.5649 -0.7294
    7MOL0     H  870   7.707   3.900  11.064  1.5469 -0.7035  0.2597
    7MOL0     H  871   7.635   4.045  10.872 -2.6921  1.3796  0.8794
    7MOL0     H  872   7.768   4.158  10.907  1.9651 -1.5407  0.5229
    7MOL0     H  873   7.555   4.086  11.096 -1.8197  0.3585 -2.7859
    7MOL0     H  874   7.697   4.168  11.148  0.6312 -2.1272  0.0324
    7MOL0     H  875   7.647   4.366  10.981 -0.2595  0.3317 -0.5238
    7MOL0     H  876   7.533   4.347  11.125 -1.0786 -1.9454 -0.0088
    7MOL0     H  877   7.290   4.266  11.073  1.2052 -0.6721 -0.3873
    7MOL0     H  878   7.086   4.269  10.731 -0.5992 -1.0778  0.3777
    7MOL0     H  879   7.081   4.332  10.897  1.1478  0.2718  1.4436
    7MOL0     H  880   6.955   4.132  10.865  0.3618 -2.0039 -2.0337
    7MOL0     H  881   7.072   4.102  10.997 -1.8639 -2.3192 -0.4716
    7MOL0     H  882   7.051   3.907  10.842 -1.3521  1.3625  1.0421
    7MOL0     H  883   7.091   4.016  10.700 -1.7231  1.3816  0.1734
    7MOL0     H  884   7.337   4.021  10.802 -0.1990  0.4654 -1.3537
    7MOL0     H  885   7.273   3.868  10.762  1.3502  1.6139 -2.1154
    7MOL0     H  886   7.309   3.865  11.228 -1.4313 -1.0548 -0.5552
    7MOL0     H  887   7.465   3.715  11.316  0.9775  1.2976 -0.2564
    7MOL0     H  888   7.892   3.308  11.132 -1.6279  1.5893 -0.7120
    7MOL0     H  889   8.124   3.261  11.202 -3.3574 -1.1832 -1.3212
    7MOL0     H  890   8.400   3.336  11.161  1.2676 -0.7015 -0.3327
    7MOL0     H  891   8.319   3.241  11.287  0.3560 -0.0046  1.7171
    7MOL0     H  892   8.545   3.220  11.318 -0.6375 -0.6141 -1.6051
    7MOL0     H  893   8.492   3.333  11.440 -2.4951 -4.5213 -0.5231
    7MOL0     H  894   8.583   3.521  11.336 -2.6983 -1.6203 -0.4829
    7MOL0     H  895   8.648   3.438  11.195 -1.9380  0.2167 -1.2337
    7MOL0     H  896   8.742   3.417  11.483  0.3825  0.2503  1.1711
    7MOL0     H  897   8.769   3.277  11.377  1.5415 -0.4127 -0.2253
    7MOL0     H  898   8.837   3.567  11.318 -1.3570  0.1272  1.4977
    7MOL0     H  899   8.881   3.432  11.211  1.7499  0.9038 -0.4269
    7MOL0     H  900   9.012   3.319  11.380  0.2711 -0.1572  0.6024
    7MOL0     H  901   8.960   3.445  11.498 -3.8634  2.4305 -1.5261
    7MOL0     H  902   9.110   3.470  11.236  2.3693  4.0328 -0.4379
    7MOL0     H  903   9.083   3.609  11.332  2.6476  1.0475 -0.2534
    7MOL0     H  904   9.169   3.526  11.527 -1.8945 -2.4763 -0.8691
    7MOL0     H  905   9.306   3.508  11.411  0.5893 -0.0801  0.2891
    7MOL0     H  906   8.183   3.675  11.291  0.9806 -0.5493 -0.4838
    7MOL0     H  907   7.970   3.734  11.222  0.5796  0.0101 -1.6900
    7MOL0     H  908   7.640   3.655  10.922 -0.6339  0.6303  0.3629
    7MOL0     H  909   7.463   3.781  10.826 -1.5728 -2.2262  0.0877
    7MOL0     H  910   8.473   3.689  11.147  1.2705 -0.6731 -2.0076
    7MOL0     H  911   8.729   3.716  11.159 -1.1902 -0.8695 -0.0670
    7MOL0     H  912   9.057   3.904  11.272 -0.5313  0.6807 -0.6506
    7MOL0     H  913   9.275   3.949  11.349  1.4124 -0.1883  0.1514
    7MOL0     H  914   9.487   4.333  11.197  0.5509  1.5291  0.8969
    7MOL0     H  915   9.571   4.217  11.098 -3.1326  1.0069 -1.6354
    7MOL0     H  916   9.660   4.363  11.316 -2.4121  1.0066  2.2458
    7MOL0     H  917   9.591   4.227  11.406 -0.3806  0.2686 -1.0118
    7MOL0     H  918   9.780   4.169  11.182 -0.4220 -1.9840  0.5042
    7MOL0     H  919   9.735   4.064  11.318  1.2455 -0.6865 -0.5397
    7MOL0     H  920   9.857   4.238  11.471  2.0049  0.7487  0.8921
    7MOL0     H  921   9.945   4.129  11.364  0.5554 -0.0780  1.0393
    7MOL0     H  922  10.085   4.479  11.188 -0.4121 -0.1251  2.2735
    7MOL0     H  923   9.350   4.220  11.030  0.2362  1.5732  0.7221
    7MOL0     H  924   9.116   4.152  10.936  1.0828 -1.7236 -0.2759
    8MOL0     O  925   6.652  10.423   1.936 -0.7225  1.2028 -0.0836
    8MOL0     C  926   6.578  10.398   2.029 -0.7218 -0.0565 -0.0646
    8MOL0     O  927   6.619  10.418   2.152  0.5753 -0.1982 -0.4627
    8MOL0     C  928   6.740  10.476   2.187 -0.9210 -0.2348  0.1112
    8MOL0     C  929   6.854  10.401   2.178 -0.3117 -1.0095  1.0494
    8MOL0     C  930   6.977  10.448   2.240 -0.8408 -0.1767 -0.8605
    8MOL0     C  931   6.985  10.572   2.302  0.7757  0.4399 -0.1350
    8MOL0     O  932   7.105  10.605   2.351  0.0273 -0.3474  0.5865
    8MOL0     C  933   7.097  10.676   2.480  0.2218  0.0323 -0.2845
    8MOL0     C  934   7.217  10.648   2.567  0.1901  0.3227  0.3777
    8MOL0     C  935   7.238  10.732   2.699  0.3223 -0.0403 -0.4133
    8MOL0     C  936   7.110  10.742   2.796  0.5067  0.9196  0.5921
    8MOL0     C  937   7.153  10.835   2.913 -0.0159  0.0329 -0.1617
    8MOL0     C  938   7.080  10.824   3.042 -0.2375  0.6017  0.5991
    8MOL0     C  939   7.136  10.923   3.148  0.0092  0.3601  0.1929
    8MOL0     C  940   7.082  11.067   3.119  0.5406  0.0829  1.1631
    8MOL0     N  941   6.945  11.093   3.140  0.0868  0.3828  0.2336
    8MOL0     C  942   6.884  11.069   3.261  0.0811  0.0174 -0.4258
    8MOL0     C  943   6.751  11.061   3.236 -0.1763 -0.2075  0.2862
    8MOL0     C  944   6.648  11.030   3.338  0.2148 -0.2576  0.3240
    8MOL0     C  945   6.538  10.954   3.275  0.7119 -0.5492 -0.0160
    8MOL0     C  946   6.461  10.865   3.378  1.0386  0.8392  0.0918
    8MOL0     C  947   6.434  10.928   3.522 -0.3624  0.5372 -0.4047
    8MOL0     O  948   6.357  10.836   3.602  0.1513 -0.6035 -0.2433
    8MOL0     C  949   6.215  10.842   3.587 -0.1195 -0.3798  0.5413
    8MOL0     C  950   6.137  10.933   3.506 -0.0696 -0.1736 -0.7991
    8MOL0     C  951   5.995  10.921   3.491  0.5195 -0.1802 -0.9049
    8MOL0     C  952   5.924  10.819   3.554 -0.2122  0.0864  0.0367
    8MOL0     C  953   5.780  10.810   3.546  0.3939  0.4251 -0.5554
    8MOL0     O  954   5.736  10.695   3.602 -0.0840 -0.4537  0.2968
    8MOL0     C  955   5.598  10.690   3.637 -0.0195  0.2713 -0.0977
    8MOL0     C  956   5.529  10.577   3.595 -0.5822  0.8077  0.1813
    8MOL0     C  957   5.396  10.552   3.623 -0.5361 -0.9561  0.4476
    8MOL0     C  958   5.330  10.631   3.714  0.3805 -0.5807 -0.4080
    8MOL0     O  959   5.206  10.598   3.768  0.0982 -0.0268 -1.0098
    8MOL0     C  960   5.190  10.470   3.824 -0.2746 -0.5589  0.2937
    8MOL0     C  961   5.064  10.463   3.916 -0.1386 -0.5978 -0.7184
    8MOL0     C  962   4.938  10.439   3.837  0.7682 -0.4876 -0.7060
    8MOL0     C  963   4.810  10.457   3.928  0.0501  0.0912  0.3388
    8MOL0     C  964   4.730  10.320   3.945 -1.1338 -0.0733 -0.8836
    8MOL0     C  965   4.617  10.344   4.049 -0.1760  0.7437 -0.1354
    8MOL0     C  966   4.521  10.220   4.050 -1.0124  0.6947 -0.1028
    8MOL0     C  967   4.565  10.099   4.126 -0.1753 -0.1084 -0.5826
    8MOL0    Cl  968   4.418   9.990   4.119 -0.2104 -0.1247 -0.0048
    8MOL0     C  969   5.394  10.751   3.755  0.1059 -0.0245  0.2643
    8MOL0     C  970   5.524  10.788   3.714 -0.3818  0.6854  0.1667
    8MOL0     O  971   5.716  10.906   3.508 -0.4652  0.1139  0.1901
    8MOL0     C  972   6.002  10.735   3.634 -0.8263  0.1565  0.1474
    8MOL0     C  973   6.141  10.739   3.647  0.0157 -0.7352  0.0618
    8MOL0     N  974   6.734  11.102   3.102 -0.0365 -0.4869 -0.9249
    8MOL0     N  975   6.849  11.111   3.043 -0.2657  0.2707  1.5918
    8MOL0     C  976   6.867  10.656   2.298  0.2233  1.0608  0.0818
    8MOL0     C  977   6.746  10.599   2.253 -0.5567 -0.6714  1.0799
    8MOL0     C  978   6.443  10.345   1.996 -0.5866  0.3598 -0.1241
    8MOL0     C  979   6.395  10.351   1.870  0.1051  0.6290  0.2111
    8MOL0     C  980   6.276  10.279   1.838 -0.3405  0.6849 -0.6692
    8MOL0     C  981   6.183  10.237   1.939  0.4530  0.4950 -0.2072
    8MOL0     O  982   6.052  10.197   1.901 -0.3019 -0.3695  0.1909
    8MOL0     C  983   5.957  10.144   1.995 -0.1100 -0.0620  0.4151
    8MOL0     C  984   5.823  10.092   1.931 -0.0920  0.7033 -0.1130
    8MOL0     C  985   5.733  10.198   1.875 -0.7137 -0.6540 -0.3639
    8MOL0     C  986   5.681  10.291   1.987 -0.3072  0.4909  0.4453
    8MOL0     C  987   5.585  10.376   1.918  0.2038  0.8564 -0.4056
    8MOL0     C  988   5.500  10.444   1.859 -0.0038 -0.3294  0.3322
    8MOL0     C  989   6.230  10.251   2.071  0.1888 -0.5591  0.0415
    8MOL0     C  990   6.358  10.290   2.096 -0.4279  0.3732  0.5003
    8MOL0     H  991   6.866  10.308   2.124  0.8435 -0.5573  0.4980
    8MOL0     H  992   7.075  10.402   2.236 -0.3845  0.7862 -1.1157
    8MOL0     H  993   7.014  10.642   2.542  0.1501  1.5102  0.4637
    8MOL0     H  994   7.076  10.782   2.462  1.6223  0.1412 -1.4485
    8MOL0     H  995   7.309  10.653   2.507 -0.7771 -0.4699 -1.2648
    8MOL0     H  996   7.197  10.548   2.607  2.6153  0.4286  2.0294
    8MOL0     H  997   7.257  10.832   2.658 -2.9191  1.2114  0.7849
    8MOL0     H  998   7.331  10.698   2.745  2.8096  4.3504 -1.5794
    8MOL0     H  999   7.026  10.789   2.744  1.6026  3.3370  0.8415
    8MOL0     H 1000   7.101  10.635   2.815  3.8742 -0.9298 -5.4082
    8MOL0     H 1001   7.162  10.937   2.876 -0.0618  0.5192  1.1232
    8MOL0     H 1002   7.256  10.813   2.942 -0.2039  1.7811  2.0272
    8MOL0     H 1003   7.093  10.720   3.073 -1.0111  0.3771  0.2070
    8MOL0     H 1004   6.975  10.843   3.017  0.1415 -0.3385 -2.0888
    8MOL0     H 1005   7.109  10.887   3.247  0.8667 -1.1586 -0.0937
    8MOL0     H 1006   7.245  10.923   3.154  0.1341 -3.5576  0.6143
    8MOL0     H 1007   7.103  11.082   3.012  1.0581 -1.7763  0.9538
    8MOL0     H 1008   7.131  11.146   3.177 -0.8591  2.9609 -1.3308
    8MOL0     H 1009   6.940  11.042   3.350 -1.4379  1.6702  1.0942
    8MOL0     H 1010   6.623  11.120   3.395  1.6160  0.1688  0.3182
    8MOL0     H 1011   6.698  10.965   3.410  1.7452  1.1103  0.5631
    8MOL0     H 1012   6.571  10.907   3.182  4.8260  1.8402 -0.0136
    8MOL0     H 1013   6.465  11.029   3.242 -1.1278 -1.7406  1.1528
    8MOL0     H 1014   6.372  10.826   3.328  1.2672  0.6678 -0.1843
    8MOL0     H 1015   6.522  10.776   3.394 -4.1216 -4.4521 -4.6417
    8MOL0     H 1016   6.377  11.021   3.521 -2.2420 -0.5631 -0.2062
    8MOL0     H 1017   6.526  10.958   3.574 -1.3293  3.3822 -0.1746
    8MOL0     H 1018   6.186  11.016   3.455  0.9367  0.2302  0.7507
    8MOL0     H 1019   5.957  10.994   3.420 -2.7473 -0.6383  0.1869
    8MOL0     H 1020   5.589  10.501   3.546 -0.3382  1.2541 -0.2262
    8MOL0     H 1021   5.352  10.463   3.581 -1.9216  0.0351 -0.2841
    8MOL0     H 1022   5.278  10.452   3.886  0.6966 -0.3480 -0.9711
    8MOL0     H 1023   5.182  10.397   3.743  2.6095  1.7671 -2.3562
    8MOL0     H 1024   5.060  10.556   3.973  3.1301  0.0987 -1.4629
    8MOL0     H 1025   5.079  10.377   3.983  1.3600  0.0897 -0.1377
    8MOL0     H 1026   4.937  10.343   3.784  0.2228  0.0339 -1.6773
    8MOL0     H 1027   4.934  10.518   3.761  1.8892 -1.4200 -1.7744
    8MOL0     H 1028   4.833  10.502   4.025  0.0898 -3.6072  2.2434
    8MOL0     H 1029   4.740  10.521   3.873  1.3484  1.8198  0.6208
    8MOL0     H 1030   4.795  10.244   3.989 -0.7755  0.4618 -0.4739
    8MOL0     H 1031   4.693  10.268   3.856 -4.8051 -0.4257  0.6683
    8MOL0     H 1032   4.558  10.432   4.025  1.0828  0.8936 -3.1339
    8MOL0     H 1033   4.658  10.361   4.149 -0.5432 -0.4477  0.2339
    8MOL0     H 1034   4.431  10.258   4.099 -0.9190  0.9309 -0.1141
    8MOL0     H 1035   4.498  10.190   3.947  1.3034  3.3274 -1.5462
    8MOL0     H 1036   4.566  10.130   4.231 -1.5809  1.2281 -0.9260
    8MOL0     H 1037   4.654  10.052   4.084  0.4856 -0.6200  1.2736
    8MOL0     H 1038   5.334  10.815   3.820  0.0054  1.3422 -1.1175
    8MOL0     H 1039   5.566  10.879   3.758  0.0109  1.0567 -0.9434
    8MOL0     H 1040   5.962  10.643   3.677 -0.5491  1.0743  2.5625
    8MOL0     H 1041   6.187  10.659   3.705 -0.4612 -1.3536 -0.3893
    8MOL0     H 1042   6.853  10.759   2.329 -3.5283  0.7266  0.0219
    8MOL0     H 1043   6.652  10.654   2.255  0.5910  1.4561 -0.0625
    8MOL0     H 1044   6.445  10.405   1.791  1.4369 -2.5149 -1.2551
    8MOL0     H 1045   6.249  10.274   1.733  0.1090  0.2929 -0.7700
    8MOL0     H 1046   5.943  10.234   2.055 -2.2598  1.6516 -2.3620
    8MOL0     H 1047   6.001  10.066   2.058  1.4518  1.3834  1.1730
    8MOL0     H 1048   5.850  10.033   1.844 -2.9886  0.5510 -1.0030
    8MOL0     H 1049   5.773  10.038   2.013 -0.1669  0.2438 -0.4603
    8MOL0     H 1050   5.654  10.143   1.824 -1.6668 -0.6804  1.0729
    8MOL0     H 1051   5.788  10.261   1.805 -1.8778  2.5121  1.3596
    8MOL0     H 1052   5.639  10.224   2.063 -3.0016  2.7472  1.1153
    8MOL0     H 1053   5.749  10.364   2.031  1.9547 -1.1789 -0.0801
    8MOL0     H 1054   5.444  10.513   1.799 -0.4658  0.4934  1.6546
    8MOL0     H 1055   6.186  10.210   2.162  0.8926  1.4963  1.3836
    8MOL0     H 1056   6.379  10.291   2.203 -1.9023 -1.0462  0.8413
    9MOL0     O 1057   9.116   8.495   9.847  0.4185  0.0454  0.2583
    9MOL0     C 1058   9.184   8.532   9.752  0.2796  0.9606 -0.0616
    9MOL0     O 1059   9.140   8.561   9.624 -0.4583 -0.4728 -0.1058
    9MOL0     C 1060   8.997   8.561   9.610 -0.4299 -0.7423 -0.2357
    9MOL0     C 1061   8.932   8.681   9.639 -0.3123  0.5140  0.6411
    9MOL0     C 1062   8.793   8.680   9.650  0.1501 -0.1810  0.7547
    9MOL0     C 1063   8.715   8.559   9.640 -1.5684  0.3749 -0.0296
    9MOL0     O 1064   8.579   8.553   9.660  0.4300  0.4062  0.4933
    9MOL0     C 1065   8.550   8.464   9.766 -0.5955  0.1227 -0.6678
    9MOL0     C 1066   8.446   8.520   9.858  0.0213 -0.1867 -0.2211
    9MOL0     C 1067   8.315   8.559   9.792 -0.0862 -0.2683  0.1086
    9MOL0     C 1068   8.225   8.445   9.771  0.2791  0.1291 -0.8114
    9MOL0     C 1069   8.110   8.465   9.668  0.2799 -0.3133  0.1284
    9MOL0     C 1070   7.997   8.576   9.697 -0.5005  0.7178  0.2606
    9MOL0     C 1071   7.904   8.539   9.820  0.2218  0.0900  0.3115
    9MOL0     C 1072   7.826   8.410   9.790  0.9576 -0.3876  0.1284
    9MOL0     N 1073   7.751   8.368   9.907  0.0689 -0.2516  0.0287
    9MOL0     C 1074   7.617   8.329   9.915 -0.0616 -0.6119  0.2977
    9MOL0     C 1075   7.589   8.299  10.040 -0.4947 -0.5439  0.1610
    9MOL0     C 1076   7.458   8.243  10.081  0.8266  0.0822  1.0434
    9MOL0     C 1077   7.339   8.341  10.053 -0.5337  0.8243 -0.0231
    9MOL0     C 1078   7.334   8.427  10.171  0.5312  0.1005  0.6866
    9MOL0     C 1079   7.212   8.513  10.178  0.5930  0.7678  0.7228
    9MOL0     O 1080   7.102   8.439  10.230 -0.2402  0.3790  0.7163
    9MOL0     C 1081   6.986   8.502  10.190  0.7294  0.2421 -0.0016
    9MOL0     C 1082   6.921   8.586  10.282  0.1477  0.6766 -0.4721
    9MOL0     C 1083   6.803   8.646  10.243 -0.0335  0.5515  0.3577
    9MOL0     C 1084   6.745   8.626  10.119  0.5307 -0.1336  0.6872
    9MOL0     C 1085   6.609   8.678  10.099 -0.1718  0.5804 -0.1578
    9MOL0     O 1086   6.531   8.713  10.211  0.2510 -0.1219 -0.1202
    9MOL0     C 1087   6.405   8.766  10.204  0.0999  0.2407  0.9533
    9MOL0     C 1088   6.306   8.695  10.131  0.4341 -0.1757  0.0788
    9MOL0     C 1089   6.176   8.751  10.129 -0.8453 -0.0995  0.1483
    9MOL0     C 1090   6.143   8.875  10.189  0.7515  0.5620  0.3138
    9MOL0     O 1091   6.010   8.920  10.176  0.3951 -0.3060  0.5683
    9MOL0     C 1092   5.962   9.006  10.273 -0.4547 -0.1150  0.3586
    9MOL0     C 1093   5.810   9.028  10.247  0.3143  0.4187 -0.0439
    9MOL0     C 1094   5.737   8.904  10.249  0.4908  0.4831  0.6459
    9MOL0     C 1095   5.581   8.928  10.253  1.0852 -0.8997  0.0246
    9MOL0     C 1096   5.503   8.799  10.234 -0.4549 -0.2683 -0.0934
    9MOL0     C 1097   5.351   8.821  10.243  0.2724 -0.9266 -0.1835
    9MOL0     C 1098   5.271   8.704  10.214 -0.3919  0.5365 -0.0207
    9MOL0     C 1099   5.298   8.625  10.088 -0.5083  0.5054  0.5216
    9MOL0    Cl 1100   5.300   8.749   9.962 -0.0519 -0.3114  0.5774
    9MOL0     C 1101   6.247   8.942  10.254  0.5541  0.6502 -0.1058
    9MOL0     C 1102   6.384   8.894  10.252  0.0813 -0.2988 -0.8101
    9MOL0     O 1103   6.576   8.677   9.984 -0.5575  0.1808 -0.2640
    9MOL0     C 1104   6.808   8.540  10.028  0.3189 -0.1461  0.1706
    9MOL0     C 1105   6.929   8.486  10.063  0.5708  0.2047  0.8028
    9MOL0     N 1106   7.707   8.323  10.115  0.8939  0.2845  0.0902
    9MOL0     N 1107   7.799   8.381  10.033  0.3802  0.8290  0.1877
    9MOL0     C 1108   8.787   8.443   9.600 -0.2252  0.4078 -0.3821
    9MOL0     C 1109   8.922   8.446   9.581 -0.1007 -0.8792 -0.4721
    9MOL0     C 1110   9.335   8.541   9.772  0.5512 -0.5618 -0.0403
    9MOL0     C 1111   9.402   8.492   9.884  0.0571  0.2111  0.3203
    9MOL0     C 1112   9.539   8.505   9.895 -0.5151 -0.5718 -0.2561
    9MOL0     C 1113   9.615   8.580   9.812  0.1822  0.2915 -0.0816
    9MOL0     O 1114   9.746   8.615   9.833 -0.6926  0.8603 -0.3313
    9MOL0     C 1115   9.803   8.574   9.958 -0.0856  0.2365 -1.0516
    9MOL0     C 1116   9.856   8.426   9.952  0.4351 -0.3242 -0.4478
    9MOL0     C 1117  10.000   8.419   9.895  0.8821  0.0750 -0.0746
    9MOL0     C 1118  10.118   8.406   9.997  0.8552  1.2009 -0.2844
    9MOL0     C 1119  10.239   8.363   9.922 -1.0464 -0.3896 -0.3873
    9MOL0     C 1120  10.350   8.337   9.866  0.6976  0.4220  0.0673
    9MOL0     C 1121   9.552   8.630   9.698 -0.0638  0.3628  0.3944
    9MOL0     C 1122   9.415   8.613   9.674 -0.0598 -0.4722 -0.3868
    9MOL0     H 1123   8.984   8.773   9.662 -0.0170  0.0999  1.7223
    9MOL0     H 1124   8.740   8.771   9.677 -0.9360 -0.5432 -0.0871
    9MOL0     H 1125   8.636   8.431   9.826 -0.3025 -0.3946 -1.3646
    9MOL0     H 1126   8.507   8.371   9.727  0.1906 -2.2805  3.5474
    9MOL0     H 1127   8.483   8.598   9.925  0.5257 -1.6259  1.2440
    9MOL0     H 1128   8.418   8.446   9.933  0.8026 -0.6745 -0.4026
    9MOL0     H 1129   8.345   8.609   9.700 -2.0033  2.5045  0.8696
    9MOL0     H 1130   8.261   8.626   9.859 -0.1181  1.4436 -1.5623
    9MOL0     H 1131   8.288   8.360   9.742 -0.0173 -1.0883  1.8007
    9MOL0     H 1132   8.186   8.422   9.871 -0.4334 -2.0977 -1.5318
    9MOL0     H 1133   8.056   8.370   9.660 -0.2454  0.1173 -2.6645
    9MOL0     H 1134   8.144   8.489   9.567  1.0755 -0.4747  0.3510
    9MOL0     H 1135   7.942   8.603   9.606  1.0634  3.2476 -0.0333
    9MOL0     H 1136   8.048   8.669   9.725 -1.2957  2.0483 -2.3590
    9MOL0     H 1137   7.968   8.519   9.907  1.3913 -3.1619 -1.1276
    9MOL0     H 1138   7.824   8.609   9.846  0.8433  1.8503 -2.0989
    9MOL0     H 1139   7.891   8.323   9.774 -1.0327 -2.0366  0.6093
    9MOL0     H 1140   7.753   8.424   9.710  1.5094 -0.1695 -0.3512
    9MOL0     H 1141   7.550   8.318   9.830  1.4978  2.7704 -1.5473
    9MOL0     H 1142   7.479   8.220  10.185  0.5709  1.1830  1.3444
    9MOL0     H 1143   7.429   8.147  10.036  1.4990  0.2362  0.2412
    9MOL0     H 1144   7.248   8.280  10.057  1.2497 -1.9137  3.3032
    9MOL0     H 1145   7.349   8.396   9.959  3.5475 -2.6409 -1.9575
    9MOL0     H 1146   7.336   8.365  10.261 -0.6189 -0.5696  0.2720
    9MOL0     H 1147   7.419   8.496  10.163  0.9698 -0.4798  0.2673
    9MOL0     H 1148   7.198   8.538  10.073  1.8638  0.4811  0.4753
    9MOL0     H 1149   7.231   8.599  10.242 -0.8394 -0.9021  3.6394
    9MOL0     H 1150   6.961   8.601  10.382  2.3903 -1.7118 -0.9050
    9MOL0     H 1151   6.762   8.701  10.326 -2.0218 -2.4883  1.5771
    9MOL0     H 1152   6.328   8.598  10.087  1.2666 -0.5126  1.1929
    9MOL0     H 1153   6.100   8.691  10.080 -1.5227  0.4218  0.5428
    9MOL0     H 1154   6.010   9.104  10.271 -2.3569  0.8849  0.5789
    9MOL0     H 1155   5.979   8.967  10.374  0.5658  1.9032  1.0200
    9MOL0     H 1156   5.804   9.085  10.154 -2.8283  2.0390  0.9962
    9MOL0     H 1157   5.773   9.098  10.323  0.7284  0.6065 -0.0131
    9MOL0     H 1158   5.764   8.856  10.343  2.3234 -0.3468 -0.2498
    9MOL0     H 1159   5.770   8.846  10.163 -2.6552  0.7274 -0.8933
    9MOL0     H 1160   5.541   8.969  10.346  0.6614 -3.2493  0.9492
    9MOL0     H 1161   5.561   8.986  10.163  2.1199 -2.2314 -1.1001
    9MOL0     H 1162   5.537   8.732  10.314  0.4018 -0.5194 -0.6422
    9MOL0     H 1163   5.530   8.750  10.139 -1.1447  0.9631 -0.9414
    9MOL0     H 1164   5.332   8.901  10.170 -1.0094 -0.7217  0.3433
    9MOL0     H 1165   5.321   8.856  10.342 -0.0857  0.8327 -0.8746
    9MOL0     H 1166   5.270   8.636  10.299  1.9975  0.4202 -0.0240
    9MOL0     H 1167   5.169   8.743  10.200  0.7069  3.2100 -1.3633
    9MOL0     H 1168   5.215   8.559  10.062  1.4917 -1.1005 -2.3524
    9MOL0     H 1169   5.388   8.563  10.094 -1.4518 -0.9426  0.2638
    9MOL0     H 1170   6.227   9.034  10.307 -1.1062 -1.2654  2.8471
    9MOL0     H 1171   6.463   8.958  10.288 -1.4541  1.1716  0.0854
    9MOL0     H 1172   6.750   8.517   9.939 -0.6896  3.2512 -0.1958
    9MOL0     H 1173   6.987   8.435   9.987 -0.0121  1.7350 -0.7464
    9MOL0     H 1174   8.729   8.352   9.583 -1.0693  1.2557 -2.3226
    9MOL0     H 1175   8.972   8.352   9.558  0.0102 -1.1809  0.8886
    9MOL0     H 1176   9.350   8.430   9.956 -0.6654 -0.9293 -1.1082
    9MOL0     H 1177   9.578   8.466   9.988  1.9188  4.5529  1.2663
    9MOL0     H 1178   9.744   8.594  10.047 -0.9902  2.6031 -2.0955
    9MOL0     H 1179   9.892   8.634   9.980 -0.4529  0.5864 -0.5213
    9MOL0     H 1180   9.868   8.397  10.056  0.6176  2.1270  0.2695
    9MOL0     H 1181   9.789   8.354   9.904 -0.6682  0.2288  0.2148
    9MOL0     H 1182  10.024   8.509   9.838  1.4091 -0.3275 -0.5036
    9MOL0     H 1183  10.005   8.337   9.822  4.5794 -1.5064  1.6965
    9MOL0     H 1184  10.132   8.508  10.033  1.1438  0.1900  2.7098
    9MOL0     H 1185  10.098   8.345  10.085  1.0595  1.4133 -0.0907
    9MOL0     H 1186  10.444   8.313   9.820  0.7582 -0.6786  0.7285
    9MOL0     H 1187   9.619   8.681   9.629 -1.0979  2.4318  0.8285
    9MOL0     H 1188   9.364   8.655   9.588  2.0785  0.2536 -1.3754
   10MOL0     O 1189   0.870   1.106   7.201 -0.3979  0.4296  0.3274
   10MOL0     C 1190   0.808   1.173   7.282  0.2416 -0.1031  0.1948
   10MOL0     O 1191   0.693   1.136   7.343 -0.6813 -0.0231 -0.4316
   10MOL0     C 1192   0.648   1.008   7.327  0.0781 -0.1686  0.6522
   10MOL0     C 1193   0.516   0.993   7.299  0.7092 -0.0540  0.0023
   10MOL0     C 1194   0.455   0.871   7.268 -1.1593  0.3412  1.2510
   10MOL0     C 1195   0.534   0.756   7.279  0.3381  0.0870  1.5344
   10MOL0     O 1196   0.481   0.624   7.259 -0.1395  0.0125  0.1072
   10MOL0     C 1197   0.572   0.534   7.189  0.0476 -0.3591 -0.2435
   10MOL0     C 1198   0.510   0.396   7.177 -0.4881 -0.2776  0.9231
   10MOL0     C 1199   0.355   0.402   7.157 -0.5322  0.0195  1.0831
   10MOL0     C 1200   0.314   0.488   7.036  0.2183 -0.3070 -0.4315
   10MOL0     C 1201   0.168   0.472   7.014 -0.0910  1.1488 -0.7426
   10MOL0     C 1202   0.084   0.553   7.114 -0.0903  0.7259 -0.0166
   10MOL0     C 1203  -0.057   0.553   7.062  0.8630  0.1222 -0.6408
   10MOL0     C 1204  -0.146   0.644   7.140 -0.1643 -0.4818  0.9039
   10MOL0     N 1205  -0.280   0.629   7.084  0.3388 -0.0865  0.2548
   10MOL0     C 1206  -0.369   0.529   7.112  0.6200 -1.1346  0.3280
   10MOL0     C 1207  -0.482   0.557   7.028 -0.1406 -0.1423 -0.6207
   10MOL0     C 1208  -0.604   0.481   7.034 -0.0198  0.5694 -0.0929
   10MOL0     C 1209  -0.709   0.544   7.123  1.2658 -0.0626  0.1589
   10MOL0     C 1210  -0.768   0.676   7.049 -0.2230 -0.3351 -1.5444
   10MOL0     C 1211  -0.926   0.675   7.069  0.0860  0.6617  0.1212
   10MOL0     O 1212  -0.991   0.795   7.032  0.5192  0.8462 -1.1098
   10MOL0     C 1213  -1.126   0.809   7.047  0.4298  0.0860 -0.0792
   10MOL0     C 1214  -1.163   0.937   7.097 -0.0100 -0.2388  0.2983
   10MOL0     C 1215  -1.294   0.958   7.126  0.7122  0.4341  0.7966
   10MOL0     C 1216  -1.389   0.859   7.086 -0.5129  0.1325  0.0859
   10MOL0     C 1217  -1.532   0.893   7.076  0.1487  0.1758 -0.2027
   10MOL0     O 1218  -1.561   1.027   7.110  0.2021  0.1688 -0.2132
   10MOL0     C 1219  -1.685   1.073   7.110  0.4454  0.1115 -0.2680
   10MOL0     C 1220  -1.775   1.037   7.214 -0.1864 -1.1138 -0.3404
   10MOL0     C 1221  -1.908   1.072   7.220  0.3311  0.0723  0.3550
   10MOL0     C 1222  -1.959   1.163   7.120 -0.2284  1.0417 -0.1664
   10MOL0     O 1223  -2.089   1.196   7.123 -0.1186  0.0175 -0.0792
   10MOL0     C 1224  -2.169   1.195   7.000 -0.0079  0.3658 -0.3139
   10MOL0     C 1225  -2.310   1.249   7.036 -0.3426 -0.2549  0.3526
   10MOL0     C 1226  -2.385   1.161   7.125 -0.2394 -0.4622  0.3606
   10MOL0     C 1227  -2.524   1.203   7.146  0.6810  0.0056  0.1249
   10MOL0     C 1228  -2.635   1.215   7.037  0.5853 -0.3981 -0.4696
   10MOL0     C 1229  -2.632   1.095   6.951  0.2450  0.5077 -1.3376
   10MOL0     C 1230  -2.738   1.108   6.846 -0.6853  0.0076 -0.5339
   10MOL0     C 1231  -2.742   0.998   6.735 -0.6100 -0.3669 -0.6040
   10MOL0    Cl 1232  -2.753   0.844   6.820  0.1048  0.0639 -0.3291
   10MOL0     C 1233  -1.874   1.203   7.009 -0.1523 -0.6899 -0.0106
   10MOL0     C 1234  -1.745   1.145   7.004  0.3154  0.1355  0.0079
   10MOL0     O 1235  -1.613   0.804   7.056 -0.3497  1.2059 -0.2770
   10MOL0     C 1236  -1.345   0.733   7.044  0.3696 -0.4969  0.2877
   10MOL0     C 1237  -1.218   0.710   7.024  0.1230  0.6198 -0.0271
   10MOL0     N 1238  -0.446   0.672   6.951  1.0288  0.4108 -0.3033
   10MOL0     N 1239  -0.325   0.710   6.981 -0.3204 -0.0582 -1.1323
   10MOL0     C 1240   0.671   0.771   7.302  0.6172  0.4936 -0.2673
   10MOL0     C 1241   0.730   0.891   7.328 -0.8383 -0.3641  0.9139
   10MOL0     C 1242   0.862   1.301   7.331 -0.9908  0.4720 -0.8170
   10MOL0     C 1243   0.992   1.351   7.291  0.3960  0.2751  0.1819
   10MOL0     C 1244   1.052   1.466   7.350  0.5555  1.0911  0.0472
   10MOL0     C 1245   0.983   1.528   7.456  0.4001  0.2786  0.6320
   10MOL0     O 1246   1.040   1.624   7.535  0.0225  0.0347  0.2504
   10MOL0     C 1247   1.178   1.666   7.542  0.2487  0.1905 -0.0189
   10MOL0     C 1248   1.271   1.551   7.596  0.4765 -0.8197 -0.0030
   10MOL0     C 1249   1.200   1.477   7.716 -0.3102  0.2639 -0.0256
   10MOL0     C 1250   1.165   1.565   7.838 -0.6726 -0.0918 -0.0281
   10MOL0     C 1251   1.296   1.616   7.888  0.1054 -0.2050 -1.4897
   10MOL0     C 1252   1.384   1.658   7.955  0.6824  0.5879  0.0460
   10MOL0     C 1253   0.860   1.488   7.492  0.8725 -0.5180 -0.8391
   10MOL0     C 1254   0.801   1.377   7.431  0.4852  0.0799  0.3683
   10MOL0     H 1255   0.439   1.069   7.305  0.4080 -0.4578  1.6303
   10MOL0     H 1256   0.350   0.865   7.242 -0.9423 -1.2478  0.6576
   10MOL0     H 1257   0.672   0.532   7.233  1.2280 -1.4077 -2.7877
   10MOL0     H 1258   0.582   0.574   7.088  2.2185 -2.8907 -1.1516
   10MOL0     H 1259   0.531   0.334   7.265  0.5100 -0.7684  0.3532
   10MOL0     H 1260   0.564   0.355   7.091  1.3876  1.7573  1.0734
   10MOL0     H 1261   0.324   0.427   7.259  2.3903  1.5357  1.7180
   10MOL0     H 1262   0.325   0.301   7.129  0.9052 -0.2030  0.2248
   10MOL0     H 1263   0.354   0.589   7.048  1.7637 -0.9894  0.4901
   10MOL0     H 1264   0.373   0.450   6.952  1.4746  2.0675 -0.6902
   10MOL0     H 1265   0.132   0.369   7.026  0.2322  1.3458  2.9785
   10MOL0     H 1266   0.148   0.505   6.912  0.4727  3.1017 -0.2494
   10MOL0     H 1267   0.112   0.658   7.124 -1.7592  1.0558  1.6552
   10MOL0     H 1268   0.080   0.505   7.212  2.0012 -1.0687 -0.7301
   10MOL0     H 1269  -0.054   0.592   6.960  2.1370  1.4758 -0.1305
   10MOL0     H 1270  -0.091   0.449   7.063 -1.3881  0.7915 -1.5408
   10MOL0     H 1271  -0.116   0.746   7.118 -0.8854 -0.1972  1.2188
   10MOL0     H 1272  -0.133   0.643   7.249  0.3044 -0.5833  0.8498
   10MOL0     H 1273  -0.346   0.463   7.195  2.3705  0.1787  0.9599
   10MOL0     H 1274  -0.577   0.380   7.067 -1.7317  0.5444  1.4506
   10MOL0     H 1275  -0.643   0.474   6.932  1.0524 -2.8483 -0.3999
   10MOL0     H 1276  -0.661   0.570   7.218 -3.2889 -0.2930  2.7832
   10MOL0     H 1277  -0.794   0.477   7.136  0.1680  0.9057 -1.7028
   10MOL0     H 1278  -0.712   0.758   7.094 -0.5953 -1.2112  0.6115
   10MOL0     H 1279  -0.757   0.666   6.940 -2.0472  0.7261 -1.8620
   10MOL0     H 1280  -0.944   0.652   7.175  0.8694 -0.9333 -0.0731
   10MOL0     H 1281  -0.965   0.587   7.017  0.4427 -1.3339  2.9700
   10MOL0     H 1282  -1.078   0.999   7.122  1.0853 -1.4988 -0.1367
   10MOL0     H 1283  -1.329   1.059   7.146 -0.1814  0.0841  1.0772
   10MOL0     H 1284  -1.744   0.988   7.306 -0.4239  2.5790  1.8752
   10MOL0     H 1285  -1.973   1.036   7.299  2.8330 -0.4794  2.2674
   10MOL0     H 1286  -2.187   1.095   6.960 -0.6322  1.1186 -2.0348
   10MOL0     H 1287  -2.116   1.262   6.932  2.9626  0.0581  1.5423
   10MOL0     H 1288  -2.361   1.266   6.941  1.1711 -0.2697 -0.4911
   10MOL0     H 1289  -2.294   1.343   7.091  0.3813 -0.0966 -0.1099
   10MOL0     H 1290  -2.351   1.167   7.228  0.7036  2.5985 -0.0372
   10MOL0     H 1291  -2.371   1.061   7.082  4.0502  0.9150 -2.0375
   10MOL0     H 1292  -2.569   1.149   7.230  0.9381  2.0214  1.6334
   10MOL0     H 1293  -2.529   1.305   7.186 -1.4427  1.2262 -2.9335
   10MOL0     H 1294  -2.619   1.301   6.971  0.6278 -2.2923 -3.1296
   10MOL0     H 1295  -2.737   1.221   7.078  0.3717 -0.9848 -0.8932
   10MOL0     H 1296  -2.653   1.009   7.014  0.0604  2.0285  0.7562
   10MOL0     H 1297  -2.531   1.087   6.910  1.4577  0.6970  1.4044
   10MOL0     H 1298  -2.839   1.108   6.888 -0.0455  3.5702  1.4060
   10MOL0     H 1299  -2.725   1.207   6.800 -1.0216  1.6718  2.6516
   10MOL0     H 1300  -2.654   1.005   6.670  0.5122 -1.7736  0.6978
   10MOL0     H 1301  -2.830   1.012   6.671 -1.3173  1.1821  0.6383
   10MOL0     H 1302  -1.907   1.277   6.937 -0.6851  0.1164  1.0317
   10MOL0     H 1303  -1.683   1.175   6.920 -0.8994  2.7425 -0.0869
   10MOL0     H 1304  -1.412   0.652   7.015  1.0253 -0.8041 -0.4031
   10MOL0     H 1305  -1.181   0.614   6.990  2.3719  0.0891  3.4667
   10MOL0     H 1306   0.748   0.696   7.321 -0.1540  0.1703  1.8817
   10MOL0     H 1307   0.833   0.896   7.362 -0.6129 -1.1886  0.3809
   10MOL0     H 1308   1.046   1.306   7.208  1.4399  1.8898 -0.0644
   10MOL0     H 1309   1.140   1.516   7.312 -0.2836  2.2639 -0.4190
   10MOL0     H 1310   1.188   1.752   7.609  1.0917  0.6238 -0.6799
   10MOL0     H 1311   1.206   1.705   7.444  2.3718  0.0041  0.4707
   10MOL0     H 1312   1.295   1.471   7.526  3.2505 -0.2552  0.1916
   10MOL0     H 1313   1.365   1.602   7.619 -0.2199  1.1632 -1.2611
   10MOL0     H 1314   1.285   1.415   7.744  0.9074  2.7119  2.1741
   10MOL0     H 1315   1.115   1.418   7.681  1.0228 -0.7278 -1.7394
   10MOL0     H 1316   1.102   1.649   7.811 -0.4833 -1.0162 -3.8856
   10MOL0     H 1317   1.106   1.515   7.915  0.1128 -1.1254 -0.0724
   10MOL0     H 1318   1.459   1.691   8.025  0.3268  0.0656  0.6918
   10MOL0     H 1319   0.818   1.533   7.582 -1.8958  2.3942 -3.3013
   10MOL0     H 1320   0.705   1.346   7.472  0.1256 -0.3859 -0.7863
   11MOL0     O 1321   0.662  11.151   2.742  0.1004  1.0376 -0.2533
   11MOL0     C 1322   0.723  11.099   2.651 -0.3051  0.3738 -0.2845
   11MOL0     O 1323   0.676  11.090   2.520 -0.2864  0.0489 -0.2038
   11MOL0     C 1324   0.544  11.135   2.506  0.1394 -0.2534  0.2292
   11MOL0     C 1325   0.436  11.052   2.536  0.1287 -0.0263 -0.1924
   11MOL0     C 1326   0.299  11.097   2.521  0.6667 -0.5546  0.6504
   11MOL0     C 1327   0.269  11.216   2.450 -0.3083 -0.3180 -0.3727
   11MOL0     O 1328   0.149  11.270   2.429 -0.3773 -0.4741  0.0471
   11MOL0     C 1329   0.040  11.181   2.435 -0.2313 -0.6834 -0.5846
   11MOL0     C 1330  -0.078  11.269   2.401 -0.1390  0.2396 -0.3518
   11MOL0     C 1331  -0.210  11.191   2.400 -0.4371  0.0265  0.8853
   11MOL0     C 1332  -0.328  11.271   2.341 -0.2614  0.4385 -0.3978
   11MOL0     C 1333  -0.466  11.196   2.335 -0.4009 -0.1833 -0.1478
   11MOL0     C 1334  -0.572  11.296   2.376  0.2389 -0.1637  0.3017
   11MOL0     C 1335  -0.714  11.247   2.392  0.8012 -0.1093  0.3771
   11MOL0     C 1336  -0.796  11.227   2.257  0.6329 -0.9896  0.7607
   11MOL0     N 1337  -0.918  11.151   2.292 -0.4368  0.3239  0.3628
   11MOL0     C 1338  -1.021  11.190   2.373 -0.1360 -0.9104  0.0543
   11MOL0     C 1339  -1.091  11.088   2.391  1.0553 -0.6729 -0.1433
   11MOL0     C 1340  -1.218  11.085   2.469  0.1333 -0.2746 -0.2109
   11MOL0     C 1341  -1.341  11.068   2.378  0.7170  0.3468  0.0144
   11MOL0     C 1342  -1.338  10.944   2.295 -0.3574 -0.0740 -0.2467
   11MOL0     C 1343  -1.467  10.884   2.254  0.8522  0.0531 -0.3581
   11MOL0     O 1344  -1.546  10.979   2.179 -0.1902  0.4586 -0.3200
   11MOL0     C 1345  -1.662  10.941   2.139  0.4386 -0.3609 -0.8244
   11MOL0     C 1346  -1.750  11.053   2.113 -0.2314 -0.4117  1.0190
   11MOL0     C 1347  -1.883  11.027   2.055 -0.9508  0.0974  0.1940
   11MOL0     C 1348  -1.920  10.892   2.036  0.1617  0.1322  0.2944
   11MOL0     C 1349  -2.057  10.871   1.981  0.6262  0.3106 -0.1318
   11MOL0     O 1350  -2.149  10.964   2.009  0.4416  0.3021  1.3345
   11MOL0     C 1351  -2.273  10.939   1.946 -0.1369  0.8981  0.3885
   11MOL0     C 1352  -2.353  10.836   1.985  0.3939 -0.5347 -0.3751
   11MOL0     C 1353  -2.480  10.814   1.923 -0.3685  0.2208  0.1281
   11MOL0     C 1354  -2.537  10.917   1.841 -1.1461  0.0685  1.1808
   11MOL0     O 1355  -2.660  10.941   1.789  0.8466  0.3856  0.3094
   11MOL0     C 1356  -2.769  10.841   1.807 -0.2175  0.6284 -0.2131
   11MOL0     C 1357  -2.888  10.902   1.876  0.0561  1.2821  0.1755
   11MOL0     C 1358  -2.992  10.971   1.781  0.3043  0.2139  0.2256
   11MOL0     C 1359  -3.098  11.055   1.860 -0.3080 -0.3355 -0.5462
   11MOL0     C 1360  -3.210  11.108   1.768  0.0290 -0.7440  0.3893
   11MOL0     C 1361  -3.307  11.200   1.845 -0.3967 -0.0427 -0.4531
   11MOL0     C 1362  -3.247  11.339   1.881  0.2661  0.4558 -0.1892
   11MOL0     C 1363  -3.354  11.432   1.939 -0.1243 -0.3712 -0.0520
   11MOL0    Cl 1364  -3.281  11.589   1.967 -0.1460  0.0792 -0.0814
   11MOL0     C 1365  -2.452  11.022   1.818 -0.9043 -0.6335  0.7809
   11MOL0     C 1366  -2.323  11.029   1.870 -0.0641  0.0522  0.9036
   11MOL0     O 1367  -2.081  10.774   1.914 -0.6398 -0.0869 -0.1423
   11MOL0     C 1368  -1.838  10.785   2.067  0.0015  0.0669 -0.1168
   11MOL0     C 1369  -1.709  10.807   2.117  0.0029  0.0702 -0.0499
   11MOL0     N 1370  -1.039  10.981   2.315 -0.0506 -0.3862  0.3920
   11MOL0     N 1371  -0.925  11.016   2.258 -0.4851 -0.3949 -0.7300
   11MOL0     C 1372   0.381  11.297   2.410  0.5920 -0.3773  0.6259
   11MOL0     C 1373   0.516  11.255   2.450  0.3919  0.1000 -0.2797
   11MOL0     C 1374   0.854  11.040   2.693 -0.2791  0.0895  0.1508
   11MOL0     C 1375   0.911  11.052   2.824 -0.5518 -0.2959  0.7968
   11MOL0     C 1376   1.033  10.993   2.839  0.2595  0.1820 -0.8976
   11MOL0     C 1377   1.102  10.909   2.749 -0.8638 -0.5475  0.9817
   11MOL0     O 1378   1.228  10.866   2.781 -0.4871  0.3466 -0.4088
   11MOL0     C 1379   1.347  10.870   2.684  0.7944 -0.2593 -0.7278
   11MOL0     C 1380   1.358  11.014   2.629  0.0977 -0.3379  0.5831
   11MOL0     C 1381   1.488  11.028   2.553 -0.0413  0.0284 -0.0847
   11MOL0     C 1382   1.619  11.014   2.638  0.3347  0.4263 -0.2115
   11MOL0     C 1383   1.738  11.057   2.571 -1.0887 -0.9667  0.8641
   11MOL0     C 1384   1.841  11.098   2.521  0.0022 -0.2456  0.5336
   11MOL0     C 1385   1.043  10.900   2.623 -0.7576  0.4693 -0.6343
   11MOL0     C 1386   0.922  10.965   2.596 -0.2098  1.7188 -0.2874
   11MOL0     H 1387   0.464  10.958   2.581  0.5418  0.7553  1.2457
   11MOL0     H 1388   0.227  11.028   2.563  1.5883 -0.9568  1.6261
   11MOL0     H 1389   0.022  11.145   2.537  1.5799  3.1339  1.3108
   11MOL0     H 1390   0.050  11.096   2.367  0.6490 -2.5521  1.7076
   11MOL0     H 1391  -0.058  11.315   2.303  4.1430  0.0442  0.2592
   11MOL0     H 1392  -0.090  11.339   2.484 -1.5604 -3.5180  2.9290
   11MOL0     H 1393  -0.237  11.163   2.503 -1.2683 -2.0289  0.1601
   11MOL0     H 1394  -0.203  11.101   2.338  2.4667  2.1665 -2.2543
   11MOL0     H 1395  -0.329  11.352   2.413 -0.5637 -1.3860  1.7566
   11MOL0     H 1396  -0.306  11.318   2.245  0.1377  1.5788  0.2393
   11MOL0     H 1397  -0.465  11.115   2.408  3.3965  2.6050  3.3036
   11MOL0     H 1398  -0.483  11.169   2.230 -3.1475  0.6490  0.0026
   11MOL0     H 1399  -0.560  11.384   2.312  4.1778 -0.6594  0.1197
   11MOL0     H 1400  -0.548  11.334   2.476 -0.1843  1.8712 -0.3360
   11MOL0     H 1401  -0.698  11.150   2.440  0.3320  0.1918  1.1779
   11MOL0     H 1402  -0.774  11.315   2.453  0.3981  1.5804 -1.7894
   11MOL0     H 1403  -0.744  11.170   2.180 -3.5543 -1.2000 -2.2049
   11MOL0     H 1404  -0.823  11.329   2.229  0.4496 -0.6596  2.0399
   11MOL0     H 1405  -1.033  11.288   2.418 -1.4394 -0.6762 -0.7812
   11MOL0     H 1406  -1.241  11.178   2.522  0.3056  0.2261 -1.0021
   11MOL0     H 1407  -1.211  11.001   2.538 -0.2543 -0.5388 -0.4856
   11MOL0     H 1408  -1.352  11.158   2.317 -0.6466 -0.2461 -0.6599
   11MOL0     H 1409  -1.427  11.056   2.445  1.6245 -1.5692  0.9289
   11MOL0     H 1410  -1.273  10.958   2.208  1.2712 -1.2904  0.7057
   11MOL0     H 1411  -1.298  10.872   2.367 -3.1073 -1.5919 -0.1119
   11MOL0     H 1412  -1.521  10.881   2.349  0.7452 -0.0401 -0.4202
   11MOL0     H 1413  -1.446  10.785   2.214 -0.7891 -0.7988  0.7785
   11MOL0     H 1414  -1.705  11.152   2.115  1.1319 -0.9214 -0.9784
   11MOL0     H 1415  -1.955  11.108   2.045 -0.9645 -0.1668 -2.4293
   11MOL0     H 1416  -2.333  10.770   2.069  0.3086  1.5501  1.3800
   11MOL0     H 1417  -2.542  10.733   1.959  0.9343  0.2051  2.5296
   11MOL0     H 1418  -2.734  10.751   1.858 -1.6746  0.5129  0.6511
   11MOL0     H 1419  -2.783  10.804   1.706  1.6055  2.0824 -1.0557
   11MOL0     H 1420  -2.844  10.966   1.954 -0.4776  1.5606  0.2543
   11MOL0     H 1421  -2.953  10.828   1.924 -2.3816  2.7002 -0.7282
   11MOL0     H 1422  -3.046  10.892   1.727 -0.4939  1.2842 -0.5954
   11MOL0     H 1423  -2.958  11.034   1.699 -2.8493  1.2826 -0.4082
   11MOL0     H 1424  -3.139  11.006   1.949  0.1584 -1.9301 -1.1920
   11MOL0     H 1425  -3.045  11.144   1.897 -0.6225  1.7342 -4.5393
   11MOL0     H 1426  -3.262  11.023   1.725  0.3502 -1.9211  2.2124
   11MOL0     H 1427  -3.182  11.155   1.674 -2.1668 -0.3982 -0.1302
   11MOL0     H 1428  -3.344  11.151   1.935 -0.3765 -2.0228 -1.4817
   11MOL0     H 1429  -3.393  11.222   1.780  1.6576 -1.2144 -3.8225
   11MOL0     H 1430  -3.172  11.319   1.958 -0.5872  0.0405  0.5449
   11MOL0     H 1431  -3.195  11.386   1.797  2.8449 -1.9352 -0.0910
   11MOL0     H 1432  -3.397  11.394   2.032  1.0131  2.9392  2.0198
   11MOL0     H 1433  -3.440  11.441   1.872 -0.2727  0.9261  0.2833
   11MOL0     H 1434  -2.487  11.106   1.759  0.2205 -0.9346 -0.3631
   11MOL0     H 1435  -2.263  11.118   1.854 -0.4632 -0.0169 -1.2969
   11MOL0     H 1436  -1.872  10.682   2.068 -1.1941  0.3412  3.6022
   11MOL0     H 1437  -1.645  10.723   2.143  1.7524  0.6659 -2.0829
   11MOL0     H 1438   0.365  11.387   2.351 -0.8067 -2.7246 -2.9918
   11MOL0     H 1439   0.606  11.310   2.423  1.3376 -0.4168  1.6528
   11MOL0     H 1440   0.869  11.123   2.894 -0.9602  2.0103 -1.6363
   11MOL0     H 1441   1.084  11.024   2.930  2.3642 -1.6831 -1.3588
   11MOL0     H 1442   1.328  10.810   2.594 -1.9914 -1.3463  0.4602
   11MOL0     H 1443   1.444  10.854   2.731  0.8339  3.0862  0.5898
   11MOL0     H 1444   1.274  11.042   2.564 -1.4708 -0.2436  2.5651
   11MOL0     H 1445   1.337  11.082   2.712 -4.8045 -3.1177  1.9775
   11MOL0     H 1446   1.480  11.118   2.491  1.0830  0.4856  0.4112
   11MOL0     H 1447   1.478  10.944   2.484 -0.2170 -0.2639  0.2893
   11MOL0     H 1448   1.595  11.062   2.733  0.9213 -0.1747  0.2466
   11MOL0     H 1449   1.640  10.908   2.657  0.5741  0.4819 -0.1634
   11MOL0     H 1450   1.929  11.133   2.473 -0.3170  0.2781  0.3223
   11MOL0     H 1451   1.084  10.836   2.545 -1.8367 -1.3723  0.2523
   11MOL0     H 1452   0.889  10.943   2.496  1.3512 -0.1045 -0.4598
   12MOL0     O 1453   5.332   5.771   9.111  0.1312  0.0539  0.5427
   12MOL0     C 1454   5.238   5.728   9.175  0.3856 -0.1063 -0.4695
   12MOL0     O 1455   5.250   5.678   9.302  0.5283 -0.6040  0.3145
   12MOL0     C 1456   5.381   5.674   9.356 -0.2181 -0.1049 -0.2575
   12MOL0     C 1457   5.430   5.788   9.419 -0.0481  0.1369 -0.8841
   12MOL0     C 1458   5.556   5.794   9.472 -0.0214 -0.1906  0.1199
   12MOL0     C 1459   5.645   5.686   9.442  0.5239  0.2347 -0.2618
   12MOL0     O 1460   5.776   5.687   9.480  0.4168 -0.3645 -0.0723
   12MOL0     C 1461   5.859   5.791   9.421 -0.2062 -0.5466 -0.5415
   12MOL0     C 1462   6.006   5.759   9.457 -0.2358  0.3395 -0.3924
   12MOL0     C 1463   6.110   5.856   9.398  0.8505 -0.3109 -0.8812
   12MOL0     C 1464   6.078   5.887   9.251  0.3898  0.1651  0.5397
   12MOL0     C 1465   6.196   5.972   9.189 -0.1085 -0.4315  0.8285
   12MOL0     C 1466   6.151   6.021   9.056 -0.1849  0.3700  0.0930
   12MOL0     C 1467   6.262   6.095   8.975 -0.1358 -0.3696  1.1002
   12MOL0     C 1468   6.187   6.174   8.857 -0.4502  0.4794  0.0144
   12MOL0     N 1469   6.083   6.278   8.905  0.1157 -0.7449  0.3978
   12MOL0     C 1470   5.940   6.280   8.881  0.2107  0.3927  0.6276
   12MOL0     C 1471   5.886   6.372   8.963 -0.0779 -0.6296 -0.6617
   12MOL0     C 1472   5.744   6.413   8.963 -0.0480  0.7130 -0.4009
   12MOL0     C 1473   5.735   6.526   8.860 -0.0947 -0.3768 -0.3979
   12MOL0     C 1474   5.601   6.592   8.869  0.2176  0.9361 -0.4822
   12MOL0     C 1475   5.584   6.705   8.774  0.4323 -0.7059  0.4839
   12MOL0     O 1476   5.456   6.772   8.793  0.7238 -0.6472  0.3032
   12MOL0     C 1477   5.438   6.896   8.728  0.1029 -0.2727  0.3753
   12MOL0     C 1478   5.534   6.981   8.652  0.3064  0.0128 -0.0306
   12MOL0     C 1479   5.491   7.097   8.593  0.1650  0.5061  0.3659
   12MOL0     C 1480   5.356   7.134   8.602 -0.2748 -0.9251 -0.6642
   12MOL0     C 1481   5.303   7.249   8.511  0.0296 -0.1110  0.0549
   12MOL0     O 1482   5.165   7.266   8.516  0.2631 -0.4023  0.2180
   12MOL0     C 1483   5.109   7.345   8.410  1.2686  0.4480 -0.3433
   12MOL0     C 1484   4.985   7.303   8.370 -0.0072  0.4926 -0.1030
   12MOL0     C 1485   4.912   7.375   8.283  0.7659 -1.5769 -0.9046
   12MOL0     C 1486   4.948   7.507   8.234 -1.3919  1.4703 -0.0373
   12MOL0     O 1487   4.876   7.589   8.156 -0.0047 -0.2129  0.2460
   12MOL0     C 1488   4.737   7.546   8.135  0.5639  1.0250  0.5550
   12MOL0     C 1489   4.668   7.646   8.049  0.4988 -0.6362  0.8777
   12MOL0     C 1490   4.523   7.604   8.002 -0.7655 -0.8180  0.1497
   12MOL0     C 1491   4.435   7.718   7.961 -0.6433  0.3033 -0.0928
   12MOL0     C 1492   4.293   7.676   7.919 -0.0288 -0.1419 -0.5001
   12MOL0     C 1493   4.195   7.793   7.945  0.8752 -0.3408  0.8817
   12MOL0     C 1494   4.146   7.793   8.093  0.3495 -0.2998 -0.9642
   12MOL0     C 1495   4.019   7.887   8.101  0.2514 -0.3911 -0.0139
   12MOL0    Cl 1496   3.947   7.888   8.265  0.0782  0.0186 -0.3694
   12MOL0     C 1497   5.076   7.540   8.276  0.0581  0.3436 -0.1805
   12MOL0     C 1498   5.158   7.454   8.353 -0.4384 -0.9013 -0.0301
   12MOL0     O 1499   5.385   7.322   8.449 -0.1282  0.1986 -0.8924
   12MOL0     C 1500   5.269   7.060   8.685 -0.3755 -0.0849 -0.8262
   12MOL0     C 1501   5.311   6.947   8.749  0.1607  0.0294  0.0438
   12MOL0     N 1502   5.998   6.422   9.039 -0.2314  0.2182  0.1753
   12MOL0     N 1503   6.109   6.360   9.010 -0.4738  0.3711  0.5309
   12MOL0     C 1504   5.599   5.559   9.399  0.2936  0.1073 -0.4452
   12MOL0     C 1505   5.463   5.560   9.362  0.6250  0.2491  0.2987
   12MOL0     C 1506   5.105   5.731   9.107  0.4290 -0.0262 -0.3817
   12MOL0     C 1507   4.986   5.675   9.172  0.6331 -0.5481  0.3124
   12MOL0     C 1508   4.862   5.688   9.105 -0.3839  0.2095  0.6966
   12MOL0     C 1509   4.850   5.746   8.977 -0.2511  0.0882 -0.0682
   12MOL0     O 1510   4.728   5.742   8.917  0.4406  0.7415 -0.1044
   12MOL0     C 1511   4.711   5.813   8.794 -0.5739  0.2896  0.3606
   12MOL0     C 1512   4.565   5.826   8.777  0.1185  0.3388 -0.5424
   12MOL0     C 1513   4.494   5.689   8.763  0.1387  0.3781 -0.1152
   12MOL0     C 1514   4.494   5.602   8.636 -1.0609 -0.5999  0.1419
   12MOL0     C 1515   4.438   5.686   8.522 -0.2826  0.1365  0.3268
   12MOL0     C 1516   4.407   5.762   8.438 -0.2745  0.0033  0.2710
   12MOL0     C 1517   4.963   5.812   8.925  0.9945 -0.6445  0.6303
   12MOL0     C 1518   5.087   5.800   8.985  0.1914  0.3148  0.4328
   12MOL0     H 1519   5.369   5.877   9.428  1.6718  1.1504  4.7456
   12MOL0     H 1520   5.582   5.882   9.529 -0.0809 -0.7038  0.9497
   12MOL0     H 1521   5.835   5.893   9.451 -1.0599 -0.5630 -1.1019
   12MOL0     H 1522   5.849   5.785   9.312 -0.3448 -2.1390 -0.4683
   12MOL0     H 1523   6.029   5.662   9.414 -0.0763  0.4990 -0.6648
   12MOL0     H 1524   6.029   5.751   9.564  1.1782  2.5983 -0.4664
   12MOL0     H 1525   6.203   5.801   9.416  0.8253 -0.3069 -0.7390
   12MOL0     H 1526   6.108   5.955   9.446  3.0961  1.6315 -4.3605
   12MOL0     H 1527   6.063   5.790   9.203 -0.4905  0.6986 -0.2907
   12MOL0     H 1528   5.983   5.941   9.245 -0.4909 -1.3369  0.2817
   12MOL0     H 1529   6.291   5.918   9.190  0.2492  0.1814  0.4090
   12MOL0     H 1530   6.205   6.066   9.246 -3.4218  1.0072 -0.7122
   12MOL0     H 1531   6.065   6.085   9.077  0.5214  1.0021  1.2241
   12MOL0     H 1532   6.118   5.934   8.998 -1.7510  1.3998 -0.5989
   12MOL0     H 1533   6.323   6.156   9.041 -1.8007 -0.8451  3.1825
   12MOL0     H 1534   6.326   6.022   8.925 -0.0939  1.3495 -1.5710
   12MOL0     H 1535   6.132   6.102   8.795 -2.2153  1.5588  0.2663
   12MOL0     H 1536   6.263   6.217   8.791 -0.5616 -1.6320 -1.6121
   12MOL0     H 1537   5.895   6.228   8.797 -0.1653  0.8985  0.5066
   12MOL0     H 1538   5.716   6.444   9.065 -2.9676  2.9546 -1.7357
   12MOL0     H 1539   5.686   6.330   8.922  0.1049  0.1397  0.5120
   12MOL0     H 1540   5.727   6.487   8.758 -2.4525 -2.5632  0.5162
   12MOL0     H 1541   5.812   6.603   8.873 -0.9510  0.5981 -0.9546
   12MOL0     H 1542   5.524   6.515   8.857  2.7511 -1.6389 -1.1991
   12MOL0     H 1543   5.578   6.623   8.971 -2.8859  2.2827 -1.4632
   12MOL0     H 1544   5.592   6.651   8.680 -3.6990  1.9335 -1.6587
   12MOL0     H 1545   5.669   6.773   8.789 -0.0363  0.3084 -1.1622
   12MOL0     H 1546   5.640   6.963   8.671  0.5399  1.4283  0.1156
   12MOL0     H 1547   5.565   7.152   8.536 -0.8276  2.2416  0.6842
   12MOL0     H 1548   4.953   7.208   8.410  0.8689  0.7018  1.1406
   12MOL0     H 1549   4.813   7.338   8.255 -1.0165  0.0232  2.5900
   12MOL0     H 1550   4.680   7.520   8.225 -2.5952 -3.6462 -2.3181
   12MOL0     H 1551   4.745   7.459   8.068 -1.4450  2.9905 -2.4949
   12MOL0     H 1552   4.729   7.677   7.964  1.3406  1.3612  2.1519
   12MOL0     H 1553   4.659   7.737   8.109  2.0161  1.2233 -1.5770
   12MOL0     H 1554   4.484   7.547   8.087  1.4828 -1.9826  0.4712
   12MOL0     H 1555   4.528   7.534   7.918  0.2812  1.1973 -1.5786
   12MOL0     H 1556   4.426   7.779   8.051  3.5099  0.8244  0.1798
   12MOL0     H 1557   4.469   7.787   7.882 -0.0411  0.1903  0.0619
   12MOL0     H 1558   4.261   7.585   7.971 -1.9832  0.9889  0.3875
   12MOL0     H 1559   4.295   7.659   7.811 -0.7005  2.2339 -0.9543
   12MOL0     H 1560   4.115   7.767   7.875  0.4638 -0.6767  1.4695
   12MOL0     H 1561   4.247   7.886   7.919 -0.8079  0.8626  1.6699
   12MOL0     H 1562   4.100   7.695   8.112 -2.8298  1.1690 -0.3393
   12MOL0     H 1563   4.225   7.821   8.163 -0.1179 -0.1172 -0.4953
   12MOL0     H 1564   3.937   7.856   8.036 -0.4482 -1.2350  1.2187
   12MOL0     H 1565   4.050   7.987   8.072 -4.2849  1.9360  2.0854
   12MOL0     H 1566   5.099   7.634   8.227 -0.4546  1.2262  1.2126
   12MOL0     H 1567   5.259   7.490   8.369 -0.9490  0.3028  0.6199
   12MOL0     H 1568   5.163   7.081   8.697 -0.0117  0.2930  2.9436
   12MOL0     H 1569   5.238   6.888   8.803  1.6583 -0.2190  1.8717
   12MOL0     H 1570   5.669   5.477   9.380 -0.4565 -0.5320 -0.5037
   12MOL0     H 1571   5.411   5.477   9.315 -1.2127  1.0384  0.8418
   12MOL0     H 1572   5.001   5.628   9.269  2.2183  4.3528  2.7682
   12MOL0     H 1573   4.773   5.640   9.143 -1.2169 -0.1168 -1.5024
   12MOL0     H 1574   4.763   5.757   8.716  3.9763  1.3854  2.2913
   12MOL0     H 1575   4.755   5.913   8.802 -0.8685  0.8290 -3.1449
   12MOL0     H 1576   4.520   5.879   8.862  0.0317  2.6933 -1.9741
   12MOL0     H 1577   4.544   5.892   8.693 -0.9483 -0.4238 -0.8899
   12MOL0     H 1578   4.385   5.701   8.771 -0.0695 -1.7015  1.0496
   12MOL0     H 1579   4.515   5.613   8.839 -3.7290 -1.5399 -0.7033
   12MOL0     H 1580   4.598   5.571   8.618  0.3125  2.5145  1.8757
   12MOL0     H 1581   4.428   5.517   8.655 -0.2616 -1.5339 -1.1474
   12MOL0     H 1582   4.396   5.830   8.355  2.1394 -0.2343 -0.2953
   12MOL0     H 1583   4.938   5.877   8.841 -0.8437 -1.3218  0.6167
   12MOL0     H 1584   5.178   5.849   8.952  1.4523 -0.9408  1.8901
   13MOL0     O 1585   1.618   0.947   4.085 -0.6443 -0.3000  0.2657
   13MOL0     C 1586   1.537   0.910   4.000  0.0746 -0.1011  0.1976
   13MOL0     O 1587   1.406   0.889   4.014 -0.1786 -0.3239 -0.7400
   13MOL0     C 1588   1.347   0.915   4.135  0.5307 -0.4261  0.1502
   13MOL0     C 1589   1.372   1.026   4.210  0.1677  0.9125  0.1428
   13MOL0     C 1590   1.312   1.032   4.340 -0.0282  0.1719  0.1507
   13MOL0     C 1591   1.204   0.944   4.376 -0.2373 -0.7254 -0.7874
   13MOL0     O 1592   1.124   0.967   4.484 -0.6748  0.2596 -0.2051
   13MOL0     C 1593   1.068   1.101   4.486 -0.1719  0.5197 -0.1994
   13MOL0     C 1594   0.951   1.106   4.589 -0.4220 -0.3279 -0.7566
   13MOL0     C 1595   0.890   1.234   4.597 -0.2211 -0.7630  0.4898
   13MOL0     C 1596   0.798   1.244   4.727 -0.2932 -0.4726  0.9601
   13MOL0     C 1597   0.712   1.369   4.724  0.7742  0.2270  0.1307
   13MOL0     C 1598   0.628   1.390   4.849  0.1262 -0.2631 -0.4583
   13MOL0     C 1599   0.515   1.288   4.851  1.2087 -0.3768  0.1267
   13MOL0     C 1600   0.466   1.268   5.008  0.1127  0.7998  1.1386
   13MOL0     N 1601   0.349   1.358   5.025 -0.4568 -0.7834  0.1477
   13MOL0     C 1602   0.213   1.310   5.039 -0.7035 -0.5930 -0.9364
   13MOL0     C 1603   0.143   1.427   5.043 -0.4388 -0.2027  0.6839
   13MOL0     C 1604  -0.001   1.432   5.080  0.1747  0.2436 -1.0644
   13MOL0     C 1605  -0.015   1.501   5.214  0.0693  0.7241  0.5874
   13MOL0     C 1606  -0.046   1.659   5.209 -0.8685  0.2125  0.7007
   13MOL0     C 1607  -0.003   1.733   5.338 -0.7361 -0.9242  0.2097
   13MOL0     O 1608  -0.080   1.678   5.445  0.2270 -1.5183 -0.5613
   13MOL0     C 1609  -0.213   1.716   5.461  0.6879  1.3713 -0.2612
   13MOL0     C 1610  -0.267   1.840   5.421 -0.2257  0.5798  0.7872
   13MOL0     C 1611  -0.406   1.865   5.421  0.4174  0.5338 -0.1337
   13MOL0     C 1612  -0.492   1.764   5.468 -0.3392  0.0644 -0.4058
   13MOL0     C 1613  -0.632   1.803   5.496  0.0081  0.8355  0.0200
   13MOL0     O 1614  -0.671   1.931   5.477 -0.1921  0.0805  0.2614
   13MOL0     C 1615  -0.807   1.946   5.471 -0.7017  0.1456  0.4914
   13MOL0     C 1616  -0.891   1.914   5.575  0.5724  0.7751  0.0528
   13MOL0     C 1617  -1.032   1.930   5.555  0.1648 -0.4429 -0.3448
   13MOL0     C 1618  -1.093   1.983   5.447 -0.9217 -0.4725 -0.1624
   13MOL0     O 1619  -1.225   2.002   5.422  1.0791  0.1136 -0.1863
   13MOL0     C 1620  -1.324   1.953   5.513 -0.0321  0.9117 -0.2438
   13MOL0     C 1621  -1.366   1.799   5.507 -0.2101 -0.2691  0.2456
   13MOL0     C 1622  -1.341   1.724   5.643  0.7450 -0.3282  0.5138
   13MOL0     C 1623  -1.343   1.576   5.606  1.2934 -0.1728 -0.5151
   13MOL0     C 1624  -1.322   1.486   5.728 -1.0922  0.7406 -0.4116
   13MOL0     C 1625  -1.195   1.528   5.813 -0.1335 -0.3547 -0.1216
   13MOL0     C 1626  -1.184   1.439   5.933 -0.4804 -0.2696 -0.0668
   13MOL0     C 1627  -1.052   1.461   5.999  0.0929  0.4795 -0.8016
   13MOL0    Cl 1628  -0.922   1.398   5.889  0.6356 -0.1455 -0.1143
   13MOL0     C 1629  -1.009   2.027   5.346 -0.8800  0.7794  0.0595
   13MOL0     C 1630  -0.866   2.004   5.366  0.4683 -0.3862  0.4463
   13MOL0     O 1631  -0.700   1.718   5.553  0.4415  0.1653  0.4600
   13MOL0     C 1632  -0.438   1.645   5.513 -0.4283  0.2391 -0.0415
   13MOL0     C 1633  -0.303   1.620   5.504  0.0348 -0.0082 -0.1653
   13MOL0     N 1634   0.224   1.536   5.008 -0.9749  0.4574 -0.6227
   13MOL0     N 1635   0.350   1.490   4.991  0.2773 -0.7384  0.1477
   13MOL0     C 1636   1.180   0.830   4.295 -0.3981  0.7210 -0.5022
   13MOL0     C 1637   1.258   0.818   4.180 -1.2853 -1.0286  0.0635
   13MOL0     C 1638   1.602   0.875   3.870 -0.2591  0.9538  0.7113
   13MOL0     C 1639   1.524   0.878   3.747  0.2206  0.0341  0.5365
   13MOL0     C 1640   1.575   0.850   3.623 -0.5112 -1.3478  0.4724
   13MOL0     C 1641   1.717   0.820   3.608  0.2421 -0.4406 -0.8382
   13MOL0     O 1642   1.757   0.789   3.487 -0.7806  0.6292 -0.0210
   13MOL0     C 1643   1.898   0.783   3.478  0.3409  0.7474 -0.4737
   13MOL0     C 1644   1.953   0.779   3.330 -0.8797  0.4069 -1.0882
   13MOL0     C 1645   2.096   0.728   3.325 -0.8445 -0.2812  0.9370
   13MOL0     C 1646   2.191   0.817   3.410 -0.0577  0.0539  0.2703
   13MOL0     C 1647   2.330   0.778   3.394 -0.1021  0.0984 -0.1503
   13MOL0     C 1648   2.436   0.734   3.370 -0.2249  0.1728  0.8820
   13MOL0     C 1649   1.792   0.812   3.730  0.2385  0.7720  0.5734
   13MOL0     C 1650   1.730   0.834   3.854 -0.3670 -0.0838 -0.5734
   13MOL0     H 1651   1.435   1.104   4.171 -0.1017 -0.3559 -3.1014
   13MOL0     H 1652   1.336   1.131   4.377 -2.2360  0.2477  1.5708
   13MOL0     H 1653   1.039   1.129   4.385  2.4998  2.9497 -0.4477
   13MOL0     H 1654   1.153   1.161   4.521  1.9957 -1.6696 -1.4526
   13MOL0     H 1655   0.990   1.085   4.689 -1.7296 -1.7601 -0.5098
   13MOL0     H 1656   0.881   1.031   4.552 -0.0533 -0.0097 -2.1552
   13MOL0     H 1657   0.823   1.247   4.511 -1.2077 -2.3533  0.9673
   13MOL0     H 1658   0.972   1.305   4.611 -0.3714 -0.2725 -0.9948
   13MOL0     H 1659   0.741   1.153   4.746 -0.5550 -0.1137  1.9317
   13MOL0     H 1660   0.866   1.261   4.811  4.2390  0.7771 -2.5076
   13MOL0     H 1661   0.637   1.372   4.644  0.4519  0.1985  0.4273
   13MOL0     H 1662   0.780   1.453   4.709  0.7784  0.1657 -0.2103
   13MOL0     H 1663   0.582   1.488   4.859 -0.8649 -0.7747  0.1280
   13MOL0     H 1664   0.696   1.383   4.934 -1.0986  1.9695  0.7876
   13MOL0     H 1665   0.438   1.323   4.783  0.6693 -1.0692  0.3637
   13MOL0     H 1666   0.536   1.186   4.817 -1.3153 -1.1284  0.6261
   13MOL0     H 1667   0.546   1.274   5.082  1.6061  2.4671 -0.5166
   13MOL0     H 1668   0.429   1.166   5.018  1.5857 -0.7145 -5.1820
   13MOL0     H 1669   0.181   1.208   5.059 -0.1084 -0.6245 -0.0393
   13MOL0     H 1670  -0.035   1.329   5.092  0.8048  0.1875  0.5157
   13MOL0     H 1671  -0.054   1.487   5.002  1.0391 -1.4523 -2.9489
   13MOL0     H 1672   0.082   1.493   5.264  0.0265  0.9731  0.7109
   13MOL0     H 1673  -0.081   1.440   5.277 -2.8092  2.8758 -0.1562
   13MOL0     H 1674   0.016   1.707   5.133  1.3387 -2.2463  0.8177
   13MOL0     H 1675  -0.153   1.670   5.186 -0.6074  0.7981 -0.2602
   13MOL0     H 1676   0.001   1.841   5.321  3.1332 -1.2418 -2.3229
   13MOL0     H 1677   0.100   1.711   5.369 -1.2962 -3.2750  0.6064
   13MOL0     H 1678  -0.201   1.921   5.392 -0.7228  0.5844 -0.4175
   13MOL0     H 1679  -0.444   1.960   5.383 -1.5402  0.1465  0.7121
   13MOL0     H 1680  -0.843   1.882   5.667  0.2221 -0.2558 -0.1048
   13MOL0     H 1681  -1.086   1.914   5.648  4.9515  4.0425  3.9142
   13MOL0     H 1682  -1.411   2.019   5.512 -0.2695  0.6192 -1.6632
   13MOL0     H 1683  -1.289   1.965   5.615  2.2439 -3.0775 -0.3417
   13MOL0     H 1684  -1.297   1.750   5.437 -1.3072  2.3209 -2.8764
   13MOL0     H 1685  -1.465   1.787   5.461  1.2448  0.3849 -3.4584
   13MOL0     H 1686  -1.422   1.745   5.713 -1.8804  1.6120 -2.7924
   13MOL0     H 1687  -1.244   1.757   5.682 -0.7053  1.0355  3.2255
   13MOL0     H 1688  -1.433   1.540   5.556  1.2972 -3.0726  1.3512
   13MOL0     H 1689  -1.257   1.555   5.542 -0.1883  0.7387 -2.9391
   13MOL0     H 1690  -1.310   1.380   5.703 -1.2000  0.8855 -1.1214
   13MOL0     H 1691  -1.416   1.495   5.784 -0.4857  1.0617  0.5663
   13MOL0     H 1692  -1.225   1.627   5.850 -0.7254 -0.2934 -0.7703
   13MOL0     H 1693  -1.110   1.531   5.743 -0.6130  0.5187 -0.6898
   13MOL0     H 1694  -1.270   1.464   5.996 -1.8477 -4.6148  0.0793
   13MOL0     H 1695  -1.199   1.337   5.897 -3.0247 -0.2275  0.6213
   13MOL0     H 1696  -1.053   1.410   6.095  1.9644  0.9982 -0.4557
   13MOL0     H 1697  -1.036   1.568   6.017  3.0485  0.3266 -1.9420
   13MOL0     H 1698  -1.046   2.074   5.255  1.7743  1.3003 -0.8543
   13MOL0     H 1699  -0.799   2.029   5.284 -3.7088  0.2702 -3.1330
   13MOL0     H 1700  -0.511   1.576   5.555 -1.6097  2.6674  2.1904
   13MOL0     H 1701  -0.258   1.533   5.551  2.1567  2.1293  1.9963
   13MOL0     H 1702   1.121   0.741   4.318  3.3631 -2.3366 -1.6517
   13MOL0     H 1703   1.238   0.728   4.123 -1.4080 -1.1035  0.2250
   13MOL0     H 1704   1.420   0.908   3.752 -0.0842 -0.9422  0.3968
   13MOL0     H 1705   1.506   0.850   3.539 -0.1365  1.3640  0.0853
   13MOL0     H 1706   1.941   0.694   3.525  1.0132  0.3878 -1.7103
   13MOL0     H 1707   1.929   0.878   3.522 -5.7090  1.8741  2.4108
   13MOL0     H 1708   1.894   0.704   3.277 -0.0260 -0.0719 -1.3859
   13MOL0     H 1709   1.942   0.880   3.291 -1.6926  0.1529 -1.5466
   13MOL0     H 1710   2.117   0.743   3.219 -0.9968  1.6169  1.1408
   13MOL0     H 1711   2.122   0.625   3.349  2.2890  0.4680  1.1821
   13MOL0     H 1712   2.189   0.920   3.375  2.5509 -0.2855 -1.1151
   13MOL0     H 1713   2.157   0.816   3.514 -1.5241 -0.3857 -0.1892
   13MOL0     H 1714   2.535   0.699   3.349 -1.0269 -1.8524  0.2200
   13MOL0     H 1715   1.891   0.766   3.730  0.9924  2.2944 -0.9715
   13MOL0     H 1716   1.798   0.821   3.938 -0.6437  0.2602 -0.2935
   14MOL0     O 1717   4.305  11.208   1.878 -0.1658 -0.0398  0.0830
   14MOL0     C 1718   4.381  11.288   1.815  0.1866 -0.6050 -0.2793
   14MOL0     O 1719   4.362  11.353   1.691  0.1415  0.0656 -0.2089
   14MOL0     C 1720   4.256  11.317   1.615 -1.5200  0.1013 -0.9579
   14MOL0     C 1721   4.123  11.311   1.662  0.8091 -0.5452 -0.0143
   14MOL0     C 1722   4.017  11.286   1.573 -0.0518 -0.6457  0.0393
   14MOL0     C 1723   4.052  11.250   1.438  0.6228 -0.3974  0.5957
   14MOL0     O 1724   3.955  11.212   1.356 -0.2429 -0.2565  0.5397
   14MOL0     C 1725   3.877  11.330   1.306  0.0031 -0.2412 -0.1545
   14MOL0     C 1726   3.787  11.284   1.190 -0.4299  0.0561 -0.6980
   14MOL0     C 1727   3.692  11.388   1.127 -0.0250 -0.7462  0.7041
   14MOL0     C 1728   3.561  11.428   1.206 -0.6707  0.0770 -0.5185
   14MOL0     C 1729   3.512  11.569   1.161 -0.0204  0.5532 -0.1996
   14MOL0     C 1730   3.570  11.677   1.250  0.8765  0.3592  0.1227
   14MOL0     C 1731   3.637  11.773   1.151  0.1716  1.1407 -0.2920
   14MOL0     C 1732   3.681  11.896   1.227  0.3346 -0.2858  0.3594
   14MOL0     N 1733   3.814  11.878   1.285 -0.8454 -0.8246  0.7772
   14MOL0     C 1734   3.932  11.911   1.235  0.0612 -0.9105 -0.5886
   14MOL0     C 1735   4.030  11.880   1.331  0.7279 -0.5996 -0.2239
   14MOL0     C 1736   4.174  11.902   1.341  0.7376 -0.0528 -0.8796
   14MOL0     C 1737   4.255  11.780   1.382 -0.1551 -0.2890  0.3889
   14MOL0     C 1738   4.289  11.670   1.280  0.9302  0.2965  0.6817
   14MOL0     C 1739   4.156  11.597   1.231  0.0095  0.7536  0.2797
   14MOL0     O 1740   4.209  11.491   1.148 -0.2423  0.0796  0.1464
   14MOL0     C 1741   4.167  11.499   1.018  0.4733 -0.5153 -0.0492
   14MOL0     C 1742   4.048  11.440   0.979 -0.2532 -0.1661  0.5133
   14MOL0     C 1743   4.025  11.429   0.845 -0.0939 -0.1366 -0.1009
   14MOL0     C 1744   4.106  11.484   0.745 -0.8702  0.4010 -0.4929
   14MOL0     C 1745   4.063  11.489   0.604 -0.1285 -0.1104 -0.3890
   14MOL0     O 1746   4.145  11.542   0.517 -0.6095 -0.2455  0.1633
   14MOL0     C 1747   4.096  11.538   0.387  0.5640 -0.1392 -1.2465
   14MOL0     C 1748   4.157  11.471   0.284  0.4302 -0.6731 -0.4500
   14MOL0     C 1749   4.111  11.501   0.151  0.1991  1.2087  0.2277
   14MOL0     C 1750   3.993  11.570   0.123 -0.5660 -0.0005 -0.5696
   14MOL0     O 1751   3.933  11.587   0.007  0.1979 -0.0711 -0.1276
   14MOL0     C 1752   3.816  11.496  -0.001 -0.3426 -0.1502  0.1233
   14MOL0     C 1753   3.707  11.525  -0.110 -0.2335 -0.7423 -0.7138
   14MOL0     C 1754   3.645  11.668  -0.111  0.1321  0.7505  0.5966
   14MOL0     C 1755   3.577  11.707   0.024 -1.3100  0.5656 -0.1388
   14MOL0     C 1756   3.510  11.837   0.017  0.0544  0.4495  0.7576
   14MOL0     C 1757   3.379  11.838  -0.073 -0.3073 -0.0405 -0.7024
   14MOL0     C 1758   3.337  11.988  -0.096  0.0050  0.6583 -0.2377
   14MOL0     C 1759   3.318  12.030  -0.242 -0.5461  0.6255 -0.3333
   14MOL0    Cl 1760   3.144  11.991  -0.270  0.1434 -0.3588 -0.2378
   14MOL0     C 1761   3.936  11.636   0.229 -0.8423  0.3730  0.2536
   14MOL0     C 1762   3.986  11.617   0.358  0.1764 -0.0229  0.6196
   14MOL0     O 1763   3.962  11.423   0.581 -0.1804  0.2565 -0.2502
   14MOL0     C 1764   4.231  11.541   0.790  0.4365 -0.2780  0.5328
   14MOL0     C 1765   4.260  11.543   0.927  0.3518  0.0684 -0.1711
   14MOL0     N 1766   3.955  11.824   1.439  0.2307  0.4801  0.3838
   14MOL0     N 1767   3.825  11.832   1.411 -0.0659  0.4914 -0.1098
   14MOL0     C 1768   4.183  11.254   1.399  1.1879 -0.3885  0.0670
   14MOL0     C 1769   4.279  11.292   1.481 -0.0741  0.1913  0.6073
   14MOL0     C 1770   4.501  11.346   1.885  0.0707  0.2301 -0.5944
   14MOL0     C 1771   4.575  11.455   1.838 -0.8095 -0.0057  0.5973
   14MOL0     C 1772   4.696  11.498   1.898 -0.2344  0.4439  1.1552
   14MOL0     C 1773   4.751  11.425   2.003  0.1040 -0.2223  0.3585
   14MOL0     O 1774   4.869  11.472   2.053 -0.7867  0.1997 -0.0111
   14MOL0     C 1775   4.922  11.419   2.175  0.5944  0.8229 -0.8443
   14MOL0     C 1776   5.020  11.509   2.253  0.4899  0.2652 -1.5048
   14MOL0     C 1777   5.154  11.527   2.192 -0.9877 -0.2583 -0.3499
   14MOL0     C 1778   5.235  11.659   2.239 -0.1251 -0.5812 -0.6010
   14MOL0     C 1779   5.369  11.666   2.177  0.1585  0.1708  0.7677
   14MOL0     C 1780   5.473  11.650   2.110  0.5610  0.3407  0.1463
   14MOL0     C 1781   4.675  11.327   2.058  0.2049 -0.1488 -0.3400
   14MOL0     C 1782   4.552  11.292   2.004 -0.2466 -0.2447 -0.6499
   14MOL0     H 1783   4.100  11.320   1.767  1.9579  0.3546  0.1830
   14MOL0     H 1784   3.915  11.268   1.607  0.6988  0.7323  3.3115
   14MOL0     H 1785   3.943  11.413   1.279 -0.5845 -0.1436 -1.3171
   14MOL0     H 1786   3.820  11.371   1.390 -1.4784 -0.8842 -0.8139
   14MOL0     H 1787   3.723  11.207   1.235 -1.8502  2.4392  1.6486
   14MOL0     H 1788   3.859  11.241   1.119  1.1481  2.8801 -0.9660
   14MOL0     H 1789   3.661  11.337   1.035  0.0078  2.4781 -1.2581
   14MOL0     H 1790   3.747  11.476   1.091 -1.4035 -0.1725 -0.0934
   14MOL0     H 1791   3.492  11.345   1.186 -0.6728 -0.3855  1.2520
   14MOL0     H 1792   3.572  11.425   1.314 -1.2834 -1.9916 -0.4844
   14MOL0     H 1793   3.402  11.567   1.165 -0.0275 -2.3647 -0.0996
   14MOL0     H 1794   3.525  11.587   1.054  2.4136  1.3384  0.1688
   14MOL0     H 1795   3.627  11.636   1.334 -1.9782  0.8025  2.4394
   14MOL0     H 1796   3.486  11.732   1.295 -0.1361 -1.9270  1.1680
   14MOL0     H 1797   3.717  11.736   1.087  2.0378  0.1904  2.4311
   14MOL0     H 1798   3.561  11.808   1.080 -0.4155  3.9944  1.5783
   14MOL0     H 1799   3.614  11.920   1.310 -0.2428 -1.8783  0.3786
   14MOL0     H 1800   3.678  11.982   1.160 -2.2477 -0.7257 -0.2112
   14MOL0     H 1801   3.936  11.964   1.140 -0.1452  0.7773  0.3152
   14MOL0     H 1802   4.202  11.978   1.414  2.2593 -0.5668 -0.9065
   14MOL0     H 1803   4.217  11.940   1.248  0.7095  2.2231 -0.0378
   14MOL0     H 1804   4.204  11.746   1.472  0.4984  1.6380  1.5426
   14MOL0     H 1805   4.352  11.820   1.413 -1.3089  1.1461  2.2900
   14MOL0     H 1806   4.335  11.714   1.190  0.3907  0.3686  0.4330
   14MOL0     H 1807   4.359  11.602   1.328  2.9188  1.4354 -0.4696
   14MOL0     H 1808   4.094  11.663   1.170 -2.2266 -0.9922  0.4947
   14MOL0     H 1809   4.091  11.568   1.315 -1.2258 -2.6484 -1.6466
   14MOL0     H 1810   3.975  11.409   1.053 -0.5344 -1.4508 -0.2659
   14MOL0     H 1811   3.929  11.385   0.819  0.3868 -1.4381  0.2949
   14MOL0     H 1812   4.242  11.414   0.319  0.8738  1.9035  3.2612
   14MOL0     H 1813   4.153  11.434   0.077 -0.0486 -1.6303  2.4810
   14MOL0     H 1814   3.767  11.483   0.096 -2.6171  1.5883 -0.6921
   14MOL0     H 1815   3.856  11.401  -0.037  0.5609 -0.0366  0.8032
   14MOL0     H 1816   3.622  11.456  -0.100 -1.3770  0.9345  1.9743
   14MOL0     H 1817   3.759  11.494  -0.201  3.8124 -2.3240  1.8596
   14MOL0     H 1818   3.579  11.667  -0.197  2.8890  2.1575 -1.7011
   14MOL0     H 1819   3.722  11.742  -0.135  0.1453  0.6610  0.3704
   14MOL0     H 1820   3.500  11.638   0.061 -1.4541  0.3132 -0.8797
   14MOL0     H 1821   3.658  11.714   0.097  0.1160 -0.1928 -1.5747
   14MOL0     H 1822   3.583  11.914  -0.009  1.6050 -1.2438 -0.1824
   14MOL0     H 1823   3.478  11.855   0.120 -2.5809 -1.2466  0.3415
   14MOL0     H 1824   3.303  11.771  -0.033 -1.7219  0.6487 -2.1256
   14MOL0     H 1825   3.412  11.794  -0.167  3.1329 -1.5720  1.0355
   14MOL0     H 1826   3.241  12.018  -0.052 -1.6436  0.0737 -3.1629
   14MOL0     H 1827   3.420  12.047  -0.058  0.9342 -1.0327  0.4251
   14MOL0     H 1828   3.391  11.973  -0.300  0.8138 -0.6379  2.4380
   14MOL0     H 1829   3.335  12.138  -0.245 -3.5054  1.1743  0.1056
   14MOL0     H 1830   3.849  11.696   0.204 -0.3496  1.2920  0.7041
   14MOL0     H 1831   3.943  11.679   0.436 -0.8280 -1.9617  1.6684
   14MOL0     H 1832   4.297  11.595   0.723  0.4146 -0.2579  0.5271
   14MOL0     H 1833   4.358  11.576   0.960  0.1063 -1.9028  2.9370
   14MOL0     H 1834   4.209  11.210   1.303  1.6076 -3.3463  1.4208
   14MOL0     H 1835   4.380  11.297   1.442 -0.3784  0.9274 -0.1178
   14MOL0     H 1836   4.543  11.510   1.750 -5.2915 -1.5613  1.0087
   14MOL0     H 1837   4.739  11.589   1.858 -3.4478  0.2094 -3.6770
   14MOL0     H 1838   4.969  11.322   2.154  1.1388  0.4216  1.8681
   14MOL0     H 1839   4.836  11.400   2.240 -2.2476  2.8317 -3.7360
   14MOL0     H 1840   4.981  11.608   2.279  0.1003 -0.3544  0.4828
   14MOL0     H 1841   5.052  11.464   2.347 -0.5097  2.3955 -0.0694
   14MOL0     H 1842   5.140  11.522   2.083 -1.1622 -0.6721 -0.3116
   14MOL0     H 1843   5.222  11.445   2.215 -1.4422 -0.7331 -0.6712
   14MOL0     H 1844   5.182  11.752   2.214  0.1072  0.0363  1.0998
   14MOL0     H 1845   5.238  11.652   2.348  2.1360  2.0490 -0.3809
   14MOL0     H 1846   5.556  11.650   2.042  1.5152 -0.2128  1.2746
   14MOL0     H 1847   4.700  11.275   2.150 -2.5278  1.0306  1.1815
   14MOL0     H 1848   4.506  11.209   2.057  0.6005  1.4086  3.0341
   15MOL0     O 1849   9.335   9.639   3.309  0.4718 -0.5754 -0.2094
   15MOL0     C 1850   9.404   9.581   3.393  0.9944  0.2874 -0.2435
   15MOL0     O 1851   9.349   9.498   3.495 -0.4423 -0.4960 -0.0388
   15MOL0     C 1852   9.212   9.485   3.509 -0.4733  0.0821 -0.3746
   15MOL0     C 1853   9.127   9.466   3.398 -0.3352  0.3281  1.4917
   15MOL0     C 1854   8.991   9.447   3.411  0.8262 -0.3351 -0.3105
   15MOL0     C 1855   8.931   9.470   3.534  0.6887  0.7231 -0.0935
   15MOL0     O 1856   8.793   9.472   3.551  0.6568  0.0869 -0.8299
   15MOL0     C 1857   8.700   9.443   3.447 -0.1574  0.0364  0.6122
   15MOL0     C 1858   8.569   9.440   3.520 -0.7777  0.7049  0.4696
   15MOL0     C 1859   8.479   9.323   3.461 -0.0324 -0.2121 -0.1397
   15MOL0     C 1860   8.351   9.324   3.548 -0.1188  0.3990  0.4098
   15MOL0     C 1861   8.243   9.223   3.505 -0.3271 -0.7008 -0.7454
   15MOL0     C 1862   8.125   9.223   3.588  0.0725  0.5259 -0.7621
   15MOL0     C 1863   8.026   9.113   3.552 -0.0672  0.4322 -0.7881
   15MOL0     C 1864   7.948   9.169   3.436  0.8866 -0.3304  0.8568
   15MOL0     N 1865   7.837   9.076   3.401  0.2119 -0.1504  0.2748
   15MOL0     C 1866   7.736   9.029   3.475 -0.5320 -0.2248 -0.2901
   15MOL0     C 1867   7.663   8.950   3.397 -0.4452  0.2309  0.5746
   15MOL0     C 1868   7.532   8.881   3.429  0.4117  0.5721 -0.2314
   15MOL0     C 1869   7.546   8.751   3.519 -0.8427 -0.3504  0.1763
   15MOL0     C 1870   7.414   8.670   3.532 -0.2154 -0.6702  0.6297
   15MOL0     C 1871   7.291   8.756   3.552  0.1530 -0.0039 -0.7162
   15MOL0     O 1872   7.198   8.667   3.618  0.1201 -0.0597 -0.1372
   15MOL0     C 1873   7.072   8.705   3.593 -0.0410  0.7920  0.5635
   15MOL0     C 1874   7.033   8.846   3.570  0.3278  0.0275 -0.2625
   15MOL0     C 1875   6.895   8.882   3.560 -0.6195 -0.0138  0.0020
   15MOL0     C 1876   6.794   8.787   3.579  0.0605 -0.1315  0.5236
   15MOL0     C 1877   6.655   8.833   3.570 -0.6978 -0.6210 -0.1846
   15MOL0     O 1878   6.571   8.767   3.655  0.5230 -0.1951  0.1027
   15MOL0     C 1879   6.437   8.787   3.638 -0.1645 -0.1056  0.0617
   15MOL0     C 1880   6.373   8.787   3.756 -0.7321 -0.5660 -0.4643
   15MOL0     C 1881   6.232   8.790   3.767 -0.8329  0.2403  0.3199
   15MOL0     C 1882   6.157   8.791   3.640 -0.3363  0.2498  0.4889
   15MOL0     O 1883   6.020   8.791   3.628  0.3569  0.4111  0.3089
   15MOL0     C 1884   5.948   8.736   3.738  0.2671 -0.1581  1.4446
   15MOL0     C 1885   5.812   8.774   3.720 -0.5380 -0.3466  0.1803
   15MOL0     C 1886   5.721   8.762   3.840 -0.2226  0.7639 -0.2300
   15MOL0     C 1887   5.574   8.804   3.816 -0.4033  0.7329  0.0994
   15MOL0     C 1888   5.487   8.801   3.945  0.2689  0.1295 -0.1886
   15MOL0     C 1889   5.364   8.876   3.911 -0.2707  0.3119  0.3479
   15MOL0     C 1890   5.287   8.913   4.040  0.2893  0.1766  0.0130
   15MOL0     C 1891   5.163   8.985   3.994  0.9942 -0.8456 -0.0756
   15MOL0    Cl 1892   5.041   8.991   4.122 -0.2655 -0.2186 -0.1401
   15MOL0     C 1893   6.233   8.775   3.516  0.3815 -0.7559  0.1379
   15MOL0     C 1894   6.372   8.773   3.513  0.7123 -0.0510  0.4180
   15MOL0     O 1895   6.634   8.913   3.479 -0.3238 -0.7185 -0.1059
   15MOL0     C 1896   6.828   8.648   3.599 -0.6260 -0.7027  0.2426
   15MOL0     C 1897   6.966   8.609   3.603  0.6715  0.2130  0.2281
   15MOL0     N 1898   7.732   8.932   3.277  0.3797 -0.6474 -0.7901
   15MOL0     N 1899   7.823   9.017   3.282  0.3167 -0.2757  0.4644
   15MOL0     C 1900   9.015   9.493   3.644 -0.7464  0.4745  1.2662
   15MOL0     C 1901   9.153   9.495   3.638 -0.9638  0.6977  0.4233
   15MOL0     C 1902   9.549   9.595   3.395 -0.7697 -0.3165  0.2199
   15MOL0     C 1903   9.620   9.502   3.466 -0.4036 -0.1833 -0.1161
   15MOL0     C 1904   9.757   9.526   3.499  0.0214  0.3937  0.7178
   15MOL0     C 1905   9.825   9.637   3.445  0.6159  0.8129  0.0958
   15MOL0     O 1906   9.954   9.650   3.465  0.0889  0.6880  0.4788
   15MOL0     C 1907  10.015   9.782   3.464  0.7787 -0.2296  0.4526
   15MOL0     C 1908  10.126   9.800   3.554 -0.4578  0.2910 -0.4686
   15MOL0     C 1909  10.248   9.709   3.537 -0.2038  1.6355 -0.2822
   15MOL0     C 1910  10.215   9.551   3.573  0.8851  0.0968 -0.1639
   15MOL0     C 1911  10.329   9.466   3.580 -0.1193  0.0906  1.2227
   15MOL0     C 1912  10.428   9.392   3.587 -0.5571 -0.2246  0.4184
   15MOL0     C 1913   9.751   9.730   3.370  0.5899  0.2507 -0.1385
   15MOL0     C 1914   9.614   9.705   3.341 -0.0448 -0.5155  0.3429
   15MOL0     H 1915   9.164   9.481   3.297 -1.5923  1.3470  1.1617
   15MOL0     H 1916   8.933   9.437   3.320  0.8823  2.9068 -0.8229
   15MOL0     H 1917   8.700   9.346   3.395 -2.3911  0.7419 -0.8254
   15MOL0     H 1918   8.700   9.524   3.375  1.2384  0.1745  0.7361
   15MOL0     H 1919   8.514   9.533   3.502  2.2425  2.1429 -2.5446
   15MOL0     H 1920   8.591   9.419   3.625 -0.5379 -2.9035 -0.1770
   15MOL0     H 1921   8.528   9.226   3.453 -0.7510 -0.6229  0.3190
   15MOL0     H 1922   8.455   9.346   3.356  0.1139 -1.0512 -0.3606
   15MOL0     H 1923   8.382   9.299   3.650  2.2289 -1.8532 -0.7598
   15MOL0     H 1924   8.313   9.427   3.540  1.6678  1.0151 -0.6698
   15MOL0     H 1925   8.296   9.128   3.513  3.0544  1.0370 -0.8707
   15MOL0     H 1926   8.213   9.234   3.401 -0.0600 -0.3954 -0.7901
   15MOL0     H 1927   8.082   9.323   3.578  3.4768  2.3226  0.7655
   15MOL0     H 1928   8.160   9.200   3.689 -0.9478 -2.1160 -0.9173
   15MOL0     H 1929   8.069   9.017   3.523 -0.6369  0.1211 -0.6178
   15MOL0     H 1930   7.954   9.109   3.634 -0.2322  1.3396 -0.8787
   15MOL0     H 1931   8.018   9.192   3.354  1.9806  1.0688  2.1262
   15MOL0     H 1932   7.889   9.258   3.460 -0.1379 -0.4841 -0.8973
   15MOL0     H 1933   7.705   9.057   3.575 -2.1467  1.1641 -1.1232
   15MOL0     H 1934   7.473   8.859   3.340 -4.3925  0.0608  2.7441
   15MOL0     H 1935   7.464   8.948   3.482  0.1607  0.1194  0.0315
   15MOL0     H 1936   7.572   8.786   3.619  0.3891 -0.3295 -0.1410
   15MOL0     H 1937   7.632   8.693   3.485 -0.4537  0.6796 -0.6276
   15MOL0     H 1938   7.406   8.606   3.444  1.7135 -0.5693  0.3434
   15MOL0     H 1939   7.428   8.608   3.621 -1.0065 -1.0351  0.5053
   15MOL0     H 1940   7.258   8.795   3.455 -1.4406  3.5481  1.0561
   15MOL0     H 1941   7.315   8.844   3.612 -1.7492  0.8748 -1.1665
   15MOL0     H 1942   7.108   8.924   3.567 -2.5872  3.2275  2.2979
   15MOL0     H 1943   6.872   8.988   3.555 -1.7435 -0.1919  1.0023
   15MOL0     H 1944   6.433   8.787   3.846  0.1352  0.0929 -1.0229
   15MOL0     H 1945   6.180   8.792   3.862  0.8398 -2.9323  1.4528
   15MOL0     H 1946   5.973   8.779   3.835  1.1731  5.9038 -1.0077
   15MOL0     H 1947   5.964   8.628   3.732  2.3450  0.1482  0.3126
   15MOL0     H 1948   5.776   8.710   3.639 -2.0685  1.2469 -0.4865
   15MOL0     H 1949   5.809   8.881   3.696 -2.8371 -0.1984  0.8686
   15MOL0     H 1950   5.752   8.824   3.925 -1.2138  2.4096 -1.0275
   15MOL0     H 1951   5.715   8.657   3.871 -0.6552  0.2106 -2.0473
   15MOL0     H 1952   5.571   8.905   3.774  2.7883 -0.8744 -4.9026
   15MOL0     H 1953   5.525   8.751   3.734 -1.3293 -1.0028  1.6999
   15MOL0     H 1954   5.532   8.850   4.031 -2.2440  2.2801  0.0215
   15MOL0     H 1955   5.458   8.700   3.977 -0.2284  0.4383  0.3398
   15MOL0     H 1956   5.292   8.818   3.853 -1.4750  1.0878  1.0232
   15MOL0     H 1957   5.391   8.972   3.865 -2.4621  0.0395 -1.6420
   15MOL0     H 1958   5.268   8.822   4.097  0.5799 -0.3267 -0.6841
   15MOL0     H 1959   5.349   8.979   4.101  0.9287  0.0767 -0.5241
   15MOL0     H 1960   5.111   8.939   3.910 -0.6540 -2.9136  1.9450
   15MOL0     H 1961   5.195   9.083   3.958  1.6278 -1.1296 -0.2980
   15MOL0     H 1962   6.176   8.759   3.426 -1.8904  0.7587  1.2243
   15MOL0     H 1963   6.424   8.753   3.420 -0.7916  0.0896 -0.4864
   15MOL0     H 1964   6.744   8.579   3.610  0.1304 -1.3590  2.3886
   15MOL0     H 1965   6.994   8.509   3.634  2.3592  1.0506  1.5715
   15MOL0     H 1966   8.961   9.499   3.738 -4.0574  1.5542 -0.5116
   15MOL0     H 1967   9.222   9.515   3.719  0.6336  1.6782 -1.1039
   15MOL0     H 1968   9.575   9.414   3.512  2.8274 -1.4176  0.9736
   15MOL0     H 1969   9.809   9.454   3.562  2.2261  2.4682  1.4232
   15MOL0     H 1970   9.933   9.850   3.491  0.0398 -0.4536 -1.0926
   15MOL0     H 1971  10.052   9.798   3.363 -0.2100  2.0854  0.3829
   15MOL0     H 1972  10.169   9.901   3.547  2.7376 -0.9248 -0.2302
   15MOL0     H 1973  10.088   9.792   3.657 -2.1252 -2.7717 -1.1988
   15MOL0     H 1974  10.320   9.748   3.609 -0.5586  2.6069 -0.4448
   15MOL0     H 1975  10.283   9.714   3.434  0.9601 -1.7584 -0.1908
   15MOL0     H 1976  10.168   9.539   3.671 -0.5382 -0.4752 -0.8853
   15MOL0     H 1977  10.153   9.513   3.491 -3.3522 -0.2795  2.9092
   15MOL0     H 1978  10.516   9.332   3.595 -1.1038 -1.2455 -0.7429
   15MOL0     H 1979   9.796   9.814   3.319 -2.3651  2.3680  0.5015
   15MOL0     H 1980   9.562   9.768   3.269  0.8439 -1.3827 -1.1006
   16MOL0     O 1981   9.155   9.839   2.239  0.1097 -0.4804  0.2383
   16MOL0     C 1982   9.113   9.948   2.207 -0.3596 -0.3424 -0.0261
   16MOL0     O 1983   9.174  10.044   2.121 -0.2488  0.1979 -0.9836
   16MOL0     C 1984   9.310  10.015   2.096  0.8273 -0.2384 -0.2711
   16MOL0     C 1985   9.406  10.026   2.185 -0.3764 -0.2606  0.4353
   16MOL0     C 1986   9.528   9.961   2.157 -0.1285  0.0776  0.4148
   16MOL0     C 1987   9.554   9.885   2.039 -0.6220  0.6577  0.2441
   16MOL0     O 1988   9.660   9.800   2.018  0.4507  0.0565  0.4472
   16MOL0     C 1989   9.696   9.710   2.117  0.0265 -1.2327 -0.5577
   16MOL0     C 1990   9.619   9.586   2.118  0.3577  1.1236 -0.3914
   16MOL0     C 1991   9.467   9.599   2.155 -0.2128  0.5118  0.3057
   16MOL0     C 1992   9.391   9.461   2.185  0.7107  0.6475 -0.6981
   16MOL0     C 1993   9.254   9.488   2.242 -0.8664 -0.6314 -0.9121
   16MOL0     C 1994   9.149   9.536   2.137  1.1575  0.9939 -0.8291
   16MOL0     C 1995   9.020   9.535   2.217  0.5175 -0.0272 -1.1326
   16MOL0     C 1996   8.904   9.542   2.119  0.0944  0.6032 -0.2189
   16MOL0     N 1997   8.776   9.563   2.192 -0.2951 -0.9385  0.5072
   16MOL0     C 1998   8.706   9.676   2.204 -0.1278 -0.7812  0.5299
   16MOL0     C 1999   8.582   9.642   2.252 -0.4736  0.4442  1.0468
   16MOL0     C 2000   8.463   9.726   2.277 -0.0079  0.7479 -0.0208
   16MOL0     C 2001   8.337   9.656   2.320 -0.0882 -0.2493 -0.2047
   16MOL0     C 2002   8.241   9.748   2.390 -0.5809 -0.1080  0.7443
   16MOL0     C 2003   8.108   9.687   2.438 -0.2293  0.0770 -0.5038
   16MOL0     O 2004   8.007   9.784   2.443 -0.3191  0.0247 -0.3886
   16MOL0     C 2005   8.000   9.879   2.538  0.0662 -0.7849 -0.3837
   16MOL0     C 2006   8.101   9.914   2.632  0.0453 -0.4141 -0.3159
   16MOL0     C 2007   8.081  10.019   2.715 -0.0331 -0.9180  0.1805
   16MOL0     C 2008   7.955  10.096   2.723  0.0449  0.0848  0.7050
   16MOL0     C 2009   7.926  10.181   2.836 -0.0195 -0.7410  0.8974
   16MOL0     O 2010   8.031  10.223   2.913 -0.5790  0.1251 -1.0346
   16MOL0     C 2011   7.989  10.285   3.031 -0.0516  0.3954  0.2554
   16MOL0     C 2012   7.871  10.247   3.106  0.0268  0.6277 -0.3338
   16MOL0     C 2013   7.812  10.333   3.200  0.7516  0.0804  0.4484
   16MOL0     C 2014   7.888  10.445   3.242 -0.0372  0.0993  1.0824
   16MOL0     O 2015   7.845  10.517   3.352 -0.3695 -1.3306 -0.4356
   16MOL0     C 2016   7.934  10.612   3.415  0.5338 -0.0500 -0.0592
   16MOL0     C 2017   8.054  10.539   3.489 -0.3108  0.2669  0.9490
   16MOL0     C 2018   8.183  10.621   3.488 -0.3050 -0.0005  0.4593
   16MOL0     C 2019   8.158  10.740   3.589  0.0598  0.8325 -0.7038
   16MOL0     C 2020   8.296  10.813   3.612  0.9428  0.2516 -1.0361
   16MOL0     C 2021   8.266  10.950   3.678  1.5645 -1.1988  0.1179
   16MOL0     C 2022   8.385  11.032   3.717 -0.1819  0.5449 -0.8312
   16MOL0     C 2023   8.352  11.171   3.761  0.1608 -0.3969  0.4322
   16MOL0    Cl 2024   8.342  11.286   3.619 -0.0215 -0.0114  0.1658
   16MOL0     C 2025   8.011  10.475   3.176  0.2915  0.0217 -0.2796
   16MOL0     C 2026   8.058  10.395   3.080 -0.1411  0.0077  0.7612
   16MOL0     O 2027   7.811  10.216   2.847  0.4136 -0.9062  0.2254
   16MOL0     C 2028   7.855  10.040   2.634 -0.4737 -1.0993  0.4887
   16MOL0     C 2029   7.886   9.945   2.548 -0.2108  0.0290  0.1588
   16MOL0     N 2030   8.590   9.507   2.268 -0.3185  0.4065 -0.0401
   16MOL0     N 2031   8.702   9.462   2.230  0.3398  0.0924  0.5643
   16MOL0     C 2032   9.459   9.904   1.935 -0.1297 -0.0974 -1.1216
   16MOL0     C 2033   9.339   9.968   1.969 -0.4853  0.2599  0.4297
   16MOL0     C 2034   8.987   9.979   2.277  0.2195  0.1092 -0.3713
   16MOL0     C 2035   8.926  10.099   2.241 -0.3905 -0.6159 -0.7624
   16MOL0     C 2036   8.811  10.148   2.298 -0.4527  0.1780 -0.3388
   16MOL0     C 2037   8.748  10.075   2.402  0.4535  0.1512 -0.4715
   16MOL0     O 2038   8.620  10.106   2.449  0.3968  0.1595  0.5236
   16MOL0     C 2039   8.548  10.211   2.384 -0.1674  0.1661 -0.0844
   16MOL0     C 2040   8.405  10.231   2.436  0.6581  0.1003  0.0243
   16MOL0     C 2041   8.334  10.340   2.360 -0.0766 -0.3287 -0.2978
   16MOL0     C 2042   8.187  10.333   2.400  0.1244 -0.6164 -0.8715
   16MOL0     C 2043   8.101  10.229   2.336 -0.7490  0.6443 -0.2755
   16MOL0     C 2044   8.042  10.142   2.275  0.4622  0.5962  0.5075
   16MOL0     C 2045   8.793   9.942   2.431 -0.0114 -0.4570 -0.3183
   16MOL0     C 2046   8.908   9.893   2.359  1.0741 -0.0687  0.2935
   16MOL0     H 2047   9.393  10.092   2.270  1.5147  0.7998 -0.0294
   16MOL0     H 2048   9.605   9.970   2.233  1.0659  1.2932 -0.8835
   16MOL0     H 2049   9.711   9.748   2.219 -0.6317  0.0700 -0.9300
   16MOL0     H 2050   9.794   9.677   2.082 -0.1118  0.0006 -2.2247
   16MOL0     H 2051   9.661   9.518   2.192 -2.2333  1.6085  1.6785
   16MOL0     H 2052   9.627   9.543   2.018 -0.6410  0.8500 -0.3602
   16MOL0     H 2053   9.421   9.653   2.073  1.0996 -1.4852 -1.8664
   16MOL0     H 2054   9.454   9.670   2.237  0.2137 -1.0940  1.8466
   16MOL0     H 2055   9.390   9.399   2.095 -1.2626 -0.6468  0.1543
   16MOL0     H 2056   9.450   9.409   2.262 -0.6092 -0.4208 -0.3733
   16MOL0     H 2057   9.266   9.566   2.318 -1.4606 -0.3403 -1.1038
   16MOL0     H 2058   9.220   9.397   2.291 -3.1293  0.2330 -0.7621
   16MOL0     H 2059   9.145   9.460   2.059 -2.5325  2.6194 -2.4615
   16MOL0     H 2060   9.170   9.629   2.083 -1.1400  0.1263 -3.4720
   16MOL0     H 2061   9.007   9.435   2.261 -0.9795  0.7879  0.3805
   16MOL0     H 2062   9.025   9.601   2.304  3.3965 -3.4687  1.7021
   16MOL0     H 2063   8.902   9.452   2.057 -2.6465 -0.0323  0.6395
   16MOL0     H 2064   8.933   9.628   2.058 -1.2086  1.3172  0.1310
   16MOL0     H 2065   8.728   9.776   2.170  2.8770 -1.1735  1.0554
   16MOL0     H 2066   8.451   9.780   2.183 -1.7818 -1.5737 -1.2218
   16MOL0     H 2067   8.487   9.793   2.361  1.2800  1.6862 -1.1058
   16MOL0     H 2068   8.367   9.574   2.386  0.5921  3.2652  4.3159
   16MOL0     H 2069   8.283   9.611   2.236  0.9289 -2.4015  0.2370
   16MOL0     H 2070   8.301   9.798   2.467 -2.6170  0.4671  2.0358
   16MOL0     H 2071   8.208   9.835   2.332  2.1150  1.0329  0.7811
   16MOL0     H 2072   8.123   9.644   2.537 -2.1531 -3.3065 -1.4791
   16MOL0     H 2073   8.080   9.600   2.377  2.0467 -1.8368  0.9927
   16MOL0     H 2074   8.196   9.861   2.636 -0.2648 -1.0743 -1.2971
   16MOL0     H 2075   8.166  10.049   2.775 -1.0987  0.7474  0.9781
   16MOL0     H 2076   7.824  10.158   3.066  2.9327 -0.2509 -2.1595
   16MOL0     H 2077   7.711  10.317   3.236  1.2432 -0.0285  1.8105
   16MOL0     H 2078   7.874  10.659   3.493  1.9412 -0.5516  1.3882
   16MOL0     H 2079   7.983  10.690   3.356  1.3834 -0.3766  0.2019
   16MOL0     H 2080   8.089  10.451   3.433 -1.7738  0.7475 -0.8227
   16MOL0     H 2081   8.025  10.512   3.591  3.5483 -2.5190  1.5504
   16MOL0     H 2082   8.211  10.646   3.386 -0.8251  0.4411  0.4160
   16MOL0     H 2083   8.262  10.557   3.527 -1.2832 -0.3537  2.0002
   16MOL0     H 2084   8.083  10.809   3.550 -0.8271  1.9386  2.5651
   16MOL0     H 2085   8.130  10.707   3.690  2.1654  1.2767  0.0796
   16MOL0     H 2086   8.343  10.827   3.514 -0.0049 -0.8494 -1.6841
   16MOL0     H 2087   8.348  10.749   3.684 -1.4198  0.4541  0.9920
   16MOL0     H 2088   8.191  10.947   3.758 -0.3684 -2.6565 -1.6200
   16MOL0     H 2089   8.204  10.997   3.601 -2.0378 -1.6203  2.5129
   16MOL0     H 2090   8.425  10.985   3.808  1.6414  1.6577 -0.9995
   16MOL0     H 2091   8.461  11.028   3.638 -1.2083 -3.9479 -1.8389
   16MOL0     H 2092   8.440  11.205   3.816  1.6054  0.9982 -2.5121
   16MOL0     H 2093   8.260  11.178   3.819  0.6712  1.2145  1.1068
   16MOL0     H 2094   8.070  10.566   3.181  0.4693 -0.1451  1.0150
   16MOL0     H 2095   8.154  10.424   3.038 -0.1655  1.5468  1.7015
   16MOL0     H 2096   7.752  10.069   2.646 -0.3541 -0.9092  1.0722
   16MOL0     H 2097   7.807   9.919   2.478  0.6156 -1.0794 -0.4007
   16MOL0     H 2098   9.476   9.858   1.838 -1.4813 -5.0517  0.7019
   16MOL0     H 2099   9.263   9.978   1.892 -0.0135  3.4011  0.2699
   16MOL0     H 2100   8.980  10.168   2.177  1.2657 -0.2892  0.9201
   16MOL0     H 2101   8.770  10.248   2.288  1.6279  1.5403  2.9952
   16MOL0     H 2102   8.541  10.184   2.278  3.8884 -1.3031 -0.1575
   16MOL0     H 2103   8.604  10.304   2.395 -1.3150  0.6319  2.5163
   16MOL0     H 2104   8.347  10.139   2.426  0.2053  0.3726  0.1557
   16MOL0     H 2105   8.400  10.258   2.542 -2.0360  1.9872 -0.4864
   16MOL0     H 2106   8.359  10.310   2.259  1.3022  0.5311 -0.2352
   16MOL0     H 2107   8.369  10.442   2.378 -1.1277 -0.1785  1.1483
   16MOL0     H 2108   8.185  10.336   2.509  2.3091  2.7536 -0.7825
   16MOL0     H 2109   8.143  10.428   2.367 -0.7781 -1.5340 -2.4292
   16MOL0     H 2110   7.988  10.073   2.214 -1.2309  1.5562  0.8462
   16MOL0     H 2111   8.737   9.868   2.488  0.8947 -0.0912  1.0921
   16MOL0     H 2112   8.926   9.788   2.379 -0.1055 -0.1672  0.9064
   17MOL0     O 2113   7.896   8.344   5.692 -0.4773 -0.1793  0.3491
   17MOL0     C 2114   7.846   8.397   5.591 -0.3374 -0.4587 -0.9668
   17MOL0     O 2115   7.907   8.413   5.477  0.5342  0.0987 -0.4382
   17MOL0     C 2116   8.044   8.413   5.480 -0.3367 -0.1022  0.1771
   17MOL0     C 2117   8.126   8.302   5.467  0.4674 -0.8368  0.5784
   17MOL0     C 2118   8.260   8.322   5.474  0.4276  1.1853  0.2022
   17MOL0     C 2119   8.315   8.449   5.472  0.0128  0.0850 -0.8268
   17MOL0     O 2120   8.450   8.456   5.495 -0.4739  0.1606 -0.1667
   17MOL0     C 2121   8.518   8.586   5.470  0.2102  0.4857 -0.3226
   17MOL0     C 2122   8.525   8.678   5.595 -0.2408  0.1609 -0.4897
   17MOL0     C 2123   8.525   8.825   5.553 -0.7360 -1.5690  0.5781
   17MOL0     C 2124   8.543   8.921   5.667  0.3416  0.1036 -1.3161
   17MOL0     C 2125   8.555   9.064   5.616 -0.1916 -0.8510  0.2988
   17MOL0     C 2126   8.594   9.164   5.726 -0.3501  0.4806 -0.1954
   17MOL0     C 2127   8.619   9.294   5.654 -0.4302  0.6158 -0.4594
   17MOL0     C 2128   8.672   9.404   5.762 -0.9214 -0.3040  0.1417
   17MOL0     N 2129   8.555   9.446   5.835  0.0960 -0.0724 -0.5433
   17MOL0     C 2130   8.489   9.562   5.802  0.5100 -0.4921 -0.4487
   17MOL0     C 2131   8.366   9.553   5.864 -0.2445  0.0848  0.7596
   17MOL0     C 2132   8.252   9.652   5.844 -0.7686  0.2597 -0.0960
   17MOL0     C 2133   8.155   9.618   5.727  0.2759  0.6136 -0.3979
   17MOL0     C 2134   8.089   9.744   5.669  1.3270 -0.0094  0.0783
   17MOL0     C 2135   7.940   9.728   5.687  0.6100 -0.0819  0.0340
   17MOL0     O 2136   7.897   9.704   5.826 -0.6908 -0.5745  0.0707
   17MOL0     C 2137   7.778   9.759   5.874 -0.2002 -0.5304 -0.0969
   17MOL0     C 2138   7.675   9.806   5.792  0.6441 -0.2025  0.6699
   17MOL0     C 2139   7.560   9.853   5.845 -0.3239 -0.1821  0.3085
   17MOL0     C 2140   7.543   9.861   5.987 -0.1584  0.6134 -0.4659
   17MOL0     C 2141   7.435   9.949   6.050 -0.3684  1.1836 -0.6034
   17MOL0     O 2142   7.340  10.006   5.970  0.0738 -0.7395 -0.1194
   17MOL0     C 2143   7.241  10.086   6.032 -0.4265  0.4346 -0.9273
   17MOL0     C 2144   7.104  10.065   6.027  0.3709  0.0224  0.1662
   17MOL0     C 2145   7.000  10.138   6.085  0.0043 -0.4691  0.6256
   17MOL0     C 2146   7.031  10.250   6.156 -0.7951 -0.5927 -0.6839
   17MOL0     O 2147   6.937  10.324   6.216 -0.3137 -0.9028 -0.1174
   17MOL0     C 2148   6.805  10.317   6.179  0.3155 -0.5933  0.6346
   17MOL0     C 2149   6.743  10.412   6.285 -0.1163 -0.4928 -0.2951
   17MOL0     C 2150   6.794  10.556   6.280 -0.6954 -0.3447  0.0155
   17MOL0     C 2151   6.752  10.629   6.158 -0.4256  0.2087  0.1363
   17MOL0     C 2152   6.801  10.775   6.186 -0.3700  0.1957  0.0254
   17MOL0     C 2153   6.730  10.855   6.296  0.9956 -0.6886 -0.5556
   17MOL0     C 2154   6.778  10.999   6.284  0.1295 -0.0960  0.0793
   17MOL0     C 2155   6.725  11.084   6.399  0.1327  0.0350  0.4792
   17MOL0    Cl 2156   6.807  11.018   6.546 -0.2059 -0.2017 -0.1733
   17MOL0     C 2157   7.167  10.277   6.178 -0.0573 -0.1735  0.4266
   17MOL0     C 2158   7.274  10.199   6.112  0.1600 -0.6695 -0.4270
   17MOL0     O 2159   7.435   9.952   6.172 -0.2725  0.1813 -0.2431
   17MOL0     C 2160   7.645   9.812   6.073  0.3554  0.1431 -0.9412
   17MOL0     C 2161   7.765   9.766   6.013  0.7616  0.2324  0.3945
   17MOL0     N 2162   8.357   9.436   5.930  0.8794 -1.2282  0.0149
   17MOL0     N 2163   8.468   9.376   5.921  0.5393  0.7602  0.2741
   17MOL0     C 2164   8.232   8.559   5.478  0.8587 -0.1746 -0.4091
   17MOL0     C 2165   8.094   8.535   5.480 -0.3113 -0.1326 -0.0785
   17MOL0     C 2166   7.700   8.424   5.597  1.0758  0.6724  1.4230
   17MOL0     C 2167   7.627   8.489   5.496 -0.6302 -0.2069 -0.3571
   17MOL0     C 2168   7.490   8.498   5.493  0.2713 -0.1870 -0.5230
   17MOL0     C 2169   7.413   8.426   5.593 -0.7681 -0.8311  0.4947
   17MOL0     O 2170   7.279   8.408   5.597 -0.2286  0.7013  0.6789
   17MOL0     C 2171   7.201   8.409   5.477  0.2775 -0.4275  0.3354
   17MOL0     C 2172   7.056   8.423   5.514  0.3198 -0.3492 -0.1236
   17MOL0     C 2173   6.966   8.403   5.387 -0.5211 -0.3300  0.1237
   17MOL0     C 2174   6.868   8.287   5.416 -0.3575  0.1255  0.4393
   17MOL0     C 2175   6.773   8.273   5.306  0.4499 -0.0630 -0.7423
   17MOL0     C 2176   6.694   8.253   5.224 -0.4091  0.2016  0.8293
   17MOL0     C 2177   7.485   8.370   5.689 -1.5989  0.1803 -0.7894
   17MOL0     C 2178   7.626   8.360   5.695  0.1263  0.0910  0.3190
   17MOL0     H 2179   8.075   8.206   5.470 -0.3066 -0.4054  1.4376
   17MOL0     H 2180   8.337   8.245   5.473  0.3883  1.0281  2.9757
   17MOL0     H 2181   8.475   8.629   5.378  0.7689 -1.0138 -1.3222
   17MOL0     H 2182   8.620   8.571   5.433  0.0759  0.6518 -0.7724
   17MOL0     H 2183   8.622   8.652   5.638 -1.8970 -1.9497  2.3097
   17MOL0     H 2184   8.451   8.655   5.673 -0.1174 -2.0070 -0.9598
   17MOL0     H 2185   8.430   8.851   5.506  0.9868  0.3214 -2.1458
   17MOL0     H 2186   8.599   8.845   5.475 -3.6843  2.1557 -1.6338
   17MOL0     H 2187   8.461   8.913   5.738 -0.5714  2.4494 -2.0447
   17MOL0     H 2188   8.633   8.890   5.721  1.9293  0.9904 -3.2894
   17MOL0     H 2189   8.466   9.101   5.565  1.1311 -0.1583 -1.6057
   17MOL0     H 2190   8.636   9.061   5.542 -1.6894 -1.8457 -1.3729
   17MOL0     H 2191   8.685   9.125   5.773  0.3424 -1.0739 -2.6301
   17MOL0     H 2192   8.522   9.176   5.806 -1.2291 -2.3988 -0.4653
   17MOL0     H 2193   8.705   9.275   5.590 -0.0276  0.5860  0.0878
   17MOL0     H 2194   8.545   9.334   5.584  2.2898  2.0518 -2.7252
   17MOL0     H 2195   8.726   9.483   5.709 -0.0185 -0.6848  0.4613
   17MOL0     H 2196   8.747   9.349   5.819  0.2274 -0.9176 -1.8397
   17MOL0     H 2197   8.516   9.647   5.740  2.3099  1.6751  3.0076
   17MOL0     H 2198   8.303   9.748   5.830 -1.7607  0.6928 -0.9828
   17MOL0     H 2199   8.201   9.661   5.941 -1.5771  1.2514 -0.5851
   17MOL0     H 2200   8.066   9.572   5.771 -0.1375  2.3136  0.6368
   17MOL0     H 2201   8.204   9.568   5.643  0.2811  3.4452 -2.2016
   17MOL0     H 2202   8.128   9.838   5.709 -0.9444  0.4654  1.3552
   17MOL0     H 2203   8.100   9.750   5.560 -0.2199  1.1584 -0.0500
   17MOL0     H 2204   7.904   9.635   5.641 -0.6502  0.7840 -0.7948
   17MOL0     H 2205   7.891   9.816   5.644  0.7631  0.1833  0.4022
   17MOL0     H 2206   7.681   9.799   5.684 -1.3692  2.2469  0.2906
   17MOL0     H 2207   7.481   9.889   5.779  0.5588  1.0703 -0.0847
   17MOL0     H 2208   7.077   9.981   5.964  0.7340 -1.6371  2.1122
   17MOL0     H 2209   6.899  10.110   6.058  0.2085  0.8696 -1.8312
   17MOL0     H 2210   6.749  10.231   6.217 -2.3019  2.2199  3.8116
   17MOL0     H 2211   6.781  10.354   6.079 -1.4978 -1.6380  0.6505
   17MOL0     H 2212   6.750  10.366   6.384 -1.6871 -0.2001 -0.0252
   17MOL0     H 2213   6.635  10.422   6.271 -0.4933 -0.5918  2.1544
   17MOL0     H 2214   6.903  10.564   6.286 -0.6716 -1.0621  0.5794
   17MOL0     H 2215   6.758  10.606   6.371  1.1902  0.1441  0.5461
   17MOL0     H 2216   6.800  10.589   6.068 -2.9595 -0.9390 -0.7875
   17MOL0     H 2217   6.646  10.604   6.148 -0.1506 -0.3003 -1.9924
   17MOL0     H 2218   6.785  10.834   6.096 -3.0684  0.3254  0.5244
   17MOL0     H 2219   6.908  10.775   6.209  0.2400  3.2217 -2.2207
   17MOL0     H 2220   6.735  10.800   6.390 -0.7125 -2.1898 -1.2750
   17MOL0     H 2221   6.622  10.868   6.293  1.0722  0.7682  1.3049
   17MOL0     H 2222   6.887  11.012   6.278  0.0006  0.2818 -2.3938
   17MOL0     H 2223   6.740  11.048   6.194  2.1833 -0.8304 -1.2655
   17MOL0     H 2224   6.622  11.057   6.422 -0.1753 -0.6287 -1.4875
   17MOL0     H 2225   6.735  11.192   6.382 -0.2168 -0.0470 -0.2907
   17MOL0     H 2226   7.189  10.358   6.246 -0.4529 -0.8670  1.4013
   17MOL0     H 2227   7.377  10.230   6.124  0.4414 -0.4963 -2.8042
   17MOL0     H 2228   7.645   9.808   6.182  1.4780  0.8049 -0.8983
   17MOL0     H 2229   7.842   9.747   6.086 -0.1975  2.2842  2.0705
   17MOL0     H 2230   8.256   8.665   5.476  0.2882 -0.0540 -1.7320
   17MOL0     H 2231   8.025   8.618   5.490  0.8097  1.1966 -2.5264
   17MOL0     H 2232   7.684   8.545   5.423 -1.5219  0.5974 -0.4661
   17MOL0     H 2233   7.432   8.560   5.425 -3.1552 -3.4752 -0.9199
   17MOL0     H 2234   7.219   8.316   5.422  0.2822  0.7446 -1.7915
   17MOL0     H 2235   7.221   8.498   5.415 -0.7844 -0.2497  0.2256
   17MOL0     H 2236   7.042   8.350   5.594 -0.7692  0.9833  0.9567
   17MOL0     H 2237   7.020   8.520   5.550 -2.9938 -0.1094 -3.4544
   17MOL0     H 2238   7.040   8.377   5.310  1.6817  0.7482  1.7794
   17MOL0     H 2239   6.908   8.486   5.345 -1.7146 -1.8730 -1.4427
   17MOL0     H 2240   6.916   8.190   5.434 -0.5236 -0.0232  0.1029
   17MOL0     H 2241   6.814   8.303   5.510  0.8577 -0.9506  1.3498
   17MOL0     H 2242   6.615   8.237   5.153 -0.0364 -0.2589  0.5109
   17MOL0     H 2243   7.426   8.310   5.758 -0.7064  1.7427  1.4375
   17MOL0     H 2244   7.682   8.309   5.773  0.9683  1.0134  0.3463
   18MOL0     O 2245   8.690   0.632   0.261 -0.3457  0.1042  0.3922
   18MOL0     C 2246   8.666   0.511   0.267  0.0816 -0.2828 -0.0142
   18MOL0     O 2247   8.548   0.459   0.307  0.4536  0.0868  0.4165
   18MOL0     C 2248   8.436   0.532   0.336  1.0464  0.8201 -0.3177
   18MOL0     C 2249   8.340   0.470   0.424 -0.1554  0.3640  0.0305
   18MOL0     C 2250   8.215   0.530   0.440  0.1084 -0.0345 -0.4834
   18MOL0     C 2251   8.186   0.657   0.383  0.1961  0.0845 -0.0124
   18MOL0     O 2252   8.074   0.732   0.409 -0.4009  0.1540  0.6207
   18MOL0     C 2253   7.972   0.675   0.491  0.0045  0.1426 -0.3343
   18MOL0     C 2254   7.862   0.778   0.499  0.0823  0.2346  0.3066
   18MOL0     C 2255   7.740   0.734   0.591 -0.8904  0.4598  0.3725
   18MOL0     C 2256   7.602   0.741   0.510 -0.5380  0.7410  0.3017
   18MOL0     C 2257   7.484   0.663   0.571  0.0268  0.3317 -0.4841
   18MOL0     C 2258   7.409   0.755   0.668  0.3101  0.2381  0.4079
   18MOL0     C 2259   7.291   0.682   0.726  0.2092  0.1752  0.4327
   18MOL0     C 2260   7.172   0.672   0.629  0.1812 -0.5376  0.1618
   18MOL0     N 2261   7.048   0.636   0.694  0.9194 -0.4414  0.0615
   18MOL0     C 2262   7.001   0.514   0.734  0.1961  0.0430  0.5090
   18MOL0     C 2263   6.870   0.530   0.773 -0.1703  0.4713  0.2014
   18MOL0     C 2264   6.773   0.431   0.820 -0.2703  0.5901 -0.9166
   18MOL0     C 2265   6.718   0.337   0.703  0.1282 -0.9244  0.0362
   18MOL0     C 2266   6.637   0.216   0.750  0.0404  0.1567 -0.4266
   18MOL0     C 2267   6.517   0.254   0.834  0.5648  0.1339 -0.3676
   18MOL0     O 2268   6.421   0.338   0.763  0.1653  0.0695  0.7941
   18MOL0     C 2269   6.297   0.349   0.821 -0.0689  0.2153 -0.5774
   18MOL0     C 2270   6.256   0.299   0.940 -0.4933 -0.1087  0.4066
   18MOL0     C 2271   6.138   0.320   0.995  0.7698 -0.5062 -0.0014
   18MOL0     C 2272   6.041   0.397   0.918  0.4921  0.0275  0.3807
   18MOL0     C 2273   5.906   0.416   0.972 -0.6132  0.6947  1.8194
   18MOL0     O 2274   5.856   0.543   0.955  0.4505 -0.4678 -0.0048
   18MOL0     C 2275   5.731   0.566   0.991 -0.1502  0.5842  0.3298
   18MOL0     C 2276   5.632   0.558   0.897  0.2548  0.5938 -0.6459
   18MOL0     C 2277   5.500   0.584   0.920  0.3578 -1.2625  0.2577
   18MOL0     C 2278   5.460   0.619   1.042  0.0645  0.0236 -0.1096
   18MOL0     O 2279   5.330   0.655   1.064  0.6471 -0.2823 -0.3192
   18MOL0     C 2280   5.276   0.560   1.156  0.6891 -0.6017 -0.0891
   18MOL0     C 2281   5.126   0.589   1.174 -0.4449 -1.1620  0.0796
   18MOL0     C 2282   5.042   0.461   1.179  0.2269 -0.6954  0.0166
   18MOL0     C 2283   4.902   0.499   1.197  0.5725  0.1137  0.3348
   18MOL0     C 2284   4.820   0.396   1.276  0.1764  0.2928 -0.2924
   18MOL0     C 2285   4.785   0.269   1.194 -0.2291 -0.4001 -0.2853
   18MOL0     C 2286   4.660   0.203   1.251  0.4672 -0.1290  0.2783
   18MOL0     C 2287   4.608   0.117   1.141 -0.4795  0.6490 -0.3918
   18MOL0    Cl 2288   4.473   0.028   1.205  0.0381  0.2247  0.2304
   18MOL0     C 2289   5.558   0.642   1.138 -0.6526  0.1410 -0.2871
   18MOL0     C 2290   5.693   0.612   1.117 -0.0213 -0.5145  0.2754
   18MOL0     O 2291   5.844   0.319   0.998  0.1971  0.3255 -0.4037
   18MOL0     C 2292   6.078   0.460   0.800  0.2834 -0.0983 -0.1559
   18MOL0     C 2293   6.206   0.433   0.751  1.2181  0.3996  0.4446
   18MOL0     N 2294   6.860   0.666   0.787  0.1199 -0.0171  0.8422
   18MOL0     N 2295   6.961   0.727   0.734  0.3446 -0.1246 -0.1888
   18MOL0     C 2296   8.285   0.716   0.306  0.1754 -0.7736 -0.1361
   18MOL0     C 2297   8.404   0.659   0.282 -0.4129  0.0045  0.1166
   18MOL0     C 2298   8.761   0.419   0.223 -1.3866  0.3058  0.4823
   18MOL0     C 2299   8.781   0.297   0.289  0.0131 -0.0395 -0.2797
   18MOL0     C 2300   8.876   0.213   0.233  0.3874  0.7657  1.0124
   18MOL0     C 2301   8.962   0.240   0.126 -0.0820 -0.1510 -0.1199
   18MOL0     O 2302   9.058   0.149   0.091 -0.0991  0.2997  0.0909
   18MOL0     C 2303   9.114   0.142  -0.045  0.7259  0.4754  0.8288
   18MOL0     C 2304   9.236   0.054  -0.036  0.7536  0.9539  0.4017
   18MOL0     C 2305   9.345   0.076  -0.140 -0.4075  0.4280  0.0933
   18MOL0     C 2306   9.466  -0.012  -0.114  0.6108  0.1633  0.3861
   18MOL0     C 2307   9.541   0.015   0.007  0.2022 -0.4068 -0.7161
   18MOL0     C 2308   9.582   0.026   0.119  0.4124  0.1821  0.3062
   18MOL0     C 2309   8.950   0.365   0.066 -0.0065 -0.3328  0.5047
   18MOL0     C 2310   8.846   0.447   0.115 -0.6355 -0.2404 -1.2423
   18MOL0     H 2311   8.369   0.378   0.475 -1.7796  0.0879  0.5188
   18MOL0     H 2312   8.149   0.472   0.503  2.8521 -0.3622  2.3279
   18MOL0     H 2313   8.016   0.665   0.591 -2.2278 -1.2441  0.5936
   18MOL0     H 2314   7.940   0.578   0.452 -1.1506  1.1428 -2.0256
   18MOL0     H 2315   7.827   0.803   0.398 -0.0886  1.0878  0.5680
   18MOL0     H 2316   7.910   0.869   0.535  1.4802  0.5952 -2.2423
   18MOL0     H 2317   7.737   0.811   0.668 -0.2777  2.4109 -1.4259
   18MOL0     H 2318   7.754   0.633   0.630  1.7655  0.1206 -1.1802
   18MOL0     H 2319   7.574   0.846   0.497  0.4653  0.8384 -1.2023
   18MOL0     H 2320   7.615   0.707   0.407 -0.3793 -1.0598  0.8766
   18MOL0     H 2321   7.526   0.587   0.637  0.4463  2.4252  1.7950
   18MOL0     H 2322   7.421   0.620   0.492 -1.2594 -0.3440  0.8494
   18MOL0     H 2323   7.377   0.841   0.610 -1.1196 -1.3686 -1.3325
   18MOL0     H 2324   7.491   0.766   0.740  1.8382  0.7346 -1.3514
   18MOL0     H 2325   7.303   0.581   0.766 -3.0609 -0.6851 -0.4659
   18MOL0     H 2326   7.258   0.740   0.813  0.4829  0.3558  0.4157
   18MOL0     H 2327   7.194   0.592   0.556 -0.7709  0.7057 -1.5662
   18MOL0     H 2328   7.158   0.766   0.576  4.3104  0.4027  0.3779
   18MOL0     H 2329   7.053   0.419   0.720 -0.0760 -0.1520  0.8050
   18MOL0     H 2330   6.698   0.477   0.885  1.3941  0.1506  1.4239
   18MOL0     H 2331   6.825   0.371   0.894 -0.8803 -0.1937 -1.1073
   18MOL0     H 2332   6.806   0.305   0.646 -0.0821 -2.8440  0.7064
   18MOL0     H 2333   6.652   0.405   0.649  2.9278  0.6682 -1.6554
   18MOL0     H 2334   6.621   0.150   0.664  1.5184 -2.9216  1.4866
   18MOL0     H 2335   6.700   0.151   0.811  1.6300  1.1763 -0.9282
   18MOL0     H 2336   6.558   0.297   0.926  0.8959  3.9138 -2.0782
   18MOL0     H 2337   6.467   0.161   0.862 -2.8630  2.5299  2.2438
   18MOL0     H 2338   6.334   0.261   1.005  0.9211  1.3572 -0.3816
   18MOL0     H 2339   6.119   0.292   1.097 -1.4202 -0.0096 -0.2232
   18MOL0     H 2340   5.671   0.522   0.802 -1.3221  1.8913 -1.8235
   18MOL0     H 2341   5.423   0.561   0.847 -0.3068 -1.0950  0.9022
   18MOL0     H 2342   5.324   0.564   1.255  2.8576 -2.4336 -0.9756
   18MOL0     H 2343   5.283   0.461   1.110 -0.8312 -0.8640  0.1894
   18MOL0     H 2344   5.096   0.634   1.079 -1.5626 -6.1867 -2.2628
   18MOL0     H 2345   5.106   0.655   1.259 -2.0907 -0.2194 -0.9692
   18MOL0     H 2346   5.072   0.401   1.265 -0.1104 -0.7907  0.0698
   18MOL0     H 2347   5.053   0.411   1.082  2.4717  1.6439 -1.0438
   18MOL0     H 2348   4.893   0.596   1.247 -1.7553  1.3178 -2.1371
   18MOL0     H 2349   4.870   0.511   1.093  0.1407 -1.4574  0.2686
   18MOL0     H 2350   4.731   0.446   1.317  1.3173  2.2533 -0.0664
   18MOL0     H 2351   4.859   0.356   1.370 -4.6510 -0.0900  1.8463
   18MOL0     H 2352   4.871   0.202   1.184  0.8331  0.6224  1.4268
   18MOL0     H 2353   4.764   0.304   1.093  1.3165 -0.9134 -0.8098
   18MOL0     H 2354   4.697   0.141   1.333 -1.5722 -1.6607  0.1354
   18MOL0     H 2355   4.590   0.275   1.294  2.2408  1.7297  0.2099
   18MOL0     H 2356   4.686   0.043   1.119 -0.0452  0.7856  0.6477
   18MOL0     H 2357   4.575   0.175   1.054 -0.1433  2.7460  0.8012
   18MOL0     H 2358   5.527   0.695   1.227  0.4684 -0.7947  0.6835
   18MOL0     H 2359   5.771   0.637   1.188 -1.1929  4.3265  0.1694
   18MOL0     H 2360   6.003   0.521   0.750 -0.4916 -0.8120  0.1122
   18MOL0     H 2361   6.237   0.477   0.656 -1.5958  1.5574 -0.0515
   18MOL0     H 2362   8.264   0.818   0.277  2.3934 -0.4853 -0.8815
   18MOL0     H 2363   8.479   0.701   0.215  0.1986 -2.4026 -0.7994
   18MOL0     H 2364   8.718   0.276   0.374  0.7570  1.2864  0.6326
   18MOL0     H 2365   8.898   0.114   0.272  1.0928  1.7103  3.1716
   18MOL0     H 2366   9.146   0.237  -0.089 -0.2201 -0.1379 -1.3720
   18MOL0     H 2367   9.044   0.103  -0.120 -1.0826  1.2990  2.0081
   18MOL0     H 2368   9.279   0.077   0.061 -0.5551 -0.2968  1.3189
   18MOL0     H 2369   9.205  -0.051  -0.040  1.8558  0.5845  1.2923
   18MOL0     H 2370   9.385   0.177  -0.151 -1.3512  0.8466  0.3983
   18MOL0     H 2371   9.312   0.038  -0.238  0.8927  2.4311 -1.1974
   18MOL0     H 2372   9.429  -0.114  -0.101  1.6320 -0.2386  0.1718
   18MOL0     H 2373   9.535  -0.011  -0.199 -0.5958 -2.7944 -0.7566
   18MOL0     H 2374   9.628   0.039   0.215 -0.8865 -0.5909  1.0683
   18MOL0     H 2375   9.010   0.394  -0.019  1.1707 -2.4136  0.5576
   18MOL0     H 2376   8.825   0.537   0.057 -0.8093  1.3842  1.1886
   19MOL0     O 2377   7.824   8.341   0.008 -0.9791 -0.7242 -0.0296
   19MOL0     C 2378   7.878   8.447   0.047  0.5519 -0.3826  0.3608
   19MOL0     O 2379   7.816   8.565   0.073 -0.0837  0.4296  0.1570
   19MOL0     C 2380   7.696   8.568  -0.003 -0.0505 -0.1286 -0.2747
   19MOL0     C 2381   7.572   8.535   0.045 -0.2043 -0.3595 -0.2157
   19MOL0     C 2382   7.466   8.537  -0.047  0.6510 -0.2237 -0.7222
   19MOL0     C 2383   7.469   8.586  -0.178 -0.0690 -0.1552 -0.5804
   19MOL0     O 2384   7.347   8.611  -0.243  0.4555  1.1610  0.1404
   19MOL0     C 2385   7.310   8.749  -0.250  0.7499 -0.3179  0.1585
   19MOL0     C 2386   7.170   8.769  -0.320 -0.2845  0.3973 -0.1645
   19MOL0     C 2387   7.131   8.915  -0.321  0.5480 -0.1680  1.2925
   19MOL0     C 2388   6.985   8.934  -0.376 -0.2326 -0.1335 -0.2255
   19MOL0     C 2389   6.967   8.862  -0.513  0.0678  0.3862 -0.8980
   19MOL0     C 2390   6.829   8.913  -0.569  0.4074  0.5094  0.1282
   19MOL0     C 2391   6.805   8.848  -0.712 -0.0951 -0.0072  0.3294
   19MOL0     C 2392   6.672   8.900  -0.775 -0.2414  0.6171 -0.0058
   19MOL0     N 2393   6.561   8.839  -0.711  0.1799  0.3127 -1.0028
   19MOL0     C 2394   6.496   8.717  -0.733  0.3549 -0.3060  0.0935
   19MOL0     C 2395   6.373   8.743  -0.680 -0.5786  0.0732  0.1114
   19MOL0     C 2396   6.250   8.655  -0.699  0.5265  0.6812  0.1967
   19MOL0     C 2397   6.178   8.686  -0.836 -0.2824  0.5817 -0.2038
   19MOL0     C 2398   6.035   8.634  -0.830 -0.1953  0.5303 -0.4614
   19MOL0     C 2399   5.941   8.689  -0.716  0.0691 -0.2194 -0.4521
   19MOL0     O 2400   5.814   8.632  -0.747  0.1623  0.2178  0.8518
   19MOL0     C 2401   5.702   8.697  -0.709 -0.4540  0.3727  0.7275
   19MOL0     C 2402   5.685   8.793  -0.610 -0.0607 -0.1148  0.5048
   19MOL0     C 2403   5.557   8.831  -0.573 -0.1947 -0.1988  0.5488
   19MOL0     C 2404   5.441   8.771  -0.626 -0.4167  1.0029 -0.2892
   19MOL0     C 2405   5.314   8.789  -0.563 -0.3744 -0.7452  0.1531
   19MOL0     O 2406   5.200   8.737  -0.630  0.3639  0.4875 -0.7672
   19MOL0     C 2407   5.073   8.761  -0.595  0.3157 -0.0442 -0.2076
   19MOL0     C 2408   5.040   8.781  -0.462  0.5005 -0.8895 -0.4604
   19MOL0     C 2409   4.905   8.811  -0.426  0.3355  1.2101  0.7467
   19MOL0     C 2410   4.803   8.807  -0.513  1.1761  0.0606 -0.2344
   19MOL0     O 2411   4.677   8.834  -0.464  0.0003  0.6017  0.2557
   19MOL0     C 2412   4.568   8.842  -0.562  0.5535 -0.5622 -0.3360
   19MOL0     C 2413   4.445   8.882  -0.482 -0.2409 -0.4561 -1.4470
   19MOL0     C 2414   4.313   8.875  -0.558 -0.2447 -0.0672  0.4804
   19MOL0     C 2415   4.257   8.740  -0.556  1.3788  0.6804  0.3731
   19MOL0     C 2416   4.113   8.744  -0.611  0.7423 -0.3750 -0.2579
   19MOL0     C 2417   4.060   8.602  -0.613  0.1747  0.9024 -0.1303
   19MOL0     C 2418   3.923   8.615  -0.687  0.3614  0.5301  0.3895
   19MOL0     C 2419   3.857   8.475  -0.698 -0.6979 -0.1314  0.1898
   19MOL0    Cl 2420   3.816   8.424  -0.537 -0.2194 -0.1864  0.1291
   19MOL0     C 2421   4.843   8.783  -0.641  0.1993  0.0508 -0.0696
   19MOL0     C 2422   4.972   8.750  -0.686  0.8291  0.1263  0.2557
   19MOL0     O 2423   5.313   8.869  -0.471  0.2415 -0.3250  0.1908
   19MOL0     C 2424   5.461   8.672  -0.718 -0.1806 -0.0062  0.2216
   19MOL0     C 2425   5.587   8.641  -0.753 -0.2126  0.3378 -0.3978
   19MOL0     N 2426   6.365   8.867  -0.630 -1.7858  0.4278 -0.4684
   19MOL0     N 2427   6.477   8.918  -0.641  0.1457 -0.5445 -0.4574
   19MOL0     C 2428   7.601   8.625  -0.225 -1.2717 -0.4233 -0.2630
   19MOL0     C 2429   7.711   8.613  -0.135 -0.4410  0.1049  0.3147
   19MOL0     C 2430   8.027   8.458   0.055 -0.0382  0.5658 -0.3715
   19MOL0     C 2431   8.097   8.574   0.019 -0.1587  0.1272 -0.8576
   19MOL0     C 2432   8.228   8.589   0.036 -0.7880 -0.6033  0.9471
   19MOL0     C 2433   8.306   8.489   0.083 -0.2989 -0.1960 -0.4812
   19MOL0     O 2434   8.441   8.509   0.087 -0.6618  0.7513 -0.6108
   19MOL0     C 2435   8.516   8.399   0.137 -0.3776  0.0142 -0.6287
   19MOL0     C 2436   8.654   8.460   0.184  0.4735  0.0637  0.0438
   19MOL0     C 2437   8.732   8.533   0.068  0.3476 -0.4341 -0.6256
   19MOL0     C 2438   8.834   8.645   0.132  0.3287  0.5961 -0.0686
   19MOL0     C 2439   8.885   8.721   0.018 -0.5403 -1.1741  0.0351
   19MOL0     C 2440   8.913   8.793  -0.073  0.1216  1.0963 -0.5188
   19MOL0     C 2441   8.248   8.367   0.112 -0.3341  0.5380 -0.1026
   19MOL0     C 2442   8.105   8.351   0.101  0.6340  0.0644 -0.4270
   19MOL0     H 2443   7.558   8.508   0.149 -0.5514  0.6452  0.0037
   19MOL0     H 2444   7.368   8.531  -0.002  0.1177  1.3918 -1.5833
   19MOL0     H 2445   7.381   8.813  -0.303  1.5275 -0.6852  0.7456
   19MOL0     H 2446   7.295   8.780  -0.146  1.1870  0.8770 -0.1231
   19MOL0     H 2447   7.092   8.703  -0.279  0.7240  0.6713  2.3978
   19MOL0     H 2448   7.168   8.736  -0.424 -3.9228 -0.7411  0.1199
   19MOL0     H 2449   7.201   8.973  -0.381 -1.6695 -0.9215 -2.2736
   19MOL0     H 2450   7.139   8.940  -0.214  0.4840 -3.7561  2.2744
   19MOL0     H 2451   6.909   8.894  -0.308 -2.4578 -0.9730 -2.9944
   19MOL0     H 2452   6.982   9.043  -0.378  2.2732  0.0033 -1.8282
   19MOL0     H 2453   6.960   8.754  -0.499 -0.3993  0.6741  1.7332
   19MOL0     H 2454   7.054   8.895  -0.572 -1.9375  0.2702 -4.1235
   19MOL0     H 2455   6.854   9.020  -0.575 -1.0102  0.9516  1.2990
   19MOL0     H 2456   6.741   8.893  -0.507 -0.5225  1.7358 -0.7394
   19MOL0     H 2457   6.887   8.884  -0.776  2.2384 -1.2397  2.4603
   19MOL0     H 2458   6.807   8.739  -0.707 -1.9200 -0.1898 -1.5453
   19MOL0     H 2459   6.687   8.864  -0.877 -0.7071  0.3224  0.0297
   19MOL0     H 2460   6.663   9.009  -0.774  0.2432  0.6585  0.6050
   19MOL0     H 2461   6.528   8.640  -0.803  2.1831  0.9788 -0.5818
   19MOL0     H 2462   6.178   8.655  -0.618 -1.0271  0.6813 -1.1409
   19MOL0     H 2463   6.282   8.550  -0.699 -0.5942  0.3191  1.4648
   19MOL0     H 2464   6.242   8.638  -0.911  2.3862 -0.2144  2.3626
   19MOL0     H 2465   6.186   8.794  -0.849  0.5840  0.6877  0.9572
   19MOL0     H 2466   5.988   8.669  -0.923 -2.5309 -1.9977 -0.3800
   19MOL0     H 2467   6.025   8.525  -0.834  1.4109  0.3831 -1.3804
   19MOL0     H 2468   5.946   8.799  -0.717 -1.1225 -0.1506 -1.3214
   19MOL0     H 2469   5.963   8.650  -0.617 -1.8697 -1.1738 -0.3495
   19MOL0     H 2470   5.779   8.829  -0.569  1.4040 -0.2266 -2.4736
   19MOL0     H 2471   5.544   8.893  -0.485 -0.6606 -0.9960  1.0652
   19MOL0     H 2472   5.099   8.778  -0.371 -2.7530  0.9384  1.9081
   19MOL0     H 2473   4.889   8.816  -0.319  1.2428 -0.7371  1.0139
   19MOL0     H 2474   4.558   8.738  -0.593  3.0539 -0.5357 -1.4388
   19MOL0     H 2475   4.583   8.907  -0.648 -4.6172  0.3907 -0.8220
   19MOL0     H 2476   4.461   8.984  -0.444 -1.9085 -1.2121  1.7121
   19MOL0     H 2477   4.451   8.820  -0.392  1.3357  1.2365 -0.3070
   19MOL0     H 2478   4.314   8.909  -0.662 -2.4598  0.5300  0.6116
   19MOL0     H 2479   4.239   8.940  -0.512 -3.0208 -3.4078  1.1794
   19MOL0     H 2480   4.313   8.674  -0.622 -0.1982 -1.1770  0.8005
   19MOL0     H 2481   4.258   8.687  -0.460 -0.8537 -1.4318 -0.6708
   19MOL0     H 2482   4.121   8.777  -0.715  1.5917 -3.9494 -1.4510
   19MOL0     H 2483   4.044   8.812  -0.559 -0.2484  0.0548 -2.0445
   19MOL0     H 2484   4.045   8.576  -0.508  2.9670  0.5437  0.2565
   19MOL0     H 2485   4.134   8.529  -0.647  1.8032  2.6239 -0.4528
   19MOL0     H 2486   3.854   8.680  -0.633 -0.1468  0.3362 -0.0233
   19MOL0     H 2487   3.932   8.658  -0.787 -1.4305 -2.8604 -1.4013
   19MOL0     H 2488   3.919   8.409  -0.759  0.4439  2.1135 -1.2128
   19MOL0     H 2489   3.764   8.480  -0.756 -2.7413 -0.0445  3.2546
   19MOL0     H 2490   4.765   8.770  -0.715 -0.9995 -1.0171  1.3320
   19MOL0     H 2491   4.977   8.729  -0.792 -0.7682 -0.3326  0.2531
   19MOL0     H 2492   5.378   8.611  -0.753 -1.6094  0.9021  1.8399
   19MOL0     H 2493   5.609   8.553  -0.814  1.0992  2.1488 -2.7193
   19MOL0     H 2494   7.620   8.663  -0.325  1.3995 -2.8953 -0.8189
   19MOL0     H 2495   7.807   8.641  -0.176 -0.7904  0.7725 -0.0529
   19MOL0     H 2496   8.042   8.655  -0.027 -1.3802  0.0686  0.4371
   19MOL0     H 2497   8.279   8.677  -0.002  2.0703 -2.1585  0.9574
   19MOL0     H 2498   8.527   8.313   0.071  1.8465  1.7080 -2.5965
   19MOL0     H 2499   8.462   8.357   0.223 -0.3384  0.6321 -0.2884
   19MOL0     H 2500   8.643   8.529   0.268 -1.7145 -0.8149  0.5488
   19MOL0     H 2501   8.718   8.374   0.207 -1.2733 -1.5806 -0.9860
   19MOL0     H 2502   8.657   8.581   0.005 -0.7008 -0.0468  0.8712
   19MOL0     H 2503   8.781   8.462   0.000  1.0578 -0.0690 -0.5098
   19MOL0     H 2504   8.782   8.701   0.210  0.2711 -2.2675  2.1089
   19MOL0     H 2505   8.919   8.604   0.187 -1.0381  2.7555  4.1150
   19MOL0     H 2506   8.935   8.864  -0.150 -0.2787  1.1847 -0.5526
   19MOL0     H 2507   8.293   8.277   0.152  0.5886 -0.0766 -2.3714
   19MOL0     H 2508   8.045   8.261   0.109 -0.8514  1.1410  1.4228
   20MOL0     O 2509   4.076   4.232   7.076 -0.0133  0.3825  0.4869
   20MOL0     C 2510   3.978   4.295   7.053  0.2911 -0.0594 -0.2947
   20MOL0     O 2511   3.947   4.416   7.109 -0.0014  0.0099  0.3032
   20MOL0     C 2512   4.044   4.483   7.190  0.3610  0.3643  0.3431
   20MOL0     C 2513   4.183   4.492   7.160  0.3860  0.4388 -1.1514
   20MOL0     C 2514   4.265   4.576   7.234  0.4259 -0.0068 -0.3683
   20MOL0     C 2515   4.208   4.661   7.336 -0.1988  0.6511 -0.6180
   20MOL0     O 2516   4.271   4.760   7.410 -0.1143  0.0202 -0.4799
   20MOL0     C 2517   4.409   4.746   7.444  0.5514 -0.1048  0.1761
   20MOL0     C 2518   4.422   4.838   7.562 -0.0200 -0.5257 -0.5469
   20MOL0     C 2519   4.576   4.851   7.597  0.0636  0.0321  0.2290
   20MOL0     C 2520   4.595   4.934   7.725 -1.1241 -0.0290 -1.0841
   20MOL0     C 2521   4.733   4.935   7.797 -0.5559 -0.3188 -0.6553
   20MOL0     C 2522   4.823   5.044   7.747 -0.0387 -0.3569 -0.0623
   20MOL0     C 2523   4.933   5.064   7.847  0.2918 -0.3995  0.0039
   20MOL0     C 2524   4.884   5.142   7.962  0.2155  0.2172  0.0771
   20MOL0     N 2525   5.001   5.188   8.041 -0.4489  0.5401  0.8220
   20MOL0     C 2526   5.040   5.126   8.163 -0.0236 -0.4138  0.2984
   20MOL0     C 2527   5.150   5.198   8.191  0.0331  0.2429 -0.5997
   20MOL0     C 2528   5.252   5.174   8.305  0.0906 -0.0904  0.5716
   20MOL0     C 2529   5.196   5.083   8.420 -0.5413  0.5304 -0.5100
   20MOL0     C 2530   5.090   5.141   8.511 -0.0614  0.2166 -0.1924
   20MOL0     C 2531   5.025   5.052   8.611 -0.0089 -0.4485 -0.1689
   20MOL0     O 2532   4.968   4.941   8.548 -0.4466  0.0348  0.9702
   20MOL0     C 2533   4.860   4.965   8.457 -0.3923  0.0290  0.6073
   20MOL0     C 2534   4.779   5.084   8.450  0.3040 -0.0725  0.8734
   20MOL0     C 2535   4.670   5.089   8.355  0.0245 -0.3182  0.4887
   20MOL0     C 2536   4.645   4.984   8.271 -0.6920  0.3533  1.2211
   20MOL0     C 2537   4.530   4.999   8.163  1.0776  0.1936  0.0227
   20MOL0     O 2538   4.490   5.127   8.138  0.5033  0.2193 -0.1356
   20MOL0     C 2539   4.400   5.156   8.045 -1.0065  0.0846  0.4469
   20MOL0     C 2540   4.449   5.199   7.918 -0.3346  0.6935  0.1608
   20MOL0     C 2541   4.363   5.219   7.808 -0.1350  0.8257  0.4706
   20MOL0     C 2542   4.228   5.184   7.818 -0.0862  0.6747 -0.5482
   20MOL0     O 2543   4.142   5.186   7.716 -0.8434 -0.0479  0.5703
   20MOL0     C 2544   4.186   5.216   7.579 -0.3940  0.4727 -1.3056
   20MOL0     C 2545   4.074   5.205   7.484 -0.1634 -1.1123  0.2165
   20MOL0     C 2546   4.024   5.066   7.492 -0.2201  0.8534  0.4048
   20MOL0     C 2547   3.904   5.038   7.403 -1.4560 -0.7157 -1.0055
   20MOL0     C 2548   3.776   5.062   7.478  0.0909 -0.4996  0.4022
   20MOL0     C 2549   3.661   5.015   7.388  0.5846 -0.2343  0.1310
   20MOL0     C 2550   3.533   4.976   7.473 -0.2111 -1.0538 -0.5730
   20MOL0     C 2551   3.428   4.894   7.409  0.0831  0.3282 -0.6187
   20MOL0    Cl 2552   3.489   4.734   7.367  0.5417  0.3191  0.1582
   20MOL0     C 2553   4.179   5.143   7.948 -0.3581  0.1445 -0.1159
   20MOL0     C 2554   4.265   5.126   8.053 -0.2151  0.4825 -1.3300
   20MOL0     O 2555   4.484   4.901   8.113  0.1292 -0.0753  0.2267
   20MOL0     C 2556   4.721   4.867   8.271  0.1000  0.1249 -0.3264
   20MOL0     C 2557   4.824   4.867   8.370 -0.6787  0.5035 -0.4200
   20MOL0     N 2558   5.181   5.295   8.095 -0.1551 -0.4955 -0.1516
   20MOL0     N 2559   5.086   5.298   8.001 -0.0474  0.4256 -0.1526
   20MOL0     C 2560   4.071   4.645   7.369  0.6949 -0.2254  0.4742
   20MOL0     C 2561   3.984   4.561   7.292 -0.1205 -0.1398  0.6003
   20MOL0     C 2562   3.886   4.238   6.956  0.9051  0.3886 -0.0050
   20MOL0     C 2563   3.765   4.306   6.922  0.3824 -0.4110 -0.3957
   20MOL0     C 2564   3.675   4.251   6.835 -0.1501 -0.3918  0.1741
   20MOL0     C 2565   3.702   4.127   6.766 -0.5302  0.0084 -0.8856
   20MOL0     O 2566   3.625   4.075   6.674 -0.4289  0.5317 -0.4549
   20MOL0     C 2567   3.526   3.985   6.724 -0.7196  0.1931 -0.0651
   20MOL0     C 2568   3.565   3.841   6.766  0.3363  0.3064  1.0470
   20MOL0     C 2569   3.607   3.756   6.637 -0.5120  0.0120 -0.8428
   20MOL0     C 2570   3.508   3.762   6.519  0.3531 -0.1686 -0.5074
   20MOL0     C 2571   3.381   3.692   6.547  0.6675 -0.0671  0.1064
   20MOL0     C 2572   3.276   3.634   6.571  0.2160  0.3765  0.4431
   20MOL0     C 2573   3.824   4.063   6.806 -0.9238  0.4050  0.3318
   20MOL0     C 2574   3.909   4.117   6.894  0.3861 -0.0672 -0.2940
   20MOL0     H 2575   4.219   4.423   7.084 -1.2181 -1.7499 -0.0483
   20MOL0     H 2576   4.365   4.581   7.193 -0.1107 -0.7834 -1.8584
   20MOL0     H 2577   4.479   4.784   7.368 -0.9978  0.1421 -1.1789
   20MOL0     H 2578   4.429   4.639   7.459 -1.2982 -0.8624 -2.0966
   20MOL0     H 2579   4.370   4.805   7.652  1.2491 -4.6022 -1.1174
   20MOL0     H 2580   4.386   4.935   7.526  0.5171 -1.0850 -2.7237
   20MOL0     H 2581   4.630   4.902   7.517  1.7314 -2.8399 -0.6260
   20MOL0     H 2582   4.619   4.751   7.610 -0.2152  0.0668  1.5234
   20MOL0     H 2583   4.573   5.040   7.712  1.7138  0.7431 -0.2768
   20MOL0     H 2584   4.528   4.891   7.801  0.4491  0.6064  0.7617
   20MOL0     H 2585   4.781   4.837   7.794  2.2134  0.9494 -2.3879
   20MOL0     H 2586   4.707   4.955   7.902  0.6214 -0.7707 -0.2655
   20MOL0     H 2587   4.758   5.131   7.736 -1.7753 -1.5199  0.5079
   20MOL0     H 2588   4.863   5.031   7.646 -0.5959  1.4228 -0.5465
   20MOL0     H 2589   4.971   4.970   7.888 -0.6515 -0.6383  0.3652
   20MOL0     H 2590   5.008   5.105   7.779  1.2168 -0.2135  1.1038
   20MOL0     H 2591   4.814   5.083   8.022 -1.4771  4.4923  2.7836
   20MOL0     H 2592   4.836   5.235   7.931 -0.0537 -0.4588 -1.6548
   20MOL0     H 2593   4.994   5.049   8.224 -1.5014  0.3886  0.2634
   20MOL0     H 2594   5.277   5.270   8.350 -0.3313  0.3806 -0.1806
   20MOL0     H 2595   5.340   5.128   8.259 -1.8501 -2.6557 -0.8232
   20MOL0     H 2596   5.283   5.060   8.481 -1.1453 -0.4271  0.0228
   20MOL0     H 2597   5.165   4.985   8.381  3.5262 -1.9040  1.7072
   20MOL0     H 2598   5.149   5.212   8.570 -0.2765 -1.0297  1.5681
   20MOL0     H 2599   5.007   5.186   8.456 -0.8527 -0.0163  0.7887
   20MOL0     H 2600   4.954   5.112   8.668  0.4499 -0.8367  0.8243
   20MOL0     H 2601   5.100   5.009   8.678 -0.4016 -1.1311 -0.1596
   20MOL0     H 2602   4.804   5.164   8.518  0.3681  3.0264 -2.5107
   20MOL0     H 2603   4.603   5.174   8.359 -0.3302 -0.5970  0.4636
   20MOL0     H 2604   4.556   5.214   7.908  0.0687 -1.5277  0.5840
   20MOL0     H 2605   4.410   5.256   7.718  0.4657 -0.4219  0.2505
   20MOL0     H 2606   4.263   5.146   7.546  0.2458  1.2303 -1.4594
   20MOL0     H 2607   4.220   5.320   7.581  0.5327  0.1748 -0.4808
   20MOL0     H 2608   4.118   5.221   7.385  0.2322 -1.4842  0.3275
   20MOL0     H 2609   3.990   5.271   7.509 -2.0757 -3.3107 -0.1326
   20MOL0     H 2610   3.981   5.045   7.591  1.7585 -1.3275  0.8928
   20MOL0     H 2611   4.104   4.994   7.473  0.5351  1.9569 -0.6873
   20MOL0     H 2612   3.908   5.100   7.313  1.1849  2.0337  0.8018
   20MOL0     H 2613   3.898   4.934   7.370  0.1279 -1.1307 -0.1111
   20MOL0     H 2614   3.763   5.165   7.511 -0.9173 -0.2990 -0.5387
   20MOL0     H 2615   3.776   4.998   7.567 -0.6921 -2.1194 -0.7063
   20MOL0     H 2616   3.683   4.925   7.329 -1.7738 -0.5673 -0.3750
   20MOL0     H 2617   3.637   5.092   7.314 -1.3703  1.7815  2.6947
   20MOL0     H 2618   3.569   4.940   7.570  3.9258  2.9504 -0.3054
   20MOL0     H 2619   3.495   5.074   7.504  0.7457 -0.9893  0.4700
   20MOL0     H 2620   3.384   4.934   7.317 -0.1834  0.3200 -0.4955
   20MOL0     H 2621   3.350   4.870   7.482  1.8864 -2.5091  0.5566
   20MOL0     H 2622   4.073   5.120   7.952  0.0327 -1.9966 -0.4211
   20MOL0     H 2623   4.235   5.080   8.147 -1.1162  0.4767 -1.6123
   20MOL0     H 2624   4.702   4.779   8.209 -0.7307 -0.1662  0.3092
   20MOL0     H 2625   4.897   4.788   8.364 -0.5753  0.6627 -1.4717
   20MOL0     H 2626   4.028   4.705   7.448 -5.1023 -0.0694 -2.2794
   20MOL0     H 2627   3.878   4.546   7.312 -0.0293 -0.2169  1.0447
   20MOL0     H 2628   3.742   4.399   6.973  2.2176  1.7291 -3.1050
   20MOL0     H 2629   3.579   4.297   6.819 -0.7142 -0.3592  3.0224
   20MOL0     H 2630   3.436   3.988   6.661 -0.1927  1.5277 -0.7853
   20MOL0     H 2631   3.479   4.031   6.811  0.6487  1.5341 -0.0055
   20MOL0     H 2632   3.649   3.841   6.835  2.0464 -0.3106 -0.9206
   20MOL0     H 2633   3.475   3.802   6.815 -2.7457  2.8616 -2.0124
   20MOL0     H 2634   3.615   3.649   6.659  0.9911 -0.0506 -1.5669
   20MOL0     H 2635   3.703   3.791   6.599  0.2772  1.7643  2.4230
   20MOL0     H 2636   3.489   3.870   6.514  3.5545  0.5261 -0.2953
   20MOL0     H 2637   3.552   3.718   6.430  0.3728  0.3303 -0.7499
   20MOL0     H 2638   3.202   3.557   6.583 -0.3131 -0.0069 -3.8305
   20MOL0     H 2639   3.851   3.965   6.768  1.1935 -0.5605  3.8448
   20MOL0     H 2640   4.004   4.066   6.894  0.8943 -0.1294 -7.8091
   21MOL0     O 2641   9.349   7.656   8.579 -0.2628 -0.2377  0.1047
   21MOL0     C 2642   9.346   7.625   8.462  0.5028 -0.1495 -0.5082
   21MOL0     O 2643   9.241   7.623   8.384 -0.0579  0.1392  0.6872
   21MOL0     C 2644   9.114   7.663   8.420  0.4903 -0.0389  0.5262
   21MOL0     C 2645   8.999   7.594   8.361  0.2172  0.6344  0.6194
   21MOL0     C 2646   8.872   7.633   8.405  1.0102 -0.0073 -0.5372
   21MOL0     C 2647   8.846   7.736   8.500 -0.0117  0.5203  0.7804
   21MOL0     O 2648   8.720   7.777   8.539 -0.3502  0.7409  0.6782
   21MOL0     C 2649   8.610   7.772   8.453  0.1341 -0.2440 -0.2086
   21MOL0     C 2650   8.494   7.773   8.548 -0.1157  1.1821  0.5117
   21MOL0     C 2651   8.355   7.777   8.493 -0.9560  0.5194 -0.3654
   21MOL0     C 2652   8.263   7.728   8.598  0.0077 -0.0824  0.5556
   21MOL0     C 2653   8.117   7.726   8.539 -0.8197 -0.7476 -0.1436
   21MOL0     C 2654   8.038   7.667   8.662  0.6992 -0.1638  0.3720
   21MOL0     C 2655   7.888   7.678   8.638 -0.6679 -0.4126 -0.0968
   21MOL0     C 2656   7.809   7.667   8.771  0.1096 -0.8495 -0.0422
   21MOL0     N 2657   7.670   7.715   8.741  0.3714  0.3595  0.1266
   21MOL0     C 2658   7.595   7.758   8.848 -0.0524  0.2148  0.2504
   21MOL0     C 2659   7.494   7.825   8.790  0.2437 -0.6710  0.3198
   21MOL0     C 2660   7.377   7.891   8.851 -0.7465  1.3445  0.4809
   21MOL0     C 2661   7.258   7.785   8.855 -0.4386 -0.4676  0.2576
   21MOL0     C 2662   7.185   7.761   8.726 -0.0038 -0.2992 -0.4062
   21MOL0     C 2663   7.122   7.884   8.659  0.9693  0.1792 -0.2418
   21MOL0     O 2664   7.037   7.960   8.749 -0.3219  0.0204  0.4232
   21MOL0     C 2665   6.903   7.933   8.754  0.4039 -1.0580  0.7717
   21MOL0     C 2666   6.837   7.823   8.688  0.1396 -0.6113 -0.3105
   21MOL0     C 2667   6.695   7.807   8.694 -0.1814  0.3945  0.0263
   21MOL0     C 2668   6.615   7.902   8.764 -0.0813 -0.0422  0.1835
   21MOL0     C 2669   6.470   7.860   8.780  0.7638 -0.8274  0.0569
   21MOL0     O 2670   6.382   7.950   8.724 -0.3272 -0.6979 -0.5202
   21MOL0     C 2671   6.260   7.964   8.767  0.8544  0.1934  0.4391
   21MOL0     C 2672   6.185   8.063   8.697 -0.5463  0.0364  0.0970
   21MOL0     C 2673   6.053   8.099   8.736 -0.7350  0.0441  0.1936
   21MOL0     C 2674   5.986   8.023   8.835 -0.2266  0.3762  0.0948
   21MOL0     O 2675   5.860   8.055   8.886 -0.6423 -0.3605 -0.1327
   21MOL0     C 2676   5.770   8.121   8.799 -0.4084  0.4009 -0.1068
   21MOL0     C 2677   5.629   8.120   8.853  0.2441 -0.0289 -1.1682
   21MOL0     C 2678   5.541   8.181   8.742  0.0920 -0.1570 -0.1228
   21MOL0     C 2679   5.394   8.138   8.774 -0.0441  0.4522  0.1007
   21MOL0     C 2680   5.323   8.210   8.655 -0.1824  0.5577  0.8721
   21MOL0     C 2681   5.180   8.227   8.689  0.6480 -0.1284  0.1981
   21MOL0     C 2682   5.090   8.273   8.582  0.7277 -0.4627 -0.7895
   21MOL0     C 2683   4.973   8.348   8.650 -0.4437 -0.4171  0.0180
   21MOL0    Cl 2684   5.006   8.511   8.723 -0.1516  0.1779 -0.0519
   21MOL0     C 2685   6.061   7.933   8.910 -0.6019 -0.2517 -0.4674
   21MOL0     C 2686   6.193   7.906   8.868 -0.9236 -0.2944 -0.5185
   21MOL0     O 2687   6.442   7.742   8.809 -0.1165  0.3134 -0.4943
   21MOL0     C 2688   6.676   8.008   8.823 -1.2265 -0.3135 -0.1480
   21MOL0     C 2689   6.819   8.021   8.813 -0.0104 -0.1316 -0.0470
   21MOL0     N 2690   7.513   7.812   8.646 -0.0061  0.3589 -0.6089
   21MOL0     N 2691   7.618   7.730   8.623 -0.4564 -0.5750  0.6695
   21MOL0     C 2692   8.954   7.803   8.546  0.3271  0.4511 -0.5513
   21MOL0     C 2693   9.092   7.769   8.507  0.2852 -0.5671  0.9504
   21MOL0     C 2694   9.473   7.610   8.394  0.2065 -0.5865 -0.2277
   21MOL0     C 2695   9.488   7.656   8.264  0.3084  0.0133  1.1748
   21MOL0     C 2696   9.610   7.629   8.192  0.4701 -0.6363 -0.6844
   21MOL0     C 2697   9.715   7.558   8.259 -0.9383 -0.2778 -0.0573
   21MOL0     O 2698   9.845   7.530   8.205  0.8655  0.0583 -0.2250
   21MOL0     C 2699   9.881   7.576   8.077  0.9195 -1.0238 -0.2112
   21MOL0     C 2700   9.925   7.724   8.082 -0.7158  0.0287 -0.0006
   21MOL0     C 2701  10.014   7.763   7.961 -0.3959 -0.2825  0.1560
   21MOL0     C 2702  10.046   7.902   7.917  0.8358 -0.4505 -0.1802
   21MOL0     C 2703  10.097   7.982   8.031 -0.2518  0.4429  0.7430
   21MOL0     C 2704  10.141   8.037   8.132  0.3588  0.4096 -0.5370
   21MOL0     C 2705   9.702   7.528   8.393 -0.0147  0.9249 -1.2771
   21MOL0     C 2706   9.582   7.549   8.459 -0.5227 -0.2271 -0.6759
   21MOL0     H 2707   9.007   7.520   8.282 -1.8620  0.3126  0.6641
   21MOL0     H 2708   8.790   7.586   8.351 -1.6189  3.5083  0.0495
   21MOL0     H 2709   8.610   7.687   8.384 -0.5332  0.0025 -0.5185
   21MOL0     H 2710   8.612   7.867   8.398  3.4586 -1.9349 -3.4561
   21MOL0     H 2711   8.506   7.854   8.621 -1.0944  0.5646  1.3818
   21MOL0     H 2712   8.503   7.679   8.602  1.0531  1.5701  1.0270
   21MOL0     H 2713   8.360   7.700   8.415 -1.9845  0.0734 -0.0046
   21MOL0     H 2714   8.338   7.879   8.455  0.4010  0.2704 -1.7407
   21MOL0     H 2715   8.301   7.631   8.632 -0.2007  0.8816  3.9462
   21MOL0     H 2716   8.266   7.791   8.688  0.9634 -0.7633  1.0243
   21MOL0     H 2717   8.110   7.668   8.447  1.1512  0.0903 -0.8744
   21MOL0     H 2718   8.074   7.825   8.521  1.1334  0.0023 -0.9436
   21MOL0     H 2719   8.062   7.728   8.749 -1.6866  0.4126  0.7085
   21MOL0     H 2720   8.055   7.559   8.675  1.9142 -0.1287 -0.7243
   21MOL0     H 2721   7.868   7.777   8.596 -0.1108 -0.3510 -0.2192
   21MOL0     H 2722   7.857   7.610   8.558 -0.6782  0.3909 -0.7921
   21MOL0     H 2723   7.859   7.739   8.837  3.0142 -1.8539 -0.9820
   21MOL0     H 2724   7.805   7.568   8.818 -1.4847 -0.3077  1.0514
   21MOL0     H 2725   7.602   7.736   8.954 -0.9299  2.5879  0.8633
   21MOL0     H 2726   7.335   7.979   8.803 -5.9834  0.9230  3.4710
   21MOL0     H 2727   7.403   7.918   8.953 -1.1460 -1.9561  1.5959
   21MOL0     H 2728   7.182   7.830   8.919  1.0826  1.7629  0.6116
   21MOL0     H 2729   7.306   7.691   8.884  1.3388  0.1576 -0.4965
   21MOL0     H 2730   7.253   7.719   8.651 -1.1702 -2.2167 -0.4536
   21MOL0     H 2731   7.113   7.680   8.743  1.2907 -1.2650  0.7268
   21MOL0     H 2732   7.072   7.840   8.572 -2.5474 -0.4759  1.9225
   21MOL0     H 2733   7.201   7.946   8.617  1.8292 -1.1517 -0.6611
   21MOL0     H 2734   6.892   7.751   8.629 -0.3970 -1.0209 -0.3154
   21MOL0     H 2735   6.649   7.727   8.637 -1.1033  1.1199 -0.2653
   21MOL0     H 2736   6.239   8.118   8.621  0.4698  1.1421  1.5836
   21MOL0     H 2737   5.994   8.183   8.702 -0.0320  0.0228 -1.1365
   21MOL0     H 2738   5.772   8.074   8.700  3.5183  2.3222 -1.1656
   21MOL0     H 2739   5.795   8.227   8.795  2.0885 -0.1518 -1.1456
   21MOL0     H 2740   5.614   8.182   8.943  2.0922 -0.6701 -0.3798
   21MOL0     H 2741   5.591   8.019   8.870 -1.2528  0.5618 -0.7646
   21MOL0     H 2742   5.567   8.138   8.645 -0.1624 -1.4363  0.3555
   21MOL0     H 2743   5.560   8.287   8.724  2.2083 -0.7822 -2.1104
   21MOL0     H 2744   5.384   8.029   8.781  0.4910  0.4062  0.1564
   21MOL0     H 2745   5.344   8.190   8.856  0.3415  3.4318 -1.4065
   21MOL0     H 2746   5.342   8.163   8.558  2.7138  1.8904  0.7121
   21MOL0     H 2747   5.354   8.314   8.641 -0.1195  0.6126  1.3777
   21MOL0     H 2748   5.157   8.282   8.781 -1.9669 -0.6189 -0.0764
   21MOL0     H 2749   5.147   8.129   8.724  2.6273 -0.0685  2.5065
   21MOL0     H 2750   5.127   8.354   8.518  2.2806  0.3136  0.9788
   21MOL0     H 2751   5.058   8.191   8.518  1.5366 -1.7630  0.4274
   21MOL0     H 2752   4.930   8.286   8.729  0.4721  1.0010  1.6951
   21MOL0     H 2753   4.906   8.353   8.564  1.5800 -1.6793 -1.7426
   21MOL0     H 2754   6.018   7.875   8.991 -0.6751 -0.8885 -0.9565
   21MOL0     H 2755   6.258   7.842   8.927  3.2272  3.0267 -1.0560
   21MOL0     H 2756   6.609   8.083   8.865  0.4110  1.0985  0.0352
   21MOL0     H 2757   6.871   8.106   8.855  1.8577 -2.5375  2.9449
   21MOL0     H 2758   8.939   7.889   8.610 -5.2315 -1.0387  0.6685
   21MOL0     H 2759   9.163   7.821   8.572 -2.7023  1.3807  2.9497
   21MOL0     H 2760   9.399   7.701   8.221 -0.6569  0.3603  3.3807
   21MOL0     H 2761   9.609   7.661   8.088 -1.7369  2.5290  0.1527
   21MOL0     H 2762   9.810   7.551   7.997  0.1627  1.0673 -0.2334
   21MOL0     H 2763   9.968   7.515   8.049  1.5075 -1.2077  1.8904
   21MOL0     H 2764   9.844   7.797   8.093  0.4467  1.4977 -0.7262
   21MOL0     H 2765   9.996   7.743   8.163 -1.0069  1.5718 -0.0675
   21MOL0     H 2766   9.963   7.726   7.871  2.9257  0.9180 -2.4028
   21MOL0     H 2767  10.110   7.713   7.976  1.6012  3.4105  0.8573
   21MOL0     H 2768  10.125   7.890   7.842  1.1166 -2.2570  0.3363
   21MOL0     H 2769   9.951   7.947   7.890  0.2465 -0.8120  1.2152
   21MOL0     H 2770  10.192   8.068   8.222 -2.8117 -0.3204  1.7071
   21MOL0     H 2771   9.787   7.471   8.431  1.8357  3.5913 -1.1399
   21MOL0     H 2772   9.575   7.489   8.550  1.3646 -0.5492 -0.7052
   22MOL0     O 2773   5.620   1.297   2.981  0.4767 -0.7094 -0.3097
   22MOL0     C 2774   5.713   1.244   2.922  0.5637 -0.0446 -1.2814
   22MOL0     O 2775   5.694   1.129   2.852  0.1277  0.5922 -0.2222
   22MOL0     C 2776   5.573   1.080   2.811 -0.4578  0.1981  1.1379
   22MOL0     C 2777   5.576   0.944   2.779  0.6948  0.2306  0.6983
   22MOL0     C 2778   5.466   0.876   2.739  0.2239  0.4585  0.5579
   22MOL0     C 2779   5.340   0.939   2.735  0.3232 -0.6528 -0.1720
   22MOL0     O 2780   5.235   0.851   2.710 -0.0091 -0.0633  0.6650
   22MOL0     C 2781   5.118   0.897   2.645  0.3928  0.1599 -0.9249
   22MOL0     C 2782   5.005   0.903   2.753 -0.3007  0.0270  1.1519
   22MOL0     C 2783   4.881   0.957   2.681  0.6398  1.4058 -0.5543
   22MOL0     C 2784   4.776   0.987   2.796  0.0888  1.2187  0.4841
   22MOL0     C 2785   4.645   1.056   2.740  0.4364  0.2319  0.1862
   22MOL0     C 2786   4.557   0.962   2.655  0.1297 -0.4037 -0.4193
   22MOL0     C 2787   4.429   1.042   2.607  0.5454 -0.5955 -0.6498
   22MOL0     C 2788   4.349   0.969   2.498  0.4031  0.5885 -0.0696
   22MOL0     N 2789   4.218   1.035   2.481 -0.3088 -0.6576  0.8045
   22MOL0     C 2790   4.096   0.997   2.552 -0.4845 -0.0709  0.6141
   22MOL0     C 2791   3.998   1.038   2.472  0.2352  0.3256  1.4610
   22MOL0     C 2792   3.863   0.995   2.493 -0.4818  0.1568 -0.9476
   22MOL0     C 2793   3.775   1.064   2.393 -1.1726  0.0815  0.5130
   22MOL0     C 2794   3.624   1.023   2.407 -0.0128 -0.3689 -0.4008
   22MOL0     C 2795   3.544   1.090   2.305 -0.7374  0.6683 -0.2118
   22MOL0     O 2796   3.558   1.020   2.179 -0.1441  0.7676 -0.3360
   22MOL0     C 2797   3.459   1.046   2.085 -0.0526  0.9027 -0.3304
   22MOL0     C 2798   3.448   0.958   1.986 -0.5280  0.7885  0.0882
   22MOL0     C 2799   3.345   0.969   1.895  0.1099  0.2195 -0.5331
   22MOL0     C 2800   3.258   1.079   1.908  0.5704 -0.5538 -0.0818
   22MOL0     C 2801   3.139   1.089   1.808 -0.6924  0.4251 -0.3946
   22MOL0     O 2802   3.082   1.212   1.801  0.0161  1.1165  0.3209
   22MOL0     C 2803   2.973   1.249   1.720  0.1555  0.3164  0.3010
   22MOL0     C 2804   2.893   1.165   1.644  0.2474 -0.3341  0.1547
   22MOL0     C 2805   2.791   1.217   1.565 -0.2709  0.0856  0.4289
   22MOL0     C 2806   2.757   1.350   1.565 -1.1659  0.2425  0.4915
   22MOL0     O 2807   2.639   1.398   1.510 -0.6458 -0.1212 -1.0860
   22MOL0     C 2808   2.569   1.315   1.415  0.0202  0.3918 -0.6741
   22MOL0     C 2809   2.468   1.390   1.327 -0.4454 -1.0186  1.9114
   22MOL0     C 2810   2.388   1.505   1.406 -0.4387 -0.7816 -0.2954
   22MOL0     C 2811   2.381   1.620   1.305  1.1643  0.6006  0.0205
   22MOL0     C 2812   2.274   1.719   1.353 -0.3043  0.9202 -0.2486
   22MOL0     C 2813   2.246   1.834   1.256  0.1901  0.3437 -0.8554
   22MOL0     C 2814   2.131   1.926   1.310 -0.4174  0.7413 -0.4906
   22MOL0     C 2815   2.118   2.058   1.234  0.6582 -0.4369 -0.0922
   22MOL0    Cl 2816   2.009   2.159   1.339  0.4062  0.0766  0.1929
   22MOL0     C 2817   2.831   1.436   1.647  0.1653 -0.4778 -1.0330
   22MOL0     C 2818   2.935   1.388   1.721 -1.6315  0.5070 -0.0565
   22MOL0     O 2819   3.105   0.990   1.746 -0.3363  0.0846 -0.0193
   22MOL0     C 2820   3.278   1.174   2.009  0.0444 -0.0986 -1.2518
   22MOL0     C 2821   3.378   1.158   2.098  0.1139  0.1998 -0.3152
   22MOL0     N 2822   4.055   1.097   2.357  0.4156 -0.3262  0.2177
   22MOL0     N 2823   4.183   1.096   2.367  0.4304 -0.4512 -0.4727
   22MOL0     C 2824   5.332   1.078   2.760 -0.8704 -1.3037  0.4319
   22MOL0     C 2825   5.448   1.142   2.793 -0.8388  0.2532 -0.1615
   22MOL0     C 2826   5.842   1.312   2.919 -1.4725 -0.3149  0.3664
   22MOL0     C 2827   5.960   1.242   2.901  0.0054  0.5166  0.5475
   22MOL0     C 2828   6.080   1.300   2.906 -1.0893  0.5392 -0.1799
   22MOL0     C 2829   6.090   1.434   2.903 -0.1084 -0.6988 -0.7897
   22MOL0     O 2830   6.218   1.492   2.880 -0.2557 -0.2452 -0.7663
   22MOL0     C 2831   6.258   1.607   2.937 -1.0321 -0.5983  0.7830
   22MOL0     C 2832   6.416   1.591   2.936  0.9385 -0.1314 -0.6088
   22MOL0     C 2833   6.488   1.717   2.995 -0.0232 -0.0663  0.2646
   22MOL0     C 2834   6.640   1.690   3.028  0.7352 -0.8162  0.3330
   22MOL0     C 2835   6.696   1.809   3.093  0.5032  0.3604 -0.4946
   22MOL0     C 2836   6.741   1.914   3.132  0.1650 -0.0754 -0.1956
   22MOL0     C 2837   5.978   1.506   2.922 -0.7069  0.3814 -0.6058
   22MOL0     C 2838   5.852   1.452   2.924 -0.2449 -0.6702  0.1365
   22MOL0     H 2839   5.670   0.897   2.806  0.5218  0.2679  1.3706
   22MOL0     H 2840   5.480   0.769   2.726 -0.7299 -0.1828  3.8880
   22MOL0     H 2841   5.093   0.818   2.572 -1.4486  1.5513 -1.8920
   22MOL0     H 2842   5.141   0.993   2.599  2.0471  0.5279  0.5873
   22MOL0     H 2843   5.033   0.978   2.828  0.5144  0.8342  0.0845
   22MOL0     H 2844   4.986   0.807   2.801  1.2036 -1.2472 -0.6590
   22MOL0     H 2845   4.837   0.875   2.622 -2.3738  1.6132  1.2233
   22MOL0     H 2846   4.898   1.043   2.615 -1.2754  1.0535 -1.6028
   22MOL0     H 2847   4.745   0.895   2.847 -2.3208  0.1339 -2.6107
   22MOL0     H 2848   4.831   1.054   2.863  0.4878  0.0048  1.4028
   22MOL0     H 2849   4.680   1.142   2.682 -0.7591  0.8549  0.3477
   22MOL0     H 2850   4.587   1.093   2.825 -0.3578  1.3231 -0.7979
   22MOL0     H 2851   4.500   0.885   2.708 -0.2658 -0.8292 -1.4273
   22MOL0     H 2852   4.605   0.927   2.563  1.3709  1.1618 -0.4085
   22MOL0     H 2853   4.360   1.053   2.691 -0.5645  1.6957 -1.7771
   22MOL0     H 2854   4.451   1.137   2.557 -4.9589  0.1050 -2.3895
   22MOL0     H 2855   4.322   0.868   2.532 -0.0241  0.3252 -1.1309
   22MOL0     H 2856   4.405   0.955   2.405 -1.4119  0.6866 -1.2398
   22MOL0     H 2857   4.101   0.949   2.649  1.7261  0.6604  0.9106
   22MOL0     H 2858   3.831   1.031   2.591  0.8036 -1.1053 -0.0386
   22MOL0     H 2859   3.863   0.886   2.491  1.3077  0.0726  0.8658
   22MOL0     H 2860   3.816   1.023   2.300 -0.4392 -1.9761  1.6814
   22MOL0     H 2861   3.786   1.173   2.398  1.5710 -0.0914 -0.2874
   22MOL0     H 2862   3.601   0.916   2.401 -0.6447 -0.3330  0.9011
   22MOL0     H 2863   3.581   1.045   2.506  0.1313  1.8225 -0.7829
   22MOL0     H 2864   3.581   1.192   2.291  1.4692  0.1681  1.3552
   22MOL0     H 2865   3.442   1.084   2.341  0.0607  0.8074  2.2462
   22MOL0     H 2866   3.515   0.873   1.974  0.2709  0.8797  3.1503
   22MOL0     H 2867   3.323   0.886   1.830  2.4208  0.3305 -1.5220
   22MOL0     H 2868   2.901   1.057   1.641  2.8367 -0.2323  0.9528
   22MOL0     H 2869   2.724   1.137   1.534 -1.1992  1.2706 -0.7333
   22MOL0     H 2870   2.535   1.233   1.478  2.3041 -2.1937 -2.5397
   22MOL0     H 2871   2.643   1.263   1.354  3.2803  1.7763  1.7973
   22MOL0     H 2872   2.393   1.318   1.294  0.6470 -0.6369 -1.9045
   22MOL0     H 2873   2.513   1.436   1.238 -1.0056  0.0842  2.1709
   22MOL0     H 2874   2.454   1.541   1.485 -0.1934  4.9730 -2.6128
   22MOL0     H 2875   2.303   1.461   1.458 -0.6601 -1.4546 -1.2008
   22MOL0     H 2876   2.477   1.671   1.294  1.9679 -0.9718 -0.5918
   22MOL0     H 2877   2.354   1.589   1.204  1.0326 -0.1340  0.2707
   22MOL0     H 2878   2.316   1.762   1.445 -2.1285 -0.2037  1.1827
   22MOL0     H 2879   2.187   1.663   1.387 -0.2115  1.2510  0.5693
   22MOL0     H 2880   2.212   1.799   1.158  0.1284 -0.5004 -0.5406
   22MOL0     H 2881   2.341   1.886   1.242 -1.1132  2.1577 -4.1711
   22MOL0     H 2882   2.034   1.876   1.314  0.0437 -0.1176  0.5713
   22MOL0     H 2883   2.170   1.939   1.412 -1.3540  0.8500 -0.1310
   22MOL0     H 2884   2.078   2.032   1.136  1.6858 -2.4061 -0.0336
   22MOL0     H 2885   2.213   2.112   1.230  1.9885 -2.7140 -2.3908
   22MOL0     H 2886   2.792   1.535   1.665 -1.4009 -1.4275  1.2265
   22MOL0     H 2887   2.992   1.453   1.786  0.6476 -2.5878  1.2534
   22MOL0     H 2888   3.204   1.254   2.013  1.3774  1.1289  0.0230
   22MOL0     H 2889   3.385   1.234   2.176  1.7425  0.8441 -1.0362
   22MOL0     H 2890   5.238   1.131   2.748  0.2047  0.5363 -0.2863
   22MOL0     H 2891   5.435   1.247   2.818 -2.5949 -0.4796  2.4174
   22MOL0     H 2892   5.947   1.135   2.891  4.4210 -0.3940  2.2802
   22MOL0     H 2893   6.169   1.238   2.899 -2.9603 -2.6731  1.9528
   22MOL0     H 2894   6.230   1.615   3.043 -1.9931 -2.3824  0.6895
   22MOL0     H 2895   6.239   1.696   2.876  1.6810 -1.7096 -1.8951
   22MOL0     H 2896   6.452   1.506   2.995 -0.1861  0.2299  0.6392
   22MOL0     H 2897   6.445   1.573   2.831 -0.4808 -3.0834 -0.5999
   22MOL0     H 2898   6.425   1.742   3.081 -1.6943 -2.0598 -0.2925
   22MOL0     H 2899   6.481   1.798   2.921 -6.0366 -0.6328 -0.2948
   22MOL0     H 2900   6.660   1.606   3.096  0.1082  0.0037  1.5770
   22MOL0     H 2901   6.684   1.678   2.929 -3.5310 -0.7114 -1.7939
   22MOL0     H 2902   6.793   2.001   3.164  1.3438  0.0488 -2.2885
   22MOL0     H 2903   5.983   1.612   2.941 -1.7038  0.1867  0.9190
   22MOL0     H 2904   5.767   1.519   2.936 -0.0702  0.1692 -2.6204
   23MOL0     O 2905   5.676   8.436   7.970  0.2912 -0.5680  0.6655
   23MOL0     C 2906   5.698   8.332   7.908  0.0175  0.5108 -0.5166
   23MOL0     O 2907   5.626   8.285   7.799  0.3757 -0.3296  0.5746
   23MOL0     C 2908   5.503   8.343   7.774 -0.2814 -0.6469  0.8010
   23MOL0     C 2909   5.387   8.265   7.763 -0.3070 -0.5032  0.1308
   23MOL0     C 2910   5.266   8.317   7.726 -0.3350 -0.1216 -0.1590
   23MOL0     C 2911   5.246   8.451   7.703  1.2199 -1.1764  0.5841
   23MOL0     O 2912   5.128   8.508   7.667  0.3092  0.5832 -0.1349
   23MOL0     C 2913   5.002   8.435   7.673  0.1350  0.6562 -0.3849
   23MOL0     C 2914   4.892   8.531   7.647  0.6161 -0.2640  0.4005
   23MOL0     C 2915   4.760   8.472   7.680 -0.3118  0.3667  0.0873
   23MOL0     C 2916   4.648   8.578   7.654  0.8716  0.5074  0.0568
   23MOL0     C 2917   4.631   8.644   7.520  0.2434  0.1080 -0.0985
   23MOL0     C 2918   4.603   8.558   7.408 -0.1935 -0.3950  1.0842
   23MOL0     C 2919   4.486   8.465   7.429  0.3389 -0.9570 -1.2306
   23MOL0     C 2920   4.364   8.546   7.429  0.6858  0.0344  0.6165
   23MOL0     N 2921   4.247   8.457   7.418  0.6139  0.8948 -0.1040
   23MOL0     C 2922   4.227   8.349   7.499  0.1914 -0.6437  0.0777
   23MOL0     C 2923   4.136   8.267   7.432  0.1200  0.0230  0.2727
   23MOL0     C 2924   4.104   8.137   7.491 -0.7275  0.5965 -0.6287
   23MOL0     C 2925   3.960   8.098   7.467  0.0286  0.0809 -0.2283
   23MOL0     C 2926   3.931   7.960   7.522  0.5718 -1.1118 -0.5465
   23MOL0     C 2927   3.815   7.890   7.451  0.3081  0.5048  0.4823
   23MOL0     O 2928   3.696   7.972   7.458  0.1995  0.8115  0.1210
   23MOL0     C 2929   3.577   7.922   7.411 -0.9396  0.1730  0.9600
   23MOL0     C 2930   3.474   8.020   7.404  0.0439  0.7342  0.3257
   23MOL0     C 2931   3.348   7.985   7.350  0.1527 -0.3066  0.4504
   23MOL0     C 2932   3.321   7.860   7.306  0.6277  0.1093  0.4556
   23MOL0     C 2933   3.176   7.826   7.251 -1.0559 -0.2207 -0.4129
   23MOL0     O 2934   3.081   7.923   7.250 -0.4778  0.1797 -0.4985
   23MOL0     C 2935   2.954   7.905   7.203 -0.4664  0.8159  0.2098
   23MOL0     C 2936   2.888   8.020   7.168  0.2108 -0.2876  0.9434
   23MOL0     C 2937   2.747   8.010   7.129  0.4543  0.4062 -0.4090
   23MOL0     C 2938   2.677   7.888   7.129  1.1036  0.9598  0.5354
   23MOL0     O 2939   2.543   7.872   7.101  0.0723  0.5789  1.0656
   23MOL0     C 2940   2.461   7.991   7.092  0.4010  0.1699 -0.3884
   23MOL0     C 2941   2.320   7.938   7.072 -0.5853 -0.1085  0.3090
   23MOL0     C 2942   2.288   7.903   6.924  0.0319 -0.7458  0.6786
   23MOL0     C 2943   2.148   7.849   6.902 -0.2665 -1.1260  1.0775
   23MOL0     C 2944   2.139   7.780   6.761  0.8617  0.5767 -0.5101
   23MOL0     C 2945   2.180   7.859   6.640  0.4174  0.1213 -0.1287
   23MOL0     C 2946   2.085   7.987   6.630 -1.3510  0.4771  0.8477
   23MOL0     C 2947   1.959   7.952   6.560 -0.7016  0.2724  0.2413
   23MOL0    Cl 2948   1.874   8.099   6.538 -0.0799  0.0805 -0.2728
   23MOL0     C 2949   2.749   7.771   7.157 -0.1612  0.0384 -0.3426
   23MOL0     C 2950   2.886   7.776   7.191 -0.2591 -0.1612 -0.8815
   23MOL0     O 2951   3.163   7.709   7.228 -0.0898 -0.2683 -0.2763
   23MOL0     C 2952   3.421   7.760   7.311 -0.6230 -0.0804  0.2853
   23MOL0     C 2953   3.552   7.793   7.364  0.7390  0.3366 -0.3939
   23MOL0     N 2954   4.105   8.327   7.310  0.8268 -0.1531 -1.1141
   23MOL0     N 2955   4.158   8.448   7.315  0.2750  0.5220  0.6681
   23MOL0     C 2956   5.364   8.533   7.711  0.3106 -0.4797  0.9404
   23MOL0     C 2957   5.490   8.483   7.744  0.2901 -0.8649 -0.0085
   23MOL0     C 2958   5.839   8.278   7.923  0.6537  0.7903  0.4280
   23MOL0     C 2959   5.864   8.139   7.896  0.4978 -1.1292  1.1142
   23MOL0     C 2960   5.989   8.090   7.896  0.0386 -0.3730 -0.0216
   23MOL0     C 2961   6.097   8.178   7.910 -0.0379 -0.3852 -0.5257
   23MOL0     O 2962   6.214   8.117   7.883 -0.0841  0.4536  0.2798
   23MOL0     C 2963   6.332   8.202   7.898 -0.9403  0.4042  0.0311
   23MOL0     C 2964   6.454   8.130   7.835  0.1385  1.2641 -0.8640
   23MOL0     C 2965   6.592   8.150   7.896  0.4930  0.2841 -0.0062
   23MOL0     C 2966   6.645   8.289   7.896  0.2338 -0.4119  0.0803
   23MOL0     C 2967   6.780   8.288   7.953 -0.2628  0.7102  0.6394
   23MOL0     C 2968   6.897   8.284   7.986 -1.3021 -0.3191  0.6462
   23MOL0     C 2969   6.074   8.318   7.933  0.7387  0.0425 -0.1252
   23MOL0     C 2970   5.944   8.359   7.954  0.1542  0.1439  0.2660
   23MOL0     H 2971   5.389   8.163   7.801  0.3927 -1.3153 -1.9598
   23MOL0     H 2972   5.185   8.246   7.736 -1.0150  0.8006  1.2973
   23MOL0     H 2973   5.001   8.384   7.770  3.3326 -1.5036 -1.3176
   23MOL0     H 2974   5.005   8.360   7.594  1.0594  2.3398 -2.0039
   23MOL0     H 2975   4.900   8.557   7.541 -1.7799  0.8642  0.4225
   23MOL0     H 2976   4.903   8.626   7.700 -1.8039  1.0267 -1.2153
   23MOL0     H 2977   4.773   8.445   7.785  0.7459  1.6196  0.3161
   23MOL0     H 2978   4.738   8.378   7.629 -1.5046  0.8742 -0.3832
   23MOL0     H 2979   4.549   8.540   7.680  0.4979 -0.4422 -2.5282
   23MOL0     H 2980   4.666   8.665   7.718 -3.7460 -0.8644  3.7938
   23MOL0     H 2981   4.719   8.707   7.504 -0.0817  0.3874 -0.8285
   23MOL0     H 2982   4.544   8.708   7.534 -1.4234 -2.3411  1.5123
   23MOL0     H 2983   4.688   8.492   7.391  1.1088  2.0203 -3.2311
   23MOL0     H 2984   4.591   8.609   7.312  1.9376 -1.2940  0.2863
   23MOL0     H 2985   4.482   8.402   7.340  0.4761 -0.7818 -1.3610
   23MOL0     H 2986   4.510   8.400   7.515  1.7615 -1.8224 -2.2316
   23MOL0     H 2987   4.365   8.613   7.342  3.4768  0.0052  0.5188
   23MOL0     H 2988   4.356   8.596   7.525  3.1214 -0.1047  0.9643
   23MOL0     H 2989   4.277   8.322   7.591 -0.4182  2.4626  1.4246
   23MOL0     H 2990   4.133   8.141   7.597  2.2238 -0.0503 -1.3181
   23MOL0     H 2991   4.173   8.060   7.454 -0.5311 -1.1581  2.9255
   23MOL0     H 2992   3.943   8.093   7.359 -1.5029  2.7493 -0.1716
   23MOL0     H 2993   3.904   8.176   7.518  3.6917  3.3397 -0.7786
   23MOL0     H 2994   4.008   7.888   7.493  0.0888 -0.8799 -2.5665
   23MOL0     H 2995   3.910   7.965   7.629  0.9657  1.7468 -0.5039
   23MOL0     H 2996   3.794   7.791   7.494  1.4997 -0.4993 -1.1135
   23MOL0     H 2997   3.840   7.872   7.346 -1.9037 -0.2136  0.0216
   23MOL0     H 2998   3.491   8.118   7.447  0.0860  0.4765  0.9127
   23MOL0     H 2999   3.263   8.053   7.351 -0.0372 -0.5471  1.1916
   23MOL0     H 3000   2.943   8.113   7.160  1.1353 -0.9484 -5.1623
   23MOL0     H 3001   2.696   8.100   7.097 -0.7072  1.7417  4.2951
   23MOL0     H 3002   2.495   8.053   7.009 -1.9530  3.0732  0.6107
   23MOL0     H 3003   2.457   8.059   7.178 -0.0293  0.1973 -0.4278
   23MOL0     H 3004   2.264   8.024   7.111  0.4979 -0.1366  2.0544
   23MOL0     H 3005   2.302   7.848   7.131 -3.5462 -1.0684 -1.8074
   23MOL0     H 3006   2.356   7.824   6.891  1.2784  0.1318  1.0619
   23MOL0     H 3007   2.321   7.979   6.853 -2.0166  0.5272  1.0109
   23MOL0     H 3008   2.132   7.772   6.978 -1.0665 -1.3762  0.6687
   23MOL0     H 3009   2.075   7.929   6.921  2.4305  1.3141  1.8219
   23MOL0     H 3010   2.035   7.751   6.742  1.0451  0.0146 -0.6725
   23MOL0     H 3011   2.198   7.688   6.766  1.5347  1.0268  0.0067
   23MOL0     H 3012   2.177   7.796   6.551  3.4921 -0.7372  0.2489
   23MOL0     H 3013   2.287   7.882   6.642  0.8357 -1.2994 -2.3985
   23MOL0     H 3014   2.065   8.033   6.728 -0.3017  0.6480  0.9970
   23MOL0     H 3015   2.124   8.059   6.558 -0.2031 -0.6744  0.2679
   23MOL0     H 3016   1.898   7.891   6.627 -2.0644  3.2418  1.9279
   23MOL0     H 3017   1.976   7.891   6.471 -0.9638  1.0108 -0.3295
   23MOL0     H 3018   2.696   7.676   7.156 -2.0770  0.7341  4.4837
   23MOL0     H 3019   2.928   7.677   7.202  1.2081  0.6706  1.9192
   23MOL0     H 3020   3.412   7.661   7.267  2.6926 -0.2069 -0.4045
   23MOL0     H 3021   3.623   7.711   7.364  0.4952  0.0852 -1.9404
   23MOL0     H 3022   5.361   8.637   7.681 -0.2849 -0.9145 -0.5915
   23MOL0     H 3023   5.578   8.546   7.749 -2.0997  2.7297 -0.0403
   23MOL0     H 3024   5.795   8.067   7.853 -1.5520  0.0152  2.3163
   23MOL0     H 3025   6.008   7.987   7.868 -0.6431 -1.1544  2.1676
   23MOL0     H 3026   6.352   8.224   8.003  0.8557 -3.5619  0.6748
   23MOL0     H 3027   6.328   8.302   7.853 -0.2713 -0.2784 -1.6042
   23MOL0     H 3028   6.435   8.023   7.827  0.2087  1.2295 -0.6050
   23MOL0     H 3029   6.467   8.163   7.732  3.2365 -0.1452 -1.0260
   23MOL0     H 3030   6.659   8.080   7.844 -0.8509 -0.5557 -0.6693
   23MOL0     H 3031   6.584   8.108   7.997  2.3109 -3.7423 -1.3296
   23MOL0     H 3032   6.651   8.322   7.791 -1.9263 -0.4368 -0.0852
   23MOL0     H 3033   6.573   8.350   7.951 -0.3043 -1.6721  0.7980
   23MOL0     H 3034   7.003   8.290   7.993 -1.1952 -1.4722  0.3054
   23MOL0     H 3035   6.152   8.394   7.932  0.1300  0.7028 -1.8889
   23MOL0     H 3036   5.932   8.463   7.984  1.1613  0.9025 -1.7382
   24MOL0     O 3037   5.042  10.090   3.743  0.2956 -0.7778 -0.6158
   24MOL0     C 3038   4.988   9.979   3.765 -0.7220 -0.5443 -0.1732
   24MOL0     O 3039   5.044   9.866   3.814 -0.3685 -0.0578 -0.1259
   24MOL0     C 3040   5.183   9.865   3.834  0.1833  0.4807  0.8051
   24MOL0     C 3041   5.270   9.922   3.744 -1.2886  0.5449  0.5789
   24MOL0     C 3042   5.415   9.905   3.759  0.4107 -0.3078 -0.0908
   24MOL0     C 3043   5.465   9.825   3.860 -0.6465  0.0332 -0.7281
   24MOL0     O 3044   5.602   9.804   3.877 -0.1709  0.0355  0.2813
   24MOL0     C 3045   5.679   9.850   3.769 -0.4322 -1.0330  0.3759
   24MOL0     C 3046   5.822   9.829   3.792 -0.3123 -0.6376 -0.7921
   24MOL0     C 3047   5.906   9.890   3.690 -0.5307  0.5729 -0.4845
   24MOL0     C 3048   6.056   9.878   3.712 -0.1815 -1.2978  0.0480
   24MOL0     C 3049   6.130   9.895   3.580  0.6996  0.1839  0.4180
   24MOL0     C 3050   6.286   9.899   3.609  0.1551 -0.4804 -0.0678
   24MOL0     C 3051   6.366   9.904   3.486  1.0251  1.2142  0.3131
   24MOL0     C 3052   6.515   9.893   3.510 -0.0588  0.2263 -0.3191
   24MOL0     N 3053   6.582   9.924   3.391 -0.3641 -0.7702  0.3672
   24MOL0     C 3054   6.584   9.843   3.278 -0.0026  0.0169  0.8458
   24MOL0     C 3055   6.692   9.885   3.201  1.0452 -0.2006  0.5390
   24MOL0     C 3056   6.752   9.818   3.083 -1.0807 -0.8161 -0.3804
   24MOL0     C 3057   6.690   9.859   2.944 -0.2563  0.7614 -0.9532
   24MOL0     C 3058   6.598   9.751   2.878  0.7035 -0.0619  0.2805
   24MOL0     C 3059   6.549   9.795   2.741  0.1405 -0.2308 -0.1236
   24MOL0     O 3060   6.478   9.918   2.734  0.1706 -0.5233 -0.5266
   24MOL0     C 3061   6.339   9.924   2.740 -0.0595  0.1634 -0.4993
   24MOL0     C 3062   6.264   9.848   2.653  0.1466  1.2994 -0.4580
   24MOL0     C 3063   6.130   9.826   2.671 -0.2971  0.3027  0.0759
   24MOL0     C 3064   6.071   9.877   2.793  1.0882  0.1021  0.5173
   24MOL0     C 3065   5.930   9.855   2.821 -0.2813 -0.0974  0.3366
   24MOL0     O 3066   5.854   9.789   2.728 -0.2698  0.5108  0.6506
   24MOL0     C 3067   5.713   9.797   2.716 -0.4845 -0.8501 -0.0438
   24MOL0     C 3068   5.621   9.895   2.768 -0.2872 -0.2265 -1.0872
   24MOL0     C 3069   5.475   9.888   2.740 -0.4282 -0.2354 -0.6402
   24MOL0     C 3070   5.425   9.776   2.664  0.4110  0.0667  0.1159
   24MOL0     O 3071   5.289   9.760   2.628 -0.0941  0.5101  0.1414
   24MOL0     C 3072   5.191   9.841   2.688  1.1203 -0.1170 -0.1480
   24MOL0     C 3073   5.182   9.813   2.840 -0.5705  0.7217  0.1739
   24MOL0     C 3074   5.045   9.852   2.896  0.7778  0.7030  0.8904
   24MOL0     C 3075   4.924   9.807   2.807 -0.1227  0.2563 -0.0860
   24MOL0     C 3076   4.790   9.794   2.887 -0.2358 -0.3035  0.4620
   24MOL0     C 3077   4.670   9.773   2.789 -0.7139  0.4151  0.0166
   24MOL0     C 3078   4.547   9.735   2.872  1.1943 -0.5847  0.0949
   24MOL0     C 3079   4.436   9.699   2.777 -0.1118 -0.1959  1.3296
   24MOL0    Cl 3080   4.279   9.701   2.864  0.0850 -0.0024  0.0133
   24MOL0     C 3081   5.515   9.682   2.623  0.3081 -0.0656 -0.2560
   24MOL0     C 3082   5.648   9.692   2.644 -0.1965 -0.2744  0.2314
   24MOL0     O 3083   5.882   9.913   2.914 -0.7047 -0.4952  0.2468
   24MOL0     C 3084   6.150   9.956   2.873  0.8875 -0.6540 -0.0806
   24MOL0     C 3085   6.287   9.975   2.856  0.2768 -1.2143  0.0933
   24MOL0     N 3086   6.738  10.003   3.257  1.2150 -0.1785 -0.4545
   24MOL0     N 3087   6.675  10.017   3.371 -0.5566  0.8174  0.7030
   24MOL0     C 3088   5.376   9.774   3.960  0.1697 -0.3670  0.7558
   24MOL0     C 3089   5.232   9.785   3.943 -0.0580 -0.0796  1.1424
   24MOL0     C 3090   4.843   9.961   3.725  0.5695  0.4563 -0.1557
   24MOL0     C 3091   4.785  10.055   3.634  0.5051  0.0540 -0.4958
   24MOL0     C 3092   4.651  10.044   3.606  0.0694 -0.0965  0.0830
   24MOL0     C 3093   4.573   9.939   3.656  0.8319  0.0253 -0.3367
   24MOL0     O 3094   4.437   9.945   3.626  0.4671 -0.1561  0.6122
   24MOL0     C 3095   4.348   9.984   3.736  0.3246 -0.4805  0.0224
   24MOL0     C 3096   4.213   9.917   3.714 -0.5716  0.3122 -0.0469
   24MOL0     C 3097   4.105   9.990   3.631 -0.9363 -0.0796  0.2540
   24MOL0     C 3098   4.067  10.122   3.683  0.1852 -0.2696 -0.8449
   24MOL0     C 3099   4.037  10.116   3.828  0.0154  0.3650  0.2800
   24MOL0     C 3100   3.996  10.124   3.945 -0.6502  0.7865  0.3854
   24MOL0     C 3101   4.628   9.841   3.740 -0.8177  0.5263 -0.1262
   24MOL0     C 3102   4.762   9.858   3.779  0.1017  0.7602 -0.1617
   24MOL0     H 3103   5.237   9.976   3.655  0.4327 -2.0963 -1.8126
   24MOL0     H 3104   5.477   9.951   3.683 -1.3745  2.3962 -0.0085
   24MOL0     H 3105   5.658   9.958   3.771  0.8223 -0.7529 -0.2631
   24MOL0     H 3106   5.643   9.804   3.677 -0.0485 -0.9571  0.1848
   24MOL0     H 3107   5.840   9.722   3.784 -1.8585 -1.0101  0.3679
   24MOL0     H 3108   5.845   9.861   3.894 -0.3070 -0.4091 -0.8629
   24MOL0     H 3109   5.872   9.992   3.667  0.9328  1.2948  0.4182
   24MOL0     H 3110   5.875   9.829   3.604 -1.2177 -0.9668  0.8086
   24MOL0     H 3111   6.087   9.959   3.777 -0.1984 -2.1646  1.1692
   24MOL0     H 3112   6.079   9.779   3.753 -2.0102 -1.8326 -0.1129
   24MOL0     H 3113   6.084   9.977   3.524 -1.1508 -1.0093  0.1029
   24MOL0     H 3114   6.114   9.802   3.524 -2.6487  0.4077  0.7831
   24MOL0     H 3115   6.315   9.823   3.682 -1.2757 -1.0222 -0.0472
   24MOL0     H 3116   6.294   9.994   3.663  0.1887 -1.0647  0.9856
   24MOL0     H 3117   6.340   9.823   3.417 -0.5955  3.5616 -2.0554
   24MOL0     H 3118   6.329   9.996   3.440 -1.6252  1.7085  3.0729
   24MOL0     H 3119   6.544   9.796   3.553 -0.9918 -0.5769 -1.4582
   24MOL0     H 3120   6.535   9.969   3.587 -1.0934  1.9928 -1.7127
   24MOL0     H 3121   6.532   9.750   3.258 -3.4445  1.3528  2.8294
   24MOL0     H 3122   6.746   9.709   3.092 -0.1930 -0.7412  1.4778
   24MOL0     H 3123   6.859   9.840   3.086 -0.8899 -1.8478  1.2811
   24MOL0     H 3124   6.775   9.870   2.877 -0.3538 -2.8938 -1.8578
   24MOL0     H 3125   6.634   9.953   2.956  0.8207  1.3764 -0.6234
   24MOL0     H 3126   6.661   9.661   2.878  2.3829  1.0647 -0.8097
   24MOL0     H 3127   6.510   9.744   2.942 -0.7937  1.9192 -1.4545
   24MOL0     H 3128   6.500   9.707   2.698  0.2413 -1.2430  1.7519
   24MOL0     H 3129   6.639   9.810   2.680  2.1468  0.5898  2.8456
   24MOL0     H 3130   6.313   9.806   2.566  0.1866  0.4009 -0.0199
   24MOL0     H 3131   6.071   9.774   2.596  0.2101 -0.1177 -0.0457
   24MOL0     H 3132   5.661   9.981   2.821 -1.1828 -0.1839 -0.4566
   24MOL0     H 3133   5.411   9.971   2.766 -1.3914  0.4319 -4.4292
   24MOL0     H 3134   5.101   9.816   2.632  0.8904  3.4664 -1.6681
   24MOL0     H 3135   5.208   9.948   2.669  0.3093 -0.1727 -1.2759
   24MOL0     H 3136   5.260   9.872   2.890  1.4675  0.0322 -1.9939
   24MOL0     H 3137   5.206   9.711   2.873  5.8001  1.3237 -1.2210
   24MOL0     H 3138   5.045   9.962   2.897  2.5182  0.7656  3.0577
   24MOL0     H 3139   5.023   9.820   2.998  0.5584  0.5077  0.7823
   24MOL0     H 3140   4.924   9.876   2.722 -0.4599  0.7402  0.2981
   24MOL0     H 3141   4.940   9.706   2.768 -3.2236  0.6244 -2.7007
   24MOL0     H 3142   4.762   9.888   2.935 -1.3807  1.3260 -3.1073
   24MOL0     H 3143   4.799   9.717   2.964  2.6175  0.1141  0.6393
   24MOL0     H 3144   4.697   9.682   2.734  1.5602  0.3609  1.1387
   24MOL0     H 3145   4.654   9.861   2.727 -1.3244  1.4512  1.5902
   24MOL0     H 3146   4.572   9.656   2.942  0.2654 -2.8663 -1.9866
   24MOL0     H 3147   4.513   9.818   2.935  3.2392  1.4837 -1.3425
   24MOL0     H 3148   4.460   9.606   2.726  3.4980  0.2955  1.8281
   24MOL0     H 3149   4.421   9.769   2.694  1.8022 -0.7843  0.4152
   24MOL0     H 3150   5.477   9.597   2.567  1.3494  0.1790 -1.3643
   24MOL0     H 3151   5.702   9.602   2.614  0.7540  0.1725  0.5660
   24MOL0     H 3152   6.104  10.003   2.959 -2.3540 -1.1536 -1.3916
   24MOL0     H 3153   6.350  10.017   2.935  0.1896 -2.0136  0.5947
   24MOL0     H 3154   5.405   9.719   4.049 -1.4803 -4.2623 -0.9212
   24MOL0     H 3155   5.158   9.748   4.013 -0.8418  1.8608  1.4075
   24MOL0     H 3156   4.842  10.137   3.590 -0.6855 -0.3676 -2.9462
   24MOL0     H 3157   4.615  10.113   3.530  0.1201 -0.4750 -0.2860
   24MOL0     H 3158   4.343  10.093   3.729 -0.0519 -0.4346  0.8502
   24MOL0     H 3159   4.392   9.966   3.835  0.9985 -1.9358 -0.5135
   24MOL0     H 3160   4.224   9.826   3.654 -1.3271  0.5701 -0.6012
   24MOL0     H 3161   4.179   9.880   3.811  1.7830 -2.4084 -0.1441
   24MOL0     H 3162   4.013   9.932   3.621 -0.4287 -0.5298 -2.5019
   24MOL0     H 3163   4.139   9.987   3.527 -3.6511 -2.3627 -0.6940
   24MOL0     H 3164   4.138  10.201   3.659 -0.4473  0.7255  0.4094
   24MOL0     H 3165   3.975  10.158   3.636  0.4780  1.3551 -0.2396
   24MOL0     H 3166   3.963  10.129   4.047 -0.5353  0.2321  0.4572
   24MOL0     H 3167   4.566   9.765   3.787 -0.1681 -0.2345 -0.4752
   24MOL0     H 3168   4.805   9.789   3.850  2.8954  3.1114  0.6113
   25MOL0     O 3169   7.356  10.036  10.681 -0.2098 -0.0866 -0.0602
   25MOL0     C 3170   7.436   9.987  10.759 -1.3186  0.1553  1.0742
   25MOL0     O 3171   7.412   9.898  10.857 -0.1222 -0.0124  0.4988
   25MOL0     C 3172   7.287   9.849  10.884  0.6698 -0.5483  0.5710
   25MOL0     C 3173   7.176   9.936  10.884 -0.4498 -0.4396  0.2789
   25MOL0     C 3174   7.044   9.893  10.902 -0.6342 -0.2977 -0.5310
   25MOL0     C 3175   7.023   9.762  10.919  1.2829  0.0094  1.0726
   25MOL0     O 3176   6.893   9.706  10.932 -0.3581  0.2020  0.2293
   25MOL0     C 3177   6.787   9.787  10.898 -0.2798  0.1148  0.7327
   25MOL0     C 3178   6.643   9.729  10.860  0.0210 -0.2651  0.0104
   25MOL0     C 3179   6.534   9.831  10.894  0.5857 -0.1977  0.2734
   25MOL0     C 3180   6.381   9.787  10.876  0.3230  0.1662  0.4125
   25MOL0     C 3181   6.293   9.907  10.895 -0.4961  0.1013  1.2037
   25MOL0     C 3182   6.143   9.871  10.864 -0.6509  0.0625  0.9441
   25MOL0     C 3183   6.063  10.004  10.879  0.1533 -0.4343 -0.7596
   25MOL0     C 3184   5.911   9.987  10.869  0.4362  0.4308 -0.1893
   25MOL0     N 3185   5.846   9.931  10.985  0.6489  0.4836  0.3384
   25MOL0     C 3186   5.818   9.987  11.105  0.0096 -0.1144 -0.4504
   25MOL0     C 3187   5.745   9.905  11.175 -0.0669  0.3548 -0.8077
   25MOL0     C 3188   5.690   9.913  11.314 -0.3327  0.9400 -0.1654
   25MOL0     C 3189   5.715   9.786  11.396 -0.2067 -0.7905  0.2515
   25MOL0     C 3190   5.664   9.801  11.552 -0.4956 -0.6831  0.4085
   25MOL0     C 3191   5.511   9.814  11.571  0.2231 -0.0465 -0.3460
   25MOL0     O 3192   5.453   9.686  11.603  0.8804  0.9185  0.0353
   25MOL0     C 3193   5.317   9.680  11.603  0.6224  1.2582  0.1874
   25MOL0     C 3194   5.281   9.549  11.626 -0.2539 -0.6328 -0.3026
   25MOL0     C 3195   5.152   9.510  11.623 -0.2871 -0.1591  0.1458
   25MOL0     C 3196   5.050   9.610  11.607 -0.0753  0.0564  0.1726
   25MOL0     C 3197   4.906   9.574  11.614  0.7206  0.0262  0.6925
   25MOL0     O 3198   4.880   9.441  11.651  0.3802  0.3707  0.8801
   25MOL0     C 3199   4.748   9.408  11.665  0.2113 -1.0877  0.5278
   25MOL0     C 3200   4.674   9.342  11.563  1.1980 -0.4386  1.1078
   25MOL0     C 3201   4.537   9.308  11.576 -0.0116 -0.1094 -0.1219
   25MOL0     C 3202   4.473   9.340  11.700  0.1350  0.1321  0.2422
   25MOL0     O 3203   4.340   9.304  11.715 -0.4815  0.0158  0.0624
   25MOL0     C 3204   4.258   9.298  11.600 -0.2511  0.2103 -0.1546
   25MOL0     C 3205   4.123   9.278  11.652  0.5123 -0.2094 -0.2440
   25MOL0     C 3206   4.031   9.287  11.540 -0.2255  0.4264  0.0678
   25MOL0     C 3207   3.885   9.246  11.587  0.0289 -0.1291  0.3145
   25MOL0     C 3208   3.798   9.277  11.474  0.0949 -0.3346  1.0440
   25MOL0     C 3209   3.650   9.235  11.499 -0.3944 -0.1114 -0.4032
   25MOL0     C 3210   3.567   9.249  11.368 -1.4176  0.9448 -0.1119
   25MOL0     C 3211   3.414   9.214  11.386 -0.5977  0.5660 -0.6904
   25MOL0    Cl 3212   3.381   9.052  11.481  0.0967 -0.4936  0.0236
   25MOL0     C 3213   4.542   9.403  11.804 -0.4211 -0.6286 -0.1621
   25MOL0     C 3214   4.681   9.443  11.785 -0.9447  0.7842  0.5810
   25MOL0     O 3215   4.823   9.661  11.588 -0.8294 -0.2039  0.3954
   25MOL0     C 3216   5.091   9.742  11.576  1.0891  0.4853 -0.5267
   25MOL0     C 3217   5.225   9.781  11.575 -0.8293  0.0425 -0.1689
   25MOL0     N 3218   5.734   9.793  11.096  0.2261 -0.8201  0.5410
   25MOL0     N 3219   5.796   9.809  10.986 -0.3040 -0.9455 -0.5509
   25MOL0     C 3220   7.123   9.675  10.928  0.6084 -0.4330  1.1663
   25MOL0     C 3221   7.250   9.717  10.913 -0.0538  0.3149  0.5508
   25MOL0     C 3222   7.575  10.051  10.768 -0.4819 -0.6333  0.4437
   25MOL0     C 3223   7.626  10.149  10.680  1.2010  1.3475 -0.8804
   25MOL0     C 3224   7.758  10.197  10.688  0.2005 -0.0106  1.1661
   25MOL0     C 3225   7.839  10.150  10.788 -0.1654 -0.2722  0.1644
   25MOL0     O 3226   7.968  10.186  10.815 -0.0662  0.1586  0.1444
   25MOL0     C 3227   8.073  10.132  10.729 -0.2066 -0.0045 -0.0991
   25MOL0     C 3228   8.171  10.039  10.799 -0.0663 -0.1106  0.8618
   25MOL0     C 3229   8.222  10.090  10.934  1.0488 -0.1152 -1.1335
   25MOL0     C 3230   8.338  10.015  11.000  0.1385  0.0158 -0.0065
   25MOL0     C 3231   8.451  10.038  10.909  0.6685  0.2391 -0.0224
   25MOL0     C 3232   8.538  10.061  10.826  0.4093 -0.0223  0.7862
   25MOL0     C 3233   7.787  10.062  10.881  0.3633  0.3534 -0.5527
   25MOL0     C 3234   7.657  10.006  10.869 -0.2478  0.3738  0.7105
   25MOL0     H 3235   7.187  10.043  10.867 -1.4823 -0.8702 -4.3707
   25MOL0     H 3236   6.972   9.973  10.909 -1.0191 -0.6068 -0.9253
   25MOL0     H 3237   6.821   9.827  10.802  0.0101 -2.2763 -0.2287
   25MOL0     H 3238   6.782   9.858  10.981  3.0278  1.0390  0.2804
   25MOL0     H 3239   6.625   9.635  10.913  0.0211  0.2109  0.8679
   25MOL0     H 3240   6.649   9.715  10.752  1.9341  1.3964 -0.1547
   25MOL0     H 3241   6.554   9.911  10.821  1.4901 -1.8124 -1.3252
   25MOL0     H 3242   6.534   9.871  10.996  1.2558  2.4193 -0.6506
   25MOL0     H 3243   6.358   9.739  10.780 -1.2570  0.6852  0.5156
   25MOL0     H 3244   6.357   9.711  10.951 -0.7796  0.9696  0.8948
   25MOL0     H 3245   6.338   9.979  10.826  0.3303  0.7428  2.3792
   25MOL0     H 3246   6.308   9.939  10.998 -1.2571  0.7893  1.1078
   25MOL0     H 3247   6.103   9.795  10.930 -3.0809  0.4931  0.0774
   25MOL0     H 3248   6.127   9.840  10.760 -0.5356 -0.6319  1.1352
   25MOL0     H 3249   6.084  10.043  10.978 -0.6873 -0.1258 -0.6914
   25MOL0     H 3250   6.096  10.084  10.812 -3.2129  1.7047 -0.1371
   25MOL0     H 3251   5.888   9.934  10.776 -0.2690 -0.4076  0.4395
   25MOL0     H 3252   5.864  10.084  10.846  0.4858 -0.2648 -3.7184
   25MOL0     H 3253   5.841  10.090  11.128 -2.1488  1.5333 -4.5477
   25MOL0     H 3254   5.584   9.940  11.318 -0.7043 -0.2852 -1.1764
   25MOL0     H 3255   5.745   9.994  11.363 -3.0874  2.4523  0.6587
   25MOL0     H 3256   5.819   9.756  11.410 -0.1978 -1.0749 -0.3782
   25MOL0     H 3257   5.654   9.713  11.341 -2.2232  1.0234 -0.0798
   25MOL0     H 3258   5.704   9.711  11.600 -2.3253 -1.9862 -0.3585
   25MOL0     H 3259   5.711   9.896  11.578 -1.4763 -0.0837  0.0619
   25MOL0     H 3260   5.466   9.863  11.484  0.7606  2.9869  0.9666
   25MOL0     H 3261   5.491   9.878  11.657  4.3574 -1.1643  1.6544
   25MOL0     H 3262   5.361   9.476  11.628  0.5041  0.1777 -0.6776
   25MOL0     H 3263   5.123   9.413  11.661 -1.0026  1.0086  2.8175
   25MOL0     H 3264   4.734   9.332  11.473 -0.3113  0.6304 -0.0679
   25MOL0     H 3265   4.493   9.243  11.501  1.6584 -2.1708  0.5648
   25MOL0     H 3266   4.289   9.220  11.529  0.8123 -0.7881  1.3565
   25MOL0     H 3267   4.266   9.396  11.553 -0.2800 -0.1624 -0.9557
   25MOL0     H 3268   4.089   9.357  11.720 -2.8544  0.6754 -2.7111
   25MOL0     H 3269   4.111   9.176  11.691 -2.6743  0.3603  0.5124
   25MOL0     H 3270   4.067   9.219  11.462 -0.5441 -2.1485  2.0397
   25MOL0     H 3271   4.026   9.391  11.507  2.9826  1.6345  2.8102
   25MOL0     H 3272   3.883   9.141  11.619  2.6170  0.3078  2.3002
   25MOL0     H 3273   3.853   9.309  11.670 -1.8056  3.6441 -2.9182
   25MOL0     H 3274   3.831   9.219  11.387 -2.9078  1.8148 -1.7876
   25MOL0     H 3275   3.793   9.380  11.438 -0.5301 -1.0620 -1.0921
   25MOL0     H 3276   3.609   9.300  11.576  2.2839 -0.2532  1.2445
   25MOL0     H 3277   3.650   9.136  11.545 -0.9670  0.5188  0.9899
   25MOL0     H 3278   3.574   9.349  11.326 -0.2971  0.8135 -0.2792
   25MOL0     H 3279   3.614   9.178  11.299  2.2774  3.4685 -0.4460
   25MOL0     H 3280   3.378   9.193  11.285 -1.8675  2.3204 -0.6573
   25MOL0     H 3281   3.352   9.296  11.423  1.9549  2.1624  0.2533
   25MOL0     H 3282   4.488   9.427  11.895 -1.3921  1.2347 -1.1626
   25MOL0     H 3283   4.724   9.486  11.875 -3.5504 -0.9222  2.8097
   25MOL0     H 3284   5.007   9.804  11.543 -0.2132 -2.2545 -2.8431
   25MOL0     H 3285   5.259   9.884  11.565  0.0840  0.1765  3.1625
   25MOL0     H 3286   7.100   9.570  10.922 -2.1820  0.1998 -3.1889
   25MOL0     H 3287   7.334   9.649  10.903 -0.0251  0.3332  0.6594
   25MOL0     H 3288   7.558  10.163  10.596 -2.8463 -1.1402  1.6858
   25MOL0     H 3289   7.804  10.253  10.606 -2.1260  1.1167  0.5590
   25MOL0     H 3290   8.120  10.216  10.677 -1.7875  0.3754 -0.9959
   25MOL0     H 3291   8.028  10.072  10.649  0.9797  0.4089 -1.1154
   25MOL0     H 3292   8.121   9.942  10.807 -0.7844 -0.0477 -1.9490
   25MOL0     H 3293   8.247  10.019  10.723 -0.0553  1.0270  0.5526
   25MOL0     H 3294   8.142  10.093  11.008  2.5238  1.7616  0.4818
   25MOL0     H 3295   8.261  10.189  10.909  4.3998 -0.8783  0.5583
   25MOL0     H 3296   8.372  10.059  11.094 -2.8425 -1.7074  2.0611
   25MOL0     H 3297   8.326   9.909  11.025 -0.2151 -0.8563 -3.4200
   25MOL0     H 3298   8.616  10.066  10.753 -0.8360 -3.3229 -0.9716
   25MOL0     H 3299   7.851  10.009  10.951 -0.4337 -3.5589 -2.5126
   25MOL0     H 3300   7.619   9.936  10.944  3.3697 -3.6627 -0.8261
   26MOL0     O 3301   0.775   9.936   0.352  0.5142  0.0656 -0.0911
   26MOL0     C 3302   0.750   9.954   0.470 -0.4079  0.3226 -0.5250
   26MOL0     O 3303   0.635  10.007   0.519 -0.5264 -0.0499 -0.6585
   26MOL0     C 3304   0.535  10.043   0.433  0.6027 -0.7325  0.0513
   26MOL0     C 3305   0.470  10.159   0.458 -0.5311  0.8347  0.5449
   26MOL0     C 3306   0.368  10.213   0.387  0.6310 -0.0960 -0.6458
   26MOL0     C 3307   0.314  10.147   0.274  0.9097  0.0562 -0.3894
   26MOL0     O 3308   0.198  10.191   0.210  0.3161  0.0290  0.4270
   26MOL0     C 3309   0.130  10.095   0.124  0.2684  0.5603 -0.3260
   26MOL0     C 3310   0.018  10.168   0.061  1.0272  0.2476 -1.2163
   26MOL0     C 3311  -0.128  10.104   0.094 -0.1536  0.5150  0.1380
   26MOL0     C 3312  -0.236  10.191   0.022 -0.2830 -0.0981  0.8162
   26MOL0     C 3313  -0.211  10.198  -0.136 -0.0211 -0.0256  1.3634
   26MOL0     C 3314  -0.319  10.280  -0.227  0.2330  0.1580  0.2630
   26MOL0     C 3315  -0.441  10.201  -0.276 -0.8621  0.5280 -0.7346
   26MOL0     C 3316  -0.405  10.100  -0.385 -0.0519 -0.3048  0.1782
   26MOL0     N 3317  -0.457   9.974  -0.356  1.2523  0.0434 -0.0037
   26MOL0     C 3318  -0.376   9.877  -0.292  0.3564 -0.6802 -0.7275
   26MOL0     C 3319  -0.456   9.771  -0.301 -0.0047 -0.0834  0.0020
   26MOL0     C 3320  -0.418   9.631  -0.271 -0.3838 -0.3980  0.0596
   26MOL0     C 3321  -0.291   9.605  -0.191 -0.1431 -1.1351  0.6638
   26MOL0     C 3322  -0.168   9.627  -0.273  0.3187 -0.8341  0.3309
   26MOL0     C 3323  -0.049   9.562  -0.205 -0.9418 -0.3770  0.4620
   26MOL0     O 3324  -0.031   9.636  -0.079  0.2608 -0.6207  1.1750
   26MOL0     C 3325   0.070   9.602  -0.000  0.2880 -0.3316  0.2598
   26MOL0     C 3326   0.107   9.693   0.105  0.0167  0.6156  0.2762
   26MOL0     C 3327   0.226   9.681   0.173 -0.1916  0.8652  0.2103
   26MOL0     C 3328   0.305   9.566   0.156 -0.1532 -0.5226 -1.5610
   26MOL0     C 3329   0.428   9.548   0.237  0.2423  0.1147  0.8427
   26MOL0     O 3330   0.495   9.442   0.206  0.1198  0.1414 -0.1379
   26MOL0     C 3331   0.627   9.422   0.238  0.3149 -0.1906 -0.3458
   26MOL0     C 3332   0.730   9.521   0.241 -0.2218  0.3641  0.2599
   26MOL0     C 3333   0.857   9.484   0.264  0.1692 -0.0724 -1.1373
   26MOL0     C 3334   0.892   9.347   0.274 -0.4117 -0.4113 -0.3677
   26MOL0     O 3335   1.024   9.310   0.284 -0.4187 -0.8081  0.7194
   26MOL0     C 3336   1.069   9.268   0.413 -0.2626 -1.2348 -0.1037
   26MOL0     C 3337   1.148   9.146   0.399 -0.1256  0.1754  0.1940
   26MOL0     C 3338   1.228   9.113   0.519  0.0302  0.3629  0.5026
   26MOL0     C 3339   1.337   9.009   0.495  0.1781  0.1967  0.7024
   26MOL0     C 3340   1.385   8.954   0.630  0.0226  0.2741 -0.7221
   26MOL0     C 3341   1.509   8.862   0.625  0.1063  0.5841 -0.3047
   26MOL0     C 3342   1.632   8.911   0.545  0.5580 -0.1626 -0.1375
   26MOL0     C 3343   1.696   9.039   0.592  0.7780 -0.2087  0.0414
   26MOL0    Cl 3344   1.755   9.022   0.765  0.0781  0.3172  0.0459
   26MOL0     C 3345   0.793   9.245   0.266  0.7881 -0.4722  0.6941
   26MOL0     C 3346   0.658   9.289   0.252  0.0534 -0.1800  0.6279
   26MOL0     O 3347   0.456   9.625   0.323 -0.6655 -0.4367  0.3774
   26MOL0     C 3348   0.270   9.469   0.060 -0.0228  0.2680 -0.0877
   26MOL0     C 3349   0.148   9.486  -0.010 -0.5346 -0.3590 -0.2775
   26MOL0     N 3350  -0.578   9.811  -0.355 -0.0579 -0.4397 -0.0854
   26MOL0     N 3351  -0.586   9.935  -0.383  0.0280 -0.0732 -0.1248
   26MOL0     C 3352   0.377  10.025   0.244 -0.4768 -0.3174  0.0465
   26MOL0     C 3353   0.482   9.968   0.326  0.9190  0.0283  0.1503
   26MOL0     C 3354   0.867   9.922   0.561 -0.0634 -0.3077 -0.2922
   26MOL0     C 3355   0.852   9.943   0.700  0.1582 -0.8947 -0.4955
   26MOL0     C 3356   0.955   9.931   0.798  0.0893 -0.1117 -0.1462
   26MOL0     C 3357   1.085   9.910   0.756  0.1481 -0.7211  0.9522
   26MOL0     O 3358   1.185   9.908   0.848  0.0387 -0.3383  0.0441
   26MOL0     C 3359   1.311   9.968   0.824 -0.7182  0.7021  0.8946
   26MOL0     C 3360   1.384   9.986   0.958  0.1071  0.5357 -0.3066
   26MOL0     C 3361   1.545   9.975   0.928  1.1078  0.3617  1.1811
   26MOL0     C 3362   1.615   9.980   1.061  0.0812 -0.2939 -0.4297
   26MOL0     C 3363   1.628  10.126   1.086  0.6685  0.4145 -0.0202
   26MOL0     C 3364   1.626  10.248   1.087  0.1326 -0.3474  0.3004
   26MOL0     C 3365   1.105   9.888   0.613  0.2115  0.2441  0.1818
   26MOL0     C 3366   1.002   9.895   0.523 -0.0647 -1.0373 -0.0077
   26MOL0     H 3367   0.488  10.225   0.542 -2.8490  2.0445  0.1652
   26MOL0     H 3368   0.333  10.315   0.399 -1.1942 -0.5638 -1.6901
   26MOL0     H 3369   0.097  10.009   0.183 -2.3800  0.5492 -1.6880
   26MOL0     H 3370   0.185  10.050   0.041 -1.4214 -3.6019  0.5555
   26MOL0     H 3371   0.033  10.162  -0.047  1.2663  0.6615 -1.2098
   26MOL0     H 3372   0.011  10.274   0.089  1.7498  0.0059 -0.0964
   26MOL0     H 3373  -0.141  10.110   0.203 -1.5624  0.7400 -0.0260
   26MOL0     H 3374  -0.134  10.000   0.061 -1.8424  0.6164  0.0472
   26MOL0     H 3375  -0.333  10.144   0.035  2.1267 -6.2994 -0.2625
   26MOL0     H 3376  -0.245  10.295   0.054  0.3789  0.2895 -0.1985
   26MOL0     H 3377  -0.198  10.096  -0.172  1.1149  0.0442  1.5397
   26MOL0     H 3378  -0.117  10.251  -0.153 -1.4062  1.2978 -3.9672
   26MOL0     H 3379  -0.274  10.297  -0.325 -2.1642 -2.7624 -1.5062
   26MOL0     H 3380  -0.343  10.374  -0.177  1.1260  0.5916 -0.0867
   26MOL0     H 3381  -0.491  10.147  -0.195  1.2166 -1.0153 -0.3916
   26MOL0     H 3382  -0.518  10.270  -0.310 -2.2979 -1.7754 -2.5191
   26MOL0     H 3383  -0.298  10.087  -0.399 -0.4603 -2.7787 -1.4484
   26MOL0     H 3384  -0.456  10.137  -0.475 -1.1762 -0.2533  0.8156
   26MOL0     H 3385  -0.273   9.882  -0.258 -0.1969 -0.6908  1.0428
   26MOL0     H 3386  -0.415   9.569  -0.361  2.1620 -3.1181  1.7933
   26MOL0     H 3387  -0.497   9.603  -0.201 -0.3105 -1.6301 -0.3167
   26MOL0     H 3388  -0.297   9.504  -0.151  2.0994 -1.1077  1.1804
   26MOL0     H 3389  -0.296   9.681  -0.112  2.5171  0.3954 -0.5138
   26MOL0     H 3390  -0.189   9.578  -0.369 -0.2564  0.0512 -0.0051
   26MOL0     H 3391  -0.146   9.731  -0.300  1.2393 -0.9383  0.6385
   26MOL0     H 3392   0.038   9.568  -0.272 -0.6910  0.6381  0.8670
   26MOL0     H 3393  -0.056   9.452  -0.203 -1.7433 -0.3471 -0.1091
   26MOL0     H 3394   0.053   9.787   0.109  1.7445  1.6324  0.3429
   26MOL0     H 3395   0.254   9.755   0.248 -1.3590  1.9928 -0.4354
   26MOL0     H 3396   0.708   9.627   0.231  0.3456  0.5151  0.5710
   26MOL0     H 3397   0.933   9.553   0.300 -2.3703  1.4898  1.6649
   26MOL0     H 3398   0.987   9.243   0.481 -0.4696 -0.3411 -0.0157
   26MOL0     H 3399   1.126   9.346   0.464  1.7035  0.9187 -4.8986
   26MOL0     H 3400   1.223   9.147   0.319  0.0354 -0.8999  0.3120
   26MOL0     H 3401   1.076   9.068   0.369  0.5791 -0.8867  1.1713
   26MOL0     H 3402   1.153   9.080   0.592  1.0425  0.3138  1.5352
   26MOL0     H 3403   1.276   9.203   0.558 -0.8524  0.8170  0.5801
   26MOL0     H 3404   1.292   8.931   0.433 -1.3599  0.7783  1.0544
   26MOL0     H 3405   1.431   9.054   0.461  0.1766  1.3874  2.1923
   26MOL0     H 3406   1.300   8.908   0.681 -0.2631  1.7463  0.2025
   26MOL0     H 3407   1.414   9.037   0.696 -0.5174 -1.5551  1.9890
   26MOL0     H 3408   1.484   8.760   0.594 -1.2924  0.9025 -0.2948
   26MOL0     H 3409   1.542   8.856   0.729 -1.8232 -1.4492  0.2464
   26MOL0     H 3410   1.697   8.822   0.546 -2.2519 -2.4975 -2.6592
   26MOL0     H 3411   1.608   8.921   0.438 -0.1691  1.9036  0.1746
   26MOL0     H 3412   1.620   9.116   0.577 -0.0463 -1.1399 -0.6659
   26MOL0     H 3413   1.782   9.063   0.528 -1.2674  3.7102 -1.6156
   26MOL0     H 3414   0.813   9.138   0.265 -1.6117 -0.9685 -1.1150
   26MOL0     H 3415   0.587   9.210   0.231  0.6842 -1.0902  1.7897
   26MOL0     H 3416   0.322   9.380   0.025 -2.0580 -0.6520 -0.9460
   26MOL0     H 3417   0.117   9.412  -0.083 -3.7595 -1.5033  2.0079
   26MOL0     H 3418   0.342   9.968   0.159 -1.1530  3.1170 -2.1725
   26MOL0     H 3419   0.520   9.868   0.311 -1.2060 -0.3203 -4.7088
   26MOL0     H 3420   0.749   9.964   0.728  0.0022  1.0927 -2.3246
   26MOL0     H 3421   0.934   9.944   0.903  1.8491 -4.8881  1.0616
   26MOL0     H 3422   1.308  10.060   0.766  2.8766  0.1142 -0.4458
   26MOL0     H 3423   1.356   9.892   0.759  0.1525 -0.3155  2.6095
   26MOL0     H 3424   1.358  10.084   0.999  2.2115  0.9032  0.2750
   26MOL0     H 3425   1.357   9.906   1.027  1.1022 -0.1033 -0.6418
   26MOL0     H 3426   1.574  10.056   0.861  0.7550 -0.7609 -0.3812
   26MOL0     H 3427   1.559   9.877   0.882 -2.7847  1.5410 -3.2704
   26MOL0     H 3428   1.557   9.929   1.139  1.6342 -0.4004  0.7066
   26MOL0     H 3429   1.709   9.924   1.054  1.7312  2.2560  0.0763
   26MOL0     H 3430   1.623  10.355   1.091 -1.1561 -0.1758 -2.5052
   26MOL0     H 3431   1.207   9.866   0.586  0.2534 -0.2301  0.7013
   26MOL0     H 3432   1.037   9.887   0.421  4.6068  2.8393  0.9594
   27MOL0     O 3433   0.242   1.021   4.202  0.5094 -0.1639 -0.2481
   27MOL0     C 3434   0.237   0.909   4.148  0.2218 -0.4715 -0.4158
   27MOL0     O 3435   0.144   0.817   4.177 -0.4567 -0.6753 -0.2070
   27MOL0     C 3436   0.035   0.850   4.252  0.3915 -0.6731 -0.1167
   27MOL0     C 3437   0.043   0.852   4.394  0.5793 -0.6017  1.0890
   27MOL0     C 3438  -0.061   0.917   4.465 -0.4980 -0.5523 -0.1661
   27MOL0     C 3439  -0.182   0.954   4.394 -0.2643  0.7412 -0.5412
   27MOL0     O 3440  -0.290   1.003   4.464 -0.3343  0.6475 -0.0765
   27MOL0     C 3441  -0.423   1.001   4.401  1.1330 -0.0797 -0.7046
   27MOL0     C 3442  -0.516   1.069   4.494 -0.2289 -0.1279 -0.1114
   27MOL0     C 3443  -0.667   1.022   4.488 -0.6782  0.1638 -0.3170
   27MOL0     C 3444  -0.770   1.138   4.502 -0.5612  0.3568  0.2890
   27MOL0     C 3445  -0.908   1.083   4.521 -0.5091 -0.0705  0.5543
   27MOL0     C 3446  -1.010   1.192   4.531  0.1698 -0.4068 -0.3991
   27MOL0     C 3447  -1.156   1.142   4.530  0.2353 -0.8669  0.1037
   27MOL0     C 3448  -1.265   1.237   4.565 -0.9398 -0.4233  0.6309
   27MOL0     N 3449  -1.233   1.309   4.683 -0.1203 -0.0439  0.7402
   27MOL0     C 3450  -1.324   1.308   4.783 -0.2010 -0.0318 -0.2185
   27MOL0     C 3451  -1.304   1.415   4.868  0.8113  0.7116 -0.2948
   27MOL0     C 3452  -1.400   1.455   4.977 -0.4566 -0.8813 -0.3439
   27MOL0     C 3453  -1.349   1.418   5.113  0.3895 -0.5601  0.4305
   27MOL0     C 3454  -1.419   1.481   5.229  0.6065 -0.0679  0.4944
   27MOL0     C 3455  -1.569   1.442   5.225  0.9907  0.2362 -0.0400
   27MOL0     O 3456  -1.628   1.502   5.347 -0.0035  0.3475  0.2065
   27MOL0     C 3457  -1.759   1.523   5.351  0.0865  0.7322 -0.1539
   27MOL0     C 3458  -1.852   1.453   5.264  0.7292  0.0008 -0.3895
   27MOL0     C 3459  -1.992   1.475   5.272 -0.4575  0.0303  0.0318
   27MOL0     C 3460  -2.038   1.591   5.333  0.3558  0.0414 -0.6781
   27MOL0     C 3461  -2.184   1.628   5.324  0.2057 -0.0149  0.3023
   27MOL0     O 3462  -2.266   1.552   5.255  0.0243 -0.9620 -0.6416
   27MOL0     C 3463  -2.404   1.561   5.288  1.0060  0.1022 -0.2745
   27MOL0     C 3464  -2.458   1.509   5.407 -0.5179 -0.1258  0.1080
   27MOL0     C 3465  -2.596   1.507   5.437  1.0351  0.2028  0.1264
   27MOL0     C 3466  -2.685   1.561   5.345 -0.6266  0.5624 -0.0157
   27MOL0     O 3467  -2.820   1.575   5.346  0.1791  0.2257  0.2368
   27MOL0     C 3468  -2.898   1.504   5.444 -0.2507 -0.4774  0.1443
   27MOL0     C 3469  -3.042   1.504   5.400  1.0426  0.2742  0.9204
   27MOL0     C 3470  -3.118   1.372   5.441 -0.4707 -0.3986 -0.3015
   27MOL0     C 3471  -3.268   1.390   5.439 -0.0495 -0.0559  0.1370
   27MOL0     C 3472  -3.320   1.478   5.562  1.3911  0.3961  0.6055
   27MOL0     C 3473  -3.469   1.527   5.548  0.9916  0.0249  0.6920
   27MOL0     C 3474  -3.512   1.574   5.687 -0.3004  0.3132  0.8816
   27MOL0     C 3475  -3.641   1.651   5.689  0.9578  0.1795  0.5692
   27MOL0    Cl 3476  -3.618   1.809   5.620 -0.3283 -0.4788 -0.7148
   27MOL0     C 3477  -2.637   1.609   5.224  0.3021 -0.0756  0.2167
   27MOL0     C 3478  -2.498   1.605   5.191 -0.2956  0.5477  0.9425
   27MOL0     O 3479  -2.218   1.734   5.380 -0.2850  0.3481 -0.3889
   27MOL0     C 3480  -1.951   1.667   5.415 -0.2206 -0.8912 -0.5344
   27MOL0     C 3481  -1.813   1.625   5.431 -0.1713 -0.0630 -0.3686
   27MOL0     N 3482  -1.213   1.487   4.801 -0.3428  0.3817  0.5441
   27MOL0     N 3483  -1.171   1.429   4.692 -0.3576 -0.3077  0.3187
   27MOL0     C 3484  -0.198   0.921   4.258  0.7693  0.3689  0.3373
   27MOL0     C 3485  -0.084   0.875   4.190 -0.0474  0.1117  0.6348
   27MOL0     C 3486   0.332   0.894   4.031  0.2867 -0.5917 -0.6129
   27MOL0     C 3487   0.324   0.775   3.966 -0.2585  0.6703 -0.4088
   27MOL0     C 3488   0.402   0.743   3.854 -0.2340 -0.1558 -0.6496
   27MOL0     C 3489   0.482   0.842   3.801 -0.2335  0.0978  0.2002
   27MOL0     O 3490   0.555   0.804   3.688 -0.3419 -0.0032 -0.7526
   27MOL0     C 3491   0.628   0.913   3.617  0.5858 -0.3839  0.6326
   27MOL0     C 3492   0.639   0.840   3.483 -0.1219  0.4919  0.4166
   27MOL0     C 3493   0.719   0.926   3.381 -1.5171 -0.1277  0.1728
   27MOL0     C 3494   0.720   0.843   3.249  0.7491 -0.4078  0.2104
   27MOL0     C 3495   0.813   0.890   3.149 -0.4545 -0.6672 -0.3619
   27MOL0     C 3496   0.893   0.924   3.064  0.6865  0.2614  0.7197
   27MOL0     C 3497   0.498   0.961   3.864 -0.1618  0.0953 -0.5809
   27MOL0     C 3498   0.423   0.990   3.979 -0.2297  0.3555 -0.2473
   27MOL0     H 3499   0.128   0.819   4.453 -0.4596 -0.4909  2.7257
   27MOL0     H 3500  -0.033   0.932   4.569  2.6216 -0.2104 -0.9580
   27MOL0     H 3501  -0.455   0.900   4.375 -2.9729  0.5018  1.1500
   27MOL0     H 3502  -0.445   1.051   4.306 -0.8996 -1.3692 -0.9926
   27MOL0     H 3503  -0.509   1.177   4.479  2.1848  0.1109  2.0152
   27MOL0     H 3504  -0.483   1.042   4.594  1.5032 -1.0789 -0.8894
   27MOL0     H 3505  -0.685   0.942   4.560  1.3301  1.3707  1.6454
   27MOL0     H 3506  -0.676   0.989   4.384  3.1429  3.3904 -1.9431
   27MOL0     H 3507  -0.739   1.210   4.579  0.0026  0.9178 -0.4567
   27MOL0     H 3508  -0.770   1.189   4.405 -1.4053 -1.7742 -0.8996
   27MOL0     H 3509  -0.903   1.015   4.606 -1.9826 -0.8979  0.0231
   27MOL0     H 3510  -0.935   1.010   4.443  0.2580  1.4287 -1.1800
   27MOL0     H 3511  -0.985   1.271   4.461 -2.9281  1.6783  0.6292
   27MOL0     H 3512  -0.990   1.235   4.630 -2.6037 -0.0484  0.1007
   27MOL0     H 3513  -1.183   1.130   4.424  1.1976  1.4537 -0.4589
   27MOL0     H 3514  -1.165   1.055   4.595  0.2498 -0.5576  0.5250
   27MOL0     H 3515  -1.366   1.194   4.564 -0.4161 -1.7660  1.7441
   27MOL0     H 3516  -1.257   1.319   4.494  2.0706  1.4845  2.9309
   27MOL0     H 3517  -1.407   1.238   4.783 -1.3679  1.2797  0.2900
   27MOL0     H 3518  -1.493   1.401   4.956 -0.4374 -1.0450 -0.0121
   27MOL0     H 3519  -1.417   1.563   4.971  2.8184 -0.3410 -3.5349
   27MOL0     H 3520  -1.244   1.449   5.113  0.3813 -0.5280  0.2130
   27MOL0     H 3521  -1.352   1.309   5.116  2.0054 -0.6302  0.4645
   27MOL0     H 3522  -1.374   1.440   5.319  0.0940 -0.0352  0.7703
   27MOL0     H 3523  -1.408   1.590   5.237  3.3435 -0.2495  0.2721
   27MOL0     H 3524  -1.593   1.336   5.221 -1.8594  0.6616  2.2805
   27MOL0     H 3525  -1.609   1.483   5.132 -0.8615 -1.1304  0.1079
   27MOL0     H 3526  -1.808   1.398   5.183  3.7952 -0.2407  1.3045
   27MOL0     H 3527  -2.058   1.421   5.205  1.8180 -0.9726 -1.5581
   27MOL0     H 3528  -2.392   1.467   5.483  0.0844 -0.5009 -0.6100
   27MOL0     H 3529  -2.626   1.458   5.529 -1.7975 -2.7955 -2.1362
   27MOL0     H 3530  -2.886   1.535   5.548  2.1202 -1.5592  0.2583
   27MOL0     H 3531  -2.856   1.403   5.450  3.4788  0.9540  0.8340
   27MOL0     H 3532  -3.050   1.502   5.291 -1.6282  2.3176  0.9739
   27MOL0     H 3533  -3.088   1.596   5.438  2.8592  1.7506 -0.2973
   27MOL0     H 3534  -3.085   1.353   5.544 -0.8573  2.1191  0.3539
   27MOL0     H 3535  -3.086   1.284   5.385 -1.9072  1.0873 -3.7264
   27MOL0     H 3536  -3.302   1.427   5.342 -0.3394 -1.6798 -0.4181
   27MOL0     H 3537  -3.304   1.289   5.462 -0.6186  0.4861  1.8177
   27MOL0     H 3538  -3.262   1.571   5.565 -0.5217  1.6966 -0.1336
   27MOL0     H 3539  -3.314   1.407   5.645  0.3273 -0.2965  0.1121
   27MOL0     H 3540  -3.540   1.448   5.525 -1.6462  2.5808 -0.5515
   27MOL0     H 3541  -3.482   1.613   5.481 -3.5177 -1.1127 -0.1772
   27MOL0     H 3542  -3.515   1.494   5.762  1.8098  0.5310  1.2400
   27MOL0     H 3543  -3.430   1.641   5.712 -0.0046  2.2833 -4.1322
   27MOL0     H 3544  -3.684   1.664   5.789  0.4200  1.8768  0.1573
   27MOL0     H 3545  -3.715   1.590   5.636 -0.1951 -0.7227  3.0737
   27MOL0     H 3546  -2.701   1.643   5.144 -0.2018 -0.7235  0.3338
   27MOL0     H 3547  -2.463   1.637   5.094  0.2345 -1.2845  0.4833
   27MOL0     H 3548  -1.990   1.743   5.482  0.3742  0.4052 -1.5955
   27MOL0     H 3549  -1.744   1.685   5.490 -0.5758  2.7602 -2.5808
   27MOL0     H 3550  -0.291   0.955   4.213 -1.2985  1.6994  4.9153
   27MOL0     H 3551  -0.075   0.865   4.083 -2.7441 -1.1863  0.4345
   27MOL0     H 3552   0.259   0.692   3.993  0.2718  0.6421  0.8615
   27MOL0     H 3553   0.406   0.641   3.816  0.3419  0.2943 -1.8132
   27MOL0     H 3554   0.728   0.920   3.660  0.4732 -1.5682  1.1309
   27MOL0     H 3555   0.572   1.006   3.605  0.2170 -0.1128  3.8215
   27MOL0     H 3556   0.699   0.751   3.506 -1.3343 -1.3974 -2.9831
   27MOL0     H 3557   0.540   0.811   3.448 -0.0368  2.0499 -1.2464
   27MOL0     H 3558   0.821   0.917   3.417 -0.9578  0.2191 -1.2573
   27MOL0     H 3559   0.703   1.034   3.373 -0.1695  0.1185  0.6286
   27MOL0     H 3560   0.748   0.738   3.267 -1.1058 -1.0992 -0.6312
   27MOL0     H 3561   0.621   0.849   3.202  0.9931  2.1134 -0.1183
   27MOL0     H 3562   0.977   0.946   3.002  0.6575 -0.5651  0.3711
   27MOL0     H 3563   0.569   1.033   3.824  1.2505 -0.7910  0.2468
   27MOL0     H 3564   0.454   1.078   4.034  0.0383  1.0460 -1.4830
   28MOL0     O 3565   6.463   2.938   8.681  0.5938  0.1866  0.2388
   28MOL0     C 3566   6.551   3.012   8.721  0.6723  0.0198  0.0756
   28MOL0     O 3567   6.529   3.107   8.812  0.1976 -0.3223  0.2958
   28MOL0     C 3568   6.411   3.142   8.875  0.0387 -0.5582 -0.1614
   28MOL0     C 3569   6.279   3.107   8.836  0.0343 -0.6697  0.5674
   28MOL0     C 3570   6.168   3.130   8.911  0.0570 -0.1202  0.5307
   28MOL0     C 3571   6.188   3.191   9.030  0.0245 -0.3823 -0.2333
   28MOL0     O 3572   6.078   3.194   9.122 -0.3616  0.3413 -0.2837
   28MOL0     C 3573   6.027   3.061   9.171 -0.2086  0.7150 -0.4068
   28MOL0     C 3574   5.882   3.075   9.205  0.5175 -0.6244  0.0820
   28MOL0     C 3575   5.793   3.029   9.089 -0.8655  0.4583  0.9835
   28MOL0     C 3576   5.651   3.071   9.103 -0.0568  0.1735  0.6770
   28MOL0     C 3577   5.572   3.003   8.991  0.0458  0.6094  0.3658
   28MOL0     C 3578   5.426   3.000   8.991 -0.1719 -0.3026  0.5027
   28MOL0     C 3579   5.383   2.917   8.867 -0.8063 -0.5887 -0.3620
   28MOL0     C 3580   5.235   2.867   8.876  0.2056 -0.4209  0.3499
   28MOL0     N 3581   5.200   2.791   8.751 -0.5019  0.3579  0.6877
   28MOL0     C 3582   5.253   2.669   8.713 -0.4540 -0.4135  0.4547
   28MOL0     C 3583   5.199   2.645   8.589  0.4135 -0.0937  0.0323
   28MOL0     C 3584   5.225   2.528   8.500 -0.0904  0.7535 -0.3098
   28MOL0     C 3585   5.174   2.385   8.555 -0.6239 -1.0568  0.3974
   28MOL0     C 3586   5.039   2.373   8.621 -0.2016 -0.3349  0.5207
   28MOL0     C 3587   4.922   2.433   8.539 -0.4455 -0.6575  0.2113
   28MOL0     O 3588   4.896   2.371   8.418 -0.8395  0.2531 -0.1057
   28MOL0     C 3589   4.779   2.316   8.387  0.8729  0.0021 -0.9323
   28MOL0     C 3590   4.656   2.384   8.405  0.0283 -0.7657  0.2133
   28MOL0     C 3591   4.541   2.330   8.348 -0.5360  0.1520  0.4889
   28MOL0     C 3592   4.541   2.212   8.270  0.7006  0.0886  0.9029
   28MOL0     C 3593   4.419   2.164   8.211 -0.8262 -0.0564  0.3533
   28MOL0     O 3594   4.329   2.258   8.169  0.2996 -0.0961  0.1163
   28MOL0     C 3595   4.215   2.213   8.103  0.1609 -0.3161  0.0502
   28MOL0     C 3596   4.141   2.100   8.117 -0.1853  0.0272  0.1018
   28MOL0     C 3597   4.034   2.070   8.035 -0.7811  0.0181 -0.0889
   28MOL0     C 3598   3.997   2.156   7.933 -0.8742 -0.8966  0.3926
   28MOL0     O 3599   3.889   2.138   7.845 -0.1863 -0.2197  0.2841
   28MOL0     C 3600   3.808   2.023   7.866 -0.2001  0.0764  0.1243
   28MOL0     C 3601   3.687   2.026   7.772  0.0738  0.3831  0.6284
   28MOL0     C 3602   3.734   2.030   7.625 -0.3095  0.3084  0.0636
   28MOL0     C 3603   3.807   1.893   7.567  0.0396 -0.7150  0.7381
   28MOL0     C 3604   3.744   1.762   7.612 -0.0604 -0.2067  0.5750
   28MOL0     C 3605   3.824   1.638   7.568 -0.3679 -0.0149  0.3229
   28MOL0     C 3606   3.952   1.634   7.644 -0.4804 -0.0228 -1.5315
   28MOL0     C 3607   3.988   1.495   7.693  0.5341 -0.0772 -0.0116
   28MOL0    Cl 3608   4.155   1.492   7.763 -0.2692  0.1952 -0.7057
   28MOL0     C 3609   4.063   2.282   7.927  0.3544  0.2265  0.4367
   28MOL0     C 3610   4.171   2.304   8.003 -0.5941  1.2494 -0.7303
   28MOL0     O 3611   4.413   2.038   8.212  1.5200 -0.2376 -0.5729
   28MOL0     C 3612   4.668   2.145   8.254 -0.6805  0.6806  0.1028
   28MOL0     C 3613   4.786   2.204   8.307  0.0320  0.5021  0.0494
   28MOL0     N 3614   5.111   2.753   8.568 -0.0108 -0.1008  0.3174
   28MOL0     N 3615   5.110   2.838   8.662  0.0370 -0.2608 -0.3069
   28MOL0     C 3616   6.314   3.238   9.073  0.4767  0.6463  0.5099
   28MOL0     C 3617   6.422   3.220   8.992  0.4817 -0.7585  0.2647
   28MOL0     C 3618   6.693   2.985   8.665  1.0406 -0.2138  0.4445
   28MOL0     C 3619   6.807   3.050   8.712 -0.0046  0.2425  0.2389
   28MOL0     C 3620   6.932   3.019   8.655  0.0757 -0.4050  0.4397
   28MOL0     C 3621   6.941   2.944   8.530 -0.7749  0.6136  0.1908
   28MOL0     O 3622   7.050   2.937   8.450 -0.1394 -0.7785 -0.4919
   28MOL0     C 3623   7.166   3.018   8.486 -0.1952 -0.2694  1.0593
   28MOL0     C 3624   7.273   2.937   8.579 -0.1397 -0.1936 -0.2665
   28MOL0     C 3625   7.420   2.967   8.540 -0.6136 -1.1124  0.7416
   28MOL0     C 3626   7.506   2.855   8.610 -0.5802 -0.2304  0.6575
   28MOL0     C 3627   7.642   2.850   8.547  0.3598 -0.3547 -0.7592
   28MOL0     C 3628   7.751   2.830   8.496 -0.5478 -0.5910 -0.9464
   28MOL0     C 3629   6.824   2.877   8.489 -1.0752  0.3989  0.3620
   28MOL0     C 3630   6.701   2.889   8.558 -0.6578 -1.1646  0.8744
   28MOL0     H 3631   6.257   3.072   8.735  2.2097 -2.2944  0.5727
   28MOL0     H 3632   6.065   3.111   8.882 -0.4250  0.8128  1.5911
   28MOL0     H 3633   6.085   3.026   9.257  3.4310 -0.4292 -3.0465
   28MOL0     H 3634   6.035   2.974   9.106 -5.4620 -1.3347  1.1693
   28MOL0     H 3635   5.856   3.180   9.222  0.1690 -0.6192 -0.4898
   28MOL0     H 3636   5.858   3.024   9.299  2.2756  0.0101  0.9342
   28MOL0     H 3637   5.793   2.920   9.084  0.5908  0.4953 -1.5635
   28MOL0     H 3638   5.839   3.066   8.997 -3.0337  0.4193 -0.1857
   28MOL0     H 3639   5.615   3.042   9.202 -1.4797  1.2962  0.5214
   28MOL0     H 3640   5.642   3.180   9.097 -0.3560  0.0675 -1.5954
   28MOL0     H 3641   5.614   2.902   8.990 -0.1765  0.5141  0.6293
   28MOL0     H 3642   5.608   3.047   8.897 -1.1583  2.7852  0.8450
   28MOL0     H 3643   5.384   3.100   8.997  0.3133 -0.1789  4.0349
   28MOL0     H 3644   5.394   2.947   9.082 -2.0157 -0.3768 -0.1594
   28MOL0     H 3645   5.400   2.977   8.778 -1.2094  1.6222  0.9802
   28MOL0     H 3646   5.447   2.831   8.849  0.2041  0.4427 -1.8489
   28MOL0     H 3647   5.178   2.960   8.874  0.2295 -0.3994 -2.3532
   28MOL0     H 3648   5.224   2.801   8.963 -4.4703 -1.2511 -0.5755
   28MOL0     H 3649   5.329   2.613   8.768 -0.6624 -1.5264 -0.3419
   28MOL0     H 3650   5.331   2.529   8.474  0.2448 -2.7638  0.4582
   28MOL0     H 3651   5.164   2.535   8.409 -1.1743 -2.0430  0.1113
   28MOL0     H 3652   5.249   2.345   8.624 -0.5015  0.3949  1.1357
   28MOL0     H 3653   5.163   2.321   8.466 -3.9032  0.8917 -0.7687
   28MOL0     H 3654   5.019   2.268   8.644 -0.3671 -0.0726  1.6266
   28MOL0     H 3655   5.053   2.407   8.725  0.2294 -1.6058  0.8984
   28MOL0     H 3656   4.943   2.534   8.503 -1.1506 -0.4545  0.3464
   28MOL0     H 3657   4.832   2.439   8.600 -1.6614 -0.7643 -1.5022
   28MOL0     H 3658   4.647   2.470   8.471  1.2479 -0.2176 -0.3166
   28MOL0     H 3659   4.443   2.377   8.358  0.1956  1.4928  1.8629
   28MOL0     H 3660   4.168   2.032   8.197  1.2008  0.1714 -0.2163
   28MOL0     H 3661   3.977   1.980   8.054  1.1906 -1.7531 -1.9715
   28MOL0     H 3662   3.761   2.028   7.965 -2.6020 -0.0263 -0.9470
   28MOL0     H 3663   3.875   1.936   7.854 -1.5785 -1.0550  0.3563
   28MOL0     H 3664   3.625   2.109   7.805  1.5452  3.0858 -2.7787
   28MOL0     H 3665   3.622   1.940   7.790  1.4381 -0.3231  2.4786
   28MOL0     H 3666   3.805   2.112   7.618 -1.0989  0.9537 -0.5108
   28MOL0     H 3667   3.648   2.064   7.566  0.5923  1.5026 -0.5849
   28MOL0     H 3668   3.814   1.905   7.459  0.1892  2.0327  0.9810
   28MOL0     H 3669   3.911   1.898   7.598  0.0370  0.2953  0.6189
   28MOL0     H 3670   3.641   1.748   7.579  0.1272 -2.3276  0.7448
   28MOL0     H 3671   3.738   1.765   7.721 -1.1683  0.1863  0.5152
   28MOL0     H 3672   3.840   1.633   7.460 -0.3711 -0.7140  0.3510
   28MOL0     H 3673   3.765   1.552   7.600 -1.4835  0.5992 -0.0233
   28MOL0     H 3674   4.025   1.690   7.585  0.9077 -0.0037  0.1244
   28MOL0     H 3675   3.953   1.691   7.737  2.2981 -0.3426 -1.2938
   28MOL0     H 3676   3.963   1.434   7.605 -3.2162 -0.8422  1.4210
   28MOL0     H 3677   3.913   1.465   7.766 -0.0600 -3.4019 -1.7688
   28MOL0     H 3678   4.047   2.347   7.841  1.7210 -0.6964 -0.5554
   28MOL0     H 3679   4.219   2.401   8.002 -0.9909  1.4453 -1.8681
   28MOL0     H 3680   4.674   2.046   8.211 -1.1704 -1.2803  4.0463
   28MOL0     H 3681   4.885   2.164   8.287 -0.3280 -1.7843  2.3171
   28MOL0     H 3682   6.321   3.280   9.173  2.1788 -2.4802  1.8486
   28MOL0     H 3683   6.524   3.255   9.007 -0.3550  2.4687 -0.8304
   28MOL0     H 3684   6.794   3.126   8.790 -2.8672 -0.9923  1.0993
   28MOL0     H 3685   7.022   3.072   8.685 -1.7172  2.1190  1.6748
   28MOL0     H 3686   7.146   3.122   8.514 -1.5115 -0.7119  1.8625
   28MOL0     H 3687   7.206   3.026   8.385  0.5605 -4.7440  0.8125
   28MOL0     H 3688   7.255   2.963   8.683 -0.4140 -0.3029 -0.2851
   28MOL0     H 3689   7.258   2.830   8.564  1.4756 -0.4688 -0.1546
   28MOL0     H 3690   7.448   3.067   8.576 -0.3156 -0.8347 -0.2417
   28MOL0     H 3691   7.435   2.963   8.432 -1.9486  2.5681  0.2531
   28MOL0     H 3692   7.507   2.868   8.719  0.6798 -2.4720  0.9872
   28MOL0     H 3693   7.465   2.758   8.580 -1.4023  0.7763 -1.6723
   28MOL0     H 3694   7.849   2.824   8.454  0.8166 -0.1608  1.9401
   28MOL0     H 3695   6.850   2.830   8.394 -1.7418  0.4416  0.1594
   28MOL0     H 3696   6.614   2.834   8.524 -1.3455 -1.3189  2.7906
   29MOL0     O 3697   9.739   5.733   4.457 -0.0739 -0.3396 -0.4837
   29MOL0     C 3698   9.754   5.816   4.368  0.2405  0.1036 -0.0094
   29MOL0     O 3699   9.671   5.916   4.337 -0.7920  0.3832  0.4955
   29MOL0     C 3700   9.544   5.932   4.372 -0.1703 -1.0540 -1.0405
   29MOL0     C 3701   9.470   5.836   4.435  0.5090 -0.4917 -0.0426
   29MOL0     C 3702   9.335   5.862   4.457 -0.4492 -0.6026  0.8768
   29MOL0     C 3703   9.274   5.988   4.436  0.5624 -0.1448  0.4315
   29MOL0     O 3704   9.134   6.014   4.456 -0.1181  0.3509 -0.1833
   29MOL0     C 3705   9.049   5.933   4.366 -0.2477 -0.4697 -0.3813
   29MOL0     C 3706   8.945   5.865   4.442  0.2659  0.1014 -0.2714
   29MOL0     C 3707   8.846   5.784   4.356 -0.2195  0.6954  0.4206
   29MOL0     C 3708   8.741   5.862   4.284  0.1321 -0.8772 -0.5343
   29MOL0     C 3709   8.611   5.783   4.248 -1.5551  0.0592 -0.9120
   29MOL0     C 3710   8.652   5.663   4.160 -0.7525  0.7054 -0.5084
   29MOL0     C 3711   8.531   5.584   4.105  0.2846  0.7339  0.2144
   29MOL0     C 3712   8.446   5.661   4.002  0.3370  0.3889  0.3754
   29MOL0     N 3713   8.386   5.563   3.916  0.0016  0.0028 -0.5381
   29MOL0     C 3714   8.286   5.481   3.943 -0.7871 -0.4947 -0.5956
   29MOL0     C 3715   8.255   5.413   3.834 -0.3635  0.4213  0.6103
   29MOL0     C 3716   8.135   5.330   3.826 -0.1459  0.5509 -1.3818
   29MOL0     C 3717   8.157   5.186   3.775 -0.0559 -0.6918  0.4056
   29MOL0     C 3718   8.182   5.175   3.625 -0.0111  0.5641  0.2557
   29MOL0     C 3719   8.101   5.048   3.567 -0.6044  0.4292  0.3418
   29MOL0     O 3720   7.962   5.063   3.606  0.6825 -0.4998 -0.2393
   29MOL0     C 3721   7.869   4.993   3.536 -0.2456  0.8789 -1.0387
   29MOL0     C 3722   7.733   5.031   3.546 -0.3354 -0.3087  0.1993
   29MOL0     C 3723   7.635   4.950   3.492  0.8759 -0.4296 -0.2062
   29MOL0     C 3724   7.665   4.821   3.437  0.5185 -0.1419  0.2486
   29MOL0     C 3725   7.549   4.742   3.372 -0.4320  0.6083 -0.0301
   29MOL0     O 3726   7.424   4.791   3.387  0.5636  0.7464 -0.4204
   29MOL0     C 3727   7.309   4.741   3.338  0.0051  0.3271  0.0261
   29MOL0     C 3728   7.196   4.821   3.356  1.0261 -0.6583 -0.8648
   29MOL0     C 3729   7.073   4.784   3.305 -0.4010 -0.0958 -0.6336
   29MOL0     C 3730   7.057   4.667   3.241  0.1622  0.2502  0.6310
   29MOL0     O 3731   6.922   4.639   3.198 -0.4218 -0.3922  0.3238
   29MOL0     C 3732   6.901   4.562   3.086 -0.8150  0.1001  0.6243
   29MOL0     C 3733   6.754   4.552   3.069 -0.0993  0.0982  0.0767
   29MOL0     C 3734   6.723   4.423   2.977 -0.5573  0.7882  0.3128
   29MOL0     C 3735   6.577   4.428   2.942  0.1176 -0.3465 -0.5547
   29MOL0     C 3736   6.532   4.313   2.845  0.6465  0.2764 -0.1749
   29MOL0     C 3737   6.380   4.317   2.815 -0.3975 -0.5756 -0.4881
   29MOL0     C 3738   6.366   4.224   2.692 -0.5947  0.3486  0.0477
   29MOL0     C 3739   6.224   4.183   2.664  0.2247 -0.1289 -0.4075
   29MOL0    Cl 3740   6.115   4.324   2.627 -0.5470 -0.0509 -0.0304
   29MOL0     C 3741   7.166   4.581   3.218  0.6180  0.4591 -0.2955
   29MOL0     C 3742   7.287   4.616   3.272 -0.0979 -0.4687  0.9086
   29MOL0     O 3743   7.578   4.628   3.332 -0.9642 -0.1363  0.0226
   29MOL0     C 3744   7.798   4.773   3.441  0.2874 -0.8258 -0.7563
   29MOL0     C 3745   7.896   4.866   3.485  0.2981 -0.3640  0.6454
   29MOL0     N 3746   8.342   5.460   3.735  0.0922  0.2750  0.5615
   29MOL0     N 3747   8.411   5.547   3.787 -0.0424  0.5485 -0.2256
   29MOL0     C 3748   9.355   6.085   4.380 -0.1159  0.4007  0.2424
   29MOL0     C 3749   9.492   6.059   4.352  0.3910  0.2306  0.4648
   29MOL0     C 3750   9.887   5.811   4.311  0.7333 -0.3029 -0.9453
   29MOL0     C 3751  10.000   5.784   4.395 -0.8166 -0.4216  0.6932
   29MOL0     C 3752  10.131   5.810   4.356  0.1659  0.1685  0.7150
   29MOL0     C 3753  10.151   5.854   4.216 -0.4455 -0.1862 -0.7348
   29MOL0     O 3754  10.269   5.912   4.164  0.2118  0.1503  0.2799
   29MOL0     C 3755  10.391   5.883   4.227  0.1454  0.6505 -0.3956
   29MOL0     C 3756  10.519   5.942   4.169  0.5009  1.4699 -0.4072
   29MOL0     C 3757  10.504   6.097   4.152  1.2437  0.9239 -0.0253
   29MOL0     C 3758  10.631   6.171   4.101  0.2350  0.0322 -0.2476
   29MOL0     C 3759  10.689   6.128   3.970 -1.0276  0.1705 -0.1242
   29MOL0     C 3760  10.722   6.063   3.876 -1.1183 -0.3603  0.6074
   29MOL0     C 3761  10.035   5.855   4.138 -0.0996  0.0660 -0.0286
   29MOL0     C 3762   9.898   5.839   4.182 -0.2101 -0.9174  0.5750
   29MOL0     H 3763   9.514   5.739   4.456 -0.4091 -0.9252 -0.1133
   29MOL0     H 3764   9.277   5.786   4.509  0.1307 -1.9601 -0.3955
   29MOL0     H 3765   9.109   5.863   4.307 -0.1385  1.6308 -2.9598
   29MOL0     H 3766   9.002   6.004   4.296  0.5110 -0.2003 -0.6246
   29MOL0     H 3767   8.887   5.938   4.499 -1.6020 -0.8373 -0.8893
   29MOL0     H 3768   8.995   5.798   4.513 -1.0588 -0.3705  0.2491
   29MOL0     H 3769   8.793   5.720   4.427 -0.6384 -0.5519 -0.9671
   29MOL0     H 3770   8.896   5.719   4.283 -0.9558 -2.8248  2.8182
   29MOL0     H 3771   8.718   5.944   4.353 -2.1413 -1.0995 -0.9464
   29MOL0     H 3772   8.788   5.898   4.192 -0.5819  3.6057  0.6187
   29MOL0     H 3773   8.544   5.848   4.192 -0.8688  1.3843 -0.2417
   29MOL0     H 3774   8.558   5.760   4.341 -0.4459  4.1029  0.9312
   29MOL0     H 3775   8.707   5.592   4.223 -4.6177 -3.8835 -1.6991
   29MOL0     H 3776   8.719   5.690   4.078  1.2729 -2.2431  0.0154
   29MOL0     H 3777   8.568   5.495   4.053  0.6948  0.4884  0.9179
   29MOL0     H 3778   8.466   5.537   4.179 -1.1392  1.1553 -0.7246
   29MOL0     H 3779   8.516   5.719   3.941  0.9483 -0.7745 -0.0438
   29MOL0     H 3780   8.378   5.722   4.062 -2.0616 -2.5885  0.9129
   29MOL0     H 3781   8.243   5.467   4.042  2.0674 -1.4727  0.6179
   29MOL0     H 3782   8.065   5.388   3.765 -3.5405  3.4573  4.4629
   29MOL0     H 3783   8.089   5.330   3.925  0.2332  0.3530 -1.2006
   29MOL0     H 3784   8.072   5.124   3.803 -0.4253 -0.9044 -1.0971
   29MOL0     H 3785   8.241   5.142   3.829  1.4106  1.5616  0.1204
   29MOL0     H 3786   8.162   5.270   3.573  2.4175 -0.3321 -2.6097
   29MOL0     H 3787   8.289   5.155   3.614 -0.4448 -2.9483  1.1980
   29MOL0     H 3788   8.139   4.953   3.606 -0.7051  0.2903  0.1018
   29MOL0     H 3789   8.116   5.051   3.459 -2.2187  1.2047  0.1087
   29MOL0     H 3790   7.709   5.122   3.599  1.7354  0.4214 -0.0110
   29MOL0     H 3791   7.528   4.969   3.501  0.6468 -2.3004  2.5146
   29MOL0     H 3792   7.190   4.909   3.419 -2.1891 -1.4186  0.0684
   29MOL0     H 3793   6.977   4.830   3.324 -0.1934  0.5958 -1.2212
   29MOL0     H 3794   6.953   4.468   3.104  2.5802  1.6674 -0.1284
   29MOL0     H 3795   6.948   4.612   3.001  3.2725 -3.1771  0.6371
   29MOL0     H 3796   6.720   4.635   3.006 -1.3188 -1.2168 -1.0742
   29MOL0     H 3797   6.704   4.533   3.164 -1.6045 -0.9538 -0.8793
   29MOL0     H 3798   6.754   4.326   3.016  1.3305  0.3188 -2.1537
   29MOL0     H 3799   6.778   4.430   2.883  3.0623 -0.0671  2.2073
   29MOL0     H 3800   6.522   4.415   3.036  0.1976 -2.7683 -0.7765
   29MOL0     H 3801   6.556   4.531   2.911  2.9813  1.0765  1.8089
   29MOL0     H 3802   6.553   4.214   2.886  2.7661  0.6697 -0.1811
   29MOL0     H 3803   6.593   4.322   2.754 -1.3787  3.2414 -1.4180
   29MOL0     H 3804   6.356   4.420   2.784  2.8964  1.2304  2.2029
   29MOL0     H 3805   6.311   4.294   2.896 -0.1064 -3.6816 -1.0039
   29MOL0     H 3806   6.408   4.276   2.606  0.9675  0.4251  0.8328
   29MOL0     H 3807   6.424   4.132   2.705 -1.2769  0.0648  1.2686
   29MOL0     H 3808   6.191   4.121   2.747  1.6397 -1.7709 -1.0234
   29MOL0     H 3809   6.209   4.120   2.576  0.6366  0.6647 -1.0610
   29MOL0     H 3810   7.155   4.481   3.178  0.5486 -0.0726  0.9973
   29MOL0     H 3811   7.371   4.550   3.255  0.5817 -0.1199  2.7262
   29MOL0     H 3812   7.815   4.672   3.408 -1.8640 -1.0991 -1.1869
   29MOL0     H 3813   8.001   4.839   3.480  0.4738  0.2980  0.6907
   29MOL0     H 3814   9.310   6.180   4.354 -0.1458  1.0497  2.4833
   29MOL0     H 3815   9.554   6.141   4.317  1.7950 -1.7836 -2.2264
   29MOL0     H 3816   9.971   5.765   4.498 -0.5515 -0.2524  0.8000
   29MOL0     H 3817  10.204   5.800   4.435  2.0785  4.3637 -0.2234
   29MOL0     H 3818  10.401   5.774   4.234 -1.0470  0.5855  0.7873
   29MOL0     H 3819  10.379   5.906   4.333  0.6105 -0.4299 -0.0916
   29MOL0     H 3820  10.603   5.930   4.238  0.2487  0.5050 -0.2640
   29MOL0     H 3821  10.551   5.887   4.080  2.3741  4.4975 -1.7574
   29MOL0     H 3822  10.478   6.138   4.251  0.7224  1.1754 -0.2605
   29MOL0     H 3823  10.416   6.104   4.087  1.5026 -1.4155 -0.7117
   29MOL0     H 3824  10.605   6.277   4.089  0.1423  0.0092 -0.2488
   29MOL0     H 3825  10.704   6.168   4.182 -2.5921 -3.0862  2.4998
   29MOL0     H 3826  10.762   5.990   3.809 -2.5023 -0.8471  0.2720
   29MOL0     H 3827  10.041   5.867   4.030  0.0683 -5.5906 -0.9679
   29MOL0     H 3828   9.820   5.868   4.113 -0.1204 -0.8424  0.5034
   30MOL0     O 3829  10.696   2.614   4.616 -0.4854  0.2996  0.1007
   30MOL0     C 3830  10.743   2.720   4.655  0.4066 -0.1372 -0.0730
   30MOL0     O 3831  10.669   2.819   4.709  0.9787 -1.0987 -0.0286
   30MOL0     C 3832  10.532   2.797   4.696  0.5838 -0.9153  0.1423
   30MOL0     C 3833  10.453   2.795   4.818  0.6363  0.1661  0.5257
   30MOL0     C 3834  10.312   2.783   4.806  0.0890 -0.1108  0.0667
   30MOL0     C 3835  10.255   2.744   4.681  0.2267 -0.7128 -0.4952
   30MOL0     O 3836  10.126   2.709   4.662 -0.6334 -0.3458  0.2119
   30MOL0     C 3837  10.038   2.704   4.779 -0.0478 -0.4521 -0.2720
   30MOL0     C 3838   9.899   2.654   4.749 -0.1435 -0.2156 -0.1102
   30MOL0     C 3839   9.798   2.701   4.864 -0.4560  0.7636  0.0029
   30MOL0     C 3840   9.655   2.639   4.833 -0.1572  0.6425  0.4594
   30MOL0     C 3841   9.550   2.669   4.945 -0.8430  0.3900  0.5564
   30MOL0     C 3842   9.445   2.562   4.960  0.9295 -0.0277 -0.6034
   30MOL0     C 3843   9.496   2.434   5.031 -0.0863 -0.2468 -0.2895
   30MOL0     C 3844   9.541   2.451   5.181 -0.6005  0.3453 -0.0936
   30MOL0     N 3845   9.419   2.484   5.256  0.2165  0.4899  0.4190
   30MOL0     C 3846   9.340   2.402   5.333  0.2435 -0.8924  0.6678
   30MOL0     C 3847   9.260   2.489   5.396 -0.4320  0.0072  0.4247
   30MOL0     C 3848   9.158   2.443   5.497 -0.2560  0.4331 -0.2221
   30MOL0     C 3849   9.221   2.420   5.640  0.5132 -0.0604 -0.8347
   30MOL0     C 3850   9.284   2.551   5.702 -0.4026  0.0175  0.4427
   30MOL0     C 3851   9.437   2.558   5.673  0.7436 -0.3413 -0.8835
   30MOL0     O 3852   9.449   2.696   5.636 -0.5731 -0.7902 -0.9323
   30MOL0     C 3853   9.551   2.734   5.549 -0.7110 -0.3670 -0.2745
   30MOL0     C 3854   9.649   2.638   5.498 -0.6085 -1.3467 -0.6077
   30MOL0     C 3855   9.757   2.693   5.431  0.0566 -0.0074  0.2862
   30MOL0     C 3856   9.773   2.825   5.400  0.5982  0.4019 -0.6821
   30MOL0     C 3857   9.896   2.880   5.341  0.7538 -0.0186  0.2522
   30MOL0     O 3858   9.944   2.814   5.238  0.5057  0.3056 -0.1077
   30MOL0     C 3859  10.066   2.857   5.192  1.1348 -0.5321  0.1112
   30MOL0     C 3860  10.174   2.774   5.203  0.7169  0.4720  0.7953
   30MOL0     C 3861  10.304   2.820   5.168  0.4612 -0.2318 -0.1653
   30MOL0     C 3862  10.326   2.948   5.112 -0.0611 -0.3213  0.4026
   30MOL0     O 3863  10.455   2.980   5.070  0.0289 -0.3302  0.0484
   30MOL0     C 3864  10.484   3.087   4.980 -0.2012 -0.2403  0.0311
   30MOL0     C 3865  10.637   3.123   4.957  0.0600  0.1063 -0.6346
   30MOL0     C 3866  10.737   3.029   5.021  0.0239  0.3804 -0.0009
   30MOL0     C 3867  10.877   3.074   5.020  0.4834 -0.7896 -0.4784
   30MOL0     C 3868  10.968   2.964   5.085 -0.3821  0.2047  0.2993
   30MOL0     C 3869  11.113   3.004   5.088 -0.0675  1.0540  0.3814
   30MOL0     C 3870  11.197   2.896   5.163 -0.1601  0.0748 -0.1445
   30MOL0     C 3871  11.346   2.944   5.147 -0.3990  0.0301 -0.2867
   30MOL0    Cl 3872  11.464   2.824   5.204 -0.3704  0.2739  0.1627
   30MOL0     C 3873  10.215   3.032   5.101  0.3031  0.5047  0.8886
   30MOL0     C 3874  10.091   2.986   5.142  1.1943  0.3749 -0.5826
   30MOL0     O 3875   9.926   2.989   5.375 -0.4541 -0.2884 -0.6404
   30MOL0     C 3876   9.676   2.921   5.446  0.1121 -0.1144 -0.2217
   30MOL0     C 3877   9.569   2.871   5.518  0.5248  0.2634  0.3535
   30MOL0     N 3878   9.293   2.621   5.357 -0.1341  0.1823 -0.5178
   30MOL0     N 3879   9.381   2.611   5.272  0.3502  0.7208 -0.1762
   30MOL0     C 3880  10.335   2.757   4.568 -0.4850  0.4223  0.1058
   30MOL0     C 3881  10.476   2.780   4.570 -0.4838  0.3475 -0.0199
   30MOL0     C 3882  10.890   2.741   4.656 -0.1774  0.4366  1.1384
   30MOL0     C 3883  10.970   2.653   4.571 -0.0006 -0.4191 -0.3874
   30MOL0     C 3884  11.112   2.668   4.573  0.3423 -0.9813  1.0155
   30MOL0     C 3885  11.169   2.769   4.653  0.9464  0.0359  0.2644
   30MOL0     O 3886  11.301   2.793   4.683 -0.1365  0.8110 -0.0666
   30MOL0     C 3887  11.397   2.717   4.605  0.5044 -0.2461 -0.2580
   30MOL0     C 3888  11.541   2.769   4.632 -0.9892 -1.2280 -0.5883
   30MOL0     C 3889  11.566   2.749   4.781  0.1774 -0.1792  0.5715
   30MOL0     C 3890  11.670   2.842   4.834 -0.6674  1.7697 -0.4067
   30MOL0     C 3891  11.800   2.787   4.790 -0.3322  0.3830 -0.0344
   30MOL0     C 3892  11.912   2.749   4.739  0.0258  1.2748 -0.3066
   30MOL0     C 3893  11.084   2.846   4.735 -0.4057 -0.5914 -0.1776
   30MOL0     C 3894  10.945   2.843   4.733  0.4676  0.6508  0.4059
   30MOL0     H 3895  10.499   2.807   4.915 -1.0439  2.4982  1.1206
   30MOL0     H 3896  10.254   2.791   4.898  1.1496  0.6177  0.6970
   30MOL0     H 3897  10.028   2.805   4.820 -0.0106 -0.7819  0.5804
   30MOL0     H 3898  10.083   2.639   4.855 -1.2015 -1.6821 -0.6122
   30MOL0     H 3899   9.906   2.545   4.745  0.9104 -0.1503 -0.4301
   30MOL0     H 3900   9.862   2.700   4.657  1.5586  2.0003  0.2241
   30MOL0     H 3901   9.790   2.809   4.877 -2.4742  0.6020  0.3761
   30MOL0     H 3902   9.826   2.661   4.962 -1.2017 -0.1913 -0.1633
   30MOL0     H 3903   9.620   2.665   4.732 -2.3418 -0.7171  0.8045
   30MOL0     H 3904   9.672   2.531   4.829  0.7235  0.7746  0.6024
   30MOL0     H 3905   9.497   2.763   4.930 -1.0808 -0.0997 -2.1742
   30MOL0     H 3906   9.601   2.675   5.042 -0.0786 -2.0759  0.3781
   30MOL0     H 3907   9.411   2.534   4.860  1.3646  2.4782 -1.5345
   30MOL0     H 3908   9.356   2.598   5.014 -0.6210 -4.3244  0.0950
   30MOL0     H 3909   9.427   2.350   5.029  1.1272 -1.3361  1.1022
   30MOL0     H 3910   9.588   2.399   4.983  1.4120  0.4710  1.8917
   30MOL0     H 3911   9.611   2.533   5.199 -3.1774  2.3794  1.2352
   30MOL0     H 3912   9.583   2.357   5.219 -0.4648  0.3737 -0.1727
   30MOL0     H 3913   9.336   2.293   5.336 -0.7579 -0.8504  1.6684
   30MOL0     H 3914   9.101   2.355   5.465  1.8223 -1.2745  0.5017
   30MOL0     H 3915   9.086   2.525   5.506 -1.0892 -0.3945  0.9885
   30MOL0     H 3916   9.283   2.330   5.637 -0.6052 -0.8294 -2.0852
   30MOL0     H 3917   9.137   2.392   5.704  1.3426 -1.2769 -0.2282
   30MOL0     H 3918   9.229   2.643   5.679  1.0185  1.3326  2.0895
   30MOL0     H 3919   9.266   2.561   5.809 -0.5177 -0.3656  0.4628
   30MOL0     H 3920   9.462   2.498   5.585 -1.7637 -1.1961 -1.0967
   30MOL0     H 3921   9.499   2.536   5.761  0.5466 -1.3865 -0.9907
   30MOL0     H 3922   9.647   2.535   5.531 -0.9502 -0.4493  2.5163
   30MOL0     H 3923   9.832   2.630   5.385 -1.2000  0.5437 -2.7519
   30MOL0     H 3924  10.161   2.676   5.247 -0.4550  0.1922 -0.1370
   30MOL0     H 3925  10.388   2.754   5.187  1.0103  0.2954 -0.7090
   30MOL0     H 3926  10.443   3.181   5.017  0.9834  0.4404 -0.3450
   30MOL0     H 3927  10.437   3.056   4.887 -1.0715 -1.4272  0.8253
   30MOL0     H 3928  10.651   3.215   5.015 -4.9601  2.0617 -1.9684
   30MOL0     H 3929  10.669   3.136   4.853  0.6460 -1.2962 -0.6600
   30MOL0     H 3930  10.734   2.931   4.971  0.6508  1.1303 -1.5976
   30MOL0     H 3931  10.710   3.020   5.126 -1.2682  3.3598  0.0216
   30MOL0     H 3932  10.899   3.079   4.913 -1.6253 -2.1201 -1.0377
   30MOL0     H 3933  10.894   3.171   5.067  1.0660 -1.0405 -0.1532
   30MOL0     H 3934  10.967   2.875   5.022  4.0382  1.9034 -2.6664
   30MOL0     H 3935  10.929   2.944   5.185 -1.1206 -1.9208 -0.3737
   30MOL0     H 3936  11.126   3.089   5.155  0.8454 -1.1138  3.1881
   30MOL0     H 3937  11.148   3.039   4.991  0.6599  2.4705  1.1187
   30MOL0     H 3938  11.174   2.893   5.270 -1.3966 -1.7558 -0.4269
   30MOL0     H 3939  11.179   2.799   5.116 -1.8137  0.6576 -0.7946
   30MOL0     H 3940  11.369   3.036   5.202  2.1385 -1.6040  1.6173
   30MOL0     H 3941  11.371   2.962   5.042 -4.1538  2.5335 -0.9455
   30MOL0     H 3942  10.221   3.137   5.072 -0.4169  0.6232  1.1349
   30MOL0     H 3943  10.009   3.057   5.140 -0.7126 -1.5239  2.4664
   30MOL0     H 3944   9.683   3.029   5.440  1.8678 -0.3053 -2.5022
   30MOL0     H 3945   9.509   2.954   5.556  0.2194 -0.6148  1.8876
   30MOL0     H 3946  10.285   2.734   4.475  1.5357  0.3803 -1.0253
   30MOL0     H 3947  10.534   2.775   4.478 -1.8590  1.5087 -0.9893
   30MOL0     H 3948  10.932   2.570   4.513 -1.9506  1.0721 -1.3702
   30MOL0     H 3949  11.176   2.603   4.514  0.5317 -2.7404  3.0337
   30MOL0     H 3950  11.369   2.734   4.500 -2.1252  0.4079  0.4594
   30MOL0     H 3951  11.390   2.611   4.630 -1.7402  0.0825  0.7633
   30MOL0     H 3952  11.619   2.717   4.576 -1.1500 -0.0120 -2.0153
   30MOL0     H 3953  11.537   2.877   4.610  2.1890 -0.4341  2.0186
   30MOL0     H 3954  11.586   2.647   4.815 -1.9260 -0.1179  2.2402
   30MOL0     H 3955  11.475   2.775   4.836 -0.2200 -2.7895  1.2887
   30MOL0     H 3956  11.653   2.941   4.790 -2.4308  2.8582  2.4520
   30MOL0     H 3957  11.665   2.847   4.943 -0.7152 -2.0665 -0.1121
   30MOL0     H 3958  12.006   2.713   4.702  0.4304  0.1610  1.6732
   30MOL0     H 3959  11.139   2.912   4.802 -0.1042 -0.9290 -0.0880
   30MOL0     H 3960  10.890   2.910   4.798 -0.3801  0.5217 -0.1637
   31MOL0     O 3961   4.856   9.552   5.310  0.9358 -0.0603 -0.5479
   31MOL0     C 3962   4.893   9.660   5.264 -0.3739 -0.4102 -0.2876
   31MOL0     O 3963   4.815   9.773   5.261 -0.1078 -0.7084  0.0645
   31MOL0     C 3964   4.684   9.770   5.293 -0.8186 -0.0374  0.5748
   31MOL0     C 3965   4.627   9.894   5.335 -0.1785  0.5951  1.5364
   31MOL0     C 3966   4.482   9.896   5.367 -0.9001  0.3374 -0.4005
   31MOL0     C 3967   4.400   9.784   5.345  0.6848  0.3464 -0.4667
   31MOL0     O 3968   4.266   9.792   5.396  0.3224 -0.0905 -0.0618
   31MOL0     C 3969   4.188   9.665   5.387 -0.7551  0.8566  0.2896
   31MOL0     C 3970   4.042   9.675   5.443  0.5178  0.2934 -0.5190
   31MOL0     C 3971   3.977   9.541   5.459  0.4965  0.4810  0.6145
   31MOL0     C 3972   3.829   9.546   5.466 -0.0482 -0.2388 -0.1823
   31MOL0     C 3973   3.779   9.583   5.607  0.0209  0.0536 -0.1724
   31MOL0     C 3974   3.624   9.565   5.627  0.0116  0.6088 -0.0014
   31MOL0     C 3975   3.601   9.564   5.781  0.7314 -0.0975  0.0419
   31MOL0     C 3976   3.456   9.591   5.830  0.4465 -0.8421  0.2454
   31MOL0     N 3977   3.356   9.487   5.786 -0.5537 -0.4689 -0.5649
   31MOL0     C 3978   3.287   9.486   5.669 -0.7395  0.1833 -0.6594
   31MOL0     C 3979   3.231   9.364   5.660  0.7848 -0.5237  0.1320
   31MOL0     C 3980   3.133   9.323   5.562 -1.0518 -0.3338  0.4906
   31MOL0     C 3981   3.161   9.193   5.503 -0.2504  1.0694 -0.6220
   31MOL0     C 3982   3.200   9.203   5.354 -0.0310 -0.3058 -0.4839
   31MOL0     C 3983   3.281   9.083   5.312 -0.5164  1.0853 -0.3244
   31MOL0     O 3984   3.330   9.097   5.182  0.4440 -0.1471 -0.5357
   31MOL0     C 3985   3.463   9.138   5.164  0.9937  1.0255  1.5073
   31MOL0     C 3986   3.517   9.081   5.045 -0.5940 -0.2975 -0.0879
   31MOL0     C 3987   3.646   9.115   5.012  1.2131  0.1575  0.0273
   31MOL0     C 3988   3.724   9.202   5.081 -0.2399  0.2181 -0.3106
   31MOL0     C 3989   3.866   9.225   5.036  0.2596  0.1944  0.4112
   31MOL0     O 3990   3.903   9.350   5.066  0.3257  0.0207 -0.5579
   31MOL0     C 3991   4.033   9.390   5.056  0.9182 -0.1319 -0.3927
   31MOL0     C 3992   4.139   9.303   5.085 -0.9891 -1.0853  0.9608
   31MOL0     C 3993   4.268   9.347   5.059  0.8625 -0.3874  0.3266
   31MOL0     C 3994   4.296   9.479   5.019 -0.9698 -0.0584  0.3595
   31MOL0     O 3995   4.429   9.524   5.007  0.8444  0.6644  0.3089
   31MOL0     C 3996   4.505   9.450   4.910 -0.2167 -0.0456  0.5098
   31MOL0     C 3997   4.597   9.549   4.838 -0.3684 -0.0989  0.1269
   31MOL0     C 3998   4.735   9.496   4.786 -0.0744  0.6047 -0.3106
   31MOL0     C 3999   4.853   9.478   4.868 -0.6253 -0.1376 -0.5239
   31MOL0     C 4000   4.970   9.408   4.794  0.3725 -0.5124 -0.3363
   31MOL0     C 4001   5.090   9.424   4.882 -0.5585 -0.4336  0.5179
   31MOL0     C 4002   5.224   9.351   4.836  0.5410  0.9929  0.0471
   31MOL0     C 4003   5.331   9.440   4.775  0.2161  0.0208 -0.7183
   31MOL0    Cl 4004   5.474   9.330   4.754  0.1620  0.0944  0.1766
   31MOL0     C 4005   4.194   9.566   5.003  0.5919 -0.4895  0.1574
   31MOL0     C 4006   4.061   9.525   5.013  0.3226  0.8112  0.0760
   31MOL0     O 4007   3.927   9.144   4.969 -0.1763 -0.2696 -0.0674
   31MOL0     C 4008   3.670   9.259   5.200 -0.7679 -0.8857 -0.1812
   31MOL0     C 4009   3.540   9.226   5.236 -0.3045 -0.1684  0.1370
   31MOL0     N 4010   3.275   9.279   5.765 -0.0483 -0.0252 -0.1938
   31MOL0     N 4011   3.353   9.360   5.830 -0.7363  0.3060 -0.0178
   31MOL0     C 4012   4.454   9.669   5.287 -0.4244 -0.5256 -0.0523
   31MOL0     C 4013   4.598   9.665   5.252  1.1832  0.1795 -0.8169
   31MOL0     C 4014   5.023   9.680   5.202  0.4637  0.4527 -0.0985
   31MOL0     C 4015   5.129   9.600   5.239 -0.0422 -0.3888  0.4684
   31MOL0     C 4016   5.258   9.619   5.182 -0.1431  0.5036  0.3649
   31MOL0     C 4017   5.281   9.710   5.078  0.9487 -0.3778 -0.1982
   31MOL0     O 4018   5.404   9.713   5.030 -0.1943 -0.0583 -0.4357
   31MOL0     C 4019   5.443   9.813   4.940 -0.1627 -0.7005 -0.6502
   31MOL0     C 4020   5.583   9.810   4.897 -0.9049 -0.3059  0.5089
   31MOL0     C 4021   5.638   9.679   4.856 -1.1377  0.0580 -0.6433
   31MOL0     C 4022   5.785   9.679   4.878 -1.3776  0.2561 -0.5568
   31MOL0     C 4023   5.867   9.762   4.786 -0.3251 -0.7117 -0.1832
   31MOL0     C 4024   5.944   9.828   4.711 -0.1196 -0.2021 -0.2907
   31MOL0     C 4025   5.167   9.792   5.037 -0.0936 -0.8503  0.2541
   31MOL0     C 4026   5.041   9.773   5.097 -0.9917 -0.0503 -0.3448
   31MOL0     H 4027   4.701   9.973   5.345  1.1393 -0.7176  2.4330
   31MOL0     H 4028   4.446   9.984   5.420 -1.8539  2.2394 -3.9205
   31MOL0     H 4029   4.242   9.593   5.449  1.6477  1.4605 -0.9751
   31MOL0     H 4030   4.180   9.625   5.286 -2.1465  4.5687 -1.2584
   31MOL0     H 4031   3.980   9.731   5.374 -0.7270  1.6544  1.5871
   31MOL0     H 4032   4.043   9.730   5.538 -0.6599 -2.6921  1.3930
   31MOL0     H 4033   4.022   9.481   5.539  0.0075 -0.9222 -0.1134
   31MOL0     H 4034   3.999   9.498   5.360  0.2452  3.8178 -1.0240
   31MOL0     H 4035   3.778   9.606   5.389  0.0157 -1.1528 -0.9635
   31MOL0     H 4036   3.786   9.448   5.442  1.7042 -0.7434 -1.4625
   31MOL0     H 4037   3.809   9.685   5.632 -1.0254  0.3299 -0.0030
   31MOL0     H 4038   3.828   9.518   5.680 -0.5405  0.1862  0.3285
   31MOL0     H 4039   3.598   9.471   5.579  0.3971  1.3317 -1.7036
   31MOL0     H 4040   3.577   9.648   5.574  0.1795  1.1058  0.6168
   31MOL0     H 4041   3.622   9.460   5.808  3.6356 -0.4549 -3.0719
   31MOL0     H 4042   3.669   9.633   5.831 -0.5610  2.6485 -1.7850
   31MOL0     H 4043   3.415   9.687   5.799 -0.7470 -1.2621  0.4831
   31MOL0     H 4044   3.458   9.592   5.940 -0.5529 -0.1544  0.2621
   31MOL0     H 4045   3.281   9.574   5.606 -2.5727  0.9297  0.4916
   31MOL0     H 4046   3.102   9.399   5.491  0.4796 -0.1533 -0.0173
   31MOL0     H 4047   3.045   9.310   5.625 -1.3706  0.5380  0.2335
   31MOL0     H 4048   3.077   9.124   5.510  2.3438 -2.2782  0.3521
   31MOL0     H 4049   3.244   9.138   5.549 -0.5738  0.4657 -0.7435
   31MOL0     H 4050   3.114   9.205   5.286  0.8609  2.1291 -1.6491
   31MOL0     H 4051   3.269   9.285   5.337 -0.5713 -0.1580 -2.1947
   31MOL0     H 4052   3.237   8.983   5.311  1.6697  0.0363  0.7099
   31MOL0     H 4053   3.364   9.070   5.382  1.1890  0.6825 -2.3369
   31MOL0     H 4054   3.464   9.006   4.988  1.5097 -2.8746  1.1454
   31MOL0     H 4055   3.679   9.063   4.923 -1.4160 -0.9979 -0.3788
   31MOL0     H 4056   4.120   9.199   5.111  3.3727 -2.9937 -2.3097
   31MOL0     H 4057   4.356   9.284   5.068  1.0854  0.1819  2.8756
   31MOL0     H 4058   4.439   9.398   4.839 -0.8699 -1.5984  2.1782
   31MOL0     H 4059   4.559   9.370   4.961 -1.1239 -1.4481 -0.6223
   31MOL0     H 4060   4.605   9.632   4.908  1.5383  0.7460 -1.0180
   31MOL0     H 4061   4.548   9.591   4.750  0.3542  2.4606  0.8649
   31MOL0     H 4062   4.758   9.564   4.703 -1.4055 -0.1858 -1.3663
   31MOL0     H 4063   4.715   9.401   4.736 -1.7142  0.5102  0.4819
   31MOL0     H 4064   4.890   9.578   4.891  3.0006 -0.6134 -3.3891
   31MOL0     H 4065   4.829   9.428   4.963  1.6457 -1.8083 -0.7390
   31MOL0     H 4066   4.983   9.452   4.694  3.1749 -0.2641  0.0504
   31MOL0     H 4067   4.943   9.305   4.771 -1.4781  0.0511 -0.9014
   31MOL0     H 4068   5.067   9.384   4.980 -0.4640  0.3273  0.8614
   31MOL0     H 4069   5.111   9.530   4.903  1.3696 -0.7247  0.2855
   31MOL0     H 4070   5.261   9.302   4.927 -0.0770  0.2326 -0.1034
   31MOL0     H 4071   5.202   9.277   4.759  0.6317  1.2179 -0.1991
   31MOL0     H 4072   5.350   9.510   4.857  0.1587  1.4725 -1.9057
   31MOL0     H 4073   5.298   9.500   4.691 -1.4731  1.9483  1.1962
   31MOL0     H 4074   4.222   9.669   4.983  0.7611 -0.2914  1.3313
   31MOL0     H 4075   3.980   9.596   4.997  0.0842  0.5241  0.0112
   31MOL0     H 4076   3.733   9.325   5.259 -1.2242  1.0473 -1.7482
   31MOL0     H 4077   3.503   9.259   5.332  0.6957 -1.8893  1.1679
   31MOL0     H 4078   4.398   9.580   5.260  0.6825 -1.2471 -0.0080
   31MOL0     H 4079   4.638   9.574   5.207  1.0368 -0.4628  0.3062
   31MOL0     H 4080   5.116   9.518   5.310 -1.3016 -0.8839 -0.3043
   31MOL0     H 4081   5.348   9.566   5.211  0.1850  0.6167 -0.4240
   31MOL0     H 4082   5.440   9.910   4.991  0.0311  0.1428 -2.1875
   31MOL0     H 4083   5.386   9.812   4.847  1.5506  2.6055 -1.9303
   31MOL0     H 4084   5.595   9.889   4.822  2.1380  0.5115  1.7236
   31MOL0     H 4085   5.641   9.832   4.986  0.3267 -2.6312  0.3531
   31MOL0     H 4086   5.615   9.656   4.752  0.3315 -0.6765 -0.8278
   31MOL0     H 4087   5.589   9.608   4.924 -2.2264 -0.6735 -2.1362
   31MOL0     H 4088   5.809   9.714   4.978  1.7422  2.0978 -1.7955
   31MOL0     H 4089   5.828   9.579   4.870 -1.4691 -0.0733  2.1708
   31MOL0     H 4090   6.025   9.852   4.644 -0.2663  1.0606 -0.0525
   31MOL0     H 4091   5.161   9.866   4.958 -0.2669  1.3448  2.2191
   31MOL0     H 4092   4.952   9.833   5.080 -0.4489  1.4210  1.6317
   32MOL0     O 4093   5.601   6.157  10.357 -0.1976 -0.2417  0.4870
   32MOL0     C 4094   5.588   6.260  10.409  0.1870 -0.8884  0.6722
   32MOL0     O 4095   5.474   6.334  10.415  0.2441  0.3928 -0.4486
   32MOL0     C 4096   5.348   6.274  10.394 -0.0979  0.0677 -0.0299
   32MOL0     C 4097   5.237   6.362  10.372  0.0696  0.1073  0.4133
   32MOL0     C 4098   5.103   6.310  10.361  0.0376 -0.1034  0.0056
   32MOL0     C 4099   5.081   6.170  10.383 -0.2771  0.4193  0.0308
   32MOL0     O 4100   4.960   6.112  10.364  0.1825  0.5044  0.1897
   32MOL0     C 4101   4.843   6.171  10.303 -0.2160 -0.4252 -0.6203
   32MOL0     C 4102   4.719   6.092  10.347 -0.2618 -0.2376 -0.1365
   32MOL0     C 4103   4.593   6.154  10.307  2.1233 -0.0379  0.3507
   32MOL0     C 4104   4.470   6.086  10.380 -0.1924 -0.0184  0.1239
   32MOL0     C 4105   4.331   6.150  10.358 -0.0085  0.5016  0.2636
   32MOL0     C 4106   4.294   6.156  10.208  1.1332  0.2596  0.1385
   32MOL0     C 4107   4.137   6.156  10.194 -0.5448  0.1203  0.4258
   32MOL0     C 4108   4.092   6.196  10.051 -0.4750 -0.0859  0.1148
   32MOL0     N 4109   3.953   6.159  10.033  0.2856 -0.0824 -0.4552
   32MOL0     C 4110   3.855   6.247  10.049 -0.5119 -0.2570  1.0180
   32MOL0     C 4111   3.738   6.183  10.057  0.0274 -1.0008  0.0676
   32MOL0     C 4112   3.623   6.276  10.053  0.4413  0.5823 -1.1829
   32MOL0     C 4113   3.502   6.214   9.989  0.2033  0.0670  0.3868
   32MOL0     C 4114   3.396   6.325   9.980  0.1757 -0.7060 -0.3494
   32MOL0     C 4115   3.278   6.284   9.895 -1.0306  0.4759  1.0438
   32MOL0     O 4116   3.304   6.301   9.747 -0.2853  0.3094 -0.3454
   32MOL0     C 4117   3.191   6.293   9.670  0.0714  0.6385 -0.0223
   32MOL0     C 4118   3.205   6.307   9.534  0.0515 -0.8712  0.3099
   32MOL0     C 4119   3.097   6.308   9.442 -0.3886 -0.4337 -0.2176
   32MOL0     C 4120   2.965   6.298   9.487 -0.1370 -1.1247  0.2507
   32MOL0     C 4121   2.844   6.306   9.398  0.3665  0.4132  0.2062
   32MOL0     O 4122   2.714   6.284   9.449 -0.3353 -0.0032 -0.3895
   32MOL0     C 4123   2.614   6.303   9.365  0.3363  0.7898 -0.4602
   32MOL0     C 4124   2.573   6.436   9.345 -0.1936  0.3333  0.0494
   32MOL0     C 4125   2.458   6.464   9.257  0.6411  0.3222  1.0398
   32MOL0     C 4126   2.373   6.361   9.211 -0.8315  0.3132  0.4584
   32MOL0     O 4127   2.255   6.400   9.153 -0.0342  0.3630 -0.0481
   32MOL0     C 4128   2.163   6.302   9.100 -0.3996  0.1080 -0.6689
   32MOL0     C 4129   2.081   6.231   9.213 -0.0290 -0.0337 -0.2104
   32MOL0     C 4130   2.022   6.094   9.170  0.3287  0.3157 -0.1932
   32MOL0     C 4131   1.950   6.031   9.289  0.6644  0.4294  0.0262
   32MOL0     C 4132   1.829   5.938   9.243 -0.0227  0.0406  0.2539
   32MOL0     C 4133   1.705   6.024   9.220 -0.0471 -0.1702 -0.2094
   32MOL0     C 4134   1.577   5.947   9.202 -0.2915 -0.2395  0.3068
   32MOL0     C 4135   1.459   6.037   9.174  0.1779  0.1485 -0.0232
   32MOL0    Cl 4136   1.336   5.930   9.090 -0.3925 -0.1035  0.1324
   32MOL0     C 4137   2.421   6.228   9.242  0.5667  0.1265  0.0899
   32MOL0     C 4138   2.545   6.196   9.306  0.4027  0.1472 -0.9286
   32MOL0     O 4139   2.872   6.322   9.284 -1.1851 -0.2067 -0.4010
   32MOL0     C 4140   2.952   6.286   9.630  0.0646  0.3150  0.8655
   32MOL0     C 4141   3.060   6.272   9.719  0.3539  1.0438  0.3291
   32MOL0     N 4142   3.765   6.049  10.036  0.1490 -0.0891  0.7010
   32MOL0     N 4143   3.893   6.037  10.022 -0.6183  0.1859 -0.6461
   32MOL0     C 4144   5.192   6.084  10.397  0.6079 -0.0548 -0.5556
   32MOL0     C 4145   5.325   6.132  10.400 -0.1582 -0.6553 -0.8416
   32MOL0     C 4146   5.705   6.326  10.465 -0.3239 -1.5460 -0.8443
   32MOL0     C 4147   5.705   6.469  10.497 -0.3206 -0.4345 -0.1836
   32MOL0     C 4148   5.816   6.535  10.546  0.5286  0.8114 -0.1860
   32MOL0     C 4149   5.936   6.455  10.572 -0.5596 -0.2309 -0.7284
   32MOL0     O 4150   6.037   6.527  10.639 -0.3998 -0.2570  0.6877
   32MOL0     C 4151   6.162   6.462  10.655 -1.3422 -0.0925  0.2529
   32MOL0     C 4152   6.258   6.563  10.710 -1.0708 -0.2196 -0.2204
   32MOL0     C 4153   6.235   6.702  10.649 -0.3608  0.7951 -0.1033
   32MOL0     C 4154   6.340   6.804  10.682  0.0552 -0.6180 -0.6759
   32MOL0     C 4155   6.468   6.779  10.616  1.0457  0.0336 -1.0197
   32MOL0     C 4156   6.570   6.763  10.554 -0.1009  0.1301 -0.1296
   32MOL0     C 4157   5.940   6.324  10.541  0.1422 -0.8100 -0.4102
   32MOL0     C 4158   5.833   6.257  10.486  0.0766 -0.4709  0.1619
   32MOL0     H 4159   5.251   6.466  10.347  0.4381  0.0914  0.5404
   32MOL0     H 4160   5.023   6.376  10.331 -0.1967  0.2376  1.3243
   32MOL0     H 4161   4.854   6.184  10.195 -0.8726  2.1518 -0.4437
   32MOL0     H 4162   4.821   6.272  10.340 -1.9990 -1.6339  1.9078
   32MOL0     H 4163   4.716   6.091  10.457 -0.1959 -0.9064 -0.1349
   32MOL0     H 4164   4.730   5.991  10.306 -1.3470 -0.1307 -0.7226
   32MOL0     H 4165   4.572   6.148  10.199  2.5909 -0.6471  0.2837
   32MOL0     H 4166   4.599   6.255  10.347 -0.4804 -1.1191  3.9215
   32MOL0     H 4167   4.475   5.981  10.351 -0.9698  0.7071 -3.1813
   32MOL0     H 4168   4.484   6.079  10.488  2.6651  1.1695 -0.0699
   32MOL0     H 4169   4.343   6.247  10.408  3.0976  0.7816 -0.8059
   32MOL0     H 4170   4.262   6.091  10.417  0.2885  2.7511  3.0611
   32MOL0     H 4171   4.342   6.070  10.161 -0.0555  0.3302 -1.3071
   32MOL0     H 4172   4.327   6.253  10.168 -0.1143  1.5527  2.1071
   32MOL0     H 4173   4.098   6.064  10.238  2.6826 -0.8872  1.4882
   32MOL0     H 4174   4.102   6.242  10.253 -0.9381 -0.8140  1.5895
   32MOL0     H 4175   4.156   6.141   9.982 -1.1900 -0.8923  0.0820
   32MOL0     H 4176   4.118   6.302  10.037  0.9828 -0.6369 -1.6835
   32MOL0     H 4177   3.862   6.356  10.055  1.1800 -0.2998  0.1585
   32MOL0     H 4178   3.641   6.369  10.000 -0.0858  0.7930 -0.9911
   32MOL0     H 4179   3.606   6.306  10.157  0.6030 -0.4698 -0.8312
   32MOL0     H 4180   3.465   6.134  10.054 -1.0649 -0.9236 -1.4641
   32MOL0     H 4181   3.522   6.181   9.887 -0.1924 -0.1967  0.3917
   32MOL0     H 4182   3.359   6.347  10.081 -1.7016 -0.3124 -1.0936
   32MOL0     H 4183   3.438   6.419   9.944  0.3204 -0.9023 -0.6993
   32MOL0     H 4184   3.204   6.358   9.927 -2.5070  1.5045 -3.9150
   32MOL0     H 4185   3.254   6.179   9.914  1.3228 -0.9390 -2.6322
   32MOL0     H 4186   3.307   6.312   9.495 -0.5885  1.2260 -1.3113
   32MOL0     H 4187   3.132   6.303   9.339 -2.7288  0.6886 -1.1389
   32MOL0     H 4188   2.632   6.518   9.386 -1.6616  0.6881  1.5466
   32MOL0     H 4189   2.413   6.563   9.254 -1.7283 -0.6490  2.2866
   32MOL0     H 4190   2.221   6.236   9.036  2.4367  1.3941  0.4160
   32MOL0     H 4191   2.091   6.355   9.037 -0.6282  0.9263  0.2464
   32MOL0     H 4192   2.003   6.299   9.249 -1.6280 -1.5993 -0.6066
   32MOL0     H 4193   2.129   6.203   9.307 -2.0824 -1.4250  0.4933
   32MOL0     H 4194   2.091   6.019   9.130  0.0645  0.5597 -1.1370
   32MOL0     H 4195   1.943   6.110   9.095  1.1020  0.9944 -0.8939
   32MOL0     H 4196   2.014   5.953   9.330  0.3871 -1.1380 -2.2857
   32MOL0     H 4197   1.921   6.110   9.359  0.7511  1.3389 -0.9263
   32MOL0     H 4198   1.801   5.869   9.323  2.6398 -0.7020  0.6491
   32MOL0     H 4199   1.845   5.878   9.152  0.6271 -0.9255  0.9829
   32MOL0     H 4200   1.726   6.095   9.140  2.5512 -0.6087 -0.0065
   32MOL0     H 4201   1.695   6.085   9.311  0.9426  0.7227 -0.6903
   32MOL0     H 4202   1.594   5.888   9.111  0.7689 -0.5118  0.6672
   32MOL0     H 4203   1.553   5.878   9.283 -0.1803 -0.3843  0.2179
   32MOL0     H 4204   1.481   6.113   9.099 -0.0150 -0.1462 -0.3846
   32MOL0     H 4205   1.417   6.086   9.262  1.1646  3.8819 -1.4766
   32MOL0     H 4206   2.356   6.147   9.212  0.8824  0.0660 -0.4367
   32MOL0     H 4207   2.577   6.095   9.327  0.5515  0.6153  1.3938
   32MOL0     H 4208   2.858   6.252   9.670  1.0853 -1.8592  1.6077
   32MOL0     H 4209   3.031   6.242   9.819 -2.4407  2.4784  0.0468
   32MOL0     H 4210   5.171   5.978  10.409  0.5216  0.2593  2.9826
   32MOL0     H 4211   5.403   6.060  10.423  1.5822  1.6072  0.8582
   32MOL0     H 4212   5.619   6.521  10.457 -0.1166 -1.0529 -1.4816
   32MOL0     H 4213   5.819   6.642  10.561 -0.3650  0.9307 -0.8279
   32MOL0     H 4214   6.202   6.433  10.558  1.3218  3.2612  0.1494
   32MOL0     H 4215   6.166   6.371  10.716  0.4354  0.3834  0.9011
   32MOL0     H 4216   6.234   6.574  10.817  0.5123 -2.9080  0.5265
   32MOL0     H 4217   6.362   6.530  10.706 -0.6417  1.1884 -2.2836
   32MOL0     H 4218   6.134   6.737  10.669 -1.3838 -1.6411 -0.5891
   32MOL0     H 4219   6.234   6.691  10.541 -1.3089  0.4383 -0.0648
   32MOL0     H 4220   6.309   6.901  10.641  0.1366  0.6550  2.0101
   32MOL0     H 4221   6.336   6.821  10.790 -2.0455  1.8726 -1.0407
   32MOL0     H 4222   6.663   6.769  10.502  0.9086  0.3867  1.6311
   32MOL0     H 4223   6.025   6.266  10.573  0.2276  1.3057  3.8707
   32MOL0     H 4224   5.840   6.153  10.456  0.3331 -0.6026  0.6567
   33MOL0     O 4225   3.579   5.196   4.321 -0.2594  0.2397 -0.6559
   33MOL0     C 4226   3.570   5.199   4.451 -0.3874 -0.5434  1.4044
   33MOL0     O 4227   3.455   5.172   4.517  0.0892 -0.0917  0.4784
   33MOL0     C 4228   3.370   5.078   4.458 -0.2280 -0.3420 -0.1947
   33MOL0     C 4229   3.294   5.110   4.346  0.1571  0.4066  1.1858
   33MOL0     C 4230   3.187   5.035   4.301  0.0446  0.2837  0.2957
   33MOL0     C 4231   3.162   4.913   4.362 -0.6730 -0.5810  0.0692
   33MOL0     O 4232   3.064   4.837   4.303  0.2829  0.5707  0.2824
   33MOL0     C 4233   2.976   4.764   4.389 -0.9038  0.9307 -1.0157
   33MOL0     C 4234   3.014   4.617   4.406 -0.2524 -1.3562  0.1143
   33MOL0     C 4235   2.949   4.538   4.297 -0.3483  0.4087 -0.3106
   33MOL0     C 4236   2.975   4.392   4.318 -0.1503 -0.1698  0.6037
   33MOL0     C 4237   2.857   4.315   4.361  0.0473 -0.7767 -0.1428
   33MOL0     C 4238   2.776   4.366   4.492 -0.1836 -0.4471  0.4163
   33MOL0     C 4239   2.651   4.278   4.530  0.4927  0.3142 -0.0010
   33MOL0     C 4240   2.701   4.133   4.556 -0.1491  1.2432 -0.1875
   33MOL0     N 4241   2.627   4.049   4.658  0.2298 -0.0992  0.4366
   33MOL0     C 4242   2.494   4.057   4.686  0.2360  0.5207 -0.0554
   33MOL0     C 4243   2.474   3.970   4.787 -0.3134  0.0130 -0.8240
   33MOL0     C 4244   2.333   3.970   4.847  0.0887  0.4388 -0.3908
   33MOL0     C 4245   2.292   3.820   4.883  0.4538 -0.3125  0.2762
   33MOL0     C 4246   2.159   3.823   4.963 -0.3570 -0.4822 -0.6652
   33MOL0     C 4247   2.113   3.686   4.999  0.3011  0.8136 -0.3971
   33MOL0     O 4248   1.992   3.703   5.077 -0.1116 -0.1405  0.2571
   33MOL0     C 4249   1.904   3.601   5.084 -0.7036  0.2963 -0.5944
   33MOL0     C 4250   1.941   3.464   5.077 -0.4067  0.5514 -1.5328
   33MOL0     C 4251   1.846   3.364   5.081  0.6531 -0.5765  0.9483
   33MOL0     C 4252   1.712   3.402   5.098  0.9431  0.4358  0.2772
   33MOL0     C 4253   1.609   3.306   5.135 -0.0527  0.2284  0.5648
   33MOL0     O 4254   1.651   3.177   5.185  0.6722 -1.2307  0.0241
   33MOL0     C 4255   1.568   3.070   5.203  0.0671  0.1118  0.3931
   33MOL0     C 4256   1.517   2.998   5.092 -0.3242 -0.4904  0.4420
   33MOL0     C 4257   1.454   2.875   5.102  0.3250 -0.7557  0.5392
   33MOL0     C 4258   1.417   2.825   5.230  0.1598  0.3021  0.3473
   33MOL0     O 4259   1.343   2.717   5.262  0.3093 -0.1041 -0.4325
   33MOL0     C 4260   1.335   2.614   5.158 -0.3326 -0.1453  0.3284
   33MOL0     C 4261   1.256   2.495   5.205 -0.2905 -0.4334  0.4481
   33MOL0     C 4262   1.113   2.541   5.249 -0.4270  0.9209 -0.7228
   33MOL0     C 4263   1.011   2.428   5.262 -0.1614 -0.1508 -0.7714
   33MOL0     C 4264   0.864   2.471   5.251 -0.7436 -0.0670  0.5407
   33MOL0     C 4265   0.767   2.355   5.234  0.3125 -1.0122 -0.6575
   33MOL0     C 4266   0.774   2.258   5.360  0.4217 -0.9506  0.3256
   33MOL0     C 4267   0.645   2.173   5.377 -0.9249  0.4618 -0.8505
   33MOL0    Cl 4268   0.484   2.256   5.394 -0.0307  0.1309 -0.1673
   33MOL0     C 4269   1.460   2.904   5.339 -0.8570 -0.3058  0.4997
   33MOL0     C 4270   1.546   3.011   5.322  0.3592 -0.3510  0.0806
   33MOL0     O 4271   1.493   3.340   5.108 -0.5261  0.5456 -0.0347
   33MOL0     C 4272   1.674   3.538   5.093 -0.1851 -0.4543 -0.5275
   33MOL0     C 4273   1.771   3.637   5.088 -0.1961  0.8439  0.4048
   33MOL0     N 4274   2.587   3.910   4.821  0.9418  0.3639 -0.0313
   33MOL0     N 4275   2.680   3.961   4.747 -0.1804 -0.6035  0.0874
   33MOL0     C 4276   3.244   4.876   4.473  0.5742 -0.7195  1.1683
   33MOL0     C 4277   3.341   4.958   4.525 -1.1723 -1.1313 -0.6094
   33MOL0     C 4278   3.685   5.235   4.531 -0.8939  0.3505  0.4575
   33MOL0     C 4279   3.687   5.205   4.660 -0.6090  0.3792 -0.0048
   33MOL0     C 4280   3.803   5.230   4.736  0.0388  0.5137  0.0786
   33MOL0     C 4281   3.913   5.283   4.670 -0.1758  0.0144  0.0096
   33MOL0     O 4282   4.032   5.305   4.732  0.3840  0.9449  0.0702
   33MOL0     C 4283   4.109   5.422   4.714 -0.5244  0.2260  0.4651
   33MOL0     C 4284   4.181   5.453   4.847  0.0092 -0.1351  0.2229
   33MOL0     C 4285   4.084   5.495   4.960  0.6833 -0.4924  0.7171
   33MOL0     C 4286   4.165   5.552   5.076 -0.1419  0.0321 -0.4586
   33MOL0     C 4287   4.078   5.601   5.187 -0.3377 -0.0631  0.4016
   33MOL0     C 4288   3.999   5.629   5.273 -0.0949  0.0990 -0.8252
   33MOL0     C 4289   3.908   5.322   4.543  0.3117  0.1031 -0.7611
   33MOL0     C 4290   3.791   5.294   4.467 -0.4120 -0.2915 -1.0842
   33MOL0     H 4291   3.321   5.197   4.287  1.8743  0.0816  1.4408
   33MOL0     H 4292   3.133   5.059   4.210  0.7316 -0.8245 -0.4196
   33MOL0     H 4293   2.878   4.764   4.340 -1.3575 -2.4873 -0.3083
   33MOL0     H 4294   2.957   4.816   4.483  0.8150 -0.3265  0.0831
   33MOL0     H 4295   2.993   4.570   4.502  0.4719  1.6146  1.8230
   33MOL0     H 4296   3.122   4.602   4.399  0.2839  1.1855  1.9147
   33MOL0     H 4297   3.002   4.572   4.207  1.8651  0.9288  1.1159
   33MOL0     H 4298   2.842   4.558   4.284 -0.2750 -0.3344 -2.6170
   33MOL0     H 4299   3.004   4.340   4.225 -3.7666  2.3480 -2.1835
   33MOL0     H 4300   3.054   4.371   4.391  1.6714  0.3521 -1.0903
   33MOL0     H 4301   2.897   4.213   4.360  3.5740  0.4229 -3.3321
   33MOL0     H 4302   2.784   4.320   4.280  1.3496  2.7485 -1.2749
   33MOL0     H 4303   2.742   4.470   4.490 -0.2430 -0.4783 -0.2458
   33MOL0     H 4304   2.848   4.348   4.573 -1.1612 -2.0663  0.9834
   33MOL0     H 4305   2.598   4.319   4.616  1.2293  0.9061  0.1857
   33MOL0     H 4306   2.572   4.277   4.455 -3.1617 -1.0415  3.5309
   33MOL0     H 4307   2.800   4.132   4.602 -0.3067 -0.1418  0.1769
   33MOL0     H 4308   2.709   4.075   4.463  1.4777 -1.6764  1.6090
   33MOL0     H 4309   2.426   4.130   4.644 -1.3713  0.1904  1.8487
   33MOL0     H 4310   2.263   4.001   4.768 -0.0181  1.9505  0.2473
   33MOL0     H 4311   2.329   4.036   4.934  2.1611 -0.8719  0.7786
   33MOL0     H 4312   2.371   3.781   4.948 -0.8018  0.0059  2.0494
   33MOL0     H 4313   2.278   3.759   4.793  1.8390 -1.4975  0.8180
   33MOL0     H 4314   2.166   3.891   5.048 -0.2505  1.1991 -1.9593
   33MOL0     H 4315   2.094   3.861   4.883  1.5065 -0.7776 -2.4007
   33MOL0     H 4316   2.183   3.622   5.053  0.3550  1.1452 -0.0679
   33MOL0     H 4317   2.097   3.631   4.906  1.7759  2.3269 -1.5997
   33MOL0     H 4318   2.045   3.435   5.089 -0.2918  1.9140  2.2342
   33MOL0     H 4319   1.885   3.263   5.084  4.5625  0.6515 -1.2571
   33MOL0     H 4320   1.547   3.025   4.991  2.5328 -1.8101  0.8238
   33MOL0     H 4321   1.430   2.824   5.009  1.4695  1.9231 -1.3395
   33MOL0     H 4322   1.433   2.585   5.121  0.1138 -2.3748  2.9377
   33MOL0     H 4323   1.283   2.658   5.073 -0.8213  1.8673  1.5924
   33MOL0     H 4324   1.313   2.453   5.289 -0.0407  3.5879  2.5175
   33MOL0     H 4325   1.250   2.431   5.116  0.1280  1.7351 -1.2429
   33MOL0     H 4326   1.077   2.621   5.184 -1.1869  2.2328  1.2325
   33MOL0     H 4327   1.117   2.583   5.350 -1.2329  0.8902 -0.6726
   33MOL0     H 4328   1.028   2.366   5.173 -2.2683  0.2197 -1.5093
   33MOL0     H 4329   1.027   2.366   5.350 -1.2512  1.3549  0.5483
   33MOL0     H 4330   0.867   2.534   5.162  3.4044 -0.5126  0.1836
   33MOL0     H 4331   0.840   2.540   5.333  5.2497  2.5255  0.6595
   33MOL0     H 4332   0.801   2.299   5.147  3.4988 -2.4732  1.3393
   33MOL0     H 4333   0.663   2.391   5.230  0.7558  0.9361  2.3549
   33MOL0     H 4334   0.863   2.195   5.350  2.1020  1.0334  1.7525
   33MOL0     H 4335   0.785   2.325   5.446 -3.2535  0.8263 -0.4372
   33MOL0     H 4336   0.650   2.107   5.464 -0.4629 -0.5953 -1.6436
   33MOL0     H 4337   0.649   2.113   5.285  2.4669  1.1496 -1.2898
   33MOL0     H 4338   1.448   2.870   5.442 -2.3230  0.2992  0.5478
   33MOL0     H 4339   1.598   3.059   5.405  0.0881  0.0291  0.0334
   33MOL0     H 4340   1.572   3.575   5.097  0.4451  1.6037  4.6402
   33MOL0     H 4341   1.753   3.744   5.097  3.2082  1.4234  1.6633
   33MOL0     H 4342   3.229   4.776   4.512 -1.4920 -1.4812 -1.3175
   33MOL0     H 4343   3.401   4.919   4.608  1.9709 -1.3811 -2.8197
   33MOL0     H 4344   3.603   5.148   4.698 -2.6839  2.1454 -1.6998
   33MOL0     H 4345   3.796   5.200   4.840  1.0265  1.9194  0.5854
   33MOL0     H 4346   4.047   5.511   4.697  2.0738  2.2350  0.8729
   33MOL0     H 4347   4.176   5.403   4.630  2.1854  0.5543  2.4175
   33MOL0     H 4348   4.224   5.359   4.883  0.3155 -0.5200 -1.1049
   33MOL0     H 4349   4.267   5.518   4.834  0.6030 -0.4708  2.1838
   33MOL0     H 4350   4.021   5.412   4.992 -1.6863 -0.0328 -2.3132
   33MOL0     H 4351   4.014   5.567   4.917  0.1440 -1.9552 -0.9590
   33MOL0     H 4352   4.236   5.473   5.103 -1.3616 -1.2821 -0.9505
   33MOL0     H 4353   4.234   5.626   5.035  2.5801 -1.2784  1.4076
   33MOL0     H 4354   3.929   5.667   5.345  0.8255  1.9710 -0.8533
   33MOL0     H 4355   3.995   5.364   4.494  2.0112 -1.7903  0.4751
   33MOL0     H 4356   3.791   5.331   4.365 -0.5168  0.0106 -0.9760
   34MOL0     O 4357   9.903   0.698  11.151  0.5156  1.1504  0.0428
   34MOL0     C 4358   9.974   0.649  11.241  0.3058 -1.0233 -0.3943
   34MOL0     O 4359   9.979   0.701  11.366  0.1402  1.2132  0.1229
   34MOL0     C 4360   9.887   0.790  11.424  0.2173  0.7678  0.5445
   34MOL0     C 4361   9.758   0.810  11.367  0.0973  0.0804 -0.4432
   34MOL0     C 4362   9.681   0.915  11.417 -0.7319 -0.3039 -0.9241
   34MOL0     C 4363   9.716   0.997  11.527  0.4127  1.3264  0.4059
   34MOL0     O 4364   9.621   1.085  11.581 -0.1503  0.7510 -0.1765
   34MOL0     C 4365   9.655   1.193  11.663  0.1574  0.4410 -0.3431
   34MOL0     C 4366   9.647   1.150  11.809  0.3182 -0.0889 -0.3080
   34MOL0     C 4367   9.494   1.171  11.848  0.1075 -0.0868 -0.1050
   34MOL0     C 4368   9.486   1.113  11.990 -0.9611 -0.1131  0.3673
   34MOL0     C 4369   9.344   1.101  12.040 -0.6880  1.2317  0.0541
   34MOL0     C 4370   9.307   0.951  12.050  0.1544  0.2197 -0.1703
   34MOL0     C 4371   9.157   0.932  12.049  0.9210  0.0734  0.1449
   34MOL0     C 4372   9.084   0.996  12.168  0.0616  0.0938  1.0127
   34MOL0     N 4373   8.958   0.925  12.195 -0.4126 -0.0783 -0.1232
   34MOL0     C 4374   8.853   0.940  12.109 -0.3610 -0.3169 -0.3835
   34MOL0     C 4375   8.759   0.851  12.153  1.2912 -0.6503  0.4254
   34MOL0     C 4376   8.637   0.800  12.085  0.1042 -0.1573 -0.5848
   34MOL0     C 4377   8.544   0.726  12.180  0.7027  0.3185 -0.8123
   34MOL0     C 4378   8.408   0.700  12.109  0.7376 -0.1514 -0.2174
   34MOL0     C 4379   8.304   0.817  12.114  0.4093 -0.2055 -0.1433
   34MOL0     O 4380   8.278   0.852  12.251 -0.7029 -0.2572  0.0189
   34MOL0     C 4381   8.171   0.795  12.318 -0.1837  0.1233 -0.0584
   34MOL0     C 4382   8.211   0.716  12.428 -0.3184 -0.4717 -0.5967
   34MOL0     C 4383   8.120   0.646  12.508 -0.0844  0.1009  0.6549
   34MOL0     C 4384   7.987   0.636  12.471 -0.5662  0.3970 -0.1831
   34MOL0     C 4385   7.898   0.547  12.549  0.9277 -0.3449  0.6171
   34MOL0     O 4386   7.947   0.478  12.656 -0.4007 -0.6804  0.6070
   34MOL0     C 4387   7.855   0.429  12.742  0.2191  0.0414  0.4873
   34MOL0     C 4388   7.755   0.340  12.697  0.1160  0.3711  0.1971
   34MOL0     C 4389   7.668   0.283  12.783  0.1838  0.2597  0.0012
   34MOL0     C 4390   7.684   0.308  12.922  0.3028 -0.0347  0.0439
   34MOL0     O 4391   7.607   0.236  13.005  0.1630 -0.1904 -0.2795
   34MOL0     C 4392   7.596   0.283  13.138 -0.7539 -0.7455  0.3090
   34MOL0     C 4393   7.529   0.184  13.232 -0.2369  0.2717 -0.6866
   34MOL0     C 4394   7.613   0.061  13.273 -0.4600 -0.8546 -0.4204
   34MOL0     C 4395   7.527  -0.027  13.359 -0.1424  0.1684  0.2325
   34MOL0     C 4396   7.594  -0.146  13.427  1.1066  0.0466  0.1434
   34MOL0     C 4397   7.492  -0.223  13.508  0.3912 -0.4490  0.6325
   34MOL0     C 4398   7.400  -0.325  13.440  0.6887  0.3028 -0.8017
   34MOL0     C 4399   7.343  -0.436  13.535 -0.3642  0.1970 -0.4085
   34MOL0    Cl 4400   7.261  -0.370  13.677 -0.0760  0.1997  0.0046
   34MOL0     C 4401   7.780   0.403  12.964  0.1869 -0.2706 -0.1280
   34MOL0     C 4402   7.866   0.471  12.873 -0.9892  0.4442  0.4863
   34MOL0     O 4403   7.781   0.533  12.497 -0.4018  0.0976 -0.0370
   34MOL0     C 4404   7.942   0.725  12.366 -0.8311  0.9933 -0.7931
   34MOL0     C 4405   8.028   0.810  12.295  0.0243 -0.8230 -0.8991
   34MOL0     N 4406   8.793   0.809  12.283 -0.1157  0.6367  0.8486
   34MOL0     N 4407   8.915   0.850  12.301 -0.0350  0.6334  0.5949
   34MOL0     C 4408   9.843   0.984  11.585 -0.9149 -0.4172 -0.1722
   34MOL0     C 4409   9.928   0.882  11.524  0.0184 -0.0904  0.0421
   34MOL0     C 4410  10.074   0.540  11.213 -0.2027  0.3277 -0.2516
   34MOL0     C 4411  10.155   0.488  11.311 -0.9048  0.4368  0.0587
   34MOL0     C 4412  10.265   0.404  11.277  0.2342 -0.5275 -0.4844
   34MOL0     C 4413  10.291   0.368  11.149 -1.0657  0.9911  0.0669
   34MOL0     O 4414  10.393   0.283  11.138 -0.1079 -0.1827  0.8250
   34MOL0     C 4415  10.399   0.202  11.018 -0.4826 -0.4514 -0.6801
   34MOL0     C 4416  10.538   0.135  11.010 -0.2108 -0.1192 -0.0571
   34MOL0     C 4417  10.656   0.214  10.967 -0.2160 -0.8170 -0.2353
   34MOL0     C 4418  10.674   0.218  10.817  0.5096  0.4150  0.1838
   34MOL0     C 4419  10.809   0.275  10.787  1.1617  0.1558 -0.5817
   34MOL0     C 4420  10.909   0.329  10.755  0.7729  0.3598  0.3983
   34MOL0     C 4421  10.195   0.400  11.047 -0.2149  0.4576 -0.3883
   34MOL0     C 4422  10.090   0.484  11.078 -0.3672 -0.1018 -1.0342
   34MOL0     H 4423   9.712   0.746  11.292 -3.1629  0.2878  1.2039
   34MOL0     H 4424   9.581   0.939  11.382 -1.4191 -1.0578  0.4339
   34MOL0     H 4425   9.598   1.285  11.644 -0.8619 -0.3395 -1.1532
   34MOL0     H 4426   9.756   1.225  11.638  0.5733 -0.3551  0.3088
   34MOL0     H 4427   9.702   1.215  11.878 -1.7814  0.5968  0.8099
   34MOL0     H 4428   9.689   1.050  11.823 -2.1758 -1.3481 -1.3089
   34MOL0     H 4429   9.434   1.118  11.774 -0.8661  1.3472 -0.3995
   34MOL0     H 4430   9.467   1.277  11.843 -0.7840  0.0370  3.8432
   34MOL0     H 4431   9.543   1.020  12.000  0.0104  0.4329  0.0368
   34MOL0     H 4432   9.530   1.183  12.062  1.7321 -2.3987  1.1606
   34MOL0     H 4433   9.279   1.163  11.978 -0.0936  2.9999  1.1316
   34MOL0     H 4434   9.340   1.140  12.143  1.8626  1.7909 -0.0047
   34MOL0     H 4435   9.356   0.915  12.141 -1.6329  1.6726  1.4550
   34MOL0     H 4436   9.355   0.895  11.970  1.6888  0.0820  0.8027
   34MOL0     H 4437   9.106   0.981  11.966 -0.3553 -2.7696 -0.8791
   34MOL0     H 4438   9.148   0.823  12.045 -0.5986  0.2007 -1.8846
   34MOL0     H 4439   9.072   1.103  12.147 -1.2940 -0.2501 -0.1300
   34MOL0     H 4440   9.147   0.995  12.257 -0.3537  0.7817  1.3243
   34MOL0     H 4441   8.846   0.993  12.014 -4.4944  1.0427  0.4667
   34MOL0     H 4442   8.664   0.736  12.001 -0.8063  1.6412 -2.3257
   34MOL0     H 4443   8.585   0.886  12.043 -1.2937  0.9372  3.0181
   34MOL0     H 4444   8.518   0.794  12.262 -1.8814 -1.2119 -0.2559
   34MOL0     H 4445   8.583   0.634  12.224 -2.2549 -1.3749 -1.4885
   34MOL0     H 4446   8.422   0.686  12.002  0.3812  0.0064 -0.2864
   34MOL0     H 4447   8.352   0.618  12.155 -4.3269  4.2408  2.6396
   34MOL0     H 4448   8.215   0.789  12.056  0.6227  1.2708 -1.2259
   34MOL0     H 4449   8.341   0.904  12.060 -3.4349  1.5975 -0.1983
   34MOL0     H 4450   8.317   0.717  12.449  0.4446  5.0325 -2.9054
   34MOL0     H 4451   8.149   0.577  12.587 -0.7326 -1.0667 -0.0924
   34MOL0     H 4452   7.749   0.324  12.589 -1.3791  0.4360  0.2559
   34MOL0     H 4453   7.585   0.221  12.751 -1.5983  1.5464  1.8645
   34MOL0     H 4454   7.522   0.364  13.129 -0.2062 -0.3053 -0.2986
   34MOL0     H 4455   7.686   0.330  13.179 -1.4130  0.3891  0.5208
   34MOL0     H 4456   7.437   0.148  13.186  0.5666  0.2911 -2.3846
   34MOL0     H 4457   7.504   0.240  13.322  1.3557  3.4191 -2.0488
   34MOL0     H 4458   7.698   0.105  13.326  0.5362 -0.5887 -2.1756
   34MOL0     H 4459   7.654   0.004  13.189 -0.3440  0.0304 -0.9765
   34MOL0     H 4460   7.483   0.030  13.441 -1.1766 -1.5868  0.9775
   34MOL0     H 4461   7.446  -0.077  13.304  0.4187 -3.6768  2.4955
   34MOL0     H 4462   7.682  -0.116  13.485  0.2353 -2.0458  2.7550
   34MOL0     H 4463   7.630  -0.209  13.345 -0.0360  1.7092 -1.7262
   34MOL0     H 4464   7.427  -0.151  13.559  2.1132 -0.4174  2.9287
   34MOL0     H 4465   7.546  -0.280  13.584 -1.4675  0.6087  2.8695
   34MOL0     H 4466   7.321  -0.268  13.391  1.4053 -0.5832 -3.1010
   34MOL0     H 4467   7.453  -0.377  13.360 -2.0124 -0.4939 -2.1921
   34MOL0     H 4468   7.416  -0.515  13.553 -1.7781 -0.8652  0.9271
   34MOL0     H 4469   7.266  -0.493  13.483 -0.2143 -0.7732  0.4089
   34MOL0     H 4470   7.772   0.442  13.065 -1.7449 -2.2513  0.5443
   34MOL0     H 4471   7.939   0.546  12.900 -0.7003 -0.8105  3.6442
   34MOL0     H 4472   7.834   0.724  12.355 -0.7898  1.0108 -1.2373
   34MOL0     H 4473   7.988   0.880  12.222  0.2892  0.3484  0.0527
   34MOL0     H 4474   9.885   1.040  11.668  0.8402 -1.2153 -0.4677
   34MOL0     H 4475  10.026   0.859  11.568  0.5106  1.8498  0.0393
   34MOL0     H 4476  10.133   0.511  11.414  0.0831  1.1140  0.1365
   34MOL0     H 4477  10.328   0.374  11.360 -1.4466  0.1893  1.1074
   34MOL0     H 4478  10.386   0.262  10.928  2.0749  0.5244 -0.4790
   34MOL0     H 4479  10.320   0.126  11.023 -0.3394 -0.5408  0.6666
   34MOL0     H 4480  10.565   0.097  11.109  0.1972  2.0135  0.6828
   34MOL0     H 4481  10.536   0.046  10.946  2.0392  0.9242 -1.7259
   34MOL0     H 4482  10.745   0.166  11.010 -0.4457  0.8988  2.3723
   34MOL0     H 4483  10.655   0.317  11.005 -2.6995 -0.4388 -1.1940
   34MOL0     H 4484  10.681   0.113  10.786  4.0742  0.6034 -0.1074
   34MOL0     H 4485  10.591   0.271  10.769 -0.7266 -1.2852  0.3398
   34MOL0     H 4486  10.998   0.380  10.722  1.4113 -0.5223  0.7158
   34MOL0     H 4487  10.203   0.355  10.948  1.1467 -2.0380  0.7524
   34MOL0     H 4488  10.009   0.503  11.008 -0.5867 -1.6840 -1.2378
   35MOL0     O 4489   3.910   6.128   8.532 -0.6125 -0.4633  0.2946
   35MOL0     C 4490   3.952   6.229   8.466  0.0984 -0.2383  0.2200
   35MOL0     O 4491   3.874   6.326   8.394  0.3074  0.7570 -0.5493
   35MOL0     C 4492   3.734   6.316   8.396  0.1474 -0.2815 -0.4191
   35MOL0     C 4493   3.658   6.220   8.461 -0.2456  0.1098 -0.6706
   35MOL0     C 4494   3.515   6.237   8.467  0.3269  0.2491 -0.6052
   35MOL0     C 4495   3.453   6.325   8.382  0.6082  0.5998  1.0138
   35MOL0     O 4496   3.315   6.329   8.399 -0.2509  0.5278 -0.3461
   35MOL0     C 4497   3.231   6.410   8.310 -0.2220  0.2778  0.7950
   35MOL0     C 4498   3.079   6.381   8.338 -0.0998  0.7298 -0.6389
   35MOL0     C 4499   2.980   6.485   8.280  0.2054  0.2585  0.6097
   35MOL0     C 4500   2.841   6.434   8.282  0.3755 -0.0252 -0.2189
   35MOL0     C 4501   2.745   6.519   8.198  0.0328  0.3982  1.1698
   35MOL0     C 4502   2.757   6.483   8.041 -0.2963 -0.0278  0.6498
   35MOL0     C 4503   2.632   6.540   7.979  0.5730 -0.1499 -0.7272
   35MOL0     C 4504   2.636   6.535   7.822 -0.2781  0.9215 -0.5244
   35MOL0     N 4505   2.509   6.560   7.752  0.7056 -0.0995  0.4033
   35MOL0     C 4506   2.378   6.529   7.790  0.2742  0.4729 -0.1099
   35MOL0     C 4507   2.307   6.574   7.680  0.6962  0.4578 -0.1043
   35MOL0     C 4508   2.164   6.569   7.651  0.1887  0.5880  0.6373
   35MOL0     C 4509   2.080   6.561   7.781 -0.3352 -0.1385 -0.0152
   35MOL0     C 4510   1.941   6.491   7.754 -0.0114  0.0903 -0.2296
   35MOL0     C 4511   1.835   6.525   7.856  0.6531 -0.1196 -0.3558
   35MOL0     O 4512   1.762   6.642   7.804  0.4348 -0.1660 -0.4476
   35MOL0     C 4513   1.647   6.689   7.868 -0.0339  0.8719 -0.1630
   35MOL0     C 4514   1.553   6.735   7.783 -0.1170 -0.3763  0.8791
   35MOL0     C 4515   1.426   6.773   7.839  0.2907 -0.1244  0.1223
   35MOL0     C 4516   1.407   6.779   7.979 -0.5488  0.9640  0.0759
   35MOL0     C 4517   1.279   6.830   8.028 -0.1231  1.0406 -0.1735
   35MOL0     O 4518   1.190   6.874   7.937 -0.4123 -0.1540  0.7881
   35MOL0     C 4519   1.071   6.931   7.987  0.3740  0.0950  0.9891
   35MOL0     C 4520   0.951   6.871   7.941 -0.0562 -0.5839 -0.9053
   35MOL0     C 4521   0.826   6.901   8.004 -0.7012 -0.0779  1.0309
   35MOL0     C 4522   0.823   6.998   8.093 -0.5533 -1.0182 -0.4724
   35MOL0     O 4523   0.701   7.043   8.135  0.3515 -0.1388 -0.3633
   35MOL0     C 4524   0.671   7.178   8.088 -0.2632  0.7922 -0.2459
   35MOL0     C 4525   0.564   7.180   7.987 -0.3860 -0.0566  0.4050
   35MOL0     C 4526   0.459   7.284   7.989  0.8096  0.8818 -0.2739
   35MOL0     C 4527   0.475   7.408   7.892  0.5280 -0.3582 -1.0281
   35MOL0     C 4528   0.337   7.473   7.874 -0.5520  0.4805 -0.0189
   35MOL0     C 4529   0.342   7.563   7.742  0.4443  0.1209  0.8315
   35MOL0     C 4530   0.203   7.623   7.707 -0.4806  0.4261  0.3054
   35MOL0     C 4531   0.204   7.776   7.663 -0.5278  0.8464  0.1929
   35MOL0    Cl 4532   0.248   7.878   7.803 -0.0766  0.0249 -0.3494
   35MOL0     C 4533   0.932   7.066   8.137 -0.4513  0.4689  0.1401
   35MOL0     C 4534   1.061   7.038   8.083 -0.4625 -0.2686  0.2840
   35MOL0     O 4535   1.260   6.836   8.153  0.8354 -0.5284 -0.1814
   35MOL0     C 4536   1.507   6.732   8.067 -0.3251  0.7514 -0.3402
   35MOL0     C 4537   1.624   6.683   8.001 -0.1340 -0.6900  0.3040
   35MOL0     N 4538   2.396   6.616   7.584  0.1575 -0.2760 -0.0501
   35MOL0     N 4539   2.517   6.601   7.623 -0.2030  0.1433  0.3858
   35MOL0     C 4540   3.536   6.423   8.313  0.8638  0.4787  0.2173
   35MOL0     C 4541   3.668   6.419   8.324 -0.2785 -0.1594 -0.7956
   35MOL0     C 4542   4.101   6.225   8.454 -0.6584  0.1493 -0.4024
   35MOL0     C 4543   4.187   6.124   8.512  0.6384 -0.9336 -0.7137
   35MOL0     C 4544   4.326   6.118   8.502  0.5661 -0.7970  0.2678
   35MOL0     C 4545   4.386   6.238   8.448 -0.5239  0.3763 -0.3565
   35MOL0     O 4546   4.524   6.228   8.433  0.1314 -0.6609  0.8895
   35MOL0     C 4547   4.590   6.350   8.387 -0.3846 -0.1156 -0.5826
   35MOL0     C 4548   4.733   6.328   8.400  0.5370  0.1807  0.5207
   35MOL0     C 4549   4.779   6.322   8.543  0.0048  0.5371  0.0243
   35MOL0     C 4550   4.898   6.222   8.562  0.7257  0.8696 -0.0244
   35MOL0     C 4551   4.868   6.077   8.541  0.0545  0.4674  0.4799
   35MOL0     C 4552   4.849   5.961   8.523 -0.1259  1.1925 -0.1395
   35MOL0     C 4553   4.301   6.332   8.388  0.2770  0.0525  0.0363
   35MOL0     C 4554   4.167   6.331   8.395  0.7958 -0.3702  0.6687
   35MOL0     H 4555   3.701   6.149   8.530 -2.3574  1.4731  2.2435
   35MOL0     H 4556   3.462   6.162   8.523  1.2515  1.2488  1.7227
   35MOL0     H 4557   3.256   6.393   8.205  0.2608 -0.4145  1.0130
   35MOL0     H 4558   3.244   6.517   8.326  0.7152  0.9331 -3.3630
   35MOL0     H 4559   3.064   6.383   8.446  1.7030  2.6760 -0.3609
   35MOL0     H 4560   3.060   6.280   8.301  3.8647  0.5545 -2.7433
   35MOL0     H 4561   3.002   6.493   8.174  0.0700  1.8153  0.6858
   35MOL0     H 4562   2.984   6.586   8.321 -1.4740  1.0884 -1.1092
   35MOL0     H 4563   2.843   6.334   8.236 -4.8146 -0.4812 -0.0408
   35MOL0     H 4564   2.801   6.424   8.383 -0.4848 -1.8318 -0.6840
   35MOL0     H 4565   2.736   6.628   8.211  2.7342  0.8326  0.1771
   35MOL0     H 4566   2.648   6.476   8.225  0.4882 -0.2428  1.8218
   35MOL0     H 4567   2.741   6.377   8.023  1.0524  0.1464 -2.0486
   35MOL0     H 4568   2.845   6.500   7.978 -2.0999  0.4268 -1.9150
   35MOL0     H 4569   2.550   6.473   8.006 -0.9275  1.0651 -2.0468
   35MOL0     H 4570   2.628   6.641   8.022  0.6633 -0.2605 -0.4579
   35MOL0     H 4571   2.659   6.432   7.791 -2.1616  0.9940 -2.3566
   35MOL0     H 4572   2.719   6.596   7.787 -1.2161  2.4290 -0.2180
   35MOL0     H 4573   2.351   6.495   7.889  2.2155  2.4382  1.2086
   35MOL0     H 4574   2.147   6.484   7.584  0.9239  1.7403 -1.0900
   35MOL0     H 4575   2.131   6.653   7.589 -3.5595 -0.0729  1.4739
   35MOL0     H 4576   2.073   6.654   7.839 -0.6883  1.8429 -2.9914
   35MOL0     H 4577   2.125   6.478   7.836 -1.7583  0.0538  1.5175
   35MOL0     H 4578   1.906   6.506   7.651 -0.6482 -2.8626 -0.5356
   35MOL0     H 4579   1.956   6.383   7.767  3.2990  0.6221  1.3492
   35MOL0     H 4580   1.881   6.538   7.955  1.0470  1.5773 -0.7353
   35MOL0     H 4581   1.759   6.446   7.866 -2.3532  2.8311  4.6860
   35MOL0     H 4582   1.579   6.742   7.678 -4.7952  3.4547 -0.3728
   35MOL0     H 4583   1.348   6.806   7.771 -1.1796 -1.7541  0.9399
   35MOL0     H 4584   0.963   6.788   7.871  1.3436  0.8857 -2.5040
   35MOL0     H 4585   0.737   6.841   7.987 -0.6942  0.3041 -0.4495
   35MOL0     H 4586   0.761   7.219   8.042  0.4274 -0.8599 -0.4317
   35MOL0     H 4587   0.624   7.231   8.171  1.1851 -0.2191  1.2726
   35MOL0     H 4588   0.525   7.078   7.998 -0.1390 -0.2517 -0.4676
   35MOL0     H 4589   0.620   7.190   7.894  0.8664  0.9663  1.2345
   35MOL0     H 4590   0.433   7.320   8.089  1.1028  0.6691 -0.1202
   35MOL0     H 4591   0.375   7.220   7.960  1.7849 -0.4055 -0.3907
   35MOL0     H 4592   0.541   7.478   7.942 -1.8336  2.3463 -1.4260
   35MOL0     H 4593   0.522   7.366   7.803 -1.2047 -2.5201 -1.0334
   35MOL0     H 4594   0.301   7.530   7.960  2.7048  2.5903  0.1039
   35MOL0     H 4595   0.262   7.397   7.849 -0.6858  0.9974 -1.2821
   35MOL0     H 4596   0.367   7.501   7.655  1.2771 -0.9082  1.7714
   35MOL0     H 4597   0.410   7.646   7.760 -0.5073  0.6969  1.9072
   35MOL0     H 4598   0.153   7.572   7.624 -0.2425  0.3518  0.2055
   35MOL0     H 4599   0.133   7.613   7.791  1.1198  2.2613  1.9426
   35MOL0     H 4600   0.106   7.799   7.620 -0.6502  0.2515  0.1378
   35MOL0     H 4601   0.284   7.787   7.590  2.8199 -1.7432  3.0943
   35MOL0     H 4602   0.916   7.143   8.211 -1.4015 -0.8005  1.3040
   35MOL0     H 4603   1.146   7.083   8.133 -1.5194  1.5751  0.5047
   35MOL0     H 4604   1.499   6.736   8.176  2.5339  2.2917 -0.0885
   35MOL0     H 4605   1.708   6.652   8.062 -0.2969 -0.0829  0.8481
   35MOL0     H 4606   3.487   6.492   8.245 -1.5104 -2.1065 -0.8602
   35MOL0     H 4607   3.728   6.499   8.283  0.7438  1.4041  3.2699
   35MOL0     H 4608   4.147   6.038   8.566  0.1829  0.3601  1.1149
   35MOL0     H 4609   4.396   6.045   8.542  0.8905  1.3988  4.2133
   35MOL0     H 4610   4.553   6.434   8.447 -0.9903 -1.3988  0.8733
   35MOL0     H 4611   4.584   6.364   8.278  1.2168 -0.0194 -0.6805
   35MOL0     H 4612   4.757   6.236   8.346 -1.5334 -0.4432  0.5869
   35MOL0     H 4613   4.780   6.410   8.345 -1.1756  2.3450  2.1081
   35MOL0     H 4614   4.715   6.268   8.612  0.7488 -0.6299 -0.1578
   35MOL0     H 4615   4.800   6.426   8.572 -1.1390  1.5694 -2.4740
   35MOL0     H 4616   4.970   6.256   8.487 -0.3716  0.3061 -1.3605
   35MOL0     H 4617   4.939   6.248   8.660 -2.7229 -0.2734  1.8689
   35MOL0     H 4618   4.844   5.854   8.514  0.2126  1.2037 -0.4627
   35MOL0     H 4619   4.339   6.416   8.331 -2.0612  2.0096  1.1659
   35MOL0     H 4620   4.109   6.405   8.340 -0.1003 -3.1247 -2.4672
   36MOL0     O 4621   8.614   4.116   0.644 -0.2493  0.6578 -0.3591
   36MOL0     C 4622   8.639   4.012   0.709  0.0065  1.2119 -0.0823
   36MOL0     O 4623   8.542   3.926   0.758 -0.4815  0.3323 -0.2569
   36MOL0     C 4624   8.411   3.940   0.726 -0.8146 -0.3166 -0.0532
   36MOL0     C 4625   8.327   3.999   0.819 -0.2903  0.6396 -0.5407
   36MOL0     C 4626   8.192   4.011   0.793  0.7572 -0.5642 -0.0337
   36MOL0     C 4627   8.147   3.961   0.670 -0.1820 -0.6742 -0.3611
   36MOL0     O 4628   8.022   3.972   0.621 -0.2440 -0.0886  0.6468
   36MOL0     C 4629   7.949   4.098   0.642 -0.2705 -0.3414 -0.1808
   36MOL0     C 4630   7.815   4.078   0.573 -0.2527  0.6433 -0.4434
   36MOL0     C 4631   7.705   3.984   0.645  0.6965  0.1518 -0.3494
   36MOL0     C 4632   7.700   3.995   0.800 -0.1626 -0.7088 -0.0454
   36MOL0     C 4633   7.611   4.108   0.859 -0.5832  0.0258  0.7164
   36MOL0     C 4634   7.664   4.254   0.831  0.1154 -0.0439  0.8194
   36MOL0     C 4635   7.583   4.357   0.918  0.5928 -0.6576 -0.3964
   36MOL0     C 4636   7.653   4.485   0.958 -0.3204 -0.0294 -1.2712
   36MOL0     N 4637   7.568   4.565   1.047  0.2705 -0.0398 -0.3248
   36MOL0     C 4638   7.472   4.655   0.999  0.9977 -0.2858  0.2969
   36MOL0     C 4639   7.405   4.700   1.112  0.2336  0.5268  0.2611
   36MOL0     C 4640   7.288   4.793   1.110 -0.1274 -0.1052 -0.7226
   36MOL0     C 4641   7.179   4.761   1.218  0.3467 -0.1226 -0.5449
   36MOL0     C 4642   7.119   4.873   1.306  0.0080  1.0862  0.2237
   36MOL0     C 4643   7.022   4.816   1.410 -0.6023  0.6346 -0.3127
   36MOL0     O 4644   6.898   4.801   1.361  0.1669 -0.3186 -0.0649
   36MOL0     C 4645   6.789   4.806   1.450  0.1427 -0.8563  0.8866
   36MOL0     C 4646   6.778   4.806   1.593  0.5748  1.1036  0.0200
   36MOL0     C 4647   6.662   4.820   1.663  0.3624 -0.5010 -0.6115
   36MOL0     C 4648   6.541   4.816   1.598 -0.0670 -0.5989  0.7396
   36MOL0     C 4649   6.410   4.813   1.670 -0.1043 -0.4207 -1.0933
   36MOL0     O 4650   6.305   4.818   1.595  0.0594 -0.4676 -0.2043
   36MOL0     C 4651   6.178   4.802   1.638  1.1924 -0.7474 -0.7966
   36MOL0     C 4652   6.133   4.720   1.746 -0.0937  0.6939  0.0834
   36MOL0     C 4653   6.005   4.721   1.786 -0.0333 -0.1528 -0.1545
   36MOL0     C 4654   5.906   4.793   1.712 -0.5901 -0.3655 -0.5443
   36MOL0     O 4655   5.773   4.794   1.740 -0.0762  0.4496 -0.1481
   36MOL0     C 4656   5.739   4.771   1.875 -0.4940 -0.5330 -0.3729
   36MOL0     C 4657   5.583   4.789   1.898 -1.1396 -0.4057 -0.2129
   36MOL0     C 4658   5.554   4.756   2.049 -0.3093 -0.6484  0.5656
   36MOL0     C 4659   5.402   4.784   2.064 -0.0989  0.5174 -0.6447
   36MOL0     C 4660   5.360   4.763   2.213  0.4684 -0.9255 -0.5008
   36MOL0     C 4661   5.223   4.821   2.249  0.1290 -0.9074 -1.0523
   36MOL0     C 4662   5.199   4.798   2.399 -0.0805  0.0056 -0.1932
   36MOL0     C 4663   5.060   4.867   2.430  0.2588 -0.0550  0.2826
   36MOL0    Cl 4664   5.084   5.040   2.453  0.1720  0.2644 -0.4773
   36MOL0     C 4665   5.946   4.859   1.605  0.0434 -0.1578 -0.4945
   36MOL0     C 4666   6.072   4.870   1.570 -0.3922 -0.3193  0.2040
   36MOL0     O 4667   6.411   4.804   1.795  0.5746  0.2616  0.3946
   36MOL0     C 4668   6.547   4.797   1.454 -0.0977  0.4621 -0.1295
   36MOL0     C 4669   6.667   4.801   1.376 -1.2394  1.6375 -0.1929
   36MOL0     N 4670   7.470   4.652   1.220  0.3306  0.6315 -0.2351
   36MOL0     N 4671   7.556   4.561   1.192  0.3391 -0.6704 -0.3057
   36MOL0     C 4672   8.235   3.900   0.579  0.7519  0.3063 -0.6726
   36MOL0     C 4673   8.372   3.884   0.611  1.0204 -0.0698  0.3538
   36MOL0     C 4674   8.779   3.966   0.726  0.5441  0.4330  0.2642
   36MOL0     C 4675   8.878   4.051   0.686  0.8423  0.0311  0.0940
   36MOL0     C 4676   9.017   4.030   0.713  0.1374  0.3857  0.2111
   36MOL0     C 4677   9.058   3.911   0.756  0.4217  0.1900  0.1310
   36MOL0     O 4678   9.191   3.877   0.775  0.6613 -0.0431 -0.1216
   36MOL0     C 4679   9.259   3.943   0.874  0.0383 -0.2716 -0.3717
   36MOL0     C 4680   9.408   3.900   0.876  0.1748 -0.4714  0.2598
   36MOL0     C 4681   9.487   3.903   0.742  0.1067  0.0036 -0.7534
   36MOL0     C 4682   9.623   3.836   0.775 -0.6286  1.1125  0.4418
   36MOL0     C 4683   9.720   3.847   0.668 -0.6730 -0.0908 -0.6160
   36MOL0     C 4684   9.799   3.862   0.580 -0.6453 -0.0920  0.1480
   36MOL0     C 4685   8.955   3.816   0.787 -0.1024  0.6668  0.3245
   36MOL0     C 4686   8.813   3.845   0.776 -1.1897  0.5347  0.4576
   36MOL0     H 4687   8.371   4.030   0.914 -1.0677 -2.2067  0.8604
   36MOL0     H 4688   8.117   4.049   0.861  1.7754 -2.4422  2.2950
   36MOL0     H 4689   8.003   4.169   0.579 -0.7334 -2.6676 -3.4436
   36MOL0     H 4690   7.939   4.126   0.747 -0.3672  0.6548 -0.4508
   36MOL0     H 4691   7.837   4.045   0.471  1.3232  0.6093 -0.1139
   36MOL0     H 4692   7.758   4.171   0.571 -0.2332  0.6538 -2.0638
   36MOL0     H 4693   7.739   3.881   0.631 -1.1071 -0.6697  1.0038
   36MOL0     H 4694   7.613   3.989   0.587 -0.5702  0.8513  1.6122
   36MOL0     H 4695   7.649   3.905   0.838 -1.0042  0.0986  0.7934
   36MOL0     H 4696   7.799   3.997   0.846 -0.1279 -4.3159  0.3207
   36MOL0     H 4697   7.619   4.098   0.967  1.6675  1.1951  0.7223
   36MOL0     H 4698   7.506   4.107   0.829 -0.2039  1.7720 -0.8976
   36MOL0     H 4699   7.668   4.292   0.729  0.5188 -0.4160  0.6921
   36MOL0     H 4700   7.771   4.248   0.851  0.2405  0.3738  0.3057
   36MOL0     H 4701   7.493   4.378   0.861  0.8699  2.4570  0.1381
   36MOL0     H 4702   7.565   4.308   1.014  1.9093 -0.3883  0.0092
   36MOL0     H 4703   7.689   4.532   0.866  4.6235  0.8780  0.8061
   36MOL0     H 4704   7.749   4.459   1.005 -1.0149  2.4711  1.9356
   36MOL0     H 4705   7.454   4.691   0.898  0.5386 -0.8290  0.1769
   36MOL0     H 4706   7.240   4.787   1.012 -2.1864 -4.5996  0.2918
   36MOL0     H 4707   7.308   4.897   1.139 -0.6428 -0.7951  2.5808
   36MOL0     H 4708   7.227   4.683   1.278  0.9795  0.0460 -0.8338
   36MOL0     H 4709   7.095   4.715   1.165 -0.5120  2.3093 -1.4506
   36MOL0     H 4710   7.194   4.928   1.364  0.9906  0.4479 -0.4095
   36MOL0     H 4711   7.060   4.940   1.243 -1.3618 -0.4693 -0.2014
   36MOL0     H 4712   7.012   4.899   1.480 -0.7168  2.0401 -1.9259
   36MOL0     H 4713   7.071   4.729   1.454 -0.0840  0.5089 -1.1307
   36MOL0     H 4714   6.876   4.800   1.640  1.5270 -0.4420 -1.9830
   36MOL0     H 4715   6.659   4.825   1.772 -0.6412  0.7713 -0.6693
   36MOL0     H 4716   6.199   4.655   1.802 -0.7908  0.5816  0.7858
   36MOL0     H 4717   5.967   4.656   1.864 -1.8645  0.3237 -0.5959
   36MOL0     H 4718   5.784   4.848   1.938 -2.1631 -0.6626  1.0576
   36MOL0     H 4719   5.770   4.669   1.898  0.8280  0.2922  1.7183
   36MOL0     H 4720   5.538   4.714   1.832  2.8979 -3.3183 -0.0523
   36MOL0     H 4721   5.557   4.894   1.882 -3.0215 -0.5557  1.4675
   36MOL0     H 4722   5.605   4.821   2.120  2.2286 -2.6233  0.6885
   36MOL0     H 4723   5.576   4.651   2.069 -0.9147 -1.1727 -1.2583
   36MOL0     H 4724   5.387   4.889   2.039  2.0529  1.1318  0.4285
   36MOL0     H 4725   5.344   4.731   1.988  1.6041  1.6913 -2.8892
   36MOL0     H 4726   5.430   4.807   2.284 -2.0959 -1.8404  2.8389
   36MOL0     H 4727   5.363   4.655   2.234  1.1952 -1.0381 -1.1370
   36MOL0     H 4728   5.143   4.776   2.189 -0.5784 -0.0908 -0.7415
   36MOL0     H 4729   5.227   4.929   2.238  4.1630 -0.6845  0.7837
   36MOL0     H 4730   5.194   4.693   2.430  0.5668  0.4930  1.7071
   36MOL0     H 4731   5.276   4.847   2.460 -0.7515  0.1642  0.5459
   36MOL0     H 4732   5.033   4.829   2.529  2.6810 -0.2868  0.9126
   36MOL0     H 4733   4.997   4.849   2.342  2.8550 -1.4594 -1.4038
   36MOL0     H 4734   5.876   4.914   1.543  2.9451  2.5183 -1.7056
   36MOL0     H 4735   6.099   4.927   1.481 -3.9474  1.5036  0.0923
   36MOL0     H 4736   6.461   4.763   1.398  0.3859  0.5005 -0.9007
   36MOL0     H 4737   6.671   4.793   1.268  2.0981  1.4038 -0.1633
   36MOL0     H 4738   8.191   3.861   0.487 -1.7152  0.4223  0.3713
   36MOL0     H 4739   8.441   3.835   0.543  0.8387  0.3949 -0.1746
   36MOL0     H 4740   8.851   4.148   0.644 -1.1535 -0.6858 -0.3959
   36MOL0     H 4741   9.090   4.108   0.690  0.2920  0.9046  2.2542
   36MOL0     H 4742   9.204   3.915   0.964 -0.7343 -0.3710 -0.8695
   36MOL0     H 4743   9.247   4.051   0.858 -3.8414 -0.4831  0.1542
   36MOL0     H 4744   9.456   3.971   0.944 -3.6726  1.4154  1.2331
   36MOL0     H 4745   9.403   3.799   0.918  0.1893  0.6766  3.2812
   36MOL0     H 4746   9.510   4.004   0.706 -0.1829 -0.2074 -1.5403
   36MOL0     H 4747   9.431   3.848   0.666  0.7840  0.5042 -1.6322
   36MOL0     H 4748   9.668   3.874   0.867 -1.2659 -0.9713  1.6858
   36MOL0     H 4749   9.619   3.731   0.804  2.0406  0.6270 -0.6569
   36MOL0     H 4750   9.858   3.884   0.494 -0.3256  2.9249  1.0042
   36MOL0     H 4751   8.989   3.717   0.815 -1.4767  0.4857  1.4237
   36MOL0     H 4752   8.738   3.775   0.810 -1.5801  1.2831  1.1834
   37MOL0     O 4753   5.075  10.276   2.746  0.0901  0.7608  0.3312
   37MOL0     C 4754   5.083  10.252   2.865  0.3703  1.0263 -0.3321
   37MOL0     O 4755   5.204  10.244   2.938  0.6064 -0.2741  0.9466
   37MOL0     C 4756   5.333  10.259   2.884 -0.0440 -0.0536 -0.9764
   37MOL0     C 4757   5.371  10.269   2.748 -1.5587  0.0026 -0.3250
   37MOL0     C 4758   5.513  10.259   2.717  0.0680 -0.2208  0.4357
   37MOL0     C 4759   5.617  10.256   2.811  0.1598 -0.2646 -0.3767
   37MOL0     O 4760   5.740  10.307   2.771 -0.3917  0.0884  0.4429
   37MOL0     C 4761   5.813  10.391   2.862  0.0747  0.2316 -0.7932
   37MOL0     C 4762   5.942  10.437   2.797  0.4891  0.0770  0.5616
   37MOL0     C 4763   6.010  10.530   2.897 -0.1157 -0.2072 -0.5202
   37MOL0     C 4764   6.155  10.570   2.840 -0.0569 -0.1153 -0.9917
   37MOL0     C 4765   6.226  10.662   2.939 -0.1666 -0.2546  0.5652
   37MOL0     C 4766   6.365  10.701   2.879  1.1467  0.8050 -0.0860
   37MOL0     C 4767   6.451  10.585   2.830 -1.3687 -0.5572 -0.3130
   37MOL0     C 4768   6.606  10.627   2.846  0.6138 -0.9869  0.2979
   37MOL0     N 4769   6.635  10.736   2.748 -0.1131 -0.3366 -0.0099
   37MOL0     C 4770   6.666  10.867   2.783 -0.1410 -0.0108  0.0958
   37MOL0     C 4771   6.712  10.921   2.658 -0.9480 -0.3604 -0.9147
   37MOL0     C 4772   6.784  11.050   2.642  0.8425 -0.8619  0.6181
   37MOL0     C 4773   6.941  11.028   2.661  0.9419 -0.5801  1.0063
   37MOL0     C 4774   7.006  11.167   2.628  0.2654  0.3803  0.5671
   37MOL0     C 4775   7.154  11.159   2.613  0.1791 -0.9693  0.0727
   37MOL0     O 4776   7.216  11.277   2.652  0.5420  0.6787 -0.0373
   37MOL0     C 4777   7.348  11.266   2.671 -0.6578  0.0390 -1.4876
   37MOL0     C 4778   7.425  11.146   2.652 -0.5776 -0.2521  0.0002
   37MOL0     C 4779   7.560  11.150   2.675 -0.9726 -1.1634 -0.3511
   37MOL0     C 4780   7.625  11.265   2.726 -1.0081 -0.4980 -0.1020
   37MOL0     C 4781   7.772  11.267   2.735 -0.1895  0.7121 -0.0860
   37MOL0     O 4782   7.837  11.141   2.722 -1.0009 -0.0589 -0.0862
   37MOL0     C 4783   7.975  11.139   2.740  0.8828  1.5414  0.1324
   37MOL0     C 4784   8.023  11.169   2.860  0.7588  0.3968  0.0902
   37MOL0     C 4785   8.160  11.167   2.890 -0.9043 -0.0807  0.4863
   37MOL0     C 4786   8.251  11.144   2.791  0.0513  0.4785 -0.0097
   37MOL0     O 4787   8.383  11.151   2.811 -0.3736  0.0202  0.2217
   37MOL0     C 4788   8.442  11.204   2.923  0.1094 -0.1440 -0.5161
   37MOL0     C 4789   8.594  11.192   2.912  0.3798  0.3618  0.1488
   37MOL0     C 4790   8.663  11.274   3.028 -0.3408  0.3115  0.2217
   37MOL0     C 4791   8.809  11.248   3.042 -0.1747  0.1000  0.3228
   37MOL0     C 4792   8.882  11.315   2.930 -0.5754  0.1869 -0.5685
   37MOL0     C 4793   9.033  11.319   2.951  0.3066 -0.0503 -0.3175
   37MOL0     C 4794   9.107  11.387   2.830  0.5665  0.5747 -0.2124
   37MOL0     C 4795   9.058  11.332   2.691  0.1566  0.2212  0.4182
   37MOL0    Cl 4796   9.048  11.157   2.704  0.1647  0.0948  0.4964
   37MOL0     C 4797   8.201  11.120   2.653  0.7406 -0.7172 -0.5871
   37MOL0     C 4798   8.061  11.117   2.630 -1.3082 -0.1577  0.7620
   37MOL0     O 4799   7.825  11.371   2.772 -0.4095  0.1083 -0.5003
   37MOL0     C 4800   7.547  11.379   2.759  0.1016  0.2128  0.1051
   37MOL0     C 4801   7.412  11.381   2.727  0.5835 -0.5348 -0.0356
   37MOL0     N 4802   6.710  10.822   2.562  0.8687 -0.0784  1.1425
   37MOL0     N 4803   6.659  10.707   2.617 -0.3669  0.3132 -0.3000
   37MOL0     C 4804   5.578  10.235   2.943  0.1309  0.4386 -0.4534
   37MOL0     C 4805   5.436  10.239   2.979 -0.2825 -0.5942  0.7213
   37MOL0     C 4806   4.950  10.225   2.934 -0.6163  0.6107  0.5088
   37MOL0     C 4807   4.835  10.255   2.868 -1.3256  0.2123 -1.3787
   37MOL0     C 4808   4.707  10.217   2.925  0.5551 -0.0205 -0.1672
   37MOL0     C 4809   4.702  10.158   3.053  0.6357  0.2491  0.8830
   37MOL0     O 4810   4.573  10.129   3.098  0.5514  0.1698 -0.2308
   37MOL0     C 4811   4.552  10.030   3.199  0.0096 -0.1486  0.3334
   37MOL0     C 4812   4.405  10.023   3.237  1.0932 -0.2351 -0.6405
   37MOL0     C 4813   4.336  10.167   3.271 -0.3332 -0.4960  0.0672
   37MOL0     C 4814   4.187  10.173   3.248  0.5854 -0.0930 -0.1253
   37MOL0     C 4815   4.119  10.261   3.344 -0.5015 -0.4739 -0.1476
   37MOL0     C 4816   4.061  10.342   3.418 -0.8003  0.2888 -0.0374
   37MOL0     C 4817   4.817  10.120   3.119  0.1005  0.4464 -0.1425
   37MOL0     C 4818   4.942  10.157   3.063 -0.0988 -0.0932  0.1125
   37MOL0     H 4819   5.303  10.272   2.663 -3.2342  1.8299  1.0082
   37MOL0     H 4820   5.546  10.277   2.616  1.7985 -2.3624  0.5284
   37MOL0     H 4821   5.840  10.335   2.952 -0.6073  0.6092 -0.3486
   37MOL0     H 4822   5.748  10.475   2.887 -0.7985 -0.9550  1.2001
   37MOL0     H 4823   5.928  10.483   2.699 -2.0305 -1.9473 -0.1194
   37MOL0     H 4824   6.012  10.354   2.785  1.4023  0.3735  3.1127
   37MOL0     H 4825   6.014  10.487   2.997 -0.1460 -0.6921 -0.7271
   37MOL0     H 4826   5.938  10.612   2.901 -0.2627 -0.3802  1.2289
   37MOL0     H 4827   6.206  10.474   2.833  0.1623 -0.1922  1.1505
   37MOL0     H 4828   6.152  10.624   2.745  1.1811 -0.2009 -1.0837
   37MOL0     H 4829   6.243  10.618   3.038 -2.6307  0.7584  1.5248
   37MOL0     H 4830   6.174  10.754   2.966 -1.1649  1.0970 -4.8183
   37MOL0     H 4831   6.415  10.747   2.965 -1.3566 -1.3960  2.7844
   37MOL0     H 4832   6.341  10.764   2.793 -0.2139  0.2404 -0.1463
   37MOL0     H 4833   6.427  10.489   2.875 -2.7645 -0.3317 -0.5191
   37MOL0     H 4834   6.417  10.575   2.726 -0.8711 -1.7678 -0.3758
   37MOL0     H 4835   6.669  10.539   2.832 -1.7793 -2.6056 -0.9750
   37MOL0     H 4836   6.644  10.659   2.944  5.4108  0.7617 -1.8398
   37MOL0     H 4837   6.670  10.910   2.882  3.5835 -1.8405  0.9142
   37MOL0     H 4838   6.748  11.117   2.721  4.4574 -0.4328  2.0766
   37MOL0     H 4839   6.763  11.093   2.543  0.5150 -1.8811  0.2324
   37MOL0     H 4840   6.976  10.955   2.587  1.3744  2.2874 -1.8524
   37MOL0     H 4841   6.956  10.997   2.765  1.1830 -2.1792  0.5224
   37MOL0     H 4842   6.970  11.217   2.538  1.0742  0.1459  0.1055
   37MOL0     H 4843   6.984  11.241   2.706 -1.8402 -0.5061  0.8965
   37MOL0     H 4844   7.186  11.141   2.510 -1.0696 -1.8822 -0.1791
   37MOL0     H 4845   7.191  11.075   2.672  1.2236  1.7751  3.7306
   37MOL0     H 4846   7.394  11.048   2.618  1.2461 -0.6297 -0.7288
   37MOL0     H 4847   7.611  11.055   2.672 -2.5964 -2.1131  0.7853
   37MOL0     H 4848   7.950  11.187   2.938  0.1359 -0.2086 -0.3299
   37MOL0     H 4849   8.199  11.199   2.986  0.6390  1.6173 -0.6431
   37MOL0     H 4850   8.403  11.167   3.018 -0.6499 -2.4186 -1.6546
   37MOL0     H 4851   8.411  11.309   2.920 -0.3655 -0.2170  1.1779
   37MOL0     H 4852   8.635  11.235   2.820 -3.3275  0.7832 -1.4592
   37MOL0     H 4853   8.619  11.086   2.922  0.1536  0.3557  0.6973
   37MOL0     H 4854   8.604  11.241   3.114 -2.3555  2.5562 -0.1987
   37MOL0     H 4855   8.656  11.383   3.028  0.4189  0.3687  0.4157
   37MOL0     H 4856   8.847  11.278   3.140 -0.5065 -2.0006  1.1484
   37MOL0     H 4857   8.825  11.140   3.047  0.2496  0.0651 -1.3104
   37MOL0     H 4858   8.855  11.418   2.902  0.7336  1.1752  1.5306
   37MOL0     H 4859   8.866  11.243   2.849  2.4606 -2.7239  1.1745
   37MOL0     H 4860   9.063  11.214   2.954 -1.8973 -0.7169 -0.2559
   37MOL0     H 4861   9.066  11.366   3.044  1.3486  0.7802 -1.0903
   37MOL0     H 4862   9.089  11.494   2.846  0.6659  0.4252  0.9442
   37MOL0     H 4863   9.213  11.359   2.830  1.1750  2.6529 -1.6184
   37MOL0     H 4864   9.123  11.360   2.608 -0.1700  1.3274  0.5171
   37MOL0     H 4865   8.962  11.374   2.659 -0.2818  1.7296  3.3652
   37MOL0     H 4866   8.268  11.106   2.569  2.7423  2.4639  0.3091
   37MOL0     H 4867   8.030  11.088   2.530 -1.0551 -1.1861  0.9606
   37MOL0     H 4868   7.586  11.472   2.798 -1.5881  0.5242  1.1540
   37MOL0     H 4869   7.359  11.475   2.740  0.4173 -0.5869 -0.3338
   37MOL0     H 4870   5.659  10.243   3.014  0.5820 -0.6127 -0.8341
   37MOL0     H 4871   5.408  10.235   3.083  0.5212 -0.1027  0.9641
   37MOL0     H 4872   4.837  10.300   2.770 -1.4241 -0.3890 -1.6586
   37MOL0     H 4873   4.617  10.234   2.867 -0.0787 -0.0776  0.7872
   37MOL0     H 4874   4.607  10.057   3.290 -1.1763  1.6432  0.5834
   37MOL0     H 4875   4.590   9.937   3.155  0.4168  0.6284 -1.0342
   37MOL0     H 4876   4.341   9.992   3.153 -4.0150 -0.3223  2.8450
   37MOL0     H 4877   4.386   9.947   3.313  0.6044 -0.0991 -0.6218
   37MOL0     H 4878   4.379  10.238   3.200  1.1113 -1.5858 -0.2057
   37MOL0     H 4879   4.369  10.191   3.373  2.1502 -2.4041 -0.1703
   37MOL0     H 4880   4.165  10.196   3.144  0.7381 -0.6820 -0.2877
   37MOL0     H 4881   4.133  10.080   3.268  1.0272 -0.3791 -0.2648
   37MOL0     H 4882   4.022  10.406   3.495 -1.1437  1.5921 -1.2574
   37MOL0     H 4883   4.810  10.085   3.221 -1.3310  1.6634  0.2100
   37MOL0     H 4884   5.028  10.144   3.127 -0.1236 -0.2963  0.1070
   38MOL0     O 4885   2.982   5.725   7.396  0.5427 -0.3054  0.2985
   38MOL0     C 4886   3.018   5.830   7.453 -0.1187 -1.0937 -0.6927
   38MOL0     O 4887   2.965   5.947   7.432 -0.0425 -0.5710 -0.1038
   38MOL0     C 4888   2.870   5.963   7.338  0.6142 -0.3544  0.7321
   38MOL0     C 4889   2.867   6.093   7.277  0.2613 -0.0276  0.2156
   38MOL0     C 4890   2.786   6.122   7.166 -0.1658  0.9436 -0.0879
   38MOL0     C 4891   2.685   6.022   7.132  0.1874  0.4250  0.1793
   38MOL0     O 4892   2.595   6.045   7.025 -0.0235 -0.2241  0.0255
   38MOL0     C 4893   2.648   6.075   6.900 -1.2606 -0.2907  1.2516
   38MOL0     C 4894   2.557   6.023   6.788  1.3366 -0.4398  0.0927
   38MOL0     C 4895   2.401   6.050   6.820  0.2680  0.5618  0.0337
   38MOL0     C 4896   2.292   6.029   6.714 -0.3427  0.5469 -0.7963
   38MOL0     C 4897   2.312   6.129   6.600  0.5956  0.4120 -0.6396
   38MOL0     C 4898   2.175   6.132   6.536  0.5919  0.1514 -0.0115
   38MOL0     C 4899   2.152   6.256   6.434  0.3956  0.2979  0.8414
   38MOL0     C 4900   2.050   6.358   6.495  0.2571 -0.1989  0.2259
   38MOL0     N 4901   1.922   6.323   6.436 -0.5902  0.3321 -0.7496
   38MOL0     C 4902   1.880   6.362   6.315 -0.3594 -0.2226  1.0689
   38MOL0     C 4903   1.768   6.289   6.289 -0.1251 -0.2681  0.2922
   38MOL0     C 4904   1.685   6.283   6.159 -1.1553 -0.5915 -0.5880
   38MOL0     C 4905   1.543   6.336   6.192 -0.6661  0.0292  0.6059
   38MOL0     C 4906   1.452   6.337   6.065 -0.6174 -0.1633 -0.1334
   38MOL0     C 4907   1.309   6.375   6.090 -0.2472 -0.1527 -0.1754
   38MOL0     O 4908   1.304   6.515   6.129  0.7290  0.1741 -0.1929
   38MOL0     C 4909   1.172   6.559   6.144 -0.7169  0.2097 -0.4116
   38MOL0     C 4910   1.147   6.694   6.130 -0.9408  0.5989  0.7980
   38MOL0     C 4911   1.030   6.758   6.161 -0.0709  0.1855  0.0518
   38MOL0     C 4912   0.929   6.673   6.206  0.5975 -0.0084 -0.6180
   38MOL0     C 4913   0.793   6.738   6.236  0.1016  0.5571  0.9584
   38MOL0     O 4914   0.775   6.873   6.246  0.3648  0.2947 -0.0811
   38MOL0     C 4915   0.662   6.935   6.290  0.5357 -0.2666  0.0436
   38MOL0     C 4916   0.582   6.878   6.392 -0.6099  0.5656 -0.3400
   38MOL0     C 4917   0.474   6.949   6.440  1.3950  0.5995 -2.0944
   38MOL0     C 4918   0.421   7.063   6.375  0.3083 -0.2005 -1.2711
   38MOL0     O 4919   0.294   7.122   6.398  0.1529 -0.5717  0.2723
   38MOL0     C 4920   0.245   7.097   6.523  0.4560 -0.1485 -1.0571
   38MOL0     C 4921   0.141   7.206   6.575  0.1218  0.1993  0.3733
   38MOL0     C 4922   0.201   7.349   6.582 -0.0913 -0.4047  0.4151
   38MOL0     C 4923   0.102   7.436   6.655 -0.0852  0.0482 -0.3185
   38MOL0     C 4924   0.160   7.574   6.688  0.0895 -0.4571  0.3492
   38MOL0     C 4925   0.068   7.657   6.767  0.1293 -0.1795 -0.4097
   38MOL0     C 4926   0.139   7.757   6.862  0.2709 -0.3627 -0.0789
   38MOL0     C 4927   0.043   7.848   6.943 -0.5130 -0.1625  0.3712
   38MOL0    Cl 4928  -0.056   7.740   7.048  0.3718  0.1500  0.0058
   38MOL0     C 4929   0.501   7.119   6.271  0.5485  0.1294  0.2297
   38MOL0     C 4930   0.626   7.061   6.234 -0.5798 -0.9355 -0.4300
   38MOL0     O 4931   0.710   6.651   6.245  0.4728 -0.2335  0.0831
   38MOL0     C 4932   0.938   6.533   6.199  0.1134 -0.1200 -0.0791
   38MOL0     C 4933   1.066   6.483   6.183  0.0603 -0.3821  0.3586
   38MOL0     N 4934   1.738   6.214   6.399 -0.2587  0.2733  0.4984
   38MOL0     N 4935   1.835   6.232   6.485  0.6168 -0.1597  0.3674
   38MOL0     C 4936   2.675   5.908   7.212 -0.2594  0.5427 -0.0944
   38MOL0     C 4937   2.765   5.869   7.314  0.0272 -0.4483  0.6626
   38MOL0     C 4938   3.137   5.822   7.543 -0.3847 -0.5078 -0.2825
   38MOL0     C 4939   3.239   5.728   7.502 -0.3235 -0.3542 -1.1686
   38MOL0     C 4940   3.361   5.714   7.574 -0.1278 -0.1129 -0.5480
   38MOL0     C 4941   3.397   5.810   7.674  0.8406  0.1226  0.2498
   38MOL0     O 4942   3.523   5.816   7.726  0.7481 -0.4671 -0.1697
   38MOL0     C 4943   3.630   5.757   7.643  0.0149 -0.3158  0.8575
   38MOL0     C 4944   3.772   5.791   7.681 -0.5445  0.3202 -1.0316
   38MOL0     C 4945   3.796   5.940   7.692 -0.2271 -0.0870  0.4523
   38MOL0     C 4946   3.887   5.992   7.810  0.0168 -0.0514 -0.4322
   38MOL0     C 4947   4.025   5.961   7.785 -0.4670  0.0210  0.2475
   38MOL0     C 4948   4.144   5.955   7.765 -0.0102  0.3227  0.9702
   38MOL0     C 4949   3.294   5.911   7.711  0.0298  0.0981 -0.6454
   38MOL0     C 4950   3.164   5.915   7.647  0.1805  0.6112  0.4115
   38MOL0     H 4951   2.941   6.169   7.300 -1.0297  1.0434  0.9394
   38MOL0     H 4952   2.799   6.214   7.111 -0.0170  1.6421  1.0793
   38MOL0     H 4953   2.744   6.021   6.901 -2.1692 -2.0569 -0.5188
   38MOL0     H 4954   2.659   6.182   6.883 -0.3347 -0.6387 -0.5966
   38MOL0     H 4955   2.562   5.915   6.773  3.8441 -0.4507  0.7016
   38MOL0     H 4956   2.585   6.079   6.698 -1.6345  2.5760  0.8050
   38MOL0     H 4957   2.403   6.154   6.854  0.6251  0.5171  0.1536
   38MOL0     H 4958   2.377   5.976   6.897  2.8435 -0.7941 -0.3452
   38MOL0     H 4959   2.290   5.929   6.670 -5.3011 -0.4831  1.1195
   38MOL0     H 4960   2.194   6.017   6.761  0.2785  3.4953  1.5995
   38MOL0     H 4961   2.387   6.098   6.527  0.8476  0.8431 -0.5701
   38MOL0     H 4962   2.336   6.232   6.630  0.3031  0.4391 -0.4982
   38MOL0     H 4963   2.091   6.136   6.606  1.2014  0.4612  0.7140
   38MOL0     H 4964   2.172   6.038   6.481  4.2415  0.4797 -1.0061
   38MOL0     H 4965   2.253   6.292   6.414  0.7975 -2.0489 -2.3195
   38MOL0     H 4966   2.120   6.217   6.337  0.4452  0.3626  0.7988
   38MOL0     H 4967   2.089   6.456   6.464  2.4623 -1.9669 -3.2164
   38MOL0     H 4968   2.037   6.348   6.603 -0.1800 -3.0130 -0.0192
   38MOL0     H 4969   1.925   6.429   6.242  0.7112 -2.8349 -0.8483
   38MOL0     H 4970   1.675   6.184   6.113 -2.6211 -0.5095 -0.4891
   38MOL0     H 4971   1.743   6.341   6.087 -1.5382 -0.6793 -0.9709
   38MOL0     H 4972   1.559   6.440   6.224  0.1355 -0.0373  0.4378
   38MOL0     H 4973   1.502   6.269   6.268  2.7003 -2.4317  0.4476
   38MOL0     H 4974   1.497   6.408   5.994  0.9484 -0.3378  0.6524
   38MOL0     H 4975   1.448   6.243   6.010 -1.9485 -0.9784  1.2886
   38MOL0     H 4976   1.272   6.310   6.169 -1.3307 -0.5207 -0.9549
   38MOL0     H 4977   1.245   6.352   6.004 -2.0053 -0.2289  1.1105
   38MOL0     H 4978   1.212   6.781   6.114 -1.3575  1.0968  1.7556
   38MOL0     H 4979   1.027   6.866   6.161  0.1361  0.3558  3.9306
   38MOL0     H 4980   0.609   6.780   6.430 -0.3768  0.2516 -1.2832
   38MOL0     H 4981   0.422   6.897   6.520 -0.4384  2.6033 -1.8912
   38MOL0     H 4982   0.325   7.096   6.597 -2.3974 -0.9407  2.2922
   38MOL0     H 4983   0.210   6.993   6.530 -0.0468  0.1115  1.1619
   38MOL0     H 4984   0.091   7.179   6.668 -1.4813 -1.0758 -0.8038
   38MOL0     H 4985   0.060   7.209   6.501  1.5299  2.2154 -1.1876
   38MOL0     H 4986   0.216   7.394   6.483 -0.7865  0.6079  0.7594
   38MOL0     H 4987   0.293   7.359   6.641  0.2580  1.3657 -0.3420
   38MOL0     H 4988   0.015   7.454   6.591 -1.4037 -4.7109 -0.2522
   38MOL0     H 4989   0.076   7.385   6.748  0.0761  2.0044  0.8735
   38MOL0     H 4990   0.186   7.629   6.597 -3.3805  0.3860 -0.2904
   38MOL0     H 4991   0.252   7.558   6.745 -0.4133 -0.8702  1.0579
   38MOL0     H 4992   0.005   7.596   6.832 -0.9103 -1.7363 -2.7478
   38MOL0     H 4993   0.002   7.714   6.702 -1.0265  0.1931  1.0345
   38MOL0     H 4994   0.207   7.706   6.931 -0.7719 -0.0149  1.2565
   38MOL0     H 4995   0.191   7.827   6.796 -0.7790  1.9952  1.4473
   38MOL0     H 4996  -0.026   7.906   6.881 -4.3010 -0.5028  3.8208
   38MOL0     H 4997   0.109   7.913   7.002 -2.7921  1.8590  0.8627
   38MOL0     H 4998   0.459   7.202   6.215 -0.6676 -1.0932 -0.7564
   38MOL0     H 4999   0.683   7.090   6.146 -1.5059 -0.6179 -0.9305
   38MOL0     H 5000   0.859   6.477   6.248  0.3330 -0.5111 -0.1644
   38MOL0     H 5001   1.068   6.380   6.216  0.8777 -0.8019 -0.9351
   38MOL0     H 5002   2.605   5.830   7.187 -2.0202  1.5629  1.4323
   38MOL0     H 5003   2.741   5.775   7.363 -3.6582 -0.1249 -0.2156
   38MOL0     H 5004   3.224   5.660   7.418  2.2786 -3.1919  0.4462
   38MOL0     H 5005   3.437   5.642   7.547 -0.5044 -0.3855 -0.8831
   38MOL0     H 5006   3.624   5.783   7.536  1.4850 -3.4552 -0.1078
   38MOL0     H 5007   3.631   5.648   7.646  0.8986 -0.2948  3.3632
   38MOL0     H 5008   3.811   5.739   7.769 -0.5893  1.9007 -0.0353
   38MOL0     H 5009   3.837   5.752   7.601 -1.2306  0.8683 -1.8719
   38MOL0     H 5010   3.697   5.988   7.690 -0.0431  0.3253  1.0914
   38MOL0     H 5011   3.851   5.977   7.605 -1.5130  3.1712  0.8828
   38MOL0     H 5012   3.871   6.100   7.803 -1.2720 -0.3249 -4.5320
   38MOL0     H 5013   3.861   5.957   7.910 -0.7491 -2.7697 -1.5028
   38MOL0     H 5014   4.249   5.971   7.748  0.1082 -0.6849  0.7256
   38MOL0     H 5015   3.328   5.986   7.781  1.6361 -2.0240  0.9759
   38MOL0     H 5016   3.107   6.000   7.683  1.8397  1.0173  2.2494
   39MOL0     O 5017   7.579   7.393   9.454 -0.4692 -0.2993  0.8103
   39MOL0     C 5018   7.499   7.458   9.519 -0.3718 -1.2484  0.0589
   39MOL0     O 5019   7.532   7.555   9.611 -0.0001 -0.0019 -0.0048
   39MOL0     C 5020   7.659   7.610   9.626 -0.8139  0.4891  0.4933
   39MOL0     C 5021   7.772   7.590   9.540  0.2581  0.0913 -0.2499
   39MOL0     C 5022   7.897   7.622   9.585 -0.3467 -0.2404 -0.1867
   39MOL0     C 5023   7.920   7.688   9.705 -0.2457 -0.0203  0.3245
   39MOL0     O 5024   8.046   7.739   9.743 -0.9438 -0.0208 -0.2900
   39MOL0     C 5025   8.154   7.647   9.747 -0.3824  0.1998  0.9092
   39MOL0     C 5026   8.275   7.725   9.787 -1.0151  0.3069  0.0857
   39MOL0     C 5027   8.307   7.828   9.675  0.1004 -0.1306  0.2897
   39MOL0     C 5028   8.330   7.763   9.536  0.3976  0.9942 -0.2657
   39MOL0     C 5029   8.451   7.661   9.533 -0.7772  0.2081 -0.3223
   39MOL0     C 5030   8.573   7.711   9.610  0.2980 -0.2854  0.5099
   39MOL0     C 5031   8.650   7.813   9.526  0.4756  0.3551  0.7271
   39MOL0     C 5032   8.755   7.869   9.615 -0.1569 -0.2582 -0.2065
   39MOL0     N 5033   8.701   7.975   9.710 -0.4357 -0.2762  0.5011
   39MOL0     C 5034   8.661   7.946   9.836  0.2020 -0.8325 -0.0006
   39MOL0     C 5035   8.614   8.065   9.884 -0.5458  0.5197  0.0874
   39MOL0     C 5036   8.556   8.090  10.028 -0.3976  0.1371  0.1170
   39MOL0     C 5037   8.407   8.054  10.046 -0.5443  0.2566 -0.3276
   39MOL0     C 5038   8.326   8.130   9.945  0.1746 -0.3510 -0.8344
   39MOL0     C 5039   8.182   8.093   9.941  0.7025  0.5878  0.7450
   39MOL0     O 5040   8.132   8.133   9.815  0.0736 -0.3514 -0.3592
   39MOL0     C 5041   8.003   8.097   9.777 -0.0531 -0.0600  0.8244
   39MOL0     C 5042   7.977   8.096   9.641  0.2420  0.9237 -0.7369
   39MOL0     C 5043   7.850   8.066   9.595 -0.4079 -0.0087  0.4486
   39MOL0     C 5044   7.740   8.040   9.673 -0.7797 -0.4711 -0.2562
   39MOL0     C 5045   7.604   8.012   9.638 -0.4209  0.2376  0.6925
   39MOL0     O 5046   7.499   7.996   9.737 -0.6056 -0.6306  0.4308
   39MOL0     C 5047   7.373   7.953   9.700  0.1808 -0.0033  0.1479
   39MOL0     C 5048   7.266   7.994   9.779  0.0393  0.5275 -0.0667
   39MOL0     C 5049   7.136   7.938   9.757  0.3544  0.3554  0.3896
   39MOL0     C 5050   7.109   7.842   9.659  0.1260  0.4047  0.7172
   39MOL0     O 5051   6.981   7.781   9.633 -0.2311 -0.1166 -0.5454
   39MOL0     C 5052   6.859   7.834   9.683 -0.8179  0.0256  0.0079
   39MOL0     C 5053   6.745   7.747   9.625  0.0266  0.4407 -0.1074
   39MOL0     C 5054   6.614   7.822   9.655 -0.0803  0.2424  0.5497
   39MOL0     C 5055   6.511   7.720   9.594  0.2290 -0.0029 -0.3188
   39MOL0     C 5056   6.364   7.764   9.611  0.6288  0.5744  0.2103
   39MOL0     C 5057   6.265   7.672   9.540 -0.0595 -0.1358  0.8674
   39MOL0     C 5058   6.115   7.690   9.576  0.3031 -0.0902 -0.2809
   39MOL0     C 5059   6.035   7.634   9.466  0.3303  0.3972 -0.4850
   39MOL0    Cl 5060   5.864   7.678   9.502  0.4392 -0.2037  0.3915
   39MOL0     C 5061   7.225   7.800   9.583  0.1913  0.0180  0.5026
   39MOL0     C 5062   7.347   7.851   9.611 -1.2755 -0.2998 -0.0736
   39MOL0     O 5063   7.587   8.000   9.516 -0.0210  0.8182 -0.7688
   39MOL0     C 5064   7.773   8.041   9.810  0.0023 -0.5433 -0.3011
   39MOL0     C 5065   7.900   8.065   9.861  0.2614 -0.1426  0.2412
   39MOL0     N 5066   8.649   8.160   9.792  0.7262  0.5260  0.1327
   39MOL0     N 5067   8.700   8.105   9.691  0.6471 -0.2726  0.0344
   39MOL0     C 5068   7.808   7.720   9.782  0.0319  0.8825  0.6426
   39MOL0     C 5069   7.676   7.679   9.750 -0.2308  1.1098 -0.5528
   39MOL0     C 5070   7.356   7.411   9.499  0.1714 -0.1377  0.3551
   39MOL0     C 5071   7.324   7.328   9.389  0.0503 -0.9883  0.2107
   39MOL0     C 5072   7.188   7.290   9.365 -0.0143  1.1417  0.1162
   39MOL0     C 5073   7.087   7.337   9.449  0.0174  0.0253  0.6470
   39MOL0     O 5074   6.950   7.319   9.431  0.0588 -0.5168 -0.3998
   39MOL0     C 5075   6.911   7.211   9.356 -0.2379  0.3311  0.1390
   39MOL0     C 5076   6.792   7.148   9.420  0.4073  0.1636 -0.4026
   39MOL0     C 5077   6.672   7.235   9.404 -0.1420 -0.5313 -0.3581
   39MOL0     C 5078   6.555   7.179   9.487 -0.6611 -0.1149  0.1521
   39MOL0     C 5079   6.441   7.267   9.459 -0.2372 -0.2810 -0.0351
   39MOL0     C 5080   6.338   7.326   9.422  0.2777 -0.2353  0.0067
   39MOL0     C 5081   7.125   7.404   9.563 -0.4540  0.3648 -0.7539
   39MOL0     C 5082   7.256   7.446   9.587 -0.3981  0.7308  0.2444
   39MOL0     H 5083   7.759   7.539   9.445  0.2332 -0.4520  0.0447
   39MOL0     H 5084   7.985   7.597   9.527  1.1208 -1.4031  2.3829
   39MOL0     H 5085   8.177   7.592   9.655  0.7281  0.1449  1.2100
   39MOL0     H 5086   8.131   7.572   9.822 -2.9206  1.1324  1.1635
   39MOL0     H 5087   8.364   7.666   9.813 -1.1632  0.6574  1.4901
   39MOL0     H 5088   8.251   7.786   9.875  1.3376 -2.0143  2.5187
   39MOL0     H 5089   8.387   7.894   9.711 -0.4174  0.3768  0.5129
   39MOL0     H 5090   8.227   7.900   9.659 -0.1276 -0.3560  0.4142
   39MOL0     H 5091   8.243   7.707   9.500  0.9254 -0.7645  1.0713
   39MOL0     H 5092   8.357   7.842   9.465 -2.0295  0.9564 -1.3422
   39MOL0     H 5093   8.479   7.636   9.431 -1.4293  1.7388 -0.9048
   39MOL0     H 5094   8.420   7.572   9.588  3.5816 -0.1100  2.0691
   39MOL0     H 5095   8.635   7.622   9.630  2.3471  1.2750  1.4814
   39MOL0     H 5096   8.544   7.746   9.710 -0.7929  1.1854 -0.3013
   39MOL0     H 5097   8.695   7.749   9.450 -2.6024 -3.3563  1.7240
   39MOL0     H 5098   8.591   7.894   9.484  2.4659  1.6423  0.2551
   39MOL0     H 5099   8.835   7.913   9.554  0.6379 -1.8384 -0.3438
   39MOL0     H 5100   8.802   7.791   9.676 -0.9297 -0.9074 -0.4317
   39MOL0     H 5101   8.659   7.846   9.878 -0.6419 -0.0299  2.0186
   39MOL0     H 5102   8.574   8.197  10.043  0.5566 -0.2844  2.5739
   39MOL0     H 5103   8.619   8.034  10.098  0.5061 -0.2148 -0.9439
   39MOL0     H 5104   8.366   8.084  10.143  2.8727  0.5157  1.1579
   39MOL0     H 5105   8.395   7.946  10.034 -0.0008  0.2195 -0.5632
   39MOL0     H 5106   8.321   8.237   9.964 -0.9688 -0.6620  0.8504
   39MOL0     H 5107   8.368   8.116   9.845  1.0401  1.4659 -0.7696
   39MOL0     H 5108   8.135   8.137  10.030  1.8541  2.5302  0.4499
   39MOL0     H 5109   8.171   7.987   9.965 -1.0048  0.9646  1.8269
   39MOL0     H 5110   8.053   8.124   9.568  0.8155  0.9533 -0.1414
   39MOL0     H 5111   7.846   8.071   9.487  0.5788 -0.9597  0.3507
   39MOL0     H 5112   7.279   8.074   9.851 -0.5456  1.3099 -0.8119
   39MOL0     H 5113   7.052   7.978   9.812 -1.8886 -0.8648 -1.9104
   39MOL0     H 5114   6.855   7.937   9.647  0.4764  0.0932  0.0300
   39MOL0     H 5115   6.850   7.841   9.792  2.0764  1.9618  0.2184
   39MOL0     H 5116   6.738   7.646   9.667 -0.8578  0.2577 -0.6700
   39MOL0     H 5117   6.765   7.728   9.519  0.5474 -1.3170  0.2684
   39MOL0     H 5118   6.599   7.919   9.606 -5.9484 -0.9630 -0.8284
   39MOL0     H 5119   6.602   7.824   9.764 -2.1377 -0.9245  0.3989
   39MOL0     H 5120   6.524   7.696   9.488 -0.4090  2.4675 -1.0213
   39MOL0     H 5121   6.526   7.627   9.650  0.5812  0.1652 -0.1295
   39MOL0     H 5122   6.343   7.869   9.589  0.4021  0.4489 -0.1853
   39MOL0     H 5123   6.359   7.757   9.720 -1.8011  2.2204  0.2892
   39MOL0     H 5124   6.287   7.569   9.573  0.3737  0.4346  2.4447
   39MOL0     H 5125   6.287   7.674   9.432 -1.4313  0.7054  0.5801
   39MOL0     H 5126   6.085   7.659   9.677 -0.1606 -0.5345 -0.5496
   39MOL0     H 5127   6.093   7.797   9.580 -2.4603 -0.6069  2.8595
   39MOL0     H 5128   6.047   7.526   9.464 -1.0650  0.2381 -1.6950
   39MOL0     H 5129   6.079   7.682   9.378  2.4620 -1.2280 -0.3741
   39MOL0     H 5130   7.215   7.727   9.504  0.4394  0.1861  0.3123
   39MOL0     H 5131   7.430   7.809   9.555 -2.6013 -2.2839 -0.6469
   39MOL0     H 5132   7.704   8.016   9.891  1.5016  1.2703  1.6522
   39MOL0     H 5133   7.919   8.055   9.968  0.0872  0.7956  0.3728
   39MOL0     H 5134   7.821   7.777   9.874 -3.8089 -1.2748  2.7652
   39MOL0     H 5135   7.584   7.699   9.803 -1.8185  0.8669 -3.0600
   39MOL0     H 5136   7.402   7.297   9.320 -1.2539 -1.1621 -1.2173
   39MOL0     H 5137   7.159   7.216   9.291 -2.1200  0.8617  1.1448
   39MOL0     H 5138   6.982   7.128   9.356 -0.0832  0.4398 -1.3377
   39MOL0     H 5139   6.894   7.230   9.250  0.6989 -4.1526 -1.0318
   39MOL0     H 5140   6.780   7.056   9.363  0.9356  1.0253 -1.9624
   39MOL0     H 5141   6.808   7.123   9.525 -0.1332  0.7386 -0.1716
   39MOL0     H 5142   6.647   7.225   9.298  1.5666 -1.5976 -0.7158
   39MOL0     H 5143   6.700   7.330   9.450  3.2237 -1.8059  0.5082
   39MOL0     H 5144   6.533   7.077   9.457  0.2740 -0.5805  0.9828
   39MOL0     H 5145   6.579   7.184   9.594 -2.2985  3.5219  0.5234
   39MOL0     H 5146   6.248   7.373   9.388  0.5636  1.7807  1.8196
   39MOL0     H 5147   7.050   7.441   9.632  0.3218  0.6107 -0.0311
   39MOL0     H 5148   7.275   7.502   9.679 -0.5315  0.8387  0.2067
   40MOL0     O 5149   5.759   9.000   9.455 -0.8191 -0.2320 -0.2351
   40MOL0     C 5150   5.782   8.912   9.379 -0.5301 -0.7012  0.5911
   40MOL0     O 5151   5.701   8.809   9.358  0.4205 -0.8461  0.1816
   40MOL0     C 5152   5.580   8.793   9.410  0.5558 -0.5568  0.6500
   40MOL0     C 5153   5.470   8.812   9.327  0.5108  0.1882  0.7236
   40MOL0     C 5154   5.340   8.819   9.373 -0.0772  0.1205  0.0520
   40MOL0     C 5155   5.314   8.804   9.507 -0.5492 -0.3722  0.5154
   40MOL0     O 5156   5.189   8.849   9.550  1.5507 -0.1970 -0.4561
   40MOL0     C 5157   5.145   8.786   9.666  0.6843  0.5069 -0.8750
   40MOL0     C 5158   4.995   8.749   9.669  0.1947  0.4392  0.7290
   40MOL0     C 5159   4.939   8.706   9.531 -0.0348 -0.3923 -0.1476
   40MOL0     C 5160   4.800   8.641   9.556  0.6077 -0.5376  0.4928
   40MOL0     C 5161   4.723   8.600   9.423 -0.6285 -0.9072 -0.9872
   40MOL0     C 5162   4.802   8.506   9.337  0.3236  0.1679  0.6126
   40MOL0     C 5163   4.732   8.483   9.196  0.1283  0.0365  0.4818
   40MOL0     C 5164   4.699   8.615   9.128 -0.2735  0.0246 -0.2149
   40MOL0     N 5165   4.563   8.652   9.124  0.4829  0.2849 -0.3648
   40MOL0     C 5166   4.470   8.585   9.047 -0.4111 -0.4367 -0.5222
   40MOL0     C 5167   4.358   8.667   9.052 -0.3489  0.1477 -0.5054
   40MOL0     C 5168   4.231   8.654   8.974 -0.8854  0.7497  0.3685
   40MOL0     C 5169   4.120   8.749   9.016 -0.1905  0.2749 -0.8670
   40MOL0     C 5170   3.997   8.742   8.930  0.1141  0.3814  0.0432
   40MOL0     C 5171   3.889   8.835   8.966  0.5356 -0.4482 -0.4280
   40MOL0     O 5172   3.790   8.835   8.866  0.6415 -0.0374 -0.0880
   40MOL0     C 5173   3.676   8.903   8.893  0.3785  0.2001  0.0934
   40MOL0     C 5174   3.599   8.923   8.779  0.5415 -0.6845 -0.2397
   40MOL0     C 5175   3.472   8.979   8.795  0.1261 -0.2583  0.0307
   40MOL0     C 5176   3.418   9.006   8.920  0.0410 -0.3898 -0.3055
   40MOL0     C 5177   3.269   9.033   8.944 -0.0486  1.1165 -1.1229
   40MOL0     O 5178   3.188   9.052   8.832 -0.5757  0.3915 -0.5776
   40MOL0     C 5179   3.050   9.058   8.832 -0.2130 -0.9453 -0.7992
   40MOL0     C 5180   2.992   9.083   8.705  0.6654  0.0338 -0.5238
   40MOL0     C 5181   2.852   9.106   8.698 -0.2552  0.3740 -0.5725
   40MOL0     C 5182   2.768   9.112   8.811 -0.4584  0.8210  0.3976
   40MOL0     O 5183   2.636   9.148   8.803 -0.0889  0.3634  0.3087
   40MOL0     C 5184   2.596   9.256   8.712  0.3702  0.0908  0.5097
   40MOL0     C 5185   2.448   9.243   8.653  0.2368  0.4473  0.5108
   40MOL0     C 5186   2.460   9.133   8.555 -0.1926  0.1860 -0.8195
   40MOL0     C 5187   2.327   9.066   8.521  0.1644  0.9264 -0.1978
   40MOL0     C 5188   2.233   9.182   8.471 -0.0236 -1.2467  0.0558
   40MOL0     C 5189   2.109   9.118   8.415 -0.4118  0.0672 -0.7583
   40MOL0     C 5190   2.021   9.041   8.512  0.6474 -0.9386 -0.2415
   40MOL0     C 5191   1.876   9.065   8.483 -0.7660  0.1203  0.0348
   40MOL0    Cl 5192   1.815   9.236   8.455 -0.1899  0.5774 -0.0750
   40MOL0     C 5193   2.836   9.096   8.937  0.5124 -0.2645 -0.4958
   40MOL0     C 5194   2.970   9.066   8.949  0.5887  0.6574 -1.0921
   40MOL0     O 5195   3.230   9.032   9.064  0.3072 -0.1553 -0.0571
   40MOL0     C 5196   3.499   8.982   9.041 -0.0250 -0.1913  0.5380
   40MOL0     C 5197   3.630   8.936   9.023 -0.1277  0.0570  0.2233
   40MOL0     N 5198   4.383   8.773   9.145  0.0021 -0.5499 -0.3896
   40MOL0     N 5199   4.511   8.770   9.170  0.1467 -0.3025 -0.5263
   40MOL0     C 5200   5.425   8.778   9.591  0.1538 -0.2466 -0.0090
   40MOL0     C 5201   5.555   8.765   9.542 -0.3806 -0.2071  0.3072
   40MOL0     C 5202   5.921   8.904   9.331 -0.0118 -0.1266  0.0603
   40MOL0     C 5203   5.967   8.796   9.249  0.4947 -0.2856 -0.4232
   40MOL0     C 5204   6.098   8.786   9.214 -0.0843  0.1505 -0.0425
   40MOL0     C 5205   6.194   8.886   9.256  0.0564  0.1675 -0.1703
   40MOL0     O 5206   6.327   8.888   9.230  0.8020  0.2003 -0.8132
   40MOL0     C 5207   6.380   8.778   9.163  0.0384  0.0149 -0.9450
   40MOL0     C 5208   6.361   8.791   9.015  0.3272  0.4582 -0.4331
   40MOL0     C 5209   6.373   8.659   8.928 -1.0732  0.2387 -0.6812
   40MOL0     C 5210   6.523   8.624   8.924 -0.5819  0.6947 -0.2587
   40MOL0     C 5211   6.543   8.488   8.865 -0.2101 -0.0230 -0.4314
   40MOL0     C 5212   6.600   8.393   8.812  0.0742 -0.0804 -0.7607
   40MOL0     C 5213   6.144   8.989   9.328  1.0846  0.2699  0.3252
   40MOL0     C 5214   6.009   9.002   9.366  0.5232  0.3476 -0.6568
   40MOL0     H 5215   5.490   8.819   9.220  0.7194  3.6008  0.8754
   40MOL0     H 5216   5.266   8.838   9.296  2.7579  1.5779 -2.5393
   40MOL0     H 5217   5.172   8.861   9.741 -1.2343  1.6571 -1.2678
   40MOL0     H 5218   5.209   8.700   9.689 -0.7974 -0.1124  1.1964
   40MOL0     H 5219   4.944   8.839   9.703 -0.8007 -0.1080  0.7232
   40MOL0     H 5220   4.968   8.688   9.756 -3.1853  2.0048  0.9530
   40MOL0     H 5221   5.001   8.625   9.491 -0.7983 -0.2251 -1.7574
   40MOL0     H 5222   4.938   8.788   9.459  0.3816 -0.2844 -0.0328
   40MOL0     H 5223   4.825   8.556   9.620  0.9340 -3.0963 -2.8024
   40MOL0     H 5224   4.751   8.720   9.614  1.8188  0.0510  0.7490
   40MOL0     H 5225   4.707   8.697   9.375  0.4349 -0.0354  0.3361
   40MOL0     H 5226   4.635   8.550   9.464  1.0810  0.4164  5.4458
   40MOL0     H 5227   4.807   8.411   9.389 -0.7999 -0.6208 -0.6444
   40MOL0     H 5228   4.906   8.534   9.317  0.0254  0.4221 -0.7427
   40MOL0     H 5229   4.786   8.420   9.124 -0.2857  1.3961 -1.0822
   40MOL0     H 5230   4.638   8.429   9.209  1.3131 -2.5067 -0.8292
   40MOL0     H 5231   4.728   8.615   9.023 -1.3708 -0.5817 -0.5324
   40MOL0     H 5232   4.753   8.700   9.171 -1.3281  0.3735  0.4791
   40MOL0     H 5233   4.489   8.495   8.991  2.6480 -1.5786  2.0620
   40MOL0     H 5234   4.188   8.554   8.990 -1.9418  1.1434  0.0985
   40MOL0     H 5235   4.246   8.658   8.866 -1.9487 -5.2827 -0.4038
   40MOL0     H 5236   4.156   8.852   9.011  0.2435  0.3368  2.0883
   40MOL0     H 5237   4.099   8.721   9.119 -2.2695 -1.1238 -1.6057
   40MOL0     H 5238   4.017   8.759   8.824 -4.3412 -5.1778 -2.1757
   40MOL0     H 5239   3.958   8.640   8.935  1.2959 -0.0575  0.6534
   40MOL0     H 5240   3.929   8.935   8.981  3.0135 -1.3798 -0.3785
   40MOL0     H 5241   3.845   8.807   9.062  0.2105 -4.0935 -1.4875
   40MOL0     H 5242   3.625   8.883   8.682 -3.8951 -2.1328 -1.0793
   40MOL0     H 5243   3.417   8.987   8.703  4.0391  3.3291 -2.3665
   40MOL0     H 5244   3.040   9.096   8.608  1.1012  2.4668 -0.0325
   40MOL0     H 5245   2.802   9.117   8.602  2.3698  0.0236 -2.0722
   40MOL0     H 5246   2.664   9.272   8.628  1.4114 -1.3849  1.0286
   40MOL0     H 5247   2.590   9.348   8.770 -0.7373  1.5226 -1.7089
   40MOL0     H 5248   2.419   9.338   8.606 -1.9854 -0.5359 -0.2483
   40MOL0     H 5249   2.370   9.226   8.727  0.1564  0.0746  0.3412
   40MOL0     H 5250   2.530   9.054   8.585  0.2166 -1.0851 -4.5835
   40MOL0     H 5251   2.520   9.171   8.471  3.3910 -1.6679  0.6672
   40MOL0     H 5252   2.338   8.993   8.441 -1.3669  0.0630  0.3484
   40MOL0     H 5253   2.278   9.017   8.605 -0.7013 -1.0049 -1.7690
   40MOL0     H 5254   2.290   9.238   8.396  2.1920 -1.8324  1.1965
   40MOL0     H 5255   2.204   9.244   8.557 -2.2382 -2.7562  0.4642
   40MOL0     H 5256   2.139   9.054   8.332  3.5822  3.3410 -2.1891
   40MOL0     H 5257   2.052   9.203   8.376 -1.2970 -0.5346 -0.8093
   40MOL0     H 5258   2.050   8.935   8.519 -0.2069 -1.1054  4.8163
   40MOL0     H 5259   2.046   9.078   8.612  2.7930 -1.1661 -0.6527
   40MOL0     H 5260   1.808   9.016   8.552 -0.5074 -2.7002 -1.5748
   40MOL0     H 5261   1.868   9.024   8.382  0.3792  2.2260 -0.9787
   40MOL0     H 5262   2.777   9.104   9.028  4.1238  0.2055  1.9870
   40MOL0     H 5263   3.010   9.063   9.050  1.4930 -3.1940 -1.3884
   40MOL0     H 5264   3.458   9.006   9.139 -2.2469 -0.2848 -0.3078
   40MOL0     H 5265   3.692   8.925   9.112  1.9689 -0.1727 -1.1910
   40MOL0     H 5266   5.414   8.767   9.699  2.1930  2.1419  0.5420
   40MOL0     H 5267   5.635   8.751   9.614 -0.5764  0.6396  0.7048
   40MOL0     H 5268   5.895   8.720   9.220  1.4392 -1.6183  0.6078
   40MOL0     H 5269   6.127   8.696   9.160  1.1445  0.0649  0.7223
   40MOL0     H 5270   6.329   8.692   9.207  1.2277  0.5863  1.7461
   40MOL0     H 5271   6.487   8.773   9.188 -0.1804 -3.0344 -0.2257
   40MOL0     H 5272   6.259   8.829   9.005 -1.2311 -1.9062  4.0155
   40MOL0     H 5273   6.430   8.868   8.978 -0.8704  2.4104  1.2406
   40MOL0     H 5274   6.318   8.663   8.834 -2.3344  2.0378  0.0921
   40MOL0     H 5275   6.315   8.586   8.986  1.5978 -1.5181 -0.0016
   40MOL0     H 5276   6.573   8.703   8.868 -0.5864  0.0932 -1.1424
   40MOL0     H 5277   6.566   8.624   9.024 -1.9041 -0.1430  0.3406
   40MOL0     H 5278   6.652   8.308   8.772 -1.7396 -0.1658 -3.1297
   40MOL0     H 5279   6.214   9.064   9.365  1.4673 -2.1207  5.1368
   40MOL0     H 5280   5.988   9.090   9.426 -0.1710  0.7497 -1.4653
   41MOL0     O 5281   6.326   5.624   9.977  0.5803  0.3435  0.4685
   41MOL0     C 5282   6.400   5.583   9.888  0.1358  0.0643  0.8120
   41MOL0     O 5283   6.359   5.533   9.762  0.2902  0.0408 -0.6261
   41MOL0     C 5284   6.230   5.502   9.723 -0.0354 -0.3737  0.0641
   41MOL0     C 5285   6.215   5.383   9.659  0.0065  0.4470  0.5657
   41MOL0     C 5286   6.091   5.331   9.622 -0.3008 -0.3623 -0.2330
   41MOL0     C 5287   5.973   5.389   9.667  0.3592 -0.3544 -0.7188
   41MOL0     O 5288   5.852   5.332   9.635  0.3069  0.4165  0.0065
   41MOL0     C 5289   5.748   5.361   9.735  0.3712  0.3442  1.1304
   41MOL0     C 5290   5.615   5.318   9.671  0.3606  0.6032  0.3145
   41MOL0     C 5291   5.612   5.166   9.669 -0.0163  1.2353  1.2130
   41MOL0     C 5292   5.481   5.108   9.617  0.8794 -0.1927  0.1691
   41MOL0     C 5293   5.357   5.155   9.702 -0.1922  0.4412 -0.6855
   41MOL0     C 5294   5.237   5.066   9.706 -0.8491 -0.7668 -0.4578
   41MOL0     C 5295   5.177   5.020   9.573 -0.5797 -0.8494  0.2617
   41MOL0     C 5296   5.053   4.919   9.587 -0.0764 -0.0234 -0.7633
   41MOL0     N 5297   4.997   4.895   9.456  0.3688  0.8539  0.2951
   41MOL0     C 5298   5.020   4.796   9.360  0.2004 -0.4557 -1.2357
   41MOL0     C 5299   4.928   4.815   9.263  0.0492  0.5345  0.3358
   41MOL0     C 5300   4.934   4.735   9.136 -0.6451  0.2383 -0.1741
   41MOL0     C 5301   4.809   4.654   9.115  0.1682  0.3292  0.5475
   41MOL0     C 5302   4.679   4.733   9.099 -1.7243 -0.5014  0.3135
   41MOL0     C 5303   4.553   4.658   9.073  0.8064  0.5315  0.7854
   41MOL0     O 5304   4.544   4.620   8.934 -0.0088 -0.2349  0.5705
   41MOL0     C 5305   4.427   4.558   8.912  0.1573  0.8095 -0.1074
   41MOL0     C 5306   4.317   4.619   8.865  0.1268 -0.1103  0.4768
   41MOL0     C 5307   4.195   4.555   8.850  0.1784  0.5328  0.5034
   41MOL0     C 5308   4.184   4.418   8.892 -0.0377  0.4710  0.6643
   41MOL0     C 5309   4.056   4.334   8.860  0.0051 -0.3770 -0.3551
   41MOL0     O 5310   4.054   4.200   8.867 -0.4141 -1.0062 -0.8566
   41MOL0     C 5311   3.948   4.114   8.825 -0.6631 -0.2669 -0.8969
   41MOL0     C 5312   3.829   4.160   8.764  0.6877 -0.2188 -0.3132
   41MOL0     C 5313   3.736   4.070   8.710  0.1913 -0.3992 -0.0429
   41MOL0     C 5314   3.763   3.940   8.731 -0.0091 -0.2612  0.0497
   41MOL0     O 5315   3.677   3.847   8.690  0.6336  0.6718 -0.9597
   41MOL0     C 5316   3.545   3.856   8.736  1.0674  0.2450 -0.4838
   41MOL0     C 5317   3.455   3.792   8.633  0.2839  0.1018  0.3355
   41MOL0     C 5318   3.480   3.640   8.609  0.0019 -0.9568 -0.5024
   41MOL0     C 5319   3.382   3.572   8.524  0.6934  0.3478 -0.1724
   41MOL0     C 5320   3.421   3.426   8.482 -0.5436 -0.3822  0.2446
   41MOL0     C 5321   3.557   3.412   8.401  0.2313  0.4704 -0.6823
   41MOL0     C 5322   3.538   3.303   8.301  0.5850  0.3299  0.8638
   41MOL0     C 5323   3.646   3.201   8.299  0.8057 -0.4492  1.2104
   41MOL0    Cl 5324   3.586   3.081   8.185  0.2310 -0.2635  0.0588
   41MOL0     C 5325   3.879   3.889   8.796 -0.1945 -0.2417 -0.5500
   41MOL0     C 5326   3.974   3.981   8.839 -0.6798 -0.8082  0.1153
   41MOL0     O 5327   3.952   4.401   8.844 -0.2377 -0.7094  0.3045
   41MOL0     C 5328   4.295   4.355   8.944 -0.1329 -0.4756  0.0163
   41MOL0     C 5329   4.418   4.429   8.943  0.1191 -0.2000  0.0770
   41MOL0     N 5330   4.852   4.924   9.297 -0.2979  0.1974  0.4731
   41MOL0     N 5331   4.884   4.963   9.410  0.7420 -0.0759 -0.5773
   41MOL0     C 5332   5.983   5.516   9.729  1.0000 -0.5869  0.2454
   41MOL0     C 5333   6.113   5.560   9.762  0.6724 -0.3014 -0.3268
   41MOL0     C 5334   6.540   5.587   9.925 -0.2448  0.5120 -0.6353
   41MOL0     C 5335   6.640   5.608   9.825 -0.0018  0.6555  0.2955
   41MOL0     C 5336   6.781   5.625   9.850  0.5726 -1.1561  0.6908
   41MOL0     C 5337   6.812   5.645   9.985 -0.2639  0.4538 -0.2029
   41MOL0     O 5338   6.930   5.699  10.022 -0.0793 -0.2717 -0.1008
   41MOL0     C 5339   7.046   5.615   9.998  1.1977 -1.0649 -0.3920
   41MOL0     C 5340   7.166   5.702  10.018 -0.0314  0.1241 -0.2889
   41MOL0     C 5341   7.214   5.738  10.158  0.0019  0.2717 -0.9482
   41MOL0     C 5342   7.296   5.868  10.176  0.8167 -0.0557  0.4671
   41MOL0     C 5343   7.217   5.985  10.128 -0.3234 -1.3821 -0.6140
   41MOL0     C 5344   7.164   6.068  10.058  0.6105 -0.5509  0.4013
   41MOL0     C 5345   6.720   5.614  10.085 -0.1230  0.1786 -0.1019
   41MOL0     C 5346   6.586   5.586  10.053 -0.1442 -0.0268  0.3318
   41MOL0     H 5347   6.302   5.327   9.626 -1.6776 -0.9365 -1.8693
   41MOL0     H 5348   6.091   5.231   9.579  1.8540 -1.1974  1.4806
   41MOL0     H 5349   5.741   5.466   9.765  1.7961 -0.1434  3.3830
   41MOL0     H 5350   5.753   5.307   9.830 -3.5602  1.6263  2.2731
   41MOL0     H 5351   5.597   5.363   9.573  1.1902 -2.7281 -1.4903
   41MOL0     H 5352   5.541   5.358   9.742  0.1768  1.0797 -0.1331
   41MOL0     H 5353   5.624   5.122   9.768 -0.8902 -0.5385  0.5843
   41MOL0     H 5354   5.688   5.123   9.604 -1.1217 -0.8397  1.2007
   41MOL0     H 5355   5.468   5.122   9.510 -0.2620 -2.2288 -0.0180
   41MOL0     H 5356   5.476   4.999   9.623  0.1357 -0.1836 -0.1002
   41MOL0     H 5357   5.334   5.255   9.664  2.5442  1.2869 -0.3801
   41MOL0     H 5358   5.380   5.166   9.809  0.1216 -1.4198 -0.5230
   41MOL0     H 5359   5.154   5.122   9.749 -0.7718 -1.8860  1.2168
   41MOL0     H 5360   5.257   4.974   9.762 -2.2216  0.1043  1.5659
   41MOL0     H 5361   5.146   5.108   9.517 -1.1672 -0.6305  0.9176
   41MOL0     H 5362   5.250   4.965   9.512 -0.3501 -0.4471  0.1748
   41MOL0     H 5363   4.979   4.967   9.651  0.9663  0.3741  0.1698
   41MOL0     H 5364   5.072   4.822   9.634 -3.6299 -0.2621  0.5074
   41MOL0     H 5365   5.099   4.722   9.351  1.2644  0.3621  0.7986
   41MOL0     H 5366   5.024   4.675   9.151 -1.1314  0.2732  3.8871
   41MOL0     H 5367   4.957   4.811   9.061  1.1789  0.5325  0.6251
   41MOL0     H 5368   4.802   4.587   9.201 -0.1893 -0.4767 -0.0937
   41MOL0     H 5369   4.824   4.590   9.028 -0.9263  1.1973 -0.3174
   41MOL0     H 5370   4.669   4.799   9.185 -2.2276 -1.3804  0.9504
   41MOL0     H 5371   4.694   4.798   9.012  1.2329 -0.1658  0.9778
   41MOL0     H 5372   4.462   4.713   9.096  1.0628  2.2986 -1.9849
   41MOL0     H 5373   4.558   4.569   9.138 -2.1434  1.1867  2.0715
   41MOL0     H 5374   4.316   4.724   8.838 -1.5978 -0.2661 -0.1905
   41MOL0     H 5375   4.112   4.609   8.807  1.0599  2.4251  1.0505
   41MOL0     H 5376   3.800   4.263   8.743 -1.4037 -0.7638 -0.3748
   41MOL0     H 5377   3.644   4.107   8.665  0.0220 -0.9078 -0.1139
   41MOL0     H 5378   3.501   3.953   8.760 -3.5297 -2.4266  3.8074
   41MOL0     H 5379   3.541   3.802   8.832  0.6826  1.6793  0.3279
   41MOL0     H 5380   3.446   3.849   8.541 -0.0384  0.9395  0.8725
   41MOL0     H 5381   3.364   3.809   8.691 -0.7562  0.4255 -1.3487
   41MOL0     H 5382   3.484   3.592   8.707  2.4262  0.3017  0.0751
   41MOL0     H 5383   3.581   3.626   8.569  0.7376  0.8127  0.6193
   41MOL0     H 5384   3.287   3.567   8.580  1.5075  1.5656  1.3994
   41MOL0     H 5385   3.364   3.624   8.430 -1.3631  0.1238  0.0404
   41MOL0     H 5386   3.339   3.393   8.418 -1.5431  0.7905  0.8712
   41MOL0     H 5387   3.425   3.358   8.567  0.4235 -1.9117 -0.9726
   41MOL0     H 5388   3.645   3.403   8.465  2.6788  1.6575 -3.6567
   41MOL0     H 5389   3.574   3.502   8.342 -1.5355  1.8152  0.7167
   41MOL0     H 5390   3.443   3.249   8.307 -0.2761  1.3492 -2.0950
   41MOL0     H 5391   3.539   3.357   8.206 -1.4658 -1.0600 -0.0132
   41MOL0     H 5392   3.664   3.166   8.401  1.4663  0.9860  1.6123
   41MOL0     H 5393   3.737   3.246   8.258 -0.7225 -1.1617 -3.6688
   41MOL0     H 5394   3.885   3.781   8.804  1.7441 -0.2203 -1.2525
   41MOL0     H 5395   4.064   3.950   8.891  0.1662 -0.6866 -1.2412
   41MOL0     H 5396   4.290   4.252   8.978 -1.1110  0.2983  2.4435
   41MOL0     H 5397   4.506   4.376   8.979 -1.3350 -1.0383  2.6169
   41MOL0     H 5398   5.899   5.569   9.772 -1.0534 -3.9275  0.6725
   41MOL0     H 5399   6.118   5.648   9.825 -0.4885 -0.8739  0.5967
   41MOL0     H 5400   6.616   5.597   9.720 -0.0281  0.6354  0.3042
   41MOL0     H 5401   6.854   5.636   9.770 -0.2154  1.7923  0.2523
   41MOL0     H 5402   7.045   5.562   9.902 -0.0091 -2.9326  0.5757
   41MOL0     H 5403   7.045   5.538  10.077  0.3162 -0.0538  0.6212
   41MOL0     H 5404   7.247   5.644   9.973 -0.6668 -0.4828 -0.6551
   41MOL0     H 5405   7.151   5.795   9.962 -3.2633 -0.5134 -0.6433
   41MOL0     H 5406   7.283   5.670  10.209  1.4112  0.0193 -3.0601
   41MOL0     H 5407   7.127   5.738  10.224  0.1388  3.0906 -0.6405
   41MOL0     H 5408   7.328   5.882  10.280 -2.1438  1.7925  1.2417
   41MOL0     H 5409   7.386   5.867  10.113  0.1764 -1.4114 -0.4701
   41MOL0     H 5410   7.129   6.146   9.994  0.9991  1.4146  2.4419
   41MOL0     H 5411   6.755   5.629  10.187  0.4122  2.2077 -0.5433
   41MOL0     H 5412   6.513   5.581  10.133  0.4759  0.2066  0.9220
   42MOL0     O 5413   6.820   5.729   7.365  0.2673 -0.1747 -0.4547
   42MOL0     C 5414   6.925   5.794   7.361  0.9604  0.5398 -0.2185
   42MOL0     O 5415   6.930   5.929   7.359 -0.4870 -0.3817 -0.0917
   42MOL0     C 5416   6.809   5.997   7.330 -0.8478 -0.3090 -0.2561
   42MOL0     C 5417   6.690   5.975   7.401 -0.2543 -0.0843 -0.6063
   42MOL0     C 5418   6.579   6.051   7.390  0.3376 -0.1782 -0.7248
   42MOL0     C 5419   6.576   6.167   7.302 -0.4747 -0.6837  0.2841
   42MOL0     O 5420   6.465   6.252   7.281  0.0562  0.2858 -0.1352
   42MOL0     C 5421   6.336   6.211   7.336  1.0926 -0.5165 -0.4361
   42MOL0     C 5422   6.234   6.325   7.311  1.0066 -1.5823  0.2439
   42MOL0     C 5423   6.126   6.277   7.217  0.5202 -0.2555  0.3621
   42MOL0     C 5424   6.005   6.382   7.229 -0.0574 -0.4353 -0.2923
   42MOL0     C 5425   5.893   6.350   7.130  0.3611  0.4896  0.7129
   42MOL0     C 5426   5.838   6.211   7.147 -0.7692  0.2436  1.2485
   42MOL0     C 5427   5.691   6.207   7.097  0.0851 -0.1757 -0.1388
   42MOL0     C 5428   5.617   6.081   7.134  0.5764  0.0549  0.1887
   42MOL0     N 5429   5.471   6.093   7.106  0.3041 -1.1233  1.4195
   42MOL0     C 5430   5.367   6.044   7.185 -0.2501 -0.5417 -0.1037
   42MOL0     C 5431   5.250   6.068   7.118  0.3136  0.4407 -0.3691
   42MOL0     C 5432   5.110   6.049   7.173  0.5299 -0.9334  0.7930
   42MOL0     C 5433   5.052   6.190   7.209  0.4612 -0.2738 -0.3230
   42MOL0     C 5434   4.906   6.187   7.260 -0.8096  0.7991  0.4753
   42MOL0     C 5435   4.799   6.197   7.142  0.4569  0.4044 -0.6246
   42MOL0     O 5436   4.695   6.298   7.174 -0.0066  0.7599  0.7015
   42MOL0     C 5437   4.586   6.301   7.093 -0.3795  0.3838 -0.4720
   42MOL0     C 5438   4.577   6.263   6.966  0.0126 -0.0002  0.5817
   42MOL0     C 5439   4.461   6.282   6.895  0.8235 -0.3777 -0.2916
   42MOL0     C 5440   4.346   6.315   6.964 -0.2568 -1.3448  0.3683
   42MOL0     C 5441   4.209   6.311   6.889 -0.5045  0.0500 -0.6529
   42MOL0     O 5442   4.106   6.383   6.951  0.3133  0.1746  0.1439
   42MOL0     C 5443   3.981   6.384   6.911  0.7658  0.2065  0.3564
   42MOL0     C 5444   3.898   6.274   6.916  0.3303 -0.6966 -0.2566
   42MOL0     C 5445   3.764   6.299   6.876  0.6014  1.1369 -0.6882
   42MOL0     C 5446   3.715   6.411   6.825 -0.2725 -0.0440  0.2787
   42MOL0     O 5447   3.583   6.423   6.787 -0.3830  0.6632 -0.6840
   42MOL0     C 5448   3.531   6.548   6.743  0.4667 -0.0054 -0.2704
   42MOL0     C 5449   3.378   6.542   6.725 -0.7008 -0.2815  0.0603
   42MOL0     C 5450   3.321   6.454   6.616 -0.5514 -0.1849  1.2008
   42MOL0     C 5451   3.362   6.505   6.475  0.3558 -0.2697 -0.4388
   42MOL0     C 5452   3.320   6.428   6.351  0.5799  0.0422 -0.6038
   42MOL0     C 5453   3.397   6.470   6.226  0.2661 -0.7448  0.7153
   42MOL0     C 5454   3.386   6.622   6.202  0.6215  0.4302 -0.3590
   42MOL0     C 5455   3.378   6.670   6.058  0.4491 -0.1274  0.2502
   42MOL0    Cl 5456   3.220   6.634   5.976  0.3612  0.5163  0.3965
   42MOL0     C 5457   3.810   6.521   6.817 -0.0744  0.5731 -0.1926
   42MOL0     C 5458   3.939   6.506   6.862  0.1782  0.1382 -0.0178
   42MOL0     O 5459   4.201   6.250   6.789  0.2471  0.1677  0.8698
   42MOL0     C 5460   4.350   6.357   7.107  0.6082  0.1170  0.2093
   42MOL0     C 5461   4.471   6.349   7.164 -0.6976 -0.2771 -0.2642
   42MOL0     N 5462   5.284   6.136   7.001 -0.2418 -0.4387  0.4270
   42MOL0     N 5463   5.419   6.145   6.988  0.2197 -0.4833  0.3135
   42MOL0     C 5464   6.696   6.186   7.223  0.7397  0.3160 -0.9422
   42MOL0     C 5465   6.806   6.107   7.246  0.0235 -0.5008  0.0954
   42MOL0     C 5466   7.055   5.713   7.369  0.0369  0.4961  0.3547
   42MOL0     C 5467   7.054   5.574   7.386  0.7834 -0.0097  1.0616
   42MOL0     C 5468   7.175   5.501   7.385 -0.0741 -0.0777  0.2278
   42MOL0     C 5469   7.299   5.570   7.384  0.2983 -0.5514  0.6292
   42MOL0     O 5470   7.419   5.510   7.389 -0.1826  0.2158 -0.9819
   42MOL0     C 5471   7.420   5.368   7.401 -0.1292 -0.8954 -0.0880
   42MOL0     C 5472   7.559   5.326   7.446 -0.5215  0.1689 -0.9556
   42MOL0     C 5473   7.543   5.174   7.451 -1.3085 -0.1083  0.2299
   42MOL0     C 5474   7.692   5.117   7.459  0.5726 -0.2185  0.2295
   42MOL0     C 5475   7.753   5.133   7.592 -0.1710  0.1388  1.0392
   42MOL0     C 5476   7.806   5.111   7.699  0.7020 -0.1752 -0.1912
   42MOL0     C 5477   7.300   5.705   7.372  0.5842 -0.8222  0.4876
   42MOL0     C 5478   7.179   5.779   7.366  0.1557  0.0343 -0.2661
   42MOL0     H 5479   6.685   5.902   7.481 -1.4523 -0.3787 -0.9336
   42MOL0     H 5480   6.498   5.997   7.438  2.3269 -3.4094 -0.7463
   42MOL0     H 5481   6.328   6.193   7.443 -0.4248  0.4872 -0.3459
   42MOL0     H 5482   6.303   6.120   7.285 -1.9202  0.1388  0.1549
   42MOL0     H 5483   6.287   6.410   7.268  1.2221 -1.7103  0.2492
   42MOL0     H 5484   6.188   6.364   7.402  2.1937  1.5672 -0.3656
   42MOL0     H 5485   6.089   6.179   7.247 -0.6156  0.4595  1.4202
   42MOL0     H 5486   6.168   6.274   7.116 -2.1295  0.4901 -0.8833
   42MOL0     H 5487   5.955   6.377   7.326 -0.2365  3.1944 -0.0675
   42MOL0     H 5488   6.039   6.485   7.216 -0.6432 -0.5045 -3.0556
   42MOL0     H 5489   5.937   6.362   7.030  1.4025  3.5287  1.4311
   42MOL0     H 5490   5.826   6.432   7.159  0.8614  1.5082 -0.8255
   42MOL0     H 5491   5.859   6.177   7.248 -0.3459 -0.9090  0.7878
   42MOL0     H 5492   5.899   6.140   7.090 -1.2971  1.8892 -1.5526
   42MOL0     H 5493   5.635   6.288   7.144  0.1021 -0.8202  1.0225
   42MOL0     H 5494   5.694   6.227   6.989 -1.4840  0.1813 -0.1425
   42MOL0     H 5495   5.639   6.072   7.241  1.8496  0.7374 -0.0041
   42MOL0     H 5496   5.654   5.998   7.074 -2.5869 -1.0781 -0.3929
   42MOL0     H 5497   5.381   5.997   7.282  0.0953 -0.6934 -0.2241
   42MOL0     H 5498   5.110   5.979   7.256  2.7228 -0.7880  0.9721
   42MOL0     H 5499   5.059   6.006   7.086  0.7209  1.4752 -0.6269
   42MOL0     H 5500   5.061   6.251   7.119 -2.3310  4.2124  2.0407
   42MOL0     H 5501   5.115   6.238   7.285  0.6954  0.5395 -1.0099
   42MOL0     H 5502   4.892   6.097   7.319 -1.4621 -1.5025 -2.8731
   42MOL0     H 5503   4.883   6.267   7.331  0.6315  0.2508  1.5965
   42MOL0     H 5504   4.749   6.102   7.121 -1.3478  0.6064  2.2096
   42MOL0     H 5505   4.851   6.234   7.053 -2.5137 -0.0077 -2.6568
   42MOL0     H 5506   4.667   6.227   6.917 -0.8168  1.2829 -2.0345
   42MOL0     H 5507   4.453   6.248   6.792 -1.6561  2.2062 -1.1030
   42MOL0     H 5508   3.933   6.176   6.949 -0.5445 -1.9244 -2.6679
   42MOL0     H 5509   3.684   6.230   6.901 -1.4725  3.8900  0.7063
   42MOL0     H 5510   3.580   6.578   6.650 -1.2879  1.7982 -0.6936
   42MOL0     H 5511   3.541   6.629   6.817 -1.2862 -0.9933  1.1349
   42MOL0     H 5512   3.343   6.645   6.723 -1.1692 -0.4029  1.1484
   42MOL0     H 5513   3.333   6.498   6.815  0.6421 -3.8510 -0.8126
   42MOL0     H 5514   3.212   6.465   6.618 -0.4133  1.7340  0.5801
   42MOL0     H 5515   3.349   6.349   6.630 -1.5009 -0.6754 -0.2721
   42MOL0     H 5516   3.318   6.605   6.479 -0.2283 -0.5555  0.9758
   42MOL0     H 5517   3.469   6.520   6.456 -0.5429  0.7123 -7.0825
   42MOL0     H 5518   3.213   6.448   6.342  0.2894  0.5066  2.6910
   42MOL0     H 5519   3.336   6.320   6.359  0.2202  0.0110 -0.2730
   42MOL0     H 5520   3.351   6.427   6.136  0.1309  1.3692 -0.2871
   42MOL0     H 5521   3.503   6.445   6.232  0.8835  0.9770 -1.6347
   42MOL0     H 5522   3.298   6.652   6.259  0.7587 -2.1271  1.3692
   42MOL0     H 5523   3.477   6.661   6.246 -1.1606  3.8921  0.6142
   42MOL0     H 5524   3.454   6.625   5.993 -0.7442  0.5890 -1.7238
   42MOL0     H 5525   3.393   6.778   6.058  1.7884 -0.2156  3.1563
   42MOL0     H 5526   3.770   6.604   6.760 -0.1362 -0.3951 -1.6152
   42MOL0     H 5527   4.006   6.591   6.854  0.1197  0.0530 -1.7046
   42MOL0     H 5528   4.267   6.396   7.164  0.3009  0.9493 -0.7758
   42MOL0     H 5529   4.497   6.374   7.267  0.9842  0.2009 -0.7606
   42MOL0     H 5530   6.689   6.272   7.156  1.8667  1.8092  0.7624
   42MOL0     H 5531   6.893   6.113   7.182  0.0874  0.0333  0.2220
   42MOL0     H 5532   6.963   5.515   7.394  0.6808 -0.2084 -0.9083
   42MOL0     H 5533   7.175   5.395   7.408  2.2759 -0.3562 -0.7552
   42MOL0     H 5534   7.389   5.327   7.304 -0.1740  0.0668 -0.4978
   42MOL0     H 5535   7.353   5.334   7.480 -1.0130 -0.3186 -0.5719
   42MOL0     H 5536   7.640   5.348   7.377  3.0267  0.6238  2.9501
   42MOL0     H 5537   7.579   5.366   7.546 -2.3391  0.6210 -0.7386
   42MOL0     H 5538   7.502   5.124   7.362 -0.4921  0.7183 -0.6327
   42MOL0     H 5539   7.484   5.127   7.530 -1.5679 -0.3873 -0.1270
   42MOL0     H 5540   7.681   5.008   7.461 -1.4392 -0.0744 -0.6452
   42MOL0     H 5541   7.762   5.139   7.378  2.2662 -3.0921  0.7586
   42MOL0     H 5542   7.842   5.082   7.795 -0.6825 -1.0454  0.0847
   42MOL0     H 5543   7.390   5.766   7.368  0.5730 -0.5155  3.1496
   42MOL0     H 5544   7.171   5.888   7.364 -3.2180 -0.1155 -0.5003
   43MOL0     O 5545   2.263   6.521  10.848 -0.1558 -0.7593 -0.6571
   43MOL0     C 5546   2.337   6.620  10.870 -0.2441  0.0286 -0.1917
   43MOL0     O 5547   2.304   6.753  10.853 -0.3561 -0.1854 -0.1849
   43MOL0     C 5548   2.175   6.781  10.812 -0.1160 -0.3247 -0.5939
   43MOL0     C 5549   2.082   6.793  10.917 -0.1757 -0.8300 -1.0509
   43MOL0     C 5550   1.949   6.805  10.887 -0.3826 -0.2802 -0.0393
   43MOL0     C 5551   1.908   6.838  10.754 -0.2897 -0.2685  0.2084
   43MOL0     O 5552   1.771   6.853  10.727 -0.6082 -0.5416  0.5734
   43MOL0     C 5553   1.688   6.926  10.818 -0.4349  0.1941 -0.5218
   43MOL0     C 5554   1.552   6.966  10.747  0.5194 -0.1733 -0.7633
   43MOL0     C 5555   1.477   7.064  10.840 -0.1246 -0.1865 -0.1562
   43MOL0     C 5556   1.410   7.000  10.966 -1.1981  0.1154  0.8934
   43MOL0     C 5557   1.315   7.101  11.045 -0.4667 -0.6370  0.2296
   43MOL0     C 5558   1.285   7.047  11.189  0.5138 -0.8141 -0.6044
   43MOL0     C 5559   1.302   7.159  11.302 -0.5894  0.6778 -0.0531
   43MOL0     C 5560   1.217   7.279  11.279 -0.5288 -0.5428 -0.1093
   43MOL0     N 5561   1.199   7.364  11.403  0.1663  0.5928 -0.0179
   43MOL0     C 5562   1.195   7.502  11.384 -0.0988 -0.3056  0.0180
   43MOL0     C 5563   1.196   7.560  11.507  0.3240  0.4443 -0.5466
   43MOL0     C 5564   1.169   7.706  11.531 -0.3488  0.6508 -0.0238
   43MOL0     C 5565   1.176   7.797  11.407 -0.7628 -0.3631  0.0319
   43MOL0     C 5566   1.194   7.950  11.438 -0.7417  0.0064 -0.8135
   43MOL0     C 5567   1.232   8.037  11.318  0.3556 -0.0255  0.3680
   43MOL0     O 5568   1.168   7.998  11.191  0.2612  0.5420 -0.6190
   43MOL0     C 5569   1.024   7.999  11.188 -1.0526 -0.5619 -0.4127
   43MOL0     C 5570   0.938   8.079  11.270 -0.8064  0.5826 -0.2260
   43MOL0     C 5571   0.805   8.076  11.246  0.2747 -0.8015 -0.5454
   43MOL0     C 5572   0.750   7.995  11.145 -0.3022  0.1667 -0.5803
   43MOL0     C 5573   0.596   7.997  11.120 -0.2045 -0.2217 -0.0447
   43MOL0     O 5574   0.511   8.051  11.221  0.0308 -0.5320 -0.4508
   43MOL0     C 5575   0.377   8.050  11.196  0.0047 -0.1521 -0.0843
   43MOL0     C 5576   0.313   8.171  11.238  0.5260 -0.5474  0.1206
   43MOL0     C 5577   0.172   8.180  11.218  0.2808 -0.1248 -0.0851
   43MOL0     C 5578   0.103   8.067  11.181  0.4429  0.3642  0.7226
   43MOL0     O 5579  -0.038   8.070  11.168 -0.3480 -0.1343  0.5624
   43MOL0     C 5580  -0.110   8.192  11.163  0.8513 -0.2943  0.9525
   43MOL0     C 5581  -0.250   8.179  11.098  0.8251 -0.3897  0.8560
   43MOL0     C 5582  -0.349   8.299  11.085  0.5739  0.0328  0.6523
   43MOL0     C 5583  -0.364   8.382  11.207 -0.0170  0.0229  0.2279
   43MOL0     C 5584  -0.496   8.465  11.223 -0.3983 -0.3186  0.0527
   43MOL0     C 5585  -0.621   8.376  11.231 -0.0435 -0.0416  0.2322
   43MOL0     C 5586  -0.751   8.448  11.271  0.6696  0.0841 -0.2934
   43MOL0     C 5587  -0.808   8.518  11.146 -0.3141  0.4277  0.7565
   43MOL0    Cl 5588  -0.972   8.569  11.156 -0.3787 -0.1715 -0.1827
   43MOL0     C 5589   0.170   7.944  11.148 -0.3364 -0.1067  0.1654
   43MOL0     C 5590   0.305   7.939  11.149  0.4249 -0.1719 -1.4829
   43MOL0     O 5591   0.560   7.966  11.007 -0.3217 -0.0006 -0.7015
   43MOL0     C 5592   0.838   7.915  11.072  0.3008 -1.3006  0.6547
   43MOL0     C 5593   0.970   7.914  11.097  0.0551 -0.8512  0.5865
   43MOL0     N 5594   1.218   7.457  11.596  0.5618 -0.2059 -0.5996
   43MOL0     N 5595   1.231   7.342  11.533 -0.2444  0.2323 -0.6856
   43MOL0     C 5596   2.015   6.833  10.653  0.7335 -0.0631  0.2879
   43MOL0     C 5597   2.143   6.797  10.685 -0.4712  0.5806  0.0688
   43MOL0     C 5598   2.468   6.603  10.931  0.6969  0.3076  0.3979
   43MOL0     C 5599   2.536   6.488  10.909  0.6552  0.2437 -0.1416
   43MOL0     C 5600   2.646   6.459  10.980 -0.5570  0.5639  0.7639
   43MOL0     C 5601   2.699   6.550  11.071  0.1756  0.1168 -0.4696
   43MOL0     O 5602   2.821   6.517  11.127  0.2044  0.0240 -0.6149
   43MOL0     C 5603   2.876   6.589  11.241  0.2387  0.3125 -0.6167
   43MOL0     C 5604   2.973   6.706  11.216 -0.6274 -0.1740 -0.1051
   43MOL0     C 5605   3.115   6.673  11.166  0.1087 -0.1828 -0.2822
   43MOL0     C 5606   3.233   6.733  11.248 -0.6717  0.3520  0.7305
   43MOL0     C 5607   3.209   6.864  11.293  0.8104  1.0697 -0.8369
   43MOL0     C 5608   3.189   6.977  11.319 -0.1120  0.2460 -1.0079
   43MOL0     C 5609   2.632   6.677  11.085 -0.9473  0.6941 -0.5327
   43MOL0     C 5610   2.516   6.694  11.019 -0.8973 -0.2287 -0.0847
   43MOL0     H 5611   2.103   6.785  11.023 -3.6333  0.3214 -0.1234
   43MOL0     H 5612   1.877   6.804  10.969  0.9767  0.4288  1.2116
   43MOL0     H 5613   1.734   7.017  10.859  1.0358 -0.2808 -1.0462
   43MOL0     H 5614   1.663   6.866  10.906 -2.1014  0.3979 -0.8267
   43MOL0     H 5615   1.483   6.883  10.728 -1.1981  1.4152 -1.6718
   43MOL0     H 5616   1.576   7.013  10.651 -1.1760 -0.3081 -1.2792
   43MOL0     H 5617   1.394   7.109  10.784 -0.6109  0.8817  1.3353
   43MOL0     H 5618   1.551   7.140  10.868  0.6610 -1.1684  0.4863
   43MOL0     H 5619   1.358   6.908  10.940  2.1831 -1.0924 -2.5710
   43MOL0     H 5620   1.499   6.981  11.027 -0.2483  3.1163  0.6375
   43MOL0     H 5621   1.221   7.128  10.995 -0.2203 -2.8529 -1.6034
   43MOL0     H 5622   1.367   7.196  11.054  0.2180 -0.7977 -1.6387
   43MOL0     H 5623   1.337   6.959  11.229  1.5934  0.0036 -0.1530
   43MOL0     H 5624   1.182   7.010  11.183  0.6866 -1.0353 -3.0511
   43MOL0     H 5625   1.265   7.122  11.398 -1.8096 -1.6790 -1.3140
   43MOL0     H 5626   1.407   7.189  11.304  0.2338 -1.8610  2.6978
   43MOL0     H 5627   1.118   7.255  11.238 -0.9910 -0.3644  0.8487
   43MOL0     H 5628   1.266   7.343  11.206  0.9222 -0.3562  0.9881
   43MOL0     H 5629   1.190   7.550  11.287  1.3638  2.5152  1.2308
   43MOL0     H 5630   1.246   7.744  11.600  0.6934  1.3068 -1.4983
   43MOL0     H 5631   1.079   7.731  11.587  0.0737  1.0234  0.5075
   43MOL0     H 5632   1.105   7.765  11.330  0.6513 -2.8822 -0.3326
   43MOL0     H 5633   1.269   7.759  11.365 -0.6460 -0.7899  0.6616
   43MOL0     H 5634   1.105   7.985  11.492 -0.8859  2.1911 -2.3630
   43MOL0     H 5635   1.268   7.962  11.517  0.7130 -2.3867 -1.7066
   43MOL0     H 5636   1.339   8.030  11.296  0.0439 -1.0620 -0.9414
   43MOL0     H 5637   1.205   8.141  11.336  0.0339  0.2309 -1.3616
   43MOL0     H 5638   0.976   8.140  11.352 -1.1752 -0.3913  0.6963
   43MOL0     H 5639   0.735   8.138  11.302 -1.3032 -0.4299 -2.7953
   43MOL0     H 5640   0.363   8.261  11.270  0.2229 -0.2376 -0.2529
   43MOL0     H 5641   0.127   8.277  11.235  0.2102 -0.1082 -0.3551
   43MOL0     H 5642  -0.058   8.274  11.112 -1.3591  0.9445  0.5726
   43MOL0     H 5643  -0.122   8.230  11.265  2.7807  0.0491  1.1021
   43MOL0     H 5644  -0.309   8.093  11.133 -0.3981 -0.4338 -1.1536
   43MOL0     H 5645  -0.236   8.151  10.993 -1.7275 -1.1785  0.6603
   43MOL0     H 5646  -0.442   8.248  11.059  0.8433 -0.4476  0.6260
   43MOL0     H 5647  -0.339   8.366  11.000 -2.0153  0.1279  0.3418
   43MOL0     H 5648  -0.340   8.316  11.290  3.3693 -0.4219 -0.9424
   43MOL0     H 5649  -0.276   8.447  11.199 -0.0651  0.2677  1.5197
   43MOL0     H 5650  -0.512   8.532  11.137 -0.9202 -0.6583 -0.1183
   43MOL0     H 5651  -0.488   8.530  11.311  0.5714  2.2093 -1.7624
   43MOL0     H 5652  -0.588   8.302  11.305  1.4729 -0.2754 -0.6433
   43MOL0     H 5653  -0.638   8.324  11.136 -1.2858 -0.0379  0.4347
   43MOL0     H 5654  -0.827   8.388  11.321 -1.0974  1.8296 -0.7465
   43MOL0     H 5655  -0.737   8.524  11.349 -4.2661 -0.9085  1.9416
   43MOL0     H 5656  -0.810   8.437  11.073  1.6276 -2.3488  3.5148
   43MOL0     H 5657  -0.749   8.599  11.102  1.5525 -0.0600  2.2066
   43MOL0     H 5658   0.098   7.871  11.112 -1.7649  0.2488  2.1335
   43MOL0     H 5659   0.353   7.848  11.115 -0.3321  0.1640 -3.6508
   43MOL0     H 5660   0.782   7.859  10.997  1.0802 -0.9965 -0.1652
   43MOL0     H 5661   1.044   7.850  11.051  0.9713 -2.4507  3.9596
   43MOL0     H 5662   1.988   6.825  10.548  0.8234  0.3543  0.2296
   43MOL0     H 5663   2.210   6.780  10.601 -0.9039  3.2602 -0.9422
   43MOL0     H 5664   2.496   6.424  10.831  0.5705 -1.1597  1.0160
   43MOL0     H 5665   2.708   6.370  10.972 -1.4131  0.0860 -1.2806
   43MOL0     H 5666   2.925   6.520  11.311 -0.9882  1.8348  1.8815
   43MOL0     H 5667   2.792   6.629  11.298 -0.6179 -1.4047 -0.6042
   43MOL0     H 5668   2.911   6.770  11.152  0.5418  1.8102  0.6682
   43MOL0     H 5669   2.976   6.762  11.310  3.4971 -2.0410  1.0949
   43MOL0     H 5670   3.124   6.712  11.065  2.2851 -1.2389 -0.5565
   43MOL0     H 5671   3.140   6.566  11.166 -1.5385 -0.5857  0.0036
   43MOL0     H 5672   3.255   6.676  11.339  2.2099  0.0191 -0.0766
   43MOL0     H 5673   3.328   6.739  11.194  0.0575  0.7390  2.0274
   43MOL0     H 5674   3.179   7.081  11.345 -0.6088  0.0028 -0.2261
   43MOL0     H 5675   2.656   6.754  11.157 -1.4072  1.5517 -1.2854
   43MOL0     H 5676   2.474   6.793  11.031  1.9584  0.9450  1.2845
   44MOL0     O 5677   6.480   3.464   2.378  0.0236 -0.1265 -0.5604
   44MOL0     C 5678   6.554   3.385   2.438  0.5833 -0.0417 -0.3595
   44MOL0     O 5679   6.531   3.257   2.465 -0.6805  0.2608 -0.4055
   44MOL0     C 5680   6.411   3.212   2.417 -0.1203  0.0686 -0.2539
   44MOL0     C 5681   6.400   3.197   2.271 -0.1093 -0.2498 -1.1980
   44MOL0     C 5682   6.276   3.165   2.210 -0.1921  0.6199 -0.6002
   44MOL0     C 5683   6.166   3.136   2.292 -0.6019 -0.3081  0.6808
   44MOL0     O 5684   6.054   3.111   2.221 -0.1362  0.3018  0.3168
   44MOL0     C 5685   5.920   3.124   2.277 -0.1066  0.5573  0.0239
   44MOL0     C 5686   5.850   2.992   2.278  0.8689  0.0251  0.1723
   44MOL0     C 5687   5.702   3.013   2.309 -0.6564  0.1206 -0.8629
   44MOL0     C 5688   5.621   2.882   2.278  0.8287  0.2871  0.2744
   44MOL0     C 5689   5.469   2.906   2.290  0.7179  0.1415  0.1273
   44MOL0     C 5690   5.426   2.964   2.421  0.1220  0.5819 -0.4059
   44MOL0     C 5691   5.276   2.929   2.440 -0.0886  0.8203 -0.1124
   44MOL0     C 5692   5.255   2.789   2.478 -0.3300 -0.3324 -0.4324
   44MOL0     N 5693   5.127   2.755   2.538  0.6504  0.0541  0.0582
   44MOL0     C 5694   5.021   2.701   2.468  0.2707  0.6662  1.2938
   44MOL0     C 5695   4.904   2.711   2.545  1.2738 -0.1078  0.6985
   44MOL0     C 5696   4.763   2.662   2.524  0.0935 -0.7114 -1.1158
   44MOL0     C 5697   4.664   2.776   2.466 -0.4074 -0.1589  0.3626
   44MOL0     C 5698   4.704   2.824   2.324  0.1406  0.7912  0.5096
   44MOL0     C 5699   4.605   2.914   2.249  0.7095  0.0135  0.6416
   44MOL0     O 5700   4.481   2.835   2.246 -0.2415  0.2328 -0.3616
   44MOL0     C 5701   4.452   2.745   2.150 -0.3143  0.8677  0.7294
   44MOL0     C 5702   4.542   2.707   2.052  0.4300 -0.2154 -0.4868
   44MOL0     C 5703   4.500   2.601   1.969 -0.1066  0.1484 -0.7223
   44MOL0     C 5704   4.384   2.530   1.986 -0.1750 -0.1518  0.0968
   44MOL0     C 5705   4.346   2.423   1.896 -0.3101  0.4532  0.0809
   44MOL0     O 5706   4.279   2.315   1.951 -0.3816  0.1491 -0.5695
   44MOL0     C 5707   4.229   2.219   1.856 -0.2542 -0.5409  0.6364
   44MOL0     C 5708   4.238   2.079   1.874 -0.0004 -0.4434  0.2495
   44MOL0     C 5709   4.173   1.989   1.790 -0.3008 -0.6814  0.0849
   44MOL0     C 5710   4.101   2.029   1.684 -0.2325  0.7664  0.4344
   44MOL0     O 5711   4.061   1.931   1.592 -0.8625 -0.3801 -0.3845
   44MOL0     C 5712   4.029   1.978   1.459 -0.1162 -0.0366 -0.7305
   44MOL0     C 5713   3.999   1.851   1.373  0.2839 -0.1830  0.2751
   44MOL0     C 5714   3.996   1.898   1.231  0.8086 -0.0985  0.5523
   44MOL0     C 5715   4.003   1.759   1.156  0.7871 -1.1422 -1.3718
   44MOL0     C 5716   3.955   1.772   1.009  1.5018  0.2407 -0.6244
   44MOL0     C 5717   3.801   1.791   1.004 -0.1582 -0.5004  0.8753
   44MOL0     C 5718   3.751   1.765   0.860  0.8557  0.9267  0.8968
   44MOL0     C 5719   3.596   1.770   0.841 -0.7092 -0.4160  0.6518
   44MOL0    Cl 5720   3.560   1.712   0.672  0.0135 -0.1610 -0.1268
   44MOL0     C 5721   4.075   2.166   1.667  1.0944 -0.0535 -0.5493
   44MOL0     C 5722   4.139   2.258   1.754  0.0212  0.2729  0.8533
   44MOL0     O 5723   4.355   2.449   1.775  0.4338  0.7373  0.2552
   44MOL0     C 5724   4.298   2.566   2.096  0.7332  0.1641 -1.1647
   44MOL0     C 5725   4.339   2.665   2.183  0.2830 -0.0503  0.3259
   44MOL0     N 5726   4.940   2.774   2.668  0.3284  0.4259  0.5054
   44MOL0     N 5727   5.070   2.808   2.655 -0.0321 -0.2145  0.7478
   44MOL0     C 5728   6.175   3.151   2.428  0.8216  0.3322 -0.5623
   44MOL0     C 5729   6.293   3.194   2.490  0.1258  0.7409  0.2425
   44MOL0     C 5730   6.700   3.420   2.441  0.9976  0.6675 -0.0032
   44MOL0     C 5731   6.796   3.326   2.482 -0.3411  0.3126 -0.5374
   44MOL0     C 5732   6.930   3.357   2.484  0.1583  0.0771 -0.1143
   44MOL0     C 5733   6.976   3.489   2.456 -0.4629 -0.2760 -0.6625
   44MOL0     O 5734   7.106   3.537   2.459  0.2810  0.0256  0.7953
   44MOL0     C 5735   7.212   3.445   2.479  0.6847  1.0264  0.2854
   44MOL0     C 5736   7.345   3.525   2.485 -0.4950 -0.1650  0.5421
   44MOL0     C 5737   7.355   3.649   2.395 -0.1714  0.4690  0.0246
   44MOL0     C 5738   7.491   3.711   2.414  0.5834 -0.7950 -0.4780
   44MOL0     C 5739   7.516   3.811   2.310  0.0641 -0.3348 -0.1552
   44MOL0     C 5740   7.530   3.894   2.225  0.3970  0.0648 -0.7188
   44MOL0     C 5741   6.879   3.578   2.403 -0.1276  0.0510 -0.0341
   44MOL0     C 5742   6.746   3.548   2.410  0.5703 -0.7036  0.2645
   44MOL0     H 5743   6.474   3.240   2.204 -0.4557 -0.7961 -1.9524
   44MOL0     H 5744   6.269   3.168   2.101 -1.5589 -1.9104 -0.6665
   44MOL0     H 5745   5.864   3.196   2.216 -0.4386  1.6769  1.5706
   44MOL0     H 5746   5.911   3.170   2.376 -1.0130  2.1710 -0.7572
   44MOL0     H 5747   5.896   2.923   2.350  0.7746 -0.3008 -0.0755
   44MOL0     H 5748   5.851   2.950   2.177 -0.3247 -0.8727  0.5101
   44MOL0     H 5749   5.665   3.097   2.249 -0.2087  0.8878 -0.0861
   44MOL0     H 5750   5.697   3.037   2.416  0.5699 -0.9106 -0.5539
   44MOL0     H 5751   5.641   2.856   2.174 -1.7296  2.2263 -0.7857
   44MOL0     H 5752   5.653   2.799   2.343  2.5664 -0.3136 -1.2480
   44MOL0     H 5753   5.416   2.811   2.273 -1.6834  1.4432 -0.0916
   44MOL0     H 5754   5.437   2.980   2.217 -0.7636 -0.0408  0.5503
   44MOL0     H 5755   5.438   3.072   2.409 -1.1084  0.5264 -2.7321
   44MOL0     H 5756   5.482   2.930   2.508  1.4479  2.4899 -0.4649
   44MOL0     H 5757   5.236   2.989   2.522  1.4257 -2.1168  3.0118
   44MOL0     H 5758   5.228   2.961   2.347  1.2236  0.2779 -0.9934
   44MOL0     H 5759   5.336   2.782   2.552 -0.6473  4.1057  0.6140
   44MOL0     H 5760   5.267   2.717   2.396 -0.2215 -2.8810  1.6750
   44MOL0     H 5761   5.021   2.655   2.369  0.6882 -0.2330  1.7051
   44MOL0     H 5762   4.726   2.639   2.624 -3.0744 -2.9770 -2.6432
   44MOL0     H 5763   4.759   2.569   2.466 -0.4959 -0.7563 -1.0034
   44MOL0     H 5764   4.683   2.865   2.527  2.9462  1.2815 -2.4404
   44MOL0     H 5765   4.560   2.744   2.463 -1.3263  2.5876 -1.7014
   44MOL0     H 5766   4.798   2.880   2.322 -0.0647  1.2235  2.0639
   44MOL0     H 5767   4.714   2.737   2.259  1.9316  2.3525 -1.4480
   44MOL0     H 5768   4.647   2.949   2.154  2.5220  1.0529  1.7579
   44MOL0     H 5769   4.585   3.003   2.310  0.5034  0.2884  0.1754
   44MOL0     H 5770   4.635   2.763   2.053  0.1085  0.3703  1.5425
   44MOL0     H 5771   4.560   2.565   1.885  0.8374  1.4551 -0.6450
   44MOL0     H 5772   4.288   2.041   1.962 -0.7216  2.6371  2.1817
   44MOL0     H 5773   4.180   1.884   1.815  0.8465 -1.0418 -1.5440
   44MOL0     H 5774   4.117   2.029   1.420  0.0390  0.0563 -0.2737
   44MOL0     H 5775   3.939   2.042   1.462 -0.7287 -0.8981  0.4713
   44MOL0     H 5776   3.904   1.804   1.402 -0.4560  1.2179  0.2537
   44MOL0     H 5777   4.084   1.786   1.395 -0.9615 -2.4642 -1.1864
   44MOL0     H 5778   4.073   1.964   1.190 -1.0483  1.0125 -1.3123
   44MOL0     H 5779   3.904   1.957   1.223  1.0664  0.2207 -0.1298
   44MOL0     H 5780   4.106   1.721   1.164  0.7343 -0.8696  2.1367
   44MOL0     H 5781   3.937   1.687   1.205  0.3981  1.0610  1.6406
   44MOL0     H 5782   3.976   1.673   0.967 -4.2201 -0.9858 -1.3939
   44MOL0     H 5783   4.008   1.843   0.944  0.7346 -0.8043 -2.4876
   44MOL0     H 5784   3.782   1.897   1.019 -1.2772 -0.2505 -1.8115
   44MOL0     H 5785   3.741   1.730   1.073  0.4824 -1.3393  0.7078
   44MOL0     H 5786   3.799   1.844   0.803  1.8033  0.7526  1.4238
   44MOL0     H 5787   3.785   1.670   0.818 -2.9686 -0.2199  0.0230
   44MOL0     H 5788   3.553   1.870   0.850  2.4273  1.1143 -0.1525
   44MOL0     H 5789   3.548   1.714   0.923  0.6220  0.0222  1.7684
   44MOL0     H 5790   4.016   2.203   1.583  1.7266 -1.1771 -1.5263
   44MOL0     H 5791   4.107   2.361   1.738 -0.3163  0.2165  1.1676
   44MOL0     H 5792   4.215   2.499   2.121  2.2238 -0.9255  1.2606
   44MOL0     H 5793   4.281   2.698   2.268  2.2482  3.3327  0.5568
   44MOL0     H 5794   6.088   3.136   2.491 -0.7079 -1.2011 -2.8917
   44MOL0     H 5795   6.285   3.218   2.596  1.0107 -1.0122  0.7464
   44MOL0     H 5796   6.767   3.227   2.515 -4.3045  1.8104  1.0195
   44MOL0     H 5797   6.998   3.281   2.522  1.4680  0.1194 -2.1862
   44MOL0     H 5798   7.227   3.372   2.399  2.8885 -1.0729  2.4293
   44MOL0     H 5799   7.189   3.389   2.570  0.3739 -0.7132 -0.8248
   44MOL0     H 5800   7.354   3.556   2.589  1.5533  0.4230  0.2506
   44MOL0     H 5801   7.424   3.453   2.461 -0.8193  0.5527 -3.2931
   44MOL0     H 5802   7.273   3.712   2.431 -0.5634 -0.9292  1.7220
   44MOL0     H 5803   7.351   3.616   2.291 -1.0900  0.7282 -0.0294
   44MOL0     H 5804   7.496   3.752   2.515 -3.2924  1.1090 -0.8585
   44MOL0     H 5805   7.575   3.644   2.396  1.5506  0.8848 -2.6673
   44MOL0     H 5806   7.548   3.967   2.148  0.6980  1.3137  0.5030
   44MOL0     H 5807   6.922   3.674   2.374  1.9724 -1.1937 -1.2873
   44MOL0     H 5808   6.681   3.627   2.373  1.6162 -0.7307 -1.7662
   45MOL0     O 5809   6.965  10.035   5.548  0.3720  0.1216  0.0678
   45MOL0     C 5810   6.982   9.940   5.621 -0.7478  0.6042 -0.9415
   45MOL0     O 5811   6.899   9.902   5.713 -0.2964  0.3000 -0.5125
   45MOL0     C 5812   6.816   9.988   5.781 -0.1328 -0.2452  0.6543
   45MOL0     C 5813   6.838  10.128   5.784  0.3024  0.1801 -1.1605
   45MOL0     C 5814   6.737  10.213   5.838 -1.1141  0.7547  0.6556
   45MOL0     C 5815   6.619  10.162   5.880  0.8711  0.2350 -0.5054
   45MOL0     O 5816   6.533  10.255   5.932 -0.2767  0.0262 -0.0869
   45MOL0     C 5817   6.400  10.221   5.976  0.4333  0.2808  0.5668
   45MOL0     C 5818   6.331  10.340   6.036 -0.2457  0.7261 -0.3896
   45MOL0     C 5819   6.348  10.348   6.190 -0.9493 -0.7315  0.4295
   45MOL0     C 5820   6.251  10.448   6.252  0.0571  0.0726  0.3724
   45MOL0     C 5821   6.289  10.588   6.203  0.7741  0.0555  0.8923
   45MOL0     C 5822   6.179  10.680   6.265 -0.2131 -0.8148 -0.8591
   45MOL0     C 5823   6.210  10.827   6.224 -0.0975 -0.0896  0.3623
   45MOL0     C 5824   6.106  10.873   6.122  0.6335  0.6235  0.6340
   45MOL0     N 5825   5.968  10.886   6.176 -0.4565 -0.6443 -1.1209
   45MOL0     C 5826   5.917  10.966   6.273 -0.8393  1.1479 -0.4282
   45MOL0     C 5827   5.791  10.922   6.301 -0.2757  0.2757 -0.3763
   45MOL0     C 5828   5.703  10.986   6.411  0.1790  0.8085  0.1577
   45MOL0     C 5829   5.557  10.951   6.394  0.3853  0.9376  0.4833
   45MOL0     C 5830   5.536  10.807   6.437  0.9646 -0.1822  0.2167
   45MOL0     C 5831   5.388  10.753   6.445  0.2576 -0.2629  0.1847
   45MOL0     O 5832   5.328  10.828   6.554 -0.2190  0.2083  0.2254
   45MOL0     C 5833   5.211  10.791   6.608  0.1091 -0.3798 -0.0057
   45MOL0     C 5834   5.120  10.701   6.543 -0.0295  0.5684  0.5605
   45MOL0     C 5835   4.996  10.663   6.610 -0.1248 -0.0952  0.6686
   45MOL0     C 5836   4.954  10.718   6.733 -0.3319  0.3559 -0.3567
   45MOL0     C 5837   4.831  10.667   6.801  0.0460  0.0328  0.7212
   45MOL0     O 5838   4.801  10.717   6.921  0.0207 -0.5075  0.6171
   45MOL0     C 5839   4.684  10.667   6.977 -0.2997 -0.8730  0.5490
   45MOL0     C 5840   4.668  10.534   7.017  0.5297  0.8998 -0.6818
   45MOL0     C 5841   4.560  10.488   7.081  0.3082 -0.3610 -0.0262
   45MOL0     C 5842   4.455  10.571   7.110  1.2665 -0.3502 -0.2128
   45MOL0     O 5843   4.333  10.535   7.164 -0.8172  0.1648 -0.0741
   45MOL0     C 5844   4.315  10.405   7.216  0.5112 -0.1502 -0.0957
   45MOL0     C 5845   4.169  10.409   7.276 -0.4189 -0.5718 -0.2421
   45MOL0     C 5846   4.069  10.395   7.161  0.4209  0.3208  0.6692
   45MOL0     C 5847   3.925  10.373   7.219  1.0034  0.1062  0.0167
   45MOL0     C 5848   3.851  10.491   7.281 -0.6505  1.1010  1.1831
   45MOL0     C 5849   3.804  10.586   7.166 -0.1499  0.2749  0.8851
   45MOL0     C 5850   3.705  10.692   7.207  0.2013  0.2592  0.1169
   45MOL0     C 5851   3.628  10.760   7.090  0.4414 -0.3942 -0.1564
   45MOL0    Cl 5852   3.488  10.662   7.025 -0.9587  0.0192 -0.0971
   45MOL0     C 5853   4.468  10.710   7.068 -0.3891  0.7821  0.6914
   45MOL0     C 5854   4.577  10.754   7.003  0.2248  0.1258  0.5816
   45MOL0     O 5855   4.762  10.592   6.735  1.3822  0.2001 -0.0843
   45MOL0     C 5856   5.038  10.815   6.786  0.2506  0.0729  0.8235
   45MOL0     C 5857   5.159  10.853   6.721 -0.3657  0.6140  0.4685
   45MOL0     N 5858   5.757  10.829   6.208 -1.1307  0.4529 -0.2448
   45MOL0     N 5859   5.857  10.808   6.135 -0.8165 -0.3308  0.1237
   45MOL0     C 5860   6.587  10.023   5.872 -1.1565 -0.1367  0.3470
   45MOL0     C 5861   6.690   9.940   5.822  0.5954 -0.7399  0.7959
   45MOL0     C 5862   7.091   9.842   5.594 -0.4227 -1.0386 -0.4145
   45MOL0     C 5863   7.128   9.816   5.458  0.7997  0.8089 -0.2466
   45MOL0     C 5864   7.234   9.733   5.430  0.0764 -0.2036 -0.0406
   45MOL0     C 5865   7.319   9.670   5.523 -0.4513  0.4090  0.7054
   45MOL0     O 5866   7.429   9.606   5.475 -0.2066 -0.1682 -0.4847
   45MOL0     C 5867   7.512   9.529   5.566 -0.3654 -0.5208 -0.1430
   45MOL0     C 5868   7.645   9.497   5.500 -0.6438  0.1318 -0.4358
   45MOL0     C 5869   7.633   9.390   5.388  0.1843 -0.0535  0.0736
   45MOL0     C 5870   7.766   9.339   5.320  0.7505  0.4473  0.6402
   45MOL0     C 5871   7.870   9.428   5.340 -0.2987 -0.4698  0.4168
   45MOL0     C 5872   7.966   9.494   5.359 -0.2269  0.9417 -0.3159
   45MOL0     C 5873   7.278   9.690   5.654  0.1479  1.1944 -0.3600
   45MOL0     C 5874   7.171   9.772   5.688 -0.1002  0.3326 -1.1901
   45MOL0     H 5875   6.926  10.178   5.744 -0.1998 -0.1357 -2.7215
   45MOL0     H 5876   6.761  10.319   5.836  1.4429  0.2359 -1.6444
   45MOL0     H 5877   6.389  10.129   6.035  0.2099 -1.0619 -1.4524
   45MOL0     H 5878   6.356  10.191   5.880  3.0930 -1.2448 -0.2775
   45MOL0     H 5879   6.226  10.322   6.012 -0.4328  1.6753 -0.3164
   45MOL0     H 5880   6.371  10.423   5.977 -0.4730  0.1516 -1.3830
   45MOL0     H 5881   6.450  10.378   6.215 -0.6142 -0.9792 -0.5800
   45MOL0     H 5882   6.334  10.249   6.234 -3.4235 -1.3451 -1.4753
   45MOL0     H 5883   6.147  10.431   6.220  0.2355  1.4471 -1.0065
   45MOL0     H 5884   6.260  10.443   6.361  2.3912 -2.7936  0.1864
   45MOL0     H 5885   6.292  10.598   6.094  3.8109  0.2688  0.9021
   45MOL0     H 5886   6.395  10.603   6.228  0.7872 -0.4709  1.1624
   45MOL0     H 5887   6.203  10.674   6.371 -1.4868  2.3268 -0.2568
   45MOL0     H 5888   6.081  10.643   6.233 -0.3620 -1.8623  0.7274
   45MOL0     H 5889   6.209  10.894   6.310  2.4798 -1.2385  1.4062
   45MOL0     H 5890   6.305  10.836   6.171 -0.7916  0.5064 -0.8260
   45MOL0     H 5891   6.104  10.791   6.050 -0.9297  0.7275  0.5077
   45MOL0     H 5892   6.147  10.966   6.082  1.4834  0.8631  1.9877
   45MOL0     H 5893   5.973  11.025   6.345  1.9470 -0.7234 -0.9109
   45MOL0     H 5894   5.727  11.092   6.408  3.9486  0.2387  3.0820
   45MOL0     H 5895   5.740  10.959   6.511  0.0897  2.3424  0.6399
   45MOL0     H 5896   5.523  10.952   6.290  1.4920 -2.4384 -0.0377
   45MOL0     H 5897   5.490  11.018   6.448  1.5125  3.0464 -0.5663
   45MOL0     H 5898   5.575  10.738   6.361  1.3764 -1.4966  1.5579
   45MOL0     H 5899   5.583  10.784   6.533 -0.2193  0.1087  0.8907
   45MOL0     H 5900   5.384  10.645   6.460 -1.8653 -0.4887 -1.5208
   45MOL0     H 5901   5.342  10.780   6.349  0.7144  3.7131  0.9073
   45MOL0     H 5902   5.145  10.648   6.451  0.5396  0.9270  0.5041
   45MOL0     H 5903   4.927  10.601   6.554  0.1089  0.8636 -0.7265
   45MOL0     H 5904   4.750  10.466   6.996  1.5334  1.1311  2.0493
   45MOL0     H 5905   4.556  10.382   7.105 -1.0200 -0.3227  0.0112
   45MOL0     H 5906   4.392  10.398   7.294 -0.8235  0.3705  1.3116
   45MOL0     H 5907   4.324  10.329   7.138  0.2294  0.5282 -0.7982
   45MOL0     H 5908   4.152  10.507   7.322 -1.9695  0.1358 -2.2342
   45MOL0     H 5909   4.150  10.334   7.354 -2.3746 -1.0676 -1.1474
   45MOL0     H 5910   4.101  10.308   7.104 -0.5148 -0.8008  1.8108
   45MOL0     H 5911   4.072  10.483   7.096 -1.8218  1.1057  1.5411
   45MOL0     H 5912   3.858  10.327   7.146  2.1193  1.2961 -1.8619
   45MOL0     H 5913   3.932  10.293   7.293  0.8775 -0.9600 -1.0747
   45MOL0     H 5914   3.927  10.547   7.336  2.8014 -0.9019 -1.1518
   45MOL0     H 5915   3.766  10.471   7.347  0.9451  0.9499  3.2991
   45MOL0     H 5916   3.757  10.522   7.090  2.7569  0.6571 -1.3870
   45MOL0     H 5917   3.887  10.639   7.119 -0.9310 -0.3525 -1.3218
   45MOL0     H 5918   3.645  10.651   7.289  0.0851 -0.4683 -0.3192
   45MOL0     H 5919   3.769  10.773   7.243  1.0626  0.0450 -0.8630
   45MOL0     H 5920   3.701  10.781   7.010  1.0527 -2.6188 -0.2493
   45MOL0     H 5921   3.590  10.856   7.126 -0.2696 -0.8242  0.2589
   45MOL0     H 5922   4.390  10.785   7.083  1.1453  2.3928  0.9150
   45MOL0     H 5923   4.596  10.854   6.966  0.3436 -0.2158 -0.2783
   45MOL0     H 5924   5.009  10.857   6.881  2.8731  1.4453  1.1037
   45MOL0     H 5925   5.231  10.925   6.760 -0.1286  0.9782 -0.6166
   45MOL0     H 5926   6.493   9.994   5.918 -2.3296  1.8674 -0.6507
   45MOL0     H 5927   6.681   9.833   5.813 -2.9470 -0.7579  2.8813
   45MOL0     H 5928   7.098   9.877   5.373 -2.0480  1.2422  0.9321
   45MOL0     H 5929   7.277   9.726   5.330  1.2359  0.7331  0.3712
   45MOL0     H 5930   7.465   9.433   5.592 -0.5851 -1.0648 -2.3108
   45MOL0     H 5931   7.540   9.586   5.655  2.4942 -1.4827 -0.3175
   45MOL0     H 5932   7.686   9.592   5.462 -2.3525  0.6173 -1.1702
   45MOL0     H 5933   7.711   9.459   5.577  1.9255  0.4285 -2.3600
   45MOL0     H 5934   7.569   9.438   5.313  1.9516  1.6254 -0.4605
   45MOL0     H 5935   7.587   9.300   5.428 -2.2945 -0.0653 -2.4230
   45MOL0     H 5936   7.797   9.237   5.347 -2.8723 -0.3698  2.5048
   45MOL0     H 5937   7.743   9.339   5.213 -0.2109  1.2081  0.8264
   45MOL0     H 5938   8.062   9.542   5.363 -0.9805  2.4529  0.2749
   45MOL0     H 5939   7.347   9.649   5.728  1.0386  1.8022 -0.8335
   45MOL0     H 5940   7.149   9.785   5.794 -1.1914  0.6022 -1.4394
   46MOL0     O 5941   3.060   9.705  10.783  0.0924 -0.1877 -0.2775
   46MOL0     C 5942   3.126   9.636  10.706  0.4414  0.6278  0.2063
   46MOL0     O 5943   3.074   9.562  10.594 -0.1772 -0.8893 -0.5385
   46MOL0     C 5944   2.943   9.595  10.576 -0.5322  0.4072  0.1110
   46MOL0     C 5945   2.897   9.728  10.553  0.5441 -0.2683  0.4724
   46MOL0     C 5946   2.758   9.748  10.517  0.2484  0.2628 -0.0631
   46MOL0     C 5947   2.666   9.633  10.519 -0.1326 -0.2583  0.0469
   46MOL0     O 5948   2.530   9.646  10.509 -0.0519  0.5152  0.0106
   46MOL0     C 5949   2.479   9.785  10.496  0.5137  0.3856 -0.3660
   46MOL0     C 5950   2.333   9.779  10.468  0.5211 -0.5660  0.1064
   46MOL0     C 5951   2.294   9.768  10.319 -0.0307  0.3188 -0.1389
   46MOL0     C 5952   2.346   9.894  10.240 -0.2371  0.7095  0.4111
   46MOL0     C 5953   2.310   9.875  10.086  1.5723 -0.5868  0.3180
   46MOL0     C 5954   2.370   9.990   9.995 -1.2722  0.7474  0.2410
   46MOL0     C 5955   2.517   9.962   9.956 -0.1124  0.4587  0.1752
   46MOL0     C 5956   2.560  10.012   9.817 -0.1245 -0.6102  0.5381
   46MOL0     N 5957   2.572  10.158   9.809 -0.4322 -0.7124 -0.1637
   46MOL0     C 5958   2.694  10.229   9.837  0.0022  0.0224 -0.2393
   46MOL0     C 5959   2.666  10.358   9.812  0.4368  0.7069 -0.5002
   46MOL0     C 5960   2.765  10.466   9.841  0.4121 -0.3429 -0.2535
   46MOL0     C 5961   2.736  10.601   9.773 -0.2285  0.4124  0.0235
   46MOL0     C 5962   2.640  10.682   9.854 -0.4277  0.0860  0.7119
   46MOL0     C 5963   2.573  10.798   9.781 -0.8038 -0.2505 -0.0412
   46MOL0     O 5964   2.442  10.822   9.834 -0.3811 -0.1437  1.1880
   46MOL0     C 5965   2.341  10.731   9.833  0.5523  0.2623 -0.3372
   46MOL0     C 5966   2.334  10.615   9.760 -0.6671 -0.5040  0.1977
   46MOL0     C 5967   2.227  10.521   9.782  0.1809 -0.3351  0.4194
   46MOL0     C 5968   2.113  10.551   9.856 -0.2598 -0.0131 -0.1389
   46MOL0     C 5969   2.014  10.446   9.885  0.1595  0.5584 -0.3596
   46MOL0     O 5970   2.038  10.318   9.833  0.3222  0.3102  0.7908
   46MOL0     C 5971   1.955  10.211   9.871 -0.3813 -0.7599  0.5546
   46MOL0     C 5972   1.810  10.217   9.878  0.0478  0.7673 -0.7135
   46MOL0     C 5973   1.743  10.096   9.906  0.6646  0.2973 -0.9935
   46MOL0     C 5974   1.815   9.980   9.933  0.3355  0.4481  0.6370
   46MOL0     O 5975   1.764   9.857   9.945 -0.3077  0.1183  0.3361
   46MOL0     C 5976   1.626   9.830   9.964 -0.0216 -1.1524 -0.4554
   46MOL0     C 5977   1.537   9.854   9.847 -0.4199  0.3505  0.1762
   46MOL0     C 5978   1.395   9.801   9.857  0.3733 -0.5363 -0.0249
   46MOL0     C 5979   1.326   9.782   9.722  0.0487  0.9505  1.1835
   46MOL0     C 5980   1.177   9.749   9.742  0.0688  0.4952  0.5126
   46MOL0     C 5981   1.097   9.707   9.612 -0.0695 -0.1465  0.1576
   46MOL0     C 5982   1.089   9.813   9.507  0.0530 -0.5756 -0.4687
   46MOL0     C 5983   0.972   9.802   9.414 -0.7078  0.1285  0.5987
   46MOL0    Cl 5984   0.975   9.929   9.299 -0.3668  0.3742 -0.0742
   46MOL0     C 5985   1.954   9.983   9.930 -0.7859  0.2298 -0.2449
   46MOL0     C 5986   2.020  10.093   9.883  0.1308  0.0225  0.0308
   46MOL0     O 5987   1.922  10.465   9.963  0.5862 -1.1123 -0.3016
   46MOL0     C 5988   2.118  10.673   9.927  0.9795  0.6530  0.0222
   46MOL0     C 5989   2.229  10.765   9.911 -0.0084 -0.3553  0.3741
   46MOL0     N 5990   2.542  10.369   9.751  0.0348 -0.0891 -0.8609
   46MOL0     N 5991   2.491  10.252   9.750 -0.5804 -0.5141 -0.2669
   46MOL0     C 5992   2.725   9.511  10.546 -0.5352  0.8658 -0.5194
   46MOL0     C 5993   2.859   9.487  10.568  0.0074  0.2943 -0.7251
   46MOL0     C 5994   3.278   9.644  10.714  0.1930 -0.9889  0.1602
   46MOL0     C 5995   3.348   9.605  10.598  0.9494  0.3950 -0.7191
   46MOL0     C 5996   3.484   9.587  10.594 -0.1370 -0.6595 -0.3406
   46MOL0     C 5997   3.560   9.632  10.706 -0.9556 -0.0554  0.3708
   46MOL0     O 5998   3.698   9.611  10.694  0.1036  0.3751 -0.4666
   46MOL0     C 5999   3.775   9.618  10.814  0.5536  0.4347 -0.3186
   46MOL0     C 6000   3.921   9.601  10.770  0.2173  0.0977 -0.0993
   46MOL0     C 6001   3.977   9.724  10.694 -0.7510 -0.0238  0.0353
   46MOL0     C 6002   4.109   9.687  10.638 -0.3815  0.5564 -0.2127
   46MOL0     C 6003   4.102   9.565  10.551  0.0405 -0.6930 -0.6618
   46MOL0     C 6004   4.093   9.453  10.495 -0.4571  0.2616 -0.3750
   46MOL0     C 6005   3.496   9.674  10.823  0.7093 -0.2009  0.6666
   46MOL0     C 6006   3.354   9.680  10.828  0.6767 -0.3660  0.0429
   46MOL0     H 6007   2.960   9.816  10.544  0.2467 -0.2060 -1.5061
   46MOL0     H 6008   2.718   9.845  10.492  0.3564  0.7916  1.6723
   46MOL0     H 6009   2.535   9.844  10.423  2.1297  0.6891  1.0661
   46MOL0     H 6010   2.484   9.828  10.596 -1.8197 -0.9609  0.4135
   46MOL0     H 6011   2.290   9.873  10.503 -2.0682 -0.8478 -1.9824
   46MOL0     H 6012   2.298   9.691  10.524  4.7323 -2.2027  0.4753
   46MOL0     H 6013   2.186   9.766  10.305  0.2667 -0.4496 -3.1682
   46MOL0     H 6014   2.336   9.680  10.269 -0.3148  1.2469 -2.1141
   46MOL0     H 6015   2.303   9.981  10.291  0.4131  2.2741 -1.5316
   46MOL0     H 6016   2.456   9.894  10.236 -0.0582 -3.8447  0.3138
   46MOL0     H 6017   2.203   9.895  10.084  1.7475  0.4088 -0.0492
   46MOL0     H 6018   2.329   9.771  10.059 -2.3005 -1.1598 -0.7181
   46MOL0     H 6019   2.378  10.081  10.056 -2.8714 -0.7533  2.8342
   46MOL0     H 6020   2.305  10.007   9.908 -0.1402 -1.9611 -1.2674
   46MOL0     H 6021   2.580  10.002  10.036  0.1753 -1.9232  1.1966
   46MOL0     H 6022   2.531   9.854   9.952 -1.7146  0.1677  1.4844
   46MOL0     H 6023   2.480   9.985   9.748 -1.2197  1.0998  1.0785
   46MOL0     H 6024   2.649   9.961   9.780 -1.2291 -2.9843  0.9992
   46MOL0     H 6025   2.785  10.192   9.882 -1.5323  1.0152  4.1991
   46MOL0     H 6026   2.866  10.428   9.821  1.3718  3.2046 -3.2480
   46MOL0     H 6027   2.749  10.487   9.947  1.7780 -3.1331  0.6212
   46MOL0     H 6028   2.689  10.579   9.677 -0.3913 -4.2367  0.9430
   46MOL0     H 6029   2.823  10.659   9.742 -0.9110  0.3986 -2.0763
   46MOL0     H 6030   2.569  10.617   9.906  1.6914 -2.5263  0.5629
   46MOL0     H 6031   2.710  10.723   9.927  2.9782 -2.2490 -1.0051
   46MOL0     H 6032   2.564  10.783   9.673 -1.6093 -0.1115 -0.0003
   46MOL0     H 6033   2.642  10.881   9.797  0.1892 -1.0578  0.0093
   46MOL0     H 6034   2.425  10.584   9.709  0.8697  0.7452  2.0598
   46MOL0     H 6035   2.253  10.426   9.736  0.7621  1.2533 -2.9207
   46MOL0     H 6036   1.769  10.315   9.855 -1.6764  0.4060  0.5790
   46MOL0     H 6037   1.635  10.106   9.896  0.7441  3.6485  0.3650
   46MOL0     H 6038   1.592   9.882  10.053  2.6165  0.5716 -0.3405
   46MOL0     H 6039   1.630   9.722   9.984  0.1282 -1.3894 -1.6877
   46MOL0     H 6040   1.591   9.803   9.767 -0.9121  1.4981 -0.9213
   46MOL0     H 6041   1.525   9.958   9.816 -2.8524 -0.5021 -2.0810
   46MOL0     H 6042   1.342   9.871   9.923 -1.1041 -0.3438 -1.3727
   46MOL0     H 6043   1.393   9.698   9.894 -0.9550  0.2301  2.2967
   46MOL0     H 6044   1.333   9.876   9.665 -3.2742 -0.7391 -2.4352
   46MOL0     H 6045   1.370   9.701   9.662 -0.0684 -0.4169  2.8865
   46MOL0     H 6046   1.131   9.844   9.771  3.1466  1.6730  1.9079
   46MOL0     H 6047   1.163   9.677   9.823  0.1473 -0.8214 -0.5971
   46MOL0     H 6048   0.995   9.682   9.643 -1.0563  0.4047 -2.4651
   46MOL0     H 6049   1.143   9.615   9.575  1.0388  0.5317 -0.1869
   46MOL0     H 6050   1.092   9.913   9.551 -1.0932 -1.6091  2.1910
   46MOL0     H 6051   1.184   9.801   9.453  1.2806 -0.2882  1.5234
   46MOL0     H 6052   0.872   9.810   9.456 -0.5951 -0.1905  0.9346
   46MOL0     H 6053   0.978   9.709   9.356 -1.1456  2.2206 -3.0964
   46MOL0     H 6054   2.010   9.891   9.939 -1.1540 -0.0618 -0.8209
   46MOL0     H 6055   2.128  10.088   9.871  0.0191 -0.6123 -0.8398
   46MOL0     H 6056   2.035  10.696   9.994  1.1033  2.4073 -0.3624
   46MOL0     H 6057   2.233  10.858   9.966  0.1794 -0.9746  1.4202
   46MOL0     H 6058   2.655   9.429  10.556  0.9483 -0.3202  0.6451
   46MOL0     H 6059   2.894   9.384  10.571 -2.4651 -0.6558 -1.8332
   46MOL0     H 6060   3.293   9.583  10.508 -1.7056  2.6161  0.2326
   46MOL0     H 6061   3.537   9.556  10.504  0.4969 -1.7324  0.3788
   46MOL0     H 6062   3.746   9.533  10.878 -0.7901  1.5267  0.5819
   46MOL0     H 6063   3.764   9.707  10.876  0.8823  1.6993 -2.0211
   46MOL0     H 6064   3.987   9.583  10.855 -0.4950 -0.5510  0.3293
   46MOL0     H 6065   3.930   9.504  10.720  0.1807 -0.2201  0.5011
   46MOL0     H 6066   3.985   9.811  10.759  1.5311 -1.1329  1.3958
   46MOL0     H 6067   3.912   9.750  10.610  0.5136  2.5071 -0.2467
   46MOL0     H 6068   4.143   9.779  10.589  3.9310 -0.4550  0.4948
   46MOL0     H 6069   4.185   9.666  10.714 -0.3370 -2.3668 -0.9507
   46MOL0     H 6070   4.088   9.352  10.459  1.6340  0.5645 -1.6898
   46MOL0     H 6071   3.554   9.709  10.908  2.5090  0.5907 -0.7956
   46MOL0     H 6072   3.304   9.710  10.920 -0.9717  0.8920 -1.1872
   47MOL0     O 6073   8.936  10.949   5.016  0.5110 -0.5259  0.2078
   47MOL0     C 6074   8.848  11.037   5.019 -0.1408 -0.1091 -0.4493
   47MOL0     O 6075   8.838  11.138   5.113  0.3277 -0.6056 -0.0572
   47MOL0     C 6076   8.929  11.152   5.218  1.4498  0.5032 -0.3489
   47MOL0     C 6077   9.056  11.098   5.250  0.6852  0.2867 -0.1879
   47MOL0     C 6078   9.116  11.124   5.378 -0.1578  0.3038  0.1338
   47MOL0     C 6079   9.054  11.209   5.473 -0.3962  0.0711  0.3625
   47MOL0     O 6080   9.098  11.234   5.601 -0.0796 -0.6500 -0.8893
   47MOL0     C 6081   9.122  11.131   5.690  0.0562  0.7136  0.1507
   47MOL0     C 6082   9.133  11.178   5.831  0.0228  0.0615  0.2056
   47MOL0     C 6083   9.153  11.054   5.926  0.6543  0.3847 -0.6539
   47MOL0     C 6084   9.150  11.112   6.066 -0.9625 -0.3072 -0.2355
   47MOL0     C 6085   9.169  11.003   6.173 -0.3410 -0.4650  0.7878
   47MOL0     C 6086   9.066  10.889   6.169 -0.2573 -0.0292 -1.0390
   47MOL0     C 6087   8.919  10.927   6.199  0.0300 -0.7102 -0.4869
   47MOL0     C 6088   8.891  10.980   6.338 -0.2553 -0.3072  0.7295
   47MOL0     N 6089   8.934  10.882   6.435 -0.2464  0.4283 -0.3603
   47MOL0     C 6090   8.874  10.766   6.492  0.3214 -0.0668 -0.5043
   47MOL0     C 6091   8.955  10.719   6.593 -0.5047 -0.2292 -0.2198
   47MOL0     C 6092   8.914  10.614   6.702  0.5087 -0.0823  0.1719
   47MOL0     C 6093   8.801  10.654   6.783  0.2761 -0.7253  0.3711
   47MOL0     C 6094   8.764  10.549   6.887 -0.1814  0.1568 -0.4396
   47MOL0     C 6095   8.704  10.420   6.830 -0.1005 -0.7404 -0.2119
   47MOL0     O 6096   8.616  10.446   6.718  0.2740 -0.6283  0.0225
   47MOL0     C 6097   8.482  10.440   6.747 -0.1169  0.2714 -0.2557
   47MOL0     C 6098   8.406  10.447   6.634  0.0398 -0.2225  0.5069
   47MOL0     C 6099   8.267  10.445   6.643 -0.2736 -0.1226 -0.3260
   47MOL0     C 6100   8.200  10.440   6.765  0.0425  0.2837  0.1107
   47MOL0     C 6101   8.052  10.433   6.776  0.1915  0.2253  0.2583
   47MOL0     O 6102   7.992  10.419   6.895 -0.0884 -0.1199 -0.4105
   47MOL0     C 6103   7.862  10.414   6.912  0.2627 -1.0766  0.1080
   47MOL0     C 6104   7.790  10.522   6.971 -0.3940  0.3608  0.5335
   47MOL0     C 6105   7.651  10.514   6.994  0.7766 -0.0294 -0.0984
   47MOL0     C 6106   7.580  10.401   6.952 -0.0857 -1.0383 -0.2485
   47MOL0     O 6107   7.446  10.391   6.989  0.4149  0.1809 -0.1523
   47MOL0     C 6108   7.358  10.343   6.887  0.6614  0.7585  0.4139
   47MOL0     C 6109   7.210  10.381   6.931  0.4165  0.7085  0.6206
   47MOL0     C 6110   7.166  10.299   7.057  0.7281  1.0569 -0.8366
   47MOL0     C 6111   7.028  10.334   7.116  0.0574  0.6841 -0.3481
   47MOL0     C 6112   7.022  10.483   7.163 -1.5920 -0.0609 -0.1915
   47MOL0     C 6113   6.914  10.507   7.262  0.7461  0.2370  1.0299
   47MOL0     C 6114   6.770  10.484   7.207 -0.0838  0.1071  0.5342
   47MOL0     C 6115   6.681  10.469   7.330  0.5624  0.4673  0.3199
   47MOL0    Cl 6116   6.687  10.605   7.445  0.0710 -0.3810  0.4659
   47MOL0     C 6117   7.649  10.295   6.891 -0.2041 -0.1873  0.2550
   47MOL0     C 6118   7.791  10.293   6.883  0.1066  0.5181 -0.8130
   47MOL0     O 6119   7.989  10.440   6.668  0.1474 -0.0246  0.5952
   47MOL0     C 6120   8.281  10.439   6.879  1.0211 -0.3635 -0.2952
   47MOL0     C 6121   8.418  10.433   6.873  0.4369 -0.3681  0.2327
   47MOL0     N 6122   9.069  10.795   6.590 -0.8107 -0.1157  0.2846
   47MOL0     N 6123   9.062  10.883   6.493 -0.3021  0.1165  0.2133
   47MOL0     C 6124   8.929  11.263   5.435 -1.0171  0.6241 -0.3940
   47MOL0     C 6125   8.869  11.237   5.310 -0.2313 -0.3718  0.9394
   47MOL0     C 6126   8.730  11.018   4.925  0.2987 -0.1467  0.0860
   47MOL0     C 6127   8.603  11.077   4.970  0.3678  0.0335  0.5888
   47MOL0     C 6128   8.496  11.058   4.878  0.1933  0.5179  0.3468
   47MOL0     C 6129   8.514  10.993   4.753  0.6389 -0.6594  0.5418
   47MOL0     O 6130   8.403  10.978   4.678 -0.2131  0.2265  0.0751
   47MOL0     C 6131   8.377  10.853   4.623  0.7051 -0.7619  0.8802
   47MOL0     C 6132   8.236  10.843   4.565  0.4045 -0.5792 -0.0029
   47MOL0     C 6133   8.222  10.903   4.428 -0.2398 -0.4740  0.3692
   47MOL0     C 6134   8.076  10.911   4.382 -0.6471  0.4812 -0.2265
   47MOL0     C 6135   8.021  11.045   4.390 -0.6673  0.6188  0.5552
   47MOL0     C 6136   7.985  11.159   4.409  0.1188 -0.5693 -0.3528
   47MOL0     C 6137   8.639  10.943   4.720 -0.3701 -0.3867  0.3898
   47MOL0     C 6138   8.743  10.949   4.802  0.1352  0.3219 -0.3914
   47MOL0     H 6139   9.098  11.031   5.175  0.6690  1.5070 -1.3151
   47MOL0     H 6140   9.210  11.077   5.403  0.8889  1.4820 -1.4267
   47MOL0     H 6141   9.209  11.067   5.671  1.5796  2.4315  1.0429
   47MOL0     H 6142   9.034  11.068   5.701 -0.1071  0.5788 -1.6576
   47MOL0     H 6143   9.044  11.232   5.864  0.7512 -1.2754  5.1035
   47MOL0     H 6144   9.223  11.239   5.843  0.5448 -0.6756  0.0979
   47MOL0     H 6145   9.249  11.007   5.900  1.9162  2.5841 -0.2861
   47MOL0     H 6146   9.072  10.983   5.909  1.8094 -1.8708  2.4690
   47MOL0     H 6147   9.225  11.188   6.089 -1.8556  0.3438  0.6213
   47MOL0     H 6148   9.057  11.167   6.085 -0.4265 -0.3858  3.3181
   47MOL0     H 6149   9.177  11.053   6.270 -2.5659  2.3363 -0.3534
   47MOL0     H 6150   9.259  10.948   6.144 -0.4041  0.2283 -0.7809
   47MOL0     H 6151   9.098  10.799   6.222  0.6687 -0.6034 -2.5062
   47MOL0     H 6152   9.074  10.846   6.069  1.2219 -0.6903 -0.6697
   47MOL0     H 6153   8.890  11.002   6.125  2.5491 -0.2551 -1.1407
   47MOL0     H 6154   8.857  10.840   6.177  2.1277 -2.8095  1.3651
   47MOL0     H 6155   8.786  11.011   6.337 -0.7933 -1.6484 -3.1353
   47MOL0     H 6156   8.941  11.077   6.340 -1.2462  0.5630 -4.0736
   47MOL0     H 6157   8.776  10.722   6.476  0.0989  0.1850  0.1115
   47MOL0     H 6158   9.006  10.610   6.761 -0.3610  2.3342  1.8517
   47MOL0     H 6159   8.891  10.517   6.656 -1.5809 -0.1427  1.2416
   47MOL0     H 6160   8.721  10.694   6.719  2.0435  2.0582 -0.2702
   47MOL0     H 6161   8.829  10.746   6.836 -1.3341  2.8837 -4.2487
   47MOL0     H 6162   8.841  10.520   6.959 -3.0077  0.4618  3.0245
   47MOL0     H 6163   8.686  10.585   6.956  1.7027  0.8073  1.4611
   47MOL0     H 6164   8.652  10.372   6.913  1.6500  0.1680  1.4770
   47MOL0     H 6165   8.794  10.364   6.803 -0.6607 -0.8640 -1.9951
   47MOL0     H 6166   8.444  10.448   6.532 -2.5004  0.4304 -0.5091
   47MOL0     H 6167   8.204  10.429   6.555  0.3790  4.2708 -1.8513
   47MOL0     H 6168   7.853  10.603   7.006  2.2211 -1.1819 -0.2898
   47MOL0     H 6169   7.599  10.591   7.051  2.4412  0.7122  0.4967
   47MOL0     H 6170   7.358  10.234   6.881  0.1687  0.7987 -0.5249
   47MOL0     H 6171   7.374  10.389   6.789 -3.7705 -0.4677 -1.1066
   47MOL0     H 6172   7.128  10.373   6.859  2.2389  0.8977 -1.5617
   47MOL0     H 6173   7.212  10.487   6.957  0.0660  0.5836  1.1826
   47MOL0     H 6174   7.236  10.300   7.141  2.0862 -2.7674 -1.6867
   47MOL0     H 6175   7.169  10.192   7.036  3.2897 -0.2503  4.4746
   47MOL0     H 6176   6.945  10.320   7.046 -0.3649  0.0372  0.2697
   47MOL0     H 6177   7.006  10.278   7.207  1.6689  0.5842  0.0233
   47MOL0     H 6178   7.022  10.545   7.073 -2.4821  0.6191  0.2528
   47MOL0     H 6179   7.113  10.523   7.208 -2.1249  0.4235  0.4741
   47MOL0     H 6180   6.925  10.614   7.283 -1.8514  0.4549  1.5434
   47MOL0     H 6181   6.926  10.444   7.351 -1.1328  0.9230  1.8116
   47MOL0     H 6182   6.743  10.564   7.137  0.5815 -0.9769 -1.0154
   47MOL0     H 6183   6.762  10.386   7.160  0.8366  0.4760 -0.4243
   47MOL0     H 6184   6.701  10.370   7.373 -0.6690  0.1581  0.2267
   47MOL0     H 6185   6.574  10.464   7.305  0.2822 -0.8571  1.6311
   47MOL0     H 6186   7.587  10.207   6.876  1.3067 -1.8770  3.0408
   47MOL0     H 6187   7.849  10.210   6.843  2.6600  0.2543  2.8933
   47MOL0     H 6188   8.236  10.444   6.978 -0.0762 -1.2970 -0.7222
   47MOL0     H 6189   8.473  10.418   6.965  0.3738  0.4189  0.4100
   47MOL0     H 6190   8.890  11.326   5.515 -0.1962  0.8315 -0.1452
   47MOL0     H 6191   8.767  11.266   5.288 -0.7458 -1.4525  1.8360
   47MOL0     H 6192   8.590  11.135   5.060 -0.7900 -0.1133  0.5328
   47MOL0     H 6193   8.394  11.089   4.900 -0.1637  1.1209 -1.9011
   47MOL0     H 6194   8.392  10.785   4.708  2.8412 -1.6356 -0.1129
   47MOL0     H 6195   8.455  10.827   4.550  1.4921 -0.5052  1.6040
   47MOL0     H 6196   8.209  10.737   4.559 -1.5075 -0.1476  0.4345
   47MOL0     H 6197   8.156  10.878   4.631 -0.4514 -2.2353 -0.1161
   47MOL0     H 6198   8.274  10.833   4.362 -2.6725 -2.6766  0.6144
   47MOL0     H 6199   8.270  11.001   4.428  0.4720 -0.8009  1.6593
   47MOL0     H 6200   8.085  10.885   4.276  0.0931  0.8619 -0.2657
   47MOL0     H 6201   8.010  10.834   4.424 -4.3447  3.1139 -0.6923
   47MOL0     H 6202   7.960  11.263   4.419  1.0850 -0.5553  2.5809
   47MOL0     H 6203   8.648  10.874   4.637 -0.7833  1.9111 -1.6841
   47MOL0     H 6204   8.836  10.899   4.778  0.0697 -0.3525  0.7041
   48MOL0     O 6205   2.698   7.774   6.703  0.1607 -0.1531 -0.1172
   48MOL0     C 6206   2.775   7.710   6.643 -0.9710  0.7955 -0.1345
   48MOL0     O 6207   2.743   7.641   6.529 -0.1903 -0.3209  0.4439
   48MOL0     C 6208   2.610   7.618   6.491 -0.9653 -0.0750  0.7525
   48MOL0     C 6209   2.492   7.628   6.566 -0.4502  0.6559 -0.0324
   48MOL0     C 6210   2.365   7.601   6.516 -0.4062 -0.1407 -1.7080
   48MOL0     C 6211   2.344   7.574   6.381  0.1160  0.3518 -0.5736
   48MOL0     O 6212   2.216   7.555   6.333 -0.5970 -0.3382  0.6965
   48MOL0     C 6213   2.136   7.449   6.395 -0.6072  0.1734 -0.1570
   48MOL0     C 6214   1.985   7.485   6.370 -0.3020 -0.7352  0.3464
   48MOL0     C 6215   1.932   7.620   6.430 -0.3510  0.3321  0.1599
   48MOL0     C 6216   1.784   7.648   6.403 -0.1902  0.1058 -0.8756
   48MOL0     C 6217   1.756   7.688   6.254 -0.6811 -0.6529 -0.4027
   48MOL0     C 6218   1.613   7.707   6.215  0.5984 -0.1831  0.7192
   48MOL0     C 6219   1.605   7.766   6.076 -0.4876  0.5457 -0.1286
   48MOL0     C 6220   1.464   7.754   6.024  0.1781  0.3399 -0.3739
   48MOL0     N 6221   1.462   7.819   5.889  0.3238 -1.2119  0.0400
   48MOL0     C 6222   1.426   7.950   5.852 -0.1264 -0.1521 -0.2352
   48MOL0     C 6223   1.412   7.945   5.716 -0.1058 -0.2685  0.1303
   48MOL0     C 6224   1.369   8.072   5.638 -0.7485  0.4357 -0.3031
   48MOL0     C 6225   1.241   8.049   5.556 -1.0006 -1.4246 -0.3703
   48MOL0     C 6226   1.241   8.156   5.446 -0.0706 -0.7498  0.1341
   48MOL0     C 6227   1.260   8.307   5.494 -0.0702  0.2917 -0.0554
   48MOL0     O 6228   1.143   8.345   5.568  0.2969 -0.2814  0.0636
   48MOL0     C 6229   1.018   8.365   5.506 -0.8924  0.1913 -0.6956
   48MOL0     C 6230   0.910   8.349   5.586  0.9897  0.0190 -0.0956
   48MOL0     C 6231   0.778   8.344   5.542 -0.0895  0.3810  0.2856
   48MOL0     C 6232   0.759   8.366   5.408  0.7066 -0.6848  0.2139
   48MOL0     C 6233   0.629   8.359   5.345  0.0530 -0.0260 -0.2892
   48MOL0     O 6234   0.520   8.359   5.425  0.7190 -0.3070 -0.2803
   48MOL0     C 6235   0.395   8.376   5.368 -1.5607 -0.3049 -0.5796
   48MOL0     C 6236   0.374   8.466   5.263  0.6629 -0.2499  0.3193
   48MOL0     C 6237   0.255   8.496   5.209  0.5393 -0.2596 -0.0708
   48MOL0     C 6238   0.143   8.438   5.264  0.4515 -0.1375 -0.2872
   48MOL0     O 6239   0.020   8.474   5.213 -0.3028 -0.7654 -0.4117
   48MOL0     C 6240  -0.105   8.418   5.261 -0.4821  1.6796 -0.8941
   48MOL0     C 6241  -0.209   8.478   5.173 -0.1938  0.1142 -0.5351
   48MOL0     C 6242  -0.347   8.453   5.233  0.0522  0.5842 -0.2045
   48MOL0     C 6243  -0.446   8.480   5.115 -0.3702  0.8969  0.1160
   48MOL0     C 6244  -0.588   8.446   5.142  0.2907 -0.0008  0.2442
   48MOL0     C 6245  -0.609   8.299   5.174 -0.4798  0.1014 -0.2269
   48MOL0     C 6246  -0.747   8.272   5.169 -0.0324 -1.0277  0.6526
   48MOL0     C 6247  -0.812   8.229   5.299  0.3143  0.3979 -0.6718
   48MOL0    Cl 6248  -0.731   8.072   5.342 -0.0542 -0.6139  0.5178
   48MOL0     C 6249   0.156   8.334   5.360  0.4526 -0.5836 -0.0643
   48MOL0     C 6250   0.282   8.319   5.424 -0.1778 -0.7183  0.3582
   48MOL0     O 6251   0.627   8.338   5.224 -0.2553 -0.1700  0.0321
   48MOL0     C 6252   0.866   8.391   5.322  0.1728 -0.8984 -0.1386
   48MOL0     C 6253   0.998   8.381   5.368  0.3759 -0.3297  0.3932
   48MOL0     N 6254   1.445   7.815   5.670  0.2070  0.6681  0.2296
   48MOL0     N 6255   1.474   7.745   5.772 -0.7640  0.0535  0.2233
   48MOL0     C 6256   2.453   7.554   6.300 -1.0229 -0.6018 -0.7863
   48MOL0     C 6257   2.583   7.578   6.358 -0.7923 -0.2070  1.1200
   48MOL0     C 6258   2.919   7.705   6.685  0.4965 -1.2484 -0.2737
   48MOL0     C 6259   3.015   7.652   6.603 -0.3983  0.5743  0.8462
   48MOL0     C 6260   3.150   7.628   6.634  0.2763  0.0815 -0.4817
   48MOL0     C 6261   3.195   7.664   6.765  0.3559 -0.3683 -1.4946
   48MOL0     O 6262   3.326   7.641   6.795  0.2607  0.1383 -0.5878
   48MOL0     C 6263   3.389   7.711   6.899 -0.8350 -0.3538 -0.1356
   48MOL0     C 6264   3.540   7.719   6.879  0.8401 -0.3458 -0.6387
   48MOL0     C 6265   3.601   7.778   6.747 -0.4593  0.1945  0.3392
   48MOL0     C 6266   3.749   7.819   6.753 -0.3280 -0.4483  0.2080
   48MOL0     C 6267   3.781   7.883   6.879 -0.0705  0.3917  0.1647
   48MOL0     C 6268   3.795   7.939   6.987  0.3143  0.4730  0.1322
   48MOL0     C 6269   3.101   7.719   6.849  0.6808 -0.7054 -0.3791
   48MOL0     C 6270   2.960   7.738   6.814  0.1034 -0.3109  1.0815
   48MOL0     H 6271   2.493   7.655   6.671 -0.1424  0.5725 -0.0121
   48MOL0     H 6272   2.282   7.596   6.587  1.0595  1.7544  0.2775
   48MOL0     H 6273   2.165   7.434   6.500  4.3965 -2.2507 -1.5982
   48MOL0     H 6274   2.165   7.354   6.349  0.8063  2.0049 -3.3188
   48MOL0     H 6275   1.924   7.404   6.412 -3.3045 -1.6408 -4.8784
   48MOL0     H 6276   1.961   7.488   6.264 -0.4052 -2.1189  0.3093
   48MOL0     H 6277   1.986   7.695   6.372  0.6776 -0.5097 -0.0205
   48MOL0     H 6278   1.955   7.630   6.537 -0.8682  3.1519  0.0847
   48MOL0     H 6279   1.724   7.563   6.436 -0.3849  1.3397  2.3907
   48MOL0     H 6280   1.765   7.730   6.473 -0.5064  1.0942 -2.0800
   48MOL0     H 6281   1.811   7.628   6.181 -4.6548 -2.0203 -2.5640
   48MOL0     H 6282   1.803   7.785   6.235  0.9792 -1.5099 -0.9171
   48MOL0     H 6283   1.579   7.771   6.298 -0.6893  0.3598 -0.1966
   48MOL0     H 6284   1.559   7.613   6.231 -0.7848  0.5557  0.6350
   48MOL0     H 6285   1.639   7.870   6.077  0.3882  0.2626  0.3770
   48MOL0     H 6286   1.675   7.711   6.013 -1.2335  1.3654 -1.7052
   48MOL0     H 6287   1.391   7.806   6.085 -0.1740 -0.3481 -0.1941
   48MOL0     H 6288   1.451   7.646   6.013 -0.0281  0.3004  0.2138
   48MOL0     H 6289   1.411   8.039   5.912  2.2584  1.2057 -1.5113
   48MOL0     H 6290   1.448   8.104   5.570 -1.6051  1.4613 -0.8510
   48MOL0     H 6291   1.367   8.156   5.708 -2.0245 -0.0859  0.3186
   48MOL0     H 6292   1.150   8.053   5.616 -1.1475  0.0784 -0.6671
   48MOL0     H 6293   1.241   7.948   5.514 -1.4872 -1.1540 -1.0346
   48MOL0     H 6294   1.321   8.131   5.376 -0.6121  0.1975 -0.8570
   48MOL0     H 6295   1.149   8.151   5.386  1.9057  2.7027 -3.7479
   48MOL0     H 6296   1.275   8.378   5.412 -1.1553  0.6873  0.0748
   48MOL0     H 6297   1.349   8.319   5.556  1.2121  0.2314 -1.8217
   48MOL0     H 6298   0.920   8.349   5.694 -0.6020  0.7147  0.0757
   48MOL0     H 6299   0.701   8.320   5.615  0.3089  0.0566  0.6118
   48MOL0     H 6300   0.459   8.519   5.221 -0.8467  0.9185 -1.3955
   48MOL0     H 6301   0.253   8.579   5.139  0.4119 -0.4414 -0.2852
   48MOL0     H 6302  -0.125   8.451   5.364 -3.4720  1.5898 -1.3482
   48MOL0     H 6303  -0.102   8.309   5.262  0.9795  1.7007 -1.3960
   48MOL0     H 6304  -0.203   8.446   5.068  0.9421  2.4060 -1.2372
   48MOL0     H 6305  -0.196   8.583   5.146  0.8410  0.0213 -0.4283
   48MOL0     H 6306  -0.366   8.525   5.313  0.5101  1.5606 -0.9486
   48MOL0     H 6307  -0.361   8.348   5.261 -2.7685  0.5258 -1.5329
   48MOL0     H 6308  -0.449   8.581   5.074  0.1451 -0.1966 -2.9308
   48MOL0     H 6309  -0.410   8.413   5.035  1.4411  0.5966  1.1322
   48MOL0     H 6310  -0.641   8.463   5.048 -0.0185  0.8631  0.5705
   48MOL0     H 6311  -0.624   8.508   5.225 -1.1534 -0.5184  0.0239
   48MOL0     H 6312  -0.580   8.288   5.279 -0.2897 -1.5012 -0.4355
   48MOL0     H 6313  -0.543   8.229   5.123  2.7394  2.0702  0.9079
   48MOL0     H 6314  -0.798   8.358   5.123  3.0715  0.0010 -1.1759
   48MOL0     H 6315  -0.752   8.201   5.085 -0.9408  1.1619 -1.2699
   48MOL0     H 6316  -0.921   8.215   5.295  0.4183 -1.7550  1.6433
   48MOL0     H 6317  -0.805   8.311   5.372 -3.9171  0.9513 -0.6429
   48MOL0     H 6318   0.075   8.276   5.403 -0.6597  0.7835 -0.2364
   48MOL0     H 6319   0.292   8.247   5.505 -1.3477  1.8932  2.9731
   48MOL0     H 6320   0.844   8.422   5.221  2.3920  0.0983 -0.3733
   48MOL0     H 6321   1.083   8.398   5.302 -0.3542  2.4053  0.0183
   48MOL0     H 6322   2.445   7.525   6.196  0.7093  0.0363 -1.1317
   48MOL0     H 6323   2.679   7.569   6.306 -0.7000 -1.2416  1.4478
   48MOL0     H 6324   2.983   7.615   6.506 -0.7750 -1.8822  1.8226
   48MOL0     H 6325   3.222   7.584   6.566  1.7504  0.7080  0.6150
   48MOL0     H 6326   3.379   7.667   6.999  0.0938 -1.9646 -0.7083
   48MOL0     H 6327   3.360   7.817   6.902 -0.9025 -0.3528 -0.6301
   48MOL0     H 6328   3.575   7.769   6.970  0.4925 -2.5265  0.7736
   48MOL0     H 6329   3.569   7.614   6.890 -0.5661 -0.7036 -0.1049
   48MOL0     H 6330   3.544   7.867   6.716 -1.7171 -0.6079  0.2981
   48MOL0     H 6331   3.603   7.701   6.670 -0.5535  1.9792 -1.5268
   48MOL0     H 6332   3.809   7.728   6.744 -3.1170 -2.3705 -0.1872
   48MOL0     H 6333   3.775   7.886   6.671  0.5337  1.0147  1.6046
   48MOL0     H 6334   3.798   8.015   7.062 -1.3757  2.0190 -1.2576
   48MOL0     H 6335   3.131   7.737   6.952 -0.6746  0.3283 -0.1361
   48MOL0     H 6336   2.883   7.781   6.877 -0.7105  0.4289 -0.3722
   49MOL0     O 6337   6.298   8.611   2.763 -0.7614  0.1954 -0.5895
   49MOL0     C 6338   6.302   8.674   2.659  0.4825 -0.6617 -0.2349
   49MOL0     O 6339   6.207   8.762   2.617  0.7567  0.2071 -0.3545
   49MOL0     C 6340   6.105   8.802   2.701 -0.2620  0.2215  1.6018
   49MOL0     C 6341   6.026   8.710   2.776  0.7820 -0.2145 -0.4594
   49MOL0     C 6342   5.909   8.754   2.845 -0.2704  0.0446  0.0090
   49MOL0     C 6343   5.866   8.886   2.853 -1.4757 -0.6551  0.3958
   49MOL0     O 6344   5.769   8.932   2.940 -0.0602  0.8117  0.9573
   49MOL0     C 6345   5.662   9.011   2.886  0.4866  0.1578  0.8793
   49MOL0     C 6346   5.523   8.942   2.909 -0.0037 -0.5285  0.1365
   49MOL0     C 6347   5.490   8.848   2.784 -0.2646  0.0060 -0.2352
   49MOL0     C 6348   5.346   8.797   2.772 -0.5163  0.7450  0.6815
   49MOL0     C 6349   5.313   8.708   2.896 -0.0100 -0.1220 -0.2052
   49MOL0     C 6350   5.180   8.766   2.958 -0.3140 -0.1927 -0.0666
   49MOL0     C 6351   5.125   8.665   3.055 -0.0511  0.7447 -0.1054
   49MOL0     C 6352   5.206   8.620   3.182 -0.0709 -0.0836 -0.0538
   49MOL0     N 6353   5.194   8.480   3.212  0.4378  0.4790  0.1089
   49MOL0     C 6354   5.086   8.410   3.243  0.2833  0.3541  0.4211
   49MOL0     C 6355   5.117   8.279   3.226 -0.5296  0.6275 -0.6714
   49MOL0     C 6356   5.004   8.177   3.255 -0.4647  0.6877 -0.5484
   49MOL0     C 6357   4.998   8.131   3.401  0.6863 -0.3671  0.3412
   49MOL0     C 6358   5.120   8.060   3.454  0.3973  0.0211  0.3713
   49MOL0     C 6359   5.144   7.925   3.383  1.4320  0.5607 -0.2971
   49MOL0     O 6360   5.025   7.863   3.338  0.2560 -0.3172  0.1733
   49MOL0     C 6361   4.954   7.786   3.432 -0.5059 -0.0286  0.0459
   49MOL0     C 6362   4.835   7.745   3.383 -0.7024  0.2880 -0.6818
   49MOL0     C 6363   4.756   7.655   3.457 -0.1678  0.1854  0.0146
   49MOL0     C 6364   4.791   7.618   3.584 -0.3554  0.3096  0.3149
   49MOL0     C 6365   4.697   7.523   3.662 -1.3342 -0.3274  0.2313
   49MOL0     O 6366   4.702   7.538   3.792 -0.2865  0.1742 -0.3430
   49MOL0     C 6367   4.639   7.439   3.864  0.3801 -0.2081  0.3148
   49MOL0     C 6368   4.706   7.315   3.886 -0.7929  0.3508  0.4628
   49MOL0     C 6369   4.646   7.212   3.961  0.1569 -0.6141  0.0236
   49MOL0     C 6370   4.522   7.232   4.017  0.0316 -0.6287 -1.2813
   49MOL0     O 6371   4.467   7.135   4.096 -0.4586 -0.6512  0.1334
   49MOL0     C 6372   4.501   6.997   4.091 -0.3369 -0.3927  0.2980
   49MOL0     C 6373   4.589   6.960   4.211 -0.4957  0.2998 -0.1022
   49MOL0     C 6374   4.560   6.813   4.244 -1.0543  0.7492  0.0336
   49MOL0     C 6375   4.677   6.766   4.337  0.3910 -0.7228  0.5332
   49MOL0     C 6376   4.663   6.620   4.334  0.1325 -0.8880  0.2828
   49MOL0     C 6377   4.772   6.566   4.433  0.5359 -0.7207  0.2915
   49MOL0     C 6378   4.748   6.413   4.448 -0.2831 -0.1247 -0.3700
   49MOL0     C 6379   4.631   6.390   4.539  0.2057  0.6697  0.1844
   49MOL0    Cl 6380   4.667   6.426   4.704 -0.3402  0.3127 -0.3684
   49MOL0     C 6381   4.457   7.362   4.005  1.0727  0.4228 -0.3113
   49MOL0     C 6382   4.515   7.467   3.931  0.3739  0.2887 -0.1340
   49MOL0     O 6383   4.620   7.450   3.596  0.4755 -0.0440 -0.3432
   49MOL0     C 6384   4.922   7.657   3.630  0.2987 -0.4173  0.8460
   49MOL0     C 6385   4.997   7.747   3.560 -0.3984  0.9812 -0.3682
   49MOL0     N 6386   5.251   8.267   3.185 -0.0609 -0.1620 -0.3225
   49MOL0     N 6387   5.298   8.392   3.174  0.3118  0.0263  0.1051
   49MOL0     C 6388   5.951   8.975   2.781  0.4448 -0.0839  0.1500
   49MOL0     C 6389   6.058   8.933   2.700 -0.3065  0.1951 -0.3376
   49MOL0     C 6390   6.404   8.638   2.555  0.8110  1.3584  1.5381
   49MOL0     C 6391   6.492   8.528   2.563 -0.3953  0.4100  0.1177
   49MOL0     C 6392   6.575   8.495   2.454  0.4530 -0.4416 -0.0092
   49MOL0     C 6393   6.595   8.572   2.344 -0.1721 -0.1809  0.0388
   49MOL0     O 6394   6.703   8.539   2.276  0.3128  0.2157 -0.5316
   49MOL0     C 6395   6.789   8.645   2.220 -0.0992  0.1034 -0.6717
   49MOL0     C 6396   6.918   8.592   2.153 -0.1826 -0.2875  0.6621
   49MOL0     C 6397   7.012   8.517   2.241  0.0099 -0.0602 -0.5202
   49MOL0     C 6398   6.960   8.390   2.317 -0.2187 -0.6031 -0.6636
   49MOL0     C 6399   7.072   8.338   2.387  0.4009  0.2756  0.2916
   49MOL0     C 6400   7.170   8.299   2.444 -0.0903  0.0507 -0.7733
   49MOL0     C 6401   6.529   8.691   2.340  0.9112  0.7786 -0.0301
   49MOL0     C 6402   6.430   8.723   2.441  0.2178 -0.4406  0.5035
   49MOL0     H 6403   6.040   8.602   2.783 -2.9101 -0.9520 -2.1943
   49MOL0     H 6404   5.856   8.673   2.895 -1.4309 -0.7811 -2.4079
   49MOL0     H 6405   5.671   9.037   2.780 -0.3815 -3.4711 -0.2350
   49MOL0     H 6406   5.646   9.100   2.947 -0.5121 -0.2462  1.2260
   49MOL0     H 6407   5.445   9.019   2.911  0.2855  0.0143 -3.1144
   49MOL0     H 6408   5.530   8.889   3.004  0.3120  0.7921  0.8593
   49MOL0     H 6409   5.554   8.759   2.783 -1.3529 -0.8087 -0.0648
   49MOL0     H 6410   5.517   8.895   2.689  1.9469  0.4841  0.5593
   49MOL0     H 6411   5.272   8.877   2.766  0.2030  1.6599  2.9864
   49MOL0     H 6412   5.336   8.736   2.681 -1.8914  1.0022  0.6313
   49MOL0     H 6413   5.383   8.701   2.981 -1.7952  0.5045  1.3879
   49MOL0     H 6414   5.303   8.602   2.869  1.8499  0.2761 -2.7355
   49MOL0     H 6415   5.098   8.774   2.886 -0.0408  0.7183 -0.2996
   49MOL0     H 6416   5.183   8.872   2.989 -2.7277  0.0942 -0.6533
   49MOL0     H 6417   5.026   8.690   3.095 -1.1221 -4.1177  1.0133
   49MOL0     H 6418   5.115   8.574   2.995  1.0570  0.5205  0.0208
   49MOL0     H 6419   5.169   8.683   3.264  2.3406  4.5987 -2.1410
   49MOL0     H 6420   5.314   8.640   3.176 -0.2415  0.6671 -0.8369
   49MOL0     H 6421   4.990   8.447   3.275 -0.2310  0.6785 -1.3709
   49MOL0     H 6422   5.019   8.096   3.183  3.6698  0.0857  0.6678
   49MOL0     H 6423   4.909   8.226   3.233 -0.6647  0.2582 -0.6387
   49MOL0     H 6424   4.911   8.065   3.407 -0.0212  0.6247  1.4404
   49MOL0     H 6425   4.986   8.219   3.465 -1.5389 -0.4962  0.1668
   49MOL0     H 6426   5.199   8.136   3.457  0.1960  0.2007  2.4514
   49MOL0     H 6427   5.087   8.038   3.556 -1.4904 -2.6223 -0.6953
   49MOL0     H 6428   5.219   7.858   3.428  1.7826  0.7758 -0.5536
   49MOL0     H 6429   5.204   7.946   3.294  2.1967 -1.1795 -0.2339
   49MOL0     H 6430   4.805   7.784   3.287  1.0578  1.2930 -0.8681
   49MOL0     H 6431   4.663   7.614   3.420  0.8111 -3.3805  1.1407
   49MOL0     H 6432   4.807   7.303   3.848 -0.6414 -0.8302  1.1711
   49MOL0     H 6433   4.701   7.124   3.993  1.8685  0.4016  0.0061
   49MOL0     H 6434   4.535   6.963   3.993  0.0291  1.7192 -0.3469
   49MOL0     H 6435   4.411   6.937   4.108  0.7416 -2.1076  0.1661
   49MOL0     H 6436   4.562   7.020   4.298  1.7523 -0.3359  1.1105
   49MOL0     H 6437   4.693   6.982   4.184 -1.0801  2.9587 -0.5118
   49MOL0     H 6438   4.545   6.757   4.151  0.8423 -0.9528  0.6644
   49MOL0     H 6439   4.471   6.797   4.306 -0.5361  0.2679  0.6707
   49MOL0     H 6440   4.779   6.794   4.308 -0.1930  1.8605  0.7432
   49MOL0     H 6441   4.658   6.794   4.441  2.5969  0.7532  0.6155
   49MOL0     H 6442   4.681   6.579   4.234  0.6265 -0.3314  0.1390
   49MOL0     H 6443   4.562   6.590   4.362  1.0236 -3.4737  1.0493
   49MOL0     H 6444   4.749   6.608   4.531 -2.2139 -2.3293  0.4340
   49MOL0     H 6445   4.873   6.592   4.400  0.7870 -1.1887  0.6837
   49MOL0     H 6446   4.725   6.362   4.354 -1.4080 -0.6938  0.1925
   49MOL0     H 6447   4.838   6.369   4.492 -1.2960 -0.7805  1.1553
   49MOL0     H 6448   4.603   6.285   4.545  3.4151 -0.2528  0.7890
   49MOL0     H 6449   4.536   6.442   4.520 -0.8365 -0.4835  1.9860
   49MOL0     H 6450   4.367   7.377   4.064  1.9250 -0.2373  1.2369
   49MOL0     H 6451   4.468   7.565   3.930 -0.6873 -0.1393  1.8064
   49MOL0     H 6452   4.958   7.616   3.724  1.0167  1.6037  1.5018
   49MOL0     H 6453   5.089   7.796   3.590 -1.6061  2.0362  1.9321
   49MOL0     H 6454   5.928   9.080   2.789 -3.1859 -0.3323 -3.4628
   49MOL0     H 6455   6.114   9.007   2.644 -1.0317 -0.1566 -1.5582
   49MOL0     H 6456   6.496   8.467   2.653 -0.8560  1.2590  0.7382
   49MOL0     H 6457   6.643   8.411   2.469  0.6654 -0.4249 -0.8261
   49MOL0     H 6458   6.803   8.726   2.292 -1.5714  2.1503 -2.5456
   49MOL0     H 6459   6.725   8.693   2.145  0.7613 -2.4230 -3.2219
   49MOL0     H 6460   6.904   8.521   2.071  3.7266 -1.5721  0.8571
   49MOL0     H 6461   6.970   8.681   2.116  1.3264 -1.5934 -0.5173
   49MOL0     H 6462   7.050   8.587   2.316 -3.3537  0.4219  0.9109
   49MOL0     H 6463   7.082   8.479   2.166  0.1428 -0.7980 -0.0225
   49MOL0     H 6464   6.892   8.423   2.396  0.6466 -1.7049  0.5874
   49MOL0     H 6465   6.909   8.321   2.250  1.2835 -0.0864 -2.4007
   49MOL0     H 6466   7.251   8.273   2.509  1.0250 -1.0440 -2.5367
   49MOL0     H 6467   6.546   8.758   2.257  0.7878 -0.5046 -1.1252
   49MOL0     H 6468   6.356   8.801   2.427  0.5840 -0.4559 -2.1673
   50MOL0     O 6469   3.516   6.688   2.200 -0.5267 -0.6569 -0.5038
   50MOL0     C 6470   3.508   6.804   2.153  0.8718 -0.6889 -0.9767
   50MOL0     O 6471   3.394   6.889   2.171 -0.2953  0.3890  0.5191
   50MOL0     C 6472   3.320   6.869   2.279  0.5399  0.2409  0.5713
   50MOL0     C 6473   3.370   6.840   2.406 -0.3131  0.5087 -0.1670
   50MOL0     C 6474   3.291   6.832   2.518 -0.8523  0.2223  0.3353
   50MOL0     C 6475   3.147   6.849   2.499  0.0719  0.4090 -0.4106
   50MOL0     O 6476   3.051   6.827   2.603  0.4277 -0.5507 -0.0967
   50MOL0     C 6477   3.096   6.857   2.740 -0.2675  0.5917  0.4714
   50MOL0     C 6478   2.975   6.859   2.833 -0.0148  0.1793  0.1242
   50MOL0     C 6479   2.903   6.723   2.825 -0.7288  0.3743  0.1457
   50MOL0     C 6480   2.792   6.705   2.932  0.4711  0.6355  0.4257
   50MOL0     C 6481   2.853   6.686   3.078 -0.4528 -1.0110 -0.3965
   50MOL0     C 6482   2.742   6.666   3.188 -0.9412 -0.2019  0.2625
   50MOL0     C 6483   2.661   6.537   3.160  0.2799  0.0227 -0.5709
   50MOL0     C 6484   2.568   6.507   3.278 -0.7913  0.4897 -0.6526
   50MOL0     N 6485   2.549   6.362   3.286  0.0020  0.2320 -0.8424
   50MOL0     C 6486   2.426   6.288   3.294 -0.2318 -0.6902 -0.2549
   50MOL0     C 6487   2.460   6.159   3.300  0.0124 -0.7100  0.6453
   50MOL0     C 6488   2.364   6.048   3.312 -0.0563  0.2675  1.2860
   50MOL0     C 6489   2.335   6.004   3.454 -0.0168 -0.3105  0.1180
   50MOL0     C 6490   2.268   6.107   3.546  0.2528  0.2051 -0.0873
   50MOL0     C 6491   2.265   6.058   3.697  0.1377 -0.4406  0.3370
   50MOL0     O 6492   2.204   5.933   3.709 -0.1298  0.3415  0.4351
   50MOL0     C 6493   2.066   5.902   3.690 -0.4012  0.4411 -0.1283
   50MOL0     C 6494   2.010   5.773   3.706 -0.1541 -0.5242  0.8327
   50MOL0     C 6495   1.879   5.749   3.701 -0.4333 -0.2858 -0.1013
   50MOL0     C 6496   1.786   5.850   3.675  0.4654  0.3976  0.1426
   50MOL0     C 6497   1.641   5.817   3.678  0.2165  0.4746  0.5843
   50MOL0     O 6498   1.569   5.927   3.675 -0.1775  0.2071  0.3425
   50MOL0     C 6499   1.437   5.922   3.703 -0.3748  0.7349  0.6683
   50MOL0     C 6500   1.382   5.926   3.835  0.3123 -0.3071 -0.2272
   50MOL0     C 6501   1.245   5.937   3.847  0.7953  0.1699 -0.8800
   50MOL0     C 6502   1.152   5.938   3.733  0.3986 -0.1985 -0.1359
   50MOL0     O 6503   1.017   5.955   3.744 -0.0216  0.3569 -0.6281
   50MOL0     C 6504   0.970   6.029   3.868  0.2520  0.1853  0.7045
   50MOL0     C 6505   0.823   5.990   3.878  0.6776 -0.9225  0.4216
   50MOL0     C 6506   0.808   5.843   3.933 -0.9432 -0.4268 -0.9536
   50MOL0     C 6507   0.662   5.788   3.905 -1.2143 -0.4163 -1.3959
   50MOL0     C 6508   0.568   5.871   4.002 -0.3386 -0.3481  1.1241
   50MOL0     C 6509   0.421   5.837   3.973 -0.6217 -0.4023 -0.3292
   50MOL0     C 6510   0.316   5.944   4.030 -0.5619  0.0834 -0.4911
   50MOL0     C 6511   0.299   5.930   4.184  0.7269 -0.2320  0.4942
   50MOL0    Cl 6512   0.133   5.987   4.223 -0.0842  0.0443 -0.4212
   50MOL0     C 6513   1.212   5.943   3.607 -0.3373 -0.1737 -0.3616
   50MOL0     C 6514   1.349   5.943   3.597 -0.4010 -0.3099  0.4015
   50MOL0     O 6515   1.603   5.700   3.682  0.2774 -0.5245  0.0907
   50MOL0     C 6516   1.831   5.981   3.655  0.4384 -1.3248  0.4462
   50MOL0     C 6517   1.965   6.007   3.671 -0.8637  0.0934 -1.0102
   50MOL0     N 6518   2.603   6.151   3.317 -0.3967 -0.7865 -0.0097
   50MOL0     N 6519   2.657   6.273   3.313  1.2819  0.1108 -0.6675
   50MOL0     C 6520   3.096   6.876   2.373  0.5359  0.4671  0.0104
   50MOL0     C 6521   3.182   6.896   2.272  0.4154  0.3034  0.5047
   50MOL0     C 6522   3.618   6.850   2.078  0.7201  0.2762 -0.1005
   50MOL0     C 6523   3.606   6.976   2.021  0.2490 -0.8077 -0.2599
   50MOL0     C 6524   3.714   7.047   1.964  0.2381 -0.7774  0.3037
   50MOL0     C 6525   3.830   6.972   1.936  0.1718 -0.2655 -0.1372
   50MOL0     O 6526   3.927   7.032   1.858  0.1292 -0.1134  0.2208
   50MOL0     C 6527   4.029   6.950   1.807 -0.6715 -0.7025  0.3226
   50MOL0     C 6528   4.122   7.022   1.708 -0.4458  0.3727  1.1041
   50MOL0     C 6529   4.238   6.934   1.657 -0.8196  0.2174  0.3485
   50MOL0     C 6530   4.365   6.948   1.745  0.2626 -0.3480  0.2744
   50MOL0     C 6531   4.428   7.084   1.719 -0.6593  0.2739 -0.0980
   50MOL0     C 6532   4.471   7.195   1.684 -0.5101 -0.3905 -0.1154
   50MOL0     C 6533   3.849   6.847   1.987  0.4127  0.7029  0.3892
   50MOL0     C 6534   3.744   6.787   2.058  0.3786 -0.6046 -0.0134
   50MOL0     H 6535   3.475   6.822   2.427 -1.2796 -0.4537  5.3623
   50MOL0     H 6536   3.333   6.790   2.610 -2.7706 -0.8705  0.7561
   50MOL0     H 6537   3.137   6.958   2.748  0.2310  0.2986  1.8406
   50MOL0     H 6538   3.163   6.780   2.778 -2.4981 -0.8549  1.7068
   50MOL0     H 6539   2.901   6.933   2.802  0.5061  1.0606  0.9542
   50MOL0     H 6540   3.014   6.866   2.935  0.0247  0.7843  0.0699
   50MOL0     H 6541   2.969   6.636   2.828 -0.5006  0.5733  1.6389
   50MOL0     H 6542   2.851   6.727   2.728 -0.2417  0.9510 -0.0961
   50MOL0     H 6543   2.733   6.797   2.930  2.3044  1.9507  2.5049
   50MOL0     H 6544   2.735   6.617   2.899 -2.0371  1.4501  2.3083
   50MOL0     H 6545   2.911   6.772   3.114 -1.0300 -1.7079  2.3910
   50MOL0     H 6546   2.928   6.607   3.066  0.4489 -0.3171  0.4837
   50MOL0     H 6547   2.674   6.752   3.193 -3.2783 -1.9622  0.7326
   50MOL0     H 6548   2.789   6.646   3.284 -1.6014  1.4126  0.9547
   50MOL0     H 6549   2.599   6.551   3.072 -1.4964 -0.6200  0.5285
   50MOL0     H 6550   2.727   6.455   3.131  0.9192  0.2944  0.0606
   50MOL0     H 6551   2.471   6.558   3.277  0.4989  3.1633  0.3959
   50MOL0     H 6552   2.609   6.528   3.377 -0.6907 -0.2106 -0.5357
   50MOL0     H 6553   2.319   6.307   3.288  0.1955  2.2772 -0.0858
   50MOL0     H 6554   2.400   5.964   3.253  0.0182 -0.2380  2.0390
   50MOL0     H 6555   2.272   6.090   3.272  1.1899  0.8735 -1.1359
   50MOL0     H 6556   2.424   5.964   3.504 -0.6656 -1.0427  0.7170
   50MOL0     H 6557   2.273   5.915   3.439 -0.2339  0.2496 -3.2842
   50MOL0     H 6558   2.328   6.198   3.540  4.0629 -2.0893 -0.2346
   50MOL0     H 6559   2.168   6.129   3.506 -0.2201 -0.3245  0.7548
   50MOL0     H 6560   2.214   6.131   3.760  3.1991  3.7289 -1.4931
   50MOL0     H 6561   2.369   6.048   3.731 -0.7077 -1.4044  2.8435
   50MOL0     H 6562   2.080   5.693   3.730  1.3457 -0.1112 -1.8306
   50MOL0     H 6563   1.838   5.655   3.736  0.9708 -0.7070  0.4882
   50MOL0     H 6564   1.445   5.905   3.921 -0.5176  2.9617  1.3168
   50MOL0     H 6565   1.210   5.940   3.949  0.0784 -1.0355 -1.0743
   50MOL0     H 6566   0.980   6.136   3.851  0.8910  0.0260  0.0344
   50MOL0     H 6567   1.023   6.010   3.962  0.1242 -0.3217  0.6752
   50MOL0     H 6568   0.783   6.004   3.777 -1.1095  0.1726  1.2445
   50MOL0     H 6569   0.775   6.061   3.945 -1.1149  0.3604 -2.0389
   50MOL0     H 6570   0.835   5.832   4.038 -2.7737  0.6050 -0.3508
   50MOL0     H 6571   0.884   5.782   3.882  1.0459 -0.1009  1.4547
   50MOL0     H 6572   0.642   5.797   3.798  2.7919 -0.5564 -2.2887
   50MOL0     H 6573   0.667   5.681   3.927  0.3312  0.0430  0.7725
   50MOL0     H 6574   0.579   5.979   3.996  0.0422 -0.4360 -3.3752
   50MOL0     H 6575   0.600   5.832   4.099 -0.1448  0.3960  1.3619
   50MOL0     H 6576   0.388   5.740   4.012 -0.7959  0.2928  1.3391
   50MOL0     H 6577   0.412   5.822   3.865  0.2227  0.3040 -0.5131
   50MOL0     H 6578   0.357   6.044   4.014 -2.0198  0.5918 -1.2225
   50MOL0     H 6579   0.224   5.935   3.971 -0.3726 -1.3861 -0.5916
   50MOL0     H 6580   0.376   5.984   4.239 -0.3469 -0.6536  2.5115
   50MOL0     H 6581   0.303   5.825   4.216  0.1252 -0.7666 -1.1156
   50MOL0     H 6582   1.155   5.949   3.515 -1.1975  2.6284  0.2588
   50MOL0     H 6583   1.398   5.955   3.501 -1.8634 -1.3803 -0.5212
   50MOL0     H 6584   1.769   6.068   3.641  2.0471 -0.4776 -2.4216
   50MOL0     H 6585   2.000   6.109   3.657 -3.9216  1.4108  0.0826
   50MOL0     H 6586   2.993   6.899   2.350  0.6530  0.9628 -0.0171
   50MOL0     H 6587   3.138   6.912   2.174 -1.6052 -2.3158  0.8832
   50MOL0     H 6588   3.514   7.033   2.028 -0.1527 -1.6355  1.7644
   50MOL0     H 6589   3.705   7.150   1.932  0.2926 -1.4287 -1.9492
   50MOL0     H 6590   3.985   6.860   1.763 -3.0851  2.0956 -3.5908
   50MOL0     H 6591   4.094   6.914   1.888  0.3128 -3.7050 -1.6280
   50MOL0     H 6592   4.048   7.047   1.631  0.6291  0.5999  0.1208
   50MOL0     H 6593   4.158   7.111   1.760 -2.1300  1.2572  0.8219
   50MOL0     H 6594   4.260   6.964   1.554 -4.1003  0.3148 -0.4415
   50MOL0     H 6595   4.199   6.833   1.645 -5.2458  1.5029  2.0909
   50MOL0     H 6596   4.347   6.941   1.853 -0.0430 -2.3464  0.1185
   50MOL0     H 6597   4.433   6.867   1.717  1.3220 -0.0315  1.7563
   50MOL0     H 6598   4.516   7.283   1.642 -0.9308 -1.7012 -3.6966
   50MOL0     H 6599   3.942   6.791   1.979  1.9076  3.0979 -0.2008
   50MOL0     H 6600   3.758   6.684   2.091  3.0227  0.1461  1.4944
   51MOL0     O 6601   1.080  10.382   3.672 -0.1582 -0.0770 -0.0869
   51MOL0     C 6602   1.166  10.378   3.595 -0.2518 -0.2800  0.5312
   51MOL0     O 6603   1.159  10.404   3.460  0.6993 -0.0773 -0.2834
   51MOL0     C 6604   1.044  10.414   3.397 -0.5734  0.5484  0.2587
   51MOL0     C 6605   1.046  10.357   3.270  0.7268 -0.1829  0.8809
   51MOL0     C 6606   0.919  10.359   3.197 -0.6083  0.0540  0.1167
   51MOL0     C 6607   0.811  10.430   3.245  1.1158 -1.4362  0.4950
   51MOL0     O 6608   0.701  10.457   3.176 -0.0832  0.6741 -0.3334
   51MOL0     C 6609   0.667  10.373   3.063 -0.3895 -0.5922  0.3579
   51MOL0     C 6610   0.518  10.400   3.034 -0.4053 -0.5274  0.6703
   51MOL0     C 6611   0.452  10.325   2.925  0.2140  0.4824 -0.3064
   51MOL0     C 6612   0.451  10.176   2.968 -0.2652  0.5968 -0.1062
   51MOL0     C 6613   0.389  10.127   3.103 -0.1495  0.3901  0.2473
   51MOL0     C 6614   0.230  10.152   3.122  0.3639  0.0026 -0.3539
   51MOL0     C 6615   0.180  10.104   3.259  0.6140  0.2030  0.4210
   51MOL0     C 6616   0.057  10.182   3.303  0.2239  0.0785  0.5089
   51MOL0     N 6617  -0.065  10.165   3.213 -0.2758  0.9113 -0.3476
   51MOL0     C 6618  -0.143  10.278   3.180  0.4507  0.6070  0.3417
   51MOL0     C 6619  -0.236  10.213   3.100 -0.6461 -0.9108  0.5509
   51MOL0     C 6620  -0.343  10.278   3.026 -0.1781  0.0915 -0.1271
   51MOL0     C 6621  -0.457  10.330   3.104  0.0092 -0.3223 -0.4852
   51MOL0     C 6622  -0.573  10.333   3.013  1.2403 -0.4249  0.3093
   51MOL0     C 6623  -0.697  10.410   3.067 -0.0227  0.5751 -0.4235
   51MOL0     O 6624  -0.785  10.431   2.946 -0.5068 -0.1381 -0.7547
   51MOL0     C 6625  -0.918  10.457   2.972  0.5224  0.4981 -0.9173
   51MOL0     C 6626  -1.010  10.451   2.873  0.2493 -0.7576 -0.4481
   51MOL0     C 6627  -1.143  10.498   2.895 -0.2970  0.2671  0.4105
   51MOL0     C 6628  -1.196  10.530   3.022 -0.9775 -0.0917 -0.2589
   51MOL0     C 6629  -1.336  10.532   3.055  1.0188 -0.6622 -0.3551
   51MOL0     O 6630  -1.428  10.467   2.984 -0.4226  0.3590 -0.2134
   51MOL0     C 6631  -1.560  10.483   3.024 -0.2300  0.2388 -0.7764
   51MOL0     C 6632  -1.634  10.582   2.983  0.0583  0.2754 -0.0805
   51MOL0     C 6633  -1.769  10.596   3.026  0.6136  0.3612  0.7803
   51MOL0     C 6634  -1.827  10.485   3.098  0.6829 -0.1527 -0.6985
   51MOL0     O 6635  -1.953  10.491   3.157  0.0469  0.6781 -0.5393
   51MOL0     C 6636  -2.057  10.583   3.110  0.3833 -0.1198  0.1837
   51MOL0     C 6637  -2.181  10.514   3.154 -0.1875  0.2035  0.2935
   51MOL0     C 6638  -2.194  10.380   3.071  0.1112  0.5712 -0.3682
   51MOL0     C 6639  -2.345  10.339   3.055  0.7038 -0.0721 -0.4351
   51MOL0     C 6640  -2.362  10.238   2.938 -0.3099 -0.4295  1.2366
   51MOL0     C 6641  -2.507  10.217   2.906  0.5330 -0.5096 -1.2914
   51MOL0     C 6642  -2.500  10.101   2.813 -0.3077 -0.6855 -0.5884
   51MOL0     C 6643  -2.629  10.091   2.740  0.6174  0.1977 -0.1926
   51MOL0    Cl 6644  -2.759  10.078   2.862  0.3599 -0.1334 -0.1593
   51MOL0     C 6645  -1.759  10.369   3.122 -0.7353 -0.1590  1.5953
   51MOL0     C 6646  -1.618  10.373   3.088  0.5800  0.1207 -1.1935
   51MOL0     O 6647  -1.362  10.596   3.159  0.2871 -0.8201 -0.8061
   51MOL0     C 6648  -1.094  10.539   3.124  0.1953  0.0232  0.0112
   51MOL0     C 6649  -0.963  10.520   3.091 -0.5577  0.8989 -0.4515
   51MOL0     N 6650  -0.219  10.080   3.108 -0.8571  0.4602  0.2718
   51MOL0     N 6651  -0.109  10.043   3.173 -0.1254 -0.6208  1.1296
   51MOL0     C 6652   0.814  10.487   3.373 -0.1258  0.7543 -0.2613
   51MOL0     C 6653   0.931  10.481   3.441 -0.3757  0.0026 -0.6202
   51MOL0     C 6654   1.293  10.340   3.663 -0.3582 -0.6710 -0.2399
   51MOL0     C 6655   1.399  10.301   3.579 -1.1462  0.0857  0.0955
   51MOL0     C 6656   1.528  10.279   3.636  0.8606  0.0520 -0.0382
   51MOL0     C 6657   1.549  10.280   3.772  0.3765  0.5106 -0.1278
   51MOL0     O 6658   1.662  10.239   3.840 -0.4294 -0.0008  0.0403
   51MOL0     C 6659   1.768  10.171   3.769 -0.3227 -0.7288  0.1677
   51MOL0     C 6660   1.733  10.032   3.717 -0.2206 -0.4232  0.3089
   51MOL0     C 6661   1.711   9.935   3.840  0.1885 -0.3342 -0.2935
   51MOL0     C 6662   1.646   9.807   3.794 -0.0872  0.4040  0.3463
   51MOL0     C 6663   1.733   9.743   3.694  0.4357 -0.1465  1.0425
   51MOL0     C 6664   1.811   9.699   3.614 -0.7282 -0.0895 -0.2594
   51MOL0     C 6665   1.440  10.322   3.849  0.4880  0.1563 -0.5396
   51MOL0     C 6666   1.317  10.355   3.797 -1.0114  0.4571  0.2606
   51MOL0     H 6667   1.135  10.300   3.245  0.2955  0.2961 -2.1180
   51MOL0     H 6668   0.915  10.298   3.108 -3.9026  0.3397 -0.0531
   51MOL0     H 6669   0.687  10.268   3.086 -3.8616 -1.5127 -0.2754
   51MOL0     H 6670   0.726  10.415   2.981 -0.1112  0.1920  0.9389
   51MOL0     H 6671   0.517  10.504   2.999 -0.5536 -1.3536 -1.9847
   51MOL0     H 6672   0.466  10.391   3.129  2.0969 -2.9043  1.9336
   51MOL0     H 6673   0.521  10.341   2.841 -1.0330  1.4475 -1.1862
   51MOL0     H 6674   0.359  10.377   2.901  0.7749  2.7638  1.9912
   51MOL0     H 6675   0.394  10.128   2.888  1.5327 -1.9663  0.0396
   51MOL0     H 6676   0.553  10.143   2.950 -0.5574 -1.4621  1.5894
   51MOL0     H 6677   0.442  10.175   3.185 -0.6303 -2.9263  2.7146
   51MOL0     H 6678   0.416  10.022   3.114  0.1011  0.4999  0.6707
   51MOL0     H 6679   0.186  10.099   3.037 -1.2067  0.5290  0.0974
   51MOL0     H 6680   0.216  10.260   3.131 -0.9983 -0.1005 -0.9000
   51MOL0     H 6681   0.151  10.000   3.242  0.3251 -0.1283  2.6821
   51MOL0     H 6682   0.255  10.105   3.338  1.6633 -0.0123 -0.5376
   51MOL0     H 6683   0.070  10.289   3.318  1.4768  0.1864 -1.0468
   51MOL0     H 6684   0.028  10.136   3.398 -0.7897 -0.1469  0.0978
   51MOL0     H 6685  -0.139  10.383   3.206 -0.5229  0.7839 -0.1907
   51MOL0     H 6686  -0.368  10.194   2.961  2.0841  0.0769 -1.0528
   51MOL0     H 6687  -0.300  10.359   2.967 -2.5523  0.7009 -1.1400
   51MOL0     H 6688  -0.438  10.435   3.130 -2.5502  0.5939 -1.9676
   51MOL0     H 6689  -0.485  10.277   3.196 -0.0344  3.0790  1.6763
   51MOL0     H 6690  -0.538  10.378   2.919  0.2357 -5.0561 -2.5703
   51MOL0     H 6691  -0.604  10.230   2.998  4.7048 -1.6409  0.5503
   51MOL0     H 6692  -0.675  10.504   3.119  0.2412 -1.0453  2.6531
   51MOL0     H 6693  -0.737  10.331   3.131  1.1042 -2.3613 -3.0691
   51MOL0     H 6694  -0.968  10.441   2.773  1.5607  0.6620 -0.0927
   51MOL0     H 6695  -1.211  10.519   2.813 -1.4383  2.5276  1.8324
   51MOL0     H 6696  -1.589  10.665   2.929  1.9398 -0.2430  0.6116
   51MOL0     H 6697  -1.828  10.686   3.013 -0.2920  0.1702  3.1866
   51MOL0     H 6698  -2.068  10.586   3.001 -0.4073 -4.9000 -0.1134
   51MOL0     H 6699  -2.044  10.684   3.150  5.3389 -0.0298 -1.0233
   51MOL0     H 6700  -2.253  10.592   3.129  0.7416  1.2078  0.7044
   51MOL0     H 6701  -2.187  10.490   3.261 -0.6290 -0.8855  0.0436
   51MOL0     H 6702  -2.128  10.307   3.118  0.6447 -0.4133 -2.5414
   51MOL0     H 6703  -2.156  10.385   2.969  0.1522 -1.3571 -0.4853
   51MOL0     H 6704  -2.381  10.291   3.146  2.7386 -0.1899  0.3653
   51MOL0     H 6705  -2.400  10.432   3.036  2.1804  0.3803 -2.9105
   51MOL0     H 6706  -2.312  10.142   2.951  2.5424  0.1120 -3.3775
   51MOL0     H 6707  -2.312  10.284   2.852 -3.6079  0.1960 -0.4982
   51MOL0     H 6708  -2.574  10.298   2.878 -0.0962  0.3881  2.2531
   51MOL0     H 6709  -2.542  10.172   2.999  0.4108 -1.1754 -1.6563
   51MOL0     H 6710  -2.413  10.109   2.747  0.6850 -0.2376  0.7416
   51MOL0     H 6711  -2.477  10.002   2.852 -0.3588 -0.8815 -1.0430
   51MOL0     H 6712  -2.626  10.012   2.665  1.8710 -0.1561  0.1972
   51MOL0     H 6713  -2.653  10.186   2.693  0.7259  1.3416  1.9286
   51MOL0     H 6714  -1.827  10.290   3.151 -2.5987  1.1075  0.8295
   51MOL0     H 6715  -1.553  10.288   3.105  2.0648  1.1783 -1.3232
   51MOL0     H 6716  -1.103  10.551   3.232 -0.8657 -1.0080  0.0603
   51MOL0     H 6717  -0.884  10.538   3.163  0.4472  1.2184 -1.6033
   51MOL0     H 6718   0.729  10.533   3.422 -2.4078 -1.7761 -1.6045
   51MOL0     H 6719   0.933  10.532   3.537  1.7822 -1.0817 -0.0336
   51MOL0     H 6720   1.387  10.293   3.472  0.1491  2.4185 -0.2895
   51MOL0     H 6721   1.603  10.233   3.571 -0.1730 -2.6091  0.5086
   51MOL0     H 6722   1.851  10.169   3.840  0.1090 -0.6476 -0.3356
   51MOL0     H 6723   1.805  10.229   3.685  4.9042 -1.9668  1.2257
   51MOL0     H 6724   1.653  10.037   3.643 -1.0795 -0.9865  1.1793
   51MOL0     H 6725   1.823  10.001   3.663 -0.8794 -2.6630  0.4007
   51MOL0     H 6726   1.658   9.989   3.920  2.8451  0.3724  1.1009
   51MOL0     H 6727   1.804   9.912   3.892 -0.3617  1.3734  1.6156
   51MOL0     H 6728   1.624   9.739   3.876  1.3176 -1.4446 -0.7343
   51MOL0     H 6729   1.548   9.829   3.751  1.0401  0.4156 -2.4395
   51MOL0     H 6730   1.876   9.659   3.540 -0.2021 -3.3306  1.7459
   51MOL0     H 6731   1.457  10.318   3.956  0.2499  1.8618 -0.4091
   51MOL0     H 6732   1.241  10.392   3.865  0.2617 -0.3501  2.1968
   52MOL0     O 6733   4.592   2.358   6.654  0.1776 -0.4475 -0.4429
   52MOL0     C 6734   4.652   2.357   6.540 -0.9969  0.8728 -0.5839
   52MOL0     O 6735   4.591   2.347   6.423 -0.3170  0.3874  0.0984
   52MOL0     C 6736   4.457   2.329   6.415  1.0902  0.1220 -0.3263
   52MOL0     C 6737   4.372   2.438   6.434 -0.2854  0.7189  0.1506
   52MOL0     C 6738   4.238   2.424   6.408  0.0776 -0.4378  0.0729
   52MOL0     C 6739   4.184   2.306   6.362 -0.5119 -0.2774 -0.0290
   52MOL0     O 6740   4.045   2.307   6.333 -0.8329 -0.1020 -0.8937
   52MOL0     C 6741   3.984   2.191   6.281  0.2449  0.0835 -0.4843
   52MOL0     C 6742   3.956   2.077   6.385  0.0394 -0.5242 -0.6502
   52MOL0     C 6743   3.843   2.115   6.488  0.3335 -0.0737  0.1224
   52MOL0     C 6744   3.827   2.009   6.602 -0.1851 -0.5707 -0.1333
   52MOL0     C 6745   3.735   1.885   6.564  0.0762  0.0490  0.0892
   52MOL0     C 6746   3.589   1.914   6.587  0.5571  0.3446  0.3599
   52MOL0     C 6747   3.495   1.811   6.528 -0.2373  0.3419  0.5263
   52MOL0     C 6748   3.353   1.803   6.595  0.2435  0.0469  0.1067
   52MOL0     N 6749   3.358   1.722   6.721 -0.0725 -0.7751 -0.0624
   52MOL0     C 6750   3.335   1.587   6.723  0.2461  0.4254 -0.9109
   52MOL0     C 6751   3.341   1.552   6.850  0.8513 -0.6167 -0.3600
   52MOL0     C 6752   3.307   1.419   6.902 -0.3499 -0.4729 -0.1238
   52MOL0     C 6753   3.151   1.412   6.923 -0.1290 -0.1584  0.3206
   52MOL0     C 6754   3.093   1.275   6.910  0.6252 -0.3502 -1.1938
   52MOL0     C 6755   2.942   1.284   6.931  0.0830 -0.0453 -0.3260
   52MOL0     O 6756   2.886   1.174   7.004  0.3851 -0.2220  0.0488
   52MOL0     C 6757   2.749   1.170   6.993 -0.6380  0.3471  0.0865
   52MOL0     C 6758   2.668   1.280   6.974 -0.1000 -0.2438 -0.2506
   52MOL0     C 6759   2.530   1.265   6.971  1.0822  0.7846  0.1668
   52MOL0     C 6760   2.467   1.140   6.991 -0.0196 -0.1602  0.2804
   52MOL0     C 6761   2.319   1.132   6.993  0.0404 -0.0760 -0.0846
   52MOL0     O 6762   2.263   1.013   7.016  0.1745  0.3081  1.1213
   52MOL0     C 6763   2.132   1.000   7.052  0.7460 -0.2825 -0.1653
   52MOL0     C 6764   2.024   1.001   6.958 -0.5190  0.3390 -0.3982
   52MOL0     C 6765   1.892   0.986   7.003  0.3992  0.1839 -0.9615
   52MOL0     C 6766   1.869   0.963   7.143 -0.0534  1.1067 -0.0999
   52MOL0     O 6767   1.735   0.973   7.200 -1.4199 -0.3648 -0.0103
   52MOL0     C 6768   1.636   0.888   7.147 -0.2905  0.2949  0.1846
   52MOL0     C 6769   1.597   0.791   7.264 -0.5211 -0.3728 -0.0342
   52MOL0     C 6770   1.555   0.657   7.206  0.4142  0.8077 -0.0626
   52MOL0     C 6771   1.505   0.573   7.322  0.0519 -0.9011 -0.4305
   52MOL0     C 6772   1.449   0.443   7.262  1.0615 -0.4548 -0.7014
   52MOL0     C 6773   1.434   0.344   7.382  0.0418  0.0519 -0.2215
   52MOL0     C 6774   1.384   0.202   7.344 -0.1400 -0.1286 -0.0350
   52MOL0     C 6775   1.326   0.130   7.474 -0.1168  0.1941  0.6851
   52MOL0    Cl 6776   1.171   0.196   7.540  0.2241 -0.3264  0.1712
   52MOL0     C 6777   1.977   0.955   7.236 -0.3326 -0.5729 -0.2973
   52MOL0     C 6778   2.104   0.969   7.186  0.0930  0.5332  0.7096
   52MOL0     O 6779   2.259   1.239   6.997  0.6431  0.5442  0.5176
   52MOL0     C 6780   2.548   1.028   7.009  0.1694  0.4059 -0.8927
   52MOL0     C 6781   2.686   1.046   7.008 -0.7478 -0.2652 -0.2719
   52MOL0     N 6782   3.365   1.659   6.926  0.1648  0.0954 -0.6931
   52MOL0     N 6783   3.381   1.767   6.855  0.6121  0.0246  0.2522
   52MOL0     C 6784   4.264   2.194   6.347 -0.3245  0.8012 -0.4860
   52MOL0     C 6785   4.401   2.212   6.365 -0.6740 -1.4447  0.9523
   52MOL0     C 6786   4.795   2.396   6.535  0.9997  0.5427  0.1024
   52MOL0     C 6787   4.872   2.420   6.649  0.3807 -0.2525  0.4245
   52MOL0     C 6788   5.006   2.470   6.634 -0.5471  0.5615  0.2914
   52MOL0     C 6789   5.075   2.473   6.507 -0.4855 -0.2104 -0.2164
   52MOL0     O 6790   5.201   2.512   6.488  0.2596 -0.8484  0.0224
   52MOL0     C 6791   5.283   2.532   6.602 -0.1562  1.0471 -0.4629
   52MOL0     C 6792   5.426   2.555   6.551 -0.0095 -0.0064 -0.0220
   52MOL0     C 6793   5.493   2.423   6.520 -0.0704  0.0494  0.1036
   52MOL0     C 6794   5.645   2.441   6.485 -0.5092 -0.1274 -0.0097
   52MOL0     C 6795   5.707   2.310   6.458  0.4823  0.5993  0.0455
   52MOL0     C 6796   5.740   2.194   6.443  0.7588 -0.3167  0.2679
   52MOL0     C 6797   5.001   2.443   6.391  0.6095  0.4290 -0.3145
   52MOL0     C 6798   4.859   2.405   6.404 -0.0703 -0.4278  0.0567
   52MOL0     H 6799   4.418   2.528   6.475  0.5147 -0.9244  3.1526
   52MOL0     H 6800   4.168   2.504   6.432  0.9235 -0.2170  1.9985
   52MOL0     H 6801   4.047   2.164   6.195 -0.0522  2.9788 -1.7320
   52MOL0     H 6802   3.889   2.226   6.239 -0.0670  0.6889  0.6956
   52MOL0     H 6803   4.054   2.059   6.430 -0.4110  2.0520  1.5942
   52MOL0     H 6804   3.926   1.987   6.331 -3.9463 -0.9008  1.8231
   52MOL0     H 6805   3.748   2.127   6.434  1.4600 -4.0106 -3.2834
   52MOL0     H 6806   3.867   2.205   6.546  0.3381 -3.3778  6.0246
   52MOL0     H 6807   3.928   1.979   6.631  0.6994  1.5987 -0.7512
   52MOL0     H 6808   3.757   2.055   6.672 -0.7717  1.5429 -2.0015
   52MOL0     H 6809   3.758   1.794   6.620  2.2459 -0.3239 -1.2752
   52MOL0     H 6810   3.745   1.860   6.458 -1.6638 -0.0774 -0.0736
   52MOL0     H 6811   3.574   2.008   6.534  1.0821 -0.2488 -0.8950
   52MOL0     H 6812   3.574   1.929   6.694  0.4310  0.8508  0.2724
   52MOL0     H 6813   3.476   1.837   6.424  2.5866 -1.6457 -0.6004
   52MOL0     H 6814   3.541   1.712   6.529  1.2801  1.0020 -0.4753
   52MOL0     H 6815   3.280   1.755   6.528 -0.3432  1.5702 -0.3970
   52MOL0     H 6816   3.312   1.903   6.611 -0.9085  0.1348 -2.6554
   52MOL0     H 6817   3.305   1.518   6.645  0.5071  0.3670 -0.9628
   52MOL0     H 6818   3.375   1.400   6.985  0.7120 -0.9787 -1.0941
   52MOL0     H 6819   3.335   1.346   6.826  1.5986  0.1708 -0.0724
   52MOL0     H 6820   3.103   1.475   6.847  1.2237  0.6272  0.0744
   52MOL0     H 6821   3.136   1.454   7.022  0.1950  0.8409 -0.0429
   52MOL0     H 6822   3.117   1.234   6.811 -2.0065 -1.6840 -1.3516
   52MOL0     H 6823   3.128   1.205   6.986  0.7062  0.4259 -0.5110
   52MOL0     H 6824   2.896   1.300   6.833  2.5875  2.6276 -1.2021
   52MOL0     H 6825   2.932   1.379   6.983  0.0787  0.6341 -1.5318
   52MOL0     H 6826   2.709   1.380   6.967  0.8852 -0.7439 -2.3120
   52MOL0     H 6827   2.465   1.351   6.955  0.6042  0.3513 -0.2508
   52MOL0     H 6828   2.040   1.007   6.851  2.6367  0.6782  0.0042
   52MOL0     H 6829   1.817   0.992   6.924  0.0550  1.0883 -0.5721
   52MOL0     H 6830   1.668   0.830   7.060  0.3481 -1.2207  1.3863
   52MOL0     H 6831   1.548   0.943   7.113 -0.8402 -2.9762 -4.7776
   52MOL0     H 6832   1.514   0.831   7.323  0.7234 -0.4632  1.8541
   52MOL0     H 6833   1.686   0.766   7.322  1.1865 -2.0920 -3.1639
   52MOL0     H 6834   1.641   0.603   7.165  2.5590  2.8007  1.5236
   52MOL0     H 6835   1.474   0.660   7.133  1.0804 -2.7686 -1.1706
   52MOL0     H 6836   1.595   0.549   7.380 -0.9274 -2.3704  0.5732
   52MOL0     H 6837   1.430   0.614   7.390  1.0523 -1.3172  0.9668
   52MOL0     H 6838   1.521   0.396   7.194  0.9378  0.5249 -1.5249
   52MOL0     H 6839   1.348   0.456   7.222  0.6175 -3.1206 -0.6678
   52MOL0     H 6840   1.354   0.388   7.442 -3.7840 -1.8491 -3.3840
   52MOL0     H 6841   1.525   0.332   7.441 -1.2568 -2.8165  1.4407
   52MOL0     H 6842   1.310   0.195   7.264 -0.3049  1.5797 -0.0717
   52MOL0     H 6843   1.473   0.154   7.304  1.5097  0.2137  2.9320
   52MOL0     H 6844   1.394   0.140   7.559 -0.0720  0.0364  0.6670
   52MOL0     H 6845   1.309   0.026   7.444 -0.2215  0.8369 -1.7014
   52MOL0     H 6846   1.966   0.928   7.341  1.0150 -0.9699 -0.2356
   52MOL0     H 6847   2.188   0.958   7.255  1.1204 -2.7184 -0.8493
   52MOL0     H 6848   2.499   0.932   7.022  1.5131 -0.2039 -0.0691
   52MOL0     H 6849   2.754   0.967   7.038  0.0740 -0.5504 -2.7145
   52MOL0     H 6850   4.245   2.093   6.312  0.6185 -0.4452  2.2473
   52MOL0     H 6851   4.458   2.121   6.350 -0.8312 -1.8584  2.6250
   52MOL0     H 6852   4.841   2.396   6.751  1.8039  0.0569  0.9570
   52MOL0     H 6853   5.074   2.488   6.716  0.2999  0.6299 -0.4139
   52MOL0     H 6854   5.291   2.453   6.678  3.7171 -0.4454 -2.1596
   52MOL0     H 6855   5.247   2.620   6.656 -0.6755 -1.4914  3.7916
   52MOL0     H 6856   5.430   2.612   6.457 -2.3770 -1.3750 -1.0594
   52MOL0     H 6857   5.485   2.606   6.627 -0.6919  1.7572 -0.6217
   52MOL0     H 6858   5.445   2.372   6.436  2.9090 -0.2218 -1.5734
   52MOL0     H 6859   5.486   2.360   6.609 -1.8263  2.4767  1.8016
   52MOL0     H 6860   5.643   2.495   6.390  1.9244 -0.6417 -0.4048
   52MOL0     H 6861   5.693   2.498   6.565 -3.4944  3.3523 -0.4479
   52MOL0     H 6862   5.777   2.093   6.446 -0.1195 -0.6863 -0.7397
   52MOL0     H 6863   5.063   2.467   6.305  0.9824 -0.2034 -0.2356
   52MOL0     H 6864   4.809   2.379   6.311  1.8730 -1.9385 -0.6385
   53MOL0     O 6865   0.513   8.833   8.693  0.3165 -0.3611 -0.3801
   53MOL0     C 6866   0.595   8.852   8.600 -0.4579 -0.0279  0.1276
   53MOL0     O 6867   0.564   8.854   8.465 -0.4288  0.2318 -0.2195
   53MOL0     C 6868   0.456   8.785   8.413 -0.3427 -0.7396 -0.0816
   53MOL0     C 6869   0.371   8.698   8.481  0.1110  0.2108  0.0247
   53MOL0     C 6870   0.264   8.642   8.415  0.6122 -0.8380  0.5342
   53MOL0     C 6871   0.239   8.663   8.280 -0.8266  0.8000 -0.4274
   53MOL0     O 6872   0.141   8.593   8.212 -0.7598 -0.1370  0.0903
   53MOL0     C 6873   0.147   8.574   8.070 -0.0470  0.2240  1.1523
   53MOL0     C 6874   0.104   8.701   7.991  0.8905 -0.5821  0.2832
   53MOL0     C 6875  -0.028   8.667   7.923 -0.2177  0.1771 -0.7060
   53MOL0     C 6876  -0.078   8.778   7.832 -0.2122 -0.3035  0.1894
   53MOL0     C 6877  -0.222   8.736   7.781  0.2880 -0.9733 -0.0006
   53MOL0     C 6878  -0.262   8.787   7.645  0.8947 -1.1943  1.0925
   53MOL0     C 6879  -0.169   8.763   7.520  0.3886 -0.1724 -0.3009
   53MOL0     C 6880  -0.222   8.660   7.413  0.3587 -0.8245 -1.0691
   53MOL0     N 6881  -0.328   8.723   7.334  0.0616  0.0606  0.0446
   53MOL0     C 6882  -0.308   8.843   7.273 -1.0597  1.0467 -0.7519
   53MOL0     C 6883  -0.432   8.892   7.255  0.7687 -0.2370 -0.3812
   53MOL0     C 6884  -0.453   9.033   7.209 -0.3661  0.4188 -0.3709
   53MOL0     C 6885  -0.547   9.042   7.079 -0.3994 -0.1810 -1.1984
   53MOL0     C 6886  -0.598   9.186   7.056  0.1725 -0.1838  0.2856
   53MOL0     C 6887  -0.680   9.241   7.165 -0.3563 -0.0682 -0.3838
   53MOL0     O 6888  -0.742   9.359   7.104  0.2752  0.2773 -0.2044
   53MOL0     C 6889  -0.875   9.379   7.120  0.2206 -0.2595 -0.3319
   53MOL0     C 6890  -0.918   9.503   7.161 -0.1660  0.6134  0.9528
   53MOL0     C 6891  -1.062   9.529   7.176  0.2830 -0.7978  1.2850
   53MOL0     C 6892  -1.154   9.425   7.139 -0.1480  0.1022 -0.0240
   53MOL0     C 6893  -1.299   9.430   7.158 -0.4701 -0.1016  0.0387
   53MOL0     O 6894  -1.372   9.322   7.112  0.5863  0.3659 -0.1810
   53MOL0     C 6895  -1.512   9.327   7.088  0.5620 -0.0688 -0.2515
   53MOL0     C 6896  -1.608   9.249   7.155 -0.7512  0.8811 -0.6775
   53MOL0     C 6897  -1.734   9.246   7.098 -0.4695  0.1045 -0.4478
   53MOL0     C 6898  -1.778   9.341   7.009  0.0782 -0.1861 -0.4512
   53MOL0     O 6899  -1.903   9.368   6.957 -0.2200  0.2671 -0.2273
   53MOL0     C 6900  -1.982   9.260   6.963  0.2418  0.3443 -0.2708
   53MOL0     C 6901  -2.113   9.272   6.877 -0.3222  0.0666  1.1284
   53MOL0     C 6902  -2.075   9.323   6.741 -0.3191 -1.5914  1.2302
   53MOL0     C 6903  -2.183   9.327   6.626  0.1595  0.3818  0.3627
   53MOL0     C 6904  -2.135   9.338   6.480 -0.2850  0.2709 -0.5869
   53MOL0     C 6905  -2.078   9.465   6.442  0.2275  0.8515  0.4365
   53MOL0     C 6906  -2.175   9.587   6.462  0.3890 -0.2744  0.3841
   53MOL0     C 6907  -2.111   9.727   6.419 -0.5146  0.0799 -0.3983
   53MOL0    Cl 6908  -2.236   9.846   6.469  0.1159 -0.0202  0.1505
   53MOL0     C 6909  -1.689   9.440   6.959 -0.4054  0.4692  0.1076
   53MOL0     C 6910  -1.562   9.429   6.999  1.0925  0.5042 -0.6304
   53MOL0     O 6911  -1.335   9.538   7.189  0.1029 -0.1216 -0.8294
   53MOL0     C 6912  -1.099   9.303   7.087 -0.0648 -0.4194 -0.2847
   53MOL0     C 6913  -0.963   9.282   7.080 -0.9680  1.5808 -0.3882
   53MOL0     N 6914  -0.533   8.813   7.299  0.4067  0.0129  0.0139
   53MOL0     N 6915  -0.467   8.711   7.345  0.2957 -0.0483 -0.4228
   53MOL0     C 6916   0.334   8.740   8.208  0.2450  0.3237  0.7970
   53MOL0     C 6917   0.441   8.809   8.273  0.8730 -0.1574  0.3997
   53MOL0     C 6918   0.734   8.834   8.633  0.3293 -0.2594 -0.1263
   53MOL0     C 6919   0.775   8.774   8.756  0.0149  0.4559 -0.0577
   53MOL0     C 6920   0.906   8.752   8.792  0.6986 -0.3303  0.2052
   53MOL0     C 6921   1.006   8.777   8.689  0.2967 -0.5304 -0.0854
   53MOL0     O 6922   1.148   8.756   8.697  0.0332  0.3576 -0.1189
   53MOL0     C 6923   1.219   8.764   8.826 -0.2058 -0.0586  0.7449
   53MOL0     C 6924   1.273   8.910   8.827  0.3108 -0.9356 -1.0252
   53MOL0     C 6925   1.368   8.923   8.946 -0.0099 -0.4217  0.4604
   53MOL0     C 6926   1.447   9.055   8.970 -0.1510 -0.3812  0.9394
   53MOL0     C 6927   1.511   9.102   8.843 -0.5081 -0.5564  0.0020
   53MOL0     C 6928   1.569   9.153   8.749  0.3743  0.9156 -0.6559
   53MOL0     C 6929   0.975   8.852   8.573 -0.1994 -0.5043 -0.5402
   53MOL0     C 6930   0.837   8.861   8.537 -0.3913 -0.2244 -0.7263
   53MOL0     H 6931   0.370   8.674   8.587  0.3276 -1.2008 -0.2662
   53MOL0     H 6932   0.185   8.590   8.468 -0.1449 -0.3921 -0.1274
   53MOL0     H 6933   0.074   8.496   8.046  1.3546 -0.9173  0.4018
   53MOL0     H 6934   0.246   8.536   8.042  0.3352  2.7584 -1.4775
   53MOL0     H 6935   0.170   8.734   7.910  0.5455 -0.6916 -0.0474
   53MOL0     H 6936   0.077   8.779   8.062 -0.6101  1.9355 -2.8025
   53MOL0     H 6937  -0.104   8.663   8.001  1.0088  2.3253  0.6917
   53MOL0     H 6938  -0.022   8.576   7.862  0.7598  1.0434 -1.9730
   53MOL0     H 6939  -0.079   8.880   7.872  0.4752 -0.0883 -0.3083
   53MOL0     H 6940  -0.013   8.787   7.744 -0.6952  2.3187  0.0272
   53MOL0     H 6941  -0.298   8.773   7.852  0.7106  4.1244 -1.7708
   53MOL0     H 6942  -0.244   8.629   7.781 -1.6161 -0.7021 -2.8716
   53MOL0     H 6943  -0.260   8.896   7.653  3.4220 -1.0903 -0.0836
   53MOL0     H 6944  -0.367   8.767   7.621 -0.0492  2.6779  1.2732
   53MOL0     H 6945  -0.129   8.855   7.477  2.2014  1.5830  4.4973
   53MOL0     H 6946  -0.085   8.707   7.563 -1.6691 -1.7750  1.8986
   53MOL0     H 6947  -0.265   8.574   7.465 -0.5329  0.3421  0.2009
   53MOL0     H 6948  -0.145   8.631   7.341  0.2125 -1.4775 -0.9709
   53MOL0     H 6949  -0.210   8.888   7.258 -0.8246  0.5203 -0.8224
   53MOL0     H 6950  -0.356   9.081   7.190  0.0200 -0.1631  0.0815
   53MOL0     H 6951  -0.498   9.082   7.296  0.0575 -1.7065  1.1233
   53MOL0     H 6952  -0.627   8.973   7.106  0.7041 -0.0556  2.9700
   53MOL0     H 6953  -0.494   9.014   6.987  0.0115 -0.5957 -0.8411
   53MOL0     H 6954  -0.517   9.258   7.042  0.3284  0.5923  4.2771
   53MOL0     H 6955  -0.662   9.190   6.967  2.4547  0.8211 -1.4469
   53MOL0     H 6956  -0.612   9.268   7.247 -0.0460 -3.8995  0.8105
   53MOL0     H 6957  -0.753   9.163   7.188 -0.1306  0.0139  0.6842
   53MOL0     H 6958  -0.845   9.578   7.188  2.3649 -0.1710 -2.9397
   53MOL0     H 6959  -1.099   9.623   7.216 -2.0394 -1.3746  0.6724
   53MOL0     H 6960  -1.563   9.191   7.235 -1.3955  0.8245 -0.3568
   53MOL0     H 6961  -1.792   9.162   7.133  0.2339  0.8846  2.9336
   53MOL0     H 6962  -2.018   9.241   7.064  1.6280 -0.9128  0.0160
   53MOL0     H 6963  -1.939   9.169   6.920 -4.1559 -2.6186  0.9372
   53MOL0     H 6964  -2.182   9.335   6.933  0.8469  2.2611  0.2181
   53MOL0     H 6965  -2.161   9.176   6.855  0.3800  0.2869 -1.8198
   53MOL0     H 6966  -1.992   9.275   6.690 -1.2034 -1.2101 -0.6724
   53MOL0     H 6967  -2.050   9.429   6.747 -0.0714 -1.7108  2.9306
   53MOL0     H 6968  -2.218   9.224   6.636 -0.6170  0.4837 -1.1092
   53MOL0     H 6969  -2.258   9.402   6.652 -1.6569 -0.4677 -2.0870
   53MOL0     H 6970  -2.220   9.310   6.418  0.2166 -0.8257 -0.8039
   53MOL0     H 6971  -2.064   9.255   6.467  0.0323  0.1247  1.7043
   53MOL0     H 6972  -2.055   9.438   6.339 -1.9187 -2.4607  0.6322
   53MOL0     H 6973  -1.983   9.481   6.493  0.7402  0.3954 -0.3617
   53MOL0     H 6974  -2.260   9.563   6.397  1.4653  0.1186 -1.2163
   53MOL0     H 6975  -2.197   9.593   6.569  0.7280 -1.2173  0.5198
   53MOL0     H 6976  -2.097   9.726   6.311 -1.8491 -1.2722 -0.5996
   53MOL0     H 6977  -2.014   9.759   6.459 -0.7886  0.8738 -0.3581
   53MOL0     H 6978  -1.725   9.521   6.897  0.2626  0.7998  0.1550
   53MOL0     H 6979  -1.486   9.504   6.976  1.0644  1.0410  0.9280
   53MOL0     H 6980  -1.157   9.215   7.062  1.9734 -2.0825  0.5403
   53MOL0     H 6981  -0.919   9.188   7.048 -0.5956  1.6562 -0.1019
   53MOL0     H 6982   0.317   8.771   8.105  2.6356 -0.2556  0.1620
   53MOL0     H 6983   0.510   8.869   8.213 -0.2591  0.6142 -0.1811
   53MOL0     H 6984   0.703   8.723   8.819  1.2927  1.4126  2.3053
   53MOL0     H 6985   0.926   8.705   8.888  1.9557  1.8003  1.0622
   53MOL0     H 6986   1.299   8.691   8.833 -0.5450 -0.5128 -0.0129
   53MOL0     H 6987   1.145   8.743   8.903  0.7932  1.7813  2.2828
   53MOL0     H 6988   1.325   8.927   8.732  1.1053  0.2598 -0.4058
   53MOL0     H 6989   1.185   8.973   8.839  0.3357 -1.1502  0.4346
   53MOL0     H 6990   1.445   8.851   8.918  0.7871 -0.3597  2.3093
   53MOL0     H 6991   1.328   8.876   9.037 -3.7387  2.5247  0.6337
   53MOL0     H 6992   1.387   9.142   9.000  0.2280  0.6867 -1.1669
   53MOL0     H 6993   1.527   9.029   9.040  0.1171 -2.2594 -0.0024
   53MOL0     H 6994   1.626   9.210   8.679 -0.9467 -1.5222 -3.9798
   53MOL0     H 6995   1.060   8.883   8.514 -1.3505 -0.9484 -2.5632
   53MOL0     H 6996   0.817   8.913   8.444 -2.5045  2.1565  0.9054
   54MOL0     O 6997   0.580   8.656   6.220  0.0998 -0.4428  0.6132
   54MOL0     C 6998   0.501   8.601   6.297  0.7435  0.2811 -0.1870
   54MOL0     O 6999   0.367   8.604   6.291 -0.0011  0.9578 -0.1159
   54MOL0     C 7000   0.310   8.662   6.178 -0.3993 -0.9014  0.4331
   54MOL0     C 7001   0.171   8.648   6.166 -0.0039 -0.3254  0.4691
   54MOL0     C 7002   0.092   8.667   6.054  0.3589 -0.3039  0.3115
   54MOL0     C 7003   0.156   8.726   5.944 -0.1245 -0.1259  0.0581
   54MOL0     O 7004   0.076   8.738   5.830 -0.7691  0.1108 -0.0562
   54MOL0     C 7005   0.132   8.801   5.720 -0.4624 -0.8660 -0.5555
   54MOL0     C 7006   0.019   8.812   5.613  0.1864  0.0695 -1.0587
   54MOL0     C 7007  -0.108   8.897   5.648 -0.5470 -0.2724 -0.4079
   54MOL0     C 7008  -0.201   8.903   5.526  0.0906  0.2707 -0.1681
   54MOL0     C 7009  -0.268   8.769   5.488 -0.2744 -0.3155  0.7606
   54MOL0     C 7010  -0.387   8.726   5.582  0.6938  0.3831 -0.0946
   54MOL0     C 7011  -0.357   8.596   5.646  0.4436 -0.1904 -0.3035
   54MOL0     C 7012  -0.455   8.553   5.758 -0.5183  0.8013 -0.4595
   54MOL0     N 7013  -0.426   8.629   5.882 -0.3698  0.0726  0.2096
   54MOL0     C 7014  -0.299   8.652   5.938  0.4015  0.0950 -0.4408
   54MOL0     C 7015  -0.316   8.761   6.015  0.4596 -0.4834  0.3785
   54MOL0     C 7016  -0.221   8.830   6.106  0.4132 -0.1975 -0.9875
   54MOL0     C 7017  -0.202   8.754   6.236  0.3402  0.0841  0.3125
   54MOL0     C 7018  -0.333   8.750   6.321  0.1267  0.6480  0.3132
   54MOL0     C 7019  -0.301   8.690   6.448 -1.3606 -0.0814 -0.3617
   54MOL0     O 7020  -0.305   8.549   6.430 -0.0347  0.2041  0.2803
   54MOL0     C 7021  -0.229   8.478   6.512 -0.0661 -0.7018  0.8666
   54MOL0     C 7022  -0.276   8.381   6.593 -0.3168  1.0038  0.2418
   54MOL0     C 7023  -0.191   8.296   6.662  1.3496 -0.4692  0.8004
   54MOL0     C 7024  -0.048   8.318   6.648  0.0272 -0.6995 -0.4042
   54MOL0     C 7025   0.047   8.240   6.730  0.5646 -0.1198  0.1344
   54MOL0     O 7026   0.175   8.259   6.711 -0.1272  0.6380 -0.2111
   54MOL0     C 7027   0.263   8.161   6.750 -0.3061 -0.2955  0.6380
   54MOL0     C 7028   0.318   8.158   6.874 -0.7224 -0.5604  0.3347
   54MOL0     C 7029   0.420   8.073   6.909 -0.4828  0.0306  0.4741
   54MOL0     C 7030   0.475   7.977   6.816 -0.5617 -0.5315 -0.5675
   54MOL0     O 7031   0.581   7.904   6.858  0.9739  0.0803  0.5617
   54MOL0     C 7032   0.663   7.840   6.754 -0.5649 -0.3863 -0.2688
   54MOL0     C 7033   0.804   7.795   6.797 -0.2457  0.6746 -0.8927
   54MOL0     C 7034   0.876   7.745   6.670 -0.2491 -0.7314 -0.1177
   54MOL0     C 7035   1.010   7.684   6.694 -0.6569  0.7191 -0.0750
   54MOL0     C 7036   1.056   7.605   6.576 -0.0934  0.1254  0.1344
   54MOL0     C 7037   1.185   7.516   6.607 -0.3989  0.5562 -0.0849
   54MOL0     C 7038   1.202   7.419   6.484 -1.1225  0.8918  0.7633
   54MOL0     C 7039   1.300   7.302   6.523 -0.4132 -0.8322 -0.7924
   54MOL0    Cl 7040   1.464   7.367   6.496  0.3284 -0.1981  0.4040
   54MOL0     C 7041   0.413   7.973   6.689 -0.7153 -0.8658 -0.8410
   54MOL0     C 7042   0.313   8.065   6.655 -0.6394 -0.5161 -0.2092
   54MOL0     O 7043   0.001   8.149   6.797 -0.5041  0.2102 -0.4766
   54MOL0     C 7044  -0.000   8.420   6.567 -0.0076 -0.3147 -0.1135
   54MOL0     C 7045  -0.092   8.493   6.496 -0.3347  0.2164  1.1262
   54MOL0     N 7046  -0.443   8.803   6.012 -0.3875  0.5780 -0.2256
   54MOL0     N 7047  -0.510   8.724   5.935  0.7343 -0.3831 -0.0864
   54MOL0     C 7048   0.287   8.770   5.956 -0.2120 -0.8725  0.2696
   54MOL0     C 7049   0.362   8.735   6.069 -0.2137 -1.5075 -0.3994
   54MOL0     C 7050   0.555   8.517   6.411 -0.3248  0.2950 -0.7874
   54MOL0     C 7051   0.689   8.528   6.467  0.0105 -0.7205 -0.6013
   54MOL0     C 7052   0.722   8.464   6.580 -0.8081 -0.3859 -1.0502
   54MOL0     C 7053   0.638   8.368   6.642  0.3549  0.0009  1.1585
   54MOL0     O 7054   0.679   8.291   6.744  0.3195 -0.5603 -0.1126
   54MOL0     C 7055   0.712   8.357   6.867 -0.3190  0.5946  0.3332
   54MOL0     C 7056   0.763   8.266   6.975 -0.1193  0.3678 -0.3343
   54MOL0     C 7057   0.881   8.177   6.930  1.2207 -0.0342  0.5875
   54MOL0     C 7058   0.973   8.136   7.051 -1.0666 -0.3915  0.2160
   54MOL0     C 7059   0.936   8.004   7.108  0.2178 -0.2218 -0.0690
   54MOL0     C 7060   0.897   7.902   7.152  0.2366 -0.4403  0.9443
   54MOL0     C 7061   0.512   8.338   6.585 -0.2980 -0.4883  0.6628
   54MOL0     C 7062   0.467   8.416   6.477 -0.6477  0.2238  0.1712
   54MOL0     H 7063   0.124   8.607   6.255 -1.1273 -0.7984 -0.3326
   54MOL0     H 7064  -0.015   8.650   6.054  0.3492 -0.3255  1.6383
   54MOL0     H 7065   0.223   8.764   5.672  0.8110  4.3494 -2.8282
   54MOL0     H 7066   0.157   8.904   5.746  2.7034 -1.7631  0.3846
   54MOL0     H 7067  -0.010   8.709   5.593  0.5943 -0.4491  0.7757
   54MOL0     H 7068   0.070   8.848   5.523  2.0391  1.2128  0.3623
   54MOL0     H 7069  -0.070   8.996   5.672  0.9416 -0.9160 -0.0082
   54MOL0     H 7070  -0.156   8.867   5.741 -0.0835  3.1777  1.0851
   54MOL0     H 7071  -0.282   8.972   5.552 -0.3267 -0.8999  1.8742
   54MOL0     H 7072  -0.143   8.947   5.445 -1.4954  1.1021 -0.9131
   54MOL0     H 7073  -0.185   8.698   5.487  0.6111  0.6786  0.7336
   54MOL0     H 7074  -0.302   8.756   5.385 -0.9965 -0.6044  1.0332
   54MOL0     H 7075  -0.477   8.713   5.522 -1.1121 -0.0328  2.5353
   54MOL0     H 7076  -0.408   8.799   5.661  1.4601 -0.8288  1.2670
   54MOL0     H 7077  -0.362   8.517   5.570  1.0839  1.0632 -1.6857
   54MOL0     H 7078  -0.254   8.595   5.682 -0.4467 -1.9845  2.5575
   54MOL0     H 7079  -0.443   8.448   5.787 -2.2549  0.5393 -0.5934
   54MOL0     H 7080  -0.562   8.571   5.742 -1.1633  0.2019  2.6202
   54MOL0     H 7081  -0.210   8.592   5.923  0.3545  0.1462 -0.9402
   54MOL0     H 7082  -0.267   8.924   6.135  0.0589 -0.9255  0.9825
   54MOL0     H 7083  -0.121   8.844   6.062  2.3509 -1.3661  2.6242
   54MOL0     H 7084  -0.134   8.803   6.307 -0.3512 -0.5949  1.4888
   54MOL0     H 7085  -0.163   8.654   6.218  2.8379  0.3935  3.2195
   54MOL0     H 7086  -0.360   8.854   6.339  0.9659  0.9563 -0.1362
   54MOL0     H 7087  -0.411   8.691   6.273 -0.7536  0.6505  1.6774
   54MOL0     H 7088  -0.367   8.725   6.528  1.2003  0.4871  1.6581
   54MOL0     H 7089  -0.204   8.729   6.482 -0.1467 -1.5780 -1.9131
   54MOL0     H 7090  -0.382   8.387   6.620  0.3705  0.3067  3.6236
   54MOL0     H 7091  -0.229   8.207   6.710 -0.9032 -0.6770 -1.1988
   54MOL0     H 7092   0.281   8.229   6.946 -3.3848  1.0289 -2.3636
   54MOL0     H 7093   0.456   8.083   7.011 -1.8342  0.1369  0.9611
   54MOL0     H 7094   0.678   7.918   6.678  0.1728  1.0854  1.3077
   54MOL0     H 7095   0.609   7.753   6.716 -0.4696 -1.0415  1.0267
   54MOL0     H 7096   0.809   7.722   6.878 -0.8917 -2.5233 -3.5269
   54MOL0     H 7097   0.847   7.893   6.823 -0.0808  0.2046  0.7191
   54MOL0     H 7098   0.879   7.830   6.601  4.9522 -0.3119  0.2235
   54MOL0     H 7099   0.818   7.667   6.621  1.3089 -1.5987 -0.6559
   54MOL0     H 7100   1.080   7.767   6.708 -0.9421  0.8530  0.5732
   54MOL0     H 7101   1.006   7.626   6.787 -1.7867  0.3498 -0.3460
   54MOL0     H 7102   1.070   7.681   6.498 -0.2814 -1.9141 -1.9754
   54MOL0     H 7103   0.986   7.529   6.540  0.9280 -0.4469 -0.6920
   54MOL0     H 7104   1.178   7.459   6.700  2.3605  0.9703  0.4625
   54MOL0     H 7105   1.273   7.581   6.615  1.6959 -1.7795 -2.4792
   54MOL0     H 7106   1.108   7.376   6.449  0.7989 -1.4306 -2.0159
   54MOL0     H 7107   1.247   7.472   6.400  3.0940 -0.5319  1.8909
   54MOL0     H 7108   1.292   7.219   6.452  1.1347  0.1780 -2.2075
   54MOL0     H 7109   1.276   7.254   6.619 -1.4960  1.9481  0.4682
   54MOL0     H 7110   0.454   7.906   6.614  1.5071  0.6626 -1.0827
   54MOL0     H 7111   0.280   8.083   6.553  2.3540  2.2257 -0.8773
   54MOL0     H 7112   0.108   8.424   6.558 -0.0123  3.5828  0.0518
   54MOL0     H 7113  -0.047   8.559   6.423  2.3014 -1.4915  1.0414
   54MOL0     H 7114   0.325   8.826   5.871  0.2617 -0.4669  0.7367
   54MOL0     H 7115   0.468   8.756   6.057 -0.9082  2.9805 -0.5860
   54MOL0     H 7116   0.762   8.598   6.427 -0.1796 -1.3005 -2.0417
   54MOL0     H 7117   0.817   8.479   6.629 -1.5327  4.1774 -0.5957
   54MOL0     H 7118   0.627   8.417   6.898  1.3725  2.8078  0.9599
   54MOL0     H 7119   0.791   8.430   6.844  0.7578 -1.0657 -1.6041
   54MOL0     H 7120   0.785   8.326   7.064  1.1895 -0.2903 -0.1970
   54MOL0     H 7121   0.683   8.194   6.994 -0.1041 -1.5872 -5.8580
   54MOL0     H 7122   0.935   8.238   6.856  0.4801  0.4604  0.4516
   54MOL0     H 7123   0.848   8.099   6.860  1.0730  1.5041 -1.1284
   54MOL0     H 7124   1.076   8.131   7.016 -0.5078 -1.4343  1.8828
   54MOL0     H 7125   0.975   8.212   7.130  1.7048  0.0297 -0.1572
   54MOL0     H 7126   0.859   7.808   7.188 -4.1704 -0.6125 -3.0903
   54MOL0     H 7127   0.474   8.247   6.631  1.4654 -0.7334  1.7629
   54MOL0     H 7128   0.370   8.391   6.437 -0.1663 -3.3463  0.8906
   55MOL0     O 7129   2.097   3.650   2.447  0.9273  0.1789  0.0573
   55MOL0     C 7130   2.099   3.540   2.509 -1.1121  0.4356  0.0817
   55MOL0     O 7131   2.004   3.481   2.577  0.0429 -0.5539 -0.1703
   55MOL0     C 7132   1.867   3.523   2.573 -0.8322 -0.5615  0.1947
   55MOL0     C 7133   1.802   3.460   2.673  0.0924 -0.6738 -0.6042
   55MOL0     C 7134   1.672   3.498   2.702  0.1680 -0.3227 -0.4633
   55MOL0     C 7135   1.600   3.581   2.617  0.5107  0.5825 -0.7135
   55MOL0     O 7136   1.476   3.625   2.664 -0.3751  0.5243 -0.8870
   55MOL0     C 7137   1.405   3.717   2.577 -0.3427 -0.2041  0.6550
   55MOL0     C 7138   1.270   3.744   2.646  0.2902 -0.1079  0.1757
   55MOL0     C 7139   1.192   3.617   2.670  0.9807  0.7918  1.2379
   55MOL0     C 7140   1.069   3.644   2.743 -0.3533  0.4927  0.5925
   55MOL0     C 7141   0.950   3.692   2.656 -0.1310  0.3287  1.0212
   55MOL0     C 7142   0.820   3.707   2.735  1.2726 -0.3014  0.7687
   55MOL0     C 7143   0.707   3.731   2.630  0.4996 -0.4318  0.1166
   55MOL0     C 7144   0.570   3.773   2.683  0.6270  0.3524  0.0055
   55MOL0     N 7145   0.505   3.695   2.791 -0.3398  0.3277 -0.5489
   55MOL0     C 7146   0.531   3.561   2.803 -0.0866  1.4159 -0.5132
   55MOL0     C 7147   0.459   3.519   2.910  0.3595 -0.9353  0.0974
   55MOL0     C 7148   0.433   3.386   2.976 -0.3897  0.5378 -0.4155
   55MOL0     C 7149   0.561   3.321   3.043  0.0481  0.3501 -0.6553
   55MOL0     C 7150   0.540   3.165   3.061  0.2882 -0.1028 -0.2953
   55MOL0     C 7151   0.651   3.119   3.154 -0.7953  0.8811 -0.2169
   55MOL0     O 7152   0.678   2.983   3.121 -0.9299  0.4493 -0.2065
   55MOL0     C 7153   0.774   2.954   3.023  0.1071  0.1666  0.0396
   55MOL0     C 7154   0.736   2.901   2.902 -0.3086 -0.2564  1.2281
   55MOL0     C 7155   0.833   2.861   2.807  0.1961 -1.3666 -0.1201
   55MOL0     C 7156   0.970   2.887   2.835 -0.1439  0.7041 -0.3075
   55MOL0     C 7157   1.068   2.815   2.746 -0.1914 -0.1560  0.0563
   55MOL0     O 7158   1.023   2.738   2.650 -0.4744 -0.0726  0.0030
   55MOL0     C 7159   1.097   2.678   2.548 -0.7683 -0.6583 -0.1958
   55MOL0     C 7160   1.048   2.558   2.493 -0.6397 -0.2184  0.0458
   55MOL0     C 7161   1.114   2.504   2.380 -0.6151 -0.2369  0.3878
   55MOL0     C 7162   1.228   2.557   2.324  1.3692 -0.5474 -0.6548
   55MOL0     O 7163   1.290   2.494   2.224 -0.6446  0.2193  0.3218
   55MOL0     C 7164   1.411   2.539   2.175  0.5247  0.4937 -0.0181
   55MOL0     C 7165   1.466   2.445   2.073 -0.1333 -0.4559 -0.2957
   55MOL0     C 7166   1.568   2.520   1.994 -0.3906  1.0875  0.8339
   55MOL0     C 7167   1.602   2.458   1.860 -0.1422  0.6545  0.5443
   55MOL0     C 7168   1.690   2.548   1.776 -0.3774  0.5892  0.4259
   55MOL0     C 7169   1.709   2.479   1.638  0.7988  0.1084 -0.1157
   55MOL0     C 7170   1.812   2.550   1.552 -0.3181 -0.9556 -0.0661
   55MOL0     C 7171   1.775   2.693   1.516  0.0907 -0.2381 -0.2643
   55MOL0    Cl 7172   1.908   2.755   1.424  0.7725 -0.0976 -0.0559
   55MOL0     C 7173   1.279   2.666   2.391  0.4343  0.3452  0.1826
   55MOL0     C 7174   1.222   2.724   2.508  0.2481  0.3766  0.6717
   55MOL0     O 7175   1.187   2.816   2.780 -0.3041 -0.2699  0.1715
   55MOL0     C 7176   1.006   2.955   2.948  0.4382 -0.0380 -0.4347
   55MOL0     C 7177   0.906   2.988   3.042 -0.1762  0.0423  0.2735
   55MOL0     N 7178   0.380   3.627   2.950  0.3231  0.3390  0.1404
   55MOL0     N 7179   0.408   3.729   2.885 -0.0945  0.5512  0.0556
   55MOL0     C 7180   1.664   3.636   2.510 -0.4661 -0.6320  1.3275
   55MOL0     C 7181   1.801   3.616   2.482  1.0279 -0.1468 -0.2263
   55MOL0     C 7182   2.228   3.472   2.507 -0.4056  0.0768  0.1020
   55MOL0     C 7183   2.326   3.511   2.409 -0.7464  0.0119  0.1314
   55MOL0     C 7184   2.456   3.459   2.408 -0.5317 -0.6396 -0.2383
   55MOL0     C 7185   2.488   3.358   2.503  0.0992  1.0460  0.4828
   55MOL0     O 7186   2.620   3.300   2.503 -0.5450 -0.3569  0.2752
   55MOL0     C 7187   2.650   3.168   2.553 -0.5675 -0.5131 -1.0683
   55MOL0     C 7188   2.580   3.067   2.471 -0.2296  0.2225  0.4771
   55MOL0     C 7189   2.591   3.092   2.324  0.3005  0.7606  1.3789
   55MOL0     C 7190   2.584   2.962   2.240 -0.6809  0.2382 -1.0157
   55MOL0     C 7191   2.461   2.885   2.258  0.2791 -0.3240  0.6586
   55MOL0     C 7192   2.348   2.828   2.270 -0.6520  0.4336  0.5085
   55MOL0     C 7193   2.393   3.310   2.591 -0.6371 -0.0148 -0.0577
   55MOL0     C 7194   2.266   3.366   2.600 -0.1784  0.0646  0.1445
   55MOL0     H 7195   1.843   3.389   2.744 -0.3371  0.7526  1.1246
   55MOL0     H 7196   1.617   3.471   2.791 -1.0454  3.3942  0.0964
   55MOL0     H 7197   1.379   3.680   2.477 -1.4954 -0.9093  1.1949
   55MOL0     H 7198   1.458   3.811   2.563  4.0928 -2.3569  1.3089
   55MOL0     H 7199   1.213   3.818   2.588  2.3586  0.0828 -1.7389
   55MOL0     H 7200   1.290   3.795   2.741  1.8391  2.2850 -1.3276
   55MOL0     H 7201   1.251   3.546   2.728 -0.4685 -1.6793 -0.1409
   55MOL0     H 7202   1.172   3.573   2.572  2.3969  2.0250  0.3546
   55MOL0     H 7203   1.044   3.561   2.810 -0.3696  0.9782  1.1991
   55MOL0     H 7204   1.091   3.716   2.822 -0.7211  0.2471  0.9242
   55MOL0     H 7205   0.928   3.621   2.576  2.9829  2.0546 -1.6531
   55MOL0     H 7206   0.975   3.786   2.604  2.0786 -1.1596 -0.7952
   55MOL0     H 7207   0.833   3.785   2.811  0.6842  0.5874 -0.0242
   55MOL0     H 7208   0.793   3.617   2.792 -0.9235 -1.5831 -2.0380
   55MOL0     H 7209   0.725   3.803   2.550 -2.7173 -0.9715 -1.2516
   55MOL0     H 7210   0.703   3.643   2.564  0.7829  1.4561 -2.5785
   55MOL0     H 7211   0.509   3.799   2.596  0.4301  2.2649  0.6637
   55MOL0     H 7212   0.582   3.868   2.736  0.7652  1.0082 -1.1652
   55MOL0     H 7213   0.587   3.499   2.733  1.6256  2.5926 -0.2639
   55MOL0     H 7214   0.391   3.318   2.901 -0.8678  3.0198 -2.5768
   55MOL0     H 7215   0.361   3.403   3.057  0.9199 -0.9350  1.1148
   55MOL0     H 7216   0.584   3.367   3.140 -2.1327 -0.2969  0.2111
   55MOL0     H 7217   0.650   3.335   2.980 -0.6292  4.0324 -1.0261
   55MOL0     H 7218   0.444   3.145   3.109 -0.7466 -0.3822 -2.3599
   55MOL0     H 7219   0.541   3.114   2.964 -1.9002  1.7531 -1.3833
   55MOL0     H 7220   0.639   3.139   3.261 -1.3170  2.0581 -0.4884
   55MOL0     H 7221   0.739   3.180   3.129  0.5854  0.4443  3.0002
   55MOL0     H 7222   0.630   2.893   2.879 -0.6517  1.6227  1.9984
   55MOL0     H 7223   0.801   2.805   2.719  0.9098 -0.3017 -1.0775
   55MOL0     H 7224   0.955   2.520   2.534 -1.9168  2.9716  0.3778
   55MOL0     H 7225   1.080   2.415   2.328  0.7956  1.3423 -3.6390
   55MOL0     H 7226   1.488   2.545   2.252  1.8581 -0.7641 -1.1796
   55MOL0     H 7227   1.385   2.639   2.139 -2.6141  0.3369  1.4247
   55MOL0     H 7228   1.386   2.400   2.013 -1.5532 -0.6680  1.6557
   55MOL0     H 7229   1.518   2.366   2.126 -3.7703 -0.6702  3.5083
   55MOL0     H 7230   1.659   2.533   2.053  0.2613 -1.7839  0.6087
   55MOL0     H 7231   1.527   2.621   1.991 -0.6178  1.0286  1.6301
   55MOL0     H 7232   1.662   2.369   1.884  0.6981  1.5678  2.0121
   55MOL0     H 7233   1.509   2.429   1.812 -0.8832 -0.3651  2.4618
   55MOL0     H 7234   1.788   2.562   1.823  1.4699  1.6559 -3.3596
   55MOL0     H 7235   1.644   2.647   1.771  1.5388  1.4679 -0.9373
   55MOL0     H 7236   1.615   2.486   1.582  0.8565  4.5882 -0.0089
   55MOL0     H 7237   1.742   2.377   1.659  4.9564  1.2618 -0.2270
   55MOL0     H 7238   1.909   2.544   1.604  0.5762 -0.7793 -1.6354
   55MOL0     H 7239   1.813   2.492   1.459 -1.7461  0.9397 -1.3326
   55MOL0     H 7240   1.758   2.743   1.612 -0.2845 -1.5023  0.3530
   55MOL0     H 7241   1.686   2.697   1.453  0.7548  3.9215 -1.2499
   55MOL0     H 7242   1.362   2.721   2.348 -0.3601  1.2100 -0.2913
   55MOL0     H 7243   1.268   2.815   2.545 -0.0895 -0.2331  2.7061
   55MOL0     H 7244   1.110   2.956   2.979  0.0428  2.5422  1.2106
   55MOL0     H 7245   0.940   3.039   3.132 -1.5344 -2.8332  2.5934
   55MOL0     H 7246   1.614   3.704   2.442 -0.6865  1.2691  3.2967
   55MOL0     H 7247   1.846   3.664   2.396 -2.1103 -0.7804 -2.3822
   55MOL0     H 7248   2.296   3.588   2.338  1.5818  1.1412  0.2767
   55MOL0     H 7249   2.526   3.503   2.339 -1.7738  1.7545 -0.0710
   55MOL0     H 7250   2.629   3.154   2.659  1.4214  0.9635 -0.4421
   55MOL0     H 7251   2.757   3.153   2.539 -0.2059  0.0104  0.8620
   55MOL0     H 7252   2.613   2.968   2.503 -0.1276  0.1655  0.1949
   55MOL0     H 7253   2.474   3.082   2.493 -0.0556  0.0163  1.5084
   55MOL0     H 7254   2.687   3.135   2.296 -1.4518  1.8889 -4.1034
   55MOL0     H 7255   2.519   3.166   2.286  1.2188  1.9190  1.8250
   55MOL0     H 7256   2.607   2.989   2.136 -1.8985  0.7140 -1.1833
   55MOL0     H 7257   2.674   2.904   2.261  1.2388  3.3832  0.0705
   55MOL0     H 7258   2.255   2.789   2.306 -0.0782 -0.4376  1.0935
   55MOL0     H 7259   2.415   3.248   2.677 -0.2977 -0.3550 -0.3827
   55MOL0     H 7260   2.213   3.336   2.689  0.0024  0.0155  0.2360
   56MOL0     O 7261   7.241   5.417   7.993  1.1630 -0.1931  0.0179
   56MOL0     C 7262   7.329   5.438   7.912  0.3658 -0.1074 -0.1824
   56MOL0     O 7263   7.318   5.499   7.785  0.6415 -0.1998 -0.9892
   56MOL0     C 7264   7.192   5.569   7.769 -0.2661 -0.0075 -0.1018
   56MOL0     C 7265   7.063   5.512   7.742  0.5722 -0.8009 -0.3543
   56MOL0     C 7266   6.951   5.587   7.736 -0.6856 -1.1649 -0.6015
   56MOL0     C 7267   6.948   5.727   7.733 -1.3657 -0.4335  0.0458
   56MOL0     O 7268   6.832   5.795   7.710 -0.2508  0.0968 -0.2064
   56MOL0     C 7269   6.812   5.905   7.799  0.6801  0.8814 -0.5447
   56MOL0     C 7270   6.717   6.015   7.749  0.6996 -0.4819  0.3586
   56MOL0     C 7271   6.693   6.139   7.853 -0.8131  0.6575  0.8443
   56MOL0     C 7272   6.641   6.262   7.781 -0.0517  0.7822  0.1652
   56MOL0     C 7273   6.487   6.268   7.780  0.9739 -0.0594  0.3399
   56MOL0     C 7274   6.427   6.413   7.773 -0.0765 -0.0609 -0.1497
   56MOL0     C 7275   6.357   6.447   7.639 -0.6257  0.0761  0.2828
   56MOL0     C 7276   6.308   6.591   7.635 -0.0912 -0.0818 -0.2235
   56MOL0     N 7277   6.169   6.618   7.587  0.4868  0.1493  0.3575
   56MOL0     C 7278   6.134   6.697   7.478 -0.5114 -0.0693 -0.2708
   56MOL0     C 7279   6.002   6.702   7.496 -0.4482  0.2857 -0.5845
   56MOL0     C 7280   5.907   6.789   7.417 -0.3920 -0.1031  0.3071
   56MOL0     C 7281   5.784   6.708   7.355  0.1042 -0.1428  0.0817
   56MOL0     C 7282   5.666   6.796   7.311  0.8328 -0.0082  0.0812
   56MOL0     C 7283   5.707   6.925   7.234 -0.0531  0.7905  0.3579
   56MOL0     O 7284   5.607   7.020   7.247  0.3425 -0.4707 -0.5614
   56MOL0     C 7285   5.483   6.998   7.185 -0.5590  0.8411  0.3588
   56MOL0     C 7286   5.476   6.932   7.064  0.6413 -0.0099  0.2483
   56MOL0     C 7287   5.346   6.890   7.017 -0.5667 -0.2007  0.7137
   56MOL0     C 7288   5.231   6.938   7.078  0.1478 -0.1371  0.2647
   56MOL0     C 7289   5.093   6.912   7.022 -0.4866  0.7046  0.5451
   56MOL0     O 7290   4.991   6.913   7.114 -0.3141 -0.4509  0.3361
   56MOL0     C 7291   4.856   6.930   7.072 -0.1610  0.4436 -0.3445
   56MOL0     C 7292   4.780   7.041   7.104  0.2280  0.3441  0.2678
   56MOL0     C 7293   4.648   7.040   7.084 -0.7078 -0.2607 -0.2823
   56MOL0     C 7294   4.569   6.942   7.034 -0.6561  0.3013  0.2807
   56MOL0     O 7295   4.431   6.936   7.028  0.5982 -0.4120 -0.6570
   56MOL0     C 7296   4.367   7.041   7.104  1.0467  0.0189 -0.3107
   56MOL0     C 7297   4.224   7.003   7.117  0.2793 -0.0190  0.5347
   56MOL0     C 7298   4.140   7.085   7.212  0.1727 -0.8078  0.1210
   56MOL0     C 7299   3.994   7.068   7.185 -0.1041 -0.4320 -0.0410
   56MOL0     C 7300   3.902   7.166   7.266  0.6003 -1.0787  0.2382
   56MOL0     C 7301   3.920   7.317   7.246 -0.0925  0.3139 -1.0215
   56MOL0     C 7302   3.806   7.409   7.292 -0.7023  0.1806 -0.0227
   56MOL0     C 7303   3.818   7.422   7.445 -0.2418 -0.7644 -0.2029
   56MOL0    Cl 7304   3.969   7.486   7.491  0.1608 -0.1956 -0.7357
   56MOL0     C 7305   4.646   6.834   6.985  0.4145  0.0181  0.5224
   56MOL0     C 7306   4.786   6.829   7.005  0.3600  0.1987  0.4695
   56MOL0     O 7307   5.075   6.889   6.906 -0.0828 -0.1435  0.1183
   56MOL0     C 7308   5.247   6.996   7.207 -0.1644 -0.5175 -0.2297
   56MOL0     C 7309   5.370   7.042   7.249  0.1658 -0.8272 -0.1831
   56MOL0     N 7310   5.967   6.633   7.606 -0.2478  0.0967 -0.6329
   56MOL0     N 7311   6.064   6.580   7.660  0.9537  0.7978  0.0405
   56MOL0     C 7312   7.080   5.782   7.752 -0.7438  0.3408  0.5105
   56MOL0     C 7313   7.196   5.707   7.772  0.5856 -0.6949  0.3662
   56MOL0     C 7314   7.461   5.413   7.972 -0.7347 -0.6985  0.0552
   56MOL0     C 7315   7.571   5.391   7.878 -0.2582 -0.4102  0.2021
   56MOL0     C 7316   7.703   5.358   7.927 -0.2794 -0.2996  0.5244
   56MOL0     C 7317   7.725   5.343   8.062  1.1108 -0.4986  0.3515
   56MOL0     O 7318   7.855   5.308   8.097  0.5269 -0.5569 -0.2789
   56MOL0     C 7319   7.895   5.297   8.233  0.5308  0.0135 -0.1399
   56MOL0     C 7320   7.921   5.423   8.307  0.6875  0.2350 -0.5570
   56MOL0     C 7321   8.001   5.400   8.431  1.1067 -0.0443  0.0846
   56MOL0     C 7322   7.987   5.517   8.522 -0.1469  0.7843 -0.3667
   56MOL0     C 7323   8.064   5.636   8.489  0.5068  0.2120  0.2745
   56MOL0     C 7324   8.127   5.735   8.455 -0.0790 -0.0209 -0.5021
   56MOL0     C 7325   7.614   5.366   8.153  0.4952  0.9011 -0.0611
   56MOL0     C 7326   7.487   5.405   8.110  0.1318 -0.9433 -0.1596
   56MOL0     H 7327   7.055   5.404   7.757 -1.6845 -0.8106 -1.2061
   56MOL0     H 7328   6.863   5.530   7.710  0.3023 -2.7750 -0.5843
   56MOL0     H 7329   6.905   5.963   7.808  1.1898 -0.0367  0.3548
   56MOL0     H 7330   6.765   5.862   7.888 -1.3022 -1.7966 -2.7234
   56MOL0     H 7331   6.621   5.973   7.717  0.4556  0.4214 -0.1573
   56MOL0     H 7332   6.771   6.054   7.662 -1.1676  1.1177 -0.1653
   56MOL0     H 7333   6.789   6.160   7.901  0.7590  2.2021 -2.6187
   56MOL0     H 7334   6.622   6.122   7.933 -0.8273  2.1920  1.1866
   56MOL0     H 7335   6.680   6.349   7.834 -2.1091  1.5544  0.4702
   56MOL0     H 7336   6.684   6.281   7.682 -0.5586 -1.0942 -0.4729
   56MOL0     H 7337   6.447   6.232   7.875 -0.0584  0.7320  0.2184
   56MOL0     H 7338   6.439   6.209   7.701  0.3511  1.7007 -0.6479
   56MOL0     H 7339   6.502   6.490   7.790  0.2486 -0.8260  2.2816
   56MOL0     H 7340   6.355   6.410   7.855 -1.2357  0.7567 -1.1189
   56MOL0     H 7341   6.426   6.431   7.555  0.0540 -1.9984  1.1722
   56MOL0     H 7342   6.266   6.389   7.623 -1.2535  1.4139 -1.2909
   56MOL0     H 7343   6.380   6.652   7.579  1.0986 -0.8829  0.3870
   56MOL0     H 7344   6.320   6.637   7.734 -0.9331  1.7602 -0.9233
   56MOL0     H 7345   6.193   6.755   7.408  1.5562 -3.3653 -1.4781
   56MOL0     H 7346   5.963   6.816   7.327  3.4561 -3.3760  1.4046
   56MOL0     H 7347   5.885   6.884   7.466  1.6994  1.5829 -1.7903
   56MOL0     H 7348   5.745   6.642   7.432 -2.7804  2.0822  0.6839
   56MOL0     H 7349   5.822   6.663   7.263  1.7866  1.6092 -0.1478
   56MOL0     H 7350   5.593   6.739   7.253  1.6200  0.1737 -1.1212
   56MOL0     H 7351   5.615   6.830   7.402  0.0102  1.8020 -1.0198
   56MOL0     H 7352   5.734   6.902   7.131  0.9952  0.3160  0.7269
   56MOL0     H 7353   5.794   6.962   7.289  0.9467 -3.1133  1.6859
   56MOL0     H 7354   5.549   6.884   6.999  1.4711 -0.6446  1.6125
   56MOL0     H 7355   5.324   6.835   6.927  0.0118  0.0729  0.3978
   56MOL0     H 7356   4.837   7.111   7.163  1.4006 -0.3838  0.0425
   56MOL0     H 7357   4.602   7.124   7.136  0.6445 -1.1093  2.5118
   56MOL0     H 7358   4.375   7.133   7.046 -0.6565 -0.8287 -1.9965
   56MOL0     H 7359   4.409   7.049   7.205  1.6381 -0.4541 -0.5099
   56MOL0     H 7360   4.210   6.897   7.138 -0.5585  0.2760  1.5470
   56MOL0     H 7361   4.175   7.022   7.020 -1.9964 -0.1606  1.5825
   56MOL0     H 7362   4.164   7.191   7.196 -0.7788 -0.2449  2.0805
   56MOL0     H 7363   4.175   7.070   7.315  1.2723 -1.3635 -0.3195
   56MOL0     H 7364   3.975   7.072   7.077 -0.1845 -1.6035 -0.0842
   56MOL0     H 7365   3.972   6.963   7.205 -2.9481  0.1308  0.3199
   56MOL0     H 7366   3.908   7.143   7.372 -0.7012 -5.9582 -0.4887
   56MOL0     H 7367   3.798   7.146   7.239  0.9296 -1.8189 -0.5283
   56MOL0     H 7368   3.931   7.335   7.138 -0.5963 -0.9642 -1.2972
   56MOL0     H 7369   4.020   7.349   7.278  0.1946  0.3189 -1.8956
   56MOL0     H 7370   3.810   7.506   7.241  2.8021  0.6945  0.9337
   56MOL0     H 7371   3.711   7.362   7.266 -1.1618  1.0854 -0.0063
   56MOL0     H 7372   3.822   7.320   7.484  2.6689 -1.1292 -1.2365
   56MOL0     H 7373   3.735   7.476   7.492 -1.2642 -2.9641  0.7012
   56MOL0     H 7374   4.616   6.743   6.934  1.9589 -0.1967 -0.0533
   56MOL0     H 7375   4.831   6.742   6.959 -3.5368 -0.5481 -2.4627
   56MOL0     H 7376   5.165   7.017   7.275  0.6536 -2.0187  1.3089
   56MOL0     H 7377   5.377   7.103   7.338  0.5991  1.2036 -1.5253
   56MOL0     H 7378   7.099   5.888   7.741 -1.2779  0.2092 -2.4588
   56MOL0     H 7379   7.281   5.773   7.780 -1.3535  2.2029 -0.9664
   56MOL0     H 7380   7.546   5.390   7.772  0.2095  1.0402  0.0540
   56MOL0     H 7381   7.776   5.332   7.852 -1.0045 -0.6020 -0.0912
   56MOL0     H 7382   7.984   5.236   8.218 -0.7553 -1.7677 -0.9040
   56MOL0     H 7383   7.819   5.240   8.289 -1.2120  0.3246 -2.0661
   56MOL0     H 7384   7.983   5.487   8.244  2.5784  1.1712  2.0533
   56MOL0     H 7385   7.824   5.469   8.328 -0.2544 -1.7087 -0.4722
   56MOL0     H 7386   8.109   5.392   8.413  0.9924  1.4336 -1.5019
   56MOL0     H 7387   7.977   5.306   8.481  4.1169  0.2045  2.2934
   56MOL0     H 7388   7.879   5.536   8.524 -0.6985 -1.4718 -2.9675
   56MOL0     H 7389   8.017   5.483   8.622 -0.0977 -0.1221 -0.6839
   56MOL0     H 7390   8.165   5.827   8.417 -1.4229  0.1665 -1.4767
   56MOL0     H 7391   7.619   5.367   8.261 -1.3237 -0.5089  0.0715
   56MOL0     H 7392   7.405   5.417   8.180  1.8915  1.0173  1.7095
   57MOL0     O 7393   7.888   7.534  10.497  0.1563  0.3853 -0.1158
   57MOL0     C 7394   7.917   7.433  10.563  0.3993 -0.0865 -0.6271
   57MOL0     O 7395   7.829   7.358  10.641  1.2504 -0.3621  0.5299
   57MOL0     C 7396   7.690   7.383  10.640  0.8174 -0.5570  0.0110
   57MOL0     C 7397   7.614   7.364  10.524 -0.0233  0.0900  0.9029
   57MOL0     C 7398   7.481   7.406  10.526  0.1292 -0.1992  0.2895
   57MOL0     C 7399   7.419   7.441  10.651  0.0410 -0.0088  0.4933
   57MOL0     O 7400   7.282   7.462  10.639  0.5371 -0.3125 -0.9089
   57MOL0     C 7401   7.213   7.543  10.733  0.2668 -0.7887  0.3652
   57MOL0     C 7402   7.241   7.696  10.718 -0.0029 -0.1872 -0.5100
   57MOL0     C 7403   7.244   7.760  10.851  0.0848 -0.8998 -0.7752
   57MOL0     C 7404   7.277   7.904  10.835 -0.6366  0.1633  0.6661
   57MOL0     C 7405   7.178   7.998  10.758  0.7788 -0.2835 -0.6289
   57MOL0     C 7406   7.039   7.967  10.816  0.2750 -0.1760  0.8579
   57MOL0     C 7407   6.930   8.070  10.776  0.1585 -0.1790  0.2177
   57MOL0     C 7408   6.881   8.060  10.631 -0.2678 -0.2769  0.0300
   57MOL0     N 7409   6.751   8.130  10.618  0.6065 -0.0069  0.3757
   57MOL0     C 7410   6.703   8.198  10.508  1.1469 -0.0055 -0.2074
   57MOL0     C 7411   6.568   8.212  10.525  0.6806  0.5086  0.4309
   57MOL0     C 7412   6.475   8.298  10.445  0.3780 -0.4586 -0.2653
   57MOL0     C 7413   6.367   8.220  10.361  0.1859  0.3420  0.3053
   57MOL0     C 7414   6.275   8.313  10.287 -0.4682 -0.4380 -0.9600
   57MOL0     C 7415   6.147   8.251  10.256  0.6044  0.5080 -0.2350
   57MOL0     O 7416   6.063   8.352  10.200 -0.1855 -0.3296 -0.3332
   57MOL0     C 7417   5.927   8.345  10.211 -1.1628 -0.5271 -0.0793
   57MOL0     C 7418   5.854   8.460  10.237 -0.2964 -0.0530  0.7062
   57MOL0     C 7419   5.721   8.456  10.263  0.8933 -0.3255 -0.5479
   57MOL0     C 7420   5.652   8.331  10.260  0.7801  1.0020  0.0376
   57MOL0     C 7421   5.508   8.318  10.275 -0.3696 -0.9463  0.4672
   57MOL0     O 7422   5.440   8.204  10.249 -0.4044 -0.1122 -0.1621
   57MOL0     C 7423   5.301   8.217  10.248 -0.6426  0.2795 -0.1855
   57MOL0     C 7424   5.234   8.237  10.371  1.3201  0.0016  0.8647
   57MOL0     C 7425   5.099   8.252  10.368  0.0530  0.0448 -0.4741
   57MOL0     C 7426   5.025   8.244  10.248 -0.5760  0.2706  0.7943
   57MOL0     O 7427   4.887   8.251  10.238  0.2678 -0.4540 -0.0484
   57MOL0     C 7428   4.835   8.134  10.308  0.3219 -0.1576 -1.0027
   57MOL0     C 7429   4.712   8.146  10.400  0.0392 -0.3049  0.0468
   57MOL0     C 7430   4.586   8.147  10.311  0.8630  0.0098  0.4185
   57MOL0     C 7431   4.462   8.209  10.378 -0.1939 -0.1213 -0.0623
   57MOL0     C 7432   4.372   8.294  10.276  0.7241 -0.4388  0.3627
   57MOL0     C 7433   4.293   8.397  10.361  0.1379 -0.0741 -0.6838
   57MOL0     C 7434   4.389   8.508  10.422  0.3176  1.2745  0.2204
   57MOL0     C 7435   4.333   8.639  10.381  1.2375 -0.0159 -0.7502
   57MOL0    Cl 7436   4.417   8.778  10.445 -0.1444  0.0765 -0.4057
   57MOL0     C 7437   5.092   8.221  10.123 -1.1567 -0.8054  0.4839
   57MOL0     C 7438   5.235   8.212  10.123  0.4529 -0.7415  0.0959
   57MOL0     O 7439   5.447   8.424  10.314 -0.1400  0.7888  0.2648
   57MOL0     C 7440   5.722   8.215  10.235 -0.8358  1.0290 -0.4549
   57MOL0     C 7441   5.861   8.219  10.218 -0.6696 -0.5135  0.5857
   57MOL0     N 7442   6.535   8.145  10.644 -0.0469  0.4780 -0.2720
   57MOL0     N 7443   6.639   8.112  10.703  0.6443  0.5344 -0.9686
   57MOL0     C 7444   7.490   7.447  10.773 -0.2977  0.7605 -0.6937
   57MOL0     C 7445   7.622   7.425  10.757 -0.6652  0.1229 -0.1949
   57MOL0     C 7446   8.060   7.381  10.544  0.2558  0.2367 -0.4064
   57MOL0     C 7447   8.107   7.271  10.621  0.2830  1.1263  0.2082
   57MOL0     C 7448   8.249   7.237  10.607  0.0523  1.3150 -1.2745
   57MOL0     C 7449   8.334   7.297  10.519 -0.0437 -0.0078  1.7769
   57MOL0     O 7450   8.465   7.262  10.513  0.8620  0.6620 -0.7707
   57MOL0     C 7451   8.552   7.338  10.432  0.1195  0.3051  0.5706
   57MOL0     C 7452   8.696   7.285  10.432 -0.4894 -0.1869 -0.3896
   57MOL0     C 7453   8.780   7.382  10.347 -1.2904 -0.9944 -0.0712
   57MOL0     C 7454   8.838   7.324  10.223 -0.3009 -0.1756  0.1486
   57MOL0     C 7455   8.943   7.226  10.252 -0.8166  0.4167  0.2122
   57MOL0     C 7456   9.022   7.150  10.289  1.0290 -0.2506  0.2771
   57MOL0     C 7457   8.283   7.402  10.446 -0.0073  0.5933 -0.6016
   57MOL0     C 7458   8.153   7.449  10.461  0.1196 -0.0905 -0.6517
   57MOL0     H 7459   7.673   7.343  10.435  1.5513 -0.1535  1.9582
   57MOL0     H 7460   7.416   7.399  10.440 -0.7587  1.1797  0.8046
   57MOL0     H 7461   7.241   7.510  10.834 -1.0510  0.9403  1.3478
   57MOL0     H 7462   7.104   7.537  10.736  0.3409 -2.3272  0.8127
   57MOL0     H 7463   7.173   7.743  10.647  0.6943 -1.2690 -1.9478
   57MOL0     H 7464   7.341   7.707  10.676 -0.1769  0.9819 -0.6299
   57MOL0     H 7465   7.315   7.728  10.928  1.9970  2.8621 -0.7903
   57MOL0     H 7466   7.150   7.738  10.902 -0.5283  1.2259 -0.8997
   57MOL0     H 7467   7.309   7.943  10.932 -1.9374  0.4964  0.9812
   57MOL0     H 7468   7.370   7.915  10.778 -2.7491  4.5855 -2.5741
   57MOL0     H 7469   7.174   7.973  10.652 -1.1463 -0.3132 -0.5700
   57MOL0     H 7470   7.198   8.106  10.760  0.0037 -0.1467 -0.0386
   57MOL0     H 7471   7.046   7.961  10.925 -0.3846 -1.8604  0.8232
   57MOL0     H 7472   7.005   7.875  10.769 -1.2737  2.1679 -3.0847
   57MOL0     H 7473   6.840   8.047  10.834 -1.0610  1.0329 -1.1206
   57MOL0     H 7474   6.958   8.170  10.809  0.0282  0.2783 -1.0037
   57MOL0     H 7475   6.884   7.958  10.592  1.0126 -0.4612  0.5471
   57MOL0     H 7476   6.954   8.113  10.569 -1.6742 -0.1999 -1.6388
   57MOL0     H 7477   6.768   8.248  10.436 -0.0015 -1.5702 -2.4575
   57MOL0     H 7478   6.527   8.350  10.364  0.8876 -1.0851 -0.3420
   57MOL0     H 7479   6.437   8.378  10.509 -2.2855 -2.6114  1.0491
   57MOL0     H 7480   6.310   8.163  10.435  0.2013 -1.3812 -0.9582
   57MOL0     H 7481   6.414   8.145  10.297 -2.4376 -0.3458 -0.9644
   57MOL0     H 7482   6.261   8.411  10.333 -0.9976 -0.0883 -1.8539
   57MOL0     H 7483   6.325   8.340  10.193  2.0816  0.4327  0.5353
   57MOL0     H 7484   6.104   8.215  10.350  1.0571  1.2266  0.2538
   57MOL0     H 7485   6.148   8.167  10.185 -4.6145 -1.1406  1.1488
   57MOL0     H 7486   5.905   8.555  10.226 -0.6109  0.4015  2.6899
   57MOL0     H 7487   5.654   8.541  10.263 -0.6603 -1.5053 -1.2552
   57MOL0     H 7488   5.283   8.247  10.467  0.3057  0.3259  1.3605
   57MOL0     H 7489   5.042   8.272  10.458  1.2633  0.0271  0.3140
   57MOL0     H 7490   4.907   8.081  10.371  2.1488  2.2168 -0.9572
   57MOL0     H 7491   4.808   8.058  10.233 -0.2724 -1.6664  0.6677
   57MOL0     H 7492   4.714   8.248  10.440 -1.6523  0.1514 -0.9162
   57MOL0     H 7493   4.715   8.076  10.484 -0.2335  0.1430  0.4414
   57MOL0     H 7494   4.541   8.048  10.294 -0.3808  0.8153 -1.2334
   57MOL0     H 7495   4.609   8.196  10.216  2.8167 -1.4195  0.0796
   57MOL0     H 7496   4.402   8.128  10.419 -2.1286  0.8905 -0.7524
   57MOL0     H 7497   4.475   8.265  10.472  0.5212 -0.4007  0.0090
   57MOL0     H 7498   4.297   8.226  10.235  0.8512 -0.3595 -0.0103
   57MOL0     H 7499   4.426   8.341  10.193 -1.3987  0.3878 -0.6157
   57MOL0     H 7500   4.248   8.350  10.449 -1.7763  3.6185  0.5397
   57MOL0     H 7501   4.225   8.448  10.292  2.1795  3.3937 -0.3260
   57MOL0     H 7502   4.394   8.506  10.531 -4.0830  0.2820  0.5713
   57MOL0     H 7503   4.487   8.502  10.374 -0.2598 -0.8237 -0.8036
   57MOL0     H 7504   4.225   8.650  10.400  0.8920 -1.9565 -1.3771
   57MOL0     H 7505   4.345   8.636  10.273 -3.0179  0.6975 -1.4253
   57MOL0     H 7506   5.021   8.219  10.040 -0.8927 -0.9898  0.2602
   57MOL0     H 7507   5.305   8.204  10.040  1.6090  2.3002  0.6514
   57MOL0     H 7508   5.683   8.114  10.233  0.4305  0.4223  1.8700
   57MOL0     H 7509   5.910   8.125  10.202 -0.4829 -0.7023  2.0715
   57MOL0     H 7510   7.453   7.465  10.873  0.5665 -0.3931 -0.1373
   57MOL0     H 7511   7.690   7.441  10.839  0.6090 -1.2094 -0.9317
   57MOL0     H 7512   8.045   7.221  10.695 -0.5892 -1.3482 -2.0508
   57MOL0     H 7513   8.286   7.155  10.668 -2.7581  0.2083 -0.9395
   57MOL0     H 7514   8.557   7.442  10.467 -1.0128  0.1065  1.3432
   57MOL0     H 7515   8.521   7.340  10.327 -3.5421 -0.4821  1.5242
   57MOL0     H 7516   8.735   7.291  10.535 -3.2555 -1.4291  0.8202
   57MOL0     H 7517   8.702   7.183  10.394  0.2496 -0.5282  0.5770
   57MOL0     H 7518   8.863   7.418  10.409 -1.0405  2.6206 -2.2223
   57MOL0     H 7519   8.723   7.472  10.323 -1.2066 -0.2142  2.3419
   57MOL0     H 7520   8.753   7.269  10.181 -0.6453  1.2682 -1.1609
   57MOL0     H 7521   8.886   7.399  10.159  3.1380  0.5461  3.2415
   57MOL0     H 7522   9.087   7.074  10.328  1.6012  1.0331  1.9689
   57MOL0     H 7523   8.354   7.448  10.378  2.0808  1.6866  2.1063
   57MOL0     H 7524   8.119   7.533  10.402 -1.2546  0.8554  1.3345
   58MOL0     O 7525   7.703   5.400   4.130  0.0279 -0.4093 -0.1652
   58MOL0     C 7526   7.769   5.470   4.044 -0.2543  0.2872 -0.1292
   58MOL0     O 7527   7.761   5.455   3.914  0.0016  0.3531  0.2794
   58MOL0     C 7528   7.684   5.347   3.875 -0.5851 -0.0612 -0.5346
   58MOL0     C 7529   7.556   5.380   3.839  0.0832 -0.6881 -0.1912
   58MOL0     C 7530   7.463   5.281   3.792 -0.5823 -0.3949 -0.2528
   58MOL0     C 7531   7.507   5.145   3.797  0.0622 -0.1928 -0.1893
   58MOL0     O 7532   7.421   5.040   3.766  0.1313 -0.7767 -0.1481
   58MOL0     C 7533   7.281   5.069   3.742  0.2645 -0.1314  0.3649
   58MOL0     C 7534   7.198   4.937   3.742 -0.2637 -0.1785 -0.1639
   58MOL0     C 7535   7.060   4.973   3.687 -0.3651  0.3693  0.7065
   58MOL0     C 7536   6.990   4.845   3.651  0.5788  0.1890 -0.1707
   58MOL0     C 7537   6.862   4.870   3.568  1.4568 -0.0804 -0.5274
   58MOL0     C 7538   6.749   4.881   3.670  0.5959  0.4395  1.0392
   58MOL0     C 7539   6.623   4.920   3.596  1.0812 -0.1712  0.1850
   58MOL0     C 7540   6.506   4.939   3.703  0.4476 -0.0753  0.3187
   58MOL0     N 7541   6.368   4.933   3.650 -0.2591 -0.3295  0.1222
   58MOL0     C 7542   6.309   5.012   3.558 -1.0148 -0.2383  0.8267
   58MOL0     C 7543   6.178   4.970   3.553 -0.5676  0.9250 -0.5486
   58MOL0     C 7544   6.071   5.049   3.484  0.0195  0.3959 -0.3742
   58MOL0     C 7545   6.013   4.990   3.356  0.0757  0.8553  1.0345
   58MOL0     C 7546   6.090   5.037   3.233 -0.5693 -0.1881  0.0641
   58MOL0     C 7547   6.030   4.991   3.101 -0.1098  0.3089  0.2638
   58MOL0     O 7548   6.016   4.852   3.121  0.0341 -0.1394 -0.3552
   58MOL0     C 7549   5.934   4.782   3.035 -0.2597 -0.3144 -0.8683
   58MOL0     C 7550   5.941   4.645   3.042  0.8450  0.3917 -0.3382
   58MOL0     C 7551   5.871   4.564   2.947 -0.4542 -0.1371 -0.1066
   58MOL0     C 7552   5.804   4.621   2.841 -0.2879 -0.4187  0.2841
   58MOL0     C 7553   5.756   4.535   2.729  0.1209 -0.2923  0.2264
   58MOL0     O 7554   5.676   4.594   2.632 -0.5233  0.4610  0.5370
   58MOL0     C 7555   5.668   4.526   2.513  0.8655  0.7341  0.3074
   58MOL0     C 7556   5.542   4.520   2.448 -0.6519 -0.6484 -0.0418
   58MOL0     C 7557   5.534   4.468   2.321 -0.5049 -0.1365  0.4908
   58MOL0     C 7558   5.646   4.415   2.253  0.5680 -0.9428  0.7559
   58MOL0     O 7559   5.625   4.356   2.133 -0.4863  0.1084  0.4576
   58MOL0     C 7560   5.716   4.246   2.109  0.7346 -0.7091 -0.4882
   58MOL0     C 7561   5.651   4.134   2.027 -0.2769  0.4624 -0.2124
   58MOL0     C 7562   5.746   4.014   2.007 -0.9547 -0.3747 -0.5076
   58MOL0     C 7563   5.661   3.893   1.991 -0.2625  0.7840 -0.0101
   58MOL0     C 7564   5.596   3.882   1.854 -0.0460  0.0174  0.2290
   58MOL0     C 7565   5.510   3.751   1.851  1.0326 -0.7947  0.9768
   58MOL0     C 7566   5.484   3.696   1.705  0.2270 -0.1235 -0.0639
   58MOL0     C 7567   5.379   3.582   1.701 -0.2255  0.0272 -0.0611
   58MOL0    Cl 7568   5.213   3.641   1.681  0.0838  0.0463  0.4781
   58MOL0     C 7569   5.769   4.436   2.309 -0.9220  0.3739 -0.1732
   58MOL0     C 7570   5.780   4.483   2.433 -0.4314 -0.1063  0.3531
   58MOL0     O 7571   5.784   4.416   2.726 -0.2105  0.6078  0.0344
   58MOL0     C 7572   5.798   4.756   2.836  0.3636  0.0979 -0.9998
   58MOL0     C 7573   5.851   4.837   2.935  0.6020 -0.5252  0.5735
   58MOL0     N 7574   6.160   4.853   3.627  0.9324  0.1031 -0.4771
   58MOL0     N 7575   6.278   4.828   3.672 -0.5273  0.5261  0.6039
   58MOL0     C 7576   7.633   5.119   3.850 -0.2872  0.7999 -0.0764
   58MOL0     C 7577   7.722   5.221   3.886  0.2655 -1.1463 -0.0638
   58MOL0     C 7578   7.865   5.572   4.102  0.6104  0.2706  0.2989
   58MOL0     C 7579   7.869   5.598   4.248  0.1716  0.4293  0.4413
   58MOL0     C 7580   7.968   5.674   4.303  0.2429 -0.5124 -0.2467
   58MOL0     C 7581   8.059   5.744   4.218 -0.2297  0.5061  1.2525
   58MOL0     O 7582   8.155   5.833   4.262  0.3722 -0.6092  0.3137
   58MOL0     C 7583   8.123   5.930   4.362 -0.1439  0.0313  0.2921
   58MOL0     C 7584   8.250   5.995   4.437  0.2052 -0.2423  0.4831
   58MOL0     C 7585   8.209   6.128   4.512  0.0716  0.2743  0.8335
   58MOL0     C 7586   8.305   6.138   4.631 -0.2145 -0.0367  0.4491
   58MOL0     C 7587   8.266   6.242   4.727 -0.0457  0.0533  0.0295
   58MOL0     C 7588   8.242   6.317   4.811  1.1184 -0.3532  0.5438
   58MOL0     C 7589   8.051   5.727   4.081  0.7537 -0.8049 -0.4855
   58MOL0     C 7590   7.952   5.651   4.024  0.8837  0.2439  0.1262
   58MOL0     H 7591   7.517   5.481   3.838  0.9570 -0.3506 -0.2085
   58MOL0     H 7592   7.363   5.310   3.762 -0.7821 -0.8922 -0.0769
   58MOL0     H 7593   7.281   5.110   3.641 -1.7525 -0.3239  0.2601
   58MOL0     H 7594   7.237   5.144   3.809 -0.8175 -2.3792  2.3438
   58MOL0     H 7595   7.184   4.899   3.844  3.9282 -1.9660 -0.0599
   58MOL0     H 7596   7.251   4.862   3.684  0.4147 -0.9130  1.3547
   58MOL0     H 7597   7.075   5.039   3.601 -1.1162 -0.1435  0.1682
   58MOL0     H 7598   7.004   5.037   3.756  1.3102 -0.1250  2.5900
   58MOL0     H 7599   7.064   4.787   3.594  2.5176  0.5359  1.8675
   58MOL0     H 7600   6.978   4.789   3.744  0.0458  1.5705  0.6061
   58MOL0     H 7601   6.844   4.787   3.500 -0.8425  1.0316 -1.3784
   58MOL0     H 7602   6.873   4.958   3.504  0.5397  0.8911  0.6069
   58MOL0     H 7603   6.772   4.944   3.757 -1.3249 -2.2586  3.7363
   58MOL0     H 7604   6.744   4.782   3.716 -0.0182 -0.1226 -0.2014
   58MOL0     H 7605   6.626   5.004   3.527 -1.6243  1.5746  2.0011
   58MOL0     H 7606   6.590   4.842   3.526  0.5385 -0.0948  0.3476
   58MOL0     H 7607   6.529   5.028   3.762  2.9555 -0.6579  0.3017
   58MOL0     H 7608   6.506   4.860   3.779 -0.8885  1.8624  2.5002
   58MOL0     H 7609   6.352   5.100   3.512 -0.6132 -0.3989  0.8953
   58MOL0     H 7610   6.133   5.138   3.465  4.1125 -1.1493  3.9286
   58MOL0     H 7611   5.989   5.064   3.555 -0.0971 -1.0856 -0.1632
   58MOL0     H 7612   5.908   5.018   3.345  0.2266  0.7145 -1.2105
   58MOL0     H 7613   6.012   4.881   3.364 -2.2203  0.1887 -4.2341
   58MOL0     H 7614   6.094   5.146   3.232 -2.8494 -0.0654 -0.6187
   58MOL0     H 7615   6.191   4.995   3.244 -0.8587 -1.1386 -0.7227
   58MOL0     H 7616   6.088   5.019   3.013 -1.6700 -1.7466 -1.5399
   58MOL0     H 7617   5.932   5.038   3.092 -1.6269 -2.9434 -2.6718
   58MOL0     H 7618   5.998   4.600   3.123  3.4993  1.7924 -1.3099
   58MOL0     H 7619   5.888   4.457   2.941  2.3264  0.2818 -3.3208
   58MOL0     H 7620   5.457   4.559   2.503  1.1636  2.7061  0.6775
   58MOL0     H 7621   5.435   4.462   2.277 -0.1116  0.0136 -0.4251
   58MOL0     H 7622   5.749   4.199   2.203 -0.1931  0.6031  0.5331
   58MOL0     H 7623   5.799   4.284   2.049 -0.9111  2.7396 -0.8118
   58MOL0     H 7624   5.622   4.189   1.937 -2.7727  0.6424  0.6203
   58MOL0     H 7625   5.564   4.096   2.082  0.7245 -1.8948 -0.1611
   58MOL0     H 7626   5.817   4.001   2.089  1.2725 -0.1341 -2.3128
   58MOL0     H 7627   5.812   4.040   1.925  2.4769 -0.2476  2.0688
   58MOL0     H 7628   5.743   3.821   1.997  0.5004  1.6919  0.8946
   58MOL0     H 7629   5.585   3.878   2.068 -0.2576 -1.3466 -0.3591
   58MOL0     H 7630   5.675   3.874   1.779  1.9323 -2.9298  2.3883
   58MOL0     H 7631   5.520   3.960   1.838  0.2869  0.2849 -0.0587
   58MOL0     H 7632   5.414   3.768   1.901  1.1599 -0.1193  1.0102
   58MOL0     H 7633   5.568   3.673   1.900  1.9673  0.3011  1.6817
   58MOL0     H 7634   5.457   3.772   1.632  0.7741 -2.8741 -3.3965
   58MOL0     H 7635   5.579   3.663   1.661  0.5225  2.0452 -1.1809
   58MOL0     H 7636   5.377   3.529   1.797  0.5840 -2.2024 -1.2083
   58MOL0     H 7637   5.409   3.511   1.624 -1.2783  0.1854 -0.6393
   58MOL0     H 7638   5.855   4.397   2.255  1.5199  2.1821  2.1677
   58MOL0     H 7639   5.878   4.492   2.480  0.1868  2.8769 -1.2269
   58MOL0     H 7640   5.763   4.821   2.756  2.1009 -1.4284 -3.1488
   58MOL0     H 7641   5.846   4.944   2.919  0.2186 -0.9668 -3.6192
   58MOL0     H 7642   7.664   5.019   3.876 -3.6730  0.3079  2.8248
   58MOL0     H 7643   7.815   5.190   3.933 -0.8506 -3.7589  0.5807
   58MOL0     H 7644   7.801   5.539   4.309 -1.5235  0.4206 -1.3075
   58MOL0     H 7645   7.981   5.695   4.408  1.5377  0.9614 -0.6506
   58MOL0     H 7646   8.068   5.885   4.445 -1.0822 -2.0744 -1.4090
   58MOL0     H 7647   8.066   6.007   4.310  0.5191  1.5675  1.7163
   58MOL0     H 7648   8.281   5.915   4.504 -0.5081 -1.4318 -0.5542
   58MOL0     H 7649   8.321   6.020   4.357  0.6511  1.3145  1.3216
   58MOL0     H 7650   8.103   6.126   4.539 -0.4747 -1.8844 -1.1261
   58MOL0     H 7651   8.225   6.214   4.446  0.8017  0.7001  1.5507
   58MOL0     H 7652   8.308   6.042   4.683 -2.0557  0.2107  1.0923
   58MOL0     H 7653   8.406   6.156   4.594 -1.1006 -1.4414 -3.0943
   58MOL0     H 7654   8.229   6.382   4.895 -0.7065  1.8052 -1.2575
   58MOL0     H 7655   8.125   5.790   4.031 -1.2184  1.2800 -0.9276
   58MOL0     H 7656   7.948   5.630   3.918 -1.7118 -4.6747  0.8742
   59MOL0     O 7657   2.454  10.226   1.882 -0.4885  0.0723  0.2568
   59MOL0     C 7658   2.480  10.316   1.960 -0.2193  0.3305  0.3469
   59MOL0     O 7659   2.398  10.419   1.986  0.3567  0.1015  0.2925
   59MOL0     C 7660   2.263  10.436   1.961  0.8459  0.2280  1.0983
   59MOL0     C 7661   2.174  10.328   1.947  0.0575 -0.0856  0.1981
   59MOL0     C 7662   2.034  10.346   1.928  0.0738  0.2429  0.2436
   59MOL0     C 7663   1.979  10.480   1.935  0.0434 -0.1720 -0.1837
   59MOL0     O 7664   1.847  10.515   1.918 -0.2594  0.1134 -0.3400
   59MOL0     C 7665   1.754  10.434   1.857 -1.0532  0.4566  0.5450
   59MOL0     C 7666   1.617  10.495   1.859 -0.2365 -0.3334 -0.1105
   59MOL0     C 7667   1.495  10.411   1.823 -0.6048  1.1178  0.0153
   59MOL0     C 7668   1.366  10.493   1.790 -0.3561  0.0895 -0.5788
   59MOL0     C 7669   1.242  10.407   1.772 -0.1465  0.6828 -0.0900
   59MOL0     C 7670   1.132  10.492   1.718  0.2331 -0.8876 -0.1930
   59MOL0     C 7671   1.014  10.410   1.660 -0.5454 -0.6206  1.2841
   59MOL0     C 7672   0.937  10.340   1.772  0.2226 -0.0787 -0.0995
   59MOL0     N 7673   0.814  10.281   1.728  0.5111 -0.5623  0.1998
   59MOL0     C 7674   0.806  10.162   1.668 -0.6290  0.3457 -0.1994
   59MOL0     C 7675   0.671  10.150   1.644 -0.6343  0.5723  0.2391
   59MOL0     C 7676   0.619  10.017   1.583  0.3812  0.9490 -0.2292
   59MOL0     C 7677   0.499   9.963   1.667 -0.3334 -0.3342 -0.5121
   59MOL0     C 7678   0.434   9.841   1.610  0.8834  1.7573  0.2101
   59MOL0     C 7679   0.297   9.812   1.671  0.6631  0.9814  0.1848
   59MOL0     O 7680   0.219   9.707   1.606  0.6705  0.8969  0.0772
   59MOL0     C 7681   0.083   9.683   1.645 -0.0502 -0.1123  0.4555
   59MOL0     C 7682   0.024   9.731   1.758  0.6128  0.3815 -0.7043
   59MOL0     C 7683  -0.114   9.694   1.791 -1.1143  0.8866  0.4068
   59MOL0     C 7684  -0.188   9.608   1.707 -0.2422  0.1180 -0.0887
   59MOL0     C 7685  -0.327   9.582   1.740 -0.3953  0.0042  0.2738
   59MOL0     O 7686  -0.360   9.573   1.868  0.3703  0.7398 -0.4264
   59MOL0     C 7687  -0.487   9.544   1.903  0.5169 -0.0977  0.3087
   59MOL0     C 7688  -0.519   9.443   1.998 -0.3441 -0.5833  0.4604
   59MOL0     C 7689  -0.656   9.425   2.035  0.2701  0.9783  0.9713
   59MOL0     C 7690  -0.756   9.486   1.969 -0.2048 -0.5412 -0.4700
   59MOL0     O 7691  -0.885   9.441   1.990  0.2609  0.2430  0.3071
   59MOL0     C 7692  -0.983   9.484   1.885 -0.2628 -0.0419 -0.3161
   59MOL0     C 7693  -1.108   9.403   1.907  0.3816 -0.5538  0.0319
   59MOL0     C 7694  -1.219   9.449   1.807 -0.2929 -0.2749  0.6576
   59MOL0     C 7695  -1.320   9.344   1.772 -0.4432  0.0699 -0.3156
   59MOL0     C 7696  -1.388   9.290   1.897  0.9033  0.3967 -0.8858
   59MOL0     C 7697  -1.452   9.146   1.875 -0.2695 -0.1818 -0.2390
   59MOL0     C 7698  -1.578   9.139   1.778 -0.8403  0.4253  0.2241
   59MOL0     C 7699  -1.697   9.222   1.810  0.4302  0.3361  0.0752
   59MOL0    Cl 7700  -1.791   9.163   1.939 -0.0482 -0.6077  0.0772
   59MOL0     C 7701  -0.725   9.587   1.883 -1.0190  0.5134  0.5601
   59MOL0     C 7702  -0.592   9.617   1.843  0.3959  0.2185 -0.9914
   59MOL0     O 7703  -0.403   9.556   1.645  1.1907  0.9600  0.3036
   59MOL0     C 7704  -0.127   9.552   1.592 -1.9046 -0.4693 -0.3909
   59MOL0     C 7705   0.010   9.596   1.556 -0.0132 -0.5989 -0.1315
   59MOL0     N 7706   0.602  10.255   1.690  1.5460  0.1035 -0.5798
   59MOL0     N 7707   0.693  10.335   1.735 -0.2760 -0.0618  0.5022
   59MOL0     C 7708   2.071  10.584   1.971 -0.1371  0.5652 -0.1499
   59MOL0     C 7709   2.205  10.560   1.980  0.0421  1.3547 -0.6224
   59MOL0     C 7710   2.617  10.321   2.020  0.0639 -0.9422 -0.3714
   59MOL0     C 7711   2.694  10.198   2.035 -0.4953 -1.0453 -0.5689
   59MOL0     C 7712   2.827  10.201   2.081 -0.2441 -0.7085 -0.5330
   59MOL0     C 7713   2.876  10.322   2.133 -0.2236  0.5950  0.5035
   59MOL0     O 7714   3.000  10.332   2.194  0.5162  0.4629  0.2330
   59MOL0     C 7715   3.099  10.230   2.165 -0.0234 -0.7457 -0.1728
   59MOL0     C 7716   3.241  10.273   2.185  0.6882 -0.4279  0.2931
   59MOL0     C 7717   3.328  10.163   2.126 -0.7007  0.7092  1.5606
   59MOL0     C 7718   3.476  10.199   2.111  0.5817 -0.2160 -0.5187
   59MOL0     C 7719   3.565  10.087   2.087  0.4015 -0.0672 -0.0735
   59MOL0     C 7720   3.650  10.006   2.073 -0.4789  0.5656  0.3283
   59MOL0     C 7721   2.805  10.444   2.122  0.3217 -0.1558  0.2522
   59MOL0     C 7722   2.673  10.441   2.066  0.8915  0.3423 -0.3417
   59MOL0     H 7723   2.223  10.232   1.958  0.4673  0.1460  0.4409
   59MOL0     H 7724   1.974  10.256   1.914 -3.4258  1.9734  2.4648
   59MOL0     H 7725   1.744  10.336   1.904 -1.2822  0.9729  1.6068
   59MOL0     H 7726   1.769  10.434   1.749  2.6655  4.4968  0.7806
   59MOL0     H 7727   1.605  10.585   1.798  0.3667 -0.6205 -0.6757
   59MOL0     H 7728   1.595  10.523   1.962 -1.3888 -0.4160 -0.3203
   59MOL0     H 7729   1.469  10.349   1.910  0.8450 -0.3584 -0.5533
   59MOL0     H 7730   1.520  10.342   1.742  1.4660 -0.6159  1.9914
   59MOL0     H 7731   1.352  10.571   1.865 -2.5877  1.7355 -2.5313
   59MOL0     H 7732   1.383  10.550   1.698 -2.6373 -0.1853 -1.2287
   59MOL0     H 7733   1.200  10.386   1.871  2.7601  2.6463  1.7067
   59MOL0     H 7734   1.263  10.319   1.710  0.2199  1.4177 -1.0369
   59MOL0     H 7735   1.167  10.554   1.636  1.8250 -1.7283 -0.1858
   59MOL0     H 7736   1.097  10.555   1.800  0.7256  1.3938 -1.6691
   59MOL0     H 7737   0.949  10.478   1.604  2.4075  0.7887 -0.7059
   59MOL0     H 7738   1.044  10.335   1.587  1.8943  2.2970 -1.0232
   59MOL0     H 7739   0.917  10.402   1.860 -2.7119 -2.2187  0.8980
   59MOL0     H 7740   0.994  10.250   1.797 -1.6730 -1.7488 -1.4767
   59MOL0     H 7741   0.898  10.113   1.640 -0.1640  0.6237  0.8145
   59MOL0     H 7742   0.702   9.946   1.577  0.7883  1.4550 -0.7276
   59MOL0     H 7743   0.580  10.034   1.482  2.8096 -1.4524 -1.7014
   59MOL0     H 7744   0.428  10.044   1.688 -0.0528  0.1338 -1.3087
   59MOL0     H 7745   0.534   9.936   1.767 -1.9085  1.6889  0.6586
   59MOL0     H 7746   0.421   9.860   1.503 -0.9486  1.2463  0.3036
   59MOL0     H 7747   0.490   9.748   1.604 -3.4999 -1.1616 -0.0141
   59MOL0     H 7748   0.223   9.892   1.671 -1.9743 -1.3118 -0.3909
   59MOL0     H 7749   0.324   9.768   1.767  0.5679 -2.4549 -1.2002
   59MOL0     H 7750   0.074   9.795   1.830  0.2113 -0.0628 -0.0229
   59MOL0     H 7751  -0.157   9.745   1.876 -2.2063  1.4294 -0.4456
   59MOL0     H 7752  -0.448   9.378   2.049 -3.0366 -2.5980  1.9394
   59MOL0     H 7753  -0.684   9.346   2.105  0.5178  2.1495  2.4422
   59MOL0     H 7754  -0.949   9.466   1.783 -0.7074 -0.9497 -0.3173
   59MOL0     H 7755  -1.001   9.590   1.905 -1.7709 -0.4100  0.4448
   59MOL0     H 7756  -1.145   9.439   2.004  2.7542 -0.6727  1.0500
   59MOL0     H 7757  -1.083   9.297   1.907 -0.3203 -0.7815 -2.7714
   59MOL0     H 7758  -1.177   9.465   1.707  0.9347 -3.7870  0.4568
   59MOL0     H 7759  -1.268   9.538   1.847 -1.8849 -1.2309  0.9332
   59MOL0     H 7760  -1.400   9.389   1.712 -0.7123  0.7042  0.5008
   59MOL0     H 7761  -1.272   9.263   1.716  0.7448 -0.1368  0.9498
   59MOL0     H 7762  -1.468   9.352   1.938  0.4181 -0.2694 -0.8044
   59MOL0     H 7763  -1.321   9.269   1.981 -0.5507 -1.2701 -0.0673
   59MOL0     H 7764  -1.489   9.102   1.968 -0.2989  0.4956  0.0772
   59MOL0     H 7765  -1.375   9.074   1.846  1.5184  0.6109  2.2022
   59MOL0     H 7766  -1.547   9.172   1.679  1.9957 -0.5112  0.7026
   59MOL0     H 7767  -1.615   9.036   1.780  3.4114 -1.3005 -0.0882
   59MOL0     H 7768  -1.767   9.233   1.726 -2.2733  2.1226  2.3511
   59MOL0     H 7769  -1.662   9.324   1.826 -1.0869  1.3962 -2.6637
   59MOL0     H 7770  -0.798   9.628   1.814 -1.9521 -1.1387  0.5004
   59MOL0     H 7771  -0.591   9.696   1.769 -2.1327  1.3513  0.0386
   59MOL0     H 7772  -0.183   9.482   1.531 -2.9193 -2.1819  2.2928
   59MOL0     H 7773   0.066   9.557   1.472  3.0558  2.9818  0.0269
   59MOL0     H 7774   2.032  10.685   1.974  0.5622  0.8407  2.6216
   59MOL0     H 7775   2.276  10.639   1.999  0.8320 -0.1538  4.0382
   59MOL0     H 7776   2.660  10.098   2.012 -0.6951 -0.4068 -3.5122
   59MOL0     H 7777   2.886  10.112   2.099 -0.9693 -0.7387  2.0474
   59MOL0     H 7778   3.084  10.182   2.068  0.4714  0.8140 -1.0713
   59MOL0     H 7779   3.086  10.144   2.231 -0.6525 -0.0275  0.6557
   59MOL0     H 7780   3.253  10.367   2.129 -1.7726 -0.2812 -0.0623
   59MOL0     H 7781   3.281  10.287   2.286  2.2300  0.4204 -0.3921
   59MOL0     H 7782   3.288  10.127   2.031 -1.8563  1.7488  1.6323
   59MOL0     H 7783   3.320  10.081   2.198 -1.8740 -0.2468  0.3869
   59MOL0     H 7784   3.476  10.263   2.022 -0.2190  1.3608  0.5727
   59MOL0     H 7785   3.504  10.256   2.200  2.6087 -1.3673 -0.3574
   59MOL0     H 7786   3.742   9.951   2.063 -0.4975  0.8674 -1.9977
   59MOL0     H 7787   2.857  10.533   2.155  0.4258 -0.9015  2.2420
   59MOL0     H 7788   2.621  10.536   2.068  1.7151  0.7930  0.4649
   60MOL0     O 7789   4.155   9.422   6.279  0.4206 -0.1927 -1.0382
   60MOL0     C 7790   4.224   9.340   6.341 -0.5865  0.0238  0.2557
   60MOL0     O 7791   4.177   9.243   6.421  0.1861 -0.1559 -0.4621
   60MOL0     C 7792   4.064   9.292   6.486 -0.1827  0.2308 -0.2945
   60MOL0     C 7793   4.072   9.349   6.616 -0.3605  0.7824  0.2253
   60MOL0     C 7794   3.955   9.410   6.670 -0.0857 -0.7081  0.2134
   60MOL0     C 7795   3.834   9.402   6.602  0.2568  0.3842 -0.3992
   60MOL0     O 7796   3.723   9.454   6.662 -0.4586 -0.2428 -0.1056
   60MOL0     C 7797   3.672   9.376   6.771 -0.1180  0.0635  0.3533
   60MOL0     C 7798   3.525   9.417   6.807  0.1883  0.0761 -0.6927
   60MOL0     C 7799   3.505   9.572   6.809  0.2070 -0.1383 -0.6532
   60MOL0     C 7800   3.613   9.657   6.888  0.8280  0.5191  0.0884
   60MOL0     C 7801   3.566   9.795   6.924 -0.8942 -0.4232  0.3855
   60MOL0     C 7802   3.665   9.856   7.031 -0.5241  0.2061  0.1734
   60MOL0     C 7803   3.601   9.974   7.104  0.4625 -0.4946 -0.5624
   60MOL0     C 7804   3.682  10.037   7.209 -0.5124  0.1098 -1.0936
   60MOL0     N 7805   3.604  10.127   7.291  0.3622  0.7429 -0.0532
   60MOL0     C 7806   3.539  10.243   7.258 -0.4837  0.8480  0.0855
   60MOL0     C 7807   3.467  10.271   7.370  0.2947  0.4493 -0.0612
   60MOL0     C 7808   3.378  10.389   7.377  0.8595 -0.4609 -0.1944
   60MOL0     C 7809   3.426  10.478   7.496  0.4249 -0.1396 -0.1631
   60MOL0     C 7810   3.332  10.599   7.518  1.2407  0.4450 -0.2129
   60MOL0     C 7811   3.194  10.572   7.584 -0.6801  0.2708 -0.2300
   60MOL0     O 7812   3.097  10.667   7.533 -0.0638 -0.6353 -0.3931
   60MOL0     C 7813   2.977  10.671   7.595 -0.2719  0.1793 -0.6372
   60MOL0     C 7814   2.917  10.580   7.680  0.9808  0.9148 -0.1516
   60MOL0     C 7815   2.788  10.606   7.728 -0.7825 -0.1276  0.1469
   60MOL0     C 7816   2.723  10.733   7.709  0.2061  0.0211 -0.4411
   60MOL0     C 7817   2.589  10.773   7.764 -0.2130 -0.3052  0.2959
   60MOL0     O 7818   2.567  10.907   7.779 -0.5823  0.0903 -0.0406
   60MOL0     C 7819   2.441  10.946   7.817  0.4366 -0.0240  0.4404
   60MOL0     C 7820   2.321  10.899   7.747 -0.0363  0.7818 -1.0612
   60MOL0     C 7821   2.196  10.952   7.788  0.1245  0.1946  0.1137
   60MOL0     C 7822   2.188  11.045   7.895 -0.5343 -0.3486 -1.2496
   60MOL0     O 7823   2.064  11.098   7.940  0.9456  0.4827 -0.2143
   60MOL0     C 7824   1.949  11.067   7.864  0.3341  0.4640 -0.5996
   60MOL0     C 7825   1.820  11.128   7.934  0.1010  0.0456 -0.1978
   60MOL0     C 7826   1.742  11.019   8.006  0.0886 -0.1867 -1.0346
   60MOL0     C 7827   1.620  11.059   8.074  0.6181 -0.0408  0.4774
   60MOL0     C 7828   1.573  10.945   8.171  0.5212 -0.7004 -0.7920
   60MOL0     C 7829   1.437  10.977   8.232 -0.0333  0.0691 -0.0013
   60MOL0     C 7830   1.310  10.980   8.138  0.2891  1.0787 -0.0513
   60MOL0     C 7831   1.195  11.046   8.215 -0.0280 -0.0550 -0.0449
   60MOL0    Cl 7832   1.237  11.215   8.224  0.0855  0.6056  0.4984
   60MOL0     C 7833   2.306  11.082   7.962 -0.1863 -0.5225  0.2713
   60MOL0     C 7834   2.432  11.042   7.915  0.0143 -0.3742 -0.6330
   60MOL0     O 7835   2.510  10.681   7.801 -0.3694  0.2459 -0.5593
   60MOL0     C 7836   2.791  10.831   7.629  0.8804  0.7585  0.3686
   60MOL0     C 7837   2.916  10.801   7.576 -0.8395  0.5119  0.2583
   60MOL0     N 7838   3.489  10.176   7.468 -0.0800  0.2100  0.3899
   60MOL0     N 7839   3.568  10.090   7.418 -0.3784  0.0332  0.4539
   60MOL0     C 7840   3.829   9.350   6.477  0.5193  0.2834  0.6702
   60MOL0     C 7841   3.937   9.299   6.414 -0.4192 -0.4394 -0.4047
   60MOL0     C 7842   4.372   9.352   6.318  0.0195  0.6934  0.1143
   60MOL0     C 7843   4.469   9.251   6.346 -0.1878 -0.9084 -0.0539
   60MOL0     C 7844   4.605   9.256   6.301  1.0974 -0.5844 -0.6605
   60MOL0     C 7845   4.654   9.360   6.222  1.7262  0.6289 -0.3900
   60MOL0     O 7846   4.784   9.363   6.199  0.0616 -0.3987 -0.7144
   60MOL0     C 7847   4.844   9.472   6.121 -0.8583 -1.0199 -1.3105
   60MOL0     C 7848   4.995   9.457   6.095  0.2595  0.2333  0.1777
   60MOL0     C 7849   5.033   9.556   5.987 -0.2274  0.0545  0.5291
   60MOL0     C 7850   5.176   9.570   5.954 -0.3005 -0.1766 -0.0893
   60MOL0     C 7851   5.193   9.670   5.844 -0.0762 -0.0228 -0.1607
   60MOL0     C 7852   5.226   9.757   5.764  0.2923 -0.4840  0.2199
   60MOL0     C 7853   4.555   9.450   6.184  0.5193 -0.0721  0.4082
   60MOL0     C 7854   4.423   9.454   6.241  1.5135 -0.6905  0.3863
   60MOL0     H 7855   4.173   9.346   6.655  1.2956  0.0368 -3.6244
   60MOL0     H 7856   3.974   9.449   6.769  1.2343 -1.6414  0.3575
   60MOL0     H 7857   3.738   9.393   6.856 -0.9366  0.0914  0.9921
   60MOL0     H 7858   3.678   9.267   6.758  1.1713 -0.2612  2.9960
   60MOL0     H 7859   3.512   9.381   6.909 -1.8745  1.1739 -0.5277
   60MOL0     H 7860   3.453   9.365   6.743 -0.1167  0.5123 -0.7066
   60MOL0     H 7861   3.406   9.583   6.854  0.4570  0.2426 -0.1830
   60MOL0     H 7862   3.490   9.611   6.708 -1.9545  2.4125  0.5213
   60MOL0     H 7863   3.634   9.603   6.981  1.1588  0.8213  0.1930
   60MOL0     H 7864   3.705   9.674   6.831  0.6549  0.3245 -0.2500
   60MOL0     H 7865   3.468   9.789   6.972 -0.9648  3.4052  1.0467
   60MOL0     H 7866   3.566   9.859   6.835  0.6729 -0.0476  0.6221
   60MOL0     H 7867   3.749   9.893   6.972 -0.2390 -2.1411 -0.9911
   60MOL0     H 7868   3.706   9.783   7.101 -1.8393 -2.0423 -1.3057
   60MOL0     H 7869   3.568  10.051   7.033 -2.1159 -1.0350 -0.0454
   60MOL0     H 7870   3.511   9.935   7.153  0.3700  0.4932  0.0839
   60MOL0     H 7871   3.771  10.080   7.162  0.8513 -2.3848 -0.9734
   60MOL0     H 7872   3.712   9.958   7.278 -0.8681 -0.4781 -1.6034
   60MOL0     H 7873   3.534  10.300   7.166 -1.7884 -1.9547 -1.6883
   60MOL0     H 7874   3.280  10.346   7.398  1.0114  0.9360  4.3756
   60MOL0     H 7875   3.383  10.446   7.284  2.1410  0.9903  0.6993
   60MOL0     H 7876   3.529  10.510   7.478  0.7483  1.3420  3.3908
   60MOL0     H 7877   3.434  10.418   7.588 -2.7636  0.0705  0.3499
   60MOL0     H 7878   3.390  10.672   7.576 -0.6541  1.7106  0.1470
   60MOL0     H 7879   3.317  10.651   7.423  5.1714 -0.2853 -1.4304
   60MOL0     H 7880   3.209  10.567   7.693 -1.1479 -2.7178 -0.2123
   60MOL0     H 7881   3.173  10.469   7.554  2.9379 -1.1454  1.5799
   60MOL0     H 7882   2.974  10.490   7.704 -2.2156 -0.9533  0.9542
   60MOL0     H 7883   2.741  10.538   7.798  2.9224 -0.3517  2.7390
   60MOL0     H 7884   2.327  10.829   7.664 -0.9922 -1.1318  0.3970
   60MOL0     H 7885   2.105  10.933   7.732 -1.3509  0.1830  2.3611
   60MOL0     H 7886   1.938  10.958   7.862 -2.7148  0.7080 -1.8725
   60MOL0     H 7887   1.959  11.108   7.763  1.8693  0.8568 -0.3226
   60MOL0     H 7888   1.755  11.163   7.853  1.4168 -4.0947 -3.3899
   60MOL0     H 7889   1.845  11.207   8.006  1.3061  0.0634 -0.6129
   60MOL0     H 7890   1.808  10.966   8.075 -2.1952 -2.8784 -0.7347
   60MOL0     H 7891   1.721  10.927   7.950 -0.8553 -1.4377  1.2270
   60MOL0     H 7892   1.639  11.149   8.134  1.5668  0.0795  0.0130
   60MOL0     H 7893   1.552  11.077   7.990  1.1702 -1.9757 -0.4283
   60MOL0     H 7894   1.641  10.949   8.257  1.5194  0.3702 -1.5964
   60MOL0     H 7895   1.580  10.847   8.123  0.7293 -0.7024 -0.7600
   60MOL0     H 7896   1.442  11.077   8.276 -1.6776  0.0851  0.2156
   60MOL0     H 7897   1.419  10.914   8.319  0.7967  0.6564  0.6095
   60MOL0     H 7898   1.339  11.044   8.054  2.3810  2.4205  1.6204
   60MOL0     H 7899   1.284  10.884   8.094  3.5782  0.7355 -1.5404
   60MOL0     H 7900   1.176  11.000   8.312  0.4766  0.2678  0.2113
   60MOL0     H 7901   1.106  11.032   8.153  1.5344  0.2060 -2.5247
   60MOL0     H 7902   2.292  11.123   8.062  1.3645  3.2928 -0.8909
   60MOL0     H 7903   2.530  11.066   7.957  1.2906  1.6701 -4.2945
   60MOL0     H 7904   2.744  10.924   7.598  3.0808  1.1349 -2.1538
   60MOL0     H 7905   2.979  10.864   7.514 -2.0466  0.4151 -1.1261
   60MOL0     H 7906   3.731   9.349   6.429  2.0119  1.3525 -2.6703
   60MOL0     H 7907   3.938   9.255   6.315  1.8890 -2.6018  0.4651
   60MOL0     H 7908   4.424   9.167   6.398 -2.0362 -1.1787 -1.9665
   60MOL0     H 7909   4.688   9.191   6.326  0.8098  0.2029  2.7128
   60MOL0     H 7910   4.833   9.567   6.174 -1.2737 -1.8423  0.1145
   60MOL0     H 7911   4.784   9.490   6.031 -1.0437  1.1206 -0.8007
   60MOL0     H 7912   5.066   9.480   6.176  0.2604 -0.3457  0.3499
   60MOL0     H 7913   4.999   9.351   6.068 -2.3870 -0.9080  3.5442
   60MOL0     H 7914   5.006   9.654   6.028  3.8511  0.9106  1.6462
   60MOL0     H 7915   4.979   9.531   5.895 -0.4204 -2.1070  1.1742
   60MOL0     H 7916   5.237   9.608   6.036 -0.3026 -3.4696  1.6072
   60MOL0     H 7917   5.215   9.473   5.921  0.4547 -0.5389  1.7407
   60MOL0     H 7918   5.258   9.835   5.698 -1.4126 -0.3066 -0.4350
   60MOL0     H 7919   4.595   9.525   6.117 -1.5273  0.3437 -0.4227
   60MOL0     H 7920   4.366   9.542   6.210  1.7390 -0.8701 -0.5911
   61MOL0     O 7921   2.810   6.856   8.036  0.0451 -0.5085  0.3850
   61MOL0     C 7922   2.889   6.908   7.963  0.0127 -0.7671  0.1435
   61MOL0     O 7923   2.868   6.996   7.862 -0.6334  0.1738  0.0529
   61MOL0     C 7924   2.735   7.012   7.822  1.1676  0.4243 -0.9806
   61MOL0     C 7925   2.688   7.145   7.807  0.0493  0.3509  0.9427
   61MOL0     C 7926   2.568   7.176   7.755 -0.3462  0.6632 -0.0776
   61MOL0     C 7927   2.475   7.074   7.742  0.3204  0.9488  0.8077
   61MOL0     O 7928   2.351   7.104   7.710  0.7503  0.2672  0.5798
   61MOL0     C 7929   2.265   7.012   7.642  0.4553  0.0016 -1.0345
   61MOL0     C 7930   2.134   7.066   7.683 -0.1611 -0.8367  0.0326
   61MOL0     C 7931   2.076   7.024   7.820 -0.1141 -0.3395  0.4488
   61MOL0     C 7932   1.925   7.053   7.818  0.3649  0.9110 -0.0727
   61MOL0     C 7933   1.860   7.012   7.952 -0.8516 -0.5258  0.0619
   61MOL0     C 7934   1.719   7.068   7.958  0.1674 -0.1066  0.1584
   61MOL0     C 7935   1.719   7.225   7.997  1.1268  0.1374 -0.2612
   61MOL0     C 7936   1.585   7.301   7.963  0.3459 -0.7789 -0.3669
   61MOL0     N 7937   1.483   7.297   8.076 -0.2115  0.9549  0.0099
   61MOL0     C 7938   1.418   7.185   8.123  1.0359 -1.2944 -0.6461
   61MOL0     C 7939   1.369   7.231   8.240  0.7942  0.0352 -0.1789
   61MOL0     C 7940   1.308   7.140   8.355  0.9632 -0.0266  0.4052
   61MOL0     C 7941   1.186   7.208   8.410 -0.0742 -0.4376  0.1907
   61MOL0     C 7942   1.126   7.125   8.530 -0.6925 -0.1298 -0.4171
   61MOL0     C 7943   0.982   7.167   8.549  0.6139 -0.1079 -0.8429
   61MOL0     O 7944   0.899   7.120   8.450 -0.2112  0.1675 -0.0289
   61MOL0     C 7945   0.773   7.071   8.478 -0.9542  0.0928 -0.2996
   61MOL0     C 7946   0.723   6.954   8.424 -0.9744  0.4906 -0.6095
   61MOL0     C 7947   0.605   6.894   8.471 -0.6966 -0.2919 -0.4699
   61MOL0     C 7948   0.530   6.949   8.576  0.2043 -0.2391  0.5549
   61MOL0     C 7949   0.405   6.901   8.626 -0.3958  0.9099 -0.5425
   61MOL0     O 7950   0.376   6.938   8.760 -0.4913  1.1240  0.3583
   61MOL0     C 7951   0.263   6.901   8.819 -0.0063 -0.4481 -0.2783
   61MOL0     C 7952   0.210   6.771   8.823 -1.4650 -0.4378 -1.4342
   61MOL0     C 7953   0.082   6.743   8.858  0.2026  0.2525 -0.4418
   61MOL0     C 7954   0.003   6.836   8.929 -0.4982  0.0294  0.0603
   61MOL0     O 7955  -0.118   6.792   8.982  0.0985  0.4434  0.2037
   61MOL0     C 7956  -0.195   6.897   9.053 -0.7168 -0.5491  0.7433
   61MOL0     C 7957  -0.274   6.985   8.954  0.5761  0.1683  0.2471
   61MOL0     C 7958  -0.375   6.902   8.883  0.3888 -0.2653 -0.0542
   61MOL0     C 7959  -0.454   6.980   8.779 -1.0791  0.3438  1.0006
   61MOL0     C 7960  -0.600   6.933   8.747  0.0779 -0.6165 -0.5933
   61MOL0     C 7961  -0.610   6.792   8.686 -0.7972 -0.3811 -1.2172
   61MOL0     C 7962  -0.733   6.779   8.607 -0.0026  0.0150  0.2386
   61MOL0     C 7963  -0.745   6.630   8.548  1.1196 -0.6485  0.2633
   61MOL0    Cl 7964  -0.899   6.611   8.456  0.2928 -0.0154  0.0376
   61MOL0     C 7965   0.059   6.970   8.945 -0.3984  0.9399 -0.0407
   61MOL0     C 7966   0.186   6.997   8.886  0.0605 -0.5704  0.3665
   61MOL0     O 7967   0.337   6.830   8.552  0.7763 -0.4907 -0.0970
   61MOL0     C 7968   0.584   7.066   8.630 -0.6770 -0.0060 -0.7068
   61MOL0     C 7969   0.699   7.123   8.581  0.0549 -0.1460 -0.1693
   61MOL0     N 7970   1.405   7.366   8.260 -0.0543  0.3276  0.2686
   61MOL0     N 7971   1.463   7.406   8.154 -0.4247 -0.0508 -0.3550
   61MOL0     C 7972   2.512   6.939   7.778 -0.5287 -0.0761  0.5539
   61MOL0     C 7973   2.638   6.910   7.809  0.4733  0.7425  0.1307
   61MOL0     C 7974   3.032   6.862   7.977  0.0959  0.3129 -0.0348
   61MOL0     C 7975   3.128   6.937   7.916 -0.5131  0.6305 -0.4046
   61MOL0     C 7976   3.266   6.900   7.914  1.4966  0.4317 -0.6389
   61MOL0     C 7977   3.305   6.801   8.005 -0.6865  0.2885 -0.6269
   61MOL0     O 7978   3.433   6.761   8.043 -0.4383 -1.1239  0.5626
   61MOL0     C 7979   3.530   6.817   7.957  0.2022 -0.1359  0.4862
   61MOL0     C 7980   3.674   6.752   7.979  0.3099 -0.3155  0.3978
   61MOL0     C 7981   3.745   6.813   8.097 -0.7584 -0.6614 -0.1515
   61MOL0     C 7982   3.882   6.745   8.121 -0.3351  0.1134  0.5732
   61MOL0     C 7983   3.982   6.795   8.029  0.1774 -0.8871  0.6714
   61MOL0     C 7984   4.061   6.833   7.946 -0.8918  1.0557  0.4666
   61MOL0     C 7985   3.214   6.713   8.063  0.0019 -0.1397  0.1875
   61MOL0     C 7986   3.071   6.747   8.049  0.5163 -0.5458 -0.5319
   61MOL0     H 7987   2.763   7.222   7.822  1.5546 -0.9739  0.4728
   61MOL0     H 7988   2.526   7.276   7.759 -3.2951 -0.5012  1.6736
   61MOL0     H 7989   2.255   6.907   7.671 -4.5900  0.9545  1.8724
   61MOL0     H 7990   2.277   7.019   7.533 -1.1211  1.6051 -1.1460
   61MOL0     H 7991   2.065   7.042   7.601 -0.5242 -2.3334  0.7522
   61MOL0     H 7992   2.140   7.175   7.674  1.5193 -0.8508  0.7617
   61MOL0     H 7993   2.126   7.075   7.903 -1.3351  2.5070 -0.4247
   61MOL0     H 7994   2.097   6.917   7.833 -0.0690 -0.4167 -0.2276
   61MOL0     H 7995   1.913   7.159   7.797  0.5643  0.6793 -1.4920
   61MOL0     H 7996   1.881   7.002   7.732  1.6520  0.4993 -0.5198
   61MOL0     H 7997   1.915   7.051   8.039 -2.0209 -1.6212  1.3383
   61MOL0     H 7998   1.864   6.903   7.960  3.1520 -0.7604 -2.2725
   61MOL0     H 7999   1.646   7.012   8.017 -0.8407  0.6533 -0.3266
   61MOL0     H 8000   1.675   7.056   7.858 -1.3003 -2.0846  0.9664
   61MOL0     H 8001   1.730   7.240   8.105  0.4923  2.5943 -0.4781
   61MOL0     H 8002   1.799   7.280   7.946  1.9738  1.4045  2.2416
   61MOL0     H 8003   1.543   7.246   7.879  0.8984 -2.9896  0.7224
   61MOL0     H 8004   1.599   7.405   7.933 -1.3693 -0.7281 -1.1082
   61MOL0     H 8005   1.414   7.089   8.074  3.1571 -0.6346 -2.2572
   61MOL0     H 8006   1.386   7.133   8.432 -0.3395  1.0571  1.8832
   61MOL0     H 8007   1.288   7.041   8.315 -0.3456  0.6387 -0.6746
   61MOL0     H 8008   1.110   7.219   8.333  1.1168 -1.6476 -1.2187
   61MOL0     H 8009   1.218   7.305   8.450 -0.0522  1.3530 -3.7507
   61MOL0     H 8010   1.140   7.019   8.509  2.0359  0.0557  0.1840
   61MOL0     H 8011   1.186   7.134   8.621  0.9142 -2.2020 -1.1974
   61MOL0     H 8012   0.989   7.275   8.567  0.0048  0.2174 -2.3892
   61MOL0     H 8013   0.943   7.119   8.639  1.1362 -1.6785 -1.4266
   61MOL0     H 8014   0.783   6.902   8.351  0.3661  0.7545  0.2499
   61MOL0     H 8015   0.573   6.799   8.430  1.9818 -1.1192 -0.7807
   61MOL0     H 8016   0.269   6.691   8.781 -0.5787 -0.7775  0.3600
   61MOL0     H 8017   0.026   6.653   8.837 -0.1652  0.1996  0.7060
   61MOL0     H 8018  -0.133   6.967   9.111  0.7138 -0.7636 -0.4635
   61MOL0     H 8019  -0.271   6.848   9.115 -1.6913  0.0799  0.0618
   61MOL0     H 8020  -0.213   7.046   8.886  0.0408  1.9821  1.3389
   61MOL0     H 8021  -0.331   7.053   9.017 -0.4206  0.8923 -1.3742
   61MOL0     H 8022  -0.444   6.866   8.960  1.8592  1.8432  2.4166
   61MOL0     H 8023  -0.326   6.823   8.826 -0.3099 -0.9182  0.2346
   61MOL0     H 8024  -0.448   7.088   8.799  1.3542  0.4989 -0.1967
   61MOL0     H 8025  -0.402   6.967   8.684 -0.7735 -1.8189  1.4133
   61MOL0     H 8026  -0.648   7.002   8.678 -1.6961  1.0840  2.1693
   61MOL0     H 8027  -0.669   6.939   8.832  1.3791 -2.3192  0.6657
   61MOL0     H 8028  -0.613   6.726   8.773  1.5564 -1.7371 -2.0736
   61MOL0     H 8029  -0.513   6.760   8.646  0.4937 -1.3451  2.2798
   61MOL0     H 8030  -0.825   6.814   8.655 -2.0436 -2.2897 -1.7241
   61MOL0     H 8031  -0.720   6.851   8.526  0.0726  0.1731  0.3895
   61MOL0     H 8032  -0.735   6.554   8.626  2.2520 -0.2468  0.5319
   61MOL0     H 8033  -0.669   6.607   8.473 -0.4542 -2.5193 -0.8683
   61MOL0     H 8034   0.016   7.054   8.999 -0.2177 -0.1218  1.8807
   61MOL0     H 8035   0.221   7.099   8.899  0.1754 -0.7134  1.2690
   61MOL0     H 8036   0.526   7.123   8.704 -2.2695  0.8181 -2.5025
   61MOL0     H 8037   0.718   7.215   8.635 -0.5910 -0.0610 -0.0771
   61MOL0     H 8038   2.454   6.849   7.761  2.3095 -1.6534 -1.6660
   61MOL0     H 8039   2.660   6.806   7.830 -2.2620  0.3972  1.8463
   61MOL0     H 8040   3.109   7.029   7.861  1.0212  0.5071 -1.2044
   61MOL0     H 8041   3.333   6.960   7.854 -0.4664  2.4983 -0.9245
   61MOL0     H 8042   3.548   6.922   7.980 -0.1454  0.1022 -0.3061
   61MOL0     H 8043   3.500   6.811   7.852  1.1358  4.8737 -0.3075
   61MOL0     H 8044   3.660   6.645   7.997  2.4499 -1.8632 -5.0590
   61MOL0     H 8045   3.725   6.756   7.882 -2.1643  1.4190 -0.9582
   61MOL0     H 8046   3.692   6.777   8.186  2.4301  0.6504  2.4951
   61MOL0     H 8047   3.748   6.922   8.092  0.3396 -0.7017 -0.5322
   61MOL0     H 8048   3.913   6.778   8.221 -0.7801 -2.2507  1.5623
   61MOL0     H 8049   3.877   6.637   8.110  0.6552  0.0472  0.6981
   61MOL0     H 8050   4.136   6.867   7.877 -0.3429  1.4284  1.2361
   61MOL0     H 8051   3.244   6.626   8.121  0.4370 -0.0602  0.0843
   61MOL0     H 8052   2.989   6.684   8.084  3.1282 -4.2022 -0.3565
   62MOL0     O 8053  10.257   4.636   3.686  0.2731  0.4213 -0.2027
   62MOL0     C 8054  10.363   4.582   3.702 -0.9795  0.3430 -0.6972
   62MOL0     O 8055  10.403   4.521   3.815 -0.0580 -0.6343  0.4191
   62MOL0     C 8056  10.307   4.497   3.909  0.8855  0.0007  0.9826
   62MOL0     C 8057  10.284   4.371   3.959 -0.2099  0.0233 -0.3934
   62MOL0     C 8058  10.215   4.360   4.074  0.4260 -0.1576  0.1436
   62MOL0     C 8059  10.144   4.459   4.132 -0.8135 -0.1841  1.0190
   62MOL0     O 8060  10.066   4.447   4.244  1.0243  0.7228  0.7373
   62MOL0     C 8061  10.077   4.336   4.336  0.4339 -0.5919 -0.0706
   62MOL0     C 8062  10.006   4.382   4.463 -0.2911  0.2594  0.3749
   62MOL0     C 8063  10.080   4.325   4.595  0.4387  0.1688  0.7382
   62MOL0     C 8064   9.990   4.362   4.719  0.4469  0.6514 -0.0937
   62MOL0     C 8065  10.008   4.262   4.836  0.5417 -0.6059 -0.7090
   62MOL0     C 8066  10.143   4.270   4.914 -0.0061  0.3402 -0.1914
   62MOL0     C 8067  10.153   4.162   5.025 -0.3352  0.8700  0.0998
   62MOL0     C 8068  10.225   4.214   5.148 -0.2102 -0.5392 -0.1457
   62MOL0     N 8069  10.300   4.117   5.227 -0.2125  0.3390 -0.1131
   62MOL0     C 8070  10.390   4.038   5.178 -0.6244  0.3417  0.4236
   62MOL0     C 8071  10.439   3.976   5.287  0.3800 -0.1509  0.5596
   62MOL0     C 8072  10.562   3.888   5.292  0.5625 -0.2944 -0.2084
   62MOL0     C 8073  10.536   3.754   5.356  0.1630 -0.1862 -0.7044
   62MOL0     C 8074  10.528   3.741   5.516 -0.3999 -0.0796 -0.0915
   62MOL0     C 8075  10.656   3.784   5.593  0.4088  0.1560  0.0168
   62MOL0     O 8076  10.775   3.721   5.545 -0.1583  0.9360  0.3601
   62MOL0     C 8077  10.896   3.716   5.615 -0.2547 -0.0960  0.3950
   62MOL0     C 8078  11.001   3.633   5.571  0.3290 -0.4412  0.1930
   62MOL0     C 8079  11.107   3.618   5.652 -0.4245  0.2792  0.3529
   62MOL0     C 8080  11.116   3.680   5.776  0.5541 -0.9154 -1.0132
   62MOL0     C 8081  11.231   3.649   5.863 -0.4211  0.3797 -0.6320
   62MOL0     O 8082  11.286   3.519   5.860 -0.3938  0.1467 -0.6527
   62MOL0     C 8083  11.371   3.485   5.969  0.3061  0.0586 -0.3418
   62MOL0     C 8084  11.335   3.482   6.102  0.6783  0.4542  0.4421
   62MOL0     C 8085  11.434   3.446   6.194 -0.3851  0.8387 -0.8433
   62MOL0     C 8086  11.568   3.423   6.160 -1.3705 -0.1241 -0.1992
   62MOL0     O 8087  11.653   3.397   6.266 -0.6957  0.8731 -0.0825
   62MOL0     C 8088  11.782   3.460   6.259 -1.0136  0.4174 -0.3656
   62MOL0     C 8089  11.864   3.426   6.383 -0.2744  0.0971 -0.8085
   62MOL0     C 8090  11.781   3.463   6.516  0.3495 -0.6031  0.0979
   62MOL0     C 8091  11.848   3.406   6.632  0.3419 -0.0914  0.3286
   62MOL0     C 8092  11.778   3.438   6.759  0.0986 -1.2019  0.3351
   62MOL0     C 8093  11.822   3.357   6.878  0.7620  0.4760  0.3905
   62MOL0     C 8094  11.694   3.317   6.950 -0.0406  0.2394 -0.3696
   62MOL0     C 8095  11.642   3.444   7.022  0.4755 -0.2471  0.2098
   62MOL0    Cl 8096  11.492   3.388   7.104  0.4558 -0.8904 -0.3066
   62MOL0     C 8097  11.606   3.433   6.027  1.2029  0.1540  0.1353
   62MOL0     C 8098  11.501   3.458   5.933 -0.0216 -0.0359 -0.2741
   62MOL0     O 8099  11.263   3.740   5.940 -0.1546 -0.0774  0.1924
   62MOL0     C 8100  11.022   3.786   5.804 -1.1121 -0.3035 -0.1454
   62MOL0     C 8101  10.917   3.800   5.731 -0.4882  0.5545 -0.8206
   62MOL0     N 8102  10.384   4.026   5.402 -0.6934 -0.6751 -0.4698
   62MOL0     N 8103  10.297   4.111   5.366  0.2643 -0.1704  0.2716
   62MOL0     C 8104  10.156   4.590   4.071  0.0412 -0.8992 -0.0295
   62MOL0     C 8105  10.235   4.609   3.958 -0.2738 -0.7436 -0.6661
   62MOL0     C 8106  10.465   4.591   3.602  0.5946 -0.5221 -0.5685
   62MOL0     C 8107  10.458   4.695   3.513  0.0942  0.9404 -0.4755
   62MOL0     C 8108  10.568   4.723   3.430 -0.4843  0.3073 -0.5601
   62MOL0     C 8109  10.685   4.643   3.432 -1.2713  0.0150 -0.1819
   62MOL0     O 8110  10.789   4.668   3.345 -0.5522 -0.9629  0.1294
   62MOL0     C 8111  10.922   4.728   3.391  0.2101  0.9622  0.6230
   62MOL0     C 8112  10.979   4.844   3.304 -0.3476 -0.3005  0.5318
   62MOL0     C 8113  10.909   4.864   3.166  0.3804 -0.5137  0.6210
   62MOL0     C 8114  10.950   4.999   3.098  0.9002  1.2764 -0.0475
   62MOL0     C 8115  11.059   4.963   3.011 -0.8200 -0.7750 -0.7634
   62MOL0     C 8116  11.171   4.947   2.963  0.1276 -0.3939  0.5603
   62MOL0     C 8117  10.697   4.537   3.524 -0.5511 -0.8276  0.1085
   62MOL0     C 8118  10.585   4.518   3.612  0.3056  1.1506 -0.6755
   62MOL0     H 8119  10.344   4.287   3.925  2.4697  1.2937  0.8315
   62MOL0     H 8120  10.221   4.256   4.107  3.3256 -1.1558 -2.9778
   62MOL0     H 8121  10.184   4.321   4.355  1.0943  1.6634 -1.6173
   62MOL0     H 8122  10.034   4.244   4.296  2.0264 -1.8107  0.9087
   62MOL0     H 8123   9.903   4.348   4.478 -0.0446 -0.3401  0.7361
   62MOL0     H 8124  10.013   4.491   4.476  0.7959  0.2449 -0.0461
   62MOL0     H 8125  10.178   4.373   4.606  0.6270 -0.4447  1.9065
   62MOL0     H 8126  10.104   4.222   4.569  2.9979  1.6189 -3.6639
   62MOL0     H 8127  10.008   4.464   4.754 -1.0995  1.0795 -0.4687
   62MOL0     H 8128   9.882   4.363   4.703 -0.2625 -0.0648  3.6267
   62MOL0     H 8129   9.994   4.161   4.795  1.3834 -0.7471 -0.6587
   62MOL0     H 8130   9.933   4.289   4.911 -1.1393 -0.7765 -2.2526
   62MOL0     H 8131  10.161   4.371   4.953  2.0013 -0.1853  0.3501
   62MOL0     H 8132  10.217   4.261   4.834 -0.9413  2.6887 -1.4398
   62MOL0     H 8133  10.052   4.130   5.052  0.4306 -0.2903  1.8559
   62MOL0     H 8134  10.195   4.067   4.992 -0.1697  1.0260 -0.1407
   62MOL0     H 8135  10.156   4.270   5.212  1.3322  2.2212 -0.7034
   62MOL0     H 8136  10.291   4.298   5.123 -0.5048 -0.5428 -0.9939
   62MOL0     H 8137  10.417   4.012   5.076  1.5460 -1.7968  1.4465
   62MOL0     H 8138  10.637   3.949   5.344 -1.0853 -0.6944  2.8938
   62MOL0     H 8139  10.590   3.871   5.188 -1.4046  2.1832 -1.2462
   62MOL0     H 8140  10.613   3.683   5.324  0.0434 -0.7909  0.2784
   62MOL0     H 8141  10.440   3.719   5.317 -0.7702 -0.4812  1.6713
   62MOL0     H 8142  10.446   3.804   5.550  0.5855  2.3306 -1.9378
   62MOL0     H 8143  10.507   3.636   5.538  1.2876  0.0440  2.6348
   62MOL0     H 8144  10.646   3.761   5.699  2.5662  0.7216  0.3922
   62MOL0     H 8145  10.663   3.892   5.579 -0.9369  0.1112 -1.3009
   62MOL0     H 8146  10.994   3.581   5.476 -0.8841  2.6145 -1.5020
   62MOL0     H 8147  11.188   3.551   5.624  0.2452 -0.2649  3.2357
   62MOL0     H 8148  11.229   3.486   6.125  0.6315  0.6414  0.2000
   62MOL0     H 8149  11.414   3.436   6.301  1.5755 -0.9492 -0.5744
   62MOL0     H 8150  11.770   3.568   6.262 -0.6260  0.4319  1.1496
   62MOL0     H 8151  11.842   3.444   6.169  0.2724  2.1751  0.1371
   62MOL0     H 8152  11.962   3.474   6.381 -1.0357  1.7331 -0.5386
   62MOL0     H 8153  11.871   3.316   6.385 -0.9141 -0.0841  4.1680
   62MOL0     H 8154  11.676   3.431   6.517 -0.4248  1.6946 -0.3557
   62MOL0     H 8155  11.775   3.572   6.525  0.7384 -0.3548 -2.1067
   62MOL0     H 8156  11.856   3.298   6.617  1.3440  0.2248 -1.7181
   62MOL0     H 8157  11.947   3.449   6.648  0.7574 -1.6681  2.6165
   62MOL0     H 8158  11.673   3.412   6.744  0.0988 -1.2303  0.3871
   62MOL0     H 8159  11.789   3.546   6.775 -0.7615 -0.6285 -2.3582
   62MOL0     H 8160  11.892   3.415   6.939  0.1312  0.4291  1.1784
   62MOL0     H 8161  11.865   3.260   6.852  0.3896 -0.3331  2.6037
   62MOL0     H 8162  11.615   3.264   6.895  2.0151 -4.4735  0.6720
   62MOL0     H 8163  11.724   3.234   7.015 -3.3167 -0.7782  0.0490
   62MOL0     H 8164  11.633   3.525   6.949  1.8783  1.2423  1.6054
   62MOL0     H 8165  11.721   3.485   7.086  3.2034 -0.7189 -2.6292
   62MOL0     H 8166  11.700   3.386   6.000  0.1939 -2.0250  0.2681
   62MOL0     H 8167  11.521   3.445   5.827  0.5932  2.4856 -0.5356
   62MOL0     H 8168  11.035   3.831   5.902  1.1687 -3.1644  1.0081
   62MOL0     H 8169  10.841   3.874   5.753 -0.6474 -0.4644  2.5923
   62MOL0     H 8170  10.100   4.672   4.116  3.5794  1.5145  0.4323
   62MOL0     H 8171  10.272   4.708   3.932  2.4584 -1.5317 -0.1284
   62MOL0     H 8172  10.377   4.767   3.518 -0.4871  0.2102  1.9197
   62MOL0     H 8173  10.568   4.811   3.366  2.2266  2.1072  1.7111
   62MOL0     H 8174  10.993   4.644   3.389 -2.8055 -1.9211  3.4387
   62MOL0     H 8175  10.911   4.757   3.496  0.4234  0.9541  0.6487
   62MOL0     H 8176  10.978   4.933   3.368  0.9243 -1.4427  2.2568
   62MOL0     H 8177  11.086   4.828   3.287  0.2781  2.1547  1.7699
   62MOL0     H 8178  10.802   4.884   3.174  0.7692  1.1835  2.7294
   62MOL0     H 8179  10.936   4.774   3.111  0.9443  0.7091 -1.1749
   62MOL0     H 8180  10.859   5.032   3.047  0.1601  0.4578  0.7057
   62MOL0     H 8181  10.964   5.080   3.171 -0.6815 -0.5796  2.5178
   62MOL0     H 8182  11.263   4.920   2.915 -1.6167 -1.6680 -2.3061
   62MOL0     H 8183  10.784   4.471   3.524 -2.2721 -3.2414  0.1369
   62MOL0     H 8184  10.595   4.434   3.680 -0.0744  1.4261 -0.2683
   63MOL0     O 8185  10.140   3.551   8.017  0.0362 -0.8496  0.2814
   63MOL0     C 8186  10.199   3.657   8.030 -0.9854  0.7928 -0.9602
   63MOL0     O 8187  10.149   3.783   8.014  0.5825  0.2512  0.4026
   63MOL0     C 8188  10.018   3.811   8.024 -0.8408 -0.3164  0.1039
   63MOL0     C 8189   9.912   3.732   7.971  0.2647  0.2105  0.0584
   63MOL0     C 8190   9.778   3.755   8.008 -0.3074 -0.6515 -0.5154
   63MOL0     C 8191   9.735   3.867   8.084  0.2619  0.8057 -0.5593
   63MOL0     O 8192   9.603   3.886   8.120 -0.6017  0.1523 -0.3295
   63MOL0     C 8193   9.583   3.953   8.244  0.8984  0.4547  0.2935
   63MOL0     C 8194   9.446   3.912   8.295 -0.1821 -0.7656 -0.0194
   63MOL0     C 8195   9.330   3.968   8.210  0.2647  0.7856 -0.4165
   63MOL0     C 8196   9.195   3.985   8.293  0.3973 -0.1866 -0.4847
   63MOL0     C 8197   9.087   4.020   8.191 -0.2445 -0.1504 -0.3543
   63MOL0     C 8198   8.949   4.040   8.247  1.3133  0.2975 -0.3002
   63MOL0     C 8199   8.844   4.063   8.132  0.1392  0.0117 -0.2435
   63MOL0     C 8200   8.699   4.103   8.177  0.5769  0.4011  1.0124
   63MOL0     N 8201   8.687   4.242   8.221 -0.4881  0.8648  0.2271
   63MOL0     C 8202   8.594   4.328   8.166 -0.1505 -0.0965 -0.3630
   63MOL0     C 8203   8.579   4.435   8.257  0.4588  0.0387 -0.7119
   63MOL0     C 8204   8.491   4.557   8.239  0.5069 -0.1069  0.4476
   63MOL0     C 8205   8.343   4.526   8.215  0.2327  0.1624 -0.0646
   63MOL0     C 8206   8.273   4.440   8.318 -0.2410  0.3927  0.2828
   63MOL0     C 8207   8.122   4.467   8.330 -0.4049 -0.6027  0.4969
   63MOL0     O 8208   8.064   4.416   8.210  0.3069 -0.6712  0.0644
   63MOL0     C 8209   7.929   4.427   8.201 -0.6116 -0.2084  0.1382
   63MOL0     C 8210   7.867   4.354   8.297  0.1552  0.2815  0.2099
   63MOL0     C 8211   7.724   4.355   8.297 -0.1699 -0.4622 -0.1033
   63MOL0     C 8212   7.651   4.425   8.188  0.0663  0.0584  0.2487
   63MOL0     C 8213   7.508   4.432   8.210  0.8939  0.4517 -0.5686
   63MOL0     O 8214   7.439   4.436   8.095 -0.3837  0.0233  0.0160
   63MOL0     C 8215   7.300   4.460   8.101 -0.0880 -0.4020 -0.3539
   63MOL0     C 8216   7.221   4.389   8.012  0.5887  0.0488  0.7689
   63MOL0     C 8217   7.078   4.398   8.011 -0.4338 -0.9461 -1.3420
   63MOL0     C 8218   7.016   4.480   8.108  0.1068 -0.4685 -0.1628
   63MOL0     O 8219   6.878   4.472   8.117 -0.9787  0.3112  0.2351
   63MOL0     C 8220   6.804   4.587   8.070 -0.9419  0.0632  0.4382
   63MOL0     C 8221   6.667   4.594   8.132 -0.1225 -0.3187 -0.4573
   63MOL0     C 8222   6.669   4.597   8.285 -0.8031 -0.8392 -0.2642
   63MOL0     C 8223   6.728   4.735   8.325  1.0681 -0.3225 -0.1194
   63MOL0     C 8224   6.732   4.741   8.481  0.1886  0.3085 -0.0380
   63MOL0     C 8225   6.594   4.785   8.534  0.8601  0.1680 -0.4875
   63MOL0     C 8226   6.593   4.732   8.685  0.1635 -0.0902 -0.4105
   63MOL0     C 8227   6.474   4.771   8.773  0.2343 -0.5513 -0.1075
   63MOL0    Cl 8228   6.320   4.795   8.687 -0.3013  0.0453  0.3121
   63MOL0     C 8229   7.091   4.560   8.195  0.0984 -0.9140  0.1537
   63MOL0     C 8230   7.231   4.550   8.192 -0.5302  0.4878 -0.5585
   63MOL0     O 8231   7.462   4.425   8.328 -0.4850 -0.1081  0.7863
   63MOL0     C 8232   7.720   4.485   8.083 -0.2870 -0.3842  0.2667
   63MOL0     C 8233   7.859   4.489   8.096 -0.6946  0.0335  0.2401
   63MOL0     N 8234   8.662   4.409   8.362  0.8985 -0.5522  0.1896
   63MOL0     N 8235   8.704   4.290   8.346 -0.5279 -0.8689  0.4953
   63MOL0     C 8236   9.838   3.950   8.121  0.5524  0.0444  0.9796
   63MOL0     C 8237   9.972   3.927   8.087  0.2330 -0.1942  0.5309
   63MOL0     C 8238  10.349   3.648   8.032  0.8931  0.6929  0.1847
   63MOL0     C 8239  10.414   3.520   8.008  0.5684  0.7656  0.2581
   63MOL0     C 8240  10.555   3.513   7.994  0.4497 -0.1740 -0.4525
   63MOL0     C 8241  10.627   3.634   8.031  0.6874  1.5599 -0.1291
   63MOL0     O 8242  10.761   3.636   8.049 -0.3681  1.4524  0.2186
   63MOL0     C 8243  10.838   3.702   7.945 -0.3723  0.1730  0.0828
   63MOL0     C 8244  10.949   3.614   7.886  0.5924  1.1558 -0.7865
   63MOL0     C 8245  11.032   3.530   7.985  0.0420 -0.1542 -0.4635
   63MOL0     C 8246  11.155   3.459   7.920  0.5151  0.0373  0.2199
   63MOL0     C 8247  11.112   3.382   7.807 -0.2627 -0.6899  0.1652
   63MOL0     C 8248  11.055   3.327   7.718  0.3717 -0.2646  0.1152
   63MOL0     C 8249  10.564   3.747   8.067  0.2028  0.2903 -0.3587
   63MOL0     C 8250  10.424   3.758   8.069  0.0845 -0.4193 -0.7509
   63MOL0     H 8251   9.932   3.649   7.905 -3.3672 -2.1211  1.6011
   63MOL0     H 8252   9.698   3.683   7.992 -1.0886  0.3841 -1.3972
   63MOL0     H 8253   9.585   4.063   8.243 -2.1466  0.5919  1.2039
   63MOL0     H 8254   9.655   3.919   8.319  2.8240  1.0873 -1.1692
   63MOL0     H 8255   9.441   3.963   8.392  3.2868  1.2339 -0.6940
   63MOL0     H 8256   9.433   3.806   8.317 -0.2423 -0.4981  1.3408
   63MOL0     H 8257   9.323   3.893   8.131  1.0987  1.2216 -0.9248
   63MOL0     H 8258   9.349   4.061   8.156  1.0324 -1.0506 -3.5874
   63MOL0     H 8259   9.173   3.899   8.357 -0.0727 -0.7154 -1.3189
   63MOL0     H 8260   9.209   4.075   8.352  1.6545  2.6259 -4.6139
   63MOL0     H 8261   9.085   3.938   8.119  0.0133  1.9288 -2.9103
   63MOL0     H 8262   9.126   4.104   8.133 -1.6501 -2.3548 -5.0128
   63MOL0     H 8263   8.951   4.134   8.303 -0.0432 -1.4309  2.9158
   63MOL0     H 8264   8.923   3.956   8.312  0.3052  0.8198 -0.0101
   63MOL0     H 8265   8.865   4.146   8.065 -2.0466  0.5504 -0.3411
   63MOL0     H 8266   8.842   3.972   8.071 -0.4648  1.1170 -1.9413
   63MOL0     H 8267   8.663   4.037   8.256  0.3469 -0.6002  0.0944
   63MOL0     H 8268   8.621   4.086   8.102  0.2332 -1.2963  1.7085
   63MOL0     H 8269   8.534   4.328   8.076 -3.2421  2.6776  1.4753
   63MOL0     H 8270   8.526   4.611   8.150 -2.4156  1.3599  0.0630
   63MOL0     H 8271   8.498   4.618   8.330  0.0763 -0.6609  0.8585
   63MOL0     H 8272   8.340   4.471   8.120  2.1781  0.3237 -0.2475
   63MOL0     H 8273   8.295   4.624   8.203 -0.2787 -0.1548 -0.7093
   63MOL0     H 8274   8.303   4.335   8.319  1.0539  0.7298  2.0174
   63MOL0     H 8275   8.328   4.461   8.410 -0.6332  2.7077  0.0489
   63MOL0     H 8276   8.120   4.574   8.352  0.1185 -0.5972  0.5510
   63MOL0     H 8277   8.080   4.412   8.415 -1.1806 -1.7389 -0.5958
   63MOL0     H 8278   7.918   4.284   8.361  5.7704  0.6388 -3.1936
   63MOL0     H 8279   7.668   4.296   8.369  0.3615 -0.9375 -0.0778
   63MOL0     H 8280   7.276   4.318   7.950  1.8693  2.0856 -0.5443
   63MOL0     H 8281   7.034   4.317   7.955  0.4853 -4.9809  3.1538
   63MOL0     H 8282   6.796   4.576   7.961  1.8762 -2.6810  0.3783
   63MOL0     H 8283   6.856   4.682   8.085  0.7888 -0.5293 -1.4078
   63MOL0     H 8284   6.622   4.506   8.085 -0.2091  0.5289 -2.0285
   63MOL0     H 8285   6.620   4.687   8.098  1.9150  0.9700  0.0700
   63MOL0     H 8286   6.736   4.520   8.324  0.4602 -0.4037 -1.4741
   63MOL0     H 8287   6.567   4.571   8.314 -0.7236 -3.0458 -1.6854
   63MOL0     H 8288   6.835   4.737   8.305  1.1856  0.4143  0.5159
   63MOL0     H 8289   6.670   4.815   8.278  0.5336 -0.3453  0.4819
   63MOL0     H 8290   6.814   4.801   8.524  0.2536  1.9017 -2.2455
   63MOL0     H 8291   6.748   4.637   8.513 -0.8051  0.5728  1.4123
   63MOL0     H 8292   6.513   4.747   8.471  0.7215 -3.5954  1.6909
   63MOL0     H 8293   6.604   4.894   8.528 -1.7640  0.6805  2.3498
   63MOL0     H 8294   6.577   4.625   8.670 -2.8304  0.1660  0.3182
   63MOL0     H 8295   6.691   4.755   8.728  0.7515  0.9173 -2.1909
   63MOL0     H 8296   6.500   4.866   8.820  0.6154 -1.6272  1.9531
   63MOL0     H 8297   6.469   4.710   8.863  1.1114  0.8140  0.9096
   63MOL0     H 8298   7.042   4.626   8.267  0.6913 -0.7013  0.3695
   63MOL0     H 8299   7.296   4.597   8.266  0.6127  1.3371 -2.0457
   63MOL0     H 8300   7.672   4.520   7.992  3.2821  1.7585 -0.9495
   63MOL0     H 8301   7.909   4.542   8.016  2.6214 -0.7433  1.6061
   63MOL0     H 8302   9.821   4.044   8.172  1.7930  0.4729  0.6168
   63MOL0     H 8303  10.057   3.981   8.128  1.3516 -2.1497  0.9316
   63MOL0     H 8304  10.342   3.444   7.979 -1.1839  2.5820 -0.3554
   63MOL0     H 8305  10.592   3.413   7.975 -2.4090 -1.7541  1.4700
   63MOL0     H 8306  10.890   3.785   7.994 -3.1049  2.5045 -0.7015
   63MOL0     H 8307  10.778   3.749   7.867  1.7209 -1.2689 -2.5609
   63MOL0     H 8308  10.897   3.544   7.820  0.7142 -0.4895  0.7610
   63MOL0     H 8309  11.020   3.677   7.832  1.4039  0.7674 -0.1940
   63MOL0     H 8310  10.971   3.453   8.032 -1.4049  0.3270 -1.4828
   63MOL0     H 8311  11.077   3.587   8.067 -2.7818 -0.5285  1.4714
   63MOL0     H 8312  11.224   3.540   7.896 -1.5037  1.2249 -2.0326
   63MOL0     H 8313  11.196   3.389   7.993 -1.2085  0.0049  1.2234
   63MOL0     H 8314  10.990   3.286   7.643 -3.0170  0.8626  2.1944
   63MOL0     H 8315  10.626   3.831   8.097  0.3015  0.2133 -0.3439
   63MOL0     H 8316  10.378   3.855   8.087  1.4441  0.0243  0.4940
   64MOL0     O 8317   2.094   4.387   4.821 -0.1284  0.4998  0.0772
   64MOL0     C 8318   2.197   4.336   4.881  0.2649  0.0007  0.3391
   64MOL0     O 8319   2.190   4.247   4.983  0.2478 -0.3439 -0.0397
   64MOL0     C 8320   2.072   4.200   5.034  0.3837 -0.0699  0.4617
   64MOL0     C 8321   2.062   4.197   5.173 -0.8930 -0.6915  0.4347
   64MOL0     C 8322   1.942   4.158   5.239 -0.3770  0.3913  0.0464
   64MOL0     C 8323   1.826   4.134   5.160 -0.4204  0.4917  0.8932
   64MOL0     O 8324   1.702   4.104   5.212  0.0206 -0.0240  0.3634
   64MOL0     C 8325   1.663   4.147   5.340  0.6490 -0.1408 -0.0480
   64MOL0     C 8326   1.679   4.051   5.464  0.0511  0.9574  0.5491
   64MOL0     C 8327   1.628   4.096   5.597 -0.3378 -0.6616  0.7823
   64MOL0     C 8328   1.661   3.998   5.711  0.2369  0.7113  0.2685
   64MOL0     C 8329   1.565   4.009   5.816 -0.1987 -0.2093 -0.2146
   64MOL0     C 8330   1.420   3.951   5.802 -0.2947  0.0357 -0.5553
   64MOL0     C 8331   1.322   4.019   5.900  0.0207 -0.6940  0.5154
   64MOL0     C 8332   1.329   3.983   6.049 -0.3254 -0.4532  0.6849
   64MOL0     N 8333   1.283   3.849   6.090  0.2970  0.1654 -0.0435
   64MOL0     C 8334   1.178   3.778   6.047  0.2748 -0.1342 -0.1442
   64MOL0     C 8335   1.154   3.681   6.139  0.5453  0.2878  0.6496
   64MOL0     C 8336   1.021   3.609   6.166 -0.7352 -0.5527 -0.5259
   64MOL0     C 8337   1.047   3.462   6.198 -0.4953  0.8811 -0.8529
   64MOL0     C 8338   0.909   3.402   6.246  0.1965  0.0719 -0.1826
   64MOL0     C 8339   0.912   3.249   6.238  0.2902  0.0622  0.3891
   64MOL0     O 8340   0.770   3.205   6.266 -0.3730  0.1046 -0.8076
   64MOL0     C 8341   0.734   3.082   6.253  0.2974 -0.1874  0.7857
   64MOL0     C 8342   0.602   3.067   6.202 -0.0961  0.2088  0.7577
   64MOL0     C 8343   0.550   2.939   6.167  0.4583  0.1805 -0.3555
   64MOL0     C 8344   0.614   2.820   6.181 -0.2418 -0.7951  0.3961
   64MOL0     C 8345   0.552   2.686   6.152  0.5412 -0.5248 -0.5649
   64MOL0     O 8346   0.633   2.579   6.188  0.4515  1.0302 -0.1602
   64MOL0     C 8347   0.570   2.455   6.182 -0.1402 -0.2120  0.2848
   64MOL0     C 8348   0.652   2.345   6.143 -0.1824 -0.8258 -0.3171
   64MOL0     C 8349   0.604   2.213   6.136 -0.0553 -0.4958  0.0508
   64MOL0     C 8350   0.476   2.182   6.172  0.3628  0.7959 -0.3704
   64MOL0     O 8351   0.420   2.049   6.149  0.7274 -0.1827  0.2885
   64MOL0     C 8352   0.506   1.936   6.148 -0.0692 -0.3555 -0.1183
   64MOL0     C 8353   0.417   1.811   6.166 -0.2946 -0.3396  0.4442
   64MOL0     C 8354   0.371   1.803   6.312 -0.1157 -0.2970 -0.3429
   64MOL0     C 8355   0.303   1.664   6.333 -0.9076  0.0869  0.4996
   64MOL0     C 8356   0.239   1.631   6.476 -0.1327  0.1672 -0.0345
   64MOL0     C 8357   0.187   1.486   6.490 -0.4839 -0.2986  0.2761
   64MOL0     C 8358   0.121   1.469   6.629  0.5962 -0.3464  0.4451
   64MOL0     C 8359   0.034   1.351   6.624  0.6566 -0.4584  0.6203
   64MOL0    Cl 8360  -0.046   1.341   6.774 -0.3890  0.1839 -0.0598
   64MOL0     C 8361   0.396   2.288   6.218  1.1628  0.4225 -0.4104
   64MOL0     C 8362   0.442   2.419   6.227  1.0848  0.3442 -0.3325
   64MOL0     O 8363   0.435   2.684   6.112 -0.9685 -0.1660 -0.3993
   64MOL0     C 8364   0.742   2.836   6.239  0.2605 -0.1052  0.0801
   64MOL0     C 8365   0.805   2.964   6.260  0.4146  0.3886  0.6439
   64MOL0     N 8366   1.253   3.691   6.234 -0.2002  0.8535 -0.6321
   64MOL0     N 8367   1.327   3.793   6.202  0.3888  0.4728  0.5154
   64MOL0     C 8368   1.838   4.126   5.018  0.1498  0.8546 -0.4070
   64MOL0     C 8369   1.963   4.158   4.957  0.3941  0.3906 -0.4955
   64MOL0     C 8370   2.336   4.390   4.857  0.0296 -0.2915 -0.1010
   64MOL0     C 8371   2.360   4.500   4.783  0.7970  0.3985  0.0522
   64MOL0     C 8372   2.484   4.562   4.768 -0.0328  0.2716  0.7579
   64MOL0     C 8373   2.597   4.508   4.823  0.2399 -0.4101  0.6882
   64MOL0     O 8374   2.716   4.557   4.790  1.0203 -0.0715 -0.8292
   64MOL0     C 8375   2.830   4.538   4.880 -0.4646 -0.3003  0.0081
   64MOL0     C 8376   2.945   4.624   4.833 -0.1267  0.3999 -0.2890
   64MOL0     C 8377   2.911   4.766   4.786 -0.2097  1.4084 -0.1280
   64MOL0     C 8378   2.896   4.854   4.907  0.1369  0.1526 -0.2191
   64MOL0     C 8379   3.034   4.889   4.965  0.5517 -0.0586  0.9323
   64MOL0     C 8380   3.141   4.919   5.016 -0.9570  1.0781 -0.3779
   64MOL0     C 8381   2.575   4.395   4.907  0.3716  0.2684  0.0834
   64MOL0     C 8382   2.449   4.338   4.923 -0.4879  0.4231 -0.1557
   64MOL0     H 8383   2.150   4.218   5.233 -0.4822  1.1333 -0.7264
   64MOL0     H 8384   1.935   4.146   5.346 -1.1114 -2.3774 -0.2463
   64MOL0     H 8385   1.556   4.166   5.323  1.0728  3.3075  0.3945
   64MOL0     H 8386   1.710   4.240   5.372  0.6132 -0.1410  0.0052
   64MOL0     H 8387   1.781   4.014   5.476 -0.4447 -0.4249  0.7422
   64MOL0     H 8388   1.624   3.957   5.448  0.9610  0.5340 -0.1603
   64MOL0     H 8389   1.520   4.114   5.586 -0.5302 -2.3755 -0.4547
   64MOL0     H 8390   1.665   4.194   5.631 -3.0640 -0.7824  4.9092
   64MOL0     H 8391   1.660   3.894   5.678 -0.5805  0.6883  0.3512
   64MOL0     H 8392   1.764   4.022   5.742  1.4936 -1.3093 -2.0664
   64MOL0     H 8393   1.557   4.116   5.839 -2.4891 -0.7424  1.9408
   64MOL0     H 8394   1.618   3.965   5.901  1.8165  2.7994  0.2434
   64MOL0     H 8395   1.416   3.842   5.799  0.7216 -0.0175 -0.2642
   64MOL0     H 8396   1.390   3.969   5.698  1.3872 -1.0794 -1.2672
   64MOL0     H 8397   1.333   4.127   5.892 -0.9237 -0.4863  1.6704
   64MOL0     H 8398   1.222   4.000   5.859  0.2381  1.0005 -0.8736
   64MOL0     H 8399   1.278   4.057   6.111  2.4836  1.3513  0.9907
   64MOL0     H 8400   1.435   3.998   6.070 -0.0895 -0.7111 -0.2456
   64MOL0     H 8401   1.112   3.803   5.965  1.9068 -3.7424 -2.8224
   64MOL0     H 8402   0.962   3.615   6.075 -1.2049  0.6783 -0.1550
   64MOL0     H 8403   0.973   3.661   6.250 -0.0367  2.3273 -1.7851
   64MOL0     H 8404   1.124   3.449   6.275 -0.4141  2.7403 -0.5570
   64MOL0     H 8405   1.091   3.401   6.119 -0.9084  0.2292 -0.5828
   64MOL0     H 8406   0.876   3.448   6.339 -4.5599  0.5655 -1.8526
   64MOL0     H 8407   0.827   3.437   6.182 -1.3411  2.7988  2.9761
   64MOL0     H 8408   0.983   3.200   6.306  1.3903  2.0928  0.7946
   64MOL0     H 8409   0.949   3.214   6.141  0.0628 -1.0659  0.6960
   64MOL0     H 8410   0.555   3.157   6.164 -0.8695 -0.1419  0.8823
   64MOL0     H 8411   0.453   2.931   6.120  0.4244  0.0980 -0.2714
   64MOL0     H 8412   0.756   2.358   6.114 -1.5478  2.1251 -5.1788
   64MOL0     H 8413   0.669   2.130   6.110 -1.9593 -1.5256 -1.6278
   64MOL0     H 8414   0.586   1.949   6.222 -1.0922 -1.6006  1.2807
   64MOL0     H 8415   0.545   1.925   6.047  2.9058 -0.9736  1.0006
   64MOL0     H 8416   0.470   1.726   6.122 -2.7269 -0.6854 -2.1118
   64MOL0     H 8417   0.334   1.829   6.098 -0.0966  0.9103  0.4920
   64MOL0     H 8418   0.293   1.876   6.337  0.0505 -0.6911  1.4694
   64MOL0     H 8419   0.454   1.819   6.381 -1.4818 -0.7787  1.5146
   64MOL0     H 8420   0.219   1.653   6.265 -0.7371 -1.7064  0.5198
   64MOL0     H 8421   0.372   1.583   6.308 -2.7382 -1.3968  0.0900
   64MOL0     H 8422   0.153   1.697   6.488  0.2360  1.1374 -2.2570
   64MOL0     H 8423   0.316   1.649   6.552  0.6760  0.7227 -0.9595
   64MOL0     H 8424   0.275   1.422   6.491 -0.7446 -0.7140 -1.0598
   64MOL0     H 8425   0.118   1.464   6.408 -0.4074  1.8438 -0.4197
   64MOL0     H 8426   0.192   1.451   6.710  1.2359  2.2845  0.5357
   64MOL0     H 8427   0.069   1.562   6.654 -0.3592 -0.5410 -0.7261
   64MOL0     H 8428   0.099   1.265   6.604  2.3781  0.7449  0.8405
   64MOL0     H 8429  -0.045   1.361   6.549 -0.4686  2.8179  2.0530
   64MOL0     H 8430   0.291   2.267   6.237  0.1845  3.5421 -1.6234
   64MOL0     H 8431   0.375   2.491   6.272  2.1213  0.1366  1.6553
   64MOL0     H 8432   0.778   2.739   6.272 -1.3400 -1.1944 -1.1491
   64MOL0     H 8433   0.903   2.975   6.304  0.6344  2.6436 -0.2451
   64MOL0     H 8434   1.760   4.088   4.952  0.4344  1.2193 -0.9639
   64MOL0     H 8435   1.973   4.146   4.850 -0.1052  0.1635 -0.5206
   64MOL0     H 8436   2.268   4.537   4.738 -0.0462 -0.0637  1.3384
   64MOL0     H 8437   2.496   4.633   4.687 -0.0784 -1.0634 -0.4712
   64MOL0     H 8438   2.858   4.433   4.889  1.9148  0.2525 -0.2492
   64MOL0     H 8439   2.807   4.588   4.974 -0.4760 -1.9228  0.9013
   64MOL0     H 8440   3.020   4.625   4.911 -0.5274  1.7133  0.0947
   64MOL0     H 8441   2.979   4.575   4.741 -1.3286 -0.4697 -0.2979
   64MOL0     H 8442   2.824   4.769   4.719 -1.3594  1.8686  1.3285
   64MOL0     H 8443   2.996   4.786   4.720 -0.1815  0.3581 -0.4361
   64MOL0     H 8444   2.846   4.948   4.880  0.7289  0.5770  0.1266
   64MOL0     H 8445   2.840   4.807   4.988  0.8630  1.5168  1.1343
   64MOL0     H 8446   3.240   4.947   5.048 -0.2173 -1.1761 -0.4475
   64MOL0     H 8447   2.656   4.343   4.957 -0.9546 -0.7786  1.2083
   64MOL0     H 8448   2.448   4.251   4.988 -0.5820 -1.2714 -2.2846
   65MOL0     O 8449   8.792   3.934   4.209  0.1624 -0.2078  0.5807
   65MOL0     C 8450   8.810   3.823   4.256  0.5955  0.9848  0.0179
   65MOL0     O 8451   8.714   3.733   4.301 -0.7253  0.0041 -0.2360
   65MOL0     C 8452   8.594   3.778   4.336  0.3287  0.0200  0.2583
   65MOL0     C 8453   8.495   3.689   4.354  0.0063  0.5887 -0.1204
   65MOL0     C 8454   8.366   3.717   4.395 -0.0245 -0.9821 -0.2675
   65MOL0     C 8455   8.337   3.846   4.429 -0.9790  0.2456  0.7517
   65MOL0     O 8456   8.210   3.883   4.451 -0.1080  0.3533 -0.6222
   65MOL0     C 8457   8.157   3.823   4.578 -0.3650 -0.3503  1.1305
   65MOL0     C 8458   8.008   3.836   4.581  0.4980 -0.0734  0.4287
   65MOL0     C 8459   7.942   3.750   4.476  0.0349 -0.1853  0.1998
   65MOL0     C 8460   7.791   3.788   4.455  0.5178 -0.8721 -1.0934
   65MOL0     C 8461   7.736   3.736   4.322 -0.3195 -0.4066  0.3102
   65MOL0     C 8462   7.584   3.759   4.287  0.3636 -0.2285 -0.3600
   65MOL0     C 8463   7.549   3.724   4.147  0.0526  0.4599  1.3241
   65MOL0     C 8464   7.456   3.604   4.144  0.5991 -0.6356  0.9484
   65MOL0     N 8465   7.424   3.578   4.004 -0.4190  0.0679 -0.1525
   65MOL0     C 8466   7.302   3.541   3.968  1.4433  0.1758  1.2057
   65MOL0     C 8467   7.313   3.496   3.842  0.1102 -0.5094 -0.3586
   65MOL0     C 8468   7.196   3.434   3.775  0.5040  0.0252  0.0948
   65MOL0     C 8469   7.178   3.286   3.804 -0.1807  0.4667  0.1896
   65MOL0     C 8470   7.032   3.236   3.772 -0.1410 -1.2345 -0.4829
   65MOL0     C 8471   7.002   3.204   3.624  0.1468 -0.0066  0.0471
   65MOL0     O 8472   6.863   3.219   3.580 -0.5145 -0.6476  0.2306
   65MOL0     C 8473   6.768   3.134   3.625  0.4610  0.4741 -0.9667
   65MOL0     C 8474   6.637   3.166   3.594 -0.3830  0.1919 -0.0521
   65MOL0     C 8475   6.533   3.100   3.647 -0.3903  0.1256 -0.2491
   65MOL0     C 8476   6.552   2.973   3.718 -0.4432  1.5988 -0.4245
   65MOL0     C 8477   6.434   2.889   3.763 -0.5850  0.0312  0.6642
   65MOL0     O 8478   6.322   2.959   3.761 -0.3786 -0.0070  0.5313
   65MOL0     C 8479   6.198   2.894   3.766  0.3149  0.3247  0.9255
   65MOL0     C 8480   6.179   2.752   3.755  0.4905 -0.2812 -0.2167
   65MOL0     C 8481   6.050   2.707   3.752  0.2819 -0.9088 -0.5468
   65MOL0     C 8482   5.938   2.783   3.781  0.5733 -0.1247  0.2469
   65MOL0     O 8483   5.810   2.725   3.774 -0.3962 -0.1157 -0.0760
   65MOL0     C 8484   5.710   2.817   3.724 -0.3609  0.9982 -0.4701
   65MOL0     C 8485   5.601   2.728   3.665 -0.0747  0.0487  0.5422
   65MOL0     C 8486   5.463   2.798   3.653 -0.2066 -1.0579 -0.2117
   65MOL0     C 8487   5.445   2.859   3.511  0.4186 -0.3326  0.3000
   65MOL0     C 8488   5.322   2.935   3.503 -0.1065  0.8597  0.2780
   65MOL0     C 8489   5.326   3.011   3.373  0.5466  1.1566 -0.2181
   65MOL0     C 8490   5.366   3.163   3.386 -0.3421 -0.0632 -0.3036
   65MOL0     C 8491   5.429   3.211   3.253 -0.4397 -0.3017  0.4365
   65MOL0    Cl 8492   5.341   3.172   3.109  0.1629  0.2629  0.1324
   65MOL0     C 8493   5.959   2.918   3.812  0.4725 -0.1348  0.6240
   65MOL0     C 8494   6.087   2.974   3.791  0.4188 -0.7180 -0.6803
   65MOL0     O 8495   6.459   2.780   3.815  0.2838  0.6412  0.4878
   65MOL0     C 8496   6.683   2.941   3.750  0.4049  0.7038  0.5338
   65MOL0     C 8497   6.790   3.019   3.704  0.4836 -0.3136 -0.2699
   65MOL0     N 8498   7.442   3.504   3.806 -0.5280 -0.6024  0.6553
   65MOL0     N 8499   7.511   3.555   3.902 -0.4124  0.1085 -0.9597
   65MOL0     C 8500   8.431   3.950   4.409 -0.2158  0.2715 -0.3412
   65MOL0     C 8501   8.565   3.914   4.370  0.5190  0.6572 -0.9648
   65MOL0     C 8502   8.955   3.772   4.248 -0.0301 -0.6650  0.7884
   65MOL0     C 8503   8.987   3.638   4.247 -0.5916 -0.2212  0.4153
   65MOL0     C 8504   9.123   3.593   4.237 -0.1387  0.1899  0.1424
   65MOL0     C 8505   9.223   3.693   4.217 -0.2506  0.4968 -0.6177
   65MOL0     O 8506   9.352   3.668   4.226 -0.7700 -0.3224 -0.2497
   65MOL0     C 8507   9.411   3.536   4.234 -0.1662  0.0194 -1.1620
   65MOL0     C 8508   9.552   3.527   4.192 -0.0351 -0.3338 -0.2004
   65MOL0     C 8509   9.636   3.638   4.260  0.3115 -0.1227  0.0709
   65MOL0     C 8510   9.790   3.633   4.222  0.1174  0.5099 -0.3764
   65MOL0     C 8511   9.860   3.519   4.280  0.3331  0.3972 -0.7774
   65MOL0     C 8512   9.930   3.431   4.323 -0.6947 -0.1401  0.1239
   65MOL0     C 8513   9.190   3.830   4.222 -0.2684  0.5901  0.2705
   65MOL0     C 8514   9.055   3.871   4.240 -0.2617  0.7673  0.0341
   65MOL0     H 8515   8.521   3.588   4.322  1.5693  0.3842  1.6183
   65MOL0     H 8516   8.286   3.645   4.407  0.6431 -1.5688  0.9549
   65MOL0     H 8517   8.199   3.874   4.665 -1.4642  3.8783 -0.5591
   65MOL0     H 8518   8.181   3.717   4.580  0.7367 -0.3764 -3.2374
   65MOL0     H 8519   7.987   3.943   4.569  3.2440  0.6735  1.6784
   65MOL0     H 8520   7.971   3.809   4.681 -1.5327 -2.1296 -0.7819
   65MOL0     H 8521   7.960   3.645   4.501 -0.1334 -0.0259  1.0095
   65MOL0     H 8522   7.994   3.779   4.384 -3.4583  3.6920 -0.8439
   65MOL0     H 8523   7.741   3.746   4.543  1.1203  1.2910  0.3447
   65MOL0     H 8524   7.759   3.892   4.464 -2.6446 -1.7135 -1.3779
   65MOL0     H 8525   7.763   3.630   4.325  1.3528 -0.0370 -0.4620
   65MOL0     H 8526   7.792   3.789   4.244  0.9545  0.2149  1.5789
   65MOL0     H 8527   7.564   3.866   4.292 -3.2801 -0.8165  0.0179
   65MOL0     H 8528   7.524   3.722   4.371  0.2945  1.6761  0.4777
   65MOL0     H 8529   7.499   3.808   4.097 -1.2325  0.0682  1.9067
   65MOL0     H 8530   7.639   3.702   4.088 -1.6465 -1.2960 -0.7961
   65MOL0     H 8531   7.369   3.632   4.204  0.0133 -0.7958  0.1998
   65MOL0     H 8532   7.508   3.519   4.189  0.9867 -1.0430 -0.2127
   65MOL0     H 8533   7.219   3.535   4.037 -1.0843 -1.3686 -1.6971
   65MOL0     H 8534   7.205   3.440   3.666 -1.8587 -0.2930 -0.1587
   65MOL0     H 8535   7.110   3.495   3.801  1.5232  0.6412  2.2622
   65MOL0     H 8536   7.187   3.267   3.911 -3.8249 -2.0645  0.2303
   65MOL0     H 8537   7.253   3.231   3.745  2.3242  1.9184  1.8379
   65MOL0     H 8538   7.009   3.151   3.836 -1.9414 -1.6049 -1.5621
   65MOL0     H 8539   6.965   3.310   3.817  0.3410 -1.6507  0.9578
   65MOL0     H 8540   7.052   3.111   3.596  0.5608  0.6068 -1.3103
   65MOL0     H 8541   7.058   3.276   3.564 -1.7407  0.3739 -1.3488
   65MOL0     H 8542   6.606   3.254   3.539 -1.9120 -1.7786 -2.6211
   65MOL0     H 8543   6.427   3.123   3.641 -0.1141  1.2529 -1.2092
   65MOL0     H 8544   6.260   2.684   3.730  1.1137 -0.0551  1.1293
   65MOL0     H 8545   6.031   2.604   3.723  1.9308 -1.5577  0.5296
   65MOL0     H 8546   5.757   2.876   3.645  1.3225  1.8494  1.0892
   65MOL0     H 8547   5.678   2.864   3.817 -1.7722 -2.1067  0.7413
   65MOL0     H 8548   5.576   2.649   3.735 -1.7201 -2.4522 -2.5864
   65MOL0     H 8549   5.635   2.674   3.575 -1.1517 -2.5643  1.6133
   65MOL0     H 8550   5.463   2.883   3.722 -0.1570 -1.1347 -0.1178
   65MOL0     H 8551   5.373   2.737   3.668 -0.6849 -0.0882  1.0731
   65MOL0     H 8552   5.535   2.922   3.506  0.4453 -0.4386 -0.9839
   65MOL0     H 8553   5.438   2.777   3.438 -1.9928  2.0130 -2.3413
   65MOL0     H 8554   5.327   3.003   3.588  1.3955 -0.1549  1.0358
   65MOL0     H 8555   5.223   2.888   3.506  0.2352  0.1392  0.5911
   65MOL0     H 8556   5.226   3.007   3.328  0.4920  0.3427 -0.0329
   65MOL0     H 8557   5.393   2.960   3.304 -0.9676 -2.0336  0.4545
   65MOL0     H 8558   5.277   3.222   3.408 -0.2604 -0.5539  1.5479
   65MOL0     H 8559   5.446   3.158   3.461 -1.0401 -3.1660  0.3973
   65MOL0     H 8560   5.532   3.171   3.254 -0.7512 -1.2397 -1.3614
   65MOL0     H 8561   5.444   3.319   3.252  1.4423 -0.4813  1.8952
   65MOL0     H 8562   5.876   2.981   3.841 -0.0557 -1.1219  1.2907
   65MOL0     H 8563   6.101   3.081   3.803 -0.3125 -0.5222 -1.4884
   65MOL0     H 8564   6.704   2.847   3.799 -3.4418  0.3807  1.8598
   65MOL0     H 8565   6.890   2.981   3.723  0.9949 -0.7842 -3.2710
   65MOL0     H 8566   8.396   4.047   4.442 -2.7735 -1.6734  3.4833
   65MOL0     H 8567   8.638   3.992   4.387  1.6916 -0.3992 -1.0573
   65MOL0     H 8568   8.912   3.561   4.259 -0.9210  0.3580  2.4659
   65MOL0     H 8569   9.146   3.489   4.259  0.2821 -0.0918 -1.4964
   65MOL0     H 8570   9.354   3.464   4.174 -1.6655  0.2796 -0.1261
   65MOL0     H 8571   9.398   3.506   4.338  1.1175 -0.3395 -1.0994
   65MOL0     H 8572   9.592   3.427   4.211  0.0768 -0.9385 -3.1230
   65MOL0     H 8573   9.547   3.533   4.083 -0.3671  0.6292 -0.1384
   65MOL0     H 8574   9.631   3.634   4.370 -2.5132 -0.5815 -0.0055
   65MOL0     H 8575   9.603   3.735   4.224  1.5524  1.1602  2.1447
   65MOL0     H 8576   9.793   3.642   4.113 -0.4421  0.4440 -0.3989
   65MOL0     H 8577   9.831   3.722   4.271 -1.8836  0.1884  2.0789
   65MOL0     H 8578   9.973   3.338   4.355  1.8250  1.2754  1.1872
   65MOL0     H 8579   9.267   3.906   4.226  1.8909 -1.5112  1.3997
   65MOL0     H 8580   9.042   3.978   4.258  1.8978  1.0542  0.1696
   66MOL0     O 8581   8.649  10.964   1.416  0.2966 -0.5537 -0.2259
   66MOL0     C 8582   8.598  10.851   1.407 -0.0373  0.4630  0.1236
   66MOL0     O 8583   8.662  10.733   1.376 -0.0250 -0.1002  0.1013
   66MOL0     C 8584   8.781  10.701   1.429  0.7028 -0.2237  0.1638
   66MOL0     C 8585   8.838  10.757   1.541 -0.0525  0.2245  0.3457
   66MOL0     C 8586   8.957  10.697   1.588  0.7407  0.6857  0.3130
   66MOL0     C 8587   9.026  10.593   1.524  0.3674  0.1461 -0.1939
   66MOL0     O 8588   9.148  10.540   1.552 -0.9622 -0.1322  0.4099
   66MOL0     C 8589   9.238  10.624   1.626 -0.3172  1.1419  0.3317
   66MOL0     C 8590   9.385  10.568   1.602  1.6909 -0.8704  0.3670
   66MOL0     C 8591   9.478  10.661   1.678  0.7558  1.0177 -0.6885
   66MOL0     C 8592   9.620  10.633   1.642  0.1684 -0.6954 -0.8578
   66MOL0     C 8593   9.707  10.731   1.731 -1.2201 -0.4415  0.0421
   66MOL0     C 8594   9.862  10.702   1.712  0.1550 -0.3327  0.0930
   66MOL0     C 8595   9.950  10.812   1.773 -0.8061 -0.1855 -0.1707
   66MOL0     C 8596   9.933  10.820   1.922  0.6637 -0.4763 -0.9156
   66MOL0     N 8597   9.991  10.704   1.995  0.1169 -0.1122  0.0085
   66MOL0     C 8598  10.105  10.711   2.068 -0.1207 -0.7718  0.1810
   66MOL0     C 8599  10.128  10.601   2.132 -0.2137  1.1479  0.4083
   66MOL0     C 8600  10.249  10.584   2.220 -0.0084  0.2309 -0.7600
   66MOL0     C 8601  10.214  10.623   2.371 -0.5291  0.4152  0.9769
   66MOL0     C 8602  10.327  10.602   2.472  0.5679 -0.7956 -1.7884
   66MOL0     C 8603  10.450  10.700   2.471  0.4693  0.4271  1.1796
   66MOL0     O 8604  10.549  10.639   2.569 -0.7897 -0.1459 -0.1531
   66MOL0     C 8605  10.685  10.658   2.539 -0.3511 -0.3297  0.1582
   66MOL0     C 8606  10.740  10.761   2.456  0.3521  0.2133  1.1973
   66MOL0     C 8607  10.875  10.795   2.446 -0.8343  0.2732  0.7642
   66MOL0     C 8608  10.964  10.721   2.528 -0.1833 -0.6795  0.3601
   66MOL0     C 8609  11.110  10.753   2.531  1.4614 -0.7385  0.5168
   66MOL0     O 8610  11.202  10.680   2.608 -0.4305 -0.0189  0.1628
   66MOL0     C 8611  11.337  10.707   2.595  0.1849  0.6096 -0.3326
   66MOL0     C 8612  11.408  10.737   2.478  0.7309 -0.7793 -0.3475
   66MOL0     C 8613  11.544  10.748   2.477 -0.6274  0.0723  0.5974
   66MOL0     C 8614  11.621  10.712   2.585  0.2179  0.0137  0.7319
   66MOL0     O 8615  11.757  10.728   2.574 -0.3380  0.3293 -0.1022
   66MOL0     C 8616  11.827  10.661   2.680 -0.3098 -0.7306 -0.0200
   66MOL0     C 8617  11.975  10.668   2.666  0.1245 -0.1525  0.0926
   66MOL0     C 8618  12.036  10.604   2.787 -0.2949  0.2855 -0.2101
   66MOL0     C 8619  12.192  10.629   2.789  0.7096  0.2202  0.0299
   66MOL0     C 8620  12.268  10.559   2.905 -0.0718  0.1791  0.4190
   66MOL0     C 8621  12.422  10.587   2.906 -0.0189 -0.7672 -0.3323
   66MOL0     C 8622  12.500  10.500   3.006  0.3702 -0.4378  0.0159
   66MOL0     C 8623  12.648  10.478   2.997  0.1615 -0.2442 -0.7298
   66MOL0    Cl 8624  12.709  10.404   3.151 -0.3974 -0.3080 -0.4316
   66MOL0     C 8625  11.558  10.682   2.707 -0.4723 -0.0062 -0.1812
   66MOL0     C 8626  11.411  10.671   2.712 -0.1681 -0.9312  0.5547
   66MOL0     O 8627  11.129  10.863   2.482  0.6879  0.0596  0.0793
   66MOL0     C 8628  10.911  10.626   2.612  0.9396 -0.0790 -0.2282
   66MOL0     C 8629  10.772  10.595   2.622 -0.3752  0.6538  0.6182
   66MOL0     N 8630  10.028  10.517   2.103 -0.2620 -0.4608 -0.1499
   66MOL0     N 8631   9.937  10.575   2.024  0.2322 -0.2083 -0.3756
   66MOL0     C 8632   8.954  10.524   1.423 -0.8414 -0.6971 -0.3276
   66MOL0     C 8633   8.842  10.588   1.364 -0.2864 -0.0868 -0.2253
   66MOL0     C 8634   8.456  10.843   1.431  0.0805 -0.1673 -0.8373
   66MOL0     C 8635   8.381  10.949   1.391  0.1234 -0.3708 -0.0539
   66MOL0     C 8636   8.243  10.942   1.404  0.4986 -0.4175  0.2565
   66MOL0     C 8637   8.183  10.832   1.466 -0.7071  0.0566  0.1325
   66MOL0     O 8638   8.052  10.829   1.483  0.1475  0.9261 -0.6504
   66MOL0     C 8639   7.982  10.745   1.381  0.4719  0.7543 -0.4141
   66MOL0     C 8640   7.881  10.648   1.450  0.6947 -0.4573 -0.4806
   66MOL0     C 8641   7.829  10.545   1.358  0.3901  0.9810  0.9895
   66MOL0     C 8642   7.691  10.492   1.415  0.2570  0.4400  0.2229
   66MOL0     C 8643   7.714  10.418   1.547  0.3143  0.2264  0.3705
   66MOL0     C 8644   7.745  10.355   1.647  0.1143 -0.5436  0.4898
   66MOL0     C 8645   8.256  10.722   1.499  0.6046  0.9344 -0.8638
   66MOL0     C 8646   8.394  10.720   1.472 -0.3797  0.6178 -0.9953
   66MOL0     H 8647   8.791  10.839   1.596  1.4107  0.5205  1.2101
   66MOL0     H 8648   9.010  10.742   1.671 -0.2922 -0.0607  1.4100
   66MOL0     H 8649   9.214  10.619   1.733  3.6033 -2.5076  1.3009
   66MOL0     H 8650   9.239  10.724   1.581  2.6883  0.5473 -1.1671
   66MOL0     H 8651   9.396  10.564   1.493 -1.7123 -1.4492 -0.0563
   66MOL0     H 8652   9.376  10.472   1.654 -5.5432  1.5644  5.0926
   66MOL0     H 8653   9.462  10.641   1.784 -1.0524 -3.8743 -1.6190
   66MOL0     H 8654   9.463  10.769   1.666 -1.3450  0.9916  1.0553
   66MOL0     H 8655   9.632  10.524   1.650 -2.4887 -0.9270  1.5557
   66MOL0     H 8656   9.637  10.659   1.537  2.1642  0.1601 -0.3620
   66MOL0     H 8657   9.678  10.726   1.837  0.5099  1.9026  0.7296
   66MOL0     H 8658   9.685  10.831   1.694 -1.1206 -1.0533 -1.7432
   66MOL0     H 8659   9.876  10.702   1.603  3.7600  1.8572  0.4163
   66MOL0     H 8660   9.887  10.602   1.747  1.5261 -0.4633 -1.1515
   66MOL0     H 8661  10.052  10.790   1.739 -0.3054  2.2349 -0.4065
   66MOL0     H 8662   9.923  10.909   1.729 -0.7366 -0.4214 -0.7400
   66MOL0     H 8663   9.832  10.837   1.962  1.4303 -1.1234  1.4337
   66MOL0     H 8664   9.994  10.903   1.958  3.4064 -1.6863 -2.4753
   66MOL0     H 8665  10.177  10.791   2.057 -0.3084 -0.7632 -1.3428
   66MOL0     H 8666  10.332  10.646   2.184  1.5733  1.0192  3.5790
   66MOL0     H 8667  10.269  10.476   2.220 -1.4402 -0.0505 -0.6716
   66MOL0     H 8668  10.125  10.563   2.394 -4.0457  3.8900 -2.2451
   66MOL0     H 8669  10.180  10.727   2.371  1.2535  1.0897 -1.6198
   66MOL0     H 8670  10.274  10.615   2.566 -1.4796 -0.3886 -2.9540
   66MOL0     H 8671  10.373  10.502   2.468  0.7266 -0.6948 -4.4897
   66MOL0     H 8672  10.432  10.807   2.488  0.5982  0.2733  2.3916
   66MOL0     H 8673  10.481  10.679   2.369  0.6789 -0.4106  1.4057
   66MOL0     H 8674  10.675  10.826   2.397  1.6437  1.7618  1.4410
   66MOL0     H 8675  10.906  10.879   2.385 -2.9295  0.5918  0.0444
   66MOL0     H 8676  11.360  10.759   2.383  1.8233  1.6710 -0.4142
   66MOL0     H 8677  11.602  10.766   2.387 -0.5997 -0.1179  0.5780
   66MOL0     H 8678  11.807  10.553   2.689  0.7619 -0.8386  1.5498
   66MOL0     H 8679  11.802  10.713   2.773 -1.2399  2.2570 -1.7993
   66MOL0     H 8680  12.010  10.770   2.648 -1.4924 -0.0060 -2.7284
   66MOL0     H 8681  12.000  10.611   2.576  0.2461 -0.4548  0.3162
   66MOL0     H 8682  12.022  10.496   2.798 -1.3110  0.5228  1.1163
   66MOL0     H 8683  11.994  10.644   2.880 -1.1642 -1.3380  0.1395
   66MOL0     H 8684  12.230  10.609   2.688  2.0767 -2.6531  1.0069
   66MOL0     H 8685  12.207  10.737   2.794  1.0877  0.2075 -0.7437
   66MOL0     H 8686  12.249  10.452   2.901  0.2116  0.1608 -1.3299
   66MOL0     H 8687  12.223  10.592   2.999  0.3733  1.8040  0.1015
   66MOL0     H 8688  12.435  10.694   2.926  0.2743 -0.3659 -2.4221
   66MOL0     H 8689  12.461  10.578   2.804 -1.3883 -0.3828 -0.9134
   66MOL0     H 8690  12.470  10.534   3.105  1.6923  1.8035 -0.2763
   66MOL0     H 8691  12.461  10.398   2.994  1.1697 -0.7534  0.0159
   66MOL0     H 8692  12.697  10.576   2.992  0.6974 -0.5331 -1.5148
   66MOL0     H 8693  12.675  10.425   2.905  1.0704  0.3038 -0.7930
   66MOL0     H 8694  11.610  10.662   2.800  2.0023 -1.4177 -1.7464
   66MOL0     H 8695  11.356  10.625   2.793 -0.5242  1.5536  1.8459
   66MOL0     H 8696  10.983  10.587   2.683 -0.0804 -0.4170  0.6523
   66MOL0     H 8697  10.718  10.522   2.681 -0.6008  1.6034  1.6137
   66MOL0     H 8698   8.994  10.433   1.380  1.5944 -1.3838  3.0065
   66MOL0     H 8699   8.789  10.537   1.284 -2.4734 -2.8774  2.7221
   66MOL0     H 8700   8.427  11.039   1.351  1.8741 -0.8075  0.8486
   66MOL0     H 8701   8.183  11.020   1.358 -1.4595 -1.6218  0.6418
   66MOL0     H 8702   8.046  10.679   1.321 -1.4083 -0.3207 -1.3322
   66MOL0     H 8703   7.924  10.816   1.320  3.1744  2.5345 -1.0671
   66MOL0     H 8704   7.927  10.595   1.533 -4.6954  0.0279  3.3459
   66MOL0     H 8705   7.799  10.708   1.491  0.3378 -1.8888  0.9964
   66MOL0     H 8706   7.905  10.466   1.357  1.2362  1.7776  1.5134
   66MOL0     H 8707   7.811  10.594   1.262 -0.1714  1.1890  1.1992
   66MOL0     H 8708   7.614  10.568   1.429 -1.3087 -0.8719 -0.7789
   66MOL0     H 8709   7.641  10.415   1.355 -2.0513  1.4782  0.6971
   66MOL0     H 8710   7.781  10.303   1.734  1.5717 -0.8129 -0.2572
   66MOL0     H 8711   8.201  10.646   1.553  0.5345  1.9261  0.5227
   66MOL0     H 8712   8.465  10.648   1.511 -1.2308  0.5626  0.5208
   67MOL0     O 8713   0.872   0.516   6.087 -0.3883 -0.5517  0.8924
   67MOL0     C 8714   0.882   0.414   6.146  0.1568  0.4148 -0.8068
   67MOL0     O 8715   0.789   0.337   6.204  0.8429 -0.7819  0.5871
   67MOL0     C 8716   0.653   0.362   6.176 -0.5743 -0.2204 -0.1325
   67MOL0     C 8717   0.596   0.310   6.049 -0.3455  0.4770  0.2936
   67MOL0     C 8718   0.468   0.346   6.020 -0.2164 -0.2907  0.2714
   67MOL0     C 8719   0.395   0.424   6.111  0.1741  0.2828 -0.0568
   67MOL0     O 8720   0.267   0.453   6.067  0.3448 -0.2883 -0.0244
   67MOL0     C 8721   0.157   0.407   6.142  0.7150  0.0734  0.0214
   67MOL0     C 8722   0.030   0.441   6.081  0.1476  0.1402  0.2566
   67MOL0     C 8723  -0.087   0.349   6.131 -1.1926  0.3045 -0.0188
   67MOL0     C 8724  -0.224   0.415   6.125  0.0713 -0.6717  0.5633
   67MOL0     C 8725  -0.335   0.305   6.124 -0.0466  0.8712 -0.5757
   67MOL0     C 8726  -0.472   0.365   6.121 -0.6069  0.4315  0.2796
   67MOL0     C 8727  -0.568   0.265   6.069 -0.1293 -0.3717 -0.8467
   67MOL0     C 8728  -0.711   0.317   6.044 -0.2668 -0.0805 -1.7097
   67MOL0     N 8729  -0.781   0.227   5.950  0.3317 -0.1403  0.4359
   67MOL0     C 8730  -0.873   0.132   5.978  0.1896 -0.0780  0.8828
   67MOL0     C 8731  -0.892   0.068   5.862  0.4963  0.8566  0.6114
   67MOL0     C 8732  -0.989  -0.045   5.830  0.3836  0.4102  0.3923
   67MOL0     C 8733  -1.052  -0.029   5.681 -0.0329  0.3467  0.4348
   67MOL0     C 8734  -1.058  -0.172   5.618 -0.4017  0.2567  0.8328
   67MOL0     C 8735  -1.172  -0.194   5.524  0.4010 -0.1760 -0.1775
   67MOL0     O 8736  -1.147  -0.105   5.416 -0.3898 -0.2070  0.3521
   67MOL0     C 8737  -1.242  -0.073   5.324  0.9744 -0.2192  0.1877
   67MOL0     C 8738  -1.355  -0.147   5.299  0.7163 -0.4519  0.7396
   67MOL0     C 8739  -1.455  -0.101   5.211 -0.2439  0.0045 -0.1060
   67MOL0     C 8740  -1.448   0.022   5.146  0.3565 -0.2667 -0.5871
   67MOL0     C 8741  -1.551   0.072   5.050 -0.2465  0.6031 -0.1560
   67MOL0     O 8742  -1.675   0.038   5.075 -0.0623  0.1701  0.4824
   67MOL0     C 8743  -1.772   0.054   4.983 -0.8231  0.1347  0.0201
   67MOL0     C 8744  -1.778   0.149   4.881 -0.1119 -0.6948 -0.0849
   67MOL0     C 8745  -1.892   0.170   4.800  0.2182  0.4922 -1.0408
   67MOL0     C 8746  -1.998   0.075   4.814 -0.0422 -0.2362  0.0380
   67MOL0     O 8747  -2.114   0.071   4.735  0.6065  0.5366  0.0499
   67MOL0     C 8748  -2.113   0.002   4.612  0.3555 -0.9748 -0.6976
   67MOL0     C 8749  -2.239   0.040   4.541  0.4224 -0.0902  0.7857
   67MOL0     C 8750  -2.363  -0.024   4.612  0.0261  0.4645 -0.2810
   67MOL0     C 8751  -2.483  -0.002   4.526  0.4543 -0.7445 -1.5080
   67MOL0     C 8752  -2.615  -0.044   4.600 -0.0495 -0.5218  0.5121
   67MOL0     C 8753  -2.730  -0.080   4.510  0.7643  1.1706 -0.7992
   67MOL0     C 8754  -2.873  -0.034   4.552 -0.0163 -0.0060 -0.5425
   67MOL0     C 8755  -2.897   0.115   4.513 -0.4373 -0.3004 -0.6090
   67MOL0    Cl 8756  -2.931   0.119   4.346  0.1791  0.2687  0.2775
   67MOL0     C 8757  -2.001  -0.014   4.918  0.2526 -0.8706 -1.0556
   67MOL0     C 8758  -1.886  -0.027   4.995 -0.9178 -0.2088 -0.3609
   67MOL0     O 8759  -1.502   0.115   4.944  0.1755 -1.0714 -1.2646
   67MOL0     C 8760  -1.325   0.091   5.162  0.8512  0.0313  0.3640
   67MOL0     C 8761  -1.222   0.039   5.248  0.9727 -0.6378  0.0806
   67MOL0     N 8762  -0.809   0.112   5.766  0.1398 -0.2863  0.1371
   67MOL0     N 8763  -0.738   0.205   5.815 -0.4824  0.0451 -0.5188
   67MOL0     C 8764   0.451   0.469   6.235 -0.0850  0.2532 -1.2422
   67MOL0     C 8765   0.581   0.439   6.274 -0.9142 -1.0045  0.8809
   67MOL0     C 8766   1.019   0.364   6.160 -0.6049 -0.1079  0.4968
   67MOL0     C 8767   1.039   0.240   6.222 -0.2285 -0.5381 -0.7837
   67MOL0     C 8768   1.169   0.206   6.252  0.4409 -0.2059  0.9843
   67MOL0     C 8769   1.281   0.276   6.209  0.3325  0.3582  0.7971
   67MOL0     O 8770   1.411   0.239   6.231  0.3212 -0.1339 -0.4850
   67MOL0     C 8771   1.445   0.117   6.307  0.3456  0.1439  0.0016
   67MOL0     C 8772   1.570   0.038   6.267 -0.3763 -0.6310 -0.2540
   67MOL0     C 8773   1.687   0.131   6.276  0.2955 -0.0853  0.0839
   67MOL0     C 8774   1.822   0.047   6.246  0.8019  0.2823 -0.0414
   67MOL0     C 8775   1.864  -0.042   6.352 -0.0498 -0.4988 -0.3953
   67MOL0     C 8776   1.893  -0.126   6.432 -0.4576  0.6609 -0.3229
   67MOL0     C 8777   1.262   0.385   6.127 -0.0813 -0.8782  0.2036
   67MOL0     C 8778   1.130   0.431   6.102 -0.0597  0.0365 -0.6190
   67MOL0     H 8779   0.651   0.239   5.988  0.3610  0.0574  1.3729
   67MOL0     H 8780   0.433   0.324   5.919  1.6897 -0.4942 -0.3784
   67MOL0     H 8781   0.173   0.454   6.239  0.5776  1.8102 -0.7552
   67MOL0     H 8782   0.169   0.298   6.141 -0.8081 -0.2023  2.6401
   67MOL0     H 8783   0.052   0.439   5.974  0.4772 -3.8340  0.2559
   67MOL0     H 8784   0.008   0.545   6.106  0.1171  0.3319 -0.5423
   67MOL0     H 8785  -0.069   0.320   6.235 -2.3126  2.6860  0.9090
   67MOL0     H 8786  -0.084   0.264   6.062 -1.9012 -0.3083  0.6839
   67MOL0     H 8787  -0.236   0.482   6.211 -0.0693  0.9957 -0.7118
   67MOL0     H 8788  -0.231   0.476   6.034  0.3674 -1.6334 -0.1173
   67MOL0     H 8789  -0.341   0.227   6.200 -3.5312 -0.8392 -2.3505
   67MOL0     H 8790  -0.314   0.245   6.036  0.5713 -0.7914  0.6519
   67MOL0     H 8791  -0.475   0.450   6.052  0.5829  0.1021 -0.2160
   67MOL0     H 8792  -0.497   0.412   6.216 -0.3035  3.9556 -1.2199
   67MOL0     H 8793  -0.536   0.236   5.969  3.2553 -0.7353  0.2169
   67MOL0     H 8794  -0.568   0.187   6.145  1.4158  0.9644  0.6040
   67MOL0     H 8795  -0.720   0.417   5.999 -1.2577  0.2499 -0.7984
   67MOL0     H 8796  -0.751   0.318   6.145  0.7588  0.5770 -1.2863
   67MOL0     H 8797  -0.930   0.108   6.068  0.3605 -1.0539  0.7403
   67MOL0     H 8798  -1.072  -0.049   5.900 -1.0781  1.5799 -1.2013
   67MOL0     H 8799  -0.926  -0.135   5.833 -1.6358 -1.0501  2.0920
   67MOL0     H 8800  -0.998   0.038   5.613  3.3808  1.4578  3.8149
   67MOL0     H 8801  -1.150   0.019   5.689 -0.5954  0.0088 -2.9724
   67MOL0     H 8802  -0.962  -0.207   5.579 -0.4301  0.0048  0.9889
   67MOL0     H 8803  -1.096  -0.224   5.706 -0.4919  0.7014  1.0604
   67MOL0     H 8804  -1.263  -0.159   5.575  0.5716  2.9941 -1.7817
   67MOL0     H 8805  -1.175  -0.298   5.492 -0.7105  0.7698 -3.5263
   67MOL0     H 8806  -1.371  -0.244   5.345  1.6051 -0.6810  0.5935
   67MOL0     H 8807  -1.547  -0.156   5.194 -0.1924 -0.3047  0.5899
   67MOL0     H 8808  -1.701   0.224   4.867  0.6058 -1.8146 -2.9029
   67MOL0     H 8809  -1.895   0.249   4.726  2.4378 -0.4590 -2.2327
   67MOL0     H 8810  -2.103  -0.105   4.628 -0.7587 -0.7081  2.6407
   67MOL0     H 8811  -2.027   0.041   4.557  0.3655 -1.2368 -0.8628
   67MOL0     H 8812  -2.231   0.001   4.439  2.2107 -0.3287  0.9939
   67MOL0     H 8813  -2.252   0.149   4.547  1.7183  0.0818  0.7354
   67MOL0     H 8814  -2.388   0.013   4.712 -1.9193  0.1941 -0.6104
   67MOL0     H 8815  -2.342  -0.130   4.624  0.4036  0.3734 -1.5926
   67MOL0     H 8816  -2.494   0.100   4.489  0.1203  0.2069  1.0088
   67MOL0     H 8817  -2.480  -0.071   4.441  0.9855 -0.5116 -1.6805
   67MOL0     H 8818  -2.641   0.040   4.665 -0.0487  0.2498 -0.4679
   67MOL0     H 8819  -2.594  -0.129   4.666 -0.1131 -0.5442  0.5028
   67MOL0     H 8820  -2.716  -0.189   4.507  1.0086  1.0617  1.6725
   67MOL0     H 8821  -2.711  -0.044   4.409 -0.2819 -0.1738 -1.5136
   67MOL0     H 8822  -2.949  -0.093   4.500 -0.8831  1.0765 -0.5442
   67MOL0     H 8823  -2.888  -0.051   4.659  1.0030  1.5993 -0.1026
   67MOL0     H 8824  -2.814   0.180   4.541 -0.7239 -0.4124  0.5416
   67MOL0     H 8825  -2.992   0.144   4.559 -0.6080 -1.5967 -0.1197
   67MOL0     H 8826  -2.079  -0.086   4.940  1.9956 -2.0341  1.8836
   67MOL0     H 8827  -1.891  -0.101   5.075 -0.0398 -1.7990 -1.7171
   67MOL0     H 8828  -1.310   0.178   5.099  0.3376 -1.4418 -1.9417
   67MOL0     H 8829  -1.126   0.090   5.252  0.6161  0.1620 -1.2202
   67MOL0     H 8830   0.393   0.538   6.295 -0.9969  2.0751 -4.0447
   67MOL0     H 8831   0.626   0.477   6.365  1.4474  0.1187 -0.6701
   67MOL0     H 8832   0.959   0.182   6.268  0.7846  0.1706  2.0789
   67MOL0     H 8833   1.171   0.126   6.325 -0.4143 -0.6073  0.5825
   67MOL0     H 8834   1.361   0.047   6.297 -1.6784  2.7317 -2.8487
   67MOL0     H 8835   1.450   0.150   6.411 -0.1346 -1.2603  0.4969
   67MOL0     H 8836   1.583  -0.043   6.339 -1.0536 -0.4630  0.0683
   67MOL0     H 8837   1.555  -0.003   6.167 -0.7900  1.3459 -1.0566
   67MOL0     H 8838   1.697   0.190   6.367  1.5679 -1.6856  1.0363
   67MOL0     H 8839   1.675   0.200   6.192  0.5208 -2.2523 -1.8414
   67MOL0     H 8840   1.800  -0.004   6.152 -2.3961  0.7745  0.3310
   67MOL0     H 8841   1.902   0.120   6.230 -0.8861  2.0745 -0.6773
   67MOL0     H 8842   1.903  -0.204   6.505  0.5800  0.3048 -0.8247
   67MOL0     H 8843   1.340   0.436   6.072  0.5494 -4.8427 -3.1294
   67MOL0     H 8844   1.118   0.523   6.045  1.0430  0.9338  0.5446
   68MOL0     O 8845   1.559   0.849   0.323 -1.0854  0.0438 -0.4575
   68MOL0     C 8846   1.640   0.937   0.293 -0.0940  0.8298  1.2620
   68MOL0     O 8847   1.612   1.060   0.253 -0.0417  0.5481  0.7991
   68MOL0     C 8848   1.484   1.117   0.264  0.0179 -0.2286 -0.6547
   68MOL0     C 8849   1.388   1.076   0.366 -0.3052 -0.1496  1.4582
   68MOL0     C 8850   1.253   1.100   0.359  0.0745 -0.0021 -1.4045
   68MOL0     C 8851   1.200   1.193   0.267  0.4988 -0.6838 -0.1981
   68MOL0     O 8852   1.066   1.233   0.261  0.6980 -0.6182  0.0667
   68MOL0     C 8853   0.996   1.214   0.141 -0.8734 -0.1835 -0.0259
   68MOL0     C 8854   0.852   1.189   0.168  0.3734 -0.3761  0.8527
   68MOL0     C 8855   0.779   1.173   0.030  0.0487  0.2170 -0.3415
   68MOL0     C 8856   0.629   1.181   0.059  0.1618 -0.5923 -0.5419
   68MOL0     C 8857   0.553   1.199  -0.081  0.6885 -0.1278 -0.3200
   68MOL0     C 8858   0.402   1.211  -0.061 -0.0989 -0.2357 -0.0879
   68MOL0     C 8859   0.350   1.269  -0.195  0.7931  0.0404 -0.2873
   68MOL0     C 8860   0.358   1.167  -0.311  0.0264  0.8609 -0.0061
   68MOL0     N 8861   0.265   1.189  -0.426 -0.2351  0.3830  0.1256
   68MOL0     C 8862   0.141   1.139  -0.443 -0.6716  0.2066 -0.1433
   68MOL0     C 8863   0.086   1.204  -0.542  0.0935 -0.7501  0.1094
   68MOL0     C 8864  -0.058   1.196  -0.604 -0.3921 -0.0376  0.0135
   68MOL0     C 8865  -0.063   1.083  -0.707 -0.0540 -0.3121 -0.0383
   68MOL0     C 8866  -0.107   1.116  -0.853 -0.4931  0.3243 -0.9519
   68MOL0     C 8867  -0.254   1.149  -0.860  1.1617 -0.0224  0.9038
   68MOL0     O 8868  -0.341   1.046  -0.840  0.1126  0.2454 -0.9002
   68MOL0     C 8869  -0.477   1.060  -0.856  0.3819 -0.1041  0.6451
   68MOL0     C 8870  -0.544   1.181  -0.903  0.2925 -0.8660 -0.3508
   68MOL0     C 8871  -0.692   1.180  -0.895  0.1208  0.3377  0.1497
   68MOL0     C 8872  -0.768   1.066  -0.854  0.3086 -0.0414  0.2854
   68MOL0     C 8873  -0.919   1.076  -0.847  0.7359 -0.2533 -0.9473
   68MOL0     O 8874  -0.985   1.202  -0.855 -0.8764  0.7764  0.0476
   68MOL0     C 8875  -1.121   1.212  -0.836 -0.5502  0.8685 -0.4197
   68MOL0     C 8876  -1.160   1.346  -0.803  0.3117  0.9332  0.1011
   68MOL0     C 8877  -1.291   1.374  -0.773 -0.3972  0.3905 -0.2077
   68MOL0     C 8878  -1.391   1.277  -0.788 -0.2560 -0.6278 -0.9622
   68MOL0     O 8879  -1.518   1.316  -0.753 -0.1686 -0.7977  0.3957
   68MOL0     C 8880  -1.617   1.214  -0.747  0.7063  0.0400  0.8279
   68MOL0     C 8881  -1.741   1.273  -0.686 -0.0251 -0.2571 -0.3294
   68MOL0     C 8882  -1.864   1.178  -0.697 -0.6705  0.6321  0.6841
   68MOL0     C 8883  -1.986   1.250  -0.648  1.3742  0.6679 -0.8858
   68MOL0     C 8884  -2.119   1.168  -0.623 -0.0002 -0.4442  0.2776
   68MOL0     C 8885  -2.144   1.083  -0.755 -0.7097  0.4459 -0.6229
   68MOL0     C 8886  -2.257   0.986  -0.733  0.6047 -0.2730 -0.0689
   68MOL0     C 8887  -2.224   0.860  -0.646 -0.0022 -0.7126 -0.1700
   68MOL0    Cl 8888  -2.353   0.738  -0.664 -0.2541 -0.3267 -0.6507
   68MOL0     C 8889  -1.359   1.147  -0.842 -0.9724 -0.3901  0.2965
   68MOL0     C 8890  -1.224   1.123  -0.866 -0.1629  1.2312  0.6063
   68MOL0     O 8891  -0.976   0.972  -0.818  0.9882  0.2204 -0.4860
   68MOL0     C 8892  -0.697   0.952  -0.818  0.0253 -0.0027 -0.3233
   68MOL0     C 8893  -0.556   0.948  -0.813 -0.3495 -0.4397 -0.0034
   68MOL0     N 8894   0.187   1.300  -0.588  1.0865  0.6023 -0.5523
   68MOL0     N 8895   0.287   1.285  -0.513  0.1489 -0.6176 -0.5593
   68MOL0     C 8896   1.298   1.244   0.181  0.0157 -0.0772 -0.1998
   68MOL0     C 8897   1.433   1.206   0.172 -0.4558  0.1064  0.5252
   68MOL0     C 8898   1.789   0.905   0.287 -0.9088 -0.0375  0.6981
   68MOL0     C 8899   1.854   0.961   0.178 -0.2795 -0.1810 -0.6337
   68MOL0     C 8900   1.980   0.921   0.146 -0.0709 -0.0572 -0.3064
   68MOL0     C 8901   2.051   0.835   0.228  0.6615 -0.0865  0.1795
   68MOL0     O 8902   2.178   0.807   0.203  0.3111  0.2235 -0.2479
   68MOL0     C 8903   2.243   0.693   0.271 -0.8490 -0.6526  1.1038
   68MOL0     C 8904   2.371   0.644   0.188 -0.3275 -0.2450  0.3325
   68MOL0     C 8905   2.343   0.592   0.044 -0.7705 -0.8408  0.6167
   68MOL0     C 8906   2.448   0.510  -0.008 -1.1390  0.3943 -1.0169
   68MOL0     C 8907   2.453   0.367   0.046  0.4723 -0.3914 -0.0513
   68MOL0     C 8908   2.450   0.257   0.074 -0.4735  0.0857  0.0693
   68MOL0     C 8909   1.978   0.777   0.338 -0.5310  0.1564  1.0891
   68MOL0     C 8910   1.849   0.812   0.364 -0.1682 -0.2968 -0.5590
   68MOL0     H 8911   1.423   1.010   0.445  0.3065 -3.2630 -1.2262
   68MOL0     H 8912   1.184   1.083   0.441 -2.7547  0.8900 -3.4338
   68MOL0     H 8913   1.041   1.122   0.101  0.4986  1.1161 -1.6561
   68MOL0     H 8914   0.997   1.299   0.073  2.7563 -0.6538 -0.7706
   68MOL0     H 8915   0.806   1.274   0.218  1.2713  3.0165 -3.4155
   68MOL0     H 8916   0.850   1.092   0.218  0.3534 -1.2457 -0.7615
   68MOL0     H 8917   0.795   1.079  -0.024 -0.6476 -0.1808  0.1226
   68MOL0     H 8918   0.807   1.259  -0.030 -1.0402  0.1818 -0.9237
   68MOL0     H 8919   0.596   1.093   0.114  0.2327 -0.6251 -0.5514
   68MOL0     H 8920   0.601   1.267   0.120  2.9360  0.8308 -1.1093
   68MOL0     H 8921   0.571   1.112  -0.145  0.7929 -0.4502  0.1389
   68MOL0     H 8922   0.595   1.287  -0.130  2.0885 -1.7094 -2.1282
   68MOL0     H 8923   0.388   1.278   0.024 -0.0056 -0.2631 -0.0506
   68MOL0     H 8924   0.363   1.115  -0.026 -0.6275  0.5398  1.5553
   68MOL0     H 8925   0.246   1.296  -0.178  0.6143 -1.9856  2.3803
   68MOL0     H 8926   0.413   1.355  -0.220  1.0940 -0.0690  0.0784
   68MOL0     H 8927   0.336   1.067  -0.272  0.4164  0.1391 -1.5515
   68MOL0     H 8928   0.461   1.151  -0.346 -0.2180 -0.4780 -0.1832
   68MOL0     H 8929   0.113   1.067  -0.366 -0.1670  0.7762  0.5917
   68MOL0     H 8930  -0.084   1.294  -0.645 -1.2954  0.3453  1.4299
   68MOL0     H 8931  -0.126   1.172  -0.522  0.8405 -1.6616  0.6163
   68MOL0     H 8932  -0.133   1.007  -0.671  0.6418 -0.6191  0.6902
   68MOL0     H 8933   0.035   1.036  -0.700  0.3553  0.5806  0.4569
   68MOL0     H 8934  -0.046   1.202  -0.883 -2.5826  1.8570 -1.0367
   68MOL0     H 8935  -0.091   1.031  -0.920 -0.4213 -0.7459  0.3826
   68MOL0     H 8936  -0.259   1.186  -0.963 -1.0449  0.4772  1.1469
   68MOL0     H 8937  -0.281   1.226  -0.787  2.7208  1.5217 -0.0801
   68MOL0     H 8938  -0.502   1.274  -0.941 -2.6355  0.8923  0.3535
   68MOL0     H 8939  -0.742   1.272  -0.922  0.2966  0.1625 -0.8260
   68MOL0     H 8940  -1.088   1.427  -0.799  1.1070  0.3210 -0.9471
   68MOL0     H 8941  -1.325   1.474  -0.746  3.0671  1.4677  0.6016
   68MOL0     H 8942  -1.584   1.132  -0.683  0.3418 -0.1430  0.7853
   68MOL0     H 8943  -1.649   1.175  -0.844 -1.4950 -0.2976  1.6325
   68MOL0     H 8944  -1.753   1.370  -0.734 -1.2866 -1.4017 -2.4476
   68MOL0     H 8945  -1.722   1.298  -0.581  0.4683  2.2205 -0.9504
   68MOL0     H 8946  -1.834   1.100  -0.626  2.5577  2.2102  1.2337
   68MOL0     H 8947  -1.867   1.139  -0.799  0.6654  0.4621  0.6925
   68MOL0     H 8948  -1.966   1.299  -0.552  1.3174 -0.5436 -0.2417
   68MOL0     H 8949  -2.008   1.322  -0.727  2.8336  3.0498  0.7554
   68MOL0     H 8950  -2.197   1.242  -0.602 -1.0022 -1.3290 -0.2400
   68MOL0     H 8951  -2.116   1.113  -0.528  1.8350 -2.5409 -0.8822
   68MOL0     H 8952  -2.052   1.027  -0.773 -0.9394 -0.8878  1.8812
   68MOL0     H 8953  -2.166   1.143  -0.843 -1.0679 -0.0205 -0.8578
   68MOL0     H 8954  -2.335   1.041  -0.679  0.9772  1.3964 -1.1435
   68MOL0     H 8955  -2.292   0.960  -0.833  0.3371  3.8489 -1.2442
   68MOL0     H 8956  -2.215   0.875  -0.538 -1.6659  1.2761 -0.2274
   68MOL0     H 8957  -2.130   0.817  -0.680  0.8671 -0.4231  1.7318
   68MOL0     H 8958  -1.423   1.061  -0.857 -1.3806 -0.1945  0.8650
   68MOL0     H 8959  -1.199   1.023  -0.898  0.7019  0.6915  2.8176
   68MOL0     H 8960  -0.746   0.862  -0.782  1.9542 -0.8170  0.4615
   68MOL0     H 8961  -0.512   0.861  -0.766 -0.1864 -0.2297  0.2413
   68MOL0     H 8962   1.266   1.308   0.100  1.1186 -0.6406 -1.1176
   68MOL0     H 8963   1.500   1.249   0.098 -0.5548 -0.4726  0.0937
   68MOL0     H 8964   1.813   1.041   0.118 -1.8156 -0.8646 -0.5531
   68MOL0     H 8965   2.027   0.966   0.059  3.6176 -2.4982  0.1835
   68MOL0     H 8966   2.176   0.607   0.282  1.0196 -1.9952  2.4413
   68MOL0     H 8967   2.254   0.723   0.375 -0.3484  1.3278  0.5339
   68MOL0     H 8968   2.433   0.734   0.187 -0.9751  0.2146 -1.3091
   68MOL0     H 8969   2.417   0.570   0.255  0.8861  1.3855  1.4134
   68MOL0     H 8970   2.346   0.684  -0.015 -0.5975 -2.4450 -2.0789
   68MOL0     H 8971   2.244   0.548   0.030 -0.3773 -1.5080 -0.1191
   68MOL0     H 8972   2.450   0.512  -0.117 -2.1023  4.1939 -1.1056
   68MOL0     H 8973   2.547   0.550   0.018 -1.5735  2.3797 -2.2307
   68MOL0     H 8974   2.447   0.154   0.105  0.1431 -0.6748 -2.1815
   68MOL0     H 8975   2.027   0.702   0.399  0.7716  1.3712  1.6123
   68MOL0     H 8976   1.785   0.770   0.441 -0.8297  0.6412 -0.5664
   69MOL0     O 8977   5.292   7.968  11.218 -0.5282  0.3092 -0.0805
   69MOL0     C 8978   5.277   8.054  11.305 -0.6715  0.5545  0.3452
   69MOL0     O 8979   5.375   8.085  11.398  0.4558  0.1563  0.7588
   69MOL0     C 8980   5.504   8.052  11.359  0.2220 -1.6170  0.3999
   69MOL0     C 8981   5.602   8.038  11.463 -0.3618  0.9336 -0.6118
   69MOL0     C 8982   5.740   8.014  11.444 -0.0916  0.7055  0.7199
   69MOL0     C 8983   5.786   7.996  11.315 -0.6037 -0.1824 -0.0678
   69MOL0     O 8984   5.919   7.948  11.293 -0.6333  0.5047 -0.4333
   69MOL0     C 8985   5.961   7.901  11.164 -0.1981 -0.6021  0.1878
   69MOL0     C 8986   6.091   7.824  11.182 -1.2430 -0.2227  0.4485
   69MOL0     C 8987   6.086   7.724  11.294  1.0430  0.0010 -0.2393
   69MOL0     C 8988   6.141   7.772  11.433  0.0938  0.1667 -0.0373
   69MOL0     C 8989   6.099   7.689  11.556  0.2840 -0.2438 -0.0204
   69MOL0     C 8990   6.141   7.751  11.689 -0.4349  0.6750 -0.2512
   69MOL0     C 8991   6.027   7.847  11.749 -0.2788  0.4076  1.0821
   69MOL0     C 8992   6.062   7.923  11.879  0.0043  0.0135  0.8533
   69MOL0     N 8993   6.175   8.021  11.873 -0.6629  0.1320 -0.0085
   69MOL0     C 8994   6.195   8.123  11.777  0.7120 -0.0242  0.1556
   69MOL0     C 8995   6.272   8.213  11.848  0.3672 -0.3288  0.0785
   69MOL0     C 8996   6.292   8.351  11.801  0.6708  0.9024 -0.0494
   69MOL0     C 8997   6.158   8.425  11.804  0.8442  0.4548 -0.6527
   69MOL0     C 8998   6.093   8.451  11.942  1.3954 -0.3095  0.2796
   69MOL0     C 8999   5.979   8.557  11.926 -0.1337  0.0499 -0.2107
   69MOL0     O 9000   5.898   8.491  11.826 -0.7010 -0.2150  0.3753
   69MOL0     C 9001   5.808   8.394  11.837  0.5549  0.1069  0.2617
   69MOL0     C 9002   5.768   8.343  11.964  0.4853 -0.5221  0.3165
   69MOL0     C 9003   5.676   8.243  11.976  0.2882  1.5866  0.1067
   69MOL0     C 9004   5.602   8.201  11.862 -0.2569  0.2170  0.1249
   69MOL0     C 9005   5.498   8.094  11.866  0.1747 -0.3340 -0.4917
   69MOL0     O 9006   5.476   8.035  11.984  0.5474  0.0754 -0.1689
   69MOL0     C 9007   5.375   7.946  12.002  0.3490 -0.4785  0.9477
   69MOL0     C 9008   5.255   7.987  12.058  0.3288 -0.3473  0.3136
   69MOL0     C 9009   5.152   7.894  12.058  0.1103 -0.1065  0.2831
   69MOL0     C 9010   5.170   7.759  12.024  0.3876 -0.5701 -0.6850
   69MOL0     O 9011   5.062   7.673  12.038  0.2483 -0.6249 -0.1756
   69MOL0     C 9012   5.067   7.546  11.959  0.1071 -0.5569 -0.0937
   69MOL0     C 9013   4.932   7.473  11.979  0.5539 -0.1540 -0.9534
   69MOL0     C 9014   4.899   7.421  12.122 -0.4583 -1.1425  0.0307
   69MOL0     C 9015   4.753   7.371  12.128 -0.2106 -0.5241  0.5545
   69MOL0     C 9016   4.732   7.269  12.236  0.1050 -0.6341 -0.3725
   69MOL0     C 9017   4.779   7.312  12.368  0.5358  0.8620 -1.4380
   69MOL0     C 9018   4.733   7.213  12.478 -0.6586  0.3760  1.0537
   69MOL0     C 9019   4.760   7.263  12.618  0.4064 -1.2891  0.4284
   69MOL0    Cl 9020   4.675   7.412  12.646 -0.1842  0.0907 -0.6263
   69MOL0     C 9021   5.296   7.715  11.981  0.4910 -0.0532  0.4362
   69MOL0     C 9022   5.393   7.815  11.958 -0.5957  0.8511 -0.6605
   69MOL0     O 9023   5.457   8.046  11.761 -0.3251 -0.1344 -0.1449
   69MOL0     C 9024   5.650   8.251  11.738 -0.0506 -1.0919 -0.3761
   69MOL0     C 9025   5.745   8.350  11.726 -0.5721 -1.3381 -0.3655
   69MOL0     N 9026   6.307   8.158  11.967 -0.2960 -0.1147  0.2518
   69MOL0     N 9027   6.247   8.042  11.983  0.0750 -1.0468 -0.0445
   69MOL0     C 9028   5.695   8.028  11.209 -0.4928 -0.6485 -0.7210
   69MOL0     C 9029   5.551   8.053  11.227 -1.0435 -0.0322 -0.9236
   69MOL0     C 9030   5.138   8.096  11.320 -0.2342 -0.4162 -0.2596
   69MOL0     C 9031   5.106   8.176  11.437 -0.4342 -0.2266  0.1185
   69MOL0     C 9032   4.977   8.214  11.458  0.6721 -0.4388 -0.6046
   69MOL0     C 9033   4.872   8.173  11.382 -0.1283 -0.1345 -0.0181
   69MOL0     O 9034   4.739   8.181  11.421 -0.2861  0.5223  0.0383
   69MOL0     C 9035   4.656   8.253  11.334 -0.5291 -0.5766  0.3456
   69MOL0     C 9036   4.529   8.284  11.416 -0.8277  0.0979  1.0249
   69MOL0     C 9037   4.543   8.370  11.544  1.8141 -0.5075 -0.0331
   69MOL0     C 9038   4.404   8.410  11.622 -0.5423 -0.3134  0.5237
   69MOL0     C 9039   4.323   8.299  11.675  0.3561  0.4365 -0.3398
   69MOL0     C 9040   4.256   8.202  11.721  0.0653  0.3672 -0.1941
   69MOL0     C 9041   4.909   8.090  11.270  0.2697  0.4810 -0.5617
   69MOL0     C 9042   5.035   8.059  11.235  0.3088 -1.3550  0.6760
   69MOL0     H 9043   5.572   8.043  11.567  1.2438  0.0279 -0.0699
   69MOL0     H 9044   5.798   7.986  11.531 -0.1833  1.8146  1.1563
   69MOL0     H 9045   5.968   7.980  11.089 -2.5266  0.4020  0.9347
   69MOL0     H 9046   5.891   7.823  11.132  1.0485 -0.7776 -2.3167
   69MOL0     H 9047   6.180   7.887  11.194 -1.1049 -0.1914 -0.6209
   69MOL0     H 9048   6.111   7.767  11.091  0.1200  0.9774 -0.0503
   69MOL0     H 9049   6.152   7.645  11.258 -1.1753 -2.0794 -0.0146
   69MOL0     H 9050   5.983   7.688  11.304  0.8169  0.9599  1.2191
   69MOL0     H 9051   6.250   7.760  11.433  0.0996 -1.3726  3.9901
   69MOL0     H 9052   6.116   7.879  11.440  2.6032  0.9280 -1.1095
   69MOL0     H 9053   6.147   7.591  11.543 -0.9597 -1.0746  1.3126
   69MOL0     H 9054   5.990   7.684  11.559  0.3327 -1.5175  1.7722
   69MOL0     H 9055   6.235   7.806  11.697 -1.9601  3.7786 -1.6658
   69MOL0     H 9056   6.140   7.666  11.757 -0.4984 -1.0049 -2.2783
   69MOL0     H 9057   5.986   7.915  11.674 -1.0173 -0.5125  0.6337
   69MOL0     H 9058   5.940   7.783  11.766 -1.6008  1.1402 -2.2296
   69MOL0     H 9059   6.080   7.857  11.964  4.1788  0.2691  0.3769
   69MOL0     H 9060   5.972   7.985  11.888  1.9473  3.2768 -0.3245
   69MOL0     H 9061   6.141   8.142  11.685 -0.0477  0.1480  0.6266
   69MOL0     H 9062   6.323   8.339  11.697 -1.6051 -3.7956 -0.4582
   69MOL0     H 9063   6.367   8.409  11.855  0.9901  1.2871 -0.8855
   69MOL0     H 9064   6.090   8.368  11.740  1.6064 -1.0741 -0.1546
   69MOL0     H 9065   6.179   8.523  11.760 -1.0604  1.2351  0.0795
   69MOL0     H 9066   6.048   8.362  11.988 -1.0808  0.8307  0.2090
   69MOL0     H 9067   6.166   8.490  12.014  1.5426  0.9489 -0.5319
   69MOL0     H 9068   6.026   8.651  11.893 -0.3314  0.2491  0.0729
   69MOL0     H 9069   5.932   8.568  12.024 -0.0193 -4.8455  0.6301
   69MOL0     H 9070   5.816   8.376  12.055  2.6037  2.5085 -1.7152
   69MOL0     H 9071   5.648   8.205  12.073  2.8712  1.3922  0.8638
   69MOL0     H 9072   5.253   8.092  12.085  0.8405 -1.2056  4.1961
   69MOL0     H 9073   5.048   7.919  12.076  0.2102 -1.2692  2.7797
   69MOL0     H 9074   5.147   7.477  11.987 -1.1091 -1.2072  2.0049
   69MOL0     H 9075   5.090   7.563  11.853  3.0047 -1.3171  0.3218
   69MOL0     H 9076   4.936   7.389  11.910 -2.2650  0.6595 -2.2707
   69MOL0     H 9077   4.852   7.538  11.941  0.8137  0.4205 -0.5415
   69MOL0     H 9078   4.926   7.496  12.197  0.1462  1.7948 -2.8922
   69MOL0     H 9079   4.968   7.338  12.142  0.7080 -0.9751 -2.8718
   69MOL0     H 9080   4.696   7.464  12.128 -1.3468 -1.0658 -3.0509
   69MOL0     H 9081   4.722   7.328  12.033 -2.6789 -0.8978  1.4510
   69MOL0     H 9082   4.787   7.179  12.208  0.9820  0.6995 -3.3178
   69MOL0     H 9083   4.625   7.246  12.238 -0.5674  2.0328  2.6326
   69MOL0     H 9084   4.732   7.407  12.395  2.5125  1.0658  1.9686
   69MOL0     H 9085   4.885   7.335  12.382  0.5230  0.0210  0.3338
   69MOL0     H 9086   4.624   7.206  12.470 -0.5917 -0.8467  1.0273
   69MOL0     H 9087   4.778   7.114  12.468  0.1037  0.7599  0.5876
   69MOL0     H 9088   4.865   7.286  12.633 -0.2493  1.2781  1.7413
   69MOL0     H 9089   4.721   7.183  12.682 -1.6108 -1.8933 -1.4327
   69MOL0     H 9090   5.308   7.612  11.951  0.6177 -0.5212  2.0145
   69MOL0     H 9091   5.490   7.780  11.924 -1.4147 -1.0447 -1.2321
   69MOL0     H 9092   5.602   8.217  11.647 -1.2254 -0.2666 -0.0916
   69MOL0     H 9093   5.776   8.389  11.630  1.1735 -2.5458 -0.3379
   69MOL0     H 9094   5.732   8.033  11.107  3.4817  2.4374  0.6088
   69MOL0     H 9095   5.489   8.062  11.138 -1.8584 -0.7305 -0.4329
   69MOL0     H 9096   5.172   8.207  11.517  1.1078 -0.4993 -0.9980
   69MOL0     H 9097   4.950   8.286  11.534  0.0291 -0.1037 -1.1463
   69MOL0     H 9098   4.639   8.177  11.257  0.4450 -3.4613  2.8089
   69MOL0     H 9099   4.704   8.345  11.298 -0.0703 -1.1794 -0.6064
   69MOL0     H 9100   4.450   8.317  11.348 -0.3692 -1.7307 -0.4537
   69MOL0     H 9101   4.493   8.185  11.448 -1.0033 -0.6660 -1.3725
   69MOL0     H 9102   4.596   8.454  11.500  2.5512 -0.5944  0.6710
   69MOL0     H 9103   4.604   8.329  11.625  1.5500  0.7383  0.8271
   69MOL0     H 9104   4.436   8.484  11.695 -2.3089 -0.1122  1.1378
   69MOL0     H 9105   4.339   8.454  11.545 -2.8854 -0.9709  2.0121
   69MOL0     H 9106   4.187   8.127  11.755  0.4006 -0.2840 -0.9235
   69MOL0     H 9107   4.839   8.047  11.199  4.3125  0.7147 -5.2365
   69MOL0     H 9108   5.055   7.990  11.153  0.8493 -0.7182  0.2678
   70MOL0     O 9109   8.277   5.050   5.174  0.0450  0.7682  0.0506
   70MOL0     C 9110   8.293   5.046   5.295  0.2927  0.0326 -0.4591
   70MOL0     O 9111   8.199   5.067   5.381 -0.4750  0.5797  0.3502
   70MOL0     C 9112   8.064   5.063   5.357 -0.2888 -0.4897 -0.1122
   70MOL0     C 9113   7.997   5.004   5.250 -0.0092  1.3831 -0.0726
   70MOL0     C 9114   7.857   5.000   5.250 -0.1449 -0.2132  0.0106
   70MOL0     C 9115   7.777   5.045   5.356 -0.0544  0.6334 -1.3458
   70MOL0     O 9116   7.646   5.039   5.365 -0.0376 -0.1450 -0.5641
   70MOL0     C 9117   7.563   5.017   5.244  0.5133  0.0923  1.1268
   70MOL0     C 9118   7.422   4.990   5.308 -0.3118  0.3338 -0.3635
   70MOL0     C 9119   7.326   4.909   5.215  0.0479 -0.3060 -0.5984
   70MOL0     C 9120   7.281   5.006   5.108  0.4535  0.3707 -0.2136
   70MOL0     C 9121   7.165   5.104   5.146 -0.4418  0.7034  0.5919
   70MOL0     C 9122   7.028   5.036   5.141  0.5757 -0.9450  0.2887
   70MOL0     C 9123   6.907   5.127   5.185 -1.4342 -1.2351  0.5848
   70MOL0     C 9124   6.774   5.074   5.137  0.8357  0.3840  0.0017
   70MOL0     N 9125   6.680   5.141   5.219  0.2351 -0.2933 -0.1262
   70MOL0     C 9126   6.676   5.276   5.241  0.0721  0.3948  0.1831
   70MOL0     C 9127   6.566   5.289   5.309 -0.3744  0.3496 -0.5672
   70MOL0     C 9128   6.516   5.424   5.365 -0.1646  0.8073  0.2434
   70MOL0     C 9129   6.393   5.479   5.296 -0.1488 -0.1300  0.3328
   70MOL0     C 9130   6.268   5.398   5.359 -0.6118 -0.3462  0.6344
   70MOL0     C 9131   6.133   5.468   5.308 -0.1271  1.3576 -0.8135
   70MOL0     O 9132   6.013   5.396   5.351 -0.5723  0.4646  0.3524
   70MOL0     C 9133   5.891   5.445   5.315  0.1873  1.0333  0.3135
   70MOL0     C 9134   5.777   5.362   5.324  0.2447 -1.0724  0.8334
   70MOL0     C 9135   5.650   5.409   5.288 -0.6115  1.5327  0.2871
   70MOL0     C 9136   5.631   5.542   5.254 -0.5301  0.3188  0.0270
   70MOL0     C 9137   5.499   5.599   5.229  0.1390  0.5992  0.5800
   70MOL0     O 9138   5.497   5.740   5.223 -0.1070 -0.0201  0.3462
   70MOL0     C 9139   5.385   5.809   5.176  1.0219  0.3957  0.2794
   70MOL0     C 9140   5.268   5.821   5.256  0.2009  1.4882  0.6974
   70MOL0     C 9141   5.168   5.907   5.199  0.4886 -1.2706 -0.5417
   70MOL0     C 9142   5.173   5.973   5.069 -1.1674  0.1713  0.2853
   70MOL0     O 9143   5.069   6.065   5.035 -0.4824  0.7472  0.0166
   70MOL0     C 9144   5.085   6.119   4.900  0.3278  0.2520 -0.4659
   70MOL0     C 9145   4.950   6.175   4.855 -0.6704  0.4412 -0.2254
   70MOL0     C 9146   4.913   6.306   4.934 -0.1156  0.2933  0.4564
   70MOL0     C 9147   4.983   6.416   4.848 -0.2892 -0.1622  0.1160
   70MOL0     C 9148   4.951   6.548   4.905 -0.0436 -0.7020 -0.3603
   70MOL0     C 9149   5.018   6.660   4.835  0.5329  0.1112 -0.4193
   70MOL0     C 9150   4.972   6.794   4.894 -0.6030  0.2384  0.1844
   70MOL0     C 9151   5.039   6.911   4.810 -0.1406  0.1085  0.2871
   70MOL0    Cl 9152   4.984   6.928   4.649  0.0645  0.5064  0.2439
   70MOL0     C 9153   5.293   5.949   4.997 -0.2099 -0.0077  0.6071
   70MOL0     C 9154   5.390   5.867   5.057  0.6935 -0.2226 -0.4557
   70MOL0     O 9155   5.400   5.525   5.211  0.0777 -0.0158 -0.6225
   70MOL0     C 9156   5.746   5.622   5.228 -0.3263  0.1847 -0.4237
   70MOL0     C 9157   5.868   5.574   5.260  0.2734  0.2583 -0.6248
   70MOL0     N 9158   6.510   5.165   5.350 -0.2065  0.2801 -0.0314
   70MOL0     N 9159   6.578   5.081   5.282  0.3631  1.1790 -0.3820
   70MOL0     C 9160   7.845   5.095   5.470 -1.7685  0.0281  0.7744
   70MOL0     C 9161   7.985   5.099   5.474 -0.3520 -0.7373  0.9593
   70MOL0     C 9162   8.430   5.049   5.349  0.0520 -0.8129  0.6817
   70MOL0     C 9163   8.537   5.018   5.266 -0.3420  0.5713 -0.3012
   70MOL0     C 9164   8.667   5.037   5.320  0.4259  0.3858  0.4855
   70MOL0     C 9165   8.692   5.075   5.453 -0.5201  0.0143 -0.4846
   70MOL0     O 9166   8.819   5.077   5.513  0.2647 -0.1653 -0.7422
   70MOL0     C 9167   8.934   5.023   5.438 -0.4457  0.0553  0.5958
   70MOL0     C 9168   9.058   5.050   5.519 -0.2135 -0.2356  0.0809
   70MOL0     C 9169   9.189   5.038   5.440 -0.5720 -0.1039  1.0611
   70MOL0     C 9170   9.299   4.996   5.533 -0.5448  0.0867  0.3776
   70MOL0     C 9171   9.432   4.994   5.474 -0.2270  0.2992  0.3348
   70MOL0     C 9172   9.538   4.982   5.428  0.3863 -0.7654  0.6186
   70MOL0     C 9173   8.589   5.096   5.534 -0.4852 -0.4849 -0.6301
   70MOL0     C 9174   8.458   5.075   5.489  0.3146 -0.5354 -0.1411
   70MOL0     H 9175   8.054   4.978   5.162  0.2350  1.8811 -0.0663
   70MOL0     H 9176   7.814   4.945   5.167  1.6742 -0.1393 -1.0451
   70MOL0     H 9177   7.593   4.939   5.173 -0.3759  0.7785 -0.0507
   70MOL0     H 9178   7.566   5.104   5.178  1.4741 -0.9202 -0.2143
   70MOL0     H 9179   7.377   5.085   5.337  0.3088  0.4166  0.3588
   70MOL0     H 9180   7.437   4.936   5.401 -1.4528  1.7618  0.6952
   70MOL0     H 9181   7.245   4.866   5.275 -1.0731  2.4175 -0.0308
   70MOL0     H 9182   7.386   4.830   5.169  1.1810  0.4722 -0.4970
   70MOL0     H 9183   7.370   5.057   5.070 -0.0837  0.4573 -1.4304
   70MOL0     H 9184   7.242   4.949   5.022  0.8344 -2.7877  1.5593
   70MOL0     H 9185   7.181   5.183   5.071  2.7356 -3.1273 -3.3624
   70MOL0     H 9186   7.177   5.141   5.248  2.8877 -1.6637  1.2162
   70MOL0     H 9187   7.025   4.950   5.208  1.1898 -1.8017 -0.7601
   70MOL0     H 9188   7.011   5.016   5.035  0.7946 -1.9601  0.4382
   70MOL0     H 9189   6.919   5.136   5.293 -1.2111 -0.6195  0.5090
   70MOL0     H 9190   6.933   5.224   5.142  2.0425 -1.5799  1.5866
   70MOL0     H 9191   6.773   4.970   5.170  0.4769  1.2111  2.9121
   70MOL0     H 9192   6.743   5.088   5.033  1.1735 -0.7517 -0.2625
   70MOL0     H 9193   6.740   5.356   5.207  1.8913 -0.1534  2.1145
   70MOL0     H 9194   6.595   5.498   5.357  0.3150  0.4755  1.6480
   70MOL0     H 9195   6.491   5.394   5.467  0.4076 -1.9672 -0.3408
   70MOL0     H 9196   6.401   5.462   5.189 -0.6763  3.3129 -0.3675
   70MOL0     H 9197   6.375   5.587   5.302  0.7756  0.2166 -2.3338
   70MOL0     H 9198   6.258   5.291   5.339 -0.5915 -0.6163  1.9578
   70MOL0     H 9199   6.264   5.406   5.469 -2.7923  1.3183  0.5228
   70MOL0     H 9200   6.143   5.469   5.199  2.5962  0.2752 -0.6696
   70MOL0     H 9201   6.143   5.573   5.335  2.3705  1.2428 -1.0741
   70MOL0     H 9202   5.785   5.261   5.364  2.0383 -1.4302 -0.3205
   70MOL0     H 9203   5.554   5.359   5.288 -0.1332  0.6013 -0.8934
   70MOL0     H 9204   5.270   5.761   5.346  1.4047 -1.2654 -1.0305
   70MOL0     H 9205   5.082   5.936   5.260 -0.3240 -2.3214 -1.1607
   70MOL0     H 9206   5.124   6.045   4.830 -1.0804  1.0587 -2.1649
   70MOL0     H 9207   5.153   6.202   4.917 -0.5920  0.7059  1.2931
   70MOL0     H 9208   4.877   6.098   4.880 -0.1587 -0.6249 -1.8912
   70MOL0     H 9209   4.949   6.191   4.747  1.0917  3.4262  0.0716
   70MOL0     H 9210   4.950   6.285   5.035 -0.7314 -1.7868  0.2893
   70MOL0     H 9211   4.805   6.319   4.928 -0.2197 -0.9141 -0.5893
   70MOL0     H 9212   5.091   6.400   4.839 -0.4402 -0.9531 -0.4444
   70MOL0     H 9213   4.943   6.412   4.746  2.6154 -3.7280 -1.1244
   70MOL0     H 9214   4.990   6.558   5.007  2.2055  1.8402 -1.3426
   70MOL0     H 9215   4.842   6.560   4.914  0.0604 -1.4041  3.9105
   70MOL0     H 9216   4.987   6.659   4.730  2.6747  0.4112 -1.1080
   70MOL0     H 9217   5.126   6.669   4.855  0.4123  0.9769 -0.1403
   70MOL0     H 9218   4.863   6.789   4.886 -0.8051 -0.2542  2.5512
   70MOL0     H 9219   5.003   6.825   4.994  0.0730  1.7127 -0.4570
   70MOL0     H 9220   5.146   6.886   4.800 -0.4445 -0.3097 -2.7484
   70MOL0     H 9221   5.020   7.006   4.860  0.9628 -0.2075  1.3700
   70MOL0     H 9222   5.320   5.996   4.903  1.2723  2.4233  2.1291
   70MOL0     H 9223   5.480   5.849   4.999  0.7126 -1.9015  0.0335
   70MOL0     H 9224   5.742   5.725   5.193 -0.8916  0.1130 -0.5849
   70MOL0     H 9225   5.956   5.635   5.244  2.2773 -1.9832  1.1270
   70MOL0     H 9226   7.789   5.138   5.552 -0.0998  0.7096  1.5979
   70MOL0     H 9227   8.017   5.122   5.575  0.4793 -0.4474  0.6369
   70MOL0     H 9228   8.528   4.977   5.167  1.7727 -0.1655 -0.2188
   70MOL0     H 9229   8.749   5.007   5.255  2.5147  0.4851  2.9185
   70MOL0     H 9230   8.945   5.068   5.339 -2.0864 -3.4296 -1.3344
   70MOL0     H 9231   8.917   4.918   5.415  3.6633 -0.6065 -0.3277
   70MOL0     H 9232   9.051   5.151   5.561  0.0018 -1.3075  2.9550
   70MOL0     H 9233   9.045   4.977   5.600  2.2528  0.4867  1.2305
   70MOL0     H 9234   9.202   5.132   5.388 -0.7377 -0.5322  0.2352
   70MOL0     H 9235   9.172   4.964   5.361  0.3368 -0.2117  0.9550
   70MOL0     H 9236   9.300   5.081   5.602 -3.8450  0.8370 -0.3040
   70MOL0     H 9237   9.281   4.897   5.578  2.3831 -1.2685 -1.1976
   70MOL0     H 9238   9.631   4.953   5.383 -0.5679 -3.3239  0.0870
   70MOL0     H 9239   8.607   5.139   5.632 -0.3905 -0.3939 -0.6861
   70MOL0     H 9240   8.369   5.085   5.551 -1.2895 -3.3934 -1.7356
   71MOL0     O 9241   4.854   7.699   8.576 -0.0542  0.1225  0.7910
   71MOL0     C 9242   4.931   7.792   8.536 -0.0160  1.1943  0.8303
   71MOL0     O 9243   4.901   7.903   8.473  0.9436  0.4003  0.4403
   71MOL0     C 9244   4.768   7.939   8.454  0.2711  0.6142  0.3466
   71MOL0     C 9245   4.736   8.064   8.476 -0.3744  0.1048 -0.7290
   71MOL0     C 9246   4.612   8.117   8.472 -0.1864 -0.5063  0.7126
   71MOL0     C 9247   4.515   8.042   8.427 -0.4189  0.2642  0.2029
   71MOL0     O 9248   4.386   8.082   8.405 -0.0078 -0.1352 -0.0761
   71MOL0     C 9249   4.352   8.221   8.429  0.3049 -0.2775 -0.2475
   71MOL0     C 9250   4.209   8.237   8.379  0.4453 -0.7455  0.1649
   71MOL0     C 9251   4.151   8.376   8.381  0.3539  0.3849 -0.4536
   71MOL0     C 9252   4.088   8.417   8.523 -0.1368  0.1510 -0.5975
   71MOL0     C 9253   3.988   8.537   8.519 -1.4690 -0.8213  0.8187
   71MOL0     C 9254   3.896   8.522   8.397 -0.1616  0.0555 -0.6146
   71MOL0     C 9255   3.780   8.616   8.407 -0.2646 -0.5209  0.0970
   71MOL0     C 9256   3.705   8.630   8.275  0.3717  0.0503  0.7222
   71MOL0     N 9257   3.598   8.733   8.277 -0.6444  0.1494 -0.5435
   71MOL0     C 9258   3.499   8.747   8.366  0.5316 -0.0229  0.1386
   71MOL0     C 9259   3.454   8.872   8.349 -0.5842 -0.8144  0.6139
   71MOL0     C 9260   3.331   8.934   8.410  0.6606  0.2806  0.3423
   71MOL0     C 9261   3.209   8.867   8.344  0.6015  0.7602  0.0776
   71MOL0     C 9262   3.179   8.909   8.195  0.5774 -0.4876 -0.9360
   71MOL0     C 9263   3.038   8.842   8.154  0.0143 -1.1147  0.7943
   71MOL0     O 9264   2.936   8.895   8.235  0.2530 -0.6208  0.3098
   71MOL0     C 9265   2.808   8.885   8.191 -0.2708 -0.4857  0.2687
   71MOL0     C 9266   2.717   8.952   8.263  1.0075 -0.3004  0.2508
   71MOL0     C 9267   2.580   8.963   8.232  0.2200  0.0587  0.3242
   71MOL0     C 9268   2.525   8.892   8.123 -0.0868 -0.7044  0.6403
   71MOL0     C 9269   2.374   8.885   8.102 -0.9387  0.1649  0.0508
   71MOL0     O 9270   2.331   8.795   8.007  0.1585 -0.2382 -0.6877
   71MOL0     C 9271   2.205   8.746   8.007 -0.2348 -0.5157 -0.8485
   71MOL0     C 9272   2.103   8.750   8.106 -0.6977  0.1111 -0.4178
   71MOL0     C 9273   1.981   8.670   8.089 -0.5751  0.5139 -0.0481
   71MOL0     C 9274   1.956   8.598   7.981 -0.2084 -0.2280 -0.3435
   71MOL0     O 9275   1.844   8.520   7.966  0.6056 -0.5977 -0.1586
   71MOL0     C 9276   1.721   8.593   7.996 -0.1546  0.0320  0.7178
   71MOL0     C 9277   1.713   8.738   7.932  1.1347  0.1683 -0.1220
   71MOL0     C 9278   1.567   8.788   7.940  0.4425  1.1039 -0.4884
   71MOL0     C 9279   1.565   8.940   7.914  1.5362 -0.9333  1.3577
   71MOL0     C 9280   1.431   9.002   7.957 -0.2000 -0.0256 -0.1627
   71MOL0     C 9281   1.429   9.153   7.924 -0.3199 -0.3934  0.7369
   71MOL0     C 9282   1.531   9.240   8.001  0.7018  0.3609 -0.1024
   71MOL0     C 9283   1.614   9.340   7.931 -0.3603 -0.9636  0.7660
   71MOL0    Cl 9284   1.717   9.259   7.802 -0.1880 -0.4635 -0.3351
   71MOL0     C 9285   2.054   8.604   7.880  0.5586  1.0943 -0.4894
   71MOL0     C 9286   2.172   8.669   7.895  0.3126  0.0086 -0.3715
   71MOL0     O 9287   2.305   8.962   8.174  0.2951 -0.4154 -1.1396
   71MOL0     C 9288   2.623   8.832   8.032  0.1568 -0.3719 -0.8933
   71MOL0     C 9289   2.762   8.827   8.076  0.2483 -0.5005 -0.6063
   71MOL0     N 9290   3.533   8.937   8.259 -0.2078  0.9725 -0.0468
   71MOL0     N 9291   3.611   8.850   8.216 -0.0083  0.3686 -0.1625
   71MOL0     C 9292   4.544   7.913   8.375  0.3068 -0.8500 -0.1958
   71MOL0     C 9293   4.673   7.857   8.387 -0.2533 -0.4813  0.5024
   71MOL0     C 9294   5.068   7.768   8.577 -0.1171  0.4267 -1.2306
   71MOL0     C 9295   5.168   7.849   8.538  0.1945 -0.0246 -0.2401
   71MOL0     C 9296   5.298   7.817   8.577  0.0888  0.4245 -0.3075
   71MOL0     C 9297   5.345   7.695   8.641  0.1875  0.4924  1.4198
   71MOL0     O 9298   5.471   7.666   8.683  0.3997  0.3808  0.4480
   71MOL0     C 9299   5.582   7.739   8.626  0.7429  0.0923 -0.5921
   71MOL0     C 9300   5.707   7.686   8.698 -0.3141  0.9322  0.5121
   71MOL0     C 9301   5.720   7.532   8.667  0.3583 -0.7606 -0.3442
   71MOL0     C 9302   5.760   7.496   8.521 -0.4545  0.0226 -0.3703
   71MOL0     C 9303   5.792   7.357   8.505 -0.4680  0.5980  0.3815
   71MOL0     C 9304   5.821   7.234   8.505 -0.0161 -0.1857  1.2178
   71MOL0     C 9305   5.245   7.610   8.661 -0.0224  1.1822 -0.2181
   71MOL0     C 9306   5.111   7.641   8.626 -0.3894  0.4083 -0.4792
   71MOL0     H 9307   4.802   8.145   8.507  0.5654 -0.1711 -1.9473
   71MOL0     H 9308   4.603   8.223   8.496  1.3580 -0.0682 -0.4786
   71MOL0     H 9309   4.423   8.286   8.377  0.3566 -0.3934 -0.3226
   71MOL0     H 9310   4.356   8.242   8.536 -2.7854  0.3640 -0.1584
   71MOL0     H 9311   4.142   8.176   8.440  0.7961 -0.3687  0.9421
   71MOL0     H 9312   4.211   8.200   8.275  1.0940  0.7013 -0.3599
   71MOL0     H 9313   4.073   8.379   8.304  1.8074  1.8109 -1.9455
   71MOL0     H 9314   4.228   8.443   8.343 -0.6120  1.3551 -0.7671
   71MOL0     H 9315   4.033   8.325   8.546  0.5115  0.0918  0.8088
   71MOL0     H 9316   4.175   8.424   8.588 -2.0509 -0.8418  2.3052
   71MOL0     H 9317   4.033   8.636   8.508  0.4349 -1.7369 -0.0945
   71MOL0     H 9318   3.930   8.541   8.612  0.7692  2.7644  2.2944
   71MOL0     H 9319   3.862   8.418   8.396  3.4601 -1.2536 -0.8281
   71MOL0     H 9320   3.953   8.542   8.306 -1.0274 -0.4404 -1.2828
   71MOL0     H 9321   3.713   8.583   8.486 -2.5198 -0.7728 -1.8302
   71MOL0     H 9322   3.816   8.710   8.449  0.4755 -0.6930 -0.1349
   71MOL0     H 9323   3.653   8.543   8.234 -1.3143  1.3435  0.0221
   71MOL0     H 9324   3.777   8.661   8.198 -0.4158  1.3812  0.4898
   71MOL0     H 9325   3.456   8.670   8.429 -0.4037 -0.0146 -0.4813
   71MOL0     H 9326   3.322   9.041   8.388 -0.0322  0.4561  1.4165
   71MOL0     H 9327   3.339   8.919   8.518  2.2184 -0.4761  0.1383
   71MOL0     H 9328   3.117   8.881   8.402 -0.1159  0.8545 -1.0541
   71MOL0     H 9329   3.228   8.759   8.349  2.6993  1.1434  2.6565
   71MOL0     H 9330   3.176   9.018   8.191 -1.3290 -0.0145  4.7517
   71MOL0     H 9331   3.257   8.872   8.127  3.1702  4.5369 -1.1015
   71MOL0     H 9332   3.048   8.733   8.164  0.7676 -1.3990 -2.0534
   71MOL0     H 9333   3.027   8.853   8.046  0.2289  2.6338  1.0429
   71MOL0     H 9334   2.763   9.007   8.345 -0.9552  1.0325  0.5241
   71MOL0     H 9335   2.509   9.031   8.278 -0.6579  0.0007 -0.9143
   71MOL0     H 9336   2.116   8.825   8.184 -0.8416  2.8744 -2.8539
   71MOL0     H 9337   1.906   8.668   8.167 -0.0408  0.5222  0.4750
   71MOL0     H 9338   1.714   8.602   8.104 -0.4287  2.2721  0.5772
   71MOL0     H 9339   1.648   8.528   7.947  3.3345 -1.4046 -3.2199
   71MOL0     H 9340   1.734   8.724   7.826 -2.0097  0.4269 -0.9017
   71MOL0     H 9341   1.789   8.795   7.985 -1.8476  1.3105  3.3711
   71MOL0     H 9342   1.533   8.776   8.043 -4.6319 -1.8641 -2.1386
   71MOL0     H 9343   1.510   8.719   7.877  1.7057 -0.4711  0.0202
   71MOL0     H 9344   1.653   8.988   7.959  1.4316  1.3453 -0.7110
   71MOL0     H 9345   1.588   8.954   7.808 -1.6017  0.2064  0.7322
   71MOL0     H 9346   1.435   8.983   8.065 -0.1123 -0.1711 -0.1927
   71MOL0     H 9347   1.337   8.955   7.927 -1.9218  1.5652  2.3265
   71MOL0     H 9348   1.331   9.190   7.958 -0.2714 -1.9687  2.7614
   71MOL0     H 9349   1.451   9.163   7.818  4.0595 -1.5378  1.3517
   71MOL0     H 9350   1.483   9.297   8.081  0.4519 -0.3044  0.2314
   71MOL0     H 9351   1.600   9.180   8.062 -1.8740 -0.3435  2.3553
   71MOL0     H 9352   1.675   9.398   8.001  0.4305  0.2607 -0.8803
   71MOL0     H 9353   1.546   9.410   7.881  1.2270 -0.4913 -0.8237
   71MOL0     H 9354   2.050   8.540   7.793  0.1620 -0.2918  0.5046
   71MOL0     H 9355   2.252   8.656   7.822  0.3583  0.6394 -0.4343
   71MOL0     H 9356   2.594   8.768   7.950 -1.4923 -0.9377  0.0763
   71MOL0     H 9357   2.841   8.777   8.020  1.9728  0.0127  1.2529
   71MOL0     H 9358   4.464   7.861   8.324 -1.1824 -2.0820  3.1086
   71MOL0     H 9359   4.694   7.761   8.342  1.2030 -1.2324  2.6644
   71MOL0     H 9360   5.156   7.950   8.500 -1.3533 -0.6855 -1.5948
   71MOL0     H 9361   5.370   7.893   8.549 -0.2014  0.5470 -0.7372
   71MOL0     H 9362   5.571   7.845   8.647  5.0020  0.5672  0.1614
   71MOL0     H 9363   5.595   7.726   8.518  3.8825  0.3052 -0.3515
   71MOL0     H 9364   5.800   7.733   8.666  0.8314 -0.5299  1.5723
   71MOL0     H 9365   5.692   7.699   8.806 -2.1808 -5.1768  1.3543
   71MOL0     H 9366   5.628   7.483   8.700  0.6634 -0.4826  0.9502
   71MOL0     H 9367   5.793   7.487   8.734 -1.3633  1.5284  3.3773
   71MOL0     H 9368   5.672   7.519   8.462 -0.8120  2.8148  1.0665
   71MOL0     H 9369   5.839   7.565   8.488 -1.5593  1.4195 -0.2079
   71MOL0     H 9370   5.853   7.134   8.484  2.4838  0.4769  1.5639
   71MOL0     H 9371   5.252   7.516   8.715  0.6619  1.0522 -0.5248
   71MOL0     H 9372   5.042   7.561   8.650  1.8599 -1.7327 -0.7574
   72MOL0     O 9373  10.202  10.130   1.233 -0.3589  0.5028 -0.0505
   72MOL0     C 9374  10.250  10.247   1.251 -0.5023  0.4202  0.6941
   72MOL0     O 9375  10.184  10.365   1.253 -0.6342 -0.0329 -0.4097
   72MOL0     C 9376  10.047  10.357   1.248 -0.1745  1.0123 -0.1130
   72MOL0     C 9377   9.985  10.417   1.136 -0.4073  0.0062 -1.0165
   72MOL0     C 9378   9.843  10.414   1.120  0.6506 -1.2273  0.1209
   72MOL0     C 9379   9.757  10.362   1.214 -0.1140  1.4200 -0.3270
   72MOL0     O 9380   9.619  10.367   1.207 -0.2222  0.5733  1.4741
   72MOL0     C 9381   9.544  10.252   1.235  0.0258  0.5420 -0.2685
   72MOL0     C 9382   9.400  10.286   1.184 -0.2260 -0.4217  0.0025
   72MOL0     C 9383   9.403  10.292   1.029  0.3350  0.7166  0.1993
   72MOL0     C 9384   9.298  10.393   0.959 -0.6205 -0.6811  0.2228
   72MOL0     C 9385   9.161  10.333   0.928 -0.4811 -0.4281 -1.0038
   72MOL0     C 9386   9.102  10.288   1.057  0.8094 -0.8519 -0.2721
   72MOL0     C 9387   8.946  10.275   1.043  0.3096  0.3725 -0.1081
   72MOL0     C 9388   8.895  10.150   0.959  0.8090  1.1862 -1.1460
   72MOL0     N 9389   8.826  10.197   0.829 -0.0102  0.2304 -0.2685
   72MOL0     C 9390   8.686  10.213   0.815 -0.7744 -0.6099  0.4102
   72MOL0     C 9391   8.664  10.240   0.686 -0.1727  0.3785 -0.2850
   72MOL0     C 9392   8.530  10.273   0.630 -0.4161  0.0479 -0.2439
   72MOL0     C 9393   8.479  10.151   0.542 -0.0548  0.0523  0.1184
   72MOL0     C 9394   8.352  10.179   0.463  0.9003 -0.3485 -0.2439
   72MOL0     C 9395   8.229  10.220   0.552 -0.3953 -0.8103  0.2892
   72MOL0     O 9396   8.193  10.113   0.647  0.2033 -0.2706 -0.4396
   72MOL0     C 9397   8.077  10.040   0.623  0.7921  0.1399  0.5174
   72MOL0     C 9398   8.086   9.904   0.647 -0.3370  0.4722  0.3252
   72MOL0     C 9399   7.979   9.818   0.621 -0.9163  0.7905  0.1609
   72MOL0     C 9400   7.866   9.875   0.572  0.6599 -0.1531  0.4242
   72MOL0     C 9401   7.750   9.782   0.550  0.8808 -0.0726  0.3188
   72MOL0     O 9402   7.624   9.838   0.541  0.3886 -0.1103 -1.1123
   72MOL0     C 9403   7.508   9.770   0.514 -0.3288 -0.0318 -0.3001
   72MOL0     C 9404   7.500   9.684   0.412 -0.3182 -0.1353 -0.9461
   72MOL0     C 9405   7.382   9.628   0.370 -0.5896  0.8035 -0.1547
   72MOL0     C 9406   7.264   9.663   0.426  0.0002  0.4189 -0.7907
   72MOL0     O 9407   7.157   9.591   0.380  0.3580 -0.0310 -0.2776
   72MOL0     C 9408   7.027   9.638   0.413  0.1543 -0.7584  0.2590
   72MOL0     C 9409   6.932   9.546   0.329 -0.1533 -0.2777 -1.1146
   72MOL0     C 9410   6.783   9.587   0.346  0.3145  0.2063  1.2735
   72MOL0     C 9411   6.692   9.473   0.343 -1.1341  0.1353  0.4349
   72MOL0     C 9412   6.547   9.501   0.387  0.6586  0.4686 -0.3077
   72MOL0     C 9413   6.460   9.598   0.294  0.0958 -0.6562  0.0060
   72MOL0     C 9414   6.315   9.612   0.341 -0.5814  0.0537  0.1610
   72MOL0     C 9415   6.269   9.737   0.273  0.4891 -0.0076 -0.2661
   72MOL0    Cl 9416   6.099   9.765   0.321 -0.2046 -0.0100 -0.5930
   72MOL0     C 9417   7.263   9.746   0.538 -0.2352 -1.2620 -0.4587
   72MOL0     C 9418   7.385   9.806   0.582 -0.1552  0.9765  1.2095
   72MOL0     O 9419   7.771   9.663   0.540  0.0591 -0.0149 -0.7486
   72MOL0     C 9420   7.849  10.009   0.561 -0.3227  0.3572  0.5491
   72MOL0     C 9421   7.955  10.097   0.582  0.0784  0.4109 -0.2048
   72MOL0     N 9422   8.790  10.252   0.622 -0.1405  0.3658 -1.5188
   72MOL0     N 9423   8.888  10.221   0.710 -0.1553 -0.4837  0.6486
   72MOL0     C 9424   9.824  10.297   1.325 -0.0443  1.6217 -0.5021
   72MOL0     C 9425   9.966  10.290   1.343  0.7169 -0.2358  0.1718
   72MOL0     C 9426  10.400  10.271   1.288  1.0333  0.2770  0.3897
   72MOL0     C 9427  10.453  10.396   1.332  0.1838  0.7635 -0.0364
   72MOL0     C 9428  10.584  10.416   1.376  0.3190 -0.2158  0.3383
   72MOL0     C 9429  10.669  10.311   1.355  0.2687  0.6895 -0.7107
   72MOL0     O 9430  10.796  10.347   1.382 -0.6854  0.0616  0.4571
   72MOL0     C 9431  10.906  10.260   1.380 -0.4567 -0.2031  0.3006
   72MOL0     C 9432  10.980  10.280   1.240 -0.0259  0.0672  0.5636
   72MOL0     C 9433  11.095  10.174   1.190 -0.3827 -0.1751 -0.4185
   72MOL0     C 9434  11.077  10.109   1.048 -0.5700  0.0477  0.4455
   72MOL0     C 9435  11.163   9.989   1.040  0.5651 -0.7386  0.0423
   72MOL0     C 9436  11.235   9.901   1.008  0.1849  0.0699  0.1039
   72MOL0     C 9437  10.623  10.184   1.312 -0.6595 -0.0210 -0.6674
   72MOL0     C 9438  10.490  10.159   1.282 -0.0392 -0.7149 -0.9526
   72MOL0     H 9439  10.039  10.475   1.062  1.4750  0.7378  0.8508
   72MOL0     H 9440   9.796  10.463   1.035 -0.3796 -1.2244  0.6786
   72MOL0     H 9441   9.541  10.233   1.343 -1.0536 -1.1955 -0.5554
   72MOL0     H 9442   9.584  10.161   1.188 -0.1515 -0.4012  1.3407
   72MOL0     H 9443   9.357  10.378   1.224 -3.9972 -2.2354  0.5283
   72MOL0     H 9444   9.338  10.206   1.227 -2.1664  1.1757  0.3366
   72MOL0     H 9445   9.381  10.192   0.990  2.4067  0.7017 -1.1324
   72MOL0     H 9446   9.501  10.322   0.989 -0.4071  2.4660 -0.4154
   72MOL0     H 9447   9.308  10.486   1.015  1.9034 -1.3453  0.9901
   72MOL0     H 9448   9.342  10.430   0.867 -0.9829  0.7764  0.6166
   72MOL0     H 9449   9.160  10.259   0.847 -1.2276 -2.1141  0.4664
   72MOL0     H 9450   9.101  10.420   0.901  0.6033  0.9799  0.9004
   72MOL0     H 9451   9.124  10.366   1.130  1.3852  0.3281 -1.6678
   72MOL0     H 9452   9.158  10.199   1.088 -0.1595 -2.9880 -3.9766
   72MOL0     H 9453   8.898  10.270   1.142 -0.3632 -1.7690 -0.4903
   72MOL0     H 9454   8.911  10.368   0.997  0.1442 -0.6163 -2.1021
   72MOL0     H 9455   8.822  10.097   1.022  0.7346  1.7465 -0.7563
   72MOL0     H 9456   8.971  10.074   0.936 -0.2929 -1.2475  2.2830
   72MOL0     H 9457   8.613  10.203   0.895 -0.5484  3.8726  1.4886
   72MOL0     H 9458   8.534  10.370   0.580  0.0782  1.1427  1.8330
   72MOL0     H 9459   8.459  10.280   0.713 -0.8002 -2.9761 -0.1990
   72MOL0     H 9460   8.458  10.068   0.610 -1.8553 -0.3913 -0.9019
   72MOL0     H 9461   8.563  10.128   0.476 -0.2856  0.1942 -0.2358
   72MOL0     H 9462   8.378  10.263   0.398 -1.2285  1.5023  1.1502
   72MOL0     H 9463   8.325  10.086   0.412 -1.3573  1.4118 -2.5232
   72MOL0     H 9464   8.151  10.236   0.478  1.5856 -0.6706 -1.8899
   72MOL0     H 9465   8.253  10.311   0.608  2.3090 -2.7351  2.5813
   72MOL0     H 9466   8.172   9.854   0.690 -0.2354 -0.4496 -0.9132
   72MOL0     H 9467   8.009   9.713   0.620 -1.4877  0.4695  3.4252
   72MOL0     H 9468   7.588   9.653   0.357  0.3465  3.1237 -1.8989
   72MOL0     H 9469   7.389   9.568   0.280  3.7597  1.3875 -0.4093
   72MOL0     H 9470   7.013   9.743   0.385 -0.1180 -0.3426  1.8240
   72MOL0     H 9471   6.997   9.625   0.517  0.1775 -0.3528  0.3199
   72MOL0     H 9472   6.943   9.446   0.372 -0.3561 -0.3906 -1.3192
   72MOL0     H 9473   6.970   9.541   0.227  1.1054  1.8441 -0.8017
   72MOL0     H 9474   6.768   9.657   0.263  4.1207 -0.6568 -0.3627
   72MOL0     H 9475   6.762   9.634   0.442 -0.1065  3.0896 -0.1163
   72MOL0     H 9476   6.708   9.419   0.250 -3.8526  1.5128 -0.9464
   72MOL0     H 9477   6.726   9.400   0.418 -1.4973 -0.5740 -0.0808
   72MOL0     H 9478   6.548   9.550   0.485  1.8363  2.6401 -1.3531
   72MOL0     H 9479   6.487   9.409   0.392  0.1077  0.8654  1.1742
   72MOL0     H 9480   6.453   9.552   0.195  3.5739 -0.3573 -0.4846
   72MOL0     H 9481   6.512   9.694   0.291  0.1680 -0.5568  2.5562
   72MOL0     H 9482   6.264   9.520   0.312  0.1563 -0.2999 -0.0485
   72MOL0     H 9483   6.315   9.619   0.451  2.9175 -0.5946  0.3397
   72MOL0     H 9484   6.271   9.718   0.165  0.2531  1.8789 -0.6342
   72MOL0     H 9485   6.337   9.821   0.291  1.5027 -0.8239 -0.1972
   72MOL0     H 9486   7.172   9.745   0.598 -0.0556 -0.4229 -0.1579
   72MOL0     H 9487   7.395   9.881   0.660  0.1754  1.7966  0.3964
   72MOL0     H 9488   7.750  10.045   0.535 -2.2871 -5.4969 -1.7705
   72MOL0     H 9489   7.943  10.203   0.563 -0.8108 -0.2085 -3.8442
   72MOL0     H 9490   9.760  10.269   1.409 -0.5537  3.2061 -0.3404
   72MOL0     H 9491  10.009  10.217   1.411 -0.2680 -0.8736  0.1395
   72MOL0     H 9492  10.386  10.482   1.335 -0.1438  0.5683 -1.4175
   72MOL0     H 9493  10.624  10.515   1.397  2.9215  0.5751 -6.0443
   72MOL0     H 9494  10.884  10.154   1.390  0.8739 -0.6114 -0.7529
   72MOL0     H 9495  10.969  10.293   1.463  1.0436 -0.9744 -0.4852
   72MOL0     H 9496  10.896  10.274   1.170  1.0373 -2.0178 -0.6006
   72MOL0     H 9497  11.027  10.379   1.236  2.4011 -1.0833 -2.7856
   72MOL0     H 9498  11.127  10.106   1.270  3.5411  2.1010  0.2432
   72MOL0     H 9499  11.187  10.232   1.174 -0.1887 -0.4448 -0.2876
   72MOL0     H 9500  10.975  10.069   1.039 -0.2217 -1.2578  1.7415
   72MOL0     H 9501  11.102  10.179   0.968  1.8432 -1.4574 -0.2037
   72MOL0     H 9502  11.299   9.821   0.976 -1.3890 -0.8497 -0.8630
   72MOL0     H 9503  10.695  10.104   1.315 -0.8281 -0.3111  4.6309
   72MOL0     H 9504  10.452  10.060   1.256 -2.7060 -0.0044 -0.0442
   73MOL0     O 9505   6.609   9.146   5.026  0.3857  0.4341 -0.7264
   73MOL0     C 9506   6.669   9.135   5.133  0.4839 -0.6880  0.0746
   73MOL0     O 9507   6.659   9.232   5.230 -0.6585  0.5348  0.0773
   73MOL0     C 9508   6.558   9.332   5.222  0.7939 -1.2129 -0.3461
   73MOL0     C 9509   6.529   9.410   5.107  0.0606  0.3807 -0.7421
   73MOL0     C 9510   6.410   9.489   5.099  0.9429 -1.1836  0.2990
   73MOL0     C 9511   6.314   9.494   5.204 -0.1204  0.2221 -0.2391
   73MOL0     O 9512   6.215   9.581   5.172 -0.6642 -0.1244 -0.6240
   73MOL0     C 9513   6.195   9.682   5.268 -0.2692  0.3795  0.4942
   73MOL0     C 9514   6.067   9.748   5.229  1.0133 -0.6133  0.4236
   73MOL0     C 9515   6.068   9.791   5.073  0.4602  0.1532 -0.8226
   73MOL0     C 9516   6.180   9.890   5.032  0.0493  0.2708 -0.3803
   73MOL0     C 9517   6.163  10.037   5.069  0.2061 -0.3518 -0.0694
   73MOL0     C 9518   6.244  10.128   4.977 -0.2599 -0.3191 -0.0337
   73MOL0     C 9519   6.241  10.277   5.004  0.9578  0.0042 -0.3376
   73MOL0     C 9520   6.107  10.340   4.956 -0.2477 -0.1476  0.5138
   73MOL0     N 9521   6.110  10.489   4.950 -0.2111 -1.0091 -0.7327
   73MOL0     C 9522   6.163  10.585   5.029 -0.7666  1.3347 -0.5030
   73MOL0     C 9523   6.110  10.703   4.989  0.1077 -0.4444 -0.3952
   73MOL0     C 9524   6.134  10.842   5.038 -0.1177  0.6086  0.6116
   73MOL0     C 9525   6.230  10.918   4.953  0.0830  0.2990 -0.1989
   73MOL0     C 9526   6.174  10.956   4.818  0.0336 -0.2817  0.2763
   73MOL0     C 9527   6.240  11.082   4.781 -0.0658 -0.2501  0.5295
   73MOL0     O 9528   6.219  11.135   4.646  0.1826  0.3896  0.1860
   73MOL0     C 9529   6.286  11.252   4.627 -0.1677 -0.0153  0.0007
   73MOL0     C 9530   6.383  11.298   4.713  0.4883  0.5246 -0.1058
   73MOL0     C 9531   6.449  11.414   4.691 -0.3209  0.5766 -0.0105
   73MOL0     C 9532   6.420  11.499   4.588 -0.5737 -0.1445  0.7734
   73MOL0     C 9533   6.493  11.628   4.565 -0.4221  1.1644 -0.2947
   73MOL0     O 9534   6.601  11.645   4.652  0.5555  0.2146  0.3159
   73MOL0     C 9535   6.637  11.771   4.679 -0.4878  0.0645 -0.1120
   73MOL0     C 9536   6.643  11.883   4.602  0.0822 -0.6647  0.2821
   73MOL0     C 9537   6.704  12.001   4.659 -0.6787 -0.0659  0.0378
   73MOL0     C 9538   6.759  12.012   4.789  0.3305 -0.0922 -0.2951
   73MOL0     O 9539   6.821  12.131   4.829  0.0504  0.0441  0.3158
   73MOL0     C 9540   6.819  12.249   4.748  0.3210  0.1311 -0.0848
   73MOL0     C 9541   6.887  12.368   4.816 -0.4526  0.0691 -0.4058
   73MOL0     C 9542   6.901  12.484   4.730  0.2915 -0.3346 -0.9546
   73MOL0     C 9543   6.991  12.586   4.796  0.3947 -0.5817 -0.5014
   73MOL0     C 9544   6.921  12.659   4.908 -0.6384 -0.8552  0.2336
   73MOL0     C 9545   6.997  12.782   4.938  0.0834  0.9254  0.2257
   73MOL0     C 9546   6.936  12.853   5.055 -0.1352 -0.4384  0.3008
   73MOL0     C 9547   6.995  12.991   5.062  0.0123 -0.6345 -0.9455
   73MOL0    Cl 9548   6.946  13.056   5.221  0.1985  0.2105  0.1861
   73MOL0     C 9549   6.747  11.900   4.872  0.5579  0.5732  0.5167
   73MOL0     C 9550   6.691  11.779   4.816 -0.0192  0.1696  0.7766
   73MOL0     O 9551   6.445  11.711   4.493 -0.5229 -0.1993 -0.0432
   73MOL0     C 9552   6.323  11.458   4.488 -0.0841  0.5701 -0.3527
   73MOL0     C 9553   6.257  11.336   4.521 -1.0137  0.1950  0.3239
   73MOL0     N 9554   6.014  10.676   4.890  0.0487  0.4950 -0.1214
   73MOL0     N 9555   6.012  10.552   4.872 -0.6101 -0.2652 -0.2110
   73MOL0     C 9556   6.343   9.422   5.321 -0.1964  0.0130  0.8154
   73MOL0     C 9557   6.460   9.339   5.327  0.4348 -0.9112  0.9579
   73MOL0     C 9558   6.778   9.033   5.159  1.0138  0.0023  0.3156
   73MOL0     C 9559   6.798   8.934   5.058  0.0084  0.8554  0.3344
   73MOL0     C 9560   6.895   8.838   5.078 -0.4884 -0.0628  0.5638
   73MOL0     C 9561   6.993   8.848   5.180  0.3169  0.9483 -0.3995
   73MOL0     O 9562   7.078   8.747   5.200  0.8948  0.0983  0.3432
   73MOL0     C 9563   7.203   8.753   5.131 -0.5009  0.5685  0.1927
   73MOL0     C 9564   7.266   8.889   5.092 -0.3206 -0.5064  0.1475
   73MOL0     C 9565   7.389   8.879   4.995 -0.0354 -0.0389 -0.3451
   73MOL0     C 9566   7.497   8.790   5.054 -0.4298 -0.0106  0.8678
   73MOL0     C 9567   7.585   8.741   4.951  0.3400  0.5413 -0.5404
   73MOL0     C 9568   7.677   8.681   4.889  0.0384  0.3069  1.0183
   73MOL0     C 9569   6.971   8.940   5.276 -0.6636 -0.8454 -0.3366
   73MOL0     C 9570   6.868   9.034   5.267  0.8790  0.5477 -0.0245
   73MOL0     H 9571   6.592   9.397   5.020  1.2467  0.6424  0.0449
   73MOL0     H 9572   6.385   9.532   5.002 -1.8646  0.3562  1.6045
   73MOL0     H 9573   6.273   9.758   5.273  0.6213 -0.5190  0.5592
   73MOL0     H 9574   6.181   9.641   5.368 -1.9682 -2.9570 -0.9454
   73MOL0     H 9575   6.065   9.841   5.286  2.3587  0.2153 -0.7795
   73MOL0     H 9576   5.978   9.686   5.243 -2.1233  3.3669 -0.0881
   73MOL0     H 9577   5.967   9.828   5.056  1.3430  3.3941  0.1847
   73MOL0     H 9578   6.094   9.704   5.013  0.2863 -0.8388  0.5135
   73MOL0     H 9579   6.278   9.857   5.069  1.3540  1.7528 -2.2838
   73MOL0     H 9580   6.191   9.895   4.923  0.4112  1.1333 -0.3139
   73MOL0     H 9581   6.190  10.057   5.173  2.6812 -0.5145 -0.6259
   73MOL0     H 9582   6.060  10.072   5.057  0.3379  1.0251  2.2650
   73MOL0     H 9583   6.220  10.124   4.870  1.4163  5.4550 -0.9314
   73MOL0     H 9584   6.345  10.087   4.985 -0.0060  0.2682 -0.2336
   73MOL0     H 9585   6.247  10.291   5.112 -0.9219 -0.9219 -0.0736
   73MOL0     H 9586   6.328  10.335   4.971  2.2351 -1.7749 -0.2736
   73MOL0     H 9587   6.024  10.326   5.026 -1.2665  2.1087 -0.1296
   73MOL0     H 9588   6.085  10.301   4.857  1.5040  1.3900 -0.5509
   73MOL0     H 9589   6.231  10.574   5.113 -1.1554  3.4176  0.1404
   73MOL0     H 9590   6.180  10.846   5.137  1.4217  0.9916 -0.0842
   73MOL0     H 9591   6.040  10.896   5.047 -0.1434  0.9024 -1.0280
   73MOL0     H 9592   6.318  10.858   4.930  0.1930  0.4043 -0.0492
   73MOL0     H 9593   6.266  11.005   5.009  2.2770  0.3529 -1.5817
   73MOL0     H 9594   6.199  10.887   4.737  0.3289  1.2380 -0.9739
   73MOL0     H 9595   6.066  10.973   4.825  0.3876  3.2831 -1.0805
   73MOL0     H 9596   6.345  11.052   4.792 -0.3986 -0.6412  3.6524
   73MOL0     H 9597   6.215  11.152   4.862 -1.8571 -1.5614  1.1748
   73MOL0     H 9598   6.423  11.253   4.804  0.6499 -0.4012 -0.6265
   73MOL0     H 9599   6.534  11.432   4.757  1.3784 -2.5258 -1.1404
   73MOL0     H 9600   6.628  11.890   4.495  1.2357  3.5223  0.1953
   73MOL0     H 9601   6.719  12.089   4.597 -3.2972  1.7190  1.7086
   73MOL0     H 9602   6.718  12.285   4.726  0.0922 -0.5631 -0.1872
   73MOL0     H 9603   6.868  12.233   4.652 -1.2368 -3.3716 -0.4357
   73MOL0     H 9604   6.975  12.344   4.876 -0.8575  1.1158  0.6428
   73MOL0     H 9605   6.814  12.399   4.892  1.0062 -1.5450  1.7506
   73MOL0     H 9606   6.799  12.525   4.724 -0.2247 -1.0934  1.3305
   73MOL0     H 9607   6.948  12.453   4.636  3.7098 -0.6377  0.7163
   73MOL0     H 9608   7.089  12.547   4.825  0.6610  0.7270  0.4734
   73MOL0     H 9609   7.004  12.656   4.712 -4.8095 -1.0618 -2.0107
   73MOL0     H 9610   6.913  12.607   5.004 -3.3029  0.6170  0.8778
   73MOL0     H 9611   6.824  12.698   4.877 -0.5106 -0.5679  0.1906
   73MOL0     H 9612   6.997  12.838   4.844 -1.0001 -0.2457 -0.5045
   73MOL0     H 9613   7.099  12.747   4.958  0.6024  0.0654 -3.3221
   73MOL0     H 9614   6.828  12.864   5.062  0.0870  2.7720  0.0789
   73MOL0     H 9615   6.964  12.800   5.147 -2.6883  2.2094  2.8192
   73MOL0     H 9616   6.963  13.055   4.978 -1.0099 -1.8066 -1.4749
   73MOL0     H 9617   7.103  12.983   5.046  0.8449  0.0123  3.2239
   73MOL0     H 9618   6.778  11.902   4.976  0.5511  1.1132  0.5117
   73MOL0     H 9619   6.690  11.700   4.890 -0.8747 -1.0320 -0.4484
   73MOL0     H 9620   6.308  11.502   4.390  2.9743  2.4034 -0.1504
   73MOL0     H 9621   6.172  11.303   4.461 -1.0637 -3.2942  2.0629
   73MOL0     H 9622   6.269   9.427   5.400 -0.3138 -0.6448  0.7559
   73MOL0     H 9623   6.471   9.270   5.410  1.8477 -4.2785 -1.7739
   73MOL0     H 9624   6.746   8.933   4.963  0.3786 -1.2149  0.1136
   73MOL0     H 9625   6.905   8.755   5.009  0.1924  1.0004 -0.6500
   73MOL0     H 9626   7.190   8.684   5.046  2.5251  0.4585 -0.3017
   73MOL0     H 9627   7.263   8.700   5.205 -0.8480 -1.3511 -0.8146
   73MOL0     H 9628   7.195   8.948   5.034 -0.7400 -1.8026 -0.7182
   73MOL0     H 9629   7.303   8.947   5.176  1.4877  0.5628 -1.3126
   73MOL0     H 9630   7.414   8.983   4.974 -2.2457  0.6293  0.0847
   73MOL0     H 9631   7.362   8.832   4.900 -3.0567  0.7319  0.0344
   73MOL0     H 9632   7.548   8.837   5.139 -0.3409 -2.8537  2.5092
   73MOL0     H 9633   7.463   8.695   5.096 -1.0722 -0.4712 -0.6259
   73MOL0     H 9634   7.763   8.650   4.834 -0.4812  2.4406 -1.1982
   73MOL0     H 9635   7.040   8.944   5.360 -1.0307 -0.1537 -0.0650
   73MOL0     H 9636   6.846   9.110   5.342 -1.8658  0.7290 -0.9010
   74MOL0     O 9637   8.203   7.229   3.798  0.3153 -0.4072  0.1168
   74MOL0     C 9638   8.157   7.176   3.695 -0.3925 -0.9026 -0.1261
   74MOL0     O 9639   8.226   7.147   3.578 -0.7793  0.0779 -0.1403
   74MOL0     C 9640   8.361   7.118   3.585 -0.7341 -0.5939  0.1909
   74MOL0     C 9641   8.412   7.027   3.683  0.0724 -0.4959  0.0950
   74MOL0     C 9642   8.552   7.010   3.689  0.3264  0.2670 -0.1903
   74MOL0     C 9643   8.636   7.073   3.597 -0.3014 -0.4680  0.4999
   74MOL0     O 9644   8.769   7.034   3.599  0.0097 -0.4778  0.3467
   74MOL0     C 9645   8.863   7.112   3.524 -0.4815 -0.0782  0.1402
   74MOL0     C 9646   8.920   7.221   3.617 -0.4416  0.0590 -0.6557
   74MOL0     C 9647   9.022   7.166   3.718 -0.7569 -0.4185 -0.2975
   74MOL0     C 9648   8.968   7.097   3.856 -0.0552 -0.5385 -0.0718
   74MOL0     C 9649   9.030   6.955   3.873 -0.3894  0.0862 -0.9264
   74MOL0     C 9650   8.986   6.879   4.001  0.7093 -0.5773 -0.1908
   74MOL0     C 9651   8.829   6.866   4.008  0.2573 -0.0937 -0.0861
   74MOL0     C 9652   8.809   6.727   4.057  0.1069  0.9394 -0.4397
   74MOL0     N 9653   8.670   6.720   4.100  0.5472  0.2337  0.8039
   74MOL0     C 9654   8.603   6.598   4.116  0.1405 -0.2873  0.5808
   74MOL0     C 9655   8.470   6.628   4.125 -0.4949  0.1511 -0.2638
   74MOL0     C 9656   8.364   6.523   4.156  0.6271 -0.0189 -0.0706
   74MOL0     C 9657   8.362   6.487   4.302  0.4660 -0.2213 -0.5997
   74MOL0     C 9658   8.344   6.606   4.408 -0.7094  0.2502  0.0464
   74MOL0     C 9659   8.208   6.680   4.393  0.2322 -0.3213 -0.7190
   74MOL0     O 9660   8.102   6.586   4.397  0.1841  0.7860 -0.7857
   74MOL0     C 9661   7.981   6.612   4.359 -0.1146  0.5907  0.0552
   74MOL0     C 9662   7.937   6.534   4.252 -0.4834  0.2502 -0.2039
   74MOL0     C 9663   7.802   6.546   4.203 -0.2506 -0.0939 -0.3114
   74MOL0     C 9664   7.720   6.654   4.254  0.0096 -0.8116 -0.6880
   74MOL0     C 9665   7.591   6.678   4.197  0.3158  0.9803  0.4213
   74MOL0     O 9666   7.506   6.752   4.266 -0.1220 -0.7035  0.0150
   74MOL0     C 9667   7.364   6.748   4.234 -0.9906 -0.3207 -0.8472
   74MOL0     C 9668   7.280   6.795   4.338  0.0608 -0.1842 -0.2372
   74MOL0     C 9669   7.140   6.791   4.336  0.5166 -0.6951  0.0913
   74MOL0     C 9670   7.074   6.741   4.226  0.0144 -0.0882  0.4920
   74MOL0     O 9671   6.942   6.746   4.217  0.2294  0.6969  0.4566
   74MOL0     C 9672   6.881   6.746   4.089  0.5188 -0.3918 -0.2648
   74MOL0     C 9673   6.737   6.767   4.110  0.4574 -0.4013  0.1141
   74MOL0     C 9674   6.659   6.753   3.976  0.1668 -0.4411 -0.5443
   74MOL0     C 9675   6.506   6.773   3.999  0.2690  0.3444  0.6692
   74MOL0     C 9676   6.440   6.731   3.869 -0.1200 -0.0598  0.0078
   74MOL0     C 9677   6.289   6.685   3.862  0.4400  0.4219 -0.3203
   74MOL0     C 9678   6.187   6.803   3.863  0.3746  0.0708 -0.2317
   74MOL0     C 9679   6.049   6.769   3.805  0.1251 -0.9359  0.0040
   74MOL0    Cl 9680   5.936   6.915   3.831 -0.2614 -0.0542 -0.1061
   74MOL0     C 9681   7.155   6.698   4.120 -0.5482  0.2379 -0.4045
   74MOL0     C 9682   7.296   6.692   4.129 -0.0827 -0.0471 -0.2367
   74MOL0     O 9683   7.570   6.608   4.097 -0.1602 -0.0355 -0.3213
   74MOL0     C 9684   7.764   6.728   4.367 -0.0780  0.0579 -0.2929
   74MOL0     C 9685   7.890   6.704   4.418  0.0501 -0.2855 -0.5692
   74MOL0     N 9686   8.458   6.765   4.119  0.5733  0.1835  0.3273
   74MOL0     N 9687   8.583   6.815   4.109 -0.1241 -0.8467 -0.2243
   74MOL0     C 9688   8.583   7.172   3.513  0.3831  0.7716  0.1438
   74MOL0     C 9689   8.447   7.188   3.506  0.3298  0.0236  0.2793
   74MOL0     C 9690   8.009   7.173   3.686 -0.9485 -0.1314  0.4861
   74MOL0     C 9691   7.951   7.118   3.570  1.4979 -0.1162  0.3979
   74MOL0     C 9692   7.808   7.099   3.561 -0.5459 -0.5240 -0.0404
   74MOL0     C 9693   7.721   7.148   3.664 -0.2816 -0.8937 -0.3664
   74MOL0     O 9694   7.584   7.144   3.669 -0.3264 -0.9178  0.6458
   74MOL0     C 9695   7.535   7.031   3.595  0.7697  0.8281 -0.1928
   74MOL0     C 9696   7.387   7.011   3.628 -0.0039 -0.6021  0.5200
   74MOL0     C 9697   7.383   6.975   3.777 -1.0855 -0.0356 -1.2587
   74MOL0     C 9698   7.243   6.925   3.816 -0.5652 -0.4073 -0.1204
   74MOL0     C 9699   7.140   7.025   3.821 -0.5343 -0.0564  0.7661
   74MOL0     C 9700   7.064   7.116   3.820 -0.0126  0.9263  0.1074
   74MOL0     C 9701   7.783   7.207   3.777  0.4612  0.5715  0.2688
   74MOL0     C 9702   7.923   7.206   3.793 -0.5619 -0.0957  0.1453
   74MOL0     H 9703   8.343   6.964   3.737  0.2959  1.1201  2.4516
   74MOL0     H 9704   8.577   6.938   3.767  0.2354 -0.0447 -0.4451
   74MOL0     H 9705   8.830   7.160   3.432  1.6260 -0.4879 -0.9039
   74MOL0     H 9706   8.949   7.048   3.502 -0.2350  0.1128  0.5173
   74MOL0     H 9707   8.834   7.266   3.668 -1.0959 -2.6743  0.8356
   74MOL0     H 9708   8.970   7.299   3.559 -0.3341  0.4709 -0.0146
   74MOL0     H 9709   9.098   7.243   3.732 -0.5237 -0.1107 -2.7770
   74MOL0     H 9710   9.067   7.081   3.665  0.0909 -1.6508  2.2413
   74MOL0     H 9711   9.000   7.170   3.932  0.5233  1.5189 -2.1642
   74MOL0     H 9712   8.859   7.095   3.850 -0.0347  1.0858 -3.9914
   74MOL0     H 9713   9.139   6.961   3.864 -0.4001 -0.1093 -1.2112
   74MOL0     H 9714   9.002   6.882   3.797  0.9299 -1.9570  0.4490
   74MOL0     H 9715   9.010   6.946   4.084 -1.0973  0.7501 -0.6817
   74MOL0     H 9716   9.048   6.790   4.016  0.0707 -0.6157  2.8255
   74MOL0     H 9717   8.785   6.943   4.072 -2.2948  0.1330 -1.9965
   74MOL0     H 9718   8.790   6.882   3.907 -0.0407  0.5221  0.1208
   74MOL0     H 9719   8.884   6.705   4.134  0.6145 -2.2005 -1.6987
   74MOL0     H 9720   8.809   6.647   3.984 -2.0247 -2.9889  3.3991
   74MOL0     H 9721   8.641   6.497   4.103  1.6909  0.3032  0.2832
   74MOL0     H 9722   8.382   6.433   4.096 -4.3039 -1.3995  0.0311
   74MOL0     H 9723   8.261   6.555   4.134  1.3607  0.5783 -3.1249
   74MOL0     H 9724   8.447   6.422   4.325 -1.3355 -1.5760  3.1865
   74MOL0     H 9725   8.273   6.427   4.325  1.4448 -2.0343 -1.3280
   74MOL0     H 9726   8.359   6.552   4.502  0.4474 -2.3079 -1.5092
   74MOL0     H 9727   8.427   6.674   4.385 -0.8221  0.9905  1.6547
   74MOL0     H 9728   8.212   6.744   4.305  0.4420  0.8194  0.0983
   74MOL0     H 9729   8.198   6.744   4.481  0.9878 -3.6272  1.9588
   74MOL0     H 9730   8.007   6.465   4.205 -1.6829  0.1398 -1.9351
   74MOL0     H 9731   7.780   6.490   4.113  0.6271  1.2693 -1.4308
   74MOL0     H 9732   7.329   6.822   4.431 -0.3896  1.1346 -0.3684
   74MOL0     H 9733   7.082   6.823   4.422  1.2057  1.3426 -0.1453
   74MOL0     H 9734   6.900   6.651   4.040  4.2186 -1.4359  2.6973
   74MOL0     H 9735   6.933   6.826   4.035 -0.8126  0.7927  0.1441
   74MOL0     H 9736   6.714   6.867   4.148  1.2292 -0.0390 -0.3440
   74MOL0     H 9737   6.688   6.700   4.180  0.5349  1.2336  1.7837
   74MOL0     H 9738   6.688   6.659   3.928  0.2531  0.3174 -2.0295
   74MOL0     H 9739   6.686   6.829   3.903 -1.4631 -0.5384 -1.2704
   74MOL0     H 9740   6.467   6.708   4.078  0.5610  0.3534  0.8193
   74MOL0     H 9741   6.487   6.879   4.017 -0.8702  0.0505  1.3057
   74MOL0     H 9742   6.488   6.637   3.840  2.2425  1.0002  0.2348
   74MOL0     H 9743   6.472   6.801   3.792  1.4421 -1.8384 -1.0537
   74MOL0     H 9744   6.268   6.617   3.945  1.7069  0.5298  0.1004
   74MOL0     H 9745   6.270   6.617   3.778 -2.7606 -0.4849  0.9779
   74MOL0     H 9746   6.172   6.829   3.968 -1.0332  1.2562 -0.6998
   74MOL0     H 9747   6.225   6.884   3.800 -0.2400  0.2398 -0.3911
   74MOL0     H 9748   6.005   6.682   3.856 -1.4426 -0.1274  0.0959
   74MOL0     H 9749   6.061   6.761   3.697 -1.3924 -1.3195 -0.1582
   74MOL0     H 9750   7.117   6.643   4.034  1.0885 -2.1647  0.2894
   74MOL0     H 9751   7.344   6.643   4.045 -0.1564  0.6336 -0.6943
   74MOL0     H 9752   7.715   6.822   4.391 -0.2183  0.5074 -2.2074
   74MOL0     H 9753   7.919   6.773   4.497  1.6232 -0.2469 -1.1462
   74MOL0     H 9754   8.633   7.236   3.441  0.3320 -1.7594 -2.3084
   74MOL0     H 9755   8.416   7.268   3.441 -0.9044 -1.4623 -1.0438
   74MOL0     H 9756   8.015   7.083   3.490  2.5673  0.4246  0.9971
   74MOL0     H 9757   7.763   7.047   3.477 -1.2309  0.0998 -0.0746
   74MOL0     H 9758   7.599   6.944   3.610 -2.0971 -1.3372  0.4778
   74MOL0     H 9759   7.544   7.037   3.486 -1.0189 -1.2110 -0.5309
   74MOL0     H 9760   7.330   7.102   3.611  0.3284 -0.2325  1.3244
   74MOL0     H 9761   7.345   6.931   3.567  1.3562  0.2377 -1.6395
   74MOL0     H 9762   7.406   7.067   3.831 -0.9565 -0.2522 -0.9407
   74MOL0     H 9763   7.459   6.899   3.796 -0.5402  0.8873  0.5367
   74MOL0     H 9764   7.209   6.852   3.741 -0.7658 -2.6244  2.0125
   74MOL0     H 9765   7.248   6.898   3.922  1.3318  1.5354  0.3605
   74MOL0     H 9766   6.998   7.200   3.823  0.6587  1.4370  1.1718
   74MOL0     H 9767   7.724   7.253   3.856  0.7844  1.1213  0.1951
   74MOL0     H 9768   7.965   7.251   3.882 -0.5484  1.3974 -0.5942
   75MOL0     O 9769   0.120   7.658   8.273  0.1361  0.4632 -0.6078
   75MOL0     C 9770   0.175   7.709   8.177  0.2324  0.2467 -0.6190
   75MOL0     O 9771   0.131   7.701   8.045  0.6979 -0.6318 -0.2947
   75MOL0     C 9772   0.010   7.645   8.019 -0.0834  0.9083  1.4159
   75MOL0     C 9773  -0.040   7.522   8.063  0.0652  0.1427  0.8354
   75MOL0     C 9774  -0.163   7.470   8.017  0.6057  0.2937 -0.5517
   75MOL0     C 9775  -0.231   7.542   7.915  1.5789 -0.1357 -0.0141
   75MOL0     O 9776  -0.347   7.498   7.848 -0.3391 -0.6015  0.4836
   75MOL0     C 9777  -0.456   7.454   7.927 -0.0825  0.0226 -0.6692
   75MOL0     C 9778  -0.572   7.452   7.829  0.6907  0.2961 -0.1615
   75MOL0     C 9779  -0.696   7.408   7.909 -0.6472 -0.7279  0.2538
   75MOL0     C 9780  -0.819   7.447   7.828  0.0857  0.1778  0.7727
   75MOL0     C 9781  -0.840   7.376   7.695  0.5944 -0.0703  0.1288
   75MOL0     C 9782  -0.952   7.431   7.607 -0.1312 -0.8621  0.3193
   75MOL0     C 9783  -1.100   7.442   7.659 -0.2778 -0.0214 -0.0847
   75MOL0     C 9784  -1.205   7.479   7.553 -0.0972 -0.2581 -0.3189
   75MOL0     N 9785  -1.334   7.525   7.605  0.4009  0.3620  0.9136
   75MOL0     C 9786  -1.413   7.604   7.525  0.2063  0.4342 -0.1018
   75MOL0     C 9787  -1.520   7.623   7.603  0.4791  0.5880  0.5318
   75MOL0     C 9788  -1.642   7.706   7.571 -0.2655 -0.9368 -0.3190
   75MOL0     C 9789  -1.692   7.794   7.685 -0.5821 -0.3555  0.1231
   75MOL0     C 9790  -1.788   7.713   7.768 -0.1029  0.1141  0.6567
   75MOL0     C 9791  -1.927   7.776   7.764 -1.1884  0.1775 -0.7872
   75MOL0     O 9792  -2.008   7.702   7.848 -0.1870 -0.9881 -0.1479
   75MOL0     C 9793  -2.132   7.753   7.864 -0.0236  0.6495  1.5621
   75MOL0     C 9794  -2.235   7.731   7.766 -0.2122  1.2516 -0.4465
   75MOL0     C 9795  -2.367   7.782   7.800 -0.0681 -0.6172  0.1313
   75MOL0     C 9796  -2.394   7.852   7.919  0.7412 -0.1601  0.3453
   75MOL0     C 9797  -2.530   7.901   7.949 -0.2226 -0.1641 -0.7247
   75MOL0     O 9798  -2.556   7.926   8.079  0.9605 -0.2421 -0.6342
   75MOL0     C 9799  -2.695   7.946   8.110 -0.5476  0.4431 -0.6834
   75MOL0     C 9800  -2.741   8.080   8.147 -0.5574 -0.6458 -0.2328
   75MOL0     C 9801  -2.872   8.092   8.179  0.2368  0.6097 -0.6420
   75MOL0     C 9802  -2.970   7.983   8.175 -0.8235 -0.3173  0.4016
   75MOL0     O 9803  -3.099   8.025   8.210  0.4555 -0.1071 -0.4402
   75MOL0     C 9804  -3.209   7.950   8.169 -0.1801  0.2793 -0.4539
   75MOL0     C 9805  -3.335   8.033   8.211 -0.7603 -0.1503 -0.1247
   75MOL0     C 9806  -3.457   7.983   8.152 -0.1475  0.0778 -0.5525
   75MOL0     C 9807  -3.570   8.050   8.228  0.9012 -0.9890 -0.0354
   75MOL0     C 9808  -3.706   8.000   8.182 -0.7608  0.8987 -0.4158
   75MOL0     C 9809  -3.829   8.090   8.195  0.8731 -0.6050 -0.1511
   75MOL0     C 9810  -3.842   8.153   8.336  0.5825  0.8307  0.1135
   75MOL0     C 9811  -3.972   8.229   8.352 -0.0813 -0.0873 -0.5094
   75MOL0    Cl 9812  -3.984   8.279   8.520 -0.4859 -0.0665 -0.0508
   75MOL0     C 9813  -2.924   7.860   8.121  0.3288  0.8305  1.2458
   75MOL0     C 9814  -2.788   7.837   8.105  0.1755  0.2240 -0.2638
   75MOL0     O 9815  -2.607   7.924   7.857 -0.4890 -0.3848 -0.7174
   75MOL0     C 9816  -2.287   7.867   8.008  0.0582  0.5863 -0.2895
   75MOL0     C 9817  -2.156   7.820   7.979  0.0732 -0.0207  0.1953
   75MOL0     N 9818  -1.511   7.549   7.722 -0.6969  0.0225  0.6790
   75MOL0     N 9819  -1.391   7.487   7.726  0.3968  0.0839  0.3190
   75MOL0     C 9820  -0.171   7.661   7.858  0.3245  0.2403  0.2423
   75MOL0     C 9821  -0.053   7.711   7.918  0.4460 -0.0093  0.4967
   75MOL0     C 9822   0.301   7.779   8.201 -0.0009  1.2807  0.3029
   75MOL0     C 9823   0.398   7.781   8.096 -0.2889  0.8639  0.1125
   75MOL0     C 9824   0.519   7.845   8.105  0.7982 -0.0536  1.1031
   75MOL0     C 9825   0.545   7.907   8.217 -0.9130 -0.8877 -0.1896
   75MOL0     O 9826   0.672   7.958   8.227  0.5473 -0.7623  0.7881
   75MOL0     C 9827   0.736   7.952   8.351  0.0817 -0.3558 -0.1299
   75MOL0     C 9828   0.884   7.992   8.343 -0.0801  0.4918  0.9941
   75MOL0     C 9829   0.952   7.918   8.229  0.7858 -0.2881  0.5211
   75MOL0     C 9830   1.089   7.967   8.191 -0.2223  0.9157  0.0909
   75MOL0     C 9831   1.085   8.059   8.085 -0.7719  0.4267  0.2253
   75MOL0     C 9832   1.089   8.153   8.003 -0.4372 -0.2767  0.0098
   75MOL0     C 9833   0.455   7.904   8.332  0.3841  0.5680 -0.0018
   75MOL0     C 9834   0.331   7.840   8.326 -0.4271  0.1258 -0.1198
   75MOL0     H 9835   0.029   7.485   8.138 -0.5968  1.8914  2.3857
   75MOL0     H 9836  -0.203   7.385   8.070 -2.1966  0.1088 -2.7587
   75MOL0     H 9837  -0.480   7.520   8.010  1.6956  0.4614 -0.4517
   75MOL0     H 9838  -0.439   7.355   7.971 -3.1180 -0.2647  0.0510
   75MOL0     H 9839  -0.550   7.373   7.756 -0.5133 -1.3143  1.1415
   75MOL0     H 9840  -0.590   7.547   7.779  0.6456  0.0449 -0.6308
   75MOL0     H 9841  -0.714   7.458   8.004 -0.2189 -2.6486  1.4066
   75MOL0     H 9842  -0.703   7.299   7.905 -0.5917 -0.9769 -7.1775
   75MOL0     H 9843  -0.906   7.405   7.879 -0.3512  0.9124  0.6385
   75MOL0     H 9844  -0.834   7.555   7.819 -1.5060 -0.2288 -3.2665
   75MOL0     H 9845  -0.851   7.270   7.721  2.2315 -0.1189  0.7712
   75MOL0     H 9846  -0.749   7.395   7.637  1.6932  2.6052  2.4840
   75MOL0     H 9847  -0.961   7.358   7.526  0.0509  0.4001 -0.8588
   75MOL0     H 9848  -0.924   7.531   7.574  0.0081 -0.4604  1.5864
   75MOL0     H 9849  -1.119   7.348   7.712 -0.9401  1.2446  2.0687
   75MOL0     H 9850  -1.085   7.518   7.736 -0.7456 -0.5771  0.5672
   75MOL0     H 9851  -1.207   7.409   7.469  1.8796 -0.7344 -0.0104
   75MOL0     H 9852  -1.158   7.563   7.500 -3.4184 -0.0891 -3.3980
   75MOL0     H 9853  -1.396   7.656   7.432  0.5886 -0.2736 -0.4316
   75MOL0     H 9854  -1.722   7.639   7.536  0.0159 -1.5197  0.1415
   75MOL0     H 9855  -1.614   7.783   7.498  1.0529  1.0102  2.1174
   75MOL0     H 9856  -1.735   7.892   7.658 -2.3294  0.1107  3.8871
   75MOL0     H 9857  -1.599   7.811   7.739 -1.0162 -0.6773  0.9915
   75MOL0     H 9858  -1.788   7.609   7.736 -3.4741  0.4596 -0.9872
   75MOL0     H 9859  -1.755   7.709   7.872 -1.4872  1.4610  1.1916
   75MOL0     H 9860  -1.953   7.782   7.658 -0.5422 -1.6784 -1.0824
   75MOL0     H 9861  -1.911   7.876   7.806 -1.1055 -0.3837  0.5527
   75MOL0     H 9862  -2.215   7.672   7.677 -0.6643  0.6945 -0.1881
   75MOL0     H 9863  -2.443   7.766   7.724  0.0730 -0.8366  0.0345
   75MOL0     H 9864  -2.669   8.161   8.146  0.4384 -1.4999 -1.0688
   75MOL0     H 9865  -2.903   8.191   8.211 -0.1643 -0.3233  2.1634
   75MOL0     H 9866  -3.209   7.851   8.217 -2.1269  0.4919  0.0881
   75MOL0     H 9867  -3.199   7.932   8.062  2.4132 -1.4164 -0.0160
   75MOL0     H 9868  -3.313   8.134   8.172  2.5727 -1.1664 -1.2894
   75MOL0     H 9869  -3.327   8.027   8.320  0.9931  2.1254 -0.0462
   75MOL0     H 9870  -3.466   7.877   8.179  0.4429  0.2050  0.2045
   75MOL0     H 9871  -3.455   8.012   8.047 -2.9456  1.2956 -0.3500
   75MOL0     H 9872  -3.563   8.029   8.335 -3.3441 -2.0296  0.2003
   75MOL0     H 9873  -3.570   8.159   8.213  0.9953 -1.0766 -0.6885
   75MOL0     H 9874  -3.729   7.919   8.252  0.5344  1.9739  1.3470
   75MOL0     H 9875  -3.685   7.968   8.080  2.9629  2.4076 -0.2769
   75MOL0     H 9876  -3.918   8.036   8.161  0.6868  0.7914 -2.0304
   75MOL0     H 9877  -3.823   8.170   8.121  0.3312 -2.8160 -2.7152
   75MOL0     H 9878  -3.835   8.072   8.409 -0.2081  0.8971  0.2806
   75MOL0     H 9879  -3.756   8.218   8.355  1.0258 -0.1708  1.7631
   75MOL0     H 9880  -4.068   8.179   8.340  0.9151 -1.9524 -1.0770
   75MOL0     H 9881  -3.970   8.315   8.285  0.9305 -0.4477 -0.9591
   75MOL0     H 9882  -2.995   7.779   8.108 -1.9860  2.9458 -0.3128
   75MOL0     H 9883  -2.752   7.738   8.080  1.8489  0.2083  1.9336
   75MOL0     H 9884  -2.314   7.912   8.103  1.0947 -2.3692  1.5544
   75MOL0     H 9885  -2.073   7.829   8.048 -0.9423  1.4826  1.2742
   75MOL0     H 9886  -0.210   7.708   7.769 -0.0672  1.2422  0.9296
   75MOL0     H 9887  -0.027   7.807   7.875 -0.4181 -0.9394 -2.3383
   75MOL0     H 9888   0.392   7.727   8.002 -1.6096 -1.3289  1.3617
   75MOL0     H 9889   0.582   7.835   8.017 -1.3969  1.1166 -0.7199
   75MOL0     H 9890   0.720   7.850   8.385  0.5360  0.0402  1.3272
   75MOL0     H 9891   0.704   8.021   8.429  2.7156  0.7213  0.0988
   75MOL0     H 9892   0.901   8.097   8.317 -0.8893 -0.0782 -2.2164
   75MOL0     H 9893   0.935   7.982   8.439  1.5322 -0.7694  0.0635
   75MOL0     H 9894   0.889   7.902   8.141  0.2148  1.1943  0.6270
   75MOL0     H 9895   0.967   7.815   8.261  1.5732  0.1872  1.7447
   75MOL0     H 9896   1.124   8.008   8.286 -0.3200 -1.2214  1.0975
   75MOL0     H 9897   1.152   7.885   8.154 -0.2912  1.1816 -0.6225
   75MOL0     H 9898   1.099   8.242   7.945  2.7384 -1.0025 -0.8023
   75MOL0     H 9899   0.480   7.958   8.422  0.9150  1.0618 -0.4370
   75MOL0     H 9900   0.265   7.855   8.410 -0.0520  1.1358  0.0172
   76MOL0     O 9901   6.663   8.742   4.473  0.3047 -0.4017  0.2650
   76MOL0     C 9902   6.666   8.632   4.428  0.2883  0.4508  0.5040
   76MOL0     O 9903   6.562   8.550   4.405  0.6394  0.1866 -0.0201
   76MOL0     C 9904   6.441   8.572   4.466 -0.3090 -0.0852  0.7348
   76MOL0     C 9905   6.393   8.492   4.568  0.0294  0.5035  0.8592
   76MOL0     C 9906   6.281   8.515   4.644 -0.8314 -0.3342 -0.7361
   76MOL0     C 9907   6.206   8.629   4.612 -0.1524 -1.0205 -0.5388
   76MOL0     O 9908   6.087   8.648   4.679  1.1348  0.2550  0.3715
   76MOL0     C 9909   6.026   8.774   4.667  0.0730  0.6115  0.1408
   76MOL0     C 9910   5.913   8.786   4.772  0.4410  0.3934 -0.1838
   76MOL0     C 9911   5.859   8.928   4.783  0.1618  0.4481 -0.1838
   76MOL0     C 9912   5.735   8.924   4.702  0.8574 -0.5646  0.8694
   76MOL0     C 9913   5.706   9.077   4.649 -0.6774 -0.2464  0.3553
   76MOL0     C 9914   5.818   9.148   4.559  0.4606 -0.3866 -0.0169
   76MOL0     C 9915   5.760   9.279   4.522  0.0489  1.1206 -1.0113
   76MOL0     C 9916   5.799   9.396   4.613 -0.8150  0.6447  0.2997
   76MOL0     N 9917   5.948   9.412   4.643 -0.4320  0.0848 -0.8261
   76MOL0     C 9918   6.042   9.441   4.541 -0.2916  0.3442  0.1200
   76MOL0     C 9919   6.159   9.432   4.601 -0.2208  0.3043 -0.0475
   76MOL0     C 9920   6.301   9.442   4.540 -0.0447 -0.0351 -0.4931
   76MOL0     C 9921   6.323   9.571   4.467 -0.0827  0.7348  0.0522
   76MOL0     C 9922   6.332   9.708   4.537  0.1545  1.2070  0.7883
   76MOL0     C 9923   6.429   9.704   4.645  0.2073 -0.6967  0.0397
   76MOL0     O 9924   6.548   9.652   4.589  0.2704  0.2565  1.2307
   76MOL0     C 9925   6.651   9.589   4.655  0.1431 -0.5373 -0.1045
   76MOL0     C 9926   6.632   9.478   4.737 -0.3387 -0.2920 -0.5008
   76MOL0     C 9927   6.745   9.422   4.786  0.9104  0.9626 -0.7566
   76MOL0     C 9928   6.871   9.464   4.758 -0.1979  0.3237 -2.0693
   76MOL0     C 9929   6.984   9.383   4.784  0.2923  0.3787  0.6575
   76MOL0     O 9930   7.101   9.430   4.736  0.2173  0.2199  0.3603
   76MOL0     C 9931   7.214   9.372   4.775  0.2387  0.1832  0.9008
   76MOL0     C 9932   7.265   9.258   4.695  0.0853 -0.3429 -0.2524
   76MOL0     C 9933   7.373   9.189   4.737 -1.3670  0.6175  0.1423
   76MOL0     C 9934   7.449   9.246   4.844  0.0275 -0.1432 -0.1146
   76MOL0     O 9935   7.561   9.186   4.897  0.5802  0.2747  0.8962
   76MOL0     C 9936   7.653   9.105   4.808  0.9984 -1.3793  0.0003
   76MOL0     C 9937   7.784   9.094   4.882  0.0074  0.0236  0.9321
   76MOL0     C 9938   7.888   8.999   4.822 -0.2625 -0.3058 -0.1741
   76MOL0     C 9939   8.028   9.048   4.845 -0.3284 -0.2534  0.6396
   76MOL0     C 9940   8.122   8.940   4.787  0.4493 -0.0844 -0.1829
   76MOL0     C 9941   8.272   8.985   4.817  0.2730  0.4965 -1.0907
   76MOL0     C 9942   8.384   8.887   4.775  0.1741 -0.2345 -0.7999
   76MOL0     C 9943   8.530   8.935   4.799 -0.7394  0.1575  0.5854
   76MOL0    Cl 9944   8.620   8.794   4.737 -0.5524  0.2567 -0.4070
   76MOL0     C 9945   7.407   9.354   4.919 -0.4450 -0.7046 -0.1615
   76MOL0     C 9946   7.292   9.418   4.884  0.7267  0.5159 -0.8954
   76MOL0     O 9947   6.973   9.269   4.831 -0.0116 -0.7096 -0.3125
   76MOL0     C 9948   6.886   9.581   4.684 -0.2102 -0.0427 -0.2596
   76MOL0     C 9949   6.773   9.643   4.628  0.4818 -0.3414 -0.5467
   76MOL0     N 9950   6.145   9.369   4.726  0.4989 -0.3230  0.3372
   76MOL0     N 9951   6.018   9.369   4.754 -0.2544 -0.4647  0.5437
   76MOL0     C 9952   6.261   8.715   4.517 -0.5878  0.5565  0.3497
   76MOL0     C 9953   6.374   8.684   4.438 -0.9721 -0.4288 -0.4630
   76MOL0     C 9954   6.807   8.572   4.401 -0.0306  0.0438  0.7873
   76MOL0     C 9955   6.921   8.662   4.394  0.7251 -0.7303  0.1214
   76MOL0     C 9956   7.046   8.608   4.404  0.7278  0.7139  0.8530
   76MOL0     C 9957   7.069   8.465   4.409 -0.1455  0.5324  0.2455
   76MOL0     O 9958   7.188   8.395   4.417  0.3558  0.5442 -0.0673
   76MOL0     C 9959   7.268   8.416   4.300  0.6694 -0.3577 -0.8083
   76MOL0     C 9960   7.382   8.322   4.290 -0.4208  0.5448 -1.0989
   76MOL0     C 9961   7.468   8.311   4.415  0.8825  0.2192  0.1825
   76MOL0     C 9962   7.587   8.225   4.388  0.4470  1.4506  0.0702
   76MOL0     C 9963   7.687   8.230   4.489  1.3515 -0.6366 -0.3869
   76MOL0     C 9964   7.774   8.281   4.564  1.0664  0.2992 -0.7065
   76MOL0     C 9965   6.956   8.388   4.402 -0.5769 -0.2112  0.2168
   76MOL0     C 9966   6.832   8.439   4.397 -0.7361 -0.0963  0.2377
   76MOL0     H 9967   6.447   8.398   4.570  0.6175  0.0884 -6.3929
   76MOL0     H 9968   6.249   8.455   4.729 -0.6139  1.4544  0.6872
   76MOL0     H 9969   5.990   8.800   4.566 -1.2163  2.1381  0.9333
   76MOL0     H 9970   6.095   8.853   4.698  0.2779 -0.6804  3.2871
   76MOL0     H 9971   5.955   8.751   4.866 -2.7865 -0.3877  1.0996
   76MOL0     H 9972   5.822   8.726   4.762 -0.4981  1.3670  1.9616
   76MOL0     H 9973   5.940   8.994   4.753 -0.1272  0.1904 -1.6185
   76MOL0     H 9974   5.832   8.949   4.886  1.7288 -1.2471  0.6345
   76MOL0     H 9975   5.747   8.871   4.607  1.6135  1.8621 -0.4624
   76MOL0     H 9976   5.648   8.889   4.759 -0.2453  0.5096 -0.1050
   76MOL0     H 9977   5.691   9.129   4.744 -1.3206  0.5273 -0.1533
   76MOL0     H 9978   5.608   9.074   4.600 -0.8227  1.4313  0.4867
   76MOL0     H 9979   5.836   9.091   4.467  0.1179  2.2789 -1.8684
   76MOL0     H 9980   5.916   9.161   4.605  0.7063 -4.6875  1.1145
   76MOL0     H 9981   5.806   9.300   4.425  2.7755 -2.0640 -0.5750
   76MOL0     H 9982   5.652   9.271   4.507  0.3979 -1.0230 -3.0123
   76MOL0     H 9983   5.746   9.385   4.709 -0.5896  3.7084  0.8897
   76MOL0     H 9984   5.770   9.482   4.553  1.1286 -1.0542 -3.3906
   76MOL0     H 9985   6.030   9.465   4.436  2.6428  1.8717  0.0404
   76MOL0     H 9986   6.306   9.363   4.464  0.7278  0.0087 -0.4896
   76MOL0     H 9987   6.378   9.439   4.618 -1.8126  0.9719  1.4068
   76MOL0     H 9988   6.237   9.581   4.400  0.4585  2.9437 -0.3977
   76MOL0     H 9989   6.417   9.553   4.413 -0.8280 -2.0919 -0.4814
   76MOL0     H 9990   6.360   9.785   4.465 -1.7692  1.1947 -0.0262
   76MOL0     H 9991   6.236   9.731   4.584  0.6384  2.7669  1.0717
   76MOL0     H 9992   6.394   9.639   4.726  2.4349 -1.7506  0.2465
   76MOL0     H 9993   6.446   9.806   4.679  0.0842 -0.3413 -0.9429
   76MOL0     H 9994   6.527   9.452   4.751 -0.5673  0.6387 -0.3888
   76MOL0     H 9995   6.741   9.329   4.844  0.2418  3.0238  2.8107
   76MOL0     H 9996   7.206   9.217   4.613  2.0584 -0.7482 -1.5199
   76MOL0     H 9997   7.384   9.089   4.697  0.0992  0.2929  1.2749
   76MOL0     H 9998   7.663   9.155   4.711 -0.1575  0.0456  0.5933
   76MOL0     H 9999   7.617   9.004   4.784  1.6269 -0.7150 -4.6883
   76MOL0     H10000   7.757   9.078   4.986 -2.1460  0.4927  0.4845
   76MOL0     H10001   7.821   9.197   4.870 -0.0349 -0.2371 -3.0788
   76MOL0     H10002   7.874   8.983   4.715  0.3692  0.1055 -0.3236
   76MOL0     H10003   7.872   8.901   4.867 -2.1249 -0.1736 -0.4555
   76MOL0     H10004   8.051   9.150   4.813 -1.4970 -0.0749  0.3421
   76MOL0     H10005   8.044   9.047   4.953 -2.3875  1.5851  1.0193
   76MOL0     H10006   8.107   8.923   4.680 -1.6258  0.1800  0.0345
   76MOL0     H10007   8.111   8.846   4.841 -1.2015 -0.6185 -1.3832
   76MOL0     H10008   8.281   8.994   4.926  0.7072  3.4611 -1.2822
   76MOL0     H10009   8.303   9.087   4.793  1.4133  0.3949 -0.1746
   76MOL0     H10010   8.370   8.799   4.838  0.4736  0.3254  0.0692
   76MOL0     H10011   8.373   8.866   4.668  1.6229  0.5645 -1.1382
   76MOL0     H10012   8.553   8.943   4.905 -2.7592 -1.6832  1.2239
   76MOL0     H10013   8.556   9.017   4.731 -1.5052 -0.8370 -0.9587
   76MOL0     H10014   7.485   9.391   4.985  1.8965  0.3839 -3.2756
   76MOL0     H10015   7.257   9.506   4.937  1.0744 -0.7411  1.5843
   76MOL0     H10016   6.988   9.610   4.662 -0.6431 -0.1043 -2.6010
   76MOL0     H10017   6.782   9.721   4.553 -3.9397 -1.2575 -2.3555
   76MOL0     H10018   6.192   8.790   4.480 -0.5964  0.8575  0.9660
   76MOL0     H10019   6.425   8.752   4.370  2.3559 -2.2877 -0.0140
   76MOL0     H10020   6.906   8.768   4.405 -0.3341 -0.7952 -0.5001
   76MOL0     H10021   7.139   8.662   4.400  2.6458 -2.2459  1.9870
   76MOL0     H10022   7.321   8.511   4.296  0.6411 -0.1018  2.4632
   76MOL0     H10023   7.195   8.404   4.219  1.0525  0.3458 -1.2619
   76MOL0     H10024   7.350   8.228   4.243 -0.5417 -0.6808  1.2865
   76MOL0     H10025   7.453   8.363   4.217  2.6648  0.7289  1.7507
   76MOL0     H10026   7.412   8.252   4.488  1.2727 -2.8618 -1.8297
   76MOL0     H10027   7.489   8.409   4.460 -1.6418 -0.0791  2.2312
   76MOL0     H10028   7.562   8.119   4.380  2.3831  0.5994  3.4284
   76MOL0     H10029   7.637   8.248   4.293  0.2612  2.6163  0.2386
   76MOL0     H10030   7.828   8.347   4.628  0.5978 -0.6230  0.6654
   76MOL0     H10031   6.973   8.281   4.404 -3.3874 -0.7425  0.2197
   76MOL0     H10032   6.743   8.380   4.379 -1.0981  0.8002 -1.0604
   77MOL0     O10033   1.156   5.908   4.920  0.0050 -0.6018 -0.4748
   77MOL0     C10034   1.242   5.999   4.905  1.2368  0.6751 -0.7737
   77MOL0     O10035   1.215   6.135   4.870 -0.4586 -0.6124  0.3772
   77MOL0     C10036   1.092   6.185   4.842 -0.1139 -0.6013 -0.4323
   77MOL0     C10037   1.042   6.165   4.711 -0.0871  0.0003 -0.1234
   77MOL0     C10038   0.920   6.222   4.679 -0.5861 -0.2153 -0.2009
   77MOL0     C10039   0.840   6.296   4.773 -0.7337  0.0264  0.9441
   77MOL0     O10040   0.724   6.363   4.745 -0.4172  0.1153  0.0114
   77MOL0     C10041   0.673   6.375   4.610 -0.8064  0.0562  0.2137
   77MOL0     C10042   0.579   6.492   4.615 -0.6403 -0.1573 -0.2666
   77MOL0     C10043   0.465   6.493   4.717  0.8035 -0.6141  0.2127
   77MOL0     C10044   0.378   6.365   4.689 -0.1651  0.4763 -0.9687
   77MOL0     C10045   0.258   6.357   4.778  0.1082 -0.3046 -1.0007
   77MOL0     C10046   0.191   6.223   4.756 -0.5229 -0.3064  0.0717
   77MOL0     C10047   0.045   6.214   4.804 -0.3194  0.6376 -0.2819
   77MOL0     C10048   0.043   6.242   4.952  0.0410  0.6125 -0.1253
   77MOL0     N10049  -0.068   6.176   5.012 -0.2442 -0.1770 -0.1569
   77MOL0     C10050  -0.052   6.075   5.096  0.4060  0.1533 -0.8954
   77MOL0     C10051  -0.176   6.049   5.141  1.2075  0.1367 -0.3664
   77MOL0     C10052  -0.216   5.942   5.240  0.2015 -0.6675 -0.1925
   77MOL0     C10053  -0.204   6.010   5.381 -0.1827 -0.1842  0.0643
   77MOL0     C10054  -0.308   6.128   5.396  0.2388  0.1296  1.2089
   77MOL0     C10055  -0.452   6.088   5.403 -0.9735 -0.2614  0.6575
   77MOL0     O10056  -0.528   6.208   5.405 -0.4219 -0.2022  0.1519
   77MOL0     C10057  -0.610   6.213   5.515 -0.3942  1.1976 -0.1223
   77MOL0     C10058  -0.749   6.222   5.494  0.6393 -0.3747 -0.3090
   77MOL0     C10059  -0.841   6.237   5.602 -0.5697 -0.0809  0.2061
   77MOL0     C10060  -0.789   6.237   5.731  0.1410 -0.2499 -0.3702
   77MOL0     C10061  -0.887   6.263   5.834  0.6314 -0.4344 -0.6057
   77MOL0     O10062  -1.018   6.307   5.810  0.1182  0.3008  0.5451
   77MOL0     C10063  -1.109   6.313   5.912  0.8697 -0.8307  0.2822
   77MOL0     C10064  -1.123   6.221   6.014  0.0608  0.1374  0.5188
   77MOL0     C10065  -1.223   6.235   6.105 -0.1953  0.0094 -0.9925
   77MOL0     C10066  -1.319   6.337   6.098  0.3543  0.2269 -0.3163
   77MOL0     O10067  -1.406   6.346   6.205 -0.8555  0.0771 -0.5295
   77MOL0     C10068  -1.477   6.468   6.237  0.1177  1.0665  0.4287
   77MOL0     C10069  -1.565   6.458   6.362  0.3862  0.1027 -0.0239
   77MOL0     C10070  -1.562   6.325   6.432  0.8969  0.1068 -0.8505
   77MOL0     C10071  -1.674   6.230   6.381  0.1734  0.3395  0.5093
   77MOL0     C10072  -1.663   6.090   6.430 -0.3070  0.1052  0.4990
   77MOL0     C10073  -1.790   6.013   6.408  0.0157  0.4230 -0.1312
   77MOL0     C10074  -1.785   5.880   6.478  0.4633  1.0128  0.2047
   77MOL0     C10075  -1.897   5.781   6.434  0.4981 -0.6141  0.1298
   77MOL0    Cl10076  -2.066   5.844   6.441  0.6393 -0.3071  0.0300
   77MOL0     C10077  -1.314   6.427   5.992  0.6327 -0.7640 -0.0907
   77MOL0     C10078  -1.205   6.418   5.905  0.9140  0.3820 -0.2629
   77MOL0     O10079  -0.832   6.261   5.945 -0.2263  0.0568  0.3813
   77MOL0     C10080  -0.650   6.231   5.753  0.1228  0.4404 -0.1799
   77MOL0     C10081  -0.563   6.226   5.650  0.4941  0.3623  0.3655
   77MOL0     N10082  -0.265   6.133   5.081  0.2916  0.5407 -0.0880
   77MOL0     N10083  -0.199   6.208   5.011 -0.1771  0.5750 -0.1561
   77MOL0     C10084   0.901   6.322   4.895  0.7768  0.5465 -0.8967
   77MOL0     C10085   1.018   6.267   4.931 -1.1449  0.0159  0.1144
   77MOL0     C10086   1.384   5.967   4.912  1.0645  0.6404 -0.2584
   77MOL0     C10087   1.421   5.829   4.909  0.7335 -0.1294 -0.0397
   77MOL0     C10088   1.558   5.799   4.906 -0.2454  0.4771  0.5880
   77MOL0     C10089   1.655   5.899   4.911  0.4773 -0.1365  0.0840
   77MOL0     O10090   1.776   5.854   4.932 -0.4480  1.0722 -0.3387
   77MOL0     C10091   1.875   5.951   4.897  0.6551  0.3365 -0.2925
   77MOL0     C10092   2.021   5.900   4.880 -0.0117  0.3736 -0.1653
   77MOL0     C10093   2.119   6.014   4.873 -0.9820 -0.2156 -0.2170
   77MOL0     C10094   2.270   5.957   4.856 -0.3374 -0.2856 -0.4619
   77MOL0     C10095   2.375   6.048   4.896 -0.8762 -0.6371 -0.0760
   77MOL0     C10096   2.448   6.129   4.948  0.3259 -0.2207 -0.0200
   77MOL0     C10097   1.620   6.032   4.922 -1.4520 -0.3816  0.2057
   77MOL0     C10098   1.481   6.059   4.916 -0.5323 -0.0892 -0.7402
   77MOL0     H10099   1.096   6.099   4.644 -1.1793  0.6445 -1.6881
   77MOL0     H10100   0.875   6.213   4.581  0.0483 -0.5645 -0.4648
   77MOL0     H10101   0.625   6.282   4.580  2.5119 -1.9068  0.4888
   77MOL0     H10102   0.762   6.390   4.548 -0.7009  1.3383  0.6400
   77MOL0     H10103   0.544   6.510   4.513  0.4723  1.9603 -0.3328
   77MOL0     H10104   0.630   6.587   4.636 -2.4301  1.0181 -0.9347
   77MOL0     H10105   0.404   6.582   4.703 -0.1874 -1.3480 -0.2843
   77MOL0     H10106   0.491   6.491   4.823  0.7060 -0.4160  0.2404
   77MOL0     H10107   0.355   6.359   4.582  2.9677 -0.7463 -1.7020
   77MOL0     H10108   0.446   6.286   4.721  0.7843  2.5321  2.6766
   77MOL0     H10109   0.193   6.442   4.753  3.6691  3.2352  0.7422
   77MOL0     H10110   0.280   6.362   4.885 -0.7174 -0.6023 -0.8085
   77MOL0     H10111   0.243   6.147   4.815 -1.9813 -1.1208  0.3673
   77MOL0     H10112   0.199   6.190   4.652  0.0669  1.7801 -0.5967
   77MOL0     H10113  -0.030   6.271   4.748 -0.9919 -0.4428 -0.4996
   77MOL0     H10114   0.012   6.113   4.780 -1.1780  1.1810 -1.5510
   77MOL0     H10115   0.031   6.350   4.963 -0.5666  0.5580 -0.2271
   77MOL0     H10116   0.138   6.211   4.998  2.0061  2.3508 -2.6854
   77MOL0     H10117   0.037   6.020   5.123 -0.0828 -0.2746 -0.1315
   77MOL0     H10118  -0.155   5.852   5.230 -1.2441 -1.6011 -0.9345
   77MOL0     H10119  -0.317   5.905   5.222  0.2659 -0.3900 -1.1989
   77MOL0     H10120  -0.109   6.061   5.393 -0.1676 -0.3320  0.5751
   77MOL0     H10121  -0.210   5.932   5.458  1.7155 -2.4538 -1.9027
   77MOL0     H10122  -0.285   6.182   5.489 -1.1922 -0.0519  1.6818
   77MOL0     H10123  -0.287   6.199   5.316  2.5932 -0.1022  1.5279
   77MOL0     H10124  -0.454   6.013   5.482  5.0845 -0.8552  0.7036
   77MOL0     H10125  -0.462   6.031   5.310  1.6858  1.0521 -0.5251
   77MOL0     H10126  -0.792   6.212   5.395 -2.3481 -0.1486  0.8674
   77MOL0     H10127  -0.946   6.241   5.574 -0.0768  2.9086 -1.6213
   77MOL0     H10128  -1.052   6.142   6.035  0.4197  0.8278  2.0652
   77MOL0     H10129  -1.218   6.169   6.192 -1.3632  3.4148  1.8806
   77MOL0     H10130  -1.547   6.487   6.155  2.6532  0.8543 -1.9005
   77MOL0     H10131  -1.401   6.546   6.242  3.6147 -1.7268 -3.2433
   77MOL0     H10132  -1.668   6.476   6.332  0.5111 -1.0372 -1.2048
   77MOL0     H10133  -1.538   6.531   6.440  1.3004 -0.5913  0.3242
   77MOL0     H10134  -1.592   6.340   6.536 -1.1025 -0.0631 -1.3459
   77MOL0     H10135  -1.466   6.274   6.429  0.6912 -0.3926  0.3771
   77MOL0     H10136  -1.769   6.266   6.422  1.1272  0.2805  2.9102
   77MOL0     H10137  -1.674   6.234   6.271  3.4743  0.1384  0.4133
   77MOL0     H10138  -1.637   6.101   6.535  1.3193  2.0614 -0.0457
   77MOL0     H10139  -1.595   6.033   6.366 -2.8665  0.2577 -2.6938
   77MOL0     H10140  -1.794   6.000   6.299  0.3622  0.3729 -0.1371
   77MOL0     H10141  -1.880   6.070   6.433  0.9038  1.3521  1.0154
   77MOL0     H10142  -1.692   5.823   6.469 -2.4041 -4.6536  1.7874
   77MOL0     H10143  -1.800   5.905   6.583  2.2931  0.0411  0.7283
   77MOL0     H10144  -1.888   5.688   6.491  1.8229  0.3445  1.5807
   77MOL0     H10145  -1.887   5.739   6.334 -0.5322  0.9323 -0.6669
   77MOL0     H10146  -1.382   6.512   5.985  1.1410 -0.1517  1.8332
   77MOL0     H10147  -1.200   6.491   5.825 -1.7826  1.4458  0.4173
   77MOL0     H10148  -0.617   6.229   5.857  0.8001 -0.4199 -0.3998
   77MOL0     H10149  -0.457   6.230   5.670  0.9053 -1.6438 -1.1145
   77MOL0     H10150   0.855   6.381   4.974 -0.3577 -0.8380 -0.4705
   77MOL0     H10151   1.056   6.274   5.033 -2.9532  0.3228  0.8213
   77MOL0     H10152   1.349   5.749   4.895  3.1204 -2.2894 -0.7339
   77MOL0     H10153   1.585   5.695   4.893 -2.1677 -0.2993  2.3322
   77MOL0     H10154   1.866   6.014   4.986 -0.1155  0.4099 -0.4170
   77MOL0     H10155   1.855   6.012   4.809  0.5278  0.3126 -0.2811
   77MOL0     H10156   2.049   5.832   4.961  0.4552 -1.4218 -1.7618
   77MOL0     H10157   2.024   5.836   4.791  1.0694  1.4020 -0.9006
   77MOL0     H10158   2.121   6.087   4.955  0.2267  0.4037 -0.7794
   77MOL0     H10159   2.099   6.068   4.781 -0.9927  0.5522  0.2307
   77MOL0     H10160   2.281   5.873   4.926  0.9818  1.0043  0.9511
   77MOL0     H10161   2.290   5.903   4.763 -1.3434 -3.6879  1.1175
   77MOL0     H10162   2.508   6.210   4.983 -1.7273  0.3576  2.4739
   77MOL0     H10163   1.691   6.113   4.915 -0.3734 -1.4454 -2.9239
   77MOL0     H10164   1.459   6.165   4.914  2.1014  0.5274 -2.9017
   78MOL0     O10165   2.592   5.518   9.185 -0.1202 -0.1640 -0.1614
   78MOL0     C10166   2.612   5.632   9.230 -0.1848  0.1873 -0.3429
   78MOL0     O10167   2.512   5.729   9.248  0.2225 -0.3048 -0.4637
   78MOL0     C10168   2.385   5.696   9.204  0.9976 -0.0163  0.4362
   78MOL0     C10169   2.353   5.632   9.081 -0.2971 -0.5021  0.3648
   78MOL0     C10170   2.221   5.601   9.045 -0.4804  0.8741  0.3059
   78MOL0     C10171   2.112   5.635   9.131 -0.9318 -0.6943 -0.1109
   78MOL0     O10172   1.982   5.590   9.113 -0.2989  0.3825  0.0585
   78MOL0     C10173   1.924   5.521   9.230 -0.1866  0.3602  0.1389
   78MOL0     C10174   1.792   5.468   9.199  0.1015  0.6378  0.3395
   78MOL0     C10175   1.680   5.559   9.169  0.4013 -0.2480  0.0375
   78MOL0     C10176   1.548   5.488   9.148  0.3891 -0.8651  0.6212
   78MOL0     C10177   1.433   5.595   9.124 -0.0307  0.3722 -0.3412
   78MOL0     C10178   1.299   5.521   9.098  0.1796 -0.5514 -0.1789
   78MOL0     C10179   1.197   5.602   9.008 -0.2147  0.2878  0.1201
   78MOL0     C10180   1.069   5.515   8.979  0.1555 -1.4185 -0.1559
   78MOL0     N10181   0.952   5.602   8.947 -0.2672  0.2026  0.1183
   78MOL0     C10182   0.853   5.634   9.030  0.8054  1.6322 -0.0618
   78MOL0     C10183   0.751   5.685   8.958  0.1235 -0.0638  0.3061
   78MOL0     C10184   0.625   5.724   9.017 -0.3162  0.3910  0.0669
   78MOL0     C10185   0.626   5.875   9.037 -0.0855  0.4714  0.3362
   78MOL0     C10186   0.695   5.907   9.170 -0.6878 -0.1203 -0.1908
   78MOL0     C10187   0.687   6.062   9.190  0.0559  0.8794 -0.3930
   78MOL0     O10188   0.712   6.089   9.329  0.6306 -0.5636 -0.1034
   78MOL0     C10189   0.838   6.094   9.368 -1.0032 -0.2323 -0.0612
   78MOL0     C10190   0.954   6.045   9.307  0.6031  0.3421 -0.4661
   78MOL0     C10191   1.076   6.056   9.373 -0.7186 -0.7340  0.8773
   78MOL0     C10192   1.082   6.108   9.503 -0.0777  0.3207  0.2758
   78MOL0     C10193   1.219   6.135   9.569  0.2937  0.3553 -0.3303
   78MOL0     O10194   1.324   6.164   9.491  0.0193  0.1207  0.2758
   78MOL0     C10195   1.445   6.202   9.544 -0.4385  0.1640 -0.5473
   78MOL0     C10196   1.503   6.112   9.636 -0.0119  1.3431 -0.0530
   78MOL0     C10197   1.622   6.150   9.704  0.4483  0.0373  0.5048
   78MOL0     C10198   1.689   6.273   9.674  0.6028  0.7454 -1.0015
   78MOL0     O10199   1.813   6.305   9.723  0.4492 -0.4690  0.2231
   78MOL0     C10200   1.919   6.278   9.631  0.6447 -0.1988 -0.7141
   78MOL0     C10201   2.040   6.298   9.715 -0.7364  0.1243 -0.7122
   78MOL0     C10202   2.171   6.291   9.641  0.1862 -0.3451  0.1694
   78MOL0     C10203   2.289   6.267   9.740 -0.0618  0.4864  0.2939
   78MOL0     C10204   2.421   6.312   9.676  0.5659  0.7073  0.0918
   78MOL0     C10205   2.542   6.334   9.767  0.4828 -0.1543 -0.0195
   78MOL0     C10206   2.590   6.213   9.840  0.5418  0.5167  0.7035
   78MOL0     C10207   2.654   6.240   9.973 -0.5722  0.2461 -0.1281
   78MOL0    Cl10208   2.813   6.320   9.958  0.0127 -0.0194 -0.0783
   78MOL0     C10209   1.629   6.354   9.573 -0.7324 -1.0812 -0.8661
   78MOL0     C10210   1.509   6.326   9.512 -0.3441  0.0967 -0.1318
   78MOL0     O10211   1.213   6.160   9.687  0.5629 -0.1205  0.5361
   78MOL0     C10212   0.965   6.155   9.566 -0.4762  0.1452  0.0405
   78MOL0     C10213   0.845   6.149   9.499 -0.2277  0.5431 -0.6510
   78MOL0     N10214   0.793   5.677   8.832  0.0311  0.1105 -0.0346
   78MOL0     N10215   0.903   5.620   8.816 -0.2180 -0.1793  0.8884
   78MOL0     C10216   2.144   5.700   9.250 -0.1839  0.4327  0.3492
   78MOL0     C10217   2.275   5.737   9.279 -0.7439  0.5155  0.0763
   78MOL0     C10218   2.749   5.670   9.271  0.8039  0.3085 -0.4514
   78MOL0     C10219   2.865   5.592   9.249  0.7404 -0.6177  0.0113
   78MOL0     C10220   2.991   5.648   9.280 -0.3033 -0.0639 -0.3618
   78MOL0     C10221   3.010   5.773   9.339  0.0400  1.0196 -0.1041
   78MOL0     O10222   3.145   5.809   9.365  0.3208 -0.4341  0.1225
   78MOL0     C10223   3.174   5.939   9.421  0.6180 -0.2444 -0.5252
   78MOL0     C10224   3.184   5.929   9.575  0.6010  0.2753  0.2592
   78MOL0     C10225   3.330   5.904   9.627 -0.0124  0.3823 -0.0721
   78MOL0     C10226   3.337   5.893   9.775 -0.0900  0.2023 -0.8072
   78MOL0     C10227   3.476   5.864   9.816  0.2306  0.5181 -0.0609
   78MOL0     C10228   3.589   5.843   9.851  0.8244 -0.5236  0.0298
   78MOL0     C10229   2.887   5.840   9.374  0.0435 -0.1412 -0.1981
   78MOL0     C10230   2.755   5.795   9.339  0.1413 -0.8289 -0.8758
   78MOL0     H10231   2.438   5.603   9.019 -0.9518 -1.4939 -0.1029
   78MOL0     H10232   2.203   5.536   8.959 -0.5712 -0.0883  1.0365
   78MOL0     H10233   1.924   5.592   9.314  2.1206 -0.0540  0.5679
   78MOL0     H10234   1.993   5.442   9.260  0.5758 -0.4868 -3.3680
   78MOL0     H10235   1.774   5.415   9.293  0.8758 -1.9478 -0.8833
   78MOL0     H10236   1.798   5.392   9.121 -3.6518  1.7533 -1.2404
   78MOL0     H10237   1.701   5.621   9.081  1.8597  1.0659  1.2439
   78MOL0     H10238   1.685   5.639   9.244 -0.9133  1.2862 -1.4240
   78MOL0     H10239   1.557   5.429   9.057 -1.1866 -1.1618  0.6342
   78MOL0     H10240   1.526   5.421   9.231  2.9345  1.1926  3.1733
   78MOL0     H10241   1.459   5.651   9.033 -3.1506  2.4274 -0.1297
   78MOL0     H10242   1.424   5.671   9.202  1.9495  0.5730 -0.2777
   78MOL0     H10243   1.252   5.505   9.195  0.5843 -0.2022  0.0787
   78MOL0     H10244   1.317   5.422   9.054  1.5538  0.1104 -1.1675
   78MOL0     H10245   1.172   5.695   9.059 -1.5324  0.2915 -0.4889
   78MOL0     H10246   1.257   5.619   8.918 -0.3807 -1.4057 -0.3411
   78MOL0     H10247   1.054   5.454   9.068  1.1406 -0.7629  0.4874
   78MOL0     H10248   1.083   5.448   8.893  0.3220  0.6046 -1.7848
   78MOL0     H10249   0.840   5.613   9.136 -1.8027 -1.2928 -0.8132
   78MOL0     H10250   0.603   5.666   9.106  0.7515  0.3749  0.3331
   78MOL0     H10251   0.563   5.689   8.934  1.9228 -2.4698 -0.5650
   78MOL0     H10252   0.524   5.914   9.026 -1.0348 -2.3118 -1.7640
   78MOL0     H10253   0.686   5.915   8.954  1.2619 -1.7266  0.1860
   78MOL0     H10254   0.645   5.858   9.254  0.5541 -1.7363 -0.3232
   78MOL0     H10255   0.802   5.882   9.170 -0.6890 -0.3473  2.1722
   78MOL0     H10256   0.589   6.102   9.165 -0.7175 -0.7119 -0.0167
   78MOL0     H10257   0.765   6.120   9.139  1.7215  1.1290  2.2014
   78MOL0     H10258   0.961   5.992   9.213 -2.4076 -0.0877 -0.5326
   78MOL0     H10259   1.166   6.024   9.322 -0.8503 -0.5314  0.5162
   78MOL0     H10260   1.446   6.021   9.653 -0.8446  2.1088  1.4283
   78MOL0     H10261   1.669   6.077   9.770 -0.9879 -0.3658  1.1288
   78MOL0     H10262   1.920   6.359   9.558 -1.8332 -1.4580 -2.2743
   78MOL0     H10263   1.909   6.181   9.580  0.1151 -0.9025  0.6700
   78MOL0     H10264   2.045   6.218   9.789 -0.5488 -1.1676 -2.0771
   78MOL0     H10265   2.028   6.388   9.776  0.8266 -0.5322  0.6265
   78MOL0     H10266   2.193   6.381   9.583 -0.5922 -1.4399 -1.9124
   78MOL0     H10267   2.180   6.206   9.573  0.6834 -1.3233  1.4145
   78MOL0     H10268   2.270   6.327   9.829  0.0736  4.7447 -2.2635
   78MOL0     H10269   2.291   6.160   9.763 -3.0816  0.5439  1.2229
   78MOL0     H10270   2.414   6.397   9.607 -0.1132 -0.0485 -0.8047
   78MOL0     H10271   2.449   6.226   9.614 -2.3492  0.1401 -0.6211
   78MOL0     H10272   2.519   6.413   9.839  0.0620  1.7637 -2.1473
   78MOL0     H10273   2.621   6.373   9.702 -0.1432  1.5812  0.2151
   78MOL0     H10274   2.498   6.157   9.858  0.4624  1.1793  2.5611
   78MOL0     H10275   2.659   6.160   9.773 -1.1922  0.8879 -1.5024
   78MOL0     H10276   2.673   6.142  10.019  1.0520  0.5588 -0.0670
   78MOL0     H10277   2.595   6.299  10.043 -1.6740 -0.0663 -0.7733
   78MOL0     H10278   1.690   6.440   9.547  0.3519 -2.3799 -2.8969
   78MOL0     H10279   1.468   6.384   9.430  1.9673  3.0163  0.6150
   78MOL0     H10280   0.962   6.196   9.666  0.8066 -2.3907  1.2025
   78MOL0     H10281   0.753   6.198   9.530  0.0242 -1.5191  4.0806
   78MOL0     H10282   2.080   5.722   9.334 -0.7668 -0.1990  0.0793
   78MOL0     H10283   2.304   5.797   9.365 -1.3981  4.2455 -2.0856
   78MOL0     H10284   2.847   5.494   9.206 -0.1347 -1.6949  2.5854
   78MOL0     H10285   3.082   5.594   9.253  0.9479  1.6616  0.2303
   78MOL0     H10286   3.106   6.021   9.397  2.5517  1.9715  1.0856
   78MOL0     H10287   3.277   5.959   9.389  0.7467  2.0486  1.0764
   78MOL0     H10288   3.138   6.013   9.629  4.2035  2.9899 -0.5012
   78MOL0     H10289   3.121   5.843   9.597  0.1779  0.3362 -0.6671
   78MOL0     H10290   3.383   5.996   9.600  0.4926  0.3434  0.7298
   78MOL0     H10291   3.375   5.818   9.576 -2.0006  0.6135 -2.3805
   78MOL0     H10292   3.291   5.967   9.842  0.0478  0.1169 -0.6197
   78MOL0     H10293   3.275   5.804   9.794 -0.2190  0.2553 -0.9761
   78MOL0     H10294   3.681   5.822   9.900 -1.7582 -2.2223  4.7668
   78MOL0     H10295   2.897   5.931   9.433 -0.5582 -0.6032  0.6456
   78MOL0     H10296   2.668   5.855   9.363  0.7525 -1.6545  5.1090
   79MOL0     O10297   2.062   8.690   4.717 -0.1903  0.2984 -1.0139
   79MOL0     C10298   2.148   8.724   4.645 -0.5798 -0.3034  0.6763
   79MOL0     O10299   2.129   8.732   4.506  0.1770 -0.6866  0.3559
   79MOL0     C10300   2.043   8.655   4.438 -0.1780 -0.4401  0.2013
   79MOL0     C10301   1.911   8.695   4.413 -0.4581 -0.9505  0.7286
   79MOL0     C10302   1.817   8.629   4.346  0.0059 -0.3866 -0.7980
   79MOL0     C10303   1.851   8.499   4.306 -0.0349 -0.3841  0.1701
   79MOL0     O10304   1.763   8.437   4.228 -1.1376 -1.0302 -1.3377
   79MOL0     C10305   1.624   8.413   4.269 -0.4437 -0.0916  0.1745
   79MOL0     C10306   1.578   8.302   4.169  0.6845  0.0224  0.0606
   79MOL0     C10307   1.536   8.356   4.040  0.2186 -0.0593 -0.2368
   79MOL0     C10308   1.396   8.429   4.023 -0.3709  0.4809 -0.1482
   79MOL0     C10309   1.410   8.537   3.904  0.2300  0.1983 -0.6022
   79MOL0     C10310   1.418   8.457   3.768  0.4426 -0.6357  0.3800
   79MOL0     C10311   1.424   8.547   3.645 -1.0522  0.3895 -0.1227
   79MOL0     C10312   1.299   8.632   3.606  0.4044  0.8674  1.0711
   79MOL0     N10313   1.173   8.547   3.623 -0.0518  0.4761  0.1474
   79MOL0     C10314   1.090   8.526   3.736 -0.3186  1.2789 -0.0611
   79MOL0     C10315   0.988   8.447   3.691 -0.4576 -1.0789  0.1828
   79MOL0     C10316   0.868   8.407   3.780  0.1457  0.5533  0.2605
   79MOL0     C10317   0.891   8.270   3.841  0.6850  0.0977  0.6048
   79MOL0     C10318   0.774   8.233   3.931  0.9653  0.1962 -0.4136
   79MOL0     C10319   0.803   8.112   4.016  0.4668  0.1583  0.8292
   79MOL0     O10320   0.796   7.989   3.933 -0.1003 -0.2687  0.2045
   79MOL0     C10321   0.672   7.932   3.903  0.7452 -0.6699 -0.0680
   79MOL0     C10322   0.676   7.811   3.850  0.0239  0.2459  0.5515
   79MOL0     C10323   0.562   7.730   3.849  0.4857  0.2775 -0.0960
   79MOL0     C10324   0.435   7.778   3.883 -0.1176 -0.2504  0.2521
   79MOL0     C10325   0.322   7.679   3.896 -0.0796 -0.3018 -0.6162
   79MOL0     O10326   0.341   7.554   3.848  0.6458  0.3459  0.0408
   79MOL0     C10327   0.229   7.480   3.823  0.6079 -0.3657 -0.4640
   79MOL0     C10328   0.121   7.526   3.737 -0.4693  0.1403 -0.3244
   79MOL0     C10329   0.001   7.459   3.726  0.6003  0.7682  0.4650
   79MOL0     C10330  -0.025   7.341   3.794 -0.0693  1.0598 -0.9477
   79MOL0     O10331  -0.134   7.266   3.791 -0.1231 -0.2396 -0.3118
   79MOL0     C10332  -0.250   7.313   3.723  0.2141 -0.8452  0.4121
   79MOL0     C10333  -0.361   7.230   3.751  0.3119 -0.1748  0.2176
   79MOL0     C10334  -0.489   7.297   3.698  0.3335  0.2141  0.5897
   79MOL0     C10335  -0.615   7.256   3.771 -0.3806  0.0830 -0.3629
   79MOL0     C10336  -0.641   7.105   3.756  0.1543 -0.0074  0.2072
   79MOL0     C10337  -0.764   7.060   3.850  0.0143  0.8697 -0.8232
   79MOL0     C10338  -0.896   7.109   3.798  0.0636  0.2288 -0.1869
   79MOL0     C10339  -0.947   7.028   3.673 -0.5318 -0.0988 -0.9105
   79MOL0    Cl10340  -1.021   6.881   3.745  0.2612  0.7273 -0.1258
   79MOL0     C10341   0.080   7.290   3.875 -0.1765 -0.1932  0.3661
   79MOL0     C10342   0.204   7.361   3.890  0.2477  0.8020 -0.1480
   79MOL0     O10343   0.221   7.716   3.964 -0.1336  0.7116 -0.3470
   79MOL0     C10344   0.428   7.916   3.928  0.5020  0.3745 -0.8415
   79MOL0     C10345   0.548   7.991   3.955  0.1718  0.3752  0.3860
   79MOL0     N10346   1.006   8.441   3.550  0.6128 -0.0592  0.5643
   79MOL0     N10347   1.113   8.499   3.512  0.2924 -0.3879 -0.6574
   79MOL0     C10348   1.981   8.453   4.321 -0.1166  0.5614 -0.4190
   79MOL0     C10349   2.080   8.532   4.385  0.2161 -0.5251  0.0824
   79MOL0     C10350   2.282   8.767   4.691 -0.3388  0.1214  0.4262
   79MOL0     C10351   2.354   8.864   4.618  0.3933  0.1188  0.0036
   79MOL0     C10352   2.488   8.886   4.657 -0.2860 -0.1524  0.2120
   79MOL0     C10353   2.543   8.820   4.768 -0.1571 -0.2158  0.4447
   79MOL0     O10354   2.676   8.832   4.799  0.0375  0.2912  0.2736
   79MOL0     C10355   2.699   8.931   4.898 -0.8711 -0.0497  0.2143
   79MOL0     C10356   2.845   8.983   4.903  0.2644 -0.3802  0.2876
   79MOL0     C10357   2.941   8.869   4.924 -0.1999  0.1279  0.4655
   79MOL0     C10358   3.073   8.938   4.949 -0.0665  0.7986  0.0058
   79MOL0     C10359   3.176   8.828   4.962  1.0685  0.1028  0.0674
   79MOL0     C10360   3.268   8.749   4.946  0.8683  0.0313  0.3885
   79MOL0     C10361   2.467   8.730   4.839 -1.0959 -1.1939 -0.6236
   79MOL0     C10362   2.338   8.704   4.801  0.4682  0.3917 -0.7443
   79MOL0     H10363   1.884   8.792   4.454 -0.5702  0.6448 -2.7500
   79MOL0     H10364   1.715   8.666   4.340  0.4945  0.9222 -1.1602
   79MOL0     H10365   1.567   8.506   4.268  1.9034  1.5022  1.8157
   79MOL0     H10366   1.621   8.384   4.374  1.3911  0.8378  0.5376
   79MOL0     H10367   1.485   8.255   4.202  0.3742  1.4147  1.2486
   79MOL0     H10368   1.649   8.219   4.163  0.9852  0.2788  0.0107
   79MOL0     H10369   1.537   8.268   3.974  2.6322 -0.5028  0.2919
   79MOL0     H10370   1.615   8.427   4.014  0.7622 -0.1654  1.0465
   79MOL0     H10371   1.329   8.346   3.998  1.3289 -0.9911 -0.0145
   79MOL0     H10372   1.378   8.485   4.116  0.7673 -2.3344  1.9147
   79MOL0     H10373   1.497   8.603   3.905  0.5642 -0.2420 -0.2735
   79MOL0     H10374   1.319   8.598   3.903 -0.6129 -0.9772  0.2435
   79MOL0     H10375   1.325   8.399   3.761 -1.6553  2.0028  3.4794
   79MOL0     H10376   1.505   8.390   3.765  1.6354  0.8730  0.0447
   79MOL0     H10377   1.502   8.621   3.664 -2.1687  0.9154  3.1301
   79MOL0     H10378   1.457   8.478   3.567 -1.0192 -0.2205  0.4173
   79MOL0     H10379   1.302   8.663   3.502 -2.1044  0.4826  0.8207
   79MOL0     H10380   1.301   8.717   3.674 -2.3780 -0.8251  3.5208
   79MOL0     H10381   1.105   8.565   3.836  1.0428 -1.0471  0.7294
   79MOL0     H10382   0.787   8.426   3.709 -0.9059  4.3023  2.2191
   79MOL0     H10383   0.856   8.486   3.854  2.1721  0.3604  0.8638
   79MOL0     H10384   0.988   8.274   3.891  0.8732  1.1991  0.1906
   79MOL0     H10385   0.891   8.196   3.761  2.1722 -0.3755  1.0065
   79MOL0     H10386   0.741   8.312   4.000 -0.7819 -0.3776 -0.5530
   79MOL0     H10387   0.682   8.214   3.876  0.2602 -0.3628  0.9055
   79MOL0     H10388   0.739   8.099   4.104 -2.4150 -1.1159 -1.2693
   79MOL0     H10389   0.907   8.117   4.050  0.8610  2.4458 -0.5295
   79MOL0     H10390   0.769   7.765   3.818  0.1793  0.2019  1.0579
   79MOL0     H10391   0.572   7.628   3.813  0.0029  0.5892 -1.1817
   79MOL0     H10392   0.152   7.620   3.690 -0.7834 -0.2653 -1.3833
   79MOL0     H10393  -0.071   7.491   3.651 -0.3600 -3.6982 -0.7717
   79MOL0     H10394  -0.225   7.325   3.617  0.8895  0.0570  0.6674
   79MOL0     H10395  -0.278   7.414   3.753  0.9582 -0.9844  1.6580
   79MOL0     H10396  -0.368   7.216   3.859 -2.7874  0.8002  0.2476
   79MOL0     H10397  -0.352   7.128   3.714 -0.8415 -0.6973  1.3098
   79MOL0     H10398  -0.499   7.273   3.592  1.5292 -0.1516  0.5373
   79MOL0     H10399  -0.496   7.406   3.705 -0.4869  0.1540  0.7478
   79MOL0     H10400  -0.605   7.293   3.874 -0.6487 -1.1568  0.1284
   79MOL0     H10401  -0.710   7.300   3.741 -1.5257 -1.5141  0.6945
   79MOL0     H10402  -0.552   7.044   3.776 -0.2956 -1.4278 -1.8553
   79MOL0     H10403  -0.665   7.087   3.651  5.0473 -0.2367 -1.1133
   79MOL0     H10404  -0.764   7.104   3.950 -1.8788 -1.2250  0.1863
   79MOL0     H10405  -0.752   6.953   3.868  1.8006  1.4299  1.9910
   79MOL0     H10406  -0.968   7.094   3.878 -0.1562  0.3479 -0.3617
   79MOL0     H10407  -0.896   7.216   3.777 -1.3008  0.9401  2.8546
   79MOL0     H10408  -0.865   6.999   3.607  2.0888  1.5308  1.4196
   79MOL0     H10409  -1.024   7.085   3.620 -2.1866 -0.7984  0.6269
   79MOL0     H10410   0.070   7.186   3.907 -0.7020 -0.5876 -1.0101
   79MOL0     H10411   0.278   7.316   3.956  0.0312  0.4687 -0.1314
   79MOL0     H10412   0.333   7.957   3.961  1.5520  0.9258  1.7359
   79MOL0     H10413   0.552   8.092   3.992 -0.6877  1.0422 -1.2350
   79MOL0     H10414   2.011   8.371   4.256  0.7839  1.7870 -1.6091
   79MOL0     H10415   2.182   8.498   4.376  0.0359 -0.9185 -0.5597
   79MOL0     H10416   2.317   8.891   4.520  2.6612 -2.8802 -1.8807
   79MOL0     H10417   2.558   8.949   4.604 -2.4343  2.5169  0.3452
   79MOL0     H10418   2.672   8.887   4.995 -2.1201  0.7981  0.2730
   79MOL0     H10419   2.627   9.010   4.876  0.7524  1.5045  0.3628
   79MOL0     H10420   2.870   9.040   4.813  1.2391 -4.0997 -2.0283
   79MOL0     H10421   2.852   9.042   4.995 -0.7646 -0.7375  0.6164
   79MOL0     H10422   2.948   8.794   4.845 -1.9205 -0.2945  0.6770
   79MOL0     H10423   2.903   8.814   5.011 -2.3706 -0.2045 -0.6345
   79MOL0     H10424   3.101   9.010   4.871 -0.6182 -0.6534 -1.6131
   79MOL0     H10425   3.069   8.985   5.047  2.9734 -0.6788  0.9794
   79MOL0     H10426   3.355   8.692   4.920  1.8401  1.2816  0.8485
   79MOL0     H10427   2.512   8.680   4.924  2.8588  0.0156 -1.7768
   79MOL0     H10428   2.287   8.621   4.849 -1.8123  1.0293 -1.9241
   80MOL0     O10429   4.912   1.438   0.064 -0.0707  0.0109  0.0373
   80MOL0     C10430   4.859   1.421   0.172 -0.4253 -0.5952  0.2359
   80MOL0     O10431   4.921   1.359   0.277  0.2270 -0.6434 -0.5922
   80MOL0     C10432   5.046   1.315   0.252 -0.6023 -0.1524  0.6897
   80MOL0     C10433   5.156   1.364   0.317 -0.0364  0.5450  0.5801
   80MOL0     C10434   5.285   1.328   0.285  0.4930 -0.5765 -0.0576
   80MOL0     C10435   5.306   1.220   0.203  0.1066 -0.0122  0.0623
   80MOL0     O10436   5.430   1.184   0.168 -0.1387  0.4405 -0.1634
   80MOL0     C10437   5.544   1.197   0.258 -0.0588  1.0732 -0.3966
   80MOL0     C10438   5.619   1.319   0.215 -0.6063 -0.2320 -0.5655
   80MOL0     C10439   5.736   1.339   0.314  0.3338 -0.9902 -0.7593
   80MOL0     C10440   5.812   1.476   0.286  1.2902  1.3251 -0.0815
   80MOL0     C10441   5.933   1.494   0.375 -0.4606  0.9444  0.3789
   80MOL0     C10442   6.042   1.407   0.309 -0.0001 -0.0861  0.3667
   80MOL0     C10443   6.152   1.386   0.420 -0.3098  0.5710  0.5426
   80MOL0     C10444   6.222   1.515   0.461 -1.4356 -0.3631 -0.2398
   80MOL0     N10445   6.313   1.569   0.359  0.0168 -0.5603 -0.1742
   80MOL0     C10446   6.447   1.543   0.364 -0.4437  1.0383 -0.9328
   80MOL0     C10447   6.497   1.573   0.246  0.4641 -0.1981 -0.2727
   80MOL0     C10448   6.640   1.589   0.212  0.2959  0.2010 -0.7583
   80MOL0     C10449   6.720   1.474   0.254  1.0916 -0.1355  0.1792
   80MOL0     C10450   6.760   1.391   0.139  0.4369 -0.5419 -0.6880
   80MOL0     C10451   6.857   1.281   0.177  0.7046 -0.2622  0.3206
   80MOL0     O10452   6.963   1.330   0.264 -0.3390  0.3681 -0.1278
   80MOL0     C10453   7.065   1.408   0.219 -0.2520 -0.1007  1.6637
   80MOL0     C10454   7.162   1.419   0.306  0.5660 -0.4929  0.1540
   80MOL0     C10455   7.284   1.488   0.264  0.1358 -0.7384 -0.4446
   80MOL0     C10456   7.294   1.548   0.134 -0.3349  0.5189 -0.6919
   80MOL0     C10457   7.419   1.602   0.087 -0.1773  0.4273  0.1107
   80MOL0     O10458   7.425   1.622  -0.050 -0.3623  0.8430 -0.6217
   80MOL0     C10459   7.534   1.662  -0.122  0.3438  0.2148 -0.1853
   80MOL0     C10460   7.580   1.798  -0.101  0.9303 -0.4443 -0.0881
   80MOL0     C10461   7.705   1.838  -0.165  0.1710 -0.1415  0.4331
   80MOL0     C10462   7.783   1.751  -0.240 -0.3217  0.1856  0.0010
   80MOL0     O10463   7.909   1.792  -0.280 -0.4906 -0.0214  0.4005
   80MOL0     C10464   7.983   1.716  -0.369  0.2362  0.2589  0.4403
   80MOL0     C10465   8.099   1.797  -0.439 -0.0413 -0.9722  0.9764
   80MOL0     C10466   8.194   1.864  -0.338  0.1572  0.1978  0.4128
   80MOL0     C10467   8.319   1.918  -0.403  0.4439 -0.6807  0.1687
   80MOL0     C10468   8.441   1.839  -0.367 -0.4782 -0.0405  0.7801
   80MOL0     C10469   8.556   1.919  -0.434  1.0829 -0.4872  0.9776
   80MOL0     C10470   8.687   1.860  -0.385 -0.3694 -0.8697  0.7364
   80MOL0     C10471   8.820   1.913  -0.449 -0.1536 -0.6661  0.7752
   80MOL0    Cl10472   8.846   2.090  -0.430 -0.4491  0.5602 -0.2901
   80MOL0     C10473   7.726   1.626  -0.264  0.6939  0.6423  0.2763
   80MOL0     C10474   7.605   1.573  -0.204 -0.2837 -0.3959 -0.0573
   80MOL0     O10475   7.515   1.619   0.166  0.4781 -0.4692  0.4086
   80MOL0     C10476   7.188   1.516   0.044 -1.2527  0.3381  0.5294
   80MOL0     C10477   7.079   1.447   0.085  0.7929 -0.3191 -0.3561
   80MOL0     N10478   6.393   1.620   0.169 -0.5852  0.1230  0.0302
   80MOL0     N10479   6.287   1.619   0.239 -0.1808  0.8838  0.0473
   80MOL0     C10480   5.192   1.157   0.140  0.0700 -0.1910 -0.2335
   80MOL0     C10481   5.068   1.216   0.157  0.8881  0.2431  0.1873
   80MOL0     C10482   4.724   1.483   0.194  0.0714  0.7152 -0.2356
   80MOL0     C10483   4.636   1.514   0.081 -0.6616  0.0688 -0.9687
   80MOL0     C10484   4.508   1.565   0.098 -0.8273 -0.4592 -0.1872
   80MOL0     C10485   4.456   1.592   0.223  0.3003 -0.3789  0.3091
   80MOL0     O10486   4.329   1.650   0.243  0.7431  0.2833  0.4034
   80MOL0     C10487   4.264   1.719   0.135  0.1206  1.1467  0.4123
   80MOL0     C10488   4.178   1.836   0.183  0.5815  0.7461  0.6263
   80MOL0     C10489   4.247   1.953   0.246  0.2331 -0.7427  0.1976
   80MOL0     C10490   4.352   2.008   0.141 -0.0230 -0.2173 -0.0036
   80MOL0     C10491   4.424   2.124   0.195  0.2861 -0.7924  0.1830
   80MOL0     C10492   4.476   2.220   0.249  0.4379  0.1544 -0.6136
   80MOL0     C10493   4.532   1.560   0.336  0.8269  0.6021 -0.1191
   80MOL0     C10494   4.660   1.502   0.320  0.3475  0.8315  0.2577
   80MOL0     H10495   5.145   1.449   0.384 -0.0993  2.0842 -1.3006
   80MOL0     H10496   5.373   1.374   0.328 -0.5287  0.6912  0.7409
   80MOL0     H10497   5.611   1.110   0.259  0.8832  1.7564 -1.6150
   80MOL0     H10498   5.515   1.221   0.361  0.2183  0.6213 -0.2087
   80MOL0     H10499   5.563   1.410   0.235 -0.3226 -0.6699  2.7606
   80MOL0     H10500   5.643   1.312   0.109 -0.0332 -2.5569 -0.3572
   80MOL0     H10501   5.805   1.254   0.314  0.5171 -0.8794  1.2161
   80MOL0     H10502   5.692   1.352   0.413 -0.7507 -2.4511 -1.0283
   80MOL0     H10503   5.830   1.486   0.178 -2.8178  3.4308 -0.7440
   80MOL0     H10504   5.736   1.550   0.311 -2.3331 -1.9283 -0.4681
   80MOL0     H10505   5.916   1.449   0.473 -1.6166 -2.6598 -1.2952
   80MOL0     H10506   5.968   1.597   0.389  1.8677  0.0578  1.5401
   80MOL0     H10507   6.086   1.460   0.225 -0.7137 -0.4605 -0.2503
   80MOL0     H10508   5.995   1.313   0.281 -0.5085 -0.5808  2.6448
   80MOL0     H10509   6.112   1.343   0.512  2.2728  0.1494  1.5680
   80MOL0     H10510   6.231   1.316   0.390 -1.0657  0.0094 -0.1583
   80MOL0     H10511   6.287   1.504   0.548  2.3889  1.6961 -2.5592
   80MOL0     H10512   6.157   1.596   0.495  0.8696 -0.0546  4.1540
   80MOL0     H10513   6.494   1.509   0.456 -1.3193  0.8839 -0.5386
   80MOL0     H10514   6.681   1.683   0.251  0.8280 -0.2401 -0.2418
   80MOL0     H10515   6.655   1.603   0.104  3.1409  2.9869 -0.1585
   80MOL0     H10516   6.669   1.419   0.333 -1.8929  1.4236 -0.5156
   80MOL0     H10517   6.811   1.520   0.294  0.4234 -0.3526  1.9969
   80MOL0     H10518   6.674   1.353   0.083 -1.3782  1.1543  0.7673
   80MOL0     H10519   6.806   1.470   0.078 -2.8678  1.7600 -0.4748
   80MOL0     H10520   6.893   1.242   0.081 -1.8058  0.3812 -0.9614
   80MOL0     H10521   6.814   1.197   0.232  2.0495 -1.2169 -0.0183
   80MOL0     H10522   7.143   1.361   0.396 -1.8697  2.9967  2.1069
   80MOL0     H10523   7.374   1.495   0.325 -0.5790  1.1183  0.4793
   80MOL0     H10524   7.517   1.866  -0.045  0.3009  0.1739 -1.5060
   80MOL0     H10525   7.738   1.941  -0.158  1.9430 -0.7108  1.1184
   80MOL0     H10526   7.921   1.666  -0.445  0.3322 -3.5816  2.6304
   80MOL0     H10527   8.024   1.639  -0.303 -0.2200  2.6514  3.7276
   80MOL0     H10528   8.043   1.872  -0.496  2.4030 -0.4076 -0.8920
   80MOL0     H10529   8.165   1.757  -0.517 -0.4288  2.5631 -1.4164
   80MOL0     H10530   8.211   1.799  -0.251  1.8998  4.0675  3.2693
   80MOL0     H10531   8.146   1.953  -0.295 -2.8830 -1.6113  1.0976
   80MOL0     H10532   8.306   1.923  -0.511 -1.2117  1.7387  0.4047
   80MOL0     H10533   8.325   2.022  -0.371 -1.6273  0.9760 -4.0887
   80MOL0     H10534   8.434   1.740  -0.412 -2.0158  0.7572 -0.8482
   80MOL0     H10535   8.458   1.831  -0.259  2.6705 -2.9612  0.2459
   80MOL0     H10536   8.545   2.024  -0.408 -2.3016 -0.8546  1.5648
   80MOL0     H10537   8.536   1.910  -0.541 -1.1440  0.3992  1.2576
   80MOL0     H10538   8.699   1.870  -0.276  1.9377  4.0552  0.3235
   80MOL0     H10539   8.692   1.753  -0.408 -3.2286 -0.6856 -1.2022
   80MOL0     H10540   8.801   1.890  -0.554  1.3194  0.6625  0.1730
   80MOL0     H10541   8.900   1.848  -0.414 -2.2331 -4.0506 -0.3658
   80MOL0     H10542   7.778   1.558  -0.330 -2.2716  0.2871 -1.8961
   80MOL0     H10543   7.563   1.474  -0.220 -0.2007 -0.1444 -2.0721
   80MOL0     H10544   7.192   1.557  -0.057  1.6338 -2.8800 -0.8400
   80MOL0     H10545   7.002   1.436   0.009 -1.4034 -1.0338  1.8675
   80MOL0     H10546   5.196   1.067   0.079  1.9744  1.1360 -2.2138
   80MOL0     H10547   4.976   1.177   0.114  0.8780  0.1780  0.2702
   80MOL0     H10548   4.666   1.489  -0.021 -1.5273 -1.9184 -0.7940
   80MOL0     H10549   4.437   1.573   0.016 -1.9319 -1.3861  0.6465
   80MOL0     H10550   4.193   1.651   0.086 -2.4495  3.0755  1.2138
   80MOL0     H10551   4.338   1.743   0.058 -2.3166 -1.4803 -3.0943
   80MOL0     H10552   4.123   1.887   0.104  0.9535  2.2701  1.3245
   80MOL0     H10553   4.109   1.791   0.254 -0.0247 -3.0388 -2.0522
   80MOL0     H10554   4.307   1.923   0.333  0.3450  5.1294  2.5893
   80MOL0     H10555   4.168   2.022   0.276 -0.2807 -0.6434 -1.3361
   80MOL0     H10556   4.418   1.924   0.119 -1.3111 -1.3800  0.4289
   80MOL0     H10557   4.305   2.033   0.046  1.3086  2.1554 -0.1178
   80MOL0     H10558   4.507   2.312   0.294  0.3919 -1.4157  2.9809
   80MOL0     H10559   4.488   1.575   0.434  3.9540  0.5831  1.4139
   80MOL0     H10560   4.731   1.474   0.397 -0.7890 -0.4104  0.8915
   81MOL0     O10561   2.049   5.752   3.071 -0.1062 -0.0755 -0.5301
   81MOL0     C10562   2.075   5.673   3.166 -0.1702  0.1238  0.1162
   81MOL0     O10563   1.989   5.621   3.262 -0.1478 -0.0190 -0.1420
   81MOL0     C10564   1.851   5.635   3.244 -0.6679  0.7115 -0.1226
   81MOL0     C10565   1.767   5.642   3.357  0.0744 -0.3202  0.2116
   81MOL0     C10566   1.632   5.646   3.350  0.5495  0.1246 -0.2623
   81MOL0     C10567   1.558   5.632   3.234 -0.1552 -0.1268  0.2784
   81MOL0     O10568   1.415   5.628   3.239  0.2794  0.1030 -0.2232
   81MOL0     C10569   1.349   5.640   3.120  0.9289 -0.0144 -0.3202
   81MOL0     C10570   1.201   5.674   3.150 -1.3640 -0.3568 -0.2671
   81MOL0     C10571   1.173   5.808   3.221 -0.4761 -0.3855 -0.1536
   81MOL0     C10572   1.021   5.822   3.227 -0.4544  0.0771  0.1806
   81MOL0     C10573   0.946   5.768   3.353  0.3485  0.3762 -0.6622
   81MOL0     C10574   0.792   5.740   3.325 -0.7654  0.7575 -0.3683
   81MOL0     C10575   0.713   5.707   3.448  1.3305  0.1480  0.8686
   81MOL0     C10576   0.572   5.675   3.397  0.1417 -0.1994  0.4141
   81MOL0     N10577   0.482   5.614   3.504  0.2602 -0.6040  0.5873
   81MOL0     C10578   0.468   5.484   3.558  0.9937  0.8370 -0.7511
   81MOL0     C10579   0.381   5.498   3.658  0.5508 -1.1927 -0.5630
   81MOL0     C10580   0.315   5.396   3.741 -0.2304 -0.2923 -0.5431
   81MOL0     C10581   0.169   5.432   3.778  0.1944 -0.6017  0.3168
   81MOL0     C10582   0.126   5.342   3.885 -0.1867  0.3494 -0.1237
   81MOL0     C10583   0.203   5.363   4.022  0.7858  1.1209 -0.6081
   81MOL0     O10584   0.173   5.493   4.074  0.9999  0.2750  0.6316
   81MOL0     C10585   0.056   5.503   4.130  0.1238 -0.3971 -1.0476
   81MOL0     C10586  -0.037   5.399   4.172 -0.5684 -1.0277 -1.1278
   81MOL0     C10587  -0.162   5.430   4.233 -0.0870  0.0540 -0.2362
   81MOL0     C10588  -0.207   5.564   4.234  0.2485  0.0862 -0.7949
   81MOL0     C10589  -0.347   5.595   4.288 -0.3012  0.2194 -0.3188
   81MOL0     O10590  -0.424   5.490   4.315  1.0865 -0.5446 -0.1902
   81MOL0     C10591  -0.548   5.519   4.360  0.0386  0.6647  0.3519
   81MOL0     C10592  -0.580   5.603   4.467  0.2034 -1.5706 -0.3572
   81MOL0     C10593  -0.717   5.620   4.509 -0.1956 -0.2017  0.2554
   81MOL0     C10594  -0.817   5.536   4.460  0.8218 -0.1329  0.6410
   81MOL0     O10595  -0.952   5.556   4.507 -0.3099  0.1286 -0.1987
   81MOL0     C10596  -1.015   5.433   4.524 -0.0744  0.4179 -0.4291
   81MOL0     C10597  -1.147   5.426   4.454  0.5878  0.4332 -0.3299
   81MOL0     C10598  -1.255   5.360   4.542  0.0880  0.3496  1.2935
   81MOL0     C10599  -1.289   5.440   4.676  0.1346 -0.5906  0.3857
   81MOL0     C10600  -1.414   5.386   4.741  0.3148  0.1667 -0.3330
   81MOL0     C10601  -1.517   5.496   4.747 -0.1366  0.1890 -0.4347
   81MOL0     C10602  -1.650   5.453   4.798 -0.4366  0.5014 -0.5298
   81MOL0     C10603  -1.750   5.572   4.792 -0.1752  0.0953  0.6116
   81MOL0    Cl10604  -1.883   5.531   4.887 -0.3486  0.3556  0.7983
   81MOL0     C10605  -0.791   5.458   4.349 -0.3637 -0.0341 -1.1358
   81MOL0     C10606  -0.658   5.462   4.301 -0.0030  1.2529 -0.2278
   81MOL0     O10607  -0.383   5.713   4.296 -0.1046  0.2075 -0.1363
   81MOL0     C10608  -0.123   5.664   4.180  0.0761 -0.0395  0.1517
   81MOL0     C10609   0.007   5.632   4.130  0.4850 -0.1956 -1.2019
   81MOL0     N10610   0.327   5.627   3.651  0.5712 -0.3065 -0.6377
   81MOL0     N10611   0.394   5.694   3.567 -1.0091 -0.0837 -0.6327
   81MOL0     C10612   1.640   5.651   3.117  0.0269 -0.1962  0.1398
   81MOL0     C10613   1.781   5.647   3.121 -0.2040 -0.3286  0.4706
   81MOL0     C10614   2.220   5.656   3.206  0.5969 -1.1951  0.4130
   81MOL0     C10615   2.323   5.710   3.130  0.9674  1.2139  0.0377
   81MOL0     C10616   2.457   5.679   3.152  0.6282  0.0810 -0.1722
   81MOL0     C10617   2.491   5.607   3.264  0.7147  0.3557  0.7747
   81MOL0     O10618   2.617   5.584   3.299 -0.1102  0.0427 -0.6085
   81MOL0     C10619   2.668   5.444   3.290  0.4982  0.4017  0.3378
   81MOL0     C10620   2.665   5.392   3.144  0.4133 -0.4308 -0.7500
   81MOL0     C10621   2.776   5.463   3.061  0.4342 -0.3178 -0.2115
   81MOL0     C10622   2.897   5.384   3.049  0.8461  0.1053  0.8144
   81MOL0     C10623   2.987   5.442   2.956  0.7297 -0.5873 -0.7736
   81MOL0     C10624   3.067   5.494   2.883  0.9320  0.0066  0.5066
   81MOL0     C10625   2.387   5.571   3.361  0.5489 -1.0505 -0.3495
   81MOL0     C10626   2.258   5.600   3.325 -0.2164  0.3320 -0.0127
   81MOL0     H10627   1.819   5.636   3.452  1.4305 -2.4987 -0.5940
   81MOL0     H10628   1.566   5.662   3.434 -0.2461  1.1680 -1.0539
   81MOL0     H10629   1.367   5.550   3.060  1.5937  1.8056 -2.9879
   81MOL0     H10630   1.398   5.721   3.066  0.2080 -0.1992 -1.2811
   81MOL0     H10631   1.160   5.581   3.190 -2.1525 -1.6740 -3.7594
   81MOL0     H10632   1.168   5.682   3.046  2.4469 -1.5696 -1.7450
   81MOL0     H10633   1.224   5.892   3.172  0.7587 -0.1621  1.4466
   81MOL0     H10634   1.227   5.814   3.316 -0.5339  2.2627 -0.1931
   81MOL0     H10635   0.990   5.925   3.205 -0.4422  0.7737  3.0643
   81MOL0     H10636   0.969   5.766   3.149  0.3643  0.1709 -0.4495
   81MOL0     H10637   0.950   5.845   3.431  1.4968  0.3051 -0.6352
   81MOL0     H10638   0.995   5.678   3.392 -1.6381 -1.9639 -3.1702
   81MOL0     H10639   0.799   5.652   3.261  2.9548  3.2796 -4.0135
   81MOL0     H10640   0.741   5.817   3.267 -1.9021 -0.2784 -0.7757
   81MOL0     H10641   0.748   5.633   3.521 -2.6915  0.7293  3.7512
   81MOL0     H10642   0.711   5.791   3.519 -0.4712  1.3313 -0.4833
   81MOL0     H10643   0.589   5.598   3.321  2.0266  0.2587  0.3338
   81MOL0     H10644   0.522   5.763   3.358 -0.6877 -0.9772 -0.3226
   81MOL0     H10645   0.523   5.396   3.525  1.0095  0.9143 -0.9369
   81MOL0     H10646   0.376   5.406   3.832  0.6064 -1.8355 -0.8929
   81MOL0     H10647   0.324   5.293   3.704  2.7061 -0.4243  0.2814
   81MOL0     H10648   0.105   5.427   3.690 -1.1511  5.0815  0.5548
   81MOL0     H10649   0.161   5.534   3.817  1.9397 -0.0028 -0.7875
   81MOL0     H10650   0.018   5.361   3.897 -0.9065 -1.1628 -3.1390
   81MOL0     H10651   0.146   5.244   3.841  2.8007  0.1244  1.4832
   81MOL0     H10652   0.312   5.361   4.014  0.9176 -1.5390  0.8714
   81MOL0     H10653   0.178   5.285   4.094  0.1169  2.9076  1.2094
   81MOL0     H10654  -0.008   5.295   4.180  0.2095 -0.8242 -1.2437
   81MOL0     H10655  -0.218   5.349   4.278  0.3275  0.0673  0.3173
   81MOL0     H10656  -0.505   5.663   4.518  1.1953 -0.1481 -3.2182
   81MOL0     H10657  -0.747   5.687   4.589 -0.5959  0.1506 -0.1805
   81MOL0     H10658  -1.038   5.428   4.631 -1.0515 -1.1673 -0.6742
   81MOL0     H10659  -0.951   5.344   4.518  0.8152  0.6538  3.1437
   81MOL0     H10660  -1.127   5.371   4.361 -0.2705 -1.0504  0.3155
   81MOL0     H10661  -1.177   5.526   4.423 -2.1936 -0.6788 -1.5776
   81MOL0     H10662  -1.229   5.255   4.558 -1.6203 -0.5816 -1.3722
   81MOL0     H10663  -1.339   5.353   4.473  2.0613  0.0257 -1.2435
   81MOL0     H10664  -1.209   5.446   4.750 -0.0125 -0.4442  0.5346
   81MOL0     H10665  -1.297   5.540   4.632 -0.2140  0.0110  1.7600
   81MOL0     H10666  -1.400   5.353   4.845  1.5812  1.0039 -0.2141
   81MOL0     H10667  -1.469   5.312   4.682 -0.9361  0.0059  0.9645
   81MOL0     H10668  -1.525   5.525   4.642 -3.5076  1.3640 -0.0057
   81MOL0     H10669  -1.481   5.581   4.806  0.0639  0.1068 -0.4376
   81MOL0     H10670  -1.688   5.371   4.736  0.9335 -1.3436  0.9448
   81MOL0     H10671  -1.633   5.413   4.898  0.8159 -0.3485 -1.0569
   81MOL0     H10672  -1.769   5.598   4.688 -0.7199  2.3020  1.2095
   81MOL0     H10673  -1.700   5.654   4.843  2.2155 -1.1399  0.3867
   81MOL0     H10674  -0.876   5.409   4.302 -0.3461  0.0266 -1.2315
   81MOL0     H10675  -0.650   5.384   4.225  2.8187 -1.2626  2.3849
   81MOL0     H10676  -0.157   5.767   4.183  2.4142  0.8091 -0.3485
   81MOL0     H10677   0.076   5.706   4.092  0.1866  0.9039  0.3000
   81MOL0     H10678   1.592   5.659   3.020  1.0985  0.3850 -0.3549
   81MOL0     H10679   1.843   5.636   3.032  1.0129  0.0200  1.2592
   81MOL0     H10680   2.295   5.767   3.041 -3.9709  0.1891  0.5983
   81MOL0     H10681   2.540   5.716   3.092  0.2297  3.0300  0.9101
   81MOL0     H10682   2.598   5.382   3.346  0.0956  0.1006 -0.4863
   81MOL0     H10683   2.766   5.415   3.329 -0.2213 -0.2180  1.7680
   81MOL0     H10684   2.672   5.283   3.138 -0.1484 -0.4993 -0.3038
   81MOL0     H10685   2.575   5.414   3.085 -0.3634 -2.0520 -0.2326
   81MOL0     H10686   2.814   5.551   3.113 -0.2931 -0.5696  0.7900
   81MOL0     H10687   2.732   5.484   2.963 -2.0330 -5.7906 -0.6711
   81MOL0     H10688   2.942   5.385   3.149  2.9198  1.2002 -0.0644
   81MOL0     H10689   2.879   5.284   3.007  0.0193  1.0423 -1.2220
   81MOL0     H10690   3.140   5.535   2.817 -0.1049  0.4754 -0.3797
   81MOL0     H10691   2.420   5.519   3.450  1.6367  3.3646  2.1584
   81MOL0     H10692   2.184   5.567   3.397 -3.0453  2.5868 -1.6926
   82MOL0     O10693   3.351   8.416   6.378 -0.1572 -0.1903 -0.1849
   82MOL0     C10694   3.418   8.405   6.273  0.5272  0.0967  0.2457
   82MOL0     O10695   3.364   8.378   6.151  0.2762 -0.1599  0.5035
   82MOL0     C10696   3.230   8.343   6.129  0.5961 -0.9719  0.2877
   82MOL0     C10697   3.154   8.414   6.035 -0.1417 -0.4399 -0.1413
   82MOL0     C10698   3.015   8.404   6.018  0.2709 -0.5292  0.0446
   82MOL0     C10699   2.952   8.322   6.108  0.2297  1.0159 -1.0479
   82MOL0     O10700   2.814   8.312   6.094 -0.0219 -0.4115 -0.8266
   82MOL0     C10701   2.737   8.390   6.190  0.4534  0.4972  0.2431
   82MOL0     C10702   2.675   8.520   6.134 -0.7205 -0.2132 -0.0225
   82MOL0     C10703   2.599   8.507   5.991 -0.5931 -0.3042  0.3888
   82MOL0     C10704   2.671   8.439   5.865  0.1182  0.2086 -1.3197
   82MOL0     C10705   2.569   8.449   5.754 -0.1968  0.6853 -0.7803
   82MOL0     C10706   2.616   8.398   5.616 -0.2472  0.4309 -0.2375
   82MOL0     C10707   2.621   8.253   5.621 -0.6496  0.4822 -0.3799
   82MOL0     C10708   2.721   8.191   5.514  0.4152 -0.2169 -0.3381
   82MOL0     N10709   2.656   8.199   5.378  0.5585 -0.1600 -0.2000
   82MOL0     C10710   2.533   8.149   5.337  0.6043  0.5971  0.2709
   82MOL0     C10711   2.522   8.160   5.201 -1.2192  0.1527  0.0343
   82MOL0     C10712   2.412   8.115   5.110  1.3729 -0.1047  0.2153
   82MOL0     C10713   2.355   8.241   5.040  0.8023  0.8606  0.0529
   82MOL0     C10714   2.240   8.204   4.933  0.8707 -0.9505 -0.0216
   82MOL0     C10715   2.163   8.329   4.865 -1.3835 -0.4040 -0.0043
   82MOL0     O10716   2.095   8.294   4.751  0.4174 -0.3764  0.2738
   82MOL0     C10717   1.958   8.283   4.764  0.0074 -0.9529  0.8629
   82MOL0     C10718   1.897   8.270   4.633 -1.1672 -0.0216 -0.2228
   82MOL0     C10719   1.760   8.274   4.613 -0.6620 -0.6945  0.6001
   82MOL0     C10720   1.679   8.276   4.726 -0.0999  0.4028 -0.5774
   82MOL0     C10721   1.530   8.276   4.704 -0.8328 -0.2301  0.5667
   82MOL0     O10722   1.491   8.267   4.577  0.3292 -0.4579  0.4439
   82MOL0     C10723   1.370   8.315   4.548 -1.0735  0.7139  0.2771
   82MOL0     C10724   1.304   8.245   4.441 -0.3459  0.0388 -0.2870
   82MOL0     C10725   1.177   8.282   4.390 -0.0762 -0.6678 -0.0292
   82MOL0     C10726   1.110   8.398   4.438 -0.4801 -0.7767  0.0952
   82MOL0     O10727   0.987   8.421   4.390  0.3885  0.0020  0.0353
   82MOL0     C10728   0.920   8.553   4.408  0.1589  0.4315  0.3460
   82MOL0     C10729   0.770   8.543   4.361  0.9163  0.2682  0.3334
   82MOL0     C10730   0.751   8.509   4.212  0.7693  0.7343 -0.2231
   82MOL0     C10731   0.801   8.620   4.129  0.7102 -0.7812  0.4945
   82MOL0     C10732   0.725   8.755   4.152  0.1753  0.3799 -0.1018
   82MOL0     C10733   0.572   8.742   4.134  0.3278 -0.8553  0.5060
   82MOL0     C10734   0.513   8.877   4.114  1.1358  0.3638  1.1473
   82MOL0     C10735   0.371   8.870   4.067  0.1386  0.9077 -0.5894
   82MOL0    Cl10736   0.322   9.040   4.025  0.1336  0.2355  0.2275
   82MOL0     C10737   1.174   8.467   4.542 -0.0650 -0.1609 -0.1958
   82MOL0     C10738   1.302   8.426   4.592  0.1783  0.3160  0.0065
   82MOL0     O10739   1.456   8.302   4.804 -0.6392  0.0853  0.2718
   82MOL0     C10740   1.731   8.285   4.855 -0.0328  1.2238 -0.1332
   82MOL0     C10741   1.870   8.285   4.879 -0.1984 -0.6382 -0.6436
   82MOL0     N10742   2.644   8.221   5.161 -0.0734 -0.9556 -0.0312
   82MOL0     N10743   2.717   8.236   5.266  0.5776 -0.5109 -0.3705
   82MOL0     C10744   3.018   8.243   6.214  0.4707 -0.7922  0.5923
   82MOL0     C10745   3.160   8.259   6.216  0.4533  0.0513 -0.2164
   82MOL0     C10746   3.569   8.408   6.273  0.3799  0.0264 -0.7375
   82MOL0     C10747   3.644   8.485   6.367 -0.2188  0.7274  1.2016
   82MOL0     C10748   3.788   8.480   6.365  0.1713  0.6433 -0.3021
   82MOL0     C10749   3.856   8.388   6.283  0.6250 -0.0323  1.0008
   82MOL0     O10750   3.995   8.376   6.286  0.4922 -0.6628 -0.5907
   82MOL0     C10751   4.082   8.434   6.386 -0.5985 -0.5422 -0.0339
   82MOL0     C10752   4.224   8.384   6.353 -0.6430  0.4280  0.5353
   82MOL0     C10753   4.316   8.376   6.479  0.1395  0.2775 -0.2816
   82MOL0     C10754   4.458   8.333   6.442 -0.0931 -0.1500 -0.3433
   82MOL0     C10755   4.446   8.203   6.377  0.3509 -0.1671  0.3871
   82MOL0     C10756   4.438   8.111   6.303 -0.4492 -0.6753  1.4616
   82MOL0     C10757   3.785   8.316   6.184 -0.5874 -0.1479 -0.3208
   82MOL0     C10758   3.647   8.337   6.175  0.3661  0.1190  0.0508
   82MOL0     H10759   3.205   8.490   5.975  1.1686 -1.5855 -0.5166
   82MOL0     H10760   2.970   8.475   5.949  2.9417 -1.0398 -2.4252
   82MOL0     H10761   2.783   8.389   6.290  0.7189 -0.3889  0.1232
   82MOL0     H10762   2.646   8.329   6.202 -0.3157  1.2687 -1.3617
   82MOL0     H10763   2.754   8.591   6.105  1.3947 -1.3772  2.5099
   82MOL0     H10764   2.614   8.568   6.210  1.3607  0.4644  1.2950
   82MOL0     H10765   2.589   8.614   5.969  1.5683  0.0262  0.7541
   82MOL0     H10766   2.504   8.460   6.016 -1.4026  1.1939  0.2325
   82MOL0     H10767   2.770   8.480   5.847  1.1448 -1.4359  0.2504
   82MOL0     H10768   2.688   8.336   5.896 -0.8832  0.6217  0.7507
   82MOL0     H10769   2.552   8.556   5.737 -1.4733  0.8511  1.3084
   82MOL0     H10770   2.475   8.398   5.777  1.3079 -1.3547  1.2477
   82MOL0     H10771   2.715   8.438   5.591  0.3665 -0.7267  0.2752
   82MOL0     H10772   2.548   8.441   5.543  1.5198 -0.6805 -2.6729
   82MOL0     H10773   2.652   8.225   5.722 -1.5912 -0.4399 -0.3330
   82MOL0     H10774   2.516   8.221   5.616 -0.2677 -0.7877 -0.5349
   82MOL0     H10775   2.745   8.087   5.535  1.4248  0.4565  2.2972
   82MOL0     H10776   2.811   8.253   5.521 -0.9050  2.2245 -2.6517
   82MOL0     H10777   2.458   8.108   5.405  0.4591 -0.4321 -0.4764
   82MOL0     H10778   2.330   8.067   5.165  0.2669 -0.7185 -1.8380
   82MOL0     H10779   2.445   8.038   5.040 -2.7419  1.6568 -4.2991
   82MOL0     H10780   2.438   8.294   4.993  1.7635 -1.6358 -1.2575
   82MOL0     H10781   2.306   8.311   5.109 -1.8184 -1.0553  0.2995
   82MOL0     H10782   2.265   8.150   4.841 -2.9673 -0.5050 -1.5066
   82MOL0     H10783   2.159   8.156   4.990 -1.4054  1.4522 -1.0386
   82MOL0     H10784   2.254   8.387   4.848 -0.8844 -0.9527  0.7257
   82MOL0     H10785   2.109   8.399   4.930 -0.7048  0.7739 -0.6765
   82MOL0     H10786   1.967   8.267   4.551 -2.3116 -3.1015 -1.2374
   82MOL0     H10787   1.725   8.285   4.510  0.6848  0.1917  0.2103
   82MOL0     H10788   1.352   8.157   4.399  1.7050  2.0976 -2.5684
   82MOL0     H10789   1.132   8.232   4.304  0.2988 -2.2659  0.6518
   82MOL0     H10790   0.969   8.638   4.359 -1.2882  0.6459 -0.7955
   82MOL0     H10791   0.907   8.581   4.512 -0.0029  0.7501  0.2393
   82MOL0     H10792   0.710   8.632   4.385 -0.4424 -1.1634  2.6693
   82MOL0     H10793   0.720   8.461   4.414  1.7795 -0.2230  0.4060
   82MOL0     H10794   0.650   8.487   4.176 -0.3170  4.0727  0.4551
   82MOL0     H10795   0.810   8.418   4.192 -0.9602 -0.2451 -1.0778
   82MOL0     H10796   0.910   8.631   4.131  0.6038  0.2747  0.8295
   82MOL0     H10797   0.772   8.604   4.025  0.6689 -2.8710  0.7692
   82MOL0     H10798   0.760   8.835   4.087 -1.9558  2.8535  1.5711
   82MOL0     H10799   0.720   8.795   4.254 -3.3000  1.6386 -0.6147
   82MOL0     H10800   0.519   8.705   4.222 -2.2615  0.4826 -0.3692
   82MOL0     H10801   0.545   8.676   4.051 -2.0502  2.0538 -1.2383
   82MOL0     H10802   0.498   8.933   4.206 -2.6151  4.1804 -1.4018
   82MOL0     H10803   0.588   8.925   4.051  3.1788 -1.6543  1.8934
   82MOL0     H10804   0.305   8.823   4.139  1.5284  0.0995  0.1930
   82MOL0     H10805   0.353   8.809   3.978 -0.3706 -1.2782  0.9583
   82MOL0     H10806   1.123   8.547   4.594 -0.1924 -0.6619  0.4628
   82MOL0     H10807   1.346   8.485   4.671  1.6805  0.5500 -0.9849
   82MOL0     H10808   1.655   8.274   4.932  1.6421  0.3715  1.4726
   82MOL0     H10809   1.904   8.288   4.982  1.4296 -0.0670 -1.1739
   82MOL0     H10810   2.966   8.185   6.290 -1.0372 -0.6540 -0.2838
   82MOL0     H10811   3.212   8.206   6.295 -1.7701 -0.3272  1.0571
   82MOL0     H10812   3.576   8.532   6.437 -2.4868  0.2501 -0.5722
   82MOL0     H10813   3.848   8.552   6.420  1.4580 -1.3635  1.0675
   82MOL0     H10814   4.053   8.403   6.486 -1.5948  3.3740  1.0879
   82MOL0     H10815   4.082   8.543   6.378  0.1449 -0.5338  0.0459
   82MOL0     H10816   4.225   8.283   6.312 -0.7768  0.4111  0.5746
   82MOL0     H10817   4.266   8.443   6.271  0.8254  0.3729  1.2181
   82MOL0     H10818   4.267   8.310   6.551  3.6743 -0.7503  1.4656
   82MOL0     H10819   4.326   8.472   6.530 -2.9561 -1.1884  3.6276
   82MOL0     H10820   4.507   8.398   6.368  1.4544 -1.6718 -0.7164
   82MOL0     H10821   4.521   8.326   6.531 -0.7207  2.3929  0.3741
   82MOL0     H10822   4.450   8.027   6.237 -0.3169 -0.4844  1.2437
   82MOL0     H10823   3.835   8.249   6.115  1.3383  0.2627  0.5956
   82MOL0     H10824   3.591   8.303   6.088  1.5244 -0.0679 -0.6487
   83MOL0     O10825   0.657   1.098   2.329 -0.7093  0.2264  0.5081
   83MOL0     C10826   0.704   1.194   2.396  0.8737 -0.2554  0.2243
   83MOL0     O10827   0.632   1.276   2.473  0.0258  0.2602 -1.0004
   83MOL0     C10828   0.512   1.250   2.529 -0.6463  0.4765  0.6793
   83MOL0     C10829   0.438   1.353   2.571 -0.1236  0.3548  0.2849
   83MOL0     C10830   0.300   1.343   2.628 -0.7739  0.1663  0.0792
   83MOL0     C10831   0.251   1.210   2.641  0.5635 -0.2995 -0.1585
   83MOL0     O10832   0.125   1.203   2.696  0.4352 -0.2977  0.2409
   83MOL0     C10833   0.092   1.281   2.818  0.6626  0.2577 -0.6529
   83MOL0     C10834   0.006   1.209   2.918 -0.5163 -0.3081 -0.1918
   83MOL0     C10835  -0.137   1.198   2.869  0.7249 -0.0630  0.2349
   83MOL0     C10836  -0.210   1.095   2.955 -0.8065  0.3511 -0.0072
   83MOL0     C10837  -0.360   1.099   2.933 -0.5511  1.0288 -0.0069
   83MOL0     C10838  -0.436   1.011   3.039  0.0870  0.0464 -0.3654
   83MOL0     C10839  -0.577   1.051   3.036 -0.5149  0.5513  0.0306
   83MOL0     C10840  -0.672   0.975   3.128  0.2730 -0.4965 -0.2224
   83MOL0     N10841  -0.816   1.033   3.113 -0.5057 -0.3195 -0.6563
   83MOL0     C10842  -0.881   1.115   3.199 -0.0606 -0.6776  0.1002
   83MOL0     C10843  -0.996   1.164   3.141 -0.8423 -0.0266 -0.8302
   83MOL0     C10844  -1.089   1.261   3.201  0.0457  1.0465 -0.3959
   83MOL0     C10845  -1.212   1.205   3.271 -0.9700 -0.1193  0.1146
   83MOL0     C10846  -1.291   1.114   3.175  1.1086  0.0795  0.6391
   83MOL0     C10847  -1.405   1.029   3.225  0.8894  0.4276  0.3771
   83MOL0     O10848  -1.361   0.930   3.319  0.3434 -0.5568  0.6165
   83MOL0     C10849  -1.457   0.861   3.396  0.4682  0.0518  0.9899
   83MOL0     C10850  -1.595   0.879   3.384  0.8515  1.2693  0.8156
   83MOL0     C10851  -1.685   0.819   3.485 -0.0284  0.1366 -0.5333
   83MOL0     C10852  -1.632   0.729   3.580  0.2781  0.3848 -0.2535
   83MOL0     C10853  -1.713   0.661   3.676 -0.3314 -0.6512 -0.6144
   83MOL0     O10854  -1.828   0.717   3.699  0.1550  0.4926  0.3145
   83MOL0     C10855  -1.932   0.655   3.763 -0.0483 -0.1127 -0.0874
   83MOL0     C10856  -1.927   0.525   3.832  0.2065 -0.2579  0.5619
   83MOL0     C10857  -2.045   0.471   3.882 -0.2183  0.1479 -0.7985
   83MOL0     C10858  -2.161   0.541   3.884 -0.1751 -0.1225  0.4042
   83MOL0     O10859  -2.273   0.482   3.936 -0.2371 -0.0861 -1.0993
   83MOL0     C10860  -2.285   0.482   4.080  0.3793 -0.2844  0.0828
   83MOL0     C10861  -2.404   0.386   4.121  0.3350 -0.7103  0.6806
   83MOL0     C10862  -2.529   0.413   4.032  0.2988 -0.0881 -0.2403
   83MOL0     C10863  -2.635   0.306   4.067  0.1029 -0.1011 -0.1485
   83MOL0     C10864  -2.705   0.320   4.201 -0.1352  0.6587 -0.1511
   83MOL0     C10865  -2.789   0.445   4.200 -0.2457  0.4436 -0.1292
   83MOL0     C10866  -2.849   0.469   4.342 -0.3959  0.3934  0.3344
   83MOL0     C10867  -2.958   0.568   4.335  0.2506 -1.0236 -0.2625
   83MOL0    Cl10868  -2.918   0.721   4.252  0.3661  0.1807 -0.0730
   83MOL0     C10869  -2.167   0.669   3.819  0.2422 -0.7156 -0.0973
   83MOL0     C10870  -2.054   0.725   3.766 -0.2175 -0.0639  0.6662
   83MOL0     O10871  -1.670   0.562   3.723  0.5054  0.1442 -0.1609
   83MOL0     C10872  -1.491   0.709   3.569 -0.4673  0.5959 -0.0572
   83MOL0     C10873  -1.403   0.767   3.481  0.5352  1.1454 -0.4166
   83MOL0     N10874  -0.990   1.122   3.008  0.4497  0.3389 -0.4234
   83MOL0     N10875  -0.877   1.041   2.998  0.7994 -0.4411 -0.3540
   83MOL0     C10876   0.324   1.094   2.591  0.3598 -0.4908  0.1170
   83MOL0     C10877   0.453   1.121   2.536  1.1992 -0.4424 -0.1790
   83MOL0     C10878   0.845   1.230   2.367  0.2488 -0.5898 -0.2040
   83MOL0     C10879   0.876   1.365   2.382 -0.2075  0.3826 -0.1285
   83MOL0     C10880   1.009   1.413   2.354  0.4407 -0.0221 -0.3836
   83MOL0     C10881   1.111   1.322   2.307 -0.8994 -1.1865 -0.4156
   83MOL0     O10882   1.235   1.351   2.272  0.5141  0.3519  0.0629
   83MOL0     C10883   1.269   1.492   2.233 -0.3661  0.2601 -0.0583
   83MOL0     C10884   1.315   1.592   2.349  0.1946  0.7797 -0.5704
   83MOL0     C10885   1.416   1.537   2.458 -0.1910  0.4685 -0.4043
   83MOL0     C10886   1.520   1.637   2.507  0.9939 -0.5815 -0.1490
   83MOL0     C10887   1.592   1.579   2.621  0.9233  0.4680  0.0522
   83MOL0     C10888   1.651   1.515   2.711  1.1392 -0.1458 -0.4494
   83MOL0     C10889   1.074   1.191   2.293 -0.0015 -0.5767  0.6210
   83MOL0     C10890   0.945   1.138   2.324  0.0250  0.0901  0.0106
   83MOL0     H10891   0.496   1.445   2.574 -1.4888  1.2454  0.4661
   83MOL0     H10892   0.247   1.432   2.661  0.0421  0.7665 -0.1985
   83MOL0     H10893   0.031   1.366   2.787 -0.1941  0.7271  2.0575
   83MOL0     H10894   0.185   1.319   2.861  1.0948 -1.0412 -0.3889
   83MOL0     H10895  -0.012   1.249   3.018 -4.8943  0.5661 -1.1634
   83MOL0     H10896   0.054   1.112   2.936 -0.5216 -0.4798 -1.0585
   83MOL0     H10897  -0.139   1.162   2.766  2.3355  1.0574 -0.2249
   83MOL0     H10898  -0.188   1.293   2.888  0.2261  0.0110 -1.3367
   83MOL0     H10899  -0.171   0.994   2.937  1.1450  1.1773 -0.6654
   83MOL0     H10900  -0.191   1.111   3.061  2.6418 -1.5876 -0.1843
   83MOL0     H10901  -0.371   1.062   2.831  2.1815  1.7700 -0.6361
   83MOL0     H10902  -0.385   1.205   2.943 -0.8184  0.7551  4.6317
   83MOL0     H10903  -0.393   1.031   3.138  3.0053  0.3708 -1.5647
   83MOL0     H10904  -0.422   0.905   3.015 -0.7089  0.2146 -1.6718
   83MOL0     H10905  -0.592   1.152   3.074 -4.7867 -0.2312  0.9829
   83MOL0     H10906  -0.602   1.055   2.930  0.5829 -1.8937 -0.3992
   83MOL0     H10907  -0.640   1.000   3.230 -0.5486  4.4640 -0.8965
   83MOL0     H10908  -0.678   0.869   3.102  0.1581 -0.4216 -0.5023
   83MOL0     H10909  -0.844   1.135   3.299 -2.2444 -2.0357  1.2512
   83MOL0     H10910  -1.135   1.328   3.128 -2.8772  0.4147  0.7116
   83MOL0     H10911  -1.025   1.310   3.275  0.6862 -0.8247  0.3486
   83MOL0     H10912  -1.270   1.284   3.320  0.1675 -1.4627  4.0239
   83MOL0     H10913  -1.166   1.153   3.355  0.4714 -0.1795 -0.6748
   83MOL0     H10914  -1.322   1.176   3.090  0.7305 -0.8245  0.1125
   83MOL0     H10915  -1.218   1.040   3.143  2.0268  0.8457  0.8998
   83MOL0     H10916  -1.443   0.977   3.137 -0.6147  0.6528  0.8691
   83MOL0     H10917  -1.482   1.096   3.264  0.4385 -1.3612  2.8285
   83MOL0     H10918  -1.632   0.948   3.310  1.3747  0.8852  0.1825
   83MOL0     H10919  -1.789   0.845   3.494  0.3575  0.8002  3.6034
   83MOL0     H10920  -1.840   0.461   3.842  0.9671  0.6469 -0.1054
   83MOL0     H10921  -2.050   0.379   3.939 -0.4911  0.7092  0.0973
   83MOL0     H10922  -2.311   0.584   4.110  1.7466  0.4442 -1.0815
   83MOL0     H10923  -2.186   0.464   4.122  1.5455  1.9654 -1.4443
   83MOL0     H10924  -2.422   0.395   4.229  0.1175  2.0801  0.4898
   83MOL0     H10925  -2.372   0.281   4.117 -2.7856 -1.7296  0.4329
   83MOL0     H10926  -2.513   0.400   3.925 -1.8457 -1.8495 -0.4164
   83MOL0     H10927  -2.552   0.520   4.044 -0.8017 -0.4511  1.3956
   83MOL0     H10928  -2.716   0.304   3.994 -0.0258  1.6865 -0.0879
   83MOL0     H10929  -2.584   0.209   4.065 -1.7087 -1.0919  0.2165
   83MOL0     H10930  -2.627   0.319   4.278  2.6135 -1.2323 -2.7233
   83MOL0     H10931  -2.776   0.240   4.221  0.5685 -0.5102 -2.1008
   83MOL0     H10932  -2.872   0.438   4.129 -0.4590  2.0013 -0.0733
   83MOL0     H10933  -2.732   0.531   4.166 -0.4836 -0.4819 -3.1369
   83MOL0     H10934  -2.890   0.375   4.379  0.9707  0.4826  2.2259
   83MOL0     H10935  -2.780   0.511   4.416 -3.0879  2.5625  1.8090
   83MOL0     H10936  -2.984   0.590   4.439 -0.3928 -1.7821 -0.2517
   83MOL0     H10937  -3.045   0.527   4.283  3.4609 -4.0326 -3.9121
   83MOL0     H10938  -2.258   0.728   3.815 -0.9389 -2.3282  1.5592
   83MOL0     H10939  -2.046   0.825   3.726  0.0054  0.1893  1.3287
   83MOL0     H10940  -1.435   0.647   3.638  3.6398  1.6486 -2.1010
   83MOL0     H10941  -1.300   0.733   3.481 -0.4911 -2.3146 -0.1874
   83MOL0     H10942   0.296   0.989   2.593  2.6640 -1.3118 -2.9482
   83MOL0     H10943   0.504   1.032   2.500  1.4069  0.8013 -3.2583
   83MOL0     H10944   0.808   1.437   2.426  1.1214  2.3014 -1.0569
   83MOL0     H10945   1.024   1.521   2.358 -0.7692  0.1569 -0.2565
   83MOL0     H10946   1.183   1.537   2.183 -0.2497 -1.2028 -1.6619
   83MOL0     H10947   1.345   1.483   2.154 -0.5302  1.1431 -0.3323
   83MOL0     H10948   1.375   1.672   2.305  2.1074  0.8254  1.8512
   83MOL0     H10949   1.219   1.623   2.390  0.1908  0.5323 -0.3863
   83MOL0     H10950   1.463   1.447   2.418 -0.2303 -0.6769  1.9509
   83MOL0     H10951   1.356   1.502   2.542 -0.6447 -0.9583 -1.2899
   83MOL0     H10952   1.585   1.666   2.425 -0.9495 -1.9390 -2.2846
   83MOL0     H10953   1.475   1.730   2.543  0.8740 -0.8091  0.3013
   83MOL0     H10954   1.693   1.459   2.791  0.3639 -0.2643 -0.1198
   83MOL0     H10955   1.154   1.132   2.247 -0.9552 -1.0846 -0.4564
   83MOL0     H10956   0.927   1.038   2.287 -2.2914  0.9352 -1.3625
   84MOL0     O10957   3.226   2.988   1.570 -0.1145  0.2939  0.1482
   84MOL0     C10958   3.236   2.863   1.559  0.2305 -0.4292 -0.0362
   84MOL0     O10959   3.152   2.785   1.488 -0.1294 -0.4515 -0.5130
   84MOL0     C10960   3.027   2.837   1.451  0.4951  0.1591 -0.1977
   84MOL0     C10961   2.987   2.801   1.320  0.2993 -0.1236 -0.3006
   84MOL0     C10962   2.861   2.840   1.272 -0.3356 -0.4716 -0.2911
   84MOL0     C10963   2.775   2.914   1.358  0.4434  0.5267  0.9339
   84MOL0     O10964   2.647   2.951   1.325  0.3894  0.2094  0.2252
   84MOL0     C10965   2.553   2.862   1.262 -0.0422  0.4479  0.3227
   84MOL0     C10966   2.410   2.910   1.278  0.5129 -0.2422  0.4836
   84MOL0     C10967   2.381   2.937   1.430 -0.3378 -0.0027 -0.2381
   84MOL0     C10968   2.236   2.972   1.440 -0.5833  0.0048 -0.4539
   84MOL0     C10969   2.198   3.002   1.585  0.6767 -1.2550  0.0898
   84MOL0     C10970   2.169   2.878   1.672  0.0467  0.0962  0.2064
   84MOL0     C10971   2.076   2.914   1.788 -0.0690 -0.0445  0.9105
   84MOL0     C10972   2.030   2.781   1.858  0.4646  0.3601 -0.2311
   84MOL0     N10973   1.948   2.802   1.981  0.8663  1.8434 -0.5048
   84MOL0     C10974   1.820   2.862   1.988 -0.3279 -0.2388 -0.4406
   84MOL0     C10975   1.795   2.871   2.113  0.1238  0.0488 -0.5921
   84MOL0     C10976   1.654   2.905   2.157 -0.5715 -0.1636 -0.2439
   84MOL0     C10977   1.671   3.024   2.257 -0.6176 -0.2360 -0.3685
   84MOL0     C10978   1.728   2.996   2.399  0.0143  0.3056  0.1020
   84MOL0     C10979   1.604   2.953   2.484 -0.3417  0.7270  0.0544
   84MOL0     O10980   1.537   3.076   2.508 -0.2002  0.5625 -0.2461
   84MOL0     C10981   1.492   3.103   2.638  0.4779  0.2306  0.4230
   84MOL0     C10982   1.466   3.239   2.667 -0.5574 -0.1474 -0.0810
   84MOL0     C10983   1.395   3.279   2.786 -0.2289  1.2131  0.2988
   84MOL0     C10984   1.352   3.181   2.877 -0.5436  0.3133  0.1101
   84MOL0     C10985   1.263   3.207   2.993 -1.2175  1.5890 -0.8858
   84MOL0     O10986   1.176   3.311   2.982 -0.4033  0.4885  0.1844
   84MOL0     C10987   1.109   3.362   3.102  0.6171 -0.0059  1.7331
   84MOL0     C10988   0.988   3.422   3.089  0.1874 -0.3132 -0.2160
   84MOL0     C10989   0.903   3.477   3.196  0.4348  1.0545  0.3471
   84MOL0     C10990   0.940   3.462   3.322  0.1755  0.1867 -0.2624
   84MOL0     O10991   0.856   3.518   3.416  0.9412  0.1382  0.2960
   84MOL0     C10992   0.901   3.536   3.548  0.4704  1.2525  0.2740
   84MOL0     C10993   0.788   3.587   3.639  0.2783  0.1569  0.0284
   84MOL0     C10994   0.687   3.473   3.669  0.2002 -0.3107  1.0343
   84MOL0     C10995   0.627   3.403   3.550  0.0522  0.2615 -0.4147
   84MOL0     C10996   0.546   3.274   3.595 -0.3333  0.5483 -0.7504
   84MOL0     C10997   0.433   3.234   3.502  0.0937  0.3018 -0.1087
   84MOL0     C10998   0.344   3.121   3.552  0.2404  0.7133 -0.3826
   84MOL0     C10999   0.223   3.102   3.459 -0.7166  0.1840  0.2447
   84MOL0    Cl11000   0.283   3.092   3.283  0.1273 -0.2223 -0.0410
   84MOL0     C11001   1.067   3.389   3.351  0.5921 -0.8905  1.1966
   84MOL0     C11002   1.154   3.369   3.236 -0.3677 -0.4355 -0.9518
   84MOL0     O11003   1.271   3.130   3.094 -0.1703  0.4880 -0.1554
   84MOL0     C11004   1.381   3.052   2.851 -0.6711  0.5750  0.3563
   84MOL0     C11005   1.449   3.010   2.732  0.1902 -0.1537  0.0344
   84MOL0     N11006   1.899   2.815   2.182  0.0954  0.1876  0.1095
   84MOL0     N11007   1.997   2.781   2.104  0.4569 -0.8671 -0.2019
   84MOL0     C11008   2.818   2.958   1.482  1.2664  1.0259  0.0368
   84MOL0     C11009   2.942   2.920   1.526 -0.1081 -0.1127  0.1131
   84MOL0     C11010   3.355   2.791   1.618 -1.0153  0.7184 -0.1477
   84MOL0     C11011   3.475   2.867   1.639  0.3641 -0.1340 -0.5285
   84MOL0     C11012   3.591   2.800   1.677  0.1048  0.4635  0.3591
   84MOL0     C11013   3.592   2.665   1.699  0.4399 -0.1664  0.6943
   84MOL0     O11014   3.713   2.616   1.734  0.7203 -0.3735 -0.2436
   84MOL0     C11015   3.711   2.493   1.809  0.9501 -0.3042  0.4005
   84MOL0     C11016   3.846   2.451   1.877 -0.0352 -0.5285 -0.0490
   84MOL0     C11017   3.821   2.313   1.948  0.2774  0.4816  0.0876
   84MOL0     C11018   3.923   2.266   2.052  0.0315 -0.4411  0.8019
   84MOL0     C11019   3.895   2.347   2.168 -0.0926  0.8179  1.1597
   84MOL0     C11020   3.888   2.425   2.258  0.2898  0.5753  0.6879
   84MOL0     C11021   3.476   2.591   1.687  0.5620  0.7690 -0.2747
   84MOL0     C11022   3.356   2.648   1.636 -0.7694 -0.7050  0.0676
   84MOL0     H11023   3.063   2.753   1.259  1.3289  1.2314 -0.1389
   84MOL0     H11024   2.831   2.803   1.175 -0.1837  1.0971 -0.9698
   84MOL0     H11025   2.561   2.758   1.295 -0.3244  0.3201 -0.0039
   84MOL0     H11026   2.569   2.858   1.154  0.9763  0.5885  0.4591
   84MOL0     H11027   2.345   2.826   1.252  0.8398  0.1212 -1.6018
   84MOL0     H11028   2.372   2.991   1.216 -3.3962 -0.4021  2.3626
   84MOL0     H11029   2.445   3.020   1.463  1.2359 -2.2384  2.7436
   84MOL0     H11030   2.407   2.853   1.495  2.2279  2.7817  2.6957
   84MOL0     H11031   2.202   3.055   1.377 -0.5330  1.0892  0.9064
   84MOL0     H11032   2.180   2.883   1.412 -0.3042 -0.1047 -0.6708
   84MOL0     H11033   2.115   3.073   1.589  1.3173 -0.5169  2.0602
   84MOL0     H11034   2.280   3.057   1.632  1.0395 -2.7676  1.3363
   84MOL0     H11035   2.253   2.818   1.710 -0.5025  0.6846  2.5249
   84MOL0     H11036   2.120   2.799   1.614 -0.1301 -1.3263  2.1711
   84MOL0     H11037   2.126   2.990   1.848  0.5420  0.5326 -0.2794
   84MOL0     H11038   1.985   2.952   1.740  1.3345  1.6919 -0.5082
   84MOL0     H11039   2.122   2.725   1.875  0.0632 -0.2598 -0.0525
   84MOL0     H11040   1.971   2.712   1.796  1.5131  0.7461 -1.7142
   84MOL0     H11041   1.759   2.880   1.900 -1.4037 -0.0732  0.3203
   84MOL0     H11042   1.593   2.825   2.201 -3.6035  0.0651 -3.5667
   84MOL0     H11043   1.593   2.952   2.079 -0.0728  1.4761  0.3085
   84MOL0     H11044   1.569   3.057   2.274 -1.0257 -2.0867  1.0335
   84MOL0     H11045   1.730   3.105   2.212 -0.2727  0.4408  1.2243
   84MOL0     H11046   1.806   2.919   2.405 -0.8111 -0.4823  0.8614
   84MOL0     H11047   1.773   3.091   2.432  1.5528 -0.0154 -0.9428
   84MOL0     H11048   1.637   2.911   2.579 -0.4262  0.5356  0.0001
   84MOL0     H11049   1.529   2.884   2.443 -1.6461  0.6738  2.3611
   84MOL0     H11050   1.515   3.314   2.606 -0.9904 -0.4399 -0.8084
   84MOL0     H11051   1.369   3.381   2.813 -1.0444  0.8625  0.8562
   84MOL0     H11052   0.947   3.422   2.989 -1.9538 -5.0208  0.3888
   84MOL0     H11053   0.805   3.523   3.185 -1.4784 -2.3356  1.4523
   84MOL0     H11054   0.980   3.610   3.557  0.5411  1.0121  1.7545
   84MOL0     H11055   0.935   3.440   3.587 -1.8967 -0.7577 -2.1528
   84MOL0     H11056   0.732   3.670   3.595 -3.1323 -1.9382  0.0571
   84MOL0     H11057   0.827   3.612   3.738  0.8282 -2.5434  0.5792
   84MOL0     H11058   0.606   3.517   3.727  0.0848 -0.7179  1.1868
   84MOL0     H11059   0.725   3.400   3.741 -0.8297 -0.7715  1.1247
   84MOL0     H11060   0.558   3.474   3.504 -1.1719 -0.1762  0.6989
   84MOL0     H11061   0.698   3.372   3.472  1.4276 -0.4023  1.0417
   84MOL0     H11062   0.504   3.302   3.692  2.9215  0.3180  0.8584
   84MOL0     H11063   0.607   3.185   3.610 -2.5890 -0.5858  2.6470
   84MOL0     H11064   0.482   3.207   3.408  1.2252 -0.7668  0.7499
   84MOL0     H11065   0.373   3.325   3.493 -0.7804 -0.1570  0.9548
   84MOL0     H11066   0.411   3.035   3.546  0.7078  0.9952  0.5882
   84MOL0     H11067   0.318   3.130   3.658  1.4188 -1.6540  0.1646
   84MOL0     H11068   0.164   3.193   3.470  0.2525  1.0339 -1.2283
   84MOL0     H11069   0.165   3.011   3.476  0.2418 -0.7665 -1.2850
   84MOL0     H11070   1.098   3.373   3.454  2.4305  0.5245  0.9231
   84MOL0     H11071   1.255   3.333   3.254 -0.9577 -2.1265 -0.8413
   84MOL0     H11072   1.354   2.966   2.912  0.9642 -2.2944 -2.6320
   84MOL0     H11073   1.454   2.905   2.703 -0.6085  0.0075 -0.7181
   84MOL0     H11074   2.754   3.024   1.541  0.1082  1.1299 -1.2758
   84MOL0     H11075   2.964   2.971   1.619 -2.7176  0.1852  0.6278
   84MOL0     H11076   3.473   2.975   1.627  0.9912  0.3766  2.8187
   84MOL0     H11077   3.688   2.846   1.688  0.6985 -0.8928  1.1421
   84MOL0     H11078   3.679   2.418   1.736 -0.4588  0.9991 -0.3849
   84MOL0     H11079   3.640   2.510   1.890  0.3741  4.0340 -0.7436
   84MOL0     H11080   3.923   2.445   1.800  0.0640 -0.4479  0.0443
   84MOL0     H11081   3.880   2.534   1.939  2.9632 -0.3735 -1.7263
   84MOL0     H11082   3.820   2.249   1.859  0.7765  2.3275 -1.3316
   84MOL0     H11083   3.721   2.302   1.990 -0.2657 -1.3197 -1.5359
   84MOL0     H11084   3.897   2.163   2.075  1.7496 -0.7817  1.3683
   84MOL0     H11085   4.027   2.269   2.016 -0.3908 -2.5972 -0.8383
   84MOL0     H11086   3.875   2.497   2.335 -1.5879 -1.0888  2.0360
   84MOL0     H11087   3.472   2.483   1.696  2.4760  0.4681 -2.2770
   84MOL0     H11088   3.272   2.589   1.600  0.6454 -0.8756 -3.3283
   85MOL0     O11089   8.516   6.264   5.151 -0.4166  0.0639 -0.2112
   85MOL0     C11090   8.610   6.307   5.216 -0.0465 -0.0840 -0.6169
   85MOL0     O11091   8.602   6.357   5.344 -0.4281 -0.0718  0.0817
   85MOL0     C11092   8.481   6.343   5.402  0.1374  0.2514 -0.0695
   85MOL0     C11093   8.432   6.222   5.446  0.2509  0.7177 -1.2573
   85MOL0     C11094   8.303   6.211   5.497  0.0283 -0.1791  0.0574
   85MOL0     C11095   8.220   6.321   5.491  0.5517 -0.4426 -0.0888
   85MOL0     O11096   8.092   6.301   5.533 -0.3085 -0.5524 -0.6750
   85MOL0     C11097   7.984   6.336   5.448  0.4883 -0.6165 -0.3043
   85MOL0     C11098   7.868   6.234   5.457  0.4387 -0.4186 -0.6470
   85MOL0     C11099   7.736   6.302   5.411  0.2549 -0.3973  0.4551
   85MOL0     C11100   7.732   6.344   5.263 -0.9530  0.3001 -0.4811
   85MOL0     C11101   7.610   6.432   5.230  0.6395  0.1153  0.4964
   85MOL0     C11102   7.486   6.355   5.261  0.9818  0.0976  0.2391
   85MOL0     C11103   7.355   6.417   5.224  0.2242 -0.3444 -0.2388
   85MOL0     C11104   7.323   6.532   5.333  0.1423 -0.3787  0.0984
   85MOL0     N11105   7.177   6.568   5.340 -0.6253 -0.8040 -0.8243
   85MOL0     C11106   7.077   6.556   5.249 -0.0523  0.1079  0.1594
   85MOL0     C11107   6.966   6.611   5.300  0.0187  0.3144 -0.6360
   85MOL0     C11108   6.836   6.613   5.225  0.4035  0.4299 -0.2858
   85MOL0     C11109   6.735   6.719   5.283  0.0616  0.3992  0.4215
   85MOL0     C11110   6.629   6.762   5.176  0.0464 -0.3125  0.4489
   85MOL0     C11111   6.586   6.651   5.083  0.1427  0.4985 -0.2694
   85MOL0     O11112   6.509   6.702   4.970 -0.2541 -0.1406  0.3764
   85MOL0     C11113   6.375   6.695   4.956  0.0856 -0.5816 -0.4860
   85MOL0     C11114   6.285   6.676   5.063  1.1107  0.5884 -0.4272
   85MOL0     C11115   6.142   6.682   5.038 -0.2504  0.4570  0.5396
   85MOL0     C11116   6.097   6.690   4.905 -0.3505 -0.2017  0.1528
   85MOL0     C11117   5.951   6.682   4.874 -0.6273  0.2003  0.1955
   85MOL0     O11118   5.930   6.686   4.740  0.2414 -0.3698 -0.7566
   85MOL0     C11119   5.798   6.676   4.685 -0.0524  1.2034 -0.6197
   85MOL0     C11120   5.779   6.732   4.556  0.1623  0.5424 -0.3054
   85MOL0     C11121   5.657   6.720   4.495 -0.7215  0.1958  0.2598
   85MOL0     C11122   5.552   6.664   4.563  0.4502  0.5195 -0.5421
   85MOL0     O11123   5.434   6.648   4.494  0.1127 -0.2202  0.5160
   85MOL0     C11124   5.318   6.682   4.569 -0.3496 -0.4417  0.6791
   85MOL0     C11125   5.214   6.727   4.465 -0.2455  0.5480 -0.5617
   85MOL0     C11126   5.255   6.837   4.368  0.7170 -0.2448 -0.2599
   85MOL0     C11127   5.140   6.860   4.267  0.3549 -0.2066  0.0330
   85MOL0     C11128   5.175   6.963   4.162  0.2407  0.7611  0.2381
   85MOL0     C11129   5.045   6.989   4.080  0.7338 -0.7219  0.3601
   85MOL0     C11130   5.061   7.113   3.988  0.0840  0.4774  0.1350
   85MOL0     C11131   5.168   7.112   3.876  0.4952  0.3194 -0.1954
   85MOL0    Cl11132   5.143   7.262   3.778 -0.0730  0.3221  0.4231
   85MOL0     C11133   5.568   6.602   4.689 -0.2308 -0.6393  1.0093
   85MOL0     C11134   5.690   6.611   4.751 -0.0600  0.4453  0.1069
   85MOL0     O11135   5.860   6.673   4.964 -0.4331  0.0160  0.4145
   85MOL0     C11136   6.186   6.710   4.798 -0.5026  0.4292 -0.3901
   85MOL0     C11137   6.322   6.715   4.829  0.1510  0.3888  0.3442
   85MOL0     N11138   6.996   6.656   5.426  0.1428 -0.4175 -0.4053
   85MOL0     N11139   7.127   6.638   5.442  0.7071 -0.8676 -0.3427
   85MOL0     C11140   8.270   6.442   5.441  0.7257 -0.0608 -0.2129
   85MOL0     C11141   8.399   6.457   5.402  0.3442 -0.1462  0.1209
   85MOL0     C11142   8.745   6.302   5.149  0.2697  0.2315  0.5424
   85MOL0     C11143   8.757   6.242   5.022  0.1446  0.0533 -0.6696
   85MOL0     C11144   8.888   6.248   4.965  0.9072  0.5163 -0.8827
   85MOL0     C11145   9.000   6.308   5.025 -0.4336  0.9757  0.2977
   85MOL0     O11146   9.116   6.308   4.943  0.6816 -0.5086 -0.5188
   85MOL0     C11147   9.249   6.348   4.977 -0.1809  0.0860 -0.2874
   85MOL0     C11148   9.271   6.487   4.929  0.2701 -0.3419  0.7392
   85MOL0     C11149   9.412   6.534   4.940 -0.2416  0.1631  0.2970
   85MOL0     C11150   9.457   6.600   5.075 -0.7818  0.5409  0.4063
   85MOL0     C11151   9.369   6.566   5.183 -0.6198 -0.7299  0.7922
   85MOL0     C11152   9.291   6.536   5.271 -0.1875 -0.9510  0.9836
   85MOL0     C11153   8.983   6.370   5.153  0.5389  0.2540  0.0638
   85MOL0     C11154   8.857   6.362   5.211  0.5944 -0.2896 -0.4243
   85MOL0     H11155   8.489   6.132   5.426 -0.1640  0.5207 -1.5484
   85MOL0     H11156   8.263   6.115   5.526 -1.5058  0.6839  0.9672
   85MOL0     H11157   8.012   6.336   5.343  0.0576  1.9606 -0.4932
   85MOL0     H11158   7.952   6.436   5.481  0.1241 -1.3007  1.5606
   85MOL0     H11159   7.857   6.197   5.559 -2.5110  2.4990  0.3095
   85MOL0     H11160   7.896   6.151   5.392 -0.7853 -0.3360 -1.3146
   85MOL0     H11161   7.714   6.391   5.471 -5.1044  1.0130 -2.8774
   85MOL0     H11162   7.650   6.241   5.438  0.0992 -0.7488 -0.7682
   85MOL0     H11163   7.824   6.396   5.236 -1.4750  0.3338 -2.3730
   85MOL0     H11164   7.730   6.249   5.207 -0.1919  1.5135 -2.7068
   85MOL0     H11165   7.612   6.453   5.122 -1.1679 -0.6020  0.2991
   85MOL0     H11166   7.619   6.527   5.284 -1.1770 -0.4517  1.8838
   85MOL0     H11167   7.485   6.310   5.361 -0.2492  1.3498  0.8225
   85MOL0     H11168   7.480   6.259   5.210 -0.8591 -2.4274  4.6530
   85MOL0     H11169   7.359   6.466   5.127 -1.9190  1.9886  0.7442
   85MOL0     H11170   7.274   6.345   5.231  0.3550 -0.4546  0.1770
   85MOL0     H11171   7.385   6.622   5.318 -1.4550  0.4991 -1.5499
   85MOL0     H11172   7.337   6.513   5.440 -0.2816 -0.8652  0.0648
   85MOL0     H11173   7.084   6.519   5.147 -2.6468 -3.8824  1.1549
   85MOL0     H11174   6.789   6.515   5.226  3.4715 -1.1892 -1.0008
   85MOL0     H11175   6.863   6.627   5.120 -1.8158  0.8850 -0.8485
   85MOL0     H11176   6.793   6.808   5.308  1.5055 -0.3490 -0.1187
   85MOL0     H11177   6.686   6.676   5.371  0.9164 -0.9117  0.2919
   85MOL0     H11178   6.536   6.793   5.224 -1.4459 -1.9651 -1.2013
   85MOL0     H11179   6.673   6.847   5.121  0.8863 -0.3095  1.1131
   85MOL0     H11180   6.528   6.575   5.136 -0.1968  0.0652 -1.2324
   85MOL0     H11181   6.673   6.602   5.038 -0.1093 -0.2024 -0.0029
   85MOL0     H11182   6.317   6.652   5.164 -1.9422 -2.0178  0.0696
   85MOL0     H11183   6.068   6.681   5.117 -0.7002 -0.4815  0.1212
   85MOL0     H11184   5.861   6.779   4.504 -1.2193  0.3579 -2.7754
   85MOL0     H11185   5.651   6.762   4.395 -0.1621  0.4707  0.3388
   85MOL0     H11186   5.347   6.777   4.616 -2.7347  3.1269 -4.1919
   85MOL0     H11187   5.290   6.601   4.637  1.4110 -1.9991 -0.3691
   85MOL0     H11188   5.119   6.753   4.513  0.6898  0.6696  1.2894
   85MOL0     H11189   5.200   6.633   4.410 -0.0858 -0.6093  1.2919
   85MOL0     H11190   5.344   6.797   4.319  2.2421 -0.9461  2.7948
   85MOL0     H11191   5.278   6.931   4.420 -3.8866  0.7248  0.4449
   85MOL0     H11192   5.110   6.770   4.212  1.8567 -0.7839  0.1167
   85MOL0     H11193   5.049   6.881   4.324 -0.1544 -2.7229  0.2569
   85MOL0     H11194   5.250   6.930   4.090 -0.3217 -0.4065  0.1626
   85MOL0     H11195   5.208   7.058   4.203  2.8987  0.3897 -0.8133
   85MOL0     H11196   4.970   7.018   4.154  2.9815  3.7166  1.2985
   85MOL0     H11197   5.013   6.901   4.024  2.1465 -1.7275  1.0594
   85MOL0     H11198   4.970   7.152   3.942 -1.0968  0.1039  2.0294
   85MOL0     H11199   5.089   7.188   4.063  1.6199  0.3950 -0.3104
   85MOL0     H11200   5.147   7.024   3.815 -0.9845 -1.5807  2.8118
   85MOL0     H11201   5.271   7.105   3.911  0.4118 -1.5531 -0.2229
   85MOL0     H11202   5.487   6.564   4.750 -1.2465  1.7139  1.2648
   85MOL0     H11203   5.699   6.567   4.849 -0.5522 -1.8080 -0.8107
   85MOL0     H11204   6.160   6.729   4.694  0.5516  0.8024 -0.5990
   85MOL0     H11205   6.391   6.735   4.748  1.8422 -0.0863  1.5900
   85MOL0     H11206   8.200   6.523   5.457  0.7999 -0.5458  3.2783
   85MOL0     H11207   8.445   6.555   5.401  1.4850 -0.6639  0.5563
   85MOL0     H11208   8.673   6.193   4.976  0.5352 -1.5321  0.2045
   85MOL0     H11209   8.890   6.205   4.866  1.0791  1.2593 -1.2104
   85MOL0     H11210   9.314   6.282   4.919 -0.7472  0.2557 -1.1411
   85MOL0     H11211   9.267   6.331   5.084  1.5708 -1.3464 -0.7644
   85MOL0     H11212   9.234   6.481   4.826  1.9209 -0.8890  0.1547
   85MOL0     H11213   9.200   6.561   4.968 -1.4814 -0.8714 -1.2385
   85MOL0     H11214   9.430   6.608   4.862  0.1436 -1.8099 -1.5798
   85MOL0     H11215   9.475   6.448   4.914  2.4278  2.2687 -0.6543
   85MOL0     H11216   9.556   6.557   5.094 -1.1570 -2.4612 -3.3097
   85MOL0     H11217   9.467   6.709   5.073 -0.0337  0.4879  0.9750
   85MOL0     H11218   9.230   6.512   5.356 -3.9528  1.5881 -0.7027
   85MOL0     H11219   9.059   6.424   5.208  1.6284 -0.0296 -1.1290
   85MOL0     H11220   8.846   6.420   5.302  2.3319  1.2989 -1.1445
   86MOL0     O11221  10.470  11.166   7.808  0.4003  0.7445  0.6428
   86MOL0     C11222  10.560  11.176   7.889 -0.0301 -0.3437  0.2629
   86MOL0     O11223  10.548  11.153   8.020 -1.2246  0.3416  0.2505
   86MOL0     C11224  10.424  11.153   8.074  0.6032  0.9496  0.3250
   86MOL0     C11225  10.390  11.242   8.178  0.3089 -0.8828  0.0467
   86MOL0     C11226  10.262  11.265   8.220  0.5515  0.6660  0.3767
   86MOL0     C11227  10.159  11.192   8.152 -0.2713  0.9262  1.1889
   86MOL0     O11228  10.028  11.221   8.168 -0.5423 -0.2453 -0.2137
   86MOL0     C11229   9.962  11.156   8.270  0.0333 -0.9962 -0.5423
   86MOL0     C11230   9.827  11.222   8.296 -1.1294 -0.5015  0.7958
   86MOL0     C11231   9.733  11.161   8.396  0.0126 -1.1313  0.3533
   86MOL0     C11232   9.606  11.246   8.414 -0.1341 -0.1497 -0.2220
   86MOL0     C11233   9.500  11.154   8.478  0.2095 -0.0138 -0.9890
   86MOL0     C11234   9.369  11.230   8.482 -0.2809  0.7501 -0.0220
   86MOL0     C11235   9.243  11.164   8.538  0.0609 -0.9814 -0.1963
   86MOL0     C11236   9.192  11.051   8.454  0.4532  0.0196 -0.8052
   86MOL0     N11237   9.063  10.994   8.490  0.3390  0.0292  0.3234
   86MOL0     C11238   8.949  11.060   8.506  0.4464  1.4895 -1.1708
   86MOL0     C11239   8.859  10.962   8.542 -0.1463 -0.0529 -0.7482
   86MOL0     C11240   8.727  10.988   8.599  0.3722 -0.1936  0.3044
   86MOL0     C11241   8.699  10.916   8.737 -0.9898 -0.2298  0.8045
   86MOL0     C11242   8.578  10.977   8.810 -0.5080  0.8699  0.3667
   86MOL0     C11243   8.433  10.933   8.753  0.8921  0.1300 -0.8250
   86MOL0     O11244   8.330  11.029   8.787 -0.0318  0.3765  0.6338
   86MOL0     C11245   8.197  10.996   8.793 -0.5856  0.2536  0.1225
   86MOL0     C11246   8.112  11.060   8.877 -0.4496  0.0664 -0.3765
   86MOL0     C11247   7.969  11.041   8.883  0.1162  1.3848 -0.0650
   86MOL0     C11248   7.913  10.946   8.802  0.2624 -0.1551  0.3121
   86MOL0     C11249   7.769  10.910   8.804  1.0270 -0.4673  0.8667
   86MOL0     O11250   7.728  10.793   8.738  0.4563 -0.3141 -0.1132
   86MOL0     C11251   7.588  10.774   8.737  0.1541 -0.0415  0.1580
   86MOL0     C11252   7.524  10.734   8.623 -0.0113  0.1904 -0.4044
   86MOL0     C11253   7.383  10.729   8.612  0.1223 -0.5508 -0.4245
   86MOL0     C11254   7.307  10.749   8.729  0.3525 -0.2033 -0.0699
   86MOL0     O11255   7.166  10.739   8.730 -0.2905 -0.1959 -0.0494
   86MOL0     C11256   7.081  10.724   8.614  0.1231  0.1920  0.1483
   86MOL0     C11257   6.940  10.739   8.652 -0.5559 -0.6620  1.1837
   86MOL0     C11258   6.844  10.749   8.530  0.2747  0.6987  0.2884
   86MOL0     C11259   6.707  10.725   8.587 -0.0357  0.2095 -1.2130
   86MOL0     C11260   6.592  10.684   8.482 -0.0330  0.2203 -0.2989
   86MOL0     C11261   6.551  10.789   8.380  0.5315 -0.2639  0.3031
   86MOL0     C11262   6.477  10.907   8.448  0.3144  0.5512 -0.7951
   86MOL0     C11263   6.424  11.008   8.364  0.8828 -0.2991  0.6210
   86MOL0    Cl11264   6.347  11.138   8.450  0.3487  0.1602 -0.2155
   86MOL0     C11265   7.372  10.759   8.854 -0.7035  0.8058  0.5290
   86MOL0     C11266   7.513  10.768   8.859  0.4452  0.3847  1.0000
   86MOL0     O11267   7.695  10.998   8.840  0.4727  0.6567  0.4129
   86MOL0     C11268   8.012  10.860   8.736 -0.2264 -1.0834  0.3532
   86MOL0     C11269   8.146  10.887   8.727 -0.0579  0.2814  0.7025
   86MOL0     N11270   8.931  10.848   8.559  0.6803  0.3756  0.1484
   86MOL0     N11271   9.054  10.870   8.539 -0.5773 -0.1359  0.6432
   86MOL0     C11272  10.189  11.094   8.059 -0.5493  0.4297  0.9686
   86MOL0     C11273  10.325  11.071   8.026  1.0310 -0.4401 -0.9209
   86MOL0     C11274  10.700  11.203   7.839  0.7069  0.6659  0.3649
   86MOL0     C11275  10.731  11.194   7.703  0.1836  0.2887  0.8795
   86MOL0     C11276  10.855  11.238   7.656  0.0329  1.5407  0.7712
   86MOL0     C11277  10.956  11.279   7.735 -0.0603  0.4286 -0.2312
   86MOL0     O11278  11.076  11.305   7.679 -0.0423  0.2152 -0.3008
   86MOL0     C11279  11.195  11.261   7.745  0.8083  0.6684  0.4947
   86MOL0     C11280  11.213  11.109   7.737  0.4925  0.4154 -0.3879
   86MOL0     C11281  11.328  11.058   7.832  0.4548 -0.2750 -0.3248
   86MOL0     C11282  11.357  10.910   7.821 -0.1932 -0.3295 -0.0883
   86MOL0     C11283  11.364  10.861   7.684  0.0265 -0.0434 -0.6614
   86MOL0     C11284  11.368  10.837   7.571  0.3155 -0.2046  0.3898
   86MOL0     C11285  10.932  11.287   7.878  0.4019  0.8244  0.2243
   86MOL0     C11286  10.803  11.241   7.927 -0.3497  0.3692 -0.4218
   86MOL0     H11287  10.473  11.301   8.217 -2.3167  2.0686  1.5479
   86MOL0     H11288  10.229  11.342   8.290 -0.3914 -1.1183  1.9943
   86MOL0     H11289  10.021  11.169   8.361  0.9938  1.0265 -1.3978
   86MOL0     H11290   9.947  11.049   8.253 -0.7705 -1.1913  1.1603
   86MOL0     H11291   9.767  11.239   8.206 -0.2233  1.1471  0.4550
   86MOL0     H11292   9.839  11.323   8.335 -2.7266 -0.8077  2.1784
   86MOL0     H11293   9.780  11.135   8.492  3.3906 -2.4583 -1.5073
   86MOL0     H11294   9.693  11.066   8.360  0.7823 -1.3847  0.1639
   86MOL0     H11295   9.624  11.340   8.467  0.0952  0.0573 -0.6538
   86MOL0     H11296   9.575  11.284   8.316  1.7353  3.3570  0.3923
   86MOL0     H11297   9.519  11.117   8.580 -1.6652  1.2099 -0.1395
   86MOL0     H11298   9.476  11.065   8.419 -5.7679  0.7358 -0.3542
   86MOL0     H11299   9.353  11.261   8.378  2.5152 -1.0732 -1.0862
   86MOL0     H11300   9.391  11.305   8.558 -1.6542  0.0081  1.1524
   86MOL0     H11301   9.249  11.113   8.635 -2.1272 -3.1918 -1.1181
   86MOL0     H11302   9.174  11.248   8.556  0.0160 -1.2482  0.9670
   86MOL0     H11303   9.267  10.970   8.457 -0.9458 -1.2979  0.3620
   86MOL0     H11304   9.186  11.092   8.353 -1.4916  1.0343 -0.3174
   86MOL0     H11305   8.922  11.165   8.494  0.1990  1.4825 -0.7113
   86MOL0     H11306   8.659  10.950   8.523 -0.4748 -0.4413  1.1716
   86MOL0     H11307   8.704  11.095   8.593 -0.9256 -0.4468  0.4943
   86MOL0     H11308   8.789  10.924   8.798 -0.0359 -0.4551 -0.5391
   86MOL0     H11309   8.682  10.808   8.730  2.1990 -1.2157  4.5077
   86MOL0     H11310   8.581  10.949   8.915  2.3893 -1.0077 -0.0777
   86MOL0     H11311   8.586  11.086   8.806 -0.2652  0.8602  0.5935
   86MOL0     H11312   8.393  10.836   8.783 -1.0402  1.2430  0.4218
   86MOL0     H11313   8.441  10.948   8.644  0.1604  3.5268 -0.5172
   86MOL0     H11314   8.153  11.140   8.937  1.8822  0.1185 -1.8936
   86MOL0     H11315   7.910  11.097   8.953 -0.6825 -0.9925  1.2906
   86MOL0     H11316   7.578  10.710   8.533  1.3292 -0.1564  0.4662
   86MOL0     H11317   7.341  10.713   8.513  1.3594  0.1696 -1.0946
   86MOL0     H11318   7.103  10.630   8.563 -2.1399 -0.4999  0.2992
   86MOL0     H11319   7.103  10.799   8.538 -0.8678 -1.6599 -2.1020
   86MOL0     H11320   6.920  10.830   8.711  0.2581  0.1161  0.2803
   86MOL0     H11321   6.914  10.653   8.714 -0.1862 -2.2269 -0.7502
   86MOL0     H11322   6.867  10.665   8.466 -1.0689 -1.4920  2.4868
   86MOL0     H11323   6.848  10.849   8.484 -0.7249  1.0024  0.8172
   86MOL0     H11324   6.710  10.642   8.659 -0.0953  0.2213 -1.1959
   86MOL0     H11325   6.676  10.816   8.638  0.3889  0.5306 -1.5149
   86MOL0     H11326   6.502  10.653   8.537  0.7008  1.3102  1.6235
   86MOL0     H11327   6.620  10.595   8.425 -4.5113 -1.1620 -0.7317
   86MOL0     H11328   6.474  10.751   8.312  1.0314  0.7563 -0.8729
   86MOL0     H11329   6.648  10.811   8.333  0.7006 -1.0999  0.2364
   86MOL0     H11330   6.392  10.851   8.489  0.9974 -0.6474 -0.9589
   86MOL0     H11331   6.532  10.953   8.530  2.8548 -1.3437 -1.3236
   86MOL0     H11332   6.362  10.962   8.287 -1.9959  0.8493  2.1286
   86MOL0     H11333   6.514  11.045   8.314  0.2377  0.4216 -0.0271
   86MOL0     H11334   7.309  10.762   8.942  0.5229 -1.4698  1.5762
   86MOL0     H11335   7.563  10.770   8.956  1.8134 -1.4835  0.4069
   86MOL0     H11336   7.991  10.766   8.686  2.0194 -1.0675 -0.7047
   86MOL0     H11337   8.214  10.819   8.678  1.4090  2.1390  0.0522
   86MOL0     H11338  10.103  11.035   8.028 -2.5879  1.4932  4.1593
   86MOL0     H11339  10.342  11.006   7.941  1.2894  2.3288 -3.1321
   86MOL0     H11340  10.648  11.183   7.634  0.5006 -0.8752  0.6635
   86MOL0     H11341  10.884  11.244   7.552  1.9920 -1.7951  0.9750
   86MOL0     H11342  11.194  11.295   7.849 -4.1690 -0.7545  1.1478
   86MOL0     H11343  11.277  11.309   7.690  1.4782  4.7683  4.4415
   86MOL0     H11344  11.121  11.060   7.769 -0.0889  0.5592 -1.7583
   86MOL0     H11345  11.232  11.087   7.631 -1.1141 -1.1927 -0.3881
   86MOL0     H11346  11.297  11.095   7.930  1.7122  1.0244 -0.3773
   86MOL0     H11347  11.420  11.113   7.811 -0.3214  1.2763  0.1697
   86MOL0     H11348  11.439  10.885   7.890  0.9263  0.6894 -1.0068
   86MOL0     H11349  11.274  10.860   7.872  1.6502 -3.9681 -0.2751
   86MOL0     H11350  11.357  10.820   7.466 -0.0773  3.0084 -0.1880
   86MOL0     H11351  11.017  11.333   7.928  1.3845  0.0622 -0.6863
   86MOL0     H11352  10.787  11.238   8.034  0.9383 -0.8311 -0.2354
   87MOL0     O11353   9.462   6.082  10.682  0.0290  0.3085  0.6224
   87MOL0     C11354   9.422   5.988  10.754  0.1194 -0.6128  0.5418
   87MOL0     O11355   9.290   5.953  10.782  0.2596  0.7697  0.0362
   87MOL0     C11356   9.179   6.025  10.736 -0.4235 -0.5617  0.0737
   87MOL0     C11357   9.140   6.059  10.601  0.1241  0.3777  0.0333
   87MOL0     C11358   9.024   6.126  10.576  0.0265  0.9300  0.3284
   87MOL0     C11359   8.924   6.143  10.675  0.6940  0.1646  1.3632
   87MOL0     O11360   8.794   6.180  10.660 -0.0527 -0.2671 -0.4715
   87MOL0     C11361   8.737   6.218  10.535 -0.1434  0.2092  0.6779
   87MOL0     C11362   8.613   6.298  10.549  0.8461 -0.6076 -0.9489
   87MOL0     C11363   8.506   6.224  10.630  0.0385  0.7678  0.9392
   87MOL0     C11364   8.365   6.296  10.629  0.7530 -0.0440 -0.3429
   87MOL0     C11365   8.266   6.235  10.532 -0.3074 -0.1021 -0.5234
   87MOL0     C11366   8.133   6.315  10.533 -0.0713 -0.0722  0.2784
   87MOL0     C11367   8.050   6.237  10.425  0.1225 -0.1545  0.0168
   87MOL0     C11368   7.907   6.271  10.459  0.3871  0.2261 -0.3284
   87MOL0     N11369   7.859   6.406  10.421 -1.4186  0.8149  0.0315
   87MOL0     C11370   7.822   6.447  10.295  0.7932  0.5538 -1.4286
   87MOL0     C11371   7.814   6.578  10.301  0.4686  0.2409 -0.2243
   87MOL0     C11372   7.772   6.669  10.187  0.1826 -0.2622 -0.1799
   87MOL0     C11373   7.894   6.720  10.111  0.4389 -0.2645 -0.7897
   87MOL0     C11374   7.851   6.828  10.013 -0.5537 -0.0275  0.3423
   87MOL0     C11375   7.978   6.900   9.957 -0.5315  1.3091  0.3109
   87MOL0     O11376   8.062   6.787   9.900 -0.2032 -0.3874  0.0225
   87MOL0     C11377   8.200   6.801   9.891  0.6851  0.2860 -0.3350
   87MOL0     C11378   8.268   6.925   9.891 -0.2947 -0.5496  0.7281
   87MOL0     C11379   8.410   6.927   9.886 -0.6279  0.2040 -0.4088
   87MOL0     C11380   8.488   6.808   9.892 -0.2025  0.3891  0.1700
   87MOL0     C11381   8.634   6.816   9.878 -0.2413  0.2380 -0.0132
   87MOL0     O11382   8.698   6.935   9.904 -0.0575  0.7307  0.1807
   87MOL0     C11383   8.824   6.981   9.884 -0.6349  0.3779  0.4431
   87MOL0     C11384   8.927   6.913   9.801 -0.7307 -0.3827  0.2982
   87MOL0     C11385   9.039   6.986   9.773 -0.7828 -0.1904 -1.1614
   87MOL0     C11386   9.066   7.112   9.835 -0.3871  0.6012  0.8389
   87MOL0     O11387   9.187   7.175   9.810  0.5403 -0.1170  0.0154
   87MOL0     C11388   9.234   7.172   9.673 -0.2299 -0.0257 -0.0479
   87MOL0     C11389   9.296   7.318   9.653  0.9216  1.0416  0.1345
   87MOL0     C11390   9.440   7.334   9.718 -0.0453  0.0049  0.1671
   87MOL0     C11391   9.530   7.436   9.634  0.7646  0.4261 -0.9801
   87MOL0     C11392   9.662   7.470   9.711  0.2375 -0.0716  0.6234
   87MOL0     C11393   9.649   7.522   9.854 -0.1196 -0.0741  0.9324
   87MOL0     C11394   9.772   7.572   9.911  0.9853  0.0280  0.0374
   87MOL0     C11395   9.758   7.623  10.051  0.6418 -0.7591 -0.2364
   87MOL0    Cl11396   9.660   7.515  10.151  0.1689 -0.0112 -0.4610
   87MOL0     C11397   8.968   7.162   9.919 -0.8647 -0.1848 -1.0388
   87MOL0     C11398   8.852   7.105   9.944  0.7440 -0.7038 -0.8772
   87MOL0     O11399   8.691   6.717   9.837 -0.2458 -0.0015  0.1488
   87MOL0     C11400   8.413   6.684   9.876  0.4291 -0.5312 -0.7280
   87MOL0     C11401   8.273   6.682   9.870 -0.8069 -0.6905 -0.2978
   87MOL0     N11402   7.841   6.620  10.429  0.6169  0.3251  0.8214
   87MOL0     N11403   7.865   6.510  10.500 -0.1739 -0.3357  0.0414
   87MOL0     C11404   8.963   6.108  10.803  0.1306 -0.2588  0.2662
   87MOL0     C11405   9.079   6.046  10.837 -1.2246 -0.5093 -0.3243
   87MOL0     C11406   9.529   5.897  10.809  1.0625 -0.1341 -0.0262
   87MOL0     C11407   9.667   5.920  10.812 -0.0477 -0.2566 -0.1589
   87MOL0     C11408   9.759   5.830  10.871  0.8041 -0.0380 -0.5937
   87MOL0     C11409   9.713   5.705  10.918  0.3939  0.6390 -0.3945
   87MOL0     O11410   9.808   5.630  10.983 -0.6087 -0.3642 -0.2139
   87MOL0     C11411   9.766   5.505  11.049 -0.0408 -0.3829  0.1306
   87MOL0     C11412   9.874   5.449  11.139 -0.2327  0.3288 -0.1426
   87MOL0     C11413   9.996   5.391  11.065  0.7646 -0.0590  1.0442
   87MOL0     C11414  10.096   5.336  11.167  0.0106 -0.1527  0.6193
   87MOL0     C11415  10.047   5.208  11.234 -0.2010 -0.0369  0.4616
   87MOL0     C11416  10.030   5.102  11.292  1.0525 -0.3903  0.3741
   87MOL0     C11417   9.582   5.674  10.902 -0.0751 -0.3884 -0.1370
   87MOL0     C11418   9.484   5.774  10.861  0.0671  0.0809  0.3626
   87MOL0     H11419   9.219   6.057  10.526  0.6307 -0.0893  0.5700
   87MOL0     H11420   9.006   6.149  10.471 -0.7266 -0.1633  0.2024
   87MOL0     H11421   8.716   6.131  10.472  0.9795 -0.4256  1.1507
   87MOL0     H11422   8.811   6.280  10.482 -0.5871  1.7840  1.8199
   87MOL0     H11423   8.579   6.334  10.451  0.9025 -1.5415 -1.3176
   87MOL0     H11424   8.635   6.385  10.612 -2.8111  0.8614 -1.4773
   87MOL0     H11425   8.537   6.215  10.734 -0.6273 -3.3947  0.9545
   87MOL0     H11426   8.490   6.121  10.599 -0.3244  0.7526  1.1697
   87MOL0     H11427   8.312   6.294  10.725 -0.7987 -0.0882 -1.1596
   87MOL0     H11428   8.374   6.399  10.595  5.9003  0.1508  0.8975
   87MOL0     H11429   8.249   6.134  10.572  0.9571  1.3133  4.1163
   87MOL0     H11430   8.309   6.233  10.431  0.7151 -0.6072 -0.0900
   87MOL0     H11431   8.152   6.417  10.498  2.1994 -0.7506 -0.7064
   87MOL0     H11432   8.091   6.321  10.633  0.9944 -1.5636  0.8519
   87MOL0     H11433   8.077   6.273  10.325 -1.3251 -0.5704 -0.5365
   87MOL0     H11434   8.064   6.128  10.429  0.4304 -0.1012  0.5631
   87MOL0     H11435   7.882   6.267  10.565 -1.0337 -3.9289 -0.6480
   87MOL0     H11436   7.845   6.199  10.404  1.5301 -0.3810 -0.8625
   87MOL0     H11437   7.808   6.380  10.210 -0.2950  0.1998 -0.9853
   87MOL0     H11438   7.718   6.756  10.226 -2.8983 -1.6786 -0.9944
   87MOL0     H11439   7.695   6.635  10.118  1.1734  1.0607 -2.0165
   87MOL0     H11440   7.958   6.646  10.061 -1.3197 -3.3772  1.2059
   87MOL0     H11441   7.956   6.765  10.189 -0.8197 -3.1292  2.1134
   87MOL0     H11442   7.802   6.795   9.921  1.3031  0.2417 -0.7988
   87MOL0     H11443   7.795   6.905  10.066 -3.1898 -0.0075 -2.1922
   87MOL0     H11444   8.022   6.953  10.042  0.3516 -2.8868  2.7649
   87MOL0     H11445   7.953   6.972   9.879  3.5077 -0.1821 -2.7708
   87MOL0     H11446   8.201   7.011   9.898 -3.0082 -2.2187 -2.0907
   87MOL0     H11447   8.464   7.019   9.904 -1.6425  1.0958 -1.7021
   87MOL0     H11448   8.909   6.818   9.751 -1.1629 -0.2056  0.1104
   87MOL0     H11449   9.112   6.937   9.708  3.0413  1.5018  1.4898
   87MOL0     H11450   9.156   7.159   9.597  1.9329 -0.3102 -2.3289
   87MOL0     H11451   9.303   7.089   9.665 -0.2720  0.0745 -1.6606
   87MOL0     H11452   9.237   7.397   9.701 -0.5657  0.3518 -0.4751
   87MOL0     H11453   9.274   7.325   9.546 -1.5976  1.1673  0.5828
   87MOL0     H11454   9.499   7.244   9.706  3.7268  2.3120 -0.1495
   87MOL0     H11455   9.437   7.360   9.824  1.0337  3.7959 -0.5614
   87MOL0     H11456   9.553   7.398   9.533  2.0106 -1.2711 -0.1149
   87MOL0     H11457   9.467   7.523   9.613  0.7740  0.3429 -1.3688
   87MOL0     H11458   9.702   7.543   9.639 -0.1905 -0.8142 -0.3999
   87MOL0     H11459   9.734   7.387   9.705  0.4874  0.2464 -2.8591
   87MOL0     H11460   9.632   7.440   9.925  1.9674  1.3884  3.2980
   87MOL0     H11461   9.571   7.599   9.860  0.6847  0.7159  1.5862
   87MOL0     H11462   9.862   7.510   9.898  1.8430  1.2620 -0.1601
   87MOL0     H11463   9.797   7.661   9.853 -0.2716 -0.5272 -1.4125
   87MOL0     H11464   9.714   7.723  10.045  3.7774  0.6836 -1.6510
   87MOL0     H11465   9.859   7.642  10.089  0.6900 -1.0131 -0.2307
   87MOL0     H11466   8.999   7.251   9.973  1.4544 -1.9222  0.6815
   87MOL0     H11467   8.786   7.163  10.009  1.0277 -0.1299 -1.0920
   87MOL0     H11468   8.473   6.593   9.875  1.3518 -0.0031  1.6378
   87MOL0     H11469   8.212   6.592   9.872 -1.6557 -0.1535  2.1883
   87MOL0     H11470   8.884   6.142  10.869  0.6563  0.7379  0.4038
   87MOL0     H11471   9.105   6.020  10.939  0.4424  1.5201 -0.1737
   87MOL0     H11472   9.711   6.015  10.782  2.0147 -0.9311  0.5283
   87MOL0     H11473   9.861   5.860  10.895  0.1286 -0.6865  3.9488
   87MOL0     H11474   9.724   5.423  10.991 -0.6346 -1.4381  1.9780
   87MOL0     H11475   9.681   5.537  11.109  4.8804  2.7294  6.7864
   87MOL0     H11476   9.921   5.525  11.201  3.7766 -0.0856 -2.3550
   87MOL0     H11477   9.830   5.371  11.201 -0.7654  0.0127 -0.9022
   87MOL0     H11478  10.058   5.459  11.007  1.0619  0.0285  1.4545
   87MOL0     H11479   9.956   5.318  10.994 -2.9796  2.2546  0.5207
   87MOL0     H11480  10.189   5.309  11.118 -0.7223 -1.3192 -0.1879
   87MOL0     H11481  10.116   5.409  11.246 -0.5495 -0.2652  0.8751
   87MOL0     H11482  10.039   5.015  11.354  3.4683 -0.2576  0.2721
   87MOL0     H11483   9.544   5.574  10.923 -1.3929 -0.5546 -2.8656
   87MOL0     H11484   9.377   5.755  10.857  0.1756 -0.3119 -1.1048
   88MOL0     O11485  10.380  10.294   8.903  0.0481 -0.5092  0.3447
   88MOL0     C11486  10.427  10.387   8.834 -0.2874 -0.4611  0.4781
   88MOL0     O11487  10.345  10.477   8.764 -0.2732  0.1226  0.2781
   88MOL0     C11488  10.207  10.477   8.798 -0.9831 -0.2224  0.3361
   88MOL0     C11489  10.108  10.483   8.698 -0.7881  0.2720 -0.6237
   88MOL0     C11490   9.973  10.486   8.733  0.1677  0.5109 -0.0904
   88MOL0     C11491   9.926  10.497   8.857  0.1334 -1.0395 -0.1792
   88MOL0     O11492   9.789  10.500   8.887 -0.0244  0.4101 -0.2392
   88MOL0     C11493   9.688  10.488   8.781 -0.1543 -0.6669  0.2483
   88MOL0     C11494   9.544  10.479   8.828 -0.0278  0.0567 -0.5184
   88MOL0     C11495   9.520  10.352   8.918  0.3116 -0.6219 -0.2681
   88MOL0     C11496   9.373  10.334   8.932  0.5641  1.2712  0.1752
   88MOL0     C11497   9.351  10.197   9.016  1.3587  0.0748 -0.1424
   88MOL0     C11498   9.193  10.171   9.033  0.3983 -0.3472  0.2599
   88MOL0     C11499   9.157  10.028   9.077 -0.2190  0.1588 -0.9173
   88MOL0     C11500   9.241   9.988   9.207  0.9233 -0.8610  0.0793
   88MOL0     N11501   9.196   9.878   9.292  0.1913  0.6230  0.3617
   88MOL0     C11502   9.059   9.862   9.307  0.6901 -0.9488 -0.4254
   88MOL0     C11503   9.057   9.759   9.397  0.1134 -0.3924 -0.5286
   88MOL0     C11504   8.938   9.681   9.446  0.6339  0.0268 -0.5265
   88MOL0     C11505   8.828   9.764   9.513 -0.3480 -0.8459  0.4658
   88MOL0     C11506   8.688   9.698   9.538 -0.8236 -0.2187  0.6413
   88MOL0     C11507   8.597   9.795   9.610 -0.9942 -0.5655  0.6260
   88MOL0     O11508   8.627   9.822   9.746 -1.0469  0.1966  0.2360
   88MOL0     C11509   8.616   9.719   9.831 -0.5057  0.6090  0.0060
   88MOL0     C11510   8.677   9.745   9.951 -0.3081 -0.0012  0.7559
   88MOL0     C11511   8.650   9.661  10.056 -0.1340  0.9616 -0.3060
   88MOL0     C11512   8.556   9.559  10.049 -0.2918  0.3575 -0.4808
   88MOL0     C11513   8.508   9.485  10.168 -0.2090  0.2845 -0.3279
   88MOL0     O11514   8.469   9.355  10.139 -0.2556 -0.2405  0.5325
   88MOL0     C11515   8.377   9.292  10.211 -0.1317 -0.6158 -0.1716
   88MOL0     C11516   8.253   9.261  10.152  0.2647 -1.4072  0.1233
   88MOL0     C11517   8.160   9.181  10.224  0.2897 -1.1077 -0.1374
   88MOL0     C11518   8.173   9.173  10.364  1.0024 -0.0094 -0.2501
   88MOL0     O11519   8.108   9.100  10.454  0.2824  0.4284 -0.5740
   88MOL0     C11520   7.972   9.066  10.430 -0.1286 -0.0398  0.2783
   88MOL0     C11521   7.893   9.064  10.561  0.3515 -0.5411  0.1789
   88MOL0     C11522   7.877   9.205  10.619  0.2000  0.2210 -0.7977
   88MOL0     C11523   7.798   9.191  10.749  0.3051  0.3003 -0.7025
   88MOL0     C11524   7.783   9.328  10.817 -0.2269 -0.0079 -0.5946
   88MOL0     C11525   7.710   9.437  10.739  0.0190 -0.3725  0.2577
   88MOL0     C11526   7.651   9.545  10.831  0.6703 -0.7486  0.0302
   88MOL0     C11527   7.664   9.681  10.765 -0.3089  0.3757 -0.2105
   88MOL0    Cl11528   7.561   9.694  10.630 -0.2242  0.3586  0.4809
   88MOL0     C11529   8.298   9.210  10.419  0.3633 -0.3604  1.0209
   88MOL0     C11530   8.393   9.267  10.344 -0.0584  0.5824 -0.4376
   88MOL0     O11531   8.492   9.540  10.278  0.1182 -0.9463  0.0934
   88MOL0     C11532   8.499   9.530   9.920 -0.9171 -0.1398 -0.2570
   88MOL0     C11533   8.528   9.610   9.811  0.1589 -0.9008 -0.2638
   88MOL0     N11534   9.184   9.729   9.438 -0.3736 -0.8525 -0.9306
   88MOL0     N11535   9.270   9.801   9.374  0.1465 -0.1278 -0.5126
   88MOL0     C11536  10.023  10.499   8.956  0.8812  0.1725 -0.2915
   88MOL0     C11537  10.160  10.491   8.930  0.1603 -0.4301  0.0962
   88MOL0     C11538  10.573  10.398   8.816 -0.1460 -0.4342  0.5726
   88MOL0     C11539  10.663  10.319   8.893 -0.4247 -0.2629  0.7939
   88MOL0     C11540  10.804  10.311   8.871 -0.0766 -0.1176 -1.1261
   88MOL0     C11541  10.852  10.402   8.780 -0.3754 -0.7694  0.0560
   88MOL0     O11542  10.986  10.397   8.771  0.2539  0.0114  0.4818
   88MOL0     C11543  11.061  10.511   8.733  0.0311  1.1496  0.4960
   88MOL0     C11544  11.200  10.486   8.790  0.2481  0.5850 -0.1593
   88MOL0     C11545  11.296  10.607   8.779  0.5639 -1.0944  0.1711
   88MOL0     C11546  11.426  10.577   8.850  0.3550 -0.4195  0.4650
   88MOL0     C11547  11.488  10.463   8.781  0.1519 -0.1069  0.4102
   88MOL0     C11548  11.542  10.372   8.718 -0.7836 -0.6949 -0.3472
   88MOL0     C11549  10.777  10.499   8.714  0.2505  0.0317  1.2680
   88MOL0     C11550  10.630  10.493   8.728 -0.0731  0.1479 -0.1549
   88MOL0     H11551  10.156  10.492   8.601 -0.5359 -0.7257 -0.5982
   88MOL0     H11552   9.908  10.471   8.647  0.3637  0.5369 -0.2420
   88MOL0     H11553   9.721  10.402   8.721  5.5419  1.0746  0.2445
   88MOL0     H11554   9.696  10.571   8.711 -0.6539 -1.0511 -0.2737
   88MOL0     H11555   9.476  10.488   8.742 -0.2569 -0.1861 -0.3603
   88MOL0     H11556   9.533  10.565   8.895  2.3436 -0.9345  1.2493
   88MOL0     H11557   9.565  10.364   9.017 -0.4584 -0.4535  0.0762
   88MOL0     H11558   9.563  10.267   8.865 -2.8303 -2.3836 -0.2208
   88MOL0     H11559   9.345  10.416   8.999 -3.1722  0.4786 -0.2120
   88MOL0     H11560   9.315  10.342   8.840  4.3741 -0.9413 -2.6668
   88MOL0     H11561   9.395  10.192   9.115  1.2951 -0.6425 -0.1427
   88MOL0     H11562   9.376  10.110   8.954 -3.0627 -1.5604 -0.0291
   88MOL0     H11563   9.133  10.196   8.945  1.6067  4.0419  0.4272
   88MOL0     H11564   9.164  10.246   9.107 -1.7218  0.3404 -1.1790
   88MOL0     H11565   9.048  10.019   9.084 -0.3658  0.2224 -2.6973
   88MOL0     H11566   9.183   9.956   8.999  2.4056  0.1656 -0.1457
   88MOL0     H11567   9.229  10.077   9.270 -4.3301 -2.5573  1.9743
   88MOL0     H11568   9.350   9.988   9.195  1.1556  1.0704  1.5922
   88MOL0     H11569   8.968   9.915   9.282  0.3083 -0.5391  1.6007
   88MOL0     H11570   8.981   9.597   9.502  2.8266  0.6775 -1.1395
   88MOL0     H11571   8.888   9.638   9.358 -1.9940  2.7699 -0.5433
   88MOL0     H11572   8.803   9.855   9.458 -2.2582 -1.0718  0.9049
   88MOL0     H11573   8.876   9.798   9.606  0.0785 -0.1008 -0.0215
   88MOL0     H11574   8.641   9.676   9.441 -0.7202  0.6766  0.3814
   88MOL0     H11575   8.706   9.605   9.592  2.5310 -0.2390 -0.2793
   88MOL0     H11576   8.494   9.759   9.601 -2.1434  2.3329  1.0246
   88MOL0     H11577   8.604   9.892   9.561 -4.0705 -1.8414 -2.7949
   88MOL0     H11578   8.758   9.817   9.963 -1.1242  0.8470  1.4008
   88MOL0     H11579   8.698   9.668  10.153 -1.7347 -1.6351  0.7859
   88MOL0     H11580   8.254   9.266  10.043 -0.5049 -3.3869 -0.0258
   88MOL0     H11581   8.073   9.159  10.162  0.4562 -0.5339 -0.5844
   88MOL0     H11582   7.986   8.967  10.386 -0.6121 -1.1257  2.4113
   88MOL0     H11583   7.922   9.137  10.365 -2.7464 -0.4937  1.6678
   88MOL0     H11584   7.935   8.991  10.631  0.1877 -1.2588 -0.4580
   88MOL0     H11585   7.794   9.026  10.532  0.7304 -0.8644 -0.7091
   88MOL0     H11586   7.826   9.265  10.544  2.1207  1.6714 -1.0389
   88MOL0     H11587   7.976   9.248  10.641 -0.9383  3.4192 -1.4688
   88MOL0     H11588   7.699   9.153  10.723 -0.4395  3.2561 -2.6271
   88MOL0     H11589   7.839   9.120  10.822  0.1106  2.0358  1.2098
   88MOL0     H11590   7.882   9.364  10.848  0.2445 -2.5093  1.0708
   88MOL0     H11591   7.736   9.308  10.914  2.6610  2.8300  1.6315
   88MOL0     H11592   7.622   9.391  10.693 -0.4397  0.7120  0.0342
   88MOL0     H11593   7.779   9.485  10.670  2.3339 -0.5491  2.3260
   88MOL0     H11594   7.543   9.535  10.847  0.5746 -2.3383 -1.3102
   88MOL0     H11595   7.692   9.541  10.932 -1.0701  0.5626  0.8517
   88MOL0     H11596   7.763   9.693  10.720 -1.0814  1.7907 -1.6149
   88MOL0     H11597   7.632   9.749  10.844  0.2724 -1.0366  1.2961
   88MOL0     H11598   8.329   9.178  10.518  2.1314 -2.2298 -0.0664
   88MOL0     H11599   8.492   9.284  10.387  0.9210  0.0261 -2.3615
   88MOL0     H11600   8.431   9.445   9.910 -1.6373  0.2512  0.9872
   88MOL0     H11601   8.490   9.572   9.717  0.3247 -1.0411 -0.2739
   88MOL0     H11602   9.976  10.515   9.053 -0.0189  4.5508 -1.2471
   88MOL0     H11603  10.230  10.472   9.010 -1.7840 -1.5605  1.6286
   88MOL0     H11604  10.618  10.255   8.968 -1.3145 -0.4484  0.1154
   88MOL0     H11605  10.861  10.238   8.927  2.3433 -0.7694 -4.1762
   88MOL0     H11606  11.019  10.607   8.765  1.4678  1.7964  0.5073
   88MOL0     H11607  11.065  10.514   8.623  1.3461  1.9290  0.5431
   88MOL0     H11608  11.191  10.469   8.898 -0.2781  0.7669 -0.1699
   88MOL0     H11609  11.242  10.395   8.747  0.6146  0.4510  0.4659
   88MOL0     H11610  11.253  10.676   8.851  0.4492 -2.4972  1.5010
   88MOL0     H11611  11.311  10.642   8.677 -1.4280 -2.7378 -0.7499
   88MOL0     H11612  11.493  10.663   8.844  0.7505 -0.8130 -2.1811
   88MOL0     H11613  11.407  10.546   8.953  2.0385 -1.9301  0.3733
   88MOL0     H11614  11.573  10.289   8.659 -4.1104 -0.6821 -2.3539
   88MOL0     H11615  10.834  10.559   8.644  2.1522 -1.5433  1.3708
   88MOL0     H11616  10.558  10.549   8.670  0.0539  0.0183 -0.4411
   89MOL0     O11617   0.457   1.811   0.446  0.7259 -0.6581  0.1493
   89MOL0     C11618   0.488   1.934   0.448 -0.4003  0.2572  0.5155
   89MOL0     O11619   0.443   2.037   0.532  0.1555  0.9706 -0.0428
   89MOL0     C11620   0.339   2.020   0.626 -0.0356 -1.1204  0.7390
   89MOL0     C11621   0.312   1.894   0.689 -0.1885 -0.2334 -0.3535
   89MOL0     C11622   0.211   1.875   0.789  0.4874 -0.2266 -0.1522
   89MOL0     C11623   0.130   1.986   0.815  0.2008  0.6635 -0.5864
   89MOL0     O11624   0.020   1.971   0.899  0.9814  0.3256  0.1634
   89MOL0     C11625  -0.072   1.870   0.854  0.5054 -0.1474  1.6382
   89MOL0     C11626  -0.140   1.897   0.719  0.0721 -0.8048  0.4087
   89MOL0     C11627  -0.192   2.046   0.694 -0.1431  0.5042 -0.3882
   89MOL0     C11628  -0.307   2.078   0.792 -0.0078  0.3430  0.6146
   89MOL0     C11629  -0.366   2.217   0.764 -0.4551 -0.9398 -0.4736
   89MOL0     C11630  -0.424   2.235   0.620 -0.7867  0.6774  0.3714
   89MOL0     C11631  -0.510   2.363   0.595 -0.6672  0.5087 -0.2151
   89MOL0     C11632  -0.437   2.493   0.587 -0.7789 -0.1534 -0.0961
   89MOL0     N11633  -0.315   2.482   0.495  0.8911 -0.7342  0.2623
   89MOL0     C11634  -0.186   2.477   0.541 -0.7738 -0.3314 -0.1652
   89MOL0     C11635  -0.107   2.480   0.436  0.5929 -0.0576  0.1211
   89MOL0     C11636   0.046   2.504   0.427 -0.4384  0.7716 -0.7938
   89MOL0     C11637   0.113   2.400   0.338 -0.3431  0.3084 -0.3602
   89MOL0     C11638   0.269   2.392   0.339  0.0058 -0.0206  0.0773
   89MOL0     C11639   0.338   2.526   0.339  1.3874 -0.1599  0.1414
   89MOL0     O11640   0.458   2.524   0.260  0.4189 -0.3361 -0.3016
   89MOL0     C11641   0.584   2.498   0.323  0.1679 -0.7989  0.2846
   89MOL0     C11642   0.690   2.512   0.231 -0.2747  0.3377  0.1959
   89MOL0     C11643   0.822   2.481   0.269  0.1410 -0.2006  0.1126
   89MOL0     C11644   0.844   2.428   0.398 -0.2539  0.0967  0.2912
   89MOL0     C11645   0.981   2.389   0.443  1.1531  0.2571 -0.1464
   89MOL0     O11646   1.082   2.416   0.353 -0.5451 -0.1409  0.3148
   89MOL0     C11647   1.215   2.433   0.392 -0.0202 -0.2530 -0.3391
   89MOL0     C11648   1.273   2.448   0.518  0.7696 -0.0600 -0.1677
   89MOL0     C11649   1.407   2.473   0.538 -0.1474 -0.7756  0.5862
   89MOL0     C11650   1.499   2.463   0.428 -0.6459 -0.8777  0.3002
   89MOL0     O11651   1.635   2.484   0.425  0.3625 -0.3597 -0.5781
   89MOL0     C11652   1.703   2.489   0.555 -0.1084  0.3735  0.0503
   89MOL0     C11653   1.851   2.474   0.524 -0.3741  0.3341  0.3046
   89MOL0     C11654   1.924   2.381   0.631  0.0311 -0.0619  0.1590
   89MOL0     C11655   2.073   2.371   0.606 -0.1031 -0.0913 -0.6162
   89MOL0     C11656   2.150   2.295   0.710  0.6109 -0.1348  0.4118
   89MOL0     C11657   2.123   2.142   0.681  0.0079 -0.8628  0.7715
   89MOL0     C11658   2.181   2.039   0.777 -0.4387 -0.4007 -0.4519
   89MOL0     C11659   2.337   2.054   0.802 -0.6548 -0.4905 -0.4016
   89MOL0    Cl11660   2.442   2.041   0.659  0.0844  0.1948 -0.1183
   89MOL0     C11661   1.440   2.433   0.308  0.5624  0.7137  0.6256
   89MOL0     C11662   1.302   2.419   0.283  1.0619  0.9593 -0.2906
   89MOL0     O11663   0.995   2.342   0.554 -0.3824  1.1246  0.0913
   89MOL0     C11664   0.731   2.405   0.484 -0.1723  0.0178  0.4957
   89MOL0     C11665   0.602   2.440   0.451  1.1754 -0.0108 -0.3952
   89MOL0     N11666  -0.189   2.482   0.323  0.0687  0.5648 -0.4121
   89MOL0     N11667  -0.306   2.481   0.358  0.1444  0.3599 -0.4116
   89MOL0     C11668   0.158   2.112   0.760 -0.8107 -0.2121 -0.0213
   89MOL0     C11669   0.259   2.130   0.666 -0.7693  0.9640  0.6714
   89MOL0     C11670   0.604   1.977   0.374  0.1603  1.1982  0.5720
   89MOL0     C11671   0.617   2.102   0.321  0.3678  0.2677  0.6703
   89MOL0     C11672   0.723   2.139   0.238  1.0372  0.8188 -0.5218
   89MOL0     C11673   0.837   2.060   0.245 -0.2305  0.8121  0.1351
   89MOL0     O11674   0.940   2.101   0.168 -0.0087 -0.0138  0.1867
   89MOL0     C11675   1.033   2.004   0.129 -0.6126 -0.7299 -0.6086
   89MOL0     C11676   1.136   2.063   0.033  0.5428  0.7540 -0.0233
   89MOL0     C11677   1.051   2.114  -0.085  0.2425 -0.0299  0.0314
   89MOL0     C11678   1.143   2.165  -0.201  0.7898  0.0067 -0.6642
   89MOL0     C11679   1.216   2.277  -0.152  0.1326 -1.3920  0.6927
   89MOL0     C11680   1.264   2.385  -0.117 -0.4468  0.4137 -0.2456
   89MOL0     C11681   0.829   1.934   0.314  0.2849  0.6903  0.4450
   89MOL0     C11682   0.704   1.888   0.364  0.6301  0.3917  0.4399
   89MOL0     H11683   0.369   1.804   0.670  0.9003  0.5557 -0.9624
   89MOL0     H11684   0.182   1.783   0.837 -4.4585  0.4540 -1.2988
   89MOL0     H11685  -0.153   1.875   0.927  1.9190  1.6707  3.1651
   89MOL0     H11686  -0.034   1.768   0.843  2.0558  0.6520 -2.4023
   89MOL0     H11687  -0.231   1.838   0.713 -0.4256 -0.0072 -4.7893
   89MOL0     H11688  -0.065   1.868   0.645  0.8835  2.5083 -0.2343
   89MOL0     H11689  -0.227   2.042   0.591  0.4870 -0.7549 -0.5713
   89MOL0     H11690  -0.113   2.122   0.703 -0.4881  0.8586 -0.3551
   89MOL0     H11691  -0.390   2.010   0.773 -1.3913  2.4075 -1.2066
   89MOL0     H11692  -0.258   2.073   0.889  1.7539 -0.6669 -0.2792
   89MOL0     H11693  -0.283   2.288   0.777 -1.3054 -0.0030 -0.0908
   89MOL0     H11694  -0.441   2.242   0.840  0.6970  0.2185  0.3233
   89MOL0     H11695  -0.486   2.145   0.614 -1.4042  0.9856  1.7314
   89MOL0     H11696  -0.343   2.230   0.546  2.6487  2.1121  3.7235
   89MOL0     H11697  -0.567   2.335   0.506 -0.5947 -0.8657  0.1470
   89MOL0     H11698  -0.585   2.364   0.675 -1.4538 -0.4484 -0.9028
   89MOL0     H11699  -0.409   2.523   0.688 -2.4984  0.9502  0.0862
   89MOL0     H11700  -0.510   2.566   0.551 -0.2428  0.2339 -0.4234
   89MOL0     H11701  -0.145   2.468   0.641  1.8751  2.1702 -0.8800
   89MOL0     H11702   0.096   2.491   0.524 -0.5646 -1.8249 -1.0114
   89MOL0     H11703   0.073   2.606   0.399  0.2375  1.2448  1.4089
   89MOL0     H11704   0.070   2.413   0.238 -0.3850  1.7111 -0.1825
   89MOL0     H11705   0.082   2.303   0.377  0.2924  0.2804  0.0959
   89MOL0     H11706   0.290   2.337   0.431 -0.3814 -0.3458 -0.0253
   89MOL0     H11707   0.302   2.329   0.256 -1.0822  0.3919 -0.6929
   89MOL0     H11708   0.370   2.554   0.440  0.7805  3.5965 -0.5541
   89MOL0     H11709   0.272   2.609   0.312 -0.2788 -0.3311  3.2418
   89MOL0     H11710   0.682   2.557   0.132  3.8227 -0.0425 -0.4702
   89MOL0     H11711   0.906   2.503   0.203  1.5605 -0.8749  1.6202
   89MOL0     H11712   1.202   2.465   0.598 -0.6881  0.4819 -1.5181
   89MOL0     H11713   1.442   2.501   0.637 -0.8040 -1.2081  0.9444
   89MOL0     H11714   1.666   2.412   0.624 -1.8898  1.0728 -0.0643
   89MOL0     H11715   1.685   2.588   0.598  2.7669  1.9711 -2.1178
   89MOL0     H11716   1.894   2.575   0.519 -0.5912  0.4950  1.4496
   89MOL0     H11717   1.863   2.432   0.424 -0.9199  2.1552 -0.5704
   89MOL0     H11718   1.878   2.282   0.625 -4.6806  1.8638 -0.8947
   89MOL0     H11719   1.900   2.418   0.731 -1.5886  0.3876 -0.3579
   89MOL0     H11720   2.093   2.327   0.508 -0.1126  1.3536 -1.2941
   89MOL0     H11721   2.115   2.472   0.599  2.6744 -1.2157 -1.4281
   89MOL0     H11722   2.106   2.320   0.807 -0.8531  1.5279 -0.6086
   89MOL0     H11723   2.254   2.326   0.703  0.5899 -0.4018 -2.0476
   89MOL0     H11724   2.163   2.129   0.580  0.8455 -0.5404  1.0572
   89MOL0     H11725   2.015   2.126   0.670  0.3749 -1.7776 -2.3972
   89MOL0     H11726   2.138   2.035   0.877  2.7898 -0.1432  1.0627
   89MOL0     H11727   2.177   1.936   0.740  1.2743  0.1962 -2.5109
   89MOL0     H11728   2.379   1.982   0.873  1.3809 -1.0144 -2.0532
   89MOL0     H11729   2.354   2.153   0.847 -0.9568 -0.1649 -0.9891
   89MOL0     H11730   1.501   2.433   0.219 -2.7086  1.8731 -1.8292
   89MOL0     H11731   1.257   2.389   0.189 -1.8153 -2.0211  1.8064
   89MOL0     H11732   0.735   2.349   0.577 -2.1569 -1.5233 -0.2745
   89MOL0     H11733   0.526   2.411   0.523  1.4760  0.6565  0.2013
   89MOL0     H11734   0.093   2.197   0.777 -0.2227  0.1695  0.3524
   89MOL0     H11735   0.275   2.228   0.621  1.2655 -0.6532 -2.4968
   89MOL0     H11736   0.532   2.168   0.310 -0.0857 -0.5240 -0.7411
   89MOL0     H11737   0.712   2.223   0.170 -1.2969 -0.7748 -2.2636
   89MOL0     H11738   0.986   1.919   0.079 -2.5141  0.1648 -0.4595
   89MOL0     H11739   1.079   1.960   0.218 -1.0530  1.0563  0.5591
   89MOL0     H11740   1.192   2.142   0.084 -1.7664  1.9636  0.7986
   89MOL0     H11741   1.203   1.983   0.000 -2.9232 -3.7198  2.5298
   89MOL0     H11742   0.988   2.200  -0.060  1.3172  1.0324 -0.7859
   89MOL0     H11743   0.982   2.036  -0.117 -1.8447  1.3362  0.9305
   89MOL0     H11744   1.200   2.084  -0.247  0.1817 -0.8464  0.0629
   89MOL0     H11745   1.079   2.199  -0.283  1.3963  0.3055 -1.0214
   89MOL0     H11746   1.309   2.476  -0.085 -1.1772  1.0011 -0.8388
   89MOL0     H11747   0.915   1.869   0.306  0.7797  1.3658  0.2027
   89MOL0     H11748   0.683   1.792   0.410 -1.7807 -0.3949 -2.0090
   90MOL0     O11749   1.396   8.382  10.274 -0.4062 -0.0288 -0.1813
   90MOL0     C11750   1.297   8.447  10.270 -0.5380 -0.0965  0.0794
   90MOL0     O11751   1.181   8.412  10.340  0.3263 -0.5513 -0.2810
   90MOL0     C11752   1.166   8.315  10.433 -0.0208 -0.2414  0.1758
   90MOL0     C11753   1.260   8.233  10.487 -0.4098 -0.6788 -1.0378
   90MOL0     C11754   1.224   8.146  10.598 -0.9338  0.2638 -0.3230
   90MOL0     C11755   1.090   8.122  10.627 -0.3696 -1.1465  0.3005
   90MOL0     O11756   1.044   8.034  10.723  0.2045  0.4970 -1.0234
   90MOL0     C11757   1.082   7.902  10.715  0.4050  0.5659  0.4060
   90MOL0     C11758   1.008   7.825  10.598 -0.0424 -0.0513  0.1164
   90MOL0     C11759   1.062   7.686  10.581  0.2839  0.8424  0.5851
   90MOL0     C11760   0.989   7.618  10.463  0.7771 -0.4394  0.2294
   90MOL0     C11761   1.046   7.483  10.421 -0.0612  0.0200 -0.2405
   90MOL0     C11762   1.048   7.373  10.533 -0.6036  0.0962  0.5383
   90MOL0     C11763   1.070   7.233  10.468  0.0686  0.7607  0.0167
   90MOL0     C11764   0.949   7.169  10.390 -0.9886  0.2582  0.2462
   90MOL0     N11765   0.817   7.195  10.441  0.0907  0.4901  0.4976
   90MOL0     C11766   0.738   7.302  10.405 -0.2096 -1.2487  0.6567
   90MOL0     C11767   0.613   7.279  10.454  0.2542 -0.3384  0.1983
   90MOL0     C11768   0.473   7.351  10.434 -0.7572  0.0759 -0.2178
   90MOL0     C11769   0.362   7.241  10.456 -1.2113 -0.2258 -0.4455
   90MOL0     C11770   0.228   7.299  10.449  0.6367 -0.0552 -0.5122
   90MOL0     C11771   0.187   7.363  10.311  0.5068 -0.3014 -0.2462
   90MOL0     O11772   0.163   7.509  10.314  0.2334 -0.2717 -0.5822
   90MOL0     C11773   0.039   7.566  10.340  1.3660 -0.3249 -0.1502
   90MOL0     C11774  -0.070   7.492  10.386 -0.2663 -0.9375  0.1888
   90MOL0     C11775  -0.192   7.555  10.392 -0.0238 -0.3531  0.4317
   90MOL0     C11776  -0.209   7.695  10.357  0.1597 -0.9683  0.2065
   90MOL0     C11777  -0.343   7.755  10.387  0.3196  0.2756 -0.4405
   90MOL0     O11778  -0.451   7.677  10.417 -0.4196  0.0708  0.0497
   90MOL0     C11779  -0.577   7.717  10.454  1.4968  0.5367 -0.1737
   90MOL0     C11780  -0.655   7.818  10.400  0.4504  0.8967  0.2759
   90MOL0     C11781  -0.788   7.835  10.446  0.1096  0.0396  0.2802
   90MOL0     C11782  -0.846   7.754  10.547 -0.0957 -0.3223  0.1783
   90MOL0     O11783  -0.976   7.769  10.587  0.6163  0.2233 -0.0411
   90MOL0     C11784  -1.065   7.884  10.568 -0.3015  0.7059  0.4897
   90MOL0     C11785  -1.137   7.881  10.431 -0.0437  0.6875 -0.5062
   90MOL0     C11786  -1.285   7.910  10.433  0.5563  0.3616 -0.5402
   90MOL0     C11787  -1.364   7.779  10.459 -0.5020 -0.5678 -0.0215
   90MOL0     C11788  -1.521   7.820  10.462 -0.3439 -0.7070 -0.5598
   90MOL0     C11789  -1.574   7.865  10.596  0.8412 -0.7530  0.3699
   90MOL0     C11790  -1.706   7.961  10.573 -0.2242  0.5854  0.4320
   90MOL0     C11791  -1.833   7.874  10.531 -0.9906 -0.2178  0.4164
   90MOL0    Cl11792  -1.974   7.966  10.557 -0.1317  0.0291 -0.3096
   90MOL0     C11793  -0.773   7.656  10.595  1.0741  0.7452  0.0308
   90MOL0     C11794  -0.639   7.639  10.555 -0.6585 -0.7585 -0.5601
   90MOL0     O11795  -0.347   7.875  10.373  0.6414  0.5276  0.1686
   90MOL0     C11796  -0.091   7.773  10.326  0.1661  0.7687  0.7503
   90MOL0     C11797   0.030   7.702  10.317 -0.1865 -0.8939 -0.0268
   90MOL0     N11798   0.622   7.156  10.511 -0.9202  0.0925 -1.0319
   90MOL0     N11799   0.742   7.102  10.505  0.0399 -0.9611  0.2578
   90MOL0     C11800   0.996   8.192  10.553  0.4995  0.1290 -0.1578
   90MOL0     C11801   1.034   8.292  10.461  0.2724  0.3896 -0.3376
   90MOL0     C11802   1.284   8.570  10.178 -0.8403  0.0985  0.4510
   90MOL0     C11803   1.162   8.608  10.127 -0.2258 -0.0523  0.1727
   90MOL0     C11804   1.146   8.718  10.039  0.2391  0.9001 -0.0459
   90MOL0     C11805   1.258   8.786   9.999 -0.0438 -1.1034  0.0876
   90MOL0     O11806   1.254   8.882   9.900 -0.4969 -0.4640 -0.3331
   90MOL0     C11807   1.176   8.866   9.783  0.1212  0.0940 -0.2300
   90MOL0     C11808   1.185   8.980   9.684 -1.4566 -0.0523  0.7362
   90MOL0     C11809   1.331   8.996   9.616 -0.2536  0.5880 -0.8376
   90MOL0     C11810   1.347   8.921   9.485 -0.3441 -0.0662  0.3312
   90MOL0     C11811   1.290   8.993   9.376  0.4208 -0.6920 -0.2277
   90MOL0     C11812   1.240   9.049   9.279 -0.2652 -0.1912  0.2067
   90MOL0     C11813   1.380   8.756  10.058  0.2409 -0.5773  0.3588
   90MOL0     C11814   1.392   8.651  10.152 -0.4780 -0.4431  1.0143
   90MOL0     H11815   1.367   8.248  10.476 -0.3402 -0.9053 -0.7232
   90MOL0     H11816   1.312   8.111  10.653  0.1521  4.0357  0.6653
   90MOL0     H11817   1.056   7.849  10.807 -0.4694  2.2560  1.1861
   90MOL0     H11818   1.189   7.892  10.699  0.1049 -2.7598 -0.2185
   90MOL0     H11819   1.025   7.884  10.507 -1.1037  0.1931  0.0596
   90MOL0     H11820   0.901   7.830  10.622 -1.2181  0.2903 -4.3469
   90MOL0     H11821   1.047   7.633  10.676 -0.4754 -2.7583 -1.3467
   90MOL0     H11822   1.169   7.683  10.560  0.0599  0.3040 -0.6145
   90MOL0     H11823   0.890   7.597  10.503  1.5579  1.5295  3.6150
   90MOL0     H11824   0.988   7.687  10.379  3.0129 -1.5648 -0.8279
   90MOL0     H11825   1.143   7.491  10.371  0.6259 -1.0559  0.8823
   90MOL0     H11826   0.982   7.446  10.340  0.0437 -2.0067  0.5357
   90MOL0     H11827   0.953   7.367  10.588 -4.0858  0.4646 -4.6504
   90MOL0     H11828   1.133   7.409  10.590 -1.0185  1.0231  0.5895
   90MOL0     H11829   1.165   7.224  10.414 -0.3049 -1.8391 -0.3194
   90MOL0     H11830   1.092   7.162  10.548 -0.3071  2.0764  1.3206
   90MOL0     H11831   0.971   7.062  10.387 -0.1594  0.3200  2.4492
   90MOL0     H11832   0.947   7.216  10.291 -0.9648 -1.1989 -0.4798
   90MOL0     H11833   0.773   7.383  10.342 -0.4311 -3.3689 -2.3963
   90MOL0     H11834   0.478   7.392  10.332 -0.9913 -2.1675 -1.1990
   90MOL0     H11835   0.460   7.423  10.515 -1.9593 -0.5038  0.1277
   90MOL0     H11836   0.386   7.192  10.552  0.6987  1.6911  0.1416
   90MOL0     H11837   0.359   7.170  10.373 -0.3639  0.1942 -0.8529
   90MOL0     H11838   0.161   7.215  10.471  0.1330  1.0641  2.8103
   90MOL0     H11839   0.217   7.381  10.520 -0.5042 -0.7190  0.0980
   90MOL0     H11840   0.092   7.311  10.294  1.0052 -2.7592  3.3550
   90MOL0     H11841   0.262   7.332  10.239  3.3593  0.7941  2.0403
   90MOL0     H11842  -0.075   7.384  10.396 -2.0988 -0.7713  1.4166
   90MOL0     H11843  -0.273   7.485  10.407 -1.3612  0.1281 -3.2740
   90MOL0     H11844  -0.608   7.873  10.319  0.0894  1.0689  0.1835
   90MOL0     H11845  -0.846   7.913  10.397  0.1115 -0.1990 -0.1098
   90MOL0     H11846  -1.018   7.981  10.588 -0.7809  1.6127 -2.2875
   90MOL0     H11847  -1.145   7.861  10.640 -0.2506 -2.0908 -0.2544
   90MOL0     H11848  -1.115   7.788  10.378  2.7610  1.1711 -0.3733
   90MOL0     H11849  -1.085   7.956  10.371  3.3671 -0.6940  0.4763
   90MOL0     H11850  -1.321   7.935  10.333 -2.6504 -0.7175  0.2295
   90MOL0     H11851  -1.302   7.998  10.496  2.1294  0.6057 -0.4274
   90MOL0     H11852  -1.346   7.697  10.389 -1.0276  1.5364 -2.7861
   90MOL0     H11853  -1.344   7.732  10.556 -2.0654  1.4503  1.3668
   90MOL0     H11854  -1.587   7.739  10.430 -4.8349  3.1180 -2.0965
   90MOL0     H11855  -1.524   7.893  10.381  4.4427 -0.3943 -0.7707
   90MOL0     H11856  -1.503   7.928  10.651 -0.6856  0.7090  0.7620
   90MOL0     H11857  -1.612   7.780  10.653 -4.0582  0.0482 -1.2268
   90MOL0     H11858  -1.733   8.017  10.663 -1.0723  0.3556  0.3259
   90MOL0     H11859  -1.681   8.023  10.486 -3.9197 -1.0595 -2.0278
   90MOL0     H11860  -1.844   7.787  10.595  0.4413 -1.8027 -1.3803
   90MOL0     H11861  -1.827   7.844  10.426 -0.0219  3.1793 -0.6390
   90MOL0     H11862  -0.812   7.591  10.673  1.9199  0.9116  0.6021
   90MOL0     H11863  -0.581   7.557  10.595 -0.5999 -1.6033 -2.2856
   90MOL0     H11864  -0.097   7.876  10.291  2.3214  1.0950  1.2248
   90MOL0     H11865   0.118   7.757  10.287 -0.7640  0.4892  0.7078
   90MOL0     H11866   0.892   8.176  10.577  0.2692 -1.3186 -1.9016
   90MOL0     H11867   0.948   8.341  10.415 -0.2545 -0.2064 -0.0142
   90MOL0     H11868   1.071   8.556  10.154 -2.1611  2.1060 -1.7765
   90MOL0     H11869   1.049   8.743   9.997 -0.2011 -3.8818 -2.5436
   90MOL0     H11870   1.073   8.860   9.820  0.7610 -0.1809  1.6221
   90MOL0     H11871   1.202   8.770   9.737 -2.7600  0.0245 -1.9906
   90MOL0     H11872   1.099   8.961   9.618 -1.7074 -5.5413  2.1270
   90MOL0     H11873   1.178   9.068   9.749 -1.3662 -0.8098  1.7914
   90MOL0     H11874   1.413   8.966   9.682 -2.0578 -0.3422  1.1519
   90MOL0     H11875   1.355   9.100   9.595 -2.4308  1.3178 -0.0063
   90MOL0     H11876   1.452   8.896   9.470 -1.3138 -3.9582 -1.0546
   90MOL0     H11877   1.300   8.823   9.497  1.7087 -1.2655 -0.7873
   90MOL0     H11878   1.186   9.097   9.200 -1.0042 -0.0018  0.8013
   90MOL0     H11879   1.471   8.807  10.029 -0.5571  1.1036  0.7177
   90MOL0     H11880   1.492   8.634  10.191  1.8472  2.8762 -2.6942
   91MOL0     O11881   2.578   7.238   2.749 -0.0253 -0.7852  0.2072
   91MOL0     C11882   2.473   7.253   2.677 -1.0732 -0.5435  0.1331
   91MOL0     O11883   2.475   7.286   2.542  0.2097 -0.1536 -0.3170
   91MOL0     C11884   2.581   7.328   2.471  0.2625  0.2159 -0.1859
   91MOL0     C11885   2.714   7.295   2.491  0.3672 -0.4118 -0.2873
   91MOL0     C11886   2.807   7.367   2.415  0.3039  0.1511 -0.7354
   91MOL0     C11887   2.775   7.467   2.321 -0.6911  0.4585  0.1210
   91MOL0     O11888   2.861   7.547   2.244 -0.9048 -0.5817  0.1085
   91MOL0     C11889   3.001   7.532   2.245  0.1131 -0.3744  0.4720
   91MOL0     C11890   3.053   7.634   2.143 -0.1462  0.5538  0.1436
   91MOL0     C11891   3.200   7.654   2.150 -0.0648  0.1420 -0.2380
   91MOL0     C11892   3.245   7.753   2.039  0.0194  0.6964  0.8189
   91MOL0     C11893   3.386   7.806   2.061  0.1058 -0.5570 -0.2509
   91MOL0     C11894   3.422   7.888   1.936 -0.3669 -0.4661 -0.0713
   91MOL0     C11895   3.560   7.939   1.937 -0.2950  0.0469  0.4965
   91MOL0     C11896   3.647   7.832   1.858  0.2686  0.1755 -0.2591
   91MOL0     N11897   3.781   7.880   1.868 -0.0385 -0.1755  0.3289
   91MOL0     C11898   3.868   7.876   1.974  0.9284  0.3290  1.3056
   91MOL0     C11899   3.985   7.928   1.934 -0.5240  0.3378 -0.4329
   91MOL0     C11900   4.095   7.937   2.034  0.6061  0.9636 -0.3407
   91MOL0     C11901   4.071   8.042   2.140 -0.2418 -0.0319 -1.1778
   91MOL0     C11902   3.938   8.134   2.144  0.0310  0.0664 -0.7385
   91MOL0     C11903   3.955   8.261   2.238  0.0319  0.7556  1.5497
   91MOL0     O11904   4.003   8.236   2.371  0.4136 -0.0521 -0.1838
   91MOL0     C11905   3.916   8.192   2.461 -0.5474 -0.2108 -0.4953
   91MOL0     C11906   3.774   8.167   2.446  0.3270  0.3354 -0.2052
   91MOL0     C11907   3.698   8.115   2.552 -1.0216  0.4257  0.8097
   91MOL0     C11908   3.758   8.088   2.673 -0.3848  0.2727  0.4456
   91MOL0     C11909   3.682   8.011   2.779 -0.1298  0.1323  0.5409
   91MOL0     O11910   3.579   7.934   2.734 -0.4870  0.3427  0.5965
   91MOL0     C11911   3.500   7.873   2.823  0.6589  0.6316 -0.2233
   91MOL0     C11912   3.419   7.951   2.911 -0.0290 -0.8573  0.3098
   91MOL0     C11913   3.328   7.887   3.005  0.3901 -0.4697 -0.1538
   91MOL0     C11914   3.318   7.746   3.005  0.6877  1.1612 -0.4024
   91MOL0     O11915   3.226   7.678   3.088  0.5009  0.5747 -0.4684
   91MOL0     C11916   3.255   7.540   3.132  0.3704 -0.0500 -0.7665
   91MOL0     C11917   3.167   7.516   3.254 -0.1440 -1.4041 -0.7233
   91MOL0     C11918   3.211   7.410   3.352  0.9225  0.4014 -0.1048
   91MOL0     C11919   3.347   7.437   3.429 -0.2633 -0.3341  0.2528
   91MOL0     C11920   3.340   7.346   3.551  0.2174  0.8860  0.6787
   91MOL0     C11921   3.469   7.337   3.635  0.5088  0.2697  0.8017
   91MOL0     C11922   3.589   7.292   3.561  0.3251  0.2744  0.0811
   91MOL0     C11923   3.577   7.170   3.480 -0.3638 -0.0494 -0.9916
   91MOL0    Cl11924   3.748   7.100   3.435  0.0963 -0.2704  0.1177
   91MOL0     C11925   3.391   7.672   2.905  0.5029  0.1308 -0.1130
   91MOL0     C11926   3.482   7.740   2.821 -0.4185 -0.6597 -0.5282
   91MOL0     O11927   3.708   8.031   2.897  0.1482 -0.0264 -0.5098
   91MOL0     C11928   3.890   8.128   2.704 -0.4520  0.1063  0.1299
   91MOL0     C11929   3.971   8.169   2.589  0.4091  0.1460 -0.0190
   91MOL0     N11930   3.985   7.957   1.800  0.2516 -0.9610 -0.1939
   91MOL0     N11931   3.858   7.922   1.767  0.2861  0.2515  0.3178
   91MOL0     C11932   2.642   7.498   2.304 -0.0188 -0.0103  0.0906
   91MOL0     C11933   2.549   7.428   2.379  0.5637 -0.3462 -0.0650
   91MOL0     C11934   2.349   7.208   2.727  0.4529 -0.7137 -0.0809
   91MOL0     C11935   2.255   7.119   2.664  0.1997  0.1554 -0.3576
   91MOL0     C11936   2.134   7.089   2.730 -0.1994 -0.2696 -1.0250
   91MOL0     C11937   2.106   7.149   2.860 -0.3121 -0.3929 -0.4409
   91MOL0     O11938   1.981   7.139   2.901 -0.1256  0.2976  0.2459
   91MOL0     C11939   1.953   7.035   3.002 -0.3000  0.0171 -0.2093
   91MOL0     C11940   1.803   7.018   3.028 -0.2070 -0.0747  0.2765
   91MOL0     C11941   1.721   6.970   2.902 -0.9380 -1.1632 -0.0629
   91MOL0     C11942   1.571   6.946   2.928  0.0028 -0.3567 -0.0178
   91MOL0     C11943   1.562   6.850   3.036 -0.9276 -0.1738  0.2852
   91MOL0     C11944   1.576   6.754   3.120  0.3020 -0.6362  0.3148
   91MOL0     C11945   2.202   7.227   2.922 -0.2800  0.2185  0.0010
   91MOL0     C11946   2.320   7.265   2.856 -0.0612  0.2563 -0.9581
   91MOL0     H11947   2.736   7.213   2.558 -0.3648  1.1511  1.9809
   91MOL0     H11948   2.911   7.346   2.438  0.6816 -0.6622 -2.9199
   91MOL0     H11949   3.023   7.431   2.209 -0.4609 -0.4257  0.2665
   91MOL0     H11950   3.048   7.563   2.339 -0.3710  1.0377  0.2636
   91MOL0     H11951   3.012   7.734   2.163  2.4900  1.8270 -0.4183
   91MOL0     H11952   3.004   7.606   2.050 -3.0119 -1.7990  2.1635
   91MOL0     H11953   3.244   7.555   2.140 -4.5881 -1.8923 -3.6853
   91MOL0     H11954   3.224   7.695   2.248 -0.3638 -2.7044  1.1176
   91MOL0     H11955   3.242   7.702   1.942  0.9212  1.1134  0.5544
   91MOL0     H11956   3.175   7.836   2.025 -0.3364  0.4182  0.9460
   91MOL0     H11957   3.453   7.721   2.078  1.1830 -0.0256 -1.6658
   91MOL0     H11958   3.384   7.873   2.148  2.2451  2.3941 -2.2430
   91MOL0     H11959   3.356   7.975   1.940  1.1491  0.8339 -1.5833
   91MOL0     H11960   3.397   7.845   1.838  2.7975 -2.9460  0.0584
   91MOL0     H11961   3.566   8.037   1.889 -0.5877 -0.3131 -0.2883
   91MOL0     H11962   3.586   7.946   2.044 -0.2222  0.1012  0.4756
   91MOL0     H11963   3.612   7.819   1.755 -1.1298  3.5785 -0.3424
   91MOL0     H11964   3.629   7.740   1.914 -3.1611  2.2180  2.4215
   91MOL0     H11965   3.842   7.830   2.068  0.7602 -0.5555  0.8429
   91MOL0     H11966   4.186   7.969   1.982  1.0886  2.6000  1.3595
   91MOL0     H11967   4.113   7.837   2.074  2.0590  0.6641 -1.6752
   91MOL0     H11968   4.154   8.109   2.162 -0.4227 -0.4568  0.9995
   91MOL0     H11969   4.062   7.974   2.225 -1.2898  0.5682 -0.8003
   91MOL0     H11970   3.921   8.174   2.044  3.9214 -1.4761 -2.2362
   91MOL0     H11971   3.855   8.083   2.194  0.4210  0.9269  0.8393
   91MOL0     H11972   3.855   8.304   2.246 -0.5300 -0.6224  2.2122
   91MOL0     H11973   4.022   8.331   2.187 -0.3687 -0.3288 -0.5788
   91MOL0     H11974   3.720   8.183   2.353  0.5511  0.4879 -0.3076
   91MOL0     H11975   3.591   8.108   2.536 -0.8969  1.5044 -0.6425
   91MOL0     H11976   3.432   8.059   2.909  5.4130 -1.2757 -0.4578
   91MOL0     H11977   3.266   7.955   3.063  0.3536  0.6529 -1.4585
   91MOL0     H11978   3.362   7.532   3.152  0.0724  2.1710  2.3019
   91MOL0     H11979   3.233   7.470   3.050 -0.7190  0.4214 -0.9044
   91MOL0     H11980   3.061   7.498   3.234 -0.8110 -0.9732  1.9887
   91MOL0     H11981   3.177   7.610   3.309  2.1415 -0.4921 -2.5257
   91MOL0     H11982   3.220   7.318   3.294 -1.4302 -0.2817  0.5146
   91MOL0     H11983   3.128   7.397   3.422 -1.5100  1.9616 -2.5417
   91MOL0     H11984   3.437   7.409   3.374 -0.8880  2.1388 -2.2306
   91MOL0     H11985   3.350   7.542   3.458  0.2447 -1.0280  2.9894
   91MOL0     H11986   3.311   7.248   3.512 -0.2428  1.9854 -1.9311
   91MOL0     H11987   3.270   7.389   3.622  1.9526  1.8411  1.9025
   91MOL0     H11988   3.458   7.273   3.723  2.3955 -0.7633  0.3433
   91MOL0     H11989   3.493   7.438   3.670 -0.8084  1.6094 -1.8625
   91MOL0     H11990   3.627   7.381   3.511  1.2516  0.9995  1.9904
   91MOL0     H11991   3.669   7.257   3.627  0.5241 -2.2872 -1.3615
   91MOL0     H11992   3.526   7.200   3.388 -0.5330  2.0031 -0.2776
   91MOL0     H11993   3.524   7.095   3.539  0.4619  0.1307  0.0160
   91MOL0     H11994   3.390   7.565   2.889  2.2729 -0.0533  0.8100
   91MOL0     H11995   3.524   7.679   2.742 -1.5858 -2.1195 -0.0727
   91MOL0     H11996   3.942   8.134   2.799 -1.5775  1.3152  0.6970
   91MOL0     H11997   4.078   8.184   2.597  0.1480  1.9486  0.4973
   91MOL0     H11998   2.605   7.582   2.246 -1.5611 -0.1575  0.8059
   91MOL0     H11999   2.444   7.448   2.360 -0.0894 -3.5022 -0.3491
   91MOL0     H12000   2.267   7.081   2.563  1.0750  1.6746 -0.8533
   91MOL0     H12001   2.050   7.045   2.677 -2.1708  0.6052  1.1907
   91MOL0     H12002   2.011   7.058   3.092 -1.0850  2.8964 -0.3229
   91MOL0     H12003   1.983   6.934   2.972 -1.0506 -0.2865  0.0545
   91MOL0     H12004   1.789   6.946   3.109  2.0397 -2.1134 -1.0226
   91MOL0     H12005   1.772   7.115   3.067 -0.2361  0.0602 -0.0781
   91MOL0     H12006   1.774   6.888   2.853 -0.4499 -1.3302  0.7242
   91MOL0     H12007   1.713   7.049   2.827 -1.2080 -2.4250 -1.4207
   91MOL0     H12008   1.519   7.038   2.957 -3.5217 -1.6235 -1.7617
   91MOL0     H12009   1.522   6.917   2.835 -0.5593  0.9667 -0.1580
   91MOL0     H12010   1.589   6.672   3.188  0.5344  0.2688  1.3909
   91MOL0     H12011   2.190   7.275   3.018  1.6766  1.1873 -0.1909
   91MOL0     H12012   2.380   7.348   2.894 -0.2154  0.2867 -0.7799
   92MOL0     O12013   4.783   6.038   5.719 -0.9276 -0.6425  0.9846
   92MOL0     C12014   4.878   6.028   5.646  0.5607  0.0233  0.3256
   92MOL0     O12015   4.880   6.062   5.508 -0.2206  1.2278 -0.2267
   92MOL0     C12016   4.794   6.142   5.447  0.3130  0.3297  1.3531
   92MOL0     C12017   4.783   6.125   5.305  0.7483 -0.6974 -0.5562
   92MOL0     C12018   4.722   6.219   5.235 -0.9481  0.5335  0.2807
   92MOL0     C12019   4.683   6.347   5.287  0.6271 -0.1214  0.3167
   92MOL0     O12020   4.634   6.440   5.195 -0.5529  0.1332  0.1515
   92MOL0     C12021   4.672   6.576   5.238  0.5190 -0.4037  0.5453
   92MOL0     C12022   4.579   6.679   5.170  0.3104 -1.1529  0.0985
   92MOL0     C12023   4.427   6.653   5.178 -0.1396  0.7241  0.2994
   92MOL0     C12024   4.362   6.671   5.314  0.1415 -0.0524 -0.2421
   92MOL0     C12025   4.269   6.557   5.367 -0.0860  0.6894 -0.6542
   92MOL0     C12026   4.140   6.554   5.284 -0.9532  0.1406 -0.5308
   92MOL0     C12027   4.025   6.503   5.372  0.1586  0.5914 -0.0990
   92MOL0     C12028   3.910   6.590   5.386 -0.6037  0.4653  0.2623
   92MOL0     N12029   3.798   6.519   5.451 -0.4173 -0.3636  0.1887
   92MOL0     C12030   3.717   6.422   5.391 -0.4558 -0.0246 -0.3516
   92MOL0     C12031   3.620   6.395   5.482 -0.7241 -0.6165 -0.5660
   92MOL0     C12032   3.516   6.298   5.448  0.0144 -0.6558 -0.3553
   92MOL0     C12033   3.383   6.373   5.394  0.3991 -0.7516  0.2245
   92MOL0     C12034   3.293   6.262   5.338 -0.7629  0.0636  0.1386
   92MOL0     C12035   3.168   6.325   5.294 -0.8720  1.0390  0.6746
   92MOL0     O12036   3.090   6.217   5.237  0.4997  0.2439 -0.2144
   92MOL0     C12037   2.962   6.210   5.270 -0.4583 -0.3084 -0.3695
   92MOL0     C12038   2.882   6.322   5.256 -0.1073 -0.2910 -0.0852
   92MOL0     C12039   2.747   6.316   5.269  0.7486  0.2001  0.6870
   92MOL0     C12040   2.680   6.197   5.300 -0.1334 -0.3362 -1.4759
   92MOL0     C12041   2.527   6.184   5.318 -0.8357 -0.2051  0.0508
   92MOL0     O12042   2.475   6.076   5.376 -0.5184  0.1562 -0.0991
   92MOL0     C12043   2.339   6.060   5.381 -0.0171 -0.7486 -0.4743
   92MOL0     C12044   2.292   5.963   5.471  0.2836  0.7685 -0.1657
   92MOL0     C12045   2.160   5.917   5.474 -0.6932  0.3049 -0.0042
   92MOL0     C12046   2.059   5.970   5.395 -0.6877 -0.9507 -0.2629
   92MOL0     O12047   1.931   5.935   5.388 -0.3780  0.3478  0.3529
   92MOL0     C12048   1.882   5.823   5.460  0.2494  0.3721 -0.1743
   92MOL0     C12049   1.750   5.774   5.403 -0.3748 -0.0697  0.1843
   92MOL0     C12050   1.657   5.881   5.361 -0.6377  0.6565 -0.3589
   92MOL0     C12051   1.506   5.842   5.359  0.1353  0.2029  0.4772
   92MOL0     C12052   1.439   5.792   5.491 -0.0562  0.0087  1.1141
   92MOL0     C12053   1.291   5.784   5.469  0.3906  0.0339 -0.4225
   92MOL0     C12054   1.222   5.713   5.590 -0.1362 -0.1932  0.0483
   92MOL0     C12055   1.067   5.747   5.587 -0.2146 -0.8896 -0.1990
   92MOL0    Cl12056   1.000   5.680   5.441 -0.0881  0.4204  0.2157
   92MOL0     C12057   2.105   6.069   5.307 -0.4597  0.2214 -0.2641
   92MOL0     C12058   2.237   6.109   5.297 -0.8212 -0.0685 -1.1862
   92MOL0     O12059   2.462   6.286   5.271 -0.3460  0.1395 -0.2392
   92MOL0     C12060   2.763   6.078   5.317 -0.1215 -0.1992 -0.1084
   92MOL0     C12061   2.901   6.084   5.300  0.3742 -0.5909 -0.3141
   92MOL0     N12062   3.637   6.483   5.589  0.0603 -1.4233 -0.2972
   92MOL0     N12063   3.735   6.560   5.567 -0.4315 -0.3280 -0.2727
   92MOL0     C12064   4.691   6.363   5.431 -0.0591  0.6894  0.3765
   92MOL0     C12065   4.745   6.254   5.513 -0.4198 -0.7982  0.6635
   92MOL0     C12066   5.000   5.971   5.705  0.2918 -0.9800 -0.0071
   92MOL0     C12067   5.104   5.925   5.619 -0.3258 -0.9029  0.5487
   92MOL0     C12068   5.223   5.881   5.680  0.0791  0.2315 -0.4539
   92MOL0     C12069   5.242   5.876   5.817 -0.0685  1.0208  1.0460
   92MOL0     O12070   5.353   5.831   5.867 -0.3396 -0.2750 -0.3312
   92MOL0     C12071   5.369   5.700   5.857  0.4326  1.4133  0.0795
   92MOL0     C12072   5.488   5.653   5.945  0.1058 -0.1283  0.7335
   92MOL0     C12073   5.450   5.657   6.088  0.4866 -0.1164  0.9329
   92MOL0     C12074   5.573   5.623   6.162  0.3128 -0.4269 -0.0839
   92MOL0     C12075   5.548   5.634   6.308 -0.7370  0.4091 -0.2991
   92MOL0     C12076   5.535   5.631   6.425 -0.4900  0.1763  0.4811
   92MOL0     C12077   5.151   5.929   5.899  0.5698 -0.1707 -0.1189
   92MOL0     C12078   5.027   5.979   5.849 -0.2975  0.8371  0.3602
   92MOL0     H12079   4.820   6.041   5.246 -1.5568 -1.5754 -0.8371
   92MOL0     H12080   4.706   6.197   5.130  0.1877 -0.3757  0.2767
   92MOL0     H12081   4.776   6.609   5.222  0.0597  2.9840  3.2132
   92MOL0     H12082   4.653   6.596   5.344  0.5629 -3.7826  1.2814
   92MOL0     H12083   4.619   6.682   5.068 -0.4391 -2.3302 -0.2539
   92MOL0     H12084   4.595   6.780   5.207 -3.2721 -1.2758  2.5008
   92MOL0     H12085   4.402   6.549   5.153 -2.1359  1.2348 -0.0115
   92MOL0     H12086   4.379   6.702   5.092  0.5849 -1.9098 -1.7599
   92MOL0     H12087   4.444   6.679   5.386 -2.4716  3.1436  2.7727
   92MOL0     H12088   4.312   6.768   5.320  2.5615  1.8349 -4.8953
   92MOL0     H12089   4.254   6.577   5.474  1.2748 -1.4507  0.0029
   92MOL0     H12090   4.312   6.457   5.360  0.8479  1.1896 -2.8044
   92MOL0     H12091   4.142   6.493   5.194 -1.3970 -1.2659  0.3833
   92MOL0     H12092   4.115   6.655   5.249 -1.1935 -0.1982 -1.3545
   92MOL0     H12093   3.988   6.413   5.322  3.7584 -1.9254  1.3376
   92MOL0     H12094   4.051   6.475   5.475  0.8090  2.7382  0.3790
   92MOL0     H12095   3.887   6.618   5.283 -2.1685 -0.6500  0.2624
   92MOL0     H12096   3.934   6.675   5.450  2.8368 -0.4233  0.3525
   92MOL0     H12097   3.733   6.369   5.298 -0.8599 -2.7421  1.0419
   92MOL0     H12098   3.497   6.245   5.542  0.3144  0.9957  0.6880
   92MOL0     H12099   3.543   6.224   5.372 -0.6719 -0.7488 -0.5097
   92MOL0     H12100   3.417   6.445   5.319 -1.9348 -2.3286 -2.5378
   92MOL0     H12101   3.333   6.443   5.461  1.8657  0.3162  0.2455
   92MOL0     H12102   3.346   6.213   5.256  0.0596 -0.5743  1.0183
   92MOL0     H12103   3.268   6.200   5.425  0.8836  2.3252  2.3962
   92MOL0     H12104   3.208   6.391   5.217 -2.3665  2.9683  1.4564
   92MOL0     H12105   3.115   6.386   5.367 -0.1317  0.9232  1.3242
   92MOL0     H12106   2.932   6.417   5.242 -2.3665  0.9799  0.1439
   92MOL0     H12107   2.686   6.406   5.269  2.2375  1.2545 -0.2845
   92MOL0     H12108   2.361   5.911   5.537 -2.8966 -2.0816  1.2193
   92MOL0     H12109   2.150   5.834   5.543 -0.1545 -2.4569 -2.9851
   92MOL0     H12110   1.855   5.850   5.562  0.4539 -2.5160  0.7428
   92MOL0     H12111   1.958   5.744   5.462  0.1475  0.2680  2.0873
   92MOL0     H12112   1.700   5.708   5.473  0.2108 -1.1049 -0.3527
   92MOL0     H12113   1.766   5.708   5.317 -1.2023  2.0961 -1.7387
   92MOL0     H12114   1.677   5.915   5.259 -3.1625 -1.1589 -1.5826
   92MOL0     H12115   1.673   5.959   5.436  2.5655 -0.1440 -0.0621
   92MOL0     H12116   1.455   5.927   5.313 -1.8971 -0.6105  1.1306
   92MOL0     H12117   1.492   5.763   5.284  1.4174  0.3342  0.0704
   92MOL0     H12118   1.454   5.873   5.564  1.8926  1.0483 -0.3493
   92MOL0     H12119   1.469   5.696   5.535 -2.4542 -1.0833  0.4975
   92MOL0     H12120   1.267   5.733   5.375 -0.2907  0.3849 -0.4402
   92MOL0     H12121   1.265   5.890   5.471  0.5377  0.0653  0.5237
   92MOL0     H12122   1.253   5.608   5.589  0.8704  0.0753  1.2408
   92MOL0     H12123   1.256   5.753   5.686 -2.3908  1.4575  0.2463
   92MOL0     H12124   1.035   5.851   5.600 -2.0228 -0.9781 -2.9541
   92MOL0     H12125   1.014   5.688   5.661 -1.6131  0.1778 -0.3076
   92MOL0     H12126   2.047   6.093   5.219  3.7405  1.2574 -3.0712
   92MOL0     H12127   2.259   6.179   5.217  1.2820  2.1983  1.1587
   92MOL0     H12128   2.723   5.978   5.333 -0.1870 -0.3088 -0.9431
   92MOL0     H12129   2.967   5.998   5.297 -1.3126 -2.1082  2.2010
   92MOL0     H12130   4.648   6.451   5.477 -0.6505  1.0908 -0.9028
   92MOL0     H12131   4.741   6.264   5.621 -0.8376 -1.1464  0.6822
   92MOL0     H12132   5.109   5.918   5.510  0.5587 -1.4619  0.6134
   92MOL0     H12133   5.302   5.844   5.616  0.8453  0.4625  0.3462
   92MOL0     H12134   5.387   5.667   5.755  0.9054 -0.1931  0.6552
   92MOL0     H12135   5.288   5.636   5.894  1.7417 -0.0618  0.5449
   92MOL0     H12136   5.503   5.547   5.927  0.5803 -0.6507  3.6538
   92MOL0     H12137   5.576   5.712   5.919  0.9022 -2.4994 -2.4306
   92MOL0     H12138   5.363   5.594   6.107 -0.9629  1.1711 -1.0392
   92MOL0     H12139   5.425   5.758   6.122  3.4070  1.4962 -1.2464
   92MOL0     H12140   5.600   5.519   6.141 -1.9536 -0.6180 -2.5884
   92MOL0     H12141   5.654   5.691   6.131  0.9915 -0.4397  1.5435
   92MOL0     H12142   5.514   5.637   6.530 -2.2425  0.0054  0.1731
   92MOL0     H12143   5.171   5.935   6.006 -2.5714  1.5043  0.5140
   92MOL0     H12144   4.954   6.019   5.919  0.6877 -0.2667  2.1020
   93MOL0     O12145   0.638   5.273   1.378 -0.0656 -0.4802  0.5503
   93MOL0     C12146   0.634   5.371   1.456 -0.0309  0.5265 -0.3512
   93MOL0     O12147   0.533   5.412   1.535 -0.3363 -0.2363 -0.0007
   93MOL0     C12148   0.398   5.372   1.529 -0.1316 -0.3659 -0.6470
   93MOL0     C12149   0.312   5.432   1.623  0.7621  0.2988 -0.2411
   93MOL0     C12150   0.173   5.403   1.614 -0.2632  0.1621  0.4065
   93MOL0     C12151   0.126   5.296   1.533  0.1120  0.2214 -0.4821
   93MOL0     O12152  -0.008   5.263   1.544  0.3725 -0.1326  0.3572
   93MOL0     C12153  -0.038   5.124   1.514 -0.8613 -0.2042 -0.5466
   93MOL0     C12154  -0.189   5.135   1.515 -0.1896  0.7865  1.2194
   93MOL0     C12155  -0.251   5.006   1.468 -0.6661 -0.1252  0.3172
   93MOL0     C12156  -0.401   5.017   1.432 -0.3416 -0.5968  0.2834
   93MOL0     C12157  -0.432   4.943   1.297 -0.5037 -0.0212 -0.3914
   93MOL0     C12158  -0.574   4.934   1.255  0.2204 -0.6272 -0.2104
   93MOL0     C12159  -0.655   5.066   1.281 -0.2865 -0.0542 -0.2839
   93MOL0     C12160  -0.781   5.057   1.192  0.2050  0.6429  0.1925
   93MOL0     N12161  -0.893   5.149   1.228  0.1049 -0.0303 -0.9966
   93MOL0     C12162  -0.903   5.279   1.184 -0.9362  0.0667 -0.4032
   93MOL0     C12163  -1.010   5.328   1.239  0.2511 -0.0341  0.6324
   93MOL0     C12164  -1.071   5.464   1.200  0.0873  1.4382 -0.5697
   93MOL0     C12165  -0.995   5.577   1.276 -0.0562  1.1294 -0.1956
   93MOL0     C12166  -1.063   5.711   1.294 -1.2692  0.0588 -0.7594
   93MOL0     C12167  -0.967   5.815   1.357 -0.0111 -0.0045  0.1218
   93MOL0     O12168  -0.853   5.834   1.276 -0.7398 -1.0744  0.7978
   93MOL0     C12169  -0.801   5.964   1.252 -0.1169  0.1992 -0.4977
   93MOL0     C12170  -0.705   5.993   1.152  1.1421  0.7237 -0.1834
   93MOL0     C12171  -0.645   6.114   1.140 -0.6418 -0.0886 -0.1737
   93MOL0     C12172  -0.656   6.211   1.237  0.3350 -0.6508 -0.0321
   93MOL0     C12173  -0.600   6.346   1.223  0.7661  1.1984  0.1409
   93MOL0     O12174  -0.518   6.359   1.116 -0.0362 -0.4142 -0.3608
   93MOL0     C12175  -0.414   6.453   1.117  0.8824 -0.4702  1.2189
   93MOL0     C12176  -0.371   6.536   1.218 -0.3026  0.3488  0.7501
   93MOL0     C12177  -0.259   6.619   1.203  0.6047  0.7500 -0.0594
   93MOL0     C12178  -0.183   6.629   1.082  0.9962  0.4163 -0.8164
   93MOL0     O12179  -0.069   6.701   1.067  0.2616 -0.2370  0.2682
   93MOL0     C12180   0.036   6.658   0.977  0.8438  1.1463 -0.4446
   93MOL0     C12181   0.162   6.742   0.999 -0.3275 -0.0924  0.3381
   93MOL0     C12182   0.266   6.716   0.890  0.4318 -0.6724  0.1135
   93MOL0     C12183   0.388   6.812   0.913  0.2887  0.3333  0.4378
   93MOL0     C12184   0.503   6.744   0.977 -0.0687  0.1419 -0.7778
   93MOL0     C12185   0.624   6.822   0.940 -1.2624 -0.2736 -0.1552
   93MOL0     C12186   0.746   6.802   1.031 -0.1480  0.8113 -0.9416
   93MOL0     C12187   0.839   6.912   1.002 -0.1244  0.0861 -0.2179
   93MOL0    Cl12188   0.988   6.918   1.109  0.2635  0.2239 -0.2584
   93MOL0     C12189  -0.237   6.556   0.971  0.1417 -0.0031  0.1161
   93MOL0     C12190  -0.345   6.465   0.990 -0.1574  0.5347 -0.8804
   93MOL0     O12191  -0.654   6.442   1.276 -0.1825  0.0019 -0.7263
   93MOL0     C12192  -0.734   6.181   1.346  1.0760 -0.0541 -0.1431
   93MOL0     C12193  -0.804   6.058   1.352 -0.0195  0.4665 -0.6825
   93MOL0     N12194  -1.070   5.230   1.316  0.2369 -0.3984 -0.4135
   93MOL0     N12195  -0.995   5.123   1.310  0.4767  0.2919 -0.3180
   93MOL0     C12196   0.212   5.238   1.440  0.2388 -0.2383 -0.3843
   93MOL0     C12197   0.345   5.277   1.438  1.0181  0.3597 -0.3537
   93MOL0     C12198   0.754   5.453   1.462 -0.2785 -0.0461 -0.3499
   93MOL0     C12199   0.879   5.398   1.436 -0.6795 -0.0955 -0.7373
   93MOL0     C12200   0.993   5.472   1.448 -0.4899  0.2414  0.4983
   93MOL0     C12201   0.984   5.607   1.494  1.3506 -0.1909  0.3773
   93MOL0     O12202   1.096   5.691   1.500  0.5092  0.6686  0.0869
   93MOL0     C12203   1.228   5.625   1.510  0.6956 -0.6094 -0.0157
   93MOL0     C12204   1.321   5.745   1.522  0.7149  0.6834  0.7903
   93MOL0     C12205   1.470   5.700   1.521 -0.1874  0.0018  0.0323
   93MOL0     C12206   1.511   5.596   1.638  0.8955 -0.2631  0.1670
   93MOL0     C12207   1.460   5.637   1.766 -0.2065 -0.0022  0.0284
   93MOL0     C12208   1.426   5.656   1.884  0.1616 -0.5132 -0.5647
   93MOL0     C12209   0.859   5.661   1.523 -0.0785 -0.6926 -0.9420
   93MOL0     C12210   0.745   5.590   1.500  0.8823 -0.5218 -0.2434
   93MOL0     H12211   0.346   5.508   1.693 -1.2743  0.0631  1.0714
   93MOL0     H12212   0.104   5.443   1.688 -1.4060 -1.1190  0.0671
   93MOL0     H12213  -0.012   5.062   1.601 -4.2090 -1.5092 -0.3177
   93MOL0     H12214   0.013   5.085   1.426  1.7214 -0.2773  0.8590
   93MOL0     H12215  -0.211   5.218   1.448 -0.1583 -1.0007 -1.1460
   93MOL0     H12216  -0.231   5.150   1.615 -0.5015 -2.7114  1.7744
   93MOL0     H12217  -0.242   4.935   1.551 -0.9135  1.1054  1.4118
   93MOL0     H12218  -0.203   4.962   1.379  1.3238  0.5721  1.0106
   93MOL0     H12219  -0.456   4.959   1.507  0.0928 -1.2652  0.1021
   93MOL0     H12220  -0.444   5.117   1.431  1.9810  0.4475 -0.1049
   93MOL0     H12221  -0.385   4.844   1.293  1.0581  0.7147 -3.0700
   93MOL0     H12222  -0.384   4.997   1.214 -2.7771 -0.3721 -2.0495
   93MOL0     H12223  -0.625   4.848   1.300 -2.0339  0.3036 -0.8279
   93MOL0     H12224  -0.573   4.914   1.147 -3.6293 -3.0161 -0.0015
   93MOL0     H12225  -0.681   5.075   1.387 -0.5499  0.0819 -0.3606
   93MOL0     H12226  -0.593   5.151   1.251  0.9305  0.0265  2.1947
   93MOL0     H12227  -0.812   4.952   1.202  2.2222  0.1003  1.0822
   93MOL0     H12228  -0.742   5.079   1.092  1.9093  0.8235  0.8677
   93MOL0     H12229  -0.848   5.342   1.116  0.7760  0.5193  1.3386
   93MOL0     H12230  -1.175   5.447   1.228  0.7753  1.8534  2.7111
   93MOL0     H12231  -1.056   5.474   1.093 -1.8837 -3.6992 -1.6429
   93MOL0     H12232  -0.891   5.583   1.242  0.3167  1.2853  0.9207
   93MOL0     H12233  -0.995   5.550   1.382  0.1196 -1.8662 -0.8730
   93MOL0     H12234  -1.097   5.753   1.199  0.7743  0.5439 -1.3219
   93MOL0     H12235  -1.144   5.699   1.367  0.5352  2.0369  1.7717
   93MOL0     H12236  -0.938   5.784   1.458 -0.4499  2.7101  1.1671
   93MOL0     H12237  -1.022   5.909   1.365  2.0545  1.7180 -3.5535
   93MOL0     H12238  -0.683   5.910   1.086 -3.6591 -0.9952 -0.0796
   93MOL0     H12239  -0.570   6.133   1.064  1.1221 -1.3936  1.1373
   93MOL0     H12240  -0.418   6.527   1.315  1.7893  1.3229  1.9186
   93MOL0     H12241  -0.216   6.680   1.282  0.9173  1.1676 -0.5468
   93MOL0     H12242   0.006   6.677   0.873 -2.4489 -4.0355 -0.7995
   93MOL0     H12243   0.050   6.551   0.991 -1.3565  0.7490 -0.9362
   93MOL0     H12244   0.206   6.724   1.097 -0.0672 -0.4091  0.1652
   93MOL0     H12245   0.139   6.849   1.000  3.4619  0.8615 -0.1058
   93MOL0     H12246   0.221   6.734   0.792  0.4499 -2.4975 -0.2636
   93MOL0     H12247   0.290   6.610   0.888 -1.5126 -1.4010  4.0612
   93MOL0     H12248   0.429   6.856   0.821 -0.4516 -2.0852 -1.1607
   93MOL0     H12249   0.357   6.900   0.970  0.1421 -1.0754  2.6631
   93MOL0     H12250   0.518   6.638   0.952 -2.2016 -0.1905 -0.7804
   93MOL0     H12251   0.499   6.739   1.086 -2.0920 -5.2637 -0.7740
   93MOL0     H12252   0.587   6.923   0.956 -3.4033 -1.0702  0.2412
   93MOL0     H12253   0.652   6.803   0.836 -0.6675 -2.4924  0.3440
   93MOL0     H12254   0.723   6.820   1.137  1.1174  1.9114 -0.8199
   93MOL0     H12255   0.790   6.701   1.027 -1.7277  0.1173 -1.6275
   93MOL0     H12256   0.790   7.010   1.008  1.6087  0.9439  0.5811
   93MOL0     H12257   0.868   6.919   0.896  2.5982  2.5876  0.5753
   93MOL0     H12258  -0.198   6.571   0.871 -0.1771  2.3269  0.2812
   93MOL0     H12259  -0.393   6.412   0.908  0.4478 -4.6150  1.6853
   93MOL0     H12260  -0.731   6.243   1.435  0.2233 -3.3171  2.3709
   93MOL0     H12261  -0.845   6.028   1.448  1.9504 -1.4360 -0.3583
   93MOL0     H12262   0.190   5.169   1.359  2.6571  0.3221 -1.6415
   93MOL0     H12263   0.408   5.222   1.369 -1.0654 -0.9178 -1.3411
   93MOL0     H12264   0.888   5.292   1.413  3.9920 -0.2584  0.6565
   93MOL0     H12265   1.089   5.423   1.435 -0.7376 -0.2235  0.4135
   93MOL0     H12266   1.259   5.581   1.415  0.3527 -0.0882 -0.3792
   93MOL0     H12267   1.233   5.554   1.593  2.5363  0.4514  0.8328
   93MOL0     H12268   1.310   5.810   1.435  1.3880  1.1688  1.0605
   93MOL0     H12269   1.302   5.795   1.617 -0.0968  0.4413  0.7638
   93MOL0     H12270   1.529   5.790   1.538 -0.0386  0.1844 -1.3008
   93MOL0     H12271   1.517   5.664   1.429  3.3285  1.3347  1.1242
   93MOL0     H12272   1.457   5.505   1.611 -1.7827  0.1446  3.4201
   93MOL0     H12273   1.619   5.578   1.647  0.6335 -1.1919  1.9161
   93MOL0     H12274   1.399   5.688   1.983 -3.2876 -2.2378 -0.8007
   93MOL0     H12275   0.857   5.764   1.558  3.7955 -0.8832  0.2730
   93MOL0     H12276   0.644   5.623   1.523  0.8025  0.0747 -1.4115
   94MOL0     O12277   1.373   4.445   4.452 -0.0330  0.4954  0.2033
   94MOL0     C12278   1.445   4.532   4.498  0.7681  1.1075 -0.0660
   94MOL0     O12279   1.419   4.587   4.620 -0.0830  0.3082 -0.1071
   94MOL0     C12280   1.298   4.584   4.690 -0.2273  0.1322 -0.5208
   94MOL0     C12281   1.304   4.598   4.836  0.0464  0.6842  0.1271
   94MOL0     C12282   1.184   4.617   4.904 -0.4485 -0.1233  0.7796
   94MOL0     C12283   1.055   4.603   4.838 -0.9974  0.7675 -0.8776
   94MOL0     O12284   0.947   4.621   4.913  0.1833 -0.6577 -0.4387
   94MOL0     C12285   0.937   4.555   5.043  0.3037 -0.3377  0.3164
   94MOL0     C12286   0.789   4.543   5.080  0.5213  0.7204  0.5066
   94MOL0     C12287   0.764   4.466   5.210 -0.4037 -0.3356 -0.0058
   94MOL0     C12288   0.800   4.313   5.196  0.7695 -1.0693  0.4335
   94MOL0     C12289   0.826   4.259   5.328 -0.1625 -0.2017  0.7129
   94MOL0     C12290   0.702   4.183   5.395 -0.0331  0.7575  1.1817
   94MOL0     C12291   0.748   4.099   5.519  0.3435  0.2978 -0.4521
   94MOL0     C12292   0.647   4.003   5.572  0.7012 -0.8478  0.1643
   94MOL0     N12293   0.526   4.078   5.625 -1.1695  0.0319  0.4192
   94MOL0     C12294   0.504   4.111   5.756 -0.2619  0.3674 -0.0691
   94MOL0     C12295   0.374   4.148   5.757 -1.3698 -0.4072  1.5238
   94MOL0     C12296   0.299   4.196   5.880  0.1518 -0.3577 -0.2659
   94MOL0     C12297   0.154   4.146   5.873 -0.1150  0.0804 -0.9799
   94MOL0     C12298   0.078   4.180   6.002  0.6788  0.4357 -0.6183
   94MOL0     C12299  -0.068   4.181   5.957 -0.6013  0.2962 -0.0683
   94MOL0     O12300  -0.143   4.208   6.072 -0.4447 -0.2030 -0.6480
   94MOL0     C12301  -0.271   4.242   6.045 -0.2503 -0.3383  0.4541
   94MOL0     C12302  -0.363   4.139   6.030  0.3752  0.7955 -0.4418
   94MOL0     C12303  -0.493   4.160   5.983  0.2836  0.5580  0.0463
   94MOL0     C12304  -0.521   4.284   5.931 -0.1849  0.7695  0.2891
   94MOL0     C12305  -0.650   4.307   5.861  0.5585  0.8371  0.2726
   94MOL0     O12306  -0.759   4.223   5.890  0.2525  0.1561  0.2499
   94MOL0     C12307  -0.888   4.255   5.838  0.5089  0.9181  0.0943
   94MOL0     C12308  -0.936   4.210   5.717  1.0089  0.2314  0.0859
   94MOL0     C12309  -1.072   4.233   5.670 -0.6636 -0.2149  0.3620
   94MOL0     C12310  -1.150   4.300   5.756 -0.5144  0.1856  0.0399
   94MOL0     O12311  -1.286   4.311   5.732 -0.6354 -0.1776 -0.6152
   94MOL0     C12312  -1.377   4.266   5.832 -0.6565  0.1795 -1.1111
   94MOL0     C12313  -1.512   4.262   5.764 -0.0270  0.3450 -0.1069
   94MOL0     C12314  -1.650   4.234   5.829 -0.3638  0.0623 -0.3516
   94MOL0     C12315  -1.765   4.261   5.738 -0.7409  0.1948  0.0696
   94MOL0     C12316  -1.904   4.216   5.800 -0.3586 -0.3497  0.1964
   94MOL0     C12317  -1.905   4.060   5.783 -0.4228 -1.4157 -0.4653
   94MOL0     C12318  -2.039   3.989   5.815 -0.9745  0.8287 -1.5311
   94MOL0     C12319  -2.064   3.989   5.965 -0.1764 -0.5413 -0.5967
   94MOL0    Cl12320  -2.205   3.890   6.029  0.0468 -0.3405 -0.0093
   94MOL0     C12321  -1.104   4.353   5.869 -0.2879 -0.5278 -0.1552
   94MOL0     C12322  -0.973   4.333   5.913  0.5904 -0.7882 -0.0801
   94MOL0     O12323  -0.648   4.393   5.775  0.0946  0.1153  0.8450
   94MOL0     C12324  -0.432   4.396   5.950 -0.2819 -0.6391  0.5205
   94MOL0     C12325  -0.303   4.367   6.001  0.9641  1.7703  0.3121
   94MOL0     N12326   0.330   4.152   5.628 -0.0282 -0.0098  0.5153
   94MOL0     N12327   0.422   4.112   5.551  0.1600 -0.6605 -0.3639
   94MOL0     C12328   1.048   4.589   4.698  0.3757 -0.4697  0.0531
   94MOL0     C12329   1.171   4.580   4.629 -0.0043 -0.1096 -0.2302
   94MOL0     C12330   1.576   4.575   4.437 -0.4746  1.3817  0.5691
   94MOL0     C12331   1.621   4.490   4.330 -0.4539  0.0943 -0.1033
   94MOL0     C12332   1.738   4.525   4.262  0.8636 -0.1040 -0.1334
   94MOL0     C12333   1.801   4.649   4.289  0.8572  0.0686  0.3385
   94MOL0     O12334   1.905   4.681   4.205 -0.3018  0.5653 -0.2195
   94MOL0     C12335   1.905   4.820   4.175  0.7212 -0.5930  0.1720
   94MOL0     C12336   1.996   4.840   4.060 -0.4417 -0.4578  0.0568
   94MOL0     C12337   1.996   4.992   4.036  0.5367  0.8759  0.2610
   94MOL0     C12338   2.040   5.025   3.895  0.2171 -0.8628 -0.4453
   94MOL0     C12339   1.948   4.987   3.787  0.5916 -0.3961  0.1245
   94MOL0     C12340   1.863   4.958   3.698 -1.2976 -0.0428  0.0840
   94MOL0     C12341   1.760   4.725   4.396 -0.2986  0.2408  0.0195
   94MOL0     C12342   1.641   4.695   4.463 -0.1003  0.1622  0.2933
   94MOL0     H12343   1.394   4.600   4.896  0.4886  0.2415 -0.5027
   94MOL0     H12344   1.185   4.635   5.010 -0.7525 -0.8705  0.9181
   94MOL0     H12345   0.979   4.615   5.124 -0.3560  2.0936 -1.0477
   94MOL0     H12346   0.993   4.463   5.022 -0.9818 -1.1564  0.3197
   94MOL0     H12347   0.737   4.486   5.002  0.8287  0.5609  0.4157
   94MOL0     H12348   0.743   4.642   5.078 -0.3724  0.3114  0.2580
   94MOL0     H12349   0.665   4.493   5.247 -0.9736  0.6320 -2.0771
   94MOL0     H12350   0.830   4.519   5.279 -0.9342 -0.5731  0.6969
   94MOL0     H12351   0.716   4.262   5.149 -0.5818  1.1822  0.2442
   94MOL0     H12352   0.891   4.298   5.137  0.0863 -0.7575 -0.7417
   94MOL0     H12353   0.883   4.330   5.389 -0.1720  0.5249 -0.0962
   94MOL0     H12354   0.888   4.169   5.322 -1.4165 -1.1003  0.8394
   94MOL0     H12355   0.648   4.120   5.325  0.4384  1.5791  0.0455
   94MOL0     H12356   0.619   4.249   5.421 -1.7556  1.5949 -5.0246
   94MOL0     H12357   0.842   4.047   5.500  0.3479 -0.3177  1.1307
   94MOL0     H12358   0.771   4.170   5.599 -0.4572  0.7839 -0.6301
   94MOL0     H12359   0.689   3.925   5.636 -1.0978 -1.7392  0.3227
   94MOL0     H12360   0.608   3.942   5.489  5.0829 -3.7169 -0.1531
   94MOL0     H12361   0.552   4.094   5.852  1.5419 -1.0808 -1.1722
   94MOL0     H12362   0.296   4.305   5.885 -1.9281 -0.3729 -0.2347
   94MOL0     H12363   0.359   4.158   5.963  3.7027  2.6120 -1.2533
   94MOL0     H12364   0.146   4.041   5.845  0.6929  0.1522 -1.4953
   94MOL0     H12365   0.116   4.199   5.785  0.4948  0.4618 -1.0199
   94MOL0     H12366   0.090   4.111   6.086 -0.3533  0.2690 -0.5856
   94MOL0     H12367   0.116   4.277   6.034  2.4222 -0.5243  0.3206
   94MOL0     H12368  -0.089   4.089   5.901 -1.2987  1.4343 -1.7465
   94MOL0     H12369  -0.077   4.259   5.881  0.6566 -0.0763 -0.6462
   94MOL0     H12370  -0.323   4.042   6.056  1.1781  0.9252 -1.1735
   94MOL0     H12371  -0.571   4.086   5.967 -0.0638  1.1220 -0.9151
   94MOL0     H12372  -0.869   4.142   5.666  1.0505 -1.7070  2.4792
   94MOL0     H12373  -1.095   4.173   5.583  1.9821  2.0953 -2.1377
   94MOL0     H12374  -1.389   4.327   5.922  0.4523 -1.1457 -0.0094
   94MOL0     H12375  -1.345   4.170   5.874 -0.8350  1.0800  1.2376
   94MOL0     H12376  -1.513   4.185   5.686 -1.3417 -0.0235  0.2472
   94MOL0     H12377  -1.524   4.360   5.717  0.1932  1.0666  1.2990
   94MOL0     H12378  -1.662   4.297   5.918  3.0184  1.3336 -0.6436
   94MOL0     H12379  -1.648   4.132   5.870 -0.6987  0.4831  0.7473
   94MOL0     H12380  -1.763   4.367   5.711  0.5082 -0.5536 -3.3594
   94MOL0     H12381  -1.753   4.226   5.635 -1.2592  2.1294 -0.6846
   94MOL0     H12382  -1.982   4.261   5.738  0.4635  0.5356 -0.2294
   94MOL0     H12383  -1.916   4.234   5.907  3.0098  0.2011  0.5928
   94MOL0     H12384  -1.826   4.016   5.846 -2.2144 -2.2601  1.3121
   94MOL0     H12385  -1.890   4.053   5.675 -2.7587  2.4368 -1.2120
   94MOL0     H12386  -2.133   4.030   5.776 -1.2989  0.2586 -1.3664
   94MOL0     H12387  -2.016   3.888   5.778  1.4383  0.2704  1.1186
   94MOL0     H12388  -2.085   4.091   5.997  0.1657 -0.1496 -1.5934
   94MOL0     H12389  -1.978   3.954   6.023 -1.1127 -0.0486  1.1614
   94MOL0     H12390  -1.167   4.410   5.935  1.5892 -0.4364  1.6584
   94MOL0     H12391  -0.942   4.365   6.012  1.7226  0.2183 -0.7476
   94MOL0     H12392  -0.463   4.499   5.931  0.4186 -0.7871 -1.7298
   94MOL0     H12393  -0.229   4.446   6.006  0.3837  2.2674  1.2329
   94MOL0     H12394   0.950   4.585   4.653 -0.4345 -0.3715  1.7486
   94MOL0     H12395   1.167   4.589   4.521  0.2809  0.8566 -0.1773
   94MOL0     H12396   1.569   4.396   4.318 -1.7326  0.2130  3.5234
   94MOL0     H12397   1.777   4.453   4.191  1.9786  1.2154 -0.8968
   94MOL0     H12398   1.944   4.879   4.259  0.8772 -3.0722  1.9360
   94MOL0     H12399   1.809   4.868   4.151  1.3504  0.2341 -0.7957
   94MOL0     H12400   2.093   4.800   4.092 -2.2675 -2.6880  3.4471
   94MOL0     H12401   1.951   4.798   3.970  0.1453  0.8703 -0.8958
   94MOL0     H12402   2.052   5.044   4.113  0.1207 -0.3038  1.3925
   94MOL0     H12403   1.892   5.025   4.033 -0.6485 -2.5015 -0.5836
   94MOL0     H12404   2.068   5.130   3.886 -0.4169 -0.5135  1.3110
   94MOL0     H12405   2.131   4.968   3.878  0.8368 -0.4312  1.1981
   94MOL0     H12406   1.806   4.940   3.609  1.4023  0.3738 -1.8254
   94MOL0     H12407   1.823   4.812   4.413  1.5475 -1.6001  3.6279
   94MOL0     H12408   1.596   4.764   4.533 -0.3872 -0.0557  0.3291
   95MOL0     O12409   4.113   0.152   6.504 -0.1879 -0.2219 -0.2742
   95MOL0     C12410   4.120   0.100   6.612 -0.3280 -0.3065  0.3087
   95MOL0     O12411   4.007   0.060   6.686  0.2526  0.0601 -0.3089
   95MOL0     C12412   3.877   0.088   6.650  0.6614 -0.4560 -0.0769
   95MOL0     C12413   3.818   0.198   6.716  0.6206 -0.6239  0.0318
   95MOL0     C12414   3.687   0.248   6.670 -0.1816  0.9682 -0.3671
   95MOL0     C12415   3.613   0.183   6.574 -0.9271  0.9817 -0.0966
   95MOL0     O12416   3.502   0.249   6.529  0.1142 -0.5984  0.3729
   95MOL0     C12417   3.429   0.204   6.407 -1.0230  0.2840 -0.5633
   95MOL0     C12418   3.332   0.101   6.458 -0.6475  0.9408  0.4022
   95MOL0     C12419   3.236   0.054   6.350  0.0724  0.7906  0.2665
   95MOL0     C12420   3.131   0.167   6.301  0.5712  0.9525  0.4214
   95MOL0     C12421   3.051   0.125   6.176 -0.2822 -0.5714 -0.8704
   95MOL0     C12422   2.963   0.239   6.138  1.7406 -0.6445  0.3382
   95MOL0     C12423   2.875   0.223   6.016  0.2261  0.1257 -0.1392
   95MOL0     C12424   2.774   0.341   6.000 -0.2523  0.5002 -0.5209
   95MOL0     N12425   2.707   0.333   5.874 -0.1420  0.8149 -0.4721
   95MOL0     C12426   2.625   0.231   5.821  0.4011  0.3434 -0.2366
   95MOL0     C12427   2.600   0.266   5.694 -0.0701  0.8524  0.6641
   95MOL0     C12428   2.506   0.191   5.600  0.3184  0.1634 -0.4978
   95MOL0     C12429   2.540   0.199   5.456 -0.1328  0.4641  0.0438
   95MOL0     C12430   2.461   0.101   5.367  0.1535 -0.1152  0.0159
   95MOL0     C12431   2.302   0.121   5.377  0.2379 -0.4063  0.8051
   95MOL0     O12432   2.254   0.253   5.373  0.2675 -0.0124 -0.4699
   95MOL0     C12433   2.115   0.255   5.393 -0.8741  0.9397  0.7069
   95MOL0     C12434   2.027   0.233   5.283  0.1034  1.1944 -0.3837
   95MOL0     C12435   1.887   0.243   5.297  0.2557  0.2083 -0.0268
   95MOL0     C12436   1.836   0.278   5.422  0.7681  0.7214 -0.0454
   95MOL0     C12437   1.684   0.284   5.448  0.9917 -0.7220  0.8847
   95MOL0     O12438   1.643   0.320   5.568 -0.6356  0.4413  0.7266
   95MOL0     C12439   1.513   0.353   5.595 -0.1139 -0.2884  0.1557
   95MOL0     C12440   1.420   0.418   5.510  0.1080 -0.9067  0.1024
   95MOL0     C12441   1.276   0.422   5.532 -0.5925  0.0879 -0.4007
   95MOL0     C12442   1.234   0.376   5.659 -0.2662 -0.1224  0.8865
   95MOL0     O12443   1.113   0.367   5.710  0.3386 -0.9538  0.2063
   95MOL0     C12444   1.015   0.459   5.657 -0.3097 -0.0218  0.1765
   95MOL0     C12445   0.892   0.456   5.742 -0.3396  0.7352 -0.2234
   95MOL0     C12446   0.794   0.552   5.668 -0.6248 -0.0758 -0.6325
   95MOL0     C12447   0.679   0.586   5.770 -0.0685  0.7455  0.0162
   95MOL0     C12448   0.537   0.626   5.712 -0.4585  0.5738 -0.1985
   95MOL0     C12449   0.475   0.514   5.629  0.7812  0.0253 -0.3700
   95MOL0     C12450   0.331   0.548   5.583  0.6906 -0.3096 -0.3689
   95MOL0     C12451   0.223   0.497   5.683 -0.1850  0.8216 -0.5703
   95MOL0    Cl12452   0.072   0.512   5.612  0.0716 -0.0236  0.4264
   95MOL0     C12453   1.327   0.324   5.748  0.3139  0.6102  0.3822
   95MOL0     C12454   1.460   0.315   5.716  0.3282  0.0028  0.4528
   95MOL0     O12455   1.613   0.245   5.352  1.0380  0.1601 -0.2704
   95MOL0     C12456   1.926   0.298   5.531 -1.2952  0.4887  0.0338
   95MOL0     C12457   2.062   0.284   5.514 -0.9627 -0.5805  0.5544
   95MOL0     N12458   2.653   0.387   5.676  0.0485  0.4786  0.4453
   95MOL0     N12459   2.710   0.428   5.781  1.1458  0.3896 -1.1407
   95MOL0     C12460   3.658   0.063   6.515 -0.3547  0.6376  0.7120
   95MOL0     C12461   3.801   0.024   6.546 -1.1261 -0.9958 -0.1495
   95MOL0     C12462   4.250   0.091   6.670 -0.7171 -0.3142 -0.2073
   95MOL0     C12463   4.265   0.048   6.805  0.3529  0.0291  0.4436
   95MOL0     C12464   4.385   0.033   6.872  0.2986 -1.2506  0.0068
   95MOL0     C12465   4.505   0.065   6.811  0.3476 -0.7232  0.7930
   95MOL0     O12466   4.631   0.050   6.864  0.7420  0.4445  0.1629
   95MOL0     C12467   4.643   0.016   6.998 -0.1645 -0.4106  0.0607
   95MOL0     C12468   4.785   0.047   7.051  0.4616 -0.7607  0.6903
   95MOL0     C12469   4.891  -0.051   6.985  0.3497  0.8833 -1.2416
   95MOL0     C12470   4.922  -0.033   6.835 -0.1012 -0.3449 -0.0486
   95MOL0     C12471   5.071  -0.072   6.805  1.1623 -0.0632  0.3122
   95MOL0     C12472   5.179  -0.109   6.774 -0.4627 -0.9001  0.0711
   95MOL0     C12473   4.497   0.104   6.674  0.6326  0.7239  0.5085
   95MOL0     C12474   4.373   0.110   6.610  0.5894  0.9212  0.1165
   95MOL0     H12475   3.882   0.251   6.787  1.0632 -1.8768  0.5962
   95MOL0     H12476   3.652   0.342   6.711 -3.1092 -0.3500  0.4123
   95MOL0     H12477   3.486   0.163   6.323 -0.4879  0.3652 -0.2440
   95MOL0     H12478   3.375   0.291   6.370 -2.0108 -0.1984 -0.2861
   95MOL0     H12479   3.282   0.126   6.552  2.0716  1.4532  1.8148
   95MOL0     H12480   3.388   0.012   6.490 -2.5001  0.8485  4.0162
   95MOL0     H12481   3.187  -0.037   6.386 -0.5490  0.6076 -0.9655
   95MOL0     H12482   3.291   0.016   6.263  0.0906  1.0217  0.1762
   95MOL0     H12483   3.077   0.200   6.391 -0.4852 -1.5390  0.7873
   95MOL0     H12484   3.190   0.250   6.263  0.8763  0.6689  0.2763
   95MOL0     H12485   2.988   0.040   6.204 -1.5885  0.0221 -1.9124
   95MOL0     H12486   3.112   0.096   6.090  1.1288  2.2885 -0.9423
   95MOL0     H12487   3.020   0.333   6.132 -0.4945  0.7142 -2.1333
   95MOL0     H12488   2.897   0.248   6.224 -0.3063 -1.2911 -1.0813
   95MOL0     H12489   2.940   0.216   5.929 -0.0361  0.3989 -0.3610
   95MOL0     H12490   2.830   0.124   6.024  1.7871 -0.7407 -1.5813
   95MOL0     H12491   2.839   0.427   6.019  1.1499 -0.6893  0.3727
   95MOL0     H12492   2.711   0.334   6.089 -1.9358  1.5729 -1.5852
   95MOL0     H12493   2.587   0.145   5.874  1.4036 -0.5705 -0.9740
   95MOL0     H12494   2.405   0.233   5.608  0.6180  0.5378  2.2579
   95MOL0     H12495   2.494   0.085   5.622 -2.2777  0.3549 -0.6070
   95MOL0     H12496   2.645   0.174   5.438 -0.1481 -0.8438  1.5545
   95MOL0     H12497   2.512   0.302   5.432  1.1114  0.6352 -0.7428
   95MOL0     H12498   2.484   0.125   5.262  1.4488  1.0676  0.5382
   95MOL0     H12499   2.483  -0.003   5.393  0.7864 -0.2082 -0.8294
   95MOL0     H12500   2.255   0.070   5.462 -3.0969  3.4196  1.5681
   95MOL0     H12501   2.266   0.073   5.285 -1.8631  1.2370  0.6924
   95MOL0     H12502   2.063   0.222   5.181 -3.3525  2.6104 -1.9414
   95MOL0     H12503   1.823   0.257   5.210  0.3270 -1.1813 -0.3261
   95MOL0     H12504   1.458   0.465   5.420 -0.3806 -5.0060 -2.5142
   95MOL0     H12505   1.205   0.453   5.456 -0.4082 -0.7631 -0.9358
   95MOL0     H12506   0.997   0.434   5.552  2.5636 -0.2463 -0.3341
   95MOL0     H12507   1.052   0.561   5.669  1.2063 -0.5384  0.0661
   95MOL0     H12508   0.922   0.489   5.841 -2.1529 -1.9574  1.3385
   95MOL0     H12509   0.861   0.351   5.746  1.9467  0.0011  0.0721
   95MOL0     H12510   0.765   0.498   5.577  3.6347  1.5256 -3.2439
   95MOL0     H12511   0.846   0.644   5.641  1.0234  0.5392  3.8574
   95MOL0     H12512   0.667   0.510   5.847  1.6105  1.8555  1.4381
   95MOL0     H12513   0.710   0.675   5.825  0.2211  1.7467 -1.6747
   95MOL0     H12514   0.549   0.706   5.638 -0.7408 -0.5570 -1.5211
   95MOL0     H12515   0.469   0.652   5.793 -0.7328 -1.9013  0.4399
   95MOL0     H12516   0.459   0.430   5.698 -0.7066  1.8420  1.5951
   95MOL0     H12517   0.528   0.481   5.539  0.7368  0.0767 -0.4144
   95MOL0     H12518   0.303   0.652   5.566 -0.8365 -0.8991 -1.6879
   95MOL0     H12519   0.308   0.491   5.493  0.2130 -4.3812  2.0774
   95MOL0     H12520   0.234   0.566   5.767 -1.2748 -0.4516  0.6622
   95MOL0     H12521   0.245   0.392   5.704  1.6576  1.2041 -0.4626
   95MOL0     H12522   1.311   0.275   5.843  0.9458 -1.8803 -0.7095
   95MOL0     H12523   1.519   0.273   5.797  1.6690  0.2682 -0.3385
   95MOL0     H12524   1.890   0.326   5.630 -0.1053 -3.0845  1.6557
   95MOL0     H12525   2.130   0.298   5.598 -1.9246  1.0479  1.1137
   95MOL0     H12526   3.609  -0.006   6.447  3.2983 -2.3805  0.8019
   95MOL0     H12527   3.854  -0.048   6.484  1.0128  1.5637 -1.5031
   95MOL0     H12528   4.180   0.014   6.863 -2.3429 -0.7711 -3.5591
   95MOL0     H12529   4.404  -0.006   6.971  1.5750  0.4029  0.4593
   95MOL0     H12530   4.624  -0.092   6.999  1.1038 -0.6838 -1.6181
   95MOL0     H12531   4.567   0.065   7.060 -1.1186  2.0571 -2.8406
   95MOL0     H12532   4.802   0.154   7.038  1.3739 -0.8381  1.1830
   95MOL0     H12533   4.782   0.025   7.158  0.1391  0.7199  0.9935
   95MOL0     H12534   4.854  -0.154   6.993  2.4440  0.0515 -1.4769
   95MOL0     H12535   4.983  -0.050   7.045 -0.0897  2.2412 -0.5643
   95MOL0     H12536   4.848  -0.098   6.787 -0.2189 -0.1376 -0.1493
   95MOL0     H12537   4.889   0.069   6.813 -1.4162 -0.0488  2.8338
   95MOL0     H12538   5.277  -0.138   6.740 -0.7717  0.8517 -2.5717
   95MOL0     H12539   4.585   0.149   6.630 -1.2855  2.0536 -2.2835
   95MOL0     H12540   4.367   0.151   6.509 -1.8211  1.1020  0.2888
   96MOL0     O12541   3.255   1.434   9.134 -0.4534 -0.2452 -0.1221
   96MOL0     C12542   3.265   1.344   9.053  0.2168 -0.7700  1.3100
   96MOL0     O12543   3.158   1.273   8.999  0.1179 -0.0658 -0.1048
   96MOL0     C12544   3.032   1.330   8.998 -0.1379  0.0167  0.2301
   96MOL0     C12545   3.005   1.467   9.012 -0.1451  0.6861  0.1703
   96MOL0     C12546   2.881   1.527   8.992 -0.7165 -0.7151 -0.1154
   96MOL0     C12547   2.779   1.448   8.941 -1.1557  0.2396 -0.1594
   96MOL0     O12548   2.655   1.512   8.937  0.2708  0.3765  0.0777
   96MOL0     C12549   2.559   1.475   8.832 -0.5245  1.0901 -0.1838
   96MOL0     C12550   2.427   1.543   8.846  0.2179 -0.2334  0.1807
   96MOL0     C12551   2.339   1.476   8.949  0.1439 -0.3639  0.5734
   96MOL0     C12552   2.193   1.482   8.906 -0.3810  0.6419 -0.1555
   96MOL0     C12553   2.150   1.356   8.832 -0.1137 -0.3237 -0.4745
   96MOL0     C12554   2.056   1.278   8.924  0.6782 -0.0419  0.4326
   96MOL0     C12555   1.974   1.177   8.834  0.5994  0.4055 -0.7704
   96MOL0     C12556   1.870   1.107   8.913 -0.4071 -0.6110 -0.3314
   96MOL0     N12557   1.923   1.033   9.035  0.1587  0.1411  0.5909
   96MOL0     C12558   1.942   1.095   9.158 -0.0340 -0.2954 -0.3758
   96MOL0     C12559   1.935   1.000   9.250  1.0365  0.0263 -0.1451
   96MOL0     C12560   1.941   1.018   9.400 -0.0621 -0.6042  0.5705
   96MOL0     C12561   2.077   0.979   9.451 -0.4676 -0.8679 -0.4701
   96MOL0     C12562   2.103   1.004   9.598 -1.1723 -0.1389 -0.2892
   96MOL0     C12563   2.259   0.986   9.614 -0.3240  1.2731  0.1056
   96MOL0     O12564   2.318   0.980   9.738 -0.1520  0.2249  0.7758
   96MOL0     C12565   2.454   0.981   9.746 -0.7996  0.3865 -0.6771
   96MOL0     C12566   2.550   1.003   9.650 -0.3748 -0.3829  0.1412
   96MOL0     C12567   2.686   1.003   9.671  0.7055  0.5063 -0.1571
   96MOL0     C12568   2.741   0.965   9.802  0.8647  0.5485  0.6822
   96MOL0     C12569   2.884   0.944   9.824 -0.6043  0.5135  0.6654
   96MOL0     O12570   2.925   0.901   9.956 -0.2055 -0.0930  0.5092
   96MOL0     C12571   3.056   0.911   9.981 -1.1014 -0.1914 -0.4320
   96MOL0     C12572   3.156   0.840   9.919  0.5814 -0.9514  0.5508
   96MOL0     C12573   3.286   0.862   9.952 -0.2506 -0.2020 -0.7539
   96MOL0     C12574   3.328   0.947  10.055 -0.8748  0.1277 -0.0309
   96MOL0     O12575   3.464   0.962  10.070  0.1303 -0.8321  0.1004
   96MOL0     C12576   3.512   1.016  10.190  0.4852 -0.1572 -0.4232
   96MOL0     C12577   3.667   1.015  10.180  0.1830  0.8289 -0.0308
   96MOL0     C12578   3.711   0.866  10.157  0.3200 -0.5480 -0.4056
   96MOL0     C12579   3.861   0.849  10.154 -0.5411  0.5667  0.0412
   96MOL0     C12580   3.897   0.695  10.166 -0.1429 -0.3940 -0.7385
   96MOL0     C12581   4.050   0.681  10.186 -0.5640 -0.0232 -0.1726
   96MOL0     C12582   4.111   0.549  10.131 -0.0988 -0.3493  0.4376
   96MOL0     C12583   4.072   0.443  10.227 -0.0700 -0.3341 -0.8679
   96MOL0    Cl12584   4.152   0.473  10.385 -0.0210  0.3438  0.6381
   96MOL0     C12585   3.225   1.023  10.121 -0.4491  0.2787 -0.1007
   96MOL0     C12586   3.094   1.003  10.075 -0.3680 -1.0964 -0.3792
   96MOL0     O12587   2.963   0.986   9.738 -0.2938 -0.7876  0.4915
   96MOL0     C12588   2.647   0.926   9.902  0.8223  0.7132  0.1958
   96MOL0     C12589   2.508   0.943   9.874  0.9431  0.2180  0.4967
   96MOL0     N12590   1.922   0.876   9.193  1.0377  0.9879 -0.4555
   96MOL0     N12591   1.908   0.899   9.063 -0.3834 -0.1805  0.0909
   96MOL0     C12592   2.801   1.307   8.924 -0.1871 -0.4215 -0.4250
   96MOL0     C12593   2.933   1.252   8.949 -0.9795 -1.8051  1.0202
   96MOL0     C12594   3.393   1.283   9.035 -0.2880  0.1132  0.0466
   96MOL0     C12595   3.414   1.208   8.920  0.0625 -0.3081  0.8790
   96MOL0     C12596   3.541   1.145   8.911  0.4133  0.3440  0.4102
   96MOL0     C12597   3.642   1.159   8.998 -0.2305 -0.2465 -0.5730
   96MOL0     O12598   3.752   1.088   8.958  0.0731 -0.1584 -0.3274
   96MOL0     C12599   3.865   1.125   9.038  0.0393 -0.9129 -0.4971
   96MOL0     C12600   3.991   1.099   8.954  0.2987 -0.5190  0.6284
   96MOL0     C12601   4.119   1.107   9.035 -0.1275  0.9085 -1.2194
   96MOL0     C12602   4.239   1.054   8.955  0.1094  0.5980 -0.4797
   96MOL0     C12603   4.324   1.161   8.904  0.8583  0.1185 -0.2239
   96MOL0     C12604   4.387   1.254   8.861  0.8018  0.3998 -0.0421
   96MOL0     C12605   3.614   1.241   9.112 -0.1188 -0.4676  0.7268
   96MOL0     C12606   3.489   1.292   9.138  0.0528 -1.0965  0.3060
   96MOL0     H12607   3.091   1.532   9.029  0.8879 -1.0662  2.0366
   96MOL0     H12608   2.871   1.634   9.004 -1.1470 -0.9850  2.3597
   96MOL0     H12609   2.544   1.366   8.833  2.4326  0.5794 -1.3881
   96MOL0     H12610   2.605   1.491   8.734 -1.5865  1.0007 -0.7178
   96MOL0     H12611   2.392   1.533   8.743  3.8398 -0.0187 -1.2005
   96MOL0     H12612   2.452   1.647   8.866 -2.4730 -0.0731  3.6471
   96MOL0     H12613   2.354   1.526   9.045  0.1773  1.7873 -0.4721
   96MOL0     H12614   2.369   1.371   8.951  1.1711 -0.1023 -0.2574
   96MOL0     H12615   2.125   1.507   8.988 -1.0680 -3.8235  0.9230
   96MOL0     H12616   2.181   1.567   8.838  3.4923  1.4793 -0.0161
   96MOL0     H12617   2.235   1.293   8.805  0.8932  0.6253  0.3293
   96MOL0     H12618   2.096   1.380   8.740 -1.7857 -0.1283  0.5229
   96MOL0     H12619   1.984   1.348   8.969  2.6820  1.5006  1.3709
   96MOL0     H12620   2.114   1.222   8.997 -0.0978 -0.8594  0.4388
   96MOL0     H12621   1.920   1.233   8.757  0.1441  0.8551 -0.1359
   96MOL0     H12622   2.044   1.098   8.804 -1.1297 -0.5576 -2.4339
   96MOL0     H12623   1.835   1.040   8.835  0.2536  0.7705 -1.8704
   96MOL0     H12624   1.793   1.176   8.948 -0.7332 -1.5389  0.8380
   96MOL0     H12625   1.957   1.202   9.169  0.2217 -0.2614 -1.0332
   96MOL0     H12626   1.866   0.954   9.448 -2.0240  3.2533  3.2166
   96MOL0     H12627   1.910   1.119   9.426  0.0941 -0.3413 -0.2324
   96MOL0     H12628   2.155   1.027   9.391  1.0979 -2.3487  0.2841
   96MOL0     H12629   2.079   0.874   9.421 -2.2019 -0.4003 -2.5203
   96MOL0     H12630   2.075   1.107   9.621 -2.3379 -0.2724 -1.0137
   96MOL0     H12631   2.045   0.944   9.668 -1.0842  1.4520  1.2206
   96MOL0     H12632   2.311   1.063   9.554 -2.3985  3.4096  0.8922
   96MOL0     H12633   2.292   0.895   9.563 -2.2867  2.0776 -2.8894
   96MOL0     H12634   2.521   1.024   9.548 -2.8975 -1.9293  0.4538
   96MOL0     H12635   2.752   1.022   9.587  0.4321 -1.0104 -0.7579
   96MOL0     H12636   3.133   0.777   9.834 -1.0077 -1.4549  1.3271
   96MOL0     H12637   3.365   0.806   9.903 -0.0093 -0.9639  0.4385
   96MOL0     H12638   3.483   0.950  10.272  0.5601  1.5466  1.0347
   96MOL0     H12639   3.470   1.112  10.221 -4.7579 -1.9981 -0.9262
   96MOL0     H12640   3.716   1.050  10.271  1.4943  1.4394 -0.9464
   96MOL0     H12641   3.696   1.073  10.091 -1.1052 -0.3527 -1.2816
   96MOL0     H12642   3.676   0.837  10.058  0.3493 -0.5950 -0.4019
   96MOL0     H12643   3.681   0.792  10.232  3.1577 -0.2466  1.1991
   96MOL0     H12644   3.914   0.887  10.067 -0.3755 -0.0757 -0.1478
   96MOL0     H12645   3.906   0.906  10.236 -1.1655  1.5060 -0.2535
   96MOL0     H12646   3.873   0.637  10.076  0.7379 -1.1063 -0.5297
   96MOL0     H12647   3.851   0.643  10.250  1.0454  1.4626  1.1635
   96MOL0     H12648   4.066   0.692  10.294 -2.6248  0.8577  0.0871
   96MOL0     H12649   4.103   0.772  10.158  0.2707 -0.3934  0.1815
   96MOL0     H12650   4.083   0.521  10.029  1.1030  0.2137 -0.0744
   96MOL0     H12651   4.220   0.566  10.128 -0.1819  0.1483  0.0350
   96MOL0     H12652   4.109   0.355  10.175 -0.8071  0.4477 -2.8155
   96MOL0     H12653   3.964   0.424  10.230  0.3370 -3.3079 -1.7056
   96MOL0     H12654   3.244   1.091  10.203  3.2128 -0.1935 -0.3652
   96MOL0     H12655   3.014   1.067  10.111 -0.0480  0.0753 -1.6650
   96MOL0     H12656   2.668   0.885  10.000  1.5245 -4.1859 -1.7285
   96MOL0     H12657   2.433   0.923   9.950  2.0358 -0.8689  1.3359
   96MOL0     H12658   2.714   1.257   8.882 -1.4473 -1.2596  2.8457
   96MOL0     H12659   2.945   1.144   8.942  0.3530 -1.8673  3.3823
   96MOL0     H12660   3.334   1.196   8.847  0.8657 -1.5000  0.1652
   96MOL0     H12661   3.562   1.062   8.845  2.5472 -1.5830  3.2474
   96MOL0     H12662   3.868   1.066   9.130  1.2147  1.1273  0.8380
   96MOL0     H12663   3.869   1.233   9.056 -1.7286 -0.3546 -2.8756
   96MOL0     H12664   3.972   1.003   8.906  0.2242 -0.0254 -0.3568
   96MOL0     H12665   4.004   1.176   8.877  4.1187 -0.3798  1.2331
   96MOL0     H12666   4.107   1.055   9.130  0.9172  2.7155 -0.0632
   96MOL0     H12667   4.126   1.215   9.050 -0.1145  0.6485  0.9121
   96MOL0     H12668   4.303   0.991   9.018 -0.9022 -0.4665 -0.4850
   96MOL0     H12669   4.211   0.999   8.864  2.3786  1.7910 -1.9969
   96MOL0     H12670   4.417   1.341   8.806  3.7848 -1.5626 -1.8373
   96MOL0     H12671   3.685   1.279   9.185 -2.0836  1.1383  1.8737
   96MOL0     H12672   3.467   1.347   9.230 -1.6707  1.9170 -1.7109
   97MOL0     O12673   5.160  10.441   6.211  0.5540  0.2629 -0.6420
   97MOL0     C12674   5.067  10.407   6.139  0.6186 -0.7948  0.3088
   97MOL0     O12675   5.071  10.322   6.044 -0.6245  0.3457 -0.0884
   97MOL0     C12676   5.172  10.231   6.035 -0.2588 -0.2351  0.1024
   97MOL0     C12677   5.173  10.107   6.098 -0.0135 -0.4928 -0.3438
   97MOL0     C12678   5.287  10.023   6.083 -0.4080  1.0161 -0.2934
   97MOL0     C12679   5.392  10.058   5.994  0.2755  0.6782  0.6728
   97MOL0     O12680   5.491   9.971   5.959  0.3895 -0.8597 -0.1495
   97MOL0     C12681   5.488   9.843   6.007 -0.2552  0.4304 -0.6333
   97MOL0     C12682   5.585   9.749   5.931  0.9550  0.3314  0.2121
   97MOL0     C12683   5.588   9.617   6.002 -0.4048  0.0133 -0.3945
   97MOL0     C12684   5.633   9.512   5.906 -0.0795  1.1691 -0.0187
   97MOL0     C12685   5.604   9.371   5.954 -0.1294  0.1224 -0.3119
   97MOL0     C12686   5.635   9.261   5.855  0.5209  0.1059 -0.2520
   97MOL0     C12687   5.784   9.259   5.813 -0.0648  0.0863  0.2958
   97MOL0     C12688   5.878   9.223   5.923 -0.2872 -0.4605 -0.5992
   97MOL0     N12689   5.865   9.087   5.975 -0.1779 -0.4714  0.4402
   97MOL0     C12690   5.927   8.972   5.929  0.6961 -0.3323 -0.2102
   97MOL0     C12691   5.908   8.874   6.019 -0.6762  0.0242  0.7802
   97MOL0     C12692   5.944   8.729   5.993 -1.1817 -0.4365  0.8618
   97MOL0     C12693   5.832   8.625   5.994 -0.4095 -0.4978  0.3175
   97MOL0     C12694   5.777   8.594   5.855  0.5974 -0.2197 -0.0625
   97MOL0     C12695   5.654   8.507   5.869 -0.2208 -0.0762  0.8304
   97MOL0     O12696   5.573   8.512   5.743  0.0986 -0.5429 -0.2453
   97MOL0     C12697   5.459   8.441   5.737  0.1720 -0.4035  0.0092
   97MOL0     C12698   5.394   8.381   5.846  0.0349 -0.0144 -1.3124
   97MOL0     C12699   5.261   8.325   5.827 -0.1644 -0.0714 -0.3375
   97MOL0     C12700   5.201   8.316   5.702  0.3725 -0.5824 -0.1207
   97MOL0     C12701   5.067   8.245   5.684  0.6145  0.8797 -0.8880
   97MOL0     O12702   5.008   8.244   5.561 -0.3089 -0.3242 -0.6456
   97MOL0     C12703   4.901   8.166   5.525 -0.4300  0.3164 -0.0983
   97MOL0     C12704   4.901   8.100   5.403  0.0524  0.3393  0.2217
   97MOL0     C12705   4.791   8.041   5.358  0.7204 -0.2181 -0.3336
   97MOL0     C12706   4.670   8.037   5.425 -0.1771 -0.2480 -0.7130
   97MOL0     O12707   4.563   7.958   5.390 -0.5551  0.1901  0.1233
   97MOL0     C12708   4.543   7.924   5.250  0.0726 -0.1033  0.0126
   97MOL0     C12709   4.405   7.863   5.232  0.5292  0.9943 -0.6241
   97MOL0     C12710   4.293   7.932   5.311 -0.5832  0.5347  0.6868
   97MOL0     C12711   4.162   7.869   5.275  0.7533  0.3356  0.6594
   97MOL0     C12712   4.084   7.828   5.400 -0.2255 -0.6260 -0.2472
   97MOL0     C12713   3.943   7.789   5.352  0.7325 -0.3765  0.1934
   97MOL0     C12714   3.873   7.688   5.436 -0.1558  0.4395 -0.0670
   97MOL0     C12715   3.769   7.613   5.359  1.0207 -0.6905  1.2362
   97MOL0    Cl12716   3.643   7.703   5.254 -0.0414  0.5172  0.3218
   97MOL0     C12717   4.664   8.111   5.550 -0.2722  0.8005  0.0171
   97MOL0     C12718   4.778   8.165   5.597 -0.2341  0.1108 -0.4768
   97MOL0     O12719   5.015   8.198   5.783 -0.2279  0.2635  0.7027
   97MOL0     C12720   5.269   8.374   5.598 -0.2689  0.2205 -0.6691
   97MOL0     C12721   5.392   8.430   5.616  0.8644  0.3040  0.4467
   97MOL0     N12722   5.831   8.941   6.116  0.2949  0.1870  0.5516
   97MOL0     N12723   5.806   9.062   6.092 -0.1305 -0.6305 -0.4865
   97MOL0     C12724   5.388  10.183   5.930 -0.2285  0.7534 -0.4928
   97MOL0     C12725   5.278  10.267   5.949 -0.0742  0.1411 -0.0490
   97MOL0     C12726   4.934  10.450   6.189 -0.9094  0.6234 -0.7049
   97MOL0     C12727   4.818  10.385   6.145  0.1553 -0.4700  0.1281
   97MOL0     C12728   4.693  10.415   6.197  0.2130  0.6053  0.3523
   97MOL0     C12729   4.673  10.522   6.287  0.7199 -0.0213 -0.1266
   97MOL0     O12730   4.547  10.548   6.335  0.2159  0.7576  0.2987
   97MOL0     C12731   4.537  10.609   6.468  0.0430 -0.0892 -0.0309
   97MOL0     C12732   4.426  10.544   6.543 -0.7047  0.3649  0.8466
   97MOL0     C12733   4.391  10.606   6.670  0.6267 -0.3703  0.3175
   97MOL0     C12734   4.277  10.522   6.746  0.4214  0.5623  0.9640
   97MOL0     C12735   4.154  10.591   6.763  0.4117  0.8495 -0.3352
   97MOL0     C12736   4.051  10.650   6.793  0.8901 -0.8283 -0.3795
   97MOL0     C12737   4.791  10.594   6.323 -0.4262  0.0612 -0.0411
   97MOL0     C12738   4.920  10.567   6.269  0.6492  0.5449 -0.7208
   97MOL0     H12739   5.097  10.075   6.169  2.1207 -1.2498  1.7149
   97MOL0     H12740   5.292   9.931   6.140  0.8947  0.7629 -0.7881
   97MOL0     H12741   5.388   9.801   5.990 -1.2642  1.8649  1.4076
   97MOL0     H12742   5.506   9.836   6.114 -0.0190  1.0327 -0.6240
   97MOL0     H12743   5.685   9.792   5.930  1.0637  0.2530  2.3226
   97MOL0     H12744   5.548   9.754   5.828  0.3220  0.5056  0.4404
   97MOL0     H12745   5.491   9.597   6.049  0.7152 -1.1640  1.5521
   97MOL0     H12746   5.668   9.623   6.076 -0.1606 -0.5148 -0.6072
   97MOL0     H12747   5.562   9.524   5.823  0.1082 -2.0484 -0.7879
   97MOL0     H12748   5.739   9.521   5.880 -0.1815 -0.6863 -1.2878
   97MOL0     H12749   5.496   9.369   5.970 -0.4355 -0.1665 -2.1618
   97MOL0     H12750   5.660   9.357   6.047  1.0611 -2.7189 -1.3770
   97MOL0     H12751   5.580   9.271   5.761 -0.1402 -1.0103 -0.0023
   97MOL0     H12752   5.603   9.166   5.900  0.1489  0.3973  0.1052
   97MOL0     H12753   5.796   9.182   5.736  3.8481  0.1121  0.6588
   97MOL0     H12754   5.816   9.350   5.761 -0.1835  0.5527  1.0296
   97MOL0     H12755   5.864   9.300   6.000  2.7792  1.3419 -1.6342
   97MOL0     H12756   5.980   9.228   5.884 -0.7099  2.2544 -1.5867
   97MOL0     H12757   5.979   8.960   5.834  0.9513 -1.1387  0.0186
   97MOL0     H12758   6.014   8.698   6.071 -2.2698 -4.2148  0.5485
   97MOL0     H12759   5.991   8.719   5.895  0.8439  0.5063  1.6931
   97MOL0     H12760   5.746   8.647   6.059 -0.4649  0.5027 -0.0801
   97MOL0     H12761   5.874   8.531   6.033  1.4659 -0.7757 -2.1614
   97MOL0     H12762   5.752   8.688   5.805 -2.2054 -0.5303  0.6012
   97MOL0     H12763   5.859   8.547   5.800  1.4898 -1.2950  2.0928
   97MOL0     H12764   5.594   8.550   5.950 -0.4796 -0.6303  0.9332
   97MOL0     H12765   5.683   8.404   5.888  0.7427  0.1284  0.5186
   97MOL0     H12766   5.421   8.377   5.951 -3.8930  1.6170 -0.0126
   97MOL0     H12767   5.196   8.274   5.898  0.3844 -2.8719 -1.7000
   97MOL0     H12768   4.998   8.116   5.357  0.5902  0.1873  1.2589
   97MOL0     H12769   4.795   7.981   5.268 -0.5164 -0.8068 -0.0261
   97MOL0     H12770   4.619   7.855   5.214 -1.3700 -0.2718 -2.9506
   97MOL0     H12771   4.557   8.015   5.191 -1.1700  1.5625  2.0962
   97MOL0     H12772   4.409   7.758   5.262 -3.4501  1.4045  2.0621
   97MOL0     H12773   4.388   7.856   5.124  2.3048  2.3787 -1.0478
   97MOL0     H12774   4.300   8.037   5.282  0.0049 -0.0605 -1.4902
   97MOL0     H12775   4.309   7.915   5.418  0.5803  2.2540  0.8345
   97MOL0     H12776   4.109   7.943   5.216 -0.1080 -0.6241  0.2037
   97MOL0     H12777   4.180   7.777   5.218 -0.4686  0.8380 -0.5651
   97MOL0     H12778   4.079   7.912   5.470 -2.0111 -1.0688  0.2084
   97MOL0     H12779   4.133   7.750   5.460  1.6501 -0.2651 -1.2424
   97MOL0     H12780   3.950   7.755   5.248 -1.2968  2.8703 -1.1547
   97MOL0     H12781   3.878   7.877   5.349  3.1034  1.4743 -0.2577
   97MOL0     H12782   3.942   7.609   5.467 -3.1567 -2.8005 -1.0096
   97MOL0     H12783   3.823   7.718   5.529 -0.6788 -1.7628  0.4204
   97MOL0     H12784   3.707   7.553   5.425 -0.0501  0.2309  1.1040
   97MOL0     H12785   3.824   7.550   5.289 -0.1899  0.8502 -1.2324
   97MOL0     H12786   4.581   8.120   5.620  0.7329  0.4945  1.2842
   97MOL0     H12787   4.775   8.223   5.688  1.2375 -1.8448  0.9101
   97MOL0     H12788   5.224   8.363   5.499  0.8733 -0.5975 -1.1137
   97MOL0     H12789   5.439   8.467   5.526  0.7531  0.9166  0.6334
   97MOL0     H12790   5.479  10.229   5.893 -0.0115  0.0235 -0.8876
   97MOL0     H12791   5.276  10.358   5.890 -2.0925 -0.3763 -0.8544
   97MOL0     H12792   4.840  10.294   6.090 -0.6487 -0.9279  0.5598
   97MOL0     H12793   4.616  10.357   6.146 -1.1562  0.2771  2.6506
   97MOL0     H12794   4.513  10.715   6.454 -0.8291 -0.5246 -2.1165
   97MOL0     H12795   4.620  10.607   6.540 -0.4062  0.1808  0.4971
   97MOL0     H12796   4.341  10.540   6.474  0.9454 -3.7133 -1.3275
   97MOL0     H12797   4.459  10.440   6.554  1.1109  1.1028  3.0527
   97MOL0     H12798   4.369  10.710   6.641  0.9029 -1.0682 -2.6058
   97MOL0     H12799   4.476  10.606   6.739  0.1106  0.6978  0.9924
   97MOL0     H12800   4.254  10.433   6.685 -1.0806  1.5142  0.0682
   97MOL0     H12801   4.304  10.492   6.848  0.7995  0.0286  0.7148
   97MOL0     H12802   3.954  10.694   6.799  1.9198  1.5228  0.2177
   97MOL0     H12803   4.782  10.688   6.377  1.5300  0.4330 -0.2859
   97MOL0     H12804   5.003  10.636   6.273  1.4701 -0.2085 -3.1961
   98MOL0     O12805  10.328   2.115   2.604 -0.1978  0.1879 -0.3577
   98MOL0     C12806  10.436   2.068   2.574  0.2664  0.1507 -0.5046
   98MOL0     O12807  10.454   1.950   2.521  0.5558  0.2353  0.4032
   98MOL0     C12808  10.349   1.865   2.520  0.1838  0.5001 -1.3904
   98MOL0     C12809  10.267   1.831   2.635  0.3511 -0.0694 -0.0437
   98MOL0     C12810  10.165   1.733   2.610  0.1150  0.0018 -0.8394
   98MOL0     C12811  10.129   1.679   2.489 -0.3694 -0.0721  0.1486
   98MOL0     O12812  10.020   1.577   2.485  0.1354 -0.1338  0.5307
   98MOL0     C12813   9.999   1.502   2.359 -0.3957 -0.0096 -0.1252
   98MOL0     C12814   9.871   1.419   2.364 -1.4086  0.0275 -0.0858
   98MOL0     C12815   9.745   1.498   2.351 -1.0042  0.0375  0.5661
   98MOL0     C12816   9.617   1.416   2.382 -0.1458  0.4329  0.6728
   98MOL0     C12817   9.503   1.518   2.366  0.6503  0.7526  0.2162
   98MOL0     C12818   9.375   1.454   2.432 -0.7404 -0.6766 -0.0701
   98MOL0     C12819   9.246   1.549   2.423 -1.0607  0.0873 -0.6257
   98MOL0     C12820   9.250   1.663   2.533 -0.3701  0.3041 -0.1476
   98MOL0     N12821   9.117   1.710   2.568  0.4464  0.0467 -0.0621
   98MOL0     C12822   9.065   1.726   2.698 -0.4578 -0.6529 -0.4953
   98MOL0     C12823   8.965   1.813   2.685 -0.6254  0.3859 -0.1894
   98MOL0     C12824   8.883   1.841   2.807  0.7495  0.6088  0.5311
   98MOL0     C12825   8.727   1.836   2.798 -0.2939  0.4549 -0.5395
   98MOL0     C12826   8.691   1.688   2.791  0.5720 -0.7154 -0.2710
   98MOL0     C12827   8.540   1.661   2.789 -0.1234 -0.2330  0.0722
   98MOL0     O12828   8.509   1.675   2.931  0.1337 -0.5317 -0.7233
   98MOL0     C12829   8.403   1.617   2.996 -0.4051  0.4033 -0.8587
   98MOL0     C12830   8.335   1.511   2.946 -0.2651  0.1801 -0.6886
   98MOL0     C12831   8.226   1.464   3.010 -0.1690  0.3457  0.4884
   98MOL0     C12832   8.178   1.516   3.126 -0.0964 -1.1803 -0.2059
   98MOL0     C12833   8.066   1.459   3.209  0.1442  0.0586  0.6217
   98MOL0     O12834   8.026   1.522   3.323 -0.2657  0.3999 -0.2914
   98MOL0     C12835   7.918   1.479   3.388 -0.2962 -0.7925 -0.5076
   98MOL0     C12836   7.824   1.570   3.439  0.7544 -0.3777  0.6402
   98MOL0     C12837   7.718   1.534   3.529  0.2387  0.0550  0.5512
   98MOL0     C12838   7.721   1.402   3.582  0.0592 -0.0470 -0.2133
   98MOL0     O12839   7.639   1.360   3.688 -0.4277  0.5088  0.4455
   98MOL0     C12840   7.551   1.458   3.745 -1.4780 -0.8503 -0.2671
   98MOL0     C12841   7.470   1.386   3.845  0.4849 -0.1327  0.7532
   98MOL0     C12842   7.389   1.489   3.919 -1.2539 -0.2252 -0.2224
   98MOL0     C12843   7.307   1.435   4.031  0.0246  0.0466  0.6204
   98MOL0     C12844   7.257   1.530   4.131 -0.2401 -0.0176 -0.2210
   98MOL0     C12845   7.183   1.434   4.224  0.3442  0.0818 -0.1833
   98MOL0     C12846   7.124   1.501   4.345  0.2620  0.2076 -0.4733
   98MOL0     C12847   7.086   1.409   4.463 -0.2986 -1.4994  1.1131
   98MOL0    Cl12848   7.220   1.288   4.502 -0.0122  0.2740  0.0199
   98MOL0     C12849   7.813   1.308   3.539 -0.6416 -0.2158 -0.1010
   98MOL0     C12850   7.910   1.340   3.440  0.0320  0.1162  0.6876
   98MOL0     O12851   8.019   1.356   3.163  0.5473 -0.2364 -0.6743
   98MOL0     C12852   8.248   1.623   3.181 -0.3854  0.2531 -0.4181
   98MOL0     C12853   8.353   1.681   3.109  0.1569 -0.9675  0.1393
   98MOL0     N12854   8.944   1.851   2.559 -0.3363  0.1633 -0.8381
   98MOL0     N12855   9.034   1.789   2.488  0.4167 -0.2061  0.6665
   98MOL0     C12856  10.220   1.711   2.379  0.1312  0.4503 -0.8751
   98MOL0     C12857  10.322   1.805   2.400  0.1079  0.7371 -1.0014
   98MOL0     C12858  10.551   2.163   2.591  0.1424 -0.3653 -0.0140
   98MOL0     C12859  10.542   2.305   2.589 -0.2675  0.4466 -0.6533
   98MOL0     C12860  10.649   2.392   2.603  0.4513  0.1210  0.0315
   98MOL0     C12861  10.777   2.344   2.619  0.1389 -1.1603  0.3747
   98MOL0     O12862  10.871   2.439   2.643 -0.0130 -0.2366  0.4894
   98MOL0     C12863  10.978   2.410   2.731 -0.0836  0.1775 -0.4767
   98MOL0     C12864  10.934   2.393   2.883  0.6459  0.2317 -0.4999
   98MOL0     C12865  11.030   2.445   2.982  0.0591  0.4162  0.3785
   98MOL0     C12866  11.022   2.369   3.115  0.1420  0.1313  0.2687
   98MOL0     C12867  10.888   2.380   3.168  0.5094  0.3922  0.0346
   98MOL0     C12868  10.779   2.405   3.220  0.0066 -0.1900  0.7501
   98MOL0     C12869  10.798   2.206   2.621  0.1091  0.4106  0.0290
   98MOL0     C12870  10.688   2.117   2.598  0.2200  0.0879 -0.1062
   98MOL0     H12871  10.279   1.873   2.734  0.5433 -0.1736 -0.0225
   98MOL0     H12872  10.109   1.700   2.697  0.0825 -2.1664 -1.6279
   98MOL0     H12873  10.087   1.442   2.333  1.6568  2.7025  0.0669
   98MOL0     H12874   9.982   1.572   2.277 -2.5711  1.0330  1.1235
   98MOL0     H12875   9.869   1.373   2.463 -1.4897 -0.4000 -0.2867
   98MOL0     H12876   9.875   1.344   2.285 -3.5308  0.6844 -0.9095
   98MOL0     H12877   9.742   1.540   2.249  0.4271  1.0235  0.8922
   98MOL0     H12878   9.753   1.587   2.414  0.4892  2.4178 -2.6435
   98MOL0     H12879   9.612   1.334   2.310 -1.2871  0.0059  1.2002
   98MOL0     H12880   9.631   1.367   2.479  2.4395  1.3530  0.8172
   98MOL0     H12881   9.488   1.549   2.262 -3.1704 -0.9751  0.0976
   98MOL0     H12882   9.533   1.608   2.421  2.2458 -0.3263  1.1981
   98MOL0     H12883   9.395   1.427   2.536 -0.7856  1.6080  0.5846
   98MOL0     H12884   9.347   1.361   2.382 -0.1741 -0.2256 -1.2454
   98MOL0     H12885   9.238   1.593   2.323 -2.4518 -2.6023 -1.7892
   98MOL0     H12886   9.151   1.495   2.430 -0.1104 -1.5340  0.6307
   98MOL0     H12887   9.311   1.743   2.491 -3.0366  1.3175 -2.4874
   98MOL0     H12888   9.298   1.622   2.622  1.1693 -2.2686 -2.0086
   98MOL0     H12889   9.080   1.679   2.794  1.1257  0.7297 -0.0065
   98MOL0     H12890   8.917   1.937   2.846  0.4440  0.1538  1.9505
   98MOL0     H12891   8.919   1.763   2.875  1.1729 -2.7899 -3.1520
   98MOL0     H12892   8.703   1.888   2.704  1.3201  2.6918  0.2020
   98MOL0     H12893   8.660   1.881   2.872 -1.1653  0.3982 -1.2770
   98MOL0     H12894   8.725   1.658   2.692 -1.5051  0.0076 -1.2806
   98MOL0     H12895   8.741   1.622   2.862 -0.3543 -2.1291 -0.8933
   98MOL0     H12896   8.520   1.566   2.740  0.3529  0.2673 -1.1114
   98MOL0     H12897   8.489   1.729   2.721 -1.4359 -4.0471 -3.1378
   98MOL0     H12898   8.365   1.470   2.850  1.6537  1.5682 -0.7389
   98MOL0     H12899   8.178   1.383   2.954  0.7362  1.4130 -1.9858
   98MOL0     H12900   7.823   1.674   3.408 -0.2488  0.5265  3.4051
   98MOL0     H12901   7.654   1.614   3.563 -3.2279 -2.4095  0.3270
   98MOL0     H12902   7.490   1.494   3.662 -3.2666 -0.2172  1.2620
   98MOL0     H12903   7.601   1.539   3.798 -1.3760  0.0426 -1.6841
   98MOL0     H12904   7.537   1.343   3.920 -0.7303 -2.0945  0.7871
   98MOL0     H12905   7.407   1.308   3.801 -0.0489  0.7556 -0.0810
   98MOL0     H12906   7.335   1.528   3.832  0.5979 -3.0840 -2.8822
   98MOL0     H12907   7.449   1.573   3.955 -0.5602  1.1804 -4.1702
   98MOL0     H12908   7.220   1.386   3.985  0.9910 -0.2962 -0.9103
   98MOL0     H12909   7.371   1.357   4.073  1.9332  0.9148 -0.5368
   98MOL0     H12910   7.192   1.603   4.082  0.4937 -0.2205 -1.5425
   98MOL0     H12911   7.332   1.595   4.177 -2.9406  3.3099 -0.1105
   98MOL0     H12912   7.246   1.351   4.257  0.3910 -1.1639 -3.1631
   98MOL0     H12913   7.100   1.378   4.180  2.9679 -3.3367 -1.2088
   98MOL0     H12914   7.189   1.574   4.394 -2.8833  2.4973  0.6060
   98MOL0     H12915   7.044   1.567   4.311  2.0010  3.3614  1.1535
   98MOL0     H12916   6.992   1.356   4.444 -2.2111  1.4271  1.7040
   98MOL0     H12917   7.058   1.471   4.549  1.6097 -0.1911  0.8472
   98MOL0     H12918   7.812   1.206   3.577  3.9236 -1.2080 -2.0096
   98MOL0     H12919   7.981   1.266   3.407 -3.4151 -2.6047 -1.3349
   98MOL0     H12920   8.214   1.668   3.274  1.7198  1.2360 -0.0724
   98MOL0     H12921   8.401   1.772   3.143 -1.1393  0.4927 -1.7266
   98MOL0     H12922  10.198   1.669   2.281 -2.5262  1.1797 -0.6713
   98MOL0     H12923  10.379   1.843   2.316  0.9826  3.6591  0.7607
   98MOL0     H12924  10.439   2.336   2.570 -0.8139 -0.6817  0.2968
   98MOL0     H12925  10.636   2.500   2.607  0.1710  0.0561  1.0340
   98MOL0     H12926  11.049   2.493   2.729 -1.6178  1.6828  1.7576
   98MOL0     H12927  11.046   2.333   2.693 -1.0280 -1.0931  0.3164
   98MOL0     H12928  10.840   2.449   2.889 -0.1283 -1.1808  1.6657
   98MOL0     H12929  10.911   2.287   2.899 -1.1665  0.4043 -1.6164
   98MOL0     H12930  11.012   2.550   3.005 -0.1778  1.2591 -3.0717
   98MOL0     H12931  11.131   2.435   2.941  0.5207 -1.2370  1.8110
   98MOL0     H12932  11.055   2.265   3.102  2.0921  0.8523 -0.9761
   98MOL0     H12933  11.092   2.415   3.185  0.4231  4.7039 -2.6660
   98MOL0     H12934  10.677   2.423   3.248 -0.8036  3.0705 -3.2690
   98MOL0     H12935  10.897   2.168   2.643 -1.5203 -3.7898  1.0124
   98MOL0     H12936  10.706   2.010   2.591 -1.0986 -0.1208 -0.3970
   99MOL0     O12937  11.251   8.453   1.196  0.3949 -0.3092  0.3032
   99MOL0     C12938  11.226   8.339   1.249 -0.4519 -0.9126 -0.2174
   99MOL0     O12939  11.114   8.266   1.244 -0.2859 -0.1849  0.2229
   99MOL0     C12940  11.016   8.313   1.162  0.3718 -0.5445  0.0665
   99MOL0     C12941  11.035   8.371   1.032  0.3681  0.4182 -0.2774
   99MOL0     C12942  10.923   8.411   0.960 -0.0937 -0.5652  0.4427
   99MOL0     C12943  10.789   8.389   1.015  0.2445 -0.2602 -0.4370
   99MOL0     O12944  10.674   8.433   0.953  0.2800  0.9519 -0.1662
   99MOL0     C12945  10.659   8.446   0.810 -0.2005 -0.6218  0.3307
   99MOL0     C12946  10.526   8.384   0.777 -0.2531 -0.2056  0.2681
   99MOL0     C12947  10.453   8.433   0.652 -1.8513  0.4645 -0.3291
   99MOL0     C12948  10.393   8.572   0.674  0.6236  0.2564  0.1716
   99MOL0     C12949  10.238   8.551   0.689  0.5362  0.5053 -0.3563
   99MOL0     C12950  10.166   8.684   0.659 -0.1343 -0.3391 -0.0302
   99MOL0     C12951  10.016   8.684   0.687  0.6019 -0.5263 -1.2801
   99MOL0     C12952   9.959   8.831   0.689  0.0143 -0.1774  0.6410
   99MOL0     N12953   9.813   8.826   0.671 -0.8277  0.2279  0.7552
   99MOL0     C12954   9.753   8.865   0.550 -0.4297  0.4354  0.6742
   99MOL0     C12955   9.625   8.837   0.583  0.2776  0.1913  0.6045
   99MOL0     C12956   9.507   8.879   0.488 -0.4358 -0.2567 -0.2514
   99MOL0     C12957   9.376   8.809   0.522  0.5974 -0.2514 -0.1004
   99MOL0     C12958   9.257   8.880   0.444  0.0436  0.0294 -0.9111
   99MOL0     C12959   9.119   8.814   0.491  0.1472  0.2281  0.7063
   99MOL0     O12960   9.018   8.909   0.449 -0.4010 -0.3470  0.2922
   99MOL0     C12961   8.881   8.866   0.456 -0.2900  0.1769  0.1903
   99MOL0     C12962   8.787   8.953   0.409  0.4446  0.7674  0.1873
   99MOL0     C12963   8.655   8.917   0.415  0.7489  0.3494  0.1431
   99MOL0     C12964   8.613   8.797   0.469  0.8403  0.7209 -1.1218
   99MOL0     C12965   8.469   8.766   0.486  0.9790  0.5897 -0.2640
   99MOL0     O12966   8.375   8.845   0.419  0.6040 -0.4807 -0.6933
   99MOL0     C12967   8.247   8.806   0.406  1.0224  0.1332 -1.4147
   99MOL0     C12968   8.210   8.680   0.358 -0.6645 -0.0445  0.4745
   99MOL0     C12969   8.077   8.641   0.358  0.3666 -0.3819 -0.5385
   99MOL0     C12970   7.980   8.737   0.403 -0.7435  0.7457 -0.2267
   99MOL0     O12971   7.842   8.728   0.411  0.1458 -0.4535 -0.1156
   99MOL0     C12972   7.803   8.592   0.413 -0.0927 -0.8435 -1.0406
   99MOL0     C12973   7.650   8.592   0.431  0.8000  0.0533 -1.2418
   99MOL0     C12974   7.619   8.667   0.562 -0.3240  0.1988  0.4731
   99MOL0     C12975   7.467   8.678   0.585 -0.4751  0.4882  0.1082
   99MOL0     C12976   7.432   8.751   0.714  0.2080  0.7851 -0.8605
   99MOL0     C12977   7.288   8.736   0.760 -0.3667 -0.5081  0.5690
   99MOL0     C12978   7.266   8.589   0.792 -0.6586  0.1931 -0.9492
   99MOL0     C12979   7.158   8.567   0.899  0.2817 -0.1652  0.3513
   99MOL0    Cl12980   7.099   8.401   0.891  0.1935 -0.6107  0.4764
   99MOL0     C12981   8.019   8.863   0.439  0.5113 -0.0208 -0.1560
   99MOL0     C12982   8.149   8.894   0.456 -0.0573 -0.9620  0.3499
   99MOL0     O12983   8.429   8.657   0.533 -0.1934 -0.5707  0.8249
   99MOL0     C12984   8.714   8.712   0.528 -0.3304 -0.5509  0.9723
   99MOL0     C12985   8.846   8.745   0.515  0.5154  1.0055 -0.1658
   99MOL0     N12986   9.611   8.785   0.714 -0.3366 -0.8474  0.0962
   99MOL0     N12987   9.726   8.782   0.768  0.5083 -0.2487  0.0840
   99MOL0     C12988  10.772   8.338   1.146  0.7182 -0.4546  0.8124
   99MOL0     C12989  10.885   8.295   1.211  0.1155  0.3803 -0.6276
   99MOL0     C12990  11.324   8.289   1.359 -0.4411 -0.2255 -0.6574
   99MOL0     C12991  11.444   8.358   1.392 -0.2270  0.1368 -0.0021
   99MOL0     C12992  11.535   8.307   1.491 -0.4230  0.2434 -0.2581
   99MOL0     C12993  11.514   8.180   1.543  0.7504  1.3864 -0.3415
   99MOL0     O12994  11.599   8.108   1.626  0.3092  0.7929 -0.9503
   99MOL0     C12995  11.718   8.177   1.675  0.2291  0.2281 -1.0229
   99MOL0     C12996  11.809   8.071   1.744 -0.1689 -0.7159 -0.8274
   99MOL0     C12997  11.914   8.130   1.822  0.8388  1.2593 -0.3481
   99MOL0     C12998  11.991   8.038   1.912 -0.0845  0.1356  0.0046
   99MOL0     C12999  11.911   8.021   2.038  0.7116  0.6550  0.0466
   99MOL0     C13000  11.858   8.017   2.147  0.6439  0.0030  0.2989
   99MOL0     C13001  11.394   8.119   1.526 -0.1245  0.5177  0.4874
   99MOL0     C13002  11.302   8.165   1.429  0.9661 -0.2710  0.0513
   99MOL0     H13003  11.134   8.383   0.988  1.2024 -2.4399  0.6100
   99MOL0     H13004  10.936   8.458   0.862 -1.6622  4.5697  2.3711
   99MOL0     H13005  10.748   8.399   0.768  0.8844  0.1250  1.7051
   99MOL0     H13006  10.668   8.552   0.784  1.0444 -0.4464  1.3740
   99MOL0     H13007  10.450   8.389   0.855 -0.3560 -1.4821  0.2748
   99MOL0     H13008  10.544   8.276   0.775 -1.5715 -0.4355  0.1341
   99MOL0     H13009  10.393   8.355   0.606  2.8475 -3.3232 -0.8891
   99MOL0     H13010  10.529   8.430   0.573 -1.8929 -0.3750 -0.3471
   99MOL0     H13011  10.442   8.623   0.758 -0.9597  3.3833 -0.6475
   99MOL0     H13012  10.406   8.625   0.579 -0.9857 -1.8137 -1.2866
   99MOL0     H13013  10.218   8.506   0.787 -1.8930 -2.1465 -1.9457
   99MOL0     H13014  10.191   8.479   0.622  0.2025  1.8706 -1.6312
   99MOL0     H13015  10.190   8.714   0.556  0.6638  0.1948  0.3085
   99MOL0     H13016  10.207   8.755   0.731  1.3846  0.3352 -1.4866
   99MOL0     H13017   9.977   8.625   0.603  0.6668 -1.1761 -0.8516
   99MOL0     H13018  10.004   8.634   0.783  0.9140  1.7312  0.0071
   99MOL0     H13019  10.020   8.895   0.625  2.2610 -0.1681  2.6412
   99MOL0     H13020   9.973   8.878   0.787 -0.7203  0.2397  0.5542
   99MOL0     H13021   9.798   8.919   0.468 -0.5997  1.1080  1.0174
   99MOL0     H13022   9.532   8.860   0.383  1.0633 -0.5153  0.1167
   99MOL0     H13023   9.506   8.988   0.497  0.4892 -0.1142 -1.5499
   99MOL0     H13024   9.357   8.822   0.629  3.2881  1.3917  0.2979
   99MOL0     H13025   9.378   8.701   0.505 -1.6348 -0.0546 -2.0225
   99MOL0     H13026   9.255   8.983   0.480 -1.7020  0.2749 -1.5902
   99MOL0     H13027   9.278   8.885   0.337  0.2625  1.0920 -0.8297
   99MOL0     H13028   9.117   8.798   0.599 -1.2052  2.0140  0.9908
   99MOL0     H13029   9.104   8.720   0.439 -2.7035  1.1379 -0.3116
   99MOL0     H13030   8.808   9.044   0.354  0.4337 -0.6313 -2.3223
   99MOL0     H13031   8.588   8.993   0.376  0.4955 -0.1513 -0.4011
   99MOL0     H13032   8.276   8.602   0.321 -0.8585  0.3755 -0.8106
   99MOL0     H13033   8.061   8.540   0.323 -2.1987 -1.0331  2.0970
   99MOL0     H13034   7.848   8.536   0.496 -1.5637 -1.8283 -0.8599
   99MOL0     H13035   7.840   8.549   0.320  2.4690  1.1979 -1.0628
   99MOL0     H13036   7.621   8.489   0.454  1.2902  0.4271  1.3751
   99MOL0     H13037   7.596   8.635   0.347 -1.2473  0.4973  0.2273
   99MOL0     H13038   7.659   8.769   0.569 -0.5301  0.7868 -4.1425
   99MOL0     H13039   7.658   8.609   0.646 -0.8566 -1.0660 -0.1402
   99MOL0     H13040   7.436   8.737   0.498  2.0697  0.2122 -1.0874
   99MOL0     H13041   7.417   8.581   0.584 -0.8592  0.6267  2.1582
   99MOL0     H13042   7.469   8.854   0.713  0.2543  0.8092  0.7290
   99MOL0     H13043   7.503   8.711   0.786  2.3698  1.6226 -2.4380
   99MOL0     H13044   7.216   8.757   0.680 -0.2752  0.6838  0.7928
   99MOL0     H13045   7.263   8.808   0.838  2.1062  0.5245  0.5018
   99MOL0     H13046   7.243   8.533   0.701  0.6589  1.7370 -2.2809
   99MOL0     H13047   7.362   8.541   0.810 -1.0175  0.2449  1.4559
   99MOL0     H13048   7.075   8.637   0.882 -0.0738 -0.4824  0.7732
   99MOL0     H13049   7.199   8.573   1.000 -0.9214  0.6045  0.8130
   99MOL0     H13050   7.952   8.941   0.474  2.1340  0.6158  1.7789
   99MOL0     H13051   8.181   8.992   0.488  0.1465 -0.7723 -0.4282
   99MOL0     H13052   8.668   8.628   0.580 -2.8649  1.8234  2.9217
   99MOL0     H13053   8.912   8.686   0.578  0.1345  1.0684  0.2974
   99MOL0     H13054  10.671   8.331   1.184  0.3755  0.7839  0.1947
   99MOL0     H13055  10.862   8.250   1.307 -1.5148  0.4480 -0.9595
   99MOL0     H13056  11.452   8.461   1.359  0.1157  0.3164  0.6121
   99MOL0     H13057  11.621   8.369   1.518 -0.4042  0.6691 -1.2405
   99MOL0     H13058  11.684   8.262   1.735  1.2598  0.7434 -1.1522
   99MOL0     H13059  11.787   8.220   1.602  1.7501  0.6087  0.5896
   99MOL0     H13060  11.748   8.022   1.821 -0.8237  2.3778  0.8004
   99MOL0     H13061  11.859   8.003   1.675 -1.7422  0.1843 -2.9348
   99MOL0     H13062  11.874   8.209   1.887  2.1503  0.5734  1.3812
   99MOL0     H13063  11.982   8.182   1.754  2.1717 -0.7969 -0.6764
   99MOL0     H13064  12.013   7.942   1.865 -1.2519 -0.1590  0.0137
   99MOL0     H13065  12.087   8.076   1.946 -0.8578  1.2892  0.9742
   99MOL0     H13066  11.802   8.020   2.238 -0.3248  2.4454 -0.3107
   99MOL0     H13067  11.372   8.034   1.590 -1.1587 -0.6087 -1.2468
   99MOL0     H13068  11.214   8.102   1.418 -0.3255  1.4688  0.1347
  100MOL0     O13069   6.226   0.365   2.700 -0.2656  0.1156  1.0197
  100MOL0     C13070   6.284   0.395   2.807  0.0602  0.3848 -0.4467
  100MOL0     O13071   6.414   0.438   2.825 -0.1324 -1.0456  0.0475
  100MOL0     C13072   6.487   0.488   2.718 -1.6476 -0.4032 -0.7505
  100MOL0     C13073   6.625   0.493   2.732 -0.5691 -0.0575 -0.8810
  100MOL0     C13074   6.694   0.538   2.625 -0.4188 -0.1135  0.2605
  100MOL0     C13075   6.635   0.597   2.511  0.6291  0.5570  0.1968
  100MOL0     O13076   6.700   0.626   2.402 -1.0513  0.5193 -0.0316
  100MOL0     C13077   6.700   0.770   2.376 -0.0109  0.3763  0.8373
  100MOL0     C13078   6.739   0.872   2.480 -0.0649 -0.2576 -0.6399
  100MOL0     C13079   6.893   0.901   2.470  0.3196  0.1423 -0.4500
  100MOL0     C13080   6.924   1.007   2.582  0.1238  0.0015 -1.1254
  100MOL0     C13081   7.072   1.032   2.579 -0.4627  0.8267  0.1489
  100MOL0     C13082   7.099   1.125   2.696  1.0373  0.0797  0.4688
  100MOL0     C13083   7.248   1.141   2.703 -0.6782 -0.7928 -0.7621
  100MOL0     C13084   7.328   1.016   2.753 -0.5428 -0.7083 -0.3446
  100MOL0     N13085   7.278   0.951   2.875  0.4714  0.2849  0.1203
  100MOL0     C13086   7.177   0.858   2.882  0.6216  0.8737  0.6247
  100MOL0     C13087   7.170   0.800   3.005  0.1252  0.1489  0.9350
  100MOL0     C13088   7.083   0.684   3.053  0.1931 -0.6799  0.0979
  100MOL0     C13089   6.941   0.715   3.073 -0.2006 -0.2512  0.0650
  100MOL0     C13090   6.866   0.754   2.951  0.3511 -0.0149  0.0780
  100MOL0     C13091   6.715   0.729   2.973  0.5357 -0.0603  0.0733
  100MOL0     O13092   6.670   0.807   3.087  0.1592 -0.3992  0.8730
  100MOL0     C13093   6.545   0.783   3.142  0.0677 -0.0920  0.8799
  100MOL0     C13094   6.427   0.797   3.073 -0.2265 -0.0340  0.1280
  100MOL0     C13095   6.304   0.773   3.125  0.2062 -1.2058  0.4458
  100MOL0     C13096   6.292   0.731   3.259 -0.8649 -0.0151 -0.5792
  100MOL0     C13097   6.162   0.679   3.312  0.0182  0.5222  0.2986
  100MOL0     O13098   6.148   0.655   3.446 -0.8964  0.9956 -0.2004
  100MOL0     C13099   6.021   0.616   3.484 -0.7556 -0.3969 -0.3190
  100MOL0     C13100   6.013   0.478   3.519  0.5450  0.1746  0.6058
  100MOL0     C13101   5.893   0.424   3.565 -0.1638  0.1000 -0.2135
  100MOL0     C13102   5.782   0.505   3.581 -0.2648  0.3316  0.0835
  100MOL0     O13103   5.662   0.457   3.617  1.0404 -0.5356 -0.1646
  100MOL0     C13104   5.658   0.395   3.742 -0.1803 -0.0536  0.2496
  100MOL0     C13105   5.514   0.352   3.765 -0.2281 -0.5527 -0.0548
  100MOL0     C13106   5.434   0.474   3.818  0.2683 -0.5764 -0.1052
  100MOL0     C13107   5.286   0.439   3.856  0.2852  1.1156  0.1349
  100MOL0     C13108   5.196   0.554   3.861  0.9824  0.0975 -0.2994
  100MOL0     C13109   5.047   0.516   3.866 -0.1361  0.3807 -0.5498
  100MOL0     C13110   5.016   0.420   3.989  0.6068 -0.2545  0.2376
  100MOL0     C13111   4.863   0.440   4.036 -0.6247 -0.5481 -0.3759
  100MOL0    Cl13112   4.800   0.305   4.114  0.2855  0.6379  0.0516
  100MOL0     C13113   5.792   0.634   3.546  0.1990  0.3057  0.1846
  100MOL0     C13114   5.910   0.690   3.493 -0.5611 -0.8629 -0.3589
  100MOL0     O13115   6.075   0.660   3.231  0.8233 -0.0794 -0.2886
  100MOL0     C13116   6.407   0.716   3.334 -0.7918 -0.7868  0.4990
  100MOL0     C13117   6.539   0.748   3.275  0.7223  0.0023 -0.1729
  100MOL0     N13118   7.278   0.860   3.069 -0.1967  0.8588  0.6683
  100MOL0     N13119   7.330   0.958   2.998  0.1521 -0.8425  0.3731
  100MOL0     C13120   6.495   0.611   2.512  0.9301  0.9473 -1.1330
  100MOL0     C13121   6.423   0.548   2.615  1.0855 -0.6607  0.5581
  100MOL0     C13122   6.227   0.361   2.930 -0.1080  0.6851  0.5803
  100MOL0     C13123   6.273   0.396   3.063  0.0132 -0.1840  0.6272
  100MOL0     C13124   6.216   0.345   3.182  0.3766  0.3351  0.0196
  100MOL0     C13125   6.098   0.276   3.178 -0.7082 -0.3291 -0.8110
  100MOL0     O13126   6.050   0.247   3.301 -0.2095 -0.2707 -0.6148
  100MOL0     C13127   5.964   0.126   3.323  1.0401  0.0113 -0.1899
  100MOL0     C13128   5.827   0.181   3.320 -0.2063  0.0583 -0.3051
  100MOL0     C13129   5.741   0.109   3.420  0.8455 -0.0070  0.2825
  100MOL0     C13130   5.701  -0.036   3.382  0.3168  0.4172 -0.6851
  100MOL0     C13131   5.639  -0.053   3.258 -0.6329  0.2092 -0.4722
  100MOL0     C13132   5.584  -0.064   3.150 -0.6117  0.1654 -0.3727
  100MOL0     C13133   6.046   0.239   3.052  0.6617 -0.0312  0.1191
  100MOL0     C13134   6.107   0.285   2.933  0.2266 -0.4403 -1.0062
  100MOL0     H13135   6.672   0.444   2.818  2.4626  2.3195 -1.0250
  100MOL0     H13136   6.802   0.544   2.624 -0.3379 -1.3217  0.5424
  100MOL0     H13137   6.601   0.798   2.340  0.3840  0.2139 -0.4251
  100MOL0     H13138   6.753   0.782   2.281 -0.3410  1.1551  0.7402
  100MOL0     H13139   6.704   0.840   2.578 -1.6611  2.3874 -0.2483
  100MOL0     H13140   6.677   0.961   2.465 -3.4467 -2.5298 -1.1568
  100MOL0     H13141   6.918   0.927   2.366 -1.7702  0.0125 -1.0174
  100MOL0     H13142   6.961   0.817   2.489  1.6802  0.5095 -3.1085
  100MOL0     H13143   6.858   1.094   2.574 -2.4199 -1.5357  1.1837
  100MOL0     H13144   6.892   0.970   2.680 -3.2672  2.0717 -1.2895
  100MOL0     H13145   7.096   1.081   2.484 -2.0422  1.6761  0.1566
  100MOL0     H13146   7.125   0.937   2.594  3.4857  2.9998  1.2920
  100MOL0     H13147   7.063   1.086   2.792  0.0416 -2.5682 -0.8855
  100MOL0     H13148   7.038   1.215   2.689 -2.1161 -1.8311  1.1997
  100MOL0     H13149   7.284   1.188   2.611  0.1893  0.0261 -0.0330
  100MOL0     H13150   7.258   1.225   2.774 -3.4049  0.0603 -1.2800
  100MOL0     H13151   7.433   1.040   2.770 -0.8815  0.0947  0.7372
  100MOL0     H13152   7.333   0.942   2.672 -2.2635  0.5559 -1.6790
  100MOL0     H13153   7.125   0.835   2.790  3.6210 -2.5017 -0.4491
  100MOL0     H13154   7.124   0.662   3.151 -0.1469 -3.4746 -0.3236
  100MOL0     H13155   7.099   0.595   2.991  0.2754 -0.2069 -0.5806
  100MOL0     H13156   6.918   0.800   3.138 -0.1818 -0.5448  0.4617
  100MOL0     H13157   6.896   0.623   3.112 -1.5342 -0.6209 -2.1386
  100MOL0     H13158   6.874   0.858   2.919 -2.8633 -0.6252 -3.3334
  100MOL0     H13159   6.896   0.697   2.862  1.5860  0.9671 -0.1606
  100MOL0     H13160   6.701   0.621   2.984 -0.5349 -0.2563 -2.5686
  100MOL0     H13161   6.652   0.761   2.889 -0.6626 -0.8176  0.6664
  100MOL0     H13162   6.444   0.829   2.970  3.2668 -2.6338 -0.3085
  100MOL0     H13163   6.210   0.769   3.071 -0.0570 -2.2453  0.9527
  100MOL0     H13164   6.100   0.415   3.503 -0.3424 -1.0051  0.3158
  100MOL0     H13165   5.886   0.320   3.595 -2.6126 -0.8575 -3.5086
  100MOL0     H13166   5.687   0.469   3.817  2.3187 -0.0117 -0.6354
  100MOL0     H13167   5.717   0.302   3.748 -0.8944 -0.4776  0.9315
  100MOL0     H13168   5.503   0.270   3.837 -0.4580 -3.0752 -2.7347
  100MOL0     H13169   5.459   0.313   3.678 -0.6608  1.6321 -0.8335
  100MOL0     H13170   5.424   0.550   3.740 -1.1111 -1.2607 -0.6298
  100MOL0     H13171   5.477   0.532   3.901 -1.5999 -1.0641  1.2617
  100MOL0     H13172   5.248   0.371   3.780  1.4092  1.5782 -0.8772
  100MOL0     H13173   5.288   0.379   3.948 -1.4262  0.1514 -0.4141
  100MOL0     H13174   5.227   0.624   3.783  0.1323  2.0076  1.0108
  100MOL0     H13175   5.226   0.605   3.952 -0.5341 -1.0932  0.9118
  100MOL0     H13176   5.001   0.496   3.768 -0.1295  0.6747 -0.6130
  100MOL0     H13177   5.010   0.614   3.895  1.6305  0.6318  1.0384
  100MOL0     H13178   5.020   0.319   3.948 -0.6987 -2.5384  5.0320
  100MOL0     H13179   5.082   0.435   4.075  0.2379  0.3445  0.4270
  100MOL0     H13180   4.810   0.451   3.941  0.2240 -1.9367 -1.0386
  100MOL0     H13181   4.855   0.533   4.094  0.6818 -0.0678 -0.9349
  100MOL0     H13182   5.714   0.708   3.560 -3.6187 -2.9782 -1.7130
  100MOL0     H13183   5.906   0.797   3.476 -0.0945 -1.0320 -1.6279
  100MOL0     H13184   6.412   0.672   3.433 -1.3971 -0.5546  0.6345
  100MOL0     H13185   6.633   0.731   3.325 -0.8340 -3.0266  2.0149
  100MOL0     H13186   6.444   0.641   2.422 -1.2202  0.6539 -0.0659
  100MOL0     H13187   6.318   0.570   2.601  2.1026  3.3878 -3.2297
  100MOL0     H13188   6.360   0.460   3.070  0.6438 -0.7238 -1.6398
  100MOL0     H13189   6.265   0.364   3.277  0.6103 -2.3289  0.4928
  100MOL0     H13190   5.987   0.077   3.418  3.7487  1.1554 -0.1783
  100MOL0     H13191   5.972   0.050   3.245  0.4335 -0.9562  0.6598
  100MOL0     H13192   5.822   0.286   3.348  0.9663 -0.2679  1.3334
  100MOL0     H13193   5.785   0.177   3.219 -0.8648  0.1645 -0.0401
  100MOL0     H13194   5.645   0.158   3.432 -0.5532 -2.4408 -0.2100
  100MOL0     H13195   5.774   0.117   3.524 -1.6265  1.6571  1.0291
  100MOL0     H13196   5.795  -0.091   3.389  0.2980  0.5577  1.3982
  100MOL0     H13197   5.621  -0.066   3.450 -0.8334  1.7634 -1.3797
  100MOL0     H13198   5.544  -0.080   3.052 -1.4937 -1.4280  0.2048
  100MOL0     H13199   5.956   0.181   3.035  1.2073 -0.2731 -2.3268
  100MOL0     H13200   6.079   0.240   2.838  1.7615 -0.6046 -1.4129
  101MOL0     O13201   2.303   1.436   7.956 -0.4196  0.3170  0.5561
  101MOL0     C13202   2.309   1.317   8.000  0.8590 -0.8555  0.5023
  101MOL0     O13203   2.416   1.251   8.036  0.0077  0.1044 -1.0178
  101MOL0     C13204   2.537   1.305   7.998 -1.0818 -0.1128  0.3120
  101MOL0     C13205   2.588   1.303   7.861  0.7968  1.0151 -0.3050
  101MOL0     C13206   2.704   1.367   7.826 -0.3753  0.2867 -0.1928
  101MOL0     C13207   2.782   1.437   7.925  1.2356 -1.1563  0.2677
  101MOL0     O13208   2.887   1.515   7.879  0.7003 -0.4257 -0.0933
  101MOL0     C13209   2.989   1.531   7.975 -0.6675 -0.9267  0.3817
  101MOL0     C13210   3.103   1.600   7.909  0.0525 -1.3170 -0.7968
  101MOL0     C13211   3.156   1.494   7.813 -0.7846 -0.1334 -0.5514
  101MOL0     C13212   3.276   1.543   7.724 -0.1898  0.1126  0.7359
  101MOL0     C13213   3.343   1.435   7.627 -0.9736 -0.0065  0.1893
  101MOL0     C13214   3.269   1.410   7.497  0.0940  0.2575  0.8643
  101MOL0     C13215   3.331   1.291   7.423 -1.0793  0.4222  0.3635
  101MOL0     C13216   3.261   1.245   7.296  0.1452  0.0298  0.1445
  101MOL0     N13217   3.115   1.205   7.311 -0.3001 -0.4281  0.0118
  101MOL0     C13218   3.013   1.289   7.273 -0.2626 -0.6193 -0.8829
  101MOL0     C13219   2.911   1.221   7.325  0.3924 -0.4890  0.6051
  101MOL0     C13220   2.763   1.259   7.304 -0.1103 -0.6980 -0.2140
  101MOL0     C13221   2.698   1.302   7.436 -0.5586 -0.7304  0.0032
  101MOL0     C13222   2.548   1.327   7.408  0.1465  0.6080  0.4091
  101MOL0     C13223   2.452   1.217   7.448  0.7498 -0.2267  0.2195
  101MOL0     O13224   2.315   1.262   7.459 -0.0887  0.1198 -0.4624
  101MOL0     C13225   2.226   1.169   7.524  0.6889 -0.2034  0.4509
  101MOL0     C13226   2.253   1.038   7.545 -0.1027  0.5399 -0.2318
  101MOL0     C13227   2.150   0.951   7.587  0.7202  0.0052 -0.3758
  101MOL0     C13228   2.018   0.991   7.621  0.7054 -0.0560  0.7293
  101MOL0     C13229   1.916   0.906   7.672  0.3097 -0.3416 -0.5986
  101MOL0     O13230   1.791   0.962   7.697 -0.3724  0.2809 -0.4284
  101MOL0     C13231   1.680   0.877   7.700 -0.1548 -0.1362  1.2397
  101MOL0     C13232   1.592   0.910   7.798  0.4901 -0.3642  0.5731
  101MOL0     C13233   1.482   0.822   7.823 -0.2612  0.9099  0.5225
  101MOL0     C13234   1.452   0.711   7.737 -0.6233 -1.0769  0.1259
  101MOL0     O13235   1.354   0.615   7.753  0.6663 -0.4363 -0.6233
  101MOL0     C13236   1.263   0.635   7.861 -0.2868  0.1351  0.7627
  101MOL0     C13237   1.181   0.510   7.893  0.5299 -0.4304 -0.4227
  101MOL0     C13238   1.123   0.503   8.040 -0.1826 -0.0619 -0.5460
  101MOL0     C13239   1.092   0.361   8.081  0.0738  0.6271  0.2337
  101MOL0     C13240   1.059   0.346   8.234  0.0762  0.2820  0.3653
  101MOL0     C13241   0.989   0.209   8.257 -0.5996 -0.2173 -0.4853
  101MOL0     C13242   0.969   0.182   8.413  0.5811  0.3396  0.3467
  101MOL0     C13243   0.998   0.037   8.435 -0.8107  0.4468  0.0917
  101MOL0    Cl13244   0.876  -0.063   8.337 -0.2736  0.3933 -0.0218
  101MOL0     C13245   1.540   0.687   7.636  0.7458 -0.9277  0.2479
  101MOL0     C13246   1.656   0.771   7.616 -0.3851  1.3064 -0.7306
  101MOL0     O13247   1.944   0.788   7.680 -0.4340  0.1411 -0.1202
  101MOL0     C13248   1.994   1.129   7.601 -0.3905 -0.5099 -0.3460
  101MOL0     C13249   2.094   1.212   7.555  0.1003 -0.0823  0.0007
  101MOL0     N13250   2.952   1.119   7.400  0.3911  1.2184 -0.7973
  101MOL0     N13251   3.075   1.103   7.396  0.1823  0.9465 -0.0792
  101MOL0     C13252   2.731   1.442   8.057 -0.4383 -0.2878 -0.0229
  101MOL0     C13253   2.612   1.383   8.090 -0.4940 -0.0238  0.3155
  101MOL0     C13254   2.179   1.239   8.015  0.7978 -1.0222  0.4093
  101MOL0     C13255   2.060   1.280   7.947  1.1762 -0.3696 -0.2836
  101MOL0     C13256   1.948   1.195   7.950 -0.6368 -0.5971 -1.0048
  101MOL0     C13257   1.946   1.082   8.033 -1.6252  0.4483 -0.5301
  101MOL0     O13258   1.826   1.018   8.030 -1.2191 -0.3230  0.1644
  101MOL0     C13259   1.821   0.884   8.072 -0.2421 -0.7813  0.0220
  101MOL0     C13260   1.800   0.844   8.221 -0.6410 -0.8013 -0.0516
  101MOL0     C13261   1.661   0.873   8.282 -0.7242  0.1590  0.6860
  101MOL0     C13262   1.552   0.784   8.218  0.6494  0.5523  0.3315
  101MOL0     C13263   1.571   0.640   8.206  0.2382  0.7718  0.1939
  101MOL0     C13264   1.588   0.522   8.177  0.2660 -0.7534 -0.4911
  101MOL0     C13265   2.053   1.060   8.117 -0.9889  0.1551  0.1609
  101MOL0     C13266   2.171   1.134   8.108 -0.5100 -0.7122  0.2966
  101MOL0     H13267   2.537   1.244   7.786  1.8905  0.8829 -0.9584
  101MOL0     H13268   2.738   1.380   7.724 -1.0775  3.8466 -0.0911
  101MOL0     H13269   3.023   1.436   8.017  1.5489 -0.6508 -0.6448
  101MOL0     H13270   2.955   1.591   8.060 -1.4155  0.7315 -1.0513
  101MOL0     H13271   3.182   1.640   7.973 -0.0159 -0.4170 -1.2511
  101MOL0     H13272   3.064   1.682   7.847  0.1557 -0.1290  0.6420
  101MOL0     H13273   3.083   1.453   7.743 -0.0811 -2.5835  0.0362
  101MOL0     H13274   3.198   1.418   7.880 -0.7383  0.9699  0.7033
  101MOL0     H13275   3.228   1.619   7.661 -0.8657 -2.7198 -2.4428
  101MOL0     H13276   3.360   1.577   7.785  0.1593  2.2544 -0.8117
  101MOL0     H13277   3.363   1.339   7.676 -0.4276 -1.0023 -1.8447
  101MOL0     H13278   3.440   1.475   7.599  0.7676 -2.6337  1.9711
  101MOL0     H13279   3.269   1.499   7.434 -0.6851 -0.1935  0.2176
  101MOL0     H13280   3.172   1.368   7.522  0.3452  0.1637  1.7166
  101MOL0     H13281   3.429   1.333   7.397 -1.8887  0.8656 -2.2509
  101MOL0     H13282   3.333   1.204   7.488  2.0218 -0.0759 -0.2324
  101MOL0     H13283   3.313   1.151   7.276  1.7632  0.1024  3.3243
  101MOL0     H13284   3.278   1.318   7.217  0.7287 -0.4250 -0.1565
  101MOL0     H13285   3.018   1.384   7.220  0.9108 -0.3668 -0.3387
  101MOL0     H13286   2.706   1.176   7.261 -3.2813 -0.0740  2.3876
  101MOL0     H13287   2.759   1.349   7.242  2.4026  0.8532  1.6507
  101MOL0     H13288   2.748   1.396   7.462  0.0784 -0.6397 -1.4400
  101MOL0     H13289   2.722   1.237   7.520  4.2960 -0.3426 -0.8109
  101MOL0     H13290   2.522   1.419   7.461 -2.4158 -1.9812  4.2497
  101MOL0     H13291   2.538   1.342   7.300  1.3784 -0.9718  0.0343
  101MOL0     H13292   2.484   1.178   7.545 -1.4398  1.2276  1.6280
  101MOL0     H13293   2.456   1.140   7.371 -0.2550 -0.3062  0.2293
  101MOL0     H13294   2.346   0.987   7.523 -0.8019 -1.2284  0.6635
  101MOL0     H13295   2.175   0.846   7.602 -2.7173 -1.1860 -1.9396
  101MOL0     H13296   1.616   1.000   7.853  2.4455  0.4101 -1.4245
  101MOL0     H13297   1.421   0.852   7.908  0.7843  2.5365  0.7480
  101MOL0     H13298   1.190   0.714   7.838  1.2682  2.0395  2.0636
  101MOL0     H13299   1.308   0.659   7.958 -1.1859 -0.8444  1.4485
  101MOL0     H13300   1.256   0.430   7.885 -0.2560 -1.4810  2.0026
  101MOL0     H13301   1.100   0.497   7.821  1.3768 -0.6807 -1.3573
  101MOL0     H13302   1.031   0.562   8.044 -0.4961 -0.4019 -1.9695
  101MOL0     H13303   1.195   0.543   8.112 -1.6753 -1.2004  1.6746
  101MOL0     H13304   1.011   0.316   8.022  1.1293 -1.9214  0.6258
  101MOL0     H13305   1.182   0.306   8.055 -0.7131 -0.8422  0.5056
  101MOL0     H13306   0.997   0.428   8.272 -0.7463 -1.0019  1.9151
  101MOL0     H13307   1.152   0.354   8.290 -0.7843 -1.5370  2.1760
  101MOL0     H13308   1.052   0.135   8.208  2.1081  1.7263 -0.1477
  101MOL0     H13309   0.886   0.194   8.223  0.1462  0.1507 -3.0921
  101MOL0     H13310   1.027   0.254   8.472  0.0638  1.1752 -0.1492
  101MOL0     H13311   0.861   0.185   8.426  0.3449  2.3752 -1.5152
  101MOL0     H13312   0.996   0.008   8.540 -1.7912 -0.6862 -0.2218
  101MOL0     H13313   1.100   0.014   8.402 -0.2425  1.7476  0.8860
  101MOL0     H13314   1.523   0.591   7.587 -0.3380 -0.7358  0.2068
  101MOL0     H13315   1.733   0.745   7.543  1.7396 -2.5628  2.4445
  101MOL0     H13316   1.906   1.184   7.634  0.3121 -1.3343  3.4715
  101MOL0     H13317   2.073   1.318   7.542 -1.0673  0.0304  2.1606
  101MOL0     H13318   2.786   1.498   8.132  2.4622 -0.9595 -1.5037
  101MOL0     H13319   2.587   1.388   8.196 -2.0948 -2.3069  0.1175
  101MOL0     H13320   2.064   1.358   7.872  3.9631 -0.2614 -0.1506
  101MOL0     H13321   1.860   1.210   7.889 -2.0462  1.9297  1.4291
  101MOL0     H13322   1.906   0.832   8.027 -0.4327 -0.4696 -0.7155
  101MOL0     H13323   1.740   0.831   8.021 -0.8897  0.8433 -0.7036
  101MOL0     H13324   1.821   0.737   8.225  0.0764 -0.6874 -0.6070
  101MOL0     H13325   1.880   0.883   8.284  2.2401 -0.8805 -3.4085
  101MOL0     H13326   1.642   0.981   8.284  2.6062  1.0546 -2.8471
  101MOL0     H13327   1.664   0.840   8.387 -0.8903 -1.0705  0.3180
  101MOL0     H13328   1.456   0.797   8.270  2.3198  2.6221  3.2356
  101MOL0     H13329   1.536   0.817   8.115 -0.1003 -0.3495  0.1410
  101MOL0     H13330   1.597   0.423   8.136  2.1429 -0.9724  0.3624
  101MOL0     H13331   2.056   0.983   8.193  3.0291 -0.1199 -0.0700
  101MOL0     H13332   2.246   1.118   8.184 -0.0888  2.5411  0.7081
  102MOL0     O13333   7.679   6.109   0.031  0.2937  0.1011  0.2102
  102MOL0     C13334   7.745   6.026   0.088 -0.1571  0.6825 -0.6545
  102MOL0     O13335   7.700   5.913   0.141  0.9213  0.1843  0.5225
  102MOL0     C13336   7.565   5.871   0.137 -0.2845  0.2923  0.3158
  102MOL0     C13337   7.453   5.952   0.111 -0.6277  0.0666 -0.3068
  102MOL0     C13338   7.324   5.897   0.089 -0.2617  0.0470 -0.1711
  102MOL0     C13339   7.298   5.759   0.104 -0.9238  1.5266  0.3360
  102MOL0     O13340   7.176   5.702   0.079  0.0147 -0.0346  0.8432
  102MOL0     C13341   7.081   5.740   0.178  0.3367 -0.8859  0.3768
  102MOL0     C13342   6.950   5.669   0.172 -0.1927  0.0467  0.3070
  102MOL0     C13343   6.886   5.687   0.024 -0.1430 -0.5264 -0.1288
  102MOL0     C13344   6.741   5.633   0.039 -0.0128 -0.6639 -1.2777
  102MOL0     C13345   6.659   5.656  -0.079  0.3186 -0.0799  0.3573
  102MOL0     C13346   6.517   5.613  -0.067 -0.7485 -0.5849  0.5969
  102MOL0     C13347   6.427   5.642  -0.185  0.3664 -0.9296 -0.3701
  102MOL0     C13348   6.403   5.786  -0.207  0.7279 -0.0926  0.3396
  102MOL0     N13349   6.352   5.855  -0.099  0.8665 -0.3193 -0.7668
  102MOL0     C13350   6.235   5.829  -0.035 -0.1037 -0.2971 -0.9741
  102MOL0     C13351   6.218   5.922   0.060  0.2685 -0.3765  0.1697
  102MOL0     C13352   6.094   5.933   0.154  0.5219 -0.2233 -0.0145
  102MOL0     C13353   6.065   6.086   0.182  0.2737  0.2154 -0.2503
  102MOL0     C13354   5.992   6.165   0.059  0.3573  0.7417 -0.0278
  102MOL0     C13355   5.852   6.113   0.033  0.0320  0.2513 -1.0256
  102MOL0     O13356   5.762   6.167   0.130  0.2281  0.0431 -0.7530
  102MOL0     C13357   5.628   6.159   0.104 -0.0744  0.9378 -0.3102
  102MOL0     C13358   5.568   6.069   0.012  0.4047  0.6400  0.2870
  102MOL0     C13359   5.426   6.066   0.009 -0.2892 -0.0948  1.0537
  102MOL0     C13360   5.344   6.145   0.094 -0.5987  0.2847  0.3412
  102MOL0     C13361   5.195   6.134   0.079 -0.7244  0.3849 -0.4497
  102MOL0     O13362   5.124   6.214   0.163 -0.3540 -0.0788  0.0718
  102MOL0     C13363   4.990   6.230   0.161 -0.3692 -0.4272  0.2027
  102MOL0     C13364   4.934   6.354   0.182  0.7564 -0.4661 -0.1460
  102MOL0     C13365   4.786   6.372   0.184 -0.4543 -0.8312  1.3530
  102MOL0     C13366   4.704   6.265   0.177 -0.3116  0.7036 -0.0643
  102MOL0     O13367   4.570   6.265   0.188 -1.0086 -0.1455 -0.0498
  102MOL0     C13368   4.520   6.392   0.202  1.2747 -0.1105  0.0017
  102MOL0     C13369   4.365   6.387   0.203 -0.7914  0.2142  0.7410
  102MOL0     C13370   4.311   6.521   0.232  0.3803 -0.1330  0.3222
  102MOL0     C13371   4.190   6.538   0.135 -0.4572  0.3802 -0.6495
  102MOL0     C13372   4.071   6.461   0.182  0.5438 -0.5324 -0.1049
  102MOL0     C13373   4.037   6.454   0.330  0.4056  0.4033 -1.3278
  102MOL0     C13374   3.900   6.403   0.355  0.1080 -0.1634  0.0888
  102MOL0     C13375   3.855   6.410   0.500 -0.3349  0.4197  0.2785
  102MOL0    Cl13376   3.683   6.347   0.518  0.0715 -0.1883  0.0531
  102MOL0     C13377   4.763   6.138   0.159  0.5299 -0.1790  0.6036
  102MOL0     C13378   4.901   6.126   0.138  0.0002  0.2400 -1.0362
  102MOL0     O13379   5.153   6.067  -0.007 -0.0110  0.0830  0.4087
  102MOL0     C13380   5.404   6.236   0.177 -0.1206 -0.3110 -0.1929
  102MOL0     C13381   5.546   6.240   0.186 -0.3542 -0.1581 -0.1091
  102MOL0     N13382   6.329   6.002   0.057  0.1107 -0.2514 -0.2270
  102MOL0     N13383   6.407   5.967  -0.037  0.2498  0.3523  0.3984
  102MOL0     C13384   7.413   5.673   0.125 -0.1494 -0.2552 -0.7380
  102MOL0     C13385   7.543   5.729   0.140  0.1520  0.0597 -0.4403
  102MOL0     C13386   7.874   6.075   0.125  0.3781  0.3349  0.2893
  102MOL0     C13387   7.925   6.193   0.071 -0.0172 -0.5407 -0.3604
  102MOL0     C13388   8.044   6.249   0.112  1.2548  0.2678 -0.1625
  102MOL0     C13389   8.122   6.186   0.212  0.4881 -0.4473  0.3801
  102MOL0     O13390   8.238   6.256   0.255  0.4423 -1.4996  0.0677
  102MOL0     C13391   8.309   6.234   0.378  1.3189  1.3923  0.4642
  102MOL0     C13392   8.448   6.171   0.339  0.2356  0.8807 -0.1885
  102MOL0     C13393   8.429   6.054   0.241  1.0040  0.1209  0.2526
  102MOL0     C13394   8.553   6.001   0.193  0.0489  0.8068 -0.1038
  102MOL0     C13395   8.653   5.961   0.295 -0.3554  0.6689 -0.0045
  102MOL0     C13396   8.741   5.933   0.374  1.0832 -0.8966  0.4653
  102MOL0     C13397   8.072   6.067   0.272 -0.1244 -0.2710 -0.4486
  102MOL0     C13398   7.949   6.020   0.230 -0.5828  0.5514 -0.1922
  102MOL0     H13399   7.444   6.060   0.115 -0.9670  0.0612 -0.8680
  102MOL0     H13400   7.246   5.972   0.081 -0.1439  0.0342 -1.8964
  102MOL0     H13401   7.043   5.840   0.154  1.6904 -0.7376 -1.3224
  102MOL0     H13402   7.127   5.732   0.276  1.2902  0.5038  0.0750
  102MOL0     H13403   6.880   5.712   0.244  1.1733  1.2514  0.9633
  102MOL0     H13404   6.960   5.565   0.205  0.1635 -1.1987 -3.2802
  102MOL0     H13405   6.937   5.629  -0.054 -2.5432 -1.7083 -0.8981
  102MOL0     H13406   6.881   5.793  -0.004 -0.3158 -1.1954 -2.9314
  102MOL0     H13407   6.740   5.523   0.048 -0.2938 -0.6287 -0.8221
  102MOL0     H13408   6.692   5.678   0.125  2.8656 -1.3600  0.9035
  102MOL0     H13409   6.709   5.606  -0.162  0.6857  0.8179  0.0160
  102MOL0     H13410   6.662   5.764  -0.097  1.4136 -0.3815 -1.5461
  102MOL0     H13411   6.484   5.658   0.027  4.6423 -1.5092  3.3655
  102MOL0     H13412   6.519   5.505  -0.051 -0.8812 -0.8801 -1.1836
  102MOL0     H13413   6.476   5.597  -0.272 -0.1644 -0.4910 -0.9017
  102MOL0     H13414   6.330   5.596  -0.163  0.3359 -0.3735  0.7335
  102MOL0     H13415   6.333   5.803  -0.289  2.6528  2.7024 -0.8887
  102MOL0     H13416   6.503   5.827  -0.222  0.6345 -0.1771 -0.5582
  102MOL0     H13417   6.157   5.756  -0.058 -0.9735  0.7227 -1.3318
  102MOL0     H13418   6.114   5.881   0.249 -1.5452 -0.4975  0.3103
  102MOL0     H13419   6.000   5.893   0.114 -0.5102  2.9125 -0.9622
  102MOL0     H13420   6.157   6.139   0.209  0.8654 -0.3384 -1.1333
  102MOL0     H13421   5.997   6.086   0.268 -1.1406 -1.6854 -1.2819
  102MOL0     H13422   5.989   6.274   0.071 -0.1264  0.7374 -0.1078
  102MOL0     H13423   6.059   6.156  -0.027  0.7661  3.2336 -0.0476
  102MOL0     H13424   5.844   6.004   0.040 -1.0235  0.3715 -0.1720
  102MOL0     H13425   5.811   6.146  -0.063 -6.5855 -0.8595  0.9346
  102MOL0     H13426   5.627   6.005  -0.053  0.6677  2.7785 -1.7066
  102MOL0     H13427   5.383   6.005  -0.070 -1.8524 -1.0768  2.5725
  102MOL0     H13428   4.988   6.442   0.215 -0.0970 -1.3128  4.0179
  102MOL0     H13429   4.759   6.476   0.199  0.2188 -0.5912  0.9526
  102MOL0     H13430   4.554   6.446   0.113  1.6351 -1.0626 -0.4548
  102MOL0     H13431   4.553   6.442   0.293 -0.5514 -0.9630  1.1972
  102MOL0     H13432   4.317   6.322   0.276  0.9026 -1.0187  0.8098
  102MOL0     H13433   4.347   6.360   0.099  1.7851  1.4989 -0.1406
  102MOL0     H13434   4.376   6.606   0.210  1.5753 -0.3372  2.6828
  102MOL0     H13435   4.291   6.519   0.340  0.1509 -0.0474  0.2808
  102MOL0     H13436   4.166   6.645   0.141 -2.2341 -0.0630  0.8796
  102MOL0     H13437   4.200   6.509   0.030 -2.4056 -0.5887 -0.6220
  102MOL0     H13438   4.061   6.364   0.131 -3.2571 -0.0598 -0.5843
  102MOL0     H13439   3.987   6.519   0.142 -1.5367 -2.9128  0.5828
  102MOL0     H13440   4.047   6.553   0.375  1.6948 -0.9761  1.6532
  102MOL0     H13441   4.112   6.391   0.379  0.1635  1.1304  0.0103
  102MOL0     H13442   3.823   6.455   0.298 -1.4611 -1.0571  1.3131
  102MOL0     H13443   3.901   6.299   0.321 -0.7387 -0.3105  0.4866
  102MOL0     H13444   3.858   6.506   0.553 -2.0814  0.1599  0.8947
  102MOL0     H13445   3.919   6.346   0.562  0.0670 -1.1959 -1.7189
  102MOL0     H13446   4.705   6.048   0.147  1.1974 -1.0778  3.3771
  102MOL0     H13447   4.938   6.027   0.111 -0.5659 -1.0141  2.2907
  102MOL0     H13448   5.343   6.297   0.242  0.5170  0.2295 -0.0894
  102MOL0     H13449   5.595   6.322   0.238  1.8227  0.6846 -3.1476
  102MOL0     H13450   7.398   5.567   0.142 -0.9953  0.1939  1.9063
  102MOL0     H13451   7.627   5.662   0.151  1.0563  1.5604  3.5592
  102MOL0     H13452   7.875   6.252  -0.006  2.6458  0.3739 -1.5276
  102MOL0     H13453   8.082   6.333   0.055 -2.0839  1.3425 -1.0595
  102MOL0     H13454   8.243   6.170   0.437  1.7916  0.0464 -0.4307
  102MOL0     H13455   8.322   6.329   0.432  3.1411  2.7961 -2.1701
  102MOL0     H13456   8.518   6.242   0.294 -0.1486  0.8372 -0.8723
  102MOL0     H13457   8.490   6.145   0.437  1.1026  0.2697 -0.6977
  102MOL0     H13458   8.376   6.084   0.150 -0.6573 -4.1355 -0.4639
  102MOL0     H13459   8.382   5.969   0.293  2.6634 -1.4730 -0.7151
  102MOL0     H13460   8.528   5.904   0.150 -0.0444  0.7783  0.0132
  102MOL0     H13461   8.589   6.077   0.123  2.2335  0.9760  1.1089
  102MOL0     H13462   8.815   5.914   0.450  1.8218 -1.2910 -0.3285
  102MOL0     H13463   8.127   6.016   0.351 -3.0734  0.0007  1.9773
  102MOL0     H13464   7.913   5.926   0.269 -1.9525  0.6155 -1.1992
  103MOL0     O13465  11.058   7.977   0.361  0.0783 -0.0215 -0.1645
  103MOL0     C13466  11.133   8.001   0.266  0.7617  0.1512  0.5607
  103MOL0     O13467  11.094   8.021   0.134 -0.4020  0.1015  0.0387
  103MOL0     C13468  10.962   8.023   0.107  0.7093 -0.3947  0.1931
  103MOL0     C13469  10.859   8.092   0.181  0.1931 -0.2687 -0.0658
  103MOL0     C13470  10.726   8.067   0.142  0.4155 -0.1802  0.3152
  103MOL0     C13471  10.688   7.978   0.038  0.0522 -0.5062  1.3574
  103MOL0     O13472  10.557   7.958  -0.011 -0.0286 -0.5867 -0.0440
  103MOL0     C13473  10.466   8.065   0.007 -0.2515  0.8143 -0.3513
  103MOL0     C13474  10.372   8.032   0.130 -0.2981  0.7257  0.2344
  103MOL0     C13475  10.256   7.952   0.075 -0.3164  0.4045  0.9067
  103MOL0     C13476  10.144   7.930   0.181 -0.4723  0.2149  0.3609
  103MOL0     C13477  10.013   7.963   0.116  0.7535 -0.7055  0.6394
  103MOL0     C13478   9.896   7.914   0.202  0.0129 -0.4588  0.1069
  103MOL0     C13479   9.764   7.935   0.128 -0.4035  0.3353  0.2421
  103MOL0     C13480   9.647   7.846   0.182 -0.7169  0.4350  0.5090
  103MOL0     N13481   9.585   7.893   0.305  0.1064 -0.9487 -0.2170
  103MOL0     C13482   9.610   7.839   0.429 -0.0053  0.0522  0.1772
  103MOL0     C13483   9.550   7.924   0.513  0.1446 -0.1393 -1.4705
  103MOL0     C13484   9.537   7.910   0.658 -0.2869  0.3240  0.2270
  103MOL0     C13485   9.393   7.873   0.704 -0.5746  0.3964 -0.0679
  103MOL0     C13486   9.371   7.725   0.682 -0.2405  0.5353 -0.3313
  103MOL0     C13487   9.221   7.700   0.683  0.4412 -0.1501 -0.6082
  103MOL0     O13488   9.161   7.755   0.564  0.1815  0.3548  0.6465
  103MOL0     C13489   9.021   7.754   0.550  0.5715 -0.3687 -0.4554
  103MOL0     C13490   8.972   7.802   0.432 -0.4064 -0.3652 -1.2652
  103MOL0     C13491   8.835   7.805   0.400 -0.2074 -0.2712  0.2097
  103MOL0     C13492   8.752   7.745   0.479  0.6030  0.9186 -0.0969
  103MOL0     C13493   8.608   7.736   0.424 -0.6323 -0.5164 -0.3012
  103MOL0     O13494   8.512   7.685   0.510 -0.7215 -0.4980 -0.7687
  103MOL0     C13495   8.378   7.669   0.480  0.5596  0.3876 -0.2812
  103MOL0     C13496   8.309   7.727   0.373  0.2826 -0.3838 -0.6601
  103MOL0     C13497   8.168   7.743   0.383  0.0519 -0.3867  0.2897
  103MOL0     C13498   8.095   7.686   0.485  0.6443 -0.2332 -0.4196
  103MOL0     O13499   7.959   7.694   0.489 -0.0685 -0.0788 -0.2414
  103MOL0     C13500   7.899   7.817   0.451 -0.3807 -0.3390 -0.1256
  103MOL0     C13501   7.743   7.822   0.461  0.1851 -0.9407 -0.2424
  103MOL0     C13502   7.694   7.810   0.606  0.4259  0.4659 -0.1110
  103MOL0     C13503   7.735   7.693   0.699  0.3177 -0.0530  0.0712
  103MOL0     C13504   7.701   7.550   0.652 -0.0573 -0.2986 -0.4025
  103MOL0     C13505   7.554   7.531   0.598  0.3361 -0.1832  0.6517
  103MOL0     C13506   7.457   7.538   0.714 -0.2560 -0.2325 -0.2527
  103MOL0     C13507   7.444   7.417   0.799  0.4939  0.3819  0.2109
  103MOL0    Cl13508   7.320   7.433   0.934  0.1663 -0.1878  0.0910
  103MOL0     C13509   8.167   7.611   0.581 -0.1670 -1.2187 -0.3532
  103MOL0     C13510   8.304   7.606   0.581 -0.3139  0.3227  0.0328
  103MOL0     O13511   8.587   7.772   0.309 -0.3281  0.2932  0.0944
  103MOL0     C13512   8.794   7.692   0.615 -0.1373 -0.1596  0.1566
  103MOL0     C13513   8.932   7.707   0.646 -0.4115 -1.0678 -0.6867
  103MOL0     N13514   9.481   8.021   0.436  1.4108  0.1701  1.2254
  103MOL0     N13515   9.505   8.003   0.308  0.6486 -0.7324  0.0818
  103MOL0     C13516  10.793   7.917  -0.034  0.8632  0.6845 -0.1534
  103MOL0     C13517  10.928   7.937   0.003 -0.0831 -0.1944 -0.6334
  103MOL0     C13518  11.271   7.984   0.293 -0.6910  0.4306 -1.4698
  103MOL0     C13519  11.366   8.015   0.195  0.6253 -1.0950 -0.7157
  103MOL0     C13520  11.500   7.998   0.217  0.2066 -0.0627 -0.6800
  103MOL0     C13521  11.546   7.927   0.330  0.1267  0.0527 -0.2706
  103MOL0     O13522  11.680   7.898   0.358 -0.9489  0.2060  0.1608
  103MOL0     C13523  11.766   7.901   0.242  0.4067  0.2967  0.1426
  103MOL0     C13524  11.905   7.880   0.291  0.1639  0.5919 -0.2893
  103MOL0     C13525  11.998   7.865   0.179 -0.4837  0.4490  1.4703
  103MOL0     C13526  12.134   7.810   0.214 -0.4763  0.2837 -0.4071
  103MOL0     C13527  12.130   7.665   0.226 -0.3794  0.4437 -1.2390
  103MOL0     C13528  12.147   7.545   0.227  0.5655 -0.0604  0.6764
  103MOL0     C13529  11.459   7.893   0.436  0.0927 -0.3196 -0.6269
  103MOL0     C13530  11.320   7.922   0.415 -0.6955 -0.3397  0.4828
  103MOL0     H13531  10.871   8.168   0.258 -2.1132 -1.6706  1.8236
  103MOL0     H13532  10.641   8.110   0.194 -0.3976 -0.8455 -0.4392
  103MOL0     H13533  10.407   8.079  -0.083 -1.5701  0.9564  0.5076
  103MOL0     H13534  10.515   8.161   0.024  1.5231 -0.4242  2.2802
  103MOL0     H13535  10.337   8.130   0.163 -1.9604  0.1802  0.1645
  103MOL0     H13536  10.424   7.978   0.210 -0.2710  1.3490  0.6472
  103MOL0     H13537  10.290   7.851   0.052  1.6414  0.6283  2.5240
  103MOL0     H13538  10.215   7.999  -0.015 -2.4722  0.8272  2.0256
  103MOL0     H13539  10.145   7.829   0.223  1.6691 -0.2253 -0.6499
  103MOL0     H13540  10.143   7.999   0.266 -2.7548 -0.9279  1.3435
  103MOL0     H13541  10.004   7.908   0.022 -0.5214 -0.6451  0.7066
  103MOL0     H13542   9.991   8.064   0.083  2.5772 -0.9029 -1.3567
  103MOL0     H13543   9.892   7.974   0.293 -0.5747 -0.8349  0.3308
  103MOL0     H13544   9.921   7.811   0.229  1.3380 -1.1712 -3.2777
  103MOL0     H13545   9.755   8.044   0.121  2.3424  0.6242 -0.2787
  103MOL0     H13546   9.786   7.892   0.030 -0.9817  0.3503  0.1057
  103MOL0     H13547   9.692   7.747   0.193  1.0316  1.4398  4.0065
  103MOL0     H13548   9.567   7.850   0.108 -0.2129  3.1451 -0.0060
  103MOL0     H13549   9.655   7.743   0.451 -1.4426 -0.7340 -0.1436
  103MOL0     H13550   9.561   8.006   0.704  2.7131 -0.0949 -0.2367
  103MOL0     H13551   9.616   7.839   0.686 -0.2355  0.8964  1.6391
  103MOL0     H13552   9.323   7.931   0.642 -1.4004  0.4627  0.9024
  103MOL0     H13553   9.368   7.917   0.801  0.7974 -0.0523  0.5125
  103MOL0     H13554   9.406   7.695   0.583 -1.2644 -1.6305 -0.0777
  103MOL0     H13555   9.420   7.673   0.765 -1.8959  0.0919  0.4052
  103MOL0     H13556   9.183   7.743   0.776 -1.7181 -3.5113  0.2625
  103MOL0     H13557   9.208   7.592   0.698  0.4462  0.2512  3.3387
  103MOL0     H13558   9.038   7.857   0.366 -1.9261  1.9994 -0.9304
  103MOL0     H13559   8.819   7.864   0.310 -0.1170  3.4462  2.4086
  103MOL0     H13560   8.357   7.751   0.279 -2.6528 -2.5888 -2.8960
  103MOL0     H13561   8.126   7.783   0.291  0.4063 -0.7029 -0.0120
  103MOL0     H13562   7.916   7.843   0.346 -1.0468 -1.4601 -0.5248
  103MOL0     H13563   7.931   7.898   0.518  3.1596 -2.0377  0.5428
  103MOL0     H13564   7.689   7.745   0.405 -3.8580 -0.6211  2.6950
  103MOL0     H13565   7.719   7.925   0.431  1.2864 -0.2508  1.1316
  103MOL0     H13566   7.585   7.822   0.599 -0.2785 -4.4079 -1.2375
  103MOL0     H13567   7.745   7.891   0.660  3.2782  0.3303 -2.3940
  103MOL0     H13568   7.839   7.697   0.732  0.0750 -1.8339  1.1614
  103MOL0     H13569   7.681   7.711   0.792  0.0480 -1.7418  0.2595
  103MOL0     H13570   7.723   7.476   0.730  1.4233 -1.0928 -1.5225
  103MOL0     H13571   7.765   7.527   0.566 -0.2514  2.1337 -1.2714
  103MOL0     H13572   7.536   7.437   0.544  1.7125  0.4752 -1.0399
  103MOL0     H13573   7.536   7.609   0.524 -1.2394 -1.2400 -0.1413
  103MOL0     H13574   7.490   7.621   0.776 -0.1642  1.9707 -3.0720
  103MOL0     H13575   7.363   7.565   0.666  0.2393 -3.1853 -3.3152
  103MOL0     H13576   7.538   7.396   0.850  0.3884 -0.6878 -0.0119
  103MOL0     H13577   7.415   7.333   0.735 -2.3122  1.6064 -0.2694
  103MOL0     H13578   8.109   7.564   0.659 -0.1425 -1.5216 -0.5184
  103MOL0     H13579   8.345   7.529   0.646 -0.8332 -0.6271 -0.7233
  103MOL0     H13580   8.725   7.632   0.674  0.7406 -0.0964  1.2700
  103MOL0     H13581   8.963   7.674   0.745  2.0141  1.2830 -0.5343
  103MOL0     H13582  10.759   7.844  -0.107 -3.5788  1.0492  1.2391
  103MOL0     H13583  11.001   7.875  -0.047 -0.0908  1.2949 -2.6320
  103MOL0     H13584  11.330   8.069   0.109  0.1322  0.6495  0.5252
  103MOL0     H13585  11.573   8.030   0.143 -1.4017 -0.0280 -2.3290
  103MOL0     H13586  11.751   7.995   0.188 -1.4218  1.1695  1.9938
  103MOL0     H13587  11.732   7.824   0.172 -2.0847  1.8044 -0.4533
  103MOL0     H13588  11.933   7.965   0.352  0.2860 -2.4271  4.3462
  103MOL0     H13589  11.911   7.786   0.348  1.0941 -1.3163 -3.2718
  103MOL0     H13590  12.007   7.957   0.121 -0.8829  0.6357  1.7010
  103MOL0     H13591  11.956   7.799   0.103  1.3504 -0.6589  1.3804
  103MOL0     H13592  12.199   7.831   0.128  0.2499 -1.6455 -0.3823
  103MOL0     H13593  12.187   7.847   0.302  1.2577 -3.0036  0.0671
  103MOL0     H13594  12.167   7.442   0.204  2.4646  0.7697 -1.9856
  103MOL0     H13595  11.491   7.834   0.522  1.3881  0.5270 -0.5091
  103MOL0     H13596  11.244   7.898   0.489 -1.8984  1.7687  0.0402
  104MOL0     O13597  10.647   3.766   4.582  0.1773  0.8643 -0.5198
  104MOL0     C13598  10.573   3.764   4.679 -0.5962 -0.3924 -0.4609
  104MOL0     O13599  10.607   3.809   4.802  0.0635  0.3292  0.2572
  104MOL0     C13600  10.734   3.835   4.835 -0.0510 -0.6253 -0.6323
  104MOL0     C13601  10.842   3.748   4.807  0.1409 -1.2972  0.0522
  104MOL0     C13602  10.968   3.765   4.857 -0.1375  0.6386 -0.9535
  104MOL0     C13603  10.999   3.872   4.945 -0.4772 -1.5318 -0.3955
  104MOL0     O13604  11.124   3.881   4.993 -0.5625 -0.1750  0.2337
  104MOL0     C13605  11.164   3.970   5.095  0.3668 -0.5986 -0.2817
  104MOL0     C13606  11.293   3.928   5.155 -0.3804  0.5375 -0.2715
  104MOL0     C13607  11.400   4.025   5.112 -0.8220  1.1372 -0.4645
  104MOL0     C13608  11.541   3.976   5.155  0.0272  0.7012 -0.0710
  104MOL0     C13609  11.637   4.067   5.080 -0.1406 -0.2190 -0.1993
  104MOL0     C13610  11.674   4.201   5.158  0.0647  0.4647 -0.0816
  104MOL0     C13611  11.735   4.307   5.062  0.2180  0.4831  0.1398
  104MOL0     C13612  11.637   4.379   4.971  0.8546 -0.3491  0.8841
  104MOL0     N13613  11.506   4.419   5.024  0.1197 -0.5670  0.6625
  104MOL0     C13614  11.383   4.359   4.991 -0.2646  0.2392 -0.7509
  104MOL0     C13615  11.298   4.448   5.042  0.3699 -0.0138  0.4525
  104MOL0     C13616  11.147   4.440   5.023 -0.1326 -0.4904 -0.7586
  104MOL0     C13617  11.118   4.431   4.872  0.4405 -0.3557  0.2396
  104MOL0     C13618  10.968   4.385   4.854 -0.0023  0.1228 -0.7758
  104MOL0     C13619  10.918   4.393   4.710  0.3272 -0.8998 -0.1999
  104MOL0     O13620  10.798   4.312   4.708  0.2466  0.0268  0.4524
  104MOL0     C13621  10.760   4.254   4.591 -0.7080  0.4125 -0.0767
  104MOL0     C13622  10.672   4.145   4.615 -0.1420  0.2255 -0.1832
  104MOL0     C13623  10.612   4.080   4.504 -0.7962  0.0813 -0.7006
  104MOL0     C13624  10.638   4.125   4.370  0.8834 -0.6049  0.6499
  104MOL0     C13625  10.565   4.071   4.249 -0.8396  0.2434  0.2686
  104MOL0     O13626  10.454   3.993   4.283 -0.1780  0.7700  0.8278
  104MOL0     C13627  10.352   3.955   4.203  0.4516 -0.0344 -0.6223
  104MOL0     C13628  10.276   3.851   4.246  0.2177  0.5348 -0.7946
  104MOL0     C13629  10.166   3.800   4.174 -0.2179 -0.2649  0.0684
  104MOL0     C13630  10.118   3.850   4.051 -0.2785 -0.2186  0.1402
  104MOL0     O13631  10.014   3.787   3.986  0.5254 -0.5073  0.1413
  104MOL0     C13632   9.999   3.824   3.844 -0.5679 -0.3821 -0.6061
  104MOL0     C13633   9.853   3.812   3.806  0.7139 -0.0778  0.6177
  104MOL0     C13634   9.837   3.675   3.743  0.0493 -0.4089 -0.6526
  104MOL0     C13635   9.685   3.655   3.721 -0.0296  0.4875  0.1794
  104MOL0     C13636   9.643   3.715   3.585 -0.4790 -0.3203  0.5466
  104MOL0     C13637   9.505   3.690   3.544  0.6296  0.4604 -0.2023
  104MOL0     C13638   9.481   3.755   3.408  0.9162  0.1055  0.1238
  104MOL0     C13639   9.372   3.685   3.328  0.5289  0.2061 -0.3856
  104MOL0    Cl13640   9.204   3.727   3.386  0.1727  0.3241  0.0289
  104MOL0     C13641  10.197   3.962   4.007 -0.7600  0.4521 -0.5446
  104MOL0     C13642  10.313   4.007   4.076 -0.1633  0.5351  0.1586
  104MOL0     O13643  10.602   4.107   4.143  0.0898 -0.0140  0.7618
  104MOL0     C13644  10.726   4.229   4.353  0.7875  1.0566 -0.5734
  104MOL0     C13645  10.791   4.291   4.460  0.4606 -0.0635  0.8817
  104MOL0     N13646  11.360   4.556   5.105 -0.2721  0.1129 -0.1068
  104MOL0     N13647  11.480   4.527   5.106 -0.2923  0.6555 -0.3382
  104MOL0     C13648  10.895   3.963   4.974 -0.4197  0.4420 -0.9737
  104MOL0     C13649  10.765   3.944   4.917 -0.9147  0.1843  0.0691
  104MOL0     C13650  10.430   3.771   4.655 -0.5450 -0.4700 -1.4230
  104MOL0     C13651  10.376   3.681   4.562 -0.2776 -0.2184 -0.0855
  104MOL0     C13652  10.236   3.681   4.535 -0.2330  0.0280 -0.5948
  104MOL0     C13653  10.154   3.757   4.626  0.5594  0.3668  0.0645
  104MOL0     O13654  10.019   3.752   4.591 -0.8804 -0.0340 -0.7577
  104MOL0     C13655   9.918   3.773   4.686 -0.6120 -0.0156 -0.0097
  104MOL0     C13656   9.782   3.755   4.623  1.0171 -0.1676 -0.0593
  104MOL0     C13657   9.686   3.667   4.717 -0.3957  0.3397  0.6520
  104MOL0     C13658   9.567   3.613   4.643  0.3618  0.3436 -0.8055
  104MOL0     C13659   9.600   3.481   4.584  0.0080  0.0388  0.5538
  104MOL0     C13660   9.608   3.359   4.547 -0.1436  0.2588  0.5380
  104MOL0     C13661  10.206   3.840   4.724 -0.5497 -0.8038 -0.4044
  104MOL0     C13662  10.347   3.859   4.731  1.2048 -0.2491 -0.0058
  104MOL0     H13663  10.805   3.667   4.746 -3.5993  0.4098 -0.2286
  104MOL0     H13664  11.056   3.704   4.839  0.6075  1.6143 -0.7268
  104MOL0     H13665  11.088   3.962   5.173 -3.4035  0.6354 -3.5282
  104MOL0     H13666  11.165   4.070   5.052 -0.0226 -1.0247 -1.3210
  104MOL0     H13667  11.313   3.822   5.137  2.2898  1.2277 -2.0597
  104MOL0     H13668  11.276   3.932   5.263 -3.2703  0.8213 -0.6644
  104MOL0     H13669  11.383   4.128   5.144  1.0232  1.7195 -1.2126
  104MOL0     H13670  11.398   4.029   5.003 -0.8484 -1.9534 -0.6706
  104MOL0     H13671  11.559   3.971   5.263 -1.6557  0.2643  0.2156
  104MOL0     H13672  11.546   3.874   5.115  1.1968  1.7276 -2.7053
  104MOL0     H13673  11.604   4.079   4.976  0.5031 -1.8393 -0.6332
  104MOL0     H13674  11.734   4.017   5.073 -0.3010 -1.0291  2.4111
  104MOL0     H13675  11.740   4.186   5.245  2.4382  0.6319 -1.7400
  104MOL0     H13676  11.583   4.243   5.201  1.0607  1.4990  1.1337
  104MOL0     H13677  11.794   4.376   5.123  2.6036 -2.1555  1.0066
  104MOL0     H13678  11.815   4.259   5.005  0.8606 -2.0503  2.9283
  104MOL0     H13679  11.628   4.316   4.882  3.7749  1.4046 -0.8227
  104MOL0     H13680  11.682   4.472   4.935  1.1145 -1.0218 -0.6398
  104MOL0     H13681  11.361   4.262   4.947  0.0567 -1.2916  2.1726
  104MOL0     H13682  11.112   4.534   5.066 -0.1036 -0.7884 -0.0804
  104MOL0     H13683  11.108   4.356   5.082  1.0787  0.3024  1.2812
  104MOL0     H13684  11.176   4.354   4.821 -1.2310 -1.4311 -0.1311
  104MOL0     H13685  11.129   4.533   4.833 -1.6025  0.5535  1.8245
  104MOL0     H13686  10.958   4.282   4.888 -0.3057  0.0053 -1.2119
  104MOL0     H13687  10.900   4.446   4.915  0.0350  1.9095 -2.4220
  104MOL0     H13688  11.000   4.357   4.648  0.5555 -1.4207  0.3957
  104MOL0     H13689  10.892   4.493   4.672  1.8990 -0.8747 -1.2894
  104MOL0     H13690  10.652   4.118   4.719 -3.9836 -0.7550 -1.0234
  104MOL0     H13691  10.545   3.996   4.513 -0.3067 -0.1544  1.2381
  104MOL0     H13692  10.312   3.800   4.336  2.1285  0.5802 -1.4966
  104MOL0     H13693  10.104   3.717   4.207  0.1559  0.2180  2.1332
  104MOL0     H13694  10.066   3.758   3.788  0.6632  1.0035 -0.8527
  104MOL0     H13695  10.034   3.927   3.827  4.3465 -1.8703 -1.1560
  104MOL0     H13696   9.833   3.891   3.733  1.9386  0.2263  0.5777
  104MOL0     H13697   9.786   3.805   3.891 -1.1552 -3.2377 -0.9307
  104MOL0     H13698   9.887   3.604   3.810 -0.7860 -1.9970 -1.6406
  104MOL0     H13699   9.890   3.677   3.648 -1.3973 -0.5471 -1.4824
  104MOL0     H13700   9.646   3.553   3.727 -2.8977  1.4663 -0.2269
  104MOL0     H13701   9.620   3.695   3.800 -0.6040 -2.2181  1.1883
  104MOL0     H13702   9.707   3.673   3.507  0.0585 -1.0880  1.3826
  104MOL0     H13703   9.654   3.823   3.594 -2.1840 -0.0821  0.2088
  104MOL0     H13704   9.443   3.746   3.614  0.9288  0.3786  0.1284
  104MOL0     H13705   9.491   3.581   3.546  0.3615  0.2346 -4.4722
  104MOL0     H13706   9.445   3.857   3.428 -1.6442 -0.3885 -1.4908
  104MOL0     H13707   9.563   3.758   3.336 -0.3737 -3.1429 -1.6915
  104MOL0     H13708   9.387   3.577   3.334  2.1012  0.3910 -0.6783
  104MOL0     H13709   9.386   3.729   3.229  0.0851 -0.2907 -0.6780
  104MOL0     H13710  10.178   4.010   3.912 -0.4186 -0.1003 -0.8937
  104MOL0     H13711  10.370   4.089   4.034  0.6529 -1.0845 -2.0761
  104MOL0     H13712  10.767   4.255   4.256 -1.2774  0.6574 -1.6220
  104MOL0     H13713  10.856   4.377   4.446 -0.4496  0.3813 -0.8876
  104MOL0     H13714  10.910   4.050   5.037 -1.1530 -0.8206  1.0235
  104MOL0     H13715  10.689   4.019   4.938 -0.5789  0.1499  1.5228
  104MOL0     H13716  10.432   3.598   4.519 -0.8063  0.2058 -1.6419
  104MOL0     H13717  10.183   3.617   4.465  2.5905 -1.4285 -1.5738
  104MOL0     H13718   9.937   3.879   4.707 -2.5450  0.8837 -2.4031
  104MOL0     H13719   9.944   3.709   4.771 -1.3007  0.7795  0.8300
  104MOL0     H13720   9.727   3.847   4.600 -0.7972 -1.5427 -1.5850
  104MOL0     H13721   9.804   3.698   4.532 -5.1020 -0.9884 -1.4929
  104MOL0     H13722   9.660   3.735   4.799  4.0058  0.2645  2.4156
  104MOL0     H13723   9.739   3.583   4.763 -0.0603 -1.8115 -3.2595
  104MOL0     H13724   9.473   3.605   4.697 -0.2448  1.5122 -1.6588
  104MOL0     H13725   9.528   3.674   4.562 -1.0076 -0.7883 -1.0298
  104MOL0     H13726   9.621   3.254   4.531  0.5403 -0.0536  2.7744
  104MOL0     H13727  10.154   3.910   4.788  0.0178  0.6601 -1.4919
  104MOL0     H13728  10.387   3.921   4.811  0.4018  1.4714 -0.9072
  105MOL0     O13729  11.282   1.781   4.750  0.3716  0.6002  0.0932
  105MOL0     C13730  11.344   1.826   4.653 -0.5178  0.0129  0.0744
  105MOL0     O13731  11.295   1.901   4.558 -0.8259  0.5040  0.2565
  105MOL0     C13732  11.160   1.939   4.552  0.0906  0.0355  0.2996
  105MOL0     C13733  11.128   2.056   4.475 -0.5910 -0.6177 -0.1359
  105MOL0     C13734  11.002   2.099   4.455 -0.1738  0.6674  0.6038
  105MOL0     C13735  10.898   2.022   4.500  0.0473 -0.3269  1.0794
  105MOL0     O13736  10.770   2.061   4.485 -0.1929  0.6044 -0.5537
  105MOL0     C13737  10.706   2.112   4.609  0.5263  0.2028 -0.7156
  105MOL0     C13738  10.600   2.208   4.564  0.4822  0.7562  0.1891
  105MOL0     C13739  10.510   2.228   4.690  0.0958 -0.1011  0.3050
  105MOL0     C13740  10.421   2.349   4.663 -0.3431  0.2399 -0.3005
  105MOL0     C13741  10.328   2.386   4.781  0.1589  0.1096 -0.0492
  105MOL0     C13742  10.224   2.271   4.819 -0.8501 -0.5230  0.0806
  105MOL0     C13743  10.114   2.312   4.902  0.3671  0.0140  0.0750
  105MOL0     C13744  10.161   2.330   5.045 -0.3944 -0.3943  0.0440
  105MOL0     N13745  10.059   2.350   5.140 -0.4623 -0.5062 -0.2183
  105MOL0     C13746  10.083   2.340   5.275 -0.2853 -0.5338  1.4631
  105MOL0     C13747   9.957   2.349   5.324  0.1681  0.8485  0.8847
  105MOL0     C13748   9.935   2.335   5.470 -0.0590 -0.7048 -0.0795
  105MOL0     C13749  10.017   2.432   5.557 -0.5217  0.3646  0.1043
  105MOL0     C13750  10.022   2.394   5.702 -0.3545 -0.1867  0.3112
  105MOL0     C13751   9.890   2.395   5.776 -1.0336 -0.4052 -0.2666
  105MOL0     O13752   9.834   2.262   5.772 -0.7883  0.0484  0.2563
  105MOL0     C13753   9.701   2.232   5.797 -0.3290 -0.2980 -0.3881
  105MOL0     C13754   9.643   2.118   5.736  0.1963 -0.4811  0.6898
  105MOL0     C13755   9.499   2.098   5.751 -0.5609  0.0220  0.1404
  105MOL0     C13756   9.423   2.175   5.838 -0.0042  0.0236 -0.0681
  105MOL0     C13757   9.280   2.158   5.851  0.0115  0.5065 -0.6782
  105MOL0     O13758   9.228   2.232   5.947  0.2487 -0.8627  0.2307
  105MOL0     C13759   9.091   2.232   5.950  0.6267 -0.1913  0.7668
  105MOL0     C13760   9.027   2.358   5.937 -0.3288  0.4908 -0.2507
  105MOL0     C13761   8.891   2.381   5.944  0.2325 -0.1169  0.7314
  105MOL0     C13762   8.815   2.264   5.977  0.2957 -0.4360  0.3315
  105MOL0     O13763   8.680   2.269   6.012  0.3394 -0.2288 -0.4844
  105MOL0     C13764   8.607   2.382   6.038 -0.5711  0.1442 -0.1017
  105MOL0     C13765   8.459   2.339   6.073  0.6339  0.3404 -0.2071
  105MOL0     C13766   8.444   2.239   6.191 -0.4687  0.5501 -0.0435
  105MOL0     C13767   8.306   2.167   6.192 -0.1531  0.1833  0.3997
  105MOL0     C13768   8.275   2.086   6.322  0.4790 -0.1368  0.7782
  105MOL0     C13769   8.283   2.165   6.457  0.5072 -0.1239  0.4613
  105MOL0     C13770   8.229   2.100   6.577  0.0580  0.5799  0.3966
  105MOL0     C13771   8.081   2.068   6.576 -0.0389  0.3151  0.4417
  105MOL0    Cl13772   7.994   2.231   6.569  0.1174  0.1304  0.4287
  105MOL0     C13773   8.869   2.136   5.978 -0.4342 -0.6648  0.4299
  105MOL0     C13774   9.006   2.125   5.972  0.5274 -1.1878  0.6197
  105MOL0     O13775   9.217   2.080   5.775  0.7164  0.6859  0.0310
  105MOL0     C13776   9.487   2.279   5.903  0.2033  0.1404  0.0941
  105MOL0     C13777   9.619   2.314   5.880 -0.0524  0.2038 -0.4633
  105MOL0     N13778   9.862   2.365   5.227 -0.0194  0.4852 -0.2254
  105MOL0     N13779   9.927   2.372   5.114  0.6209 -0.1566 -0.2814
  105MOL0     C13780  10.921   1.900   4.570  0.1572  0.0293 -0.0032
  105MOL0     C13781  11.053   1.860   4.594  0.6119  0.0201 -0.1909
  105MOL0     C13782  11.487   1.801   4.653  1.0366  0.1460  0.0936
  105MOL0     C13783  11.582   1.902   4.621 -0.2297 -0.4933 -0.2370
  105MOL0     C13784  11.722   1.872   4.618  0.0315 -0.0761  0.1475
  105MOL0     C13785  11.762   1.752   4.671 -0.2329 -0.0766  0.3888
  105MOL0     O13786  11.895   1.725   4.660  0.2781  0.6425 -0.3937
  105MOL0     C13787  12.004   1.819   4.672  0.1640 -0.8379  1.1068
  105MOL0     C13788  12.005   1.890   4.809  0.1108 -0.3353 -0.7590
  105MOL0     C13789  12.142   1.940   4.848  0.2132 -0.1549 -0.0795
  105MOL0     C13790  12.136   1.991   4.991  0.1029  0.4924 -0.4558
  105MOL0     C13791  12.261   2.049   5.019 -0.4278 -1.0265 -0.3153
  105MOL0     C13792  12.376   2.101   5.029  0.5875  0.3010 -0.8774
  105MOL0     C13793  11.674   1.651   4.714 -0.2038  0.3167  0.6397
  105MOL0     C13794  11.540   1.678   4.713  0.3555 -0.3871  0.0993
  105MOL0     H13795  11.205   2.119   4.431 -0.6870 -1.3552 -1.4246
  105MOL0     H13796  10.981   2.194   4.406 -3.2146  0.6816  1.7022
  105MOL0     H13797  10.781   2.156   4.675  1.0955 -0.7361 -0.7030
  105MOL0     H13798  10.653   2.032   4.662  1.2664 -0.6361 -1.2087
  105MOL0     H13799  10.532   2.163   4.492  1.3150  0.6660 -0.5598
  105MOL0     H13800  10.634   2.306   4.530 -1.0977  1.6333  1.0367
  105MOL0     H13801  10.572   2.253   4.777 -0.0332  1.1579  0.0502
  105MOL0     H13802  10.455   2.135   4.709  0.3935 -0.3195  0.1150
  105MOL0     H13803  10.486   2.436   4.649  0.4312 -0.0038  1.5261
  105MOL0     H13804  10.365   2.326   4.572  3.4450 -0.8556 -2.5613
  105MOL0     H13805  10.274   2.479   4.758 -3.4038 -1.5401  0.9518
  105MOL0     H13806  10.391   2.413   4.867  1.1587 -0.4982 -0.5727
  105MOL0     H13807  10.277   2.185   4.861  1.8797  1.1697  0.3082
  105MOL0     H13808  10.187   2.229   4.725  0.9619 -1.0819 -0.4132
  105MOL0     H13809  10.065   2.404   4.870 -0.4935 -1.0268 -1.7399
  105MOL0     H13810  10.033   2.239   4.889  0.5045 -0.5803  2.0843
  105MOL0     H13811  10.237   2.408   5.055 -1.0113 -0.0073  2.5384
  105MOL0     H13812  10.203   2.232   5.070  1.3782  0.8911  2.5671
  105MOL0     H13813  10.174   2.330   5.333 -0.0118  1.8360  1.5184
  105MOL0     H13814   9.978   2.237   5.492  0.6656 -0.4599 -0.3863
  105MOL0     H13815   9.829   2.346   5.493 -0.2724 -0.5040 -1.1019
  105MOL0     H13816   9.975   2.532   5.544  1.6398  1.4379  0.9014
  105MOL0     H13817  10.119   2.434   5.518  0.5413 -2.0965  2.4545
  105MOL0     H13818  10.059   2.291   5.698 -0.9056 -0.3834  0.1061
  105MOL0     H13819  10.081   2.463   5.763 -1.8081  0.0396  1.5129
  105MOL0     H13820   9.824   2.476   5.742  3.2925  2.3306 -3.1953
  105MOL0     H13821   9.918   2.426   5.877 -0.3864 -0.5306 -0.4021
  105MOL0     H13822   9.718   2.060   5.685 -0.0936  0.4923 -0.9270
  105MOL0     H13823   9.450   2.017   5.698 -0.1646  1.2179 -2.1835
  105MOL0     H13824   9.088   2.447   5.925 -3.5227  2.8745 -0.0946
  105MOL0     H13825   8.857   2.484   5.937 -0.4822 -0.0527  3.6996
  105MOL0     H13826   8.601   2.445   5.949 -2.3239 -0.1382 -0.2162
  105MOL0     H13827   8.654   2.433   6.123 -2.1902 -0.5578  1.2620
  105MOL0     H13828   8.417   2.286   5.987  1.5473  1.2030 -1.2039
  105MOL0     H13829   8.397   2.421   6.110 -2.0729 -2.6277  2.4270
  105MOL0     H13830   8.478   2.284   6.285 -0.0553 -2.8762  1.5943
  105MOL0     H13831   8.520   2.162   6.176  1.4670  2.2190  0.6567
  105MOL0     H13832   8.237   2.252   6.191  0.6540  0.8720  1.2481
  105MOL0     H13833   8.294   2.110   6.100  3.2995  0.1851 -0.1464
  105MOL0     H13834   8.348   2.006   6.336 -0.2572 -1.4934 -2.4353
  105MOL0     H13835   8.173   2.047   6.311  0.4600  0.5278 -2.3994
  105MOL0     H13836   8.247   2.268   6.447  2.5472  0.6858  1.0467
  105MOL0     H13837   8.388   2.192   6.469 -0.3357  2.9094  2.2729
  105MOL0     H13838   8.278   2.002   6.584  1.3550  0.9991 -2.0211
  105MOL0     H13839   8.255   2.159   6.665 -0.4686  0.7841  0.4188
  105MOL0     H13840   8.051   2.020   6.670 -3.4836  0.4441 -0.4544
  105MOL0     H13841   8.063   1.994   6.497 -0.6720  0.4888  0.4136
  105MOL0     H13842   8.800   2.055   5.999 -0.5495 -0.8407 -0.5897
  105MOL0     H13843   9.052   2.026   5.975 -1.4404 -2.1430  4.0584
  105MOL0     H13844   9.441   2.341   5.980  1.4132  0.6958  0.3824
  105MOL0     H13845   9.664   2.393   5.938 -3.8826  3.5228 -1.5284
  105MOL0     H13846  10.837   1.831   4.573  0.5926 -0.5313 -0.5249
  105MOL0     H13847  11.074   1.764   4.640 -1.6768 -1.3331 -1.7193
  105MOL0     H13848  11.547   1.995   4.578  0.1693 -1.0459 -1.8198
  105MOL0     H13849  11.791   1.945   4.577 -1.2111  1.1528  0.1599
  105MOL0     H13850  12.008   1.896   4.595 -0.8753  0.3928  2.2214
  105MOL0     H13851  12.101   1.769   4.669 -0.4265 -2.0804 -2.6862
  105MOL0     H13852  11.931   1.971   4.803  3.4045  3.1318  0.7849
  105MOL0     H13853  11.964   1.828   4.889  1.2933  0.9112  0.8833
  105MOL0     H13854  12.176   2.031   4.797 -0.7304 -0.1350 -0.6737
  105MOL0     H13855  12.218   1.861   4.845  0.1559 -0.2597  0.8169
  105MOL0     H13856  12.058   2.068   5.002 -1.4429 -0.7720 -2.1222
  105MOL0     H13857  12.107   1.907   5.054 -1.1852 -0.1903 -1.8988
  105MOL0     H13858  12.470   2.154   5.025 -0.4215  2.4407  1.0793
  105MOL0     H13859  11.714   1.552   4.733 -1.4721 -0.9273 -2.6034
  105MOL0     H13860  11.472   1.595   4.729  1.2064 -0.9022  1.1708
  106MOL0     O13861   9.872   2.405  11.223 -0.5320  0.2494  0.2283
  106MOL0     C13862   9.935   2.458  11.128  0.8448 -0.5298  0.0156
  106MOL0     O13863   9.882   2.530  11.029 -0.0754 -0.1199  0.8539
  106MOL0     C13864   9.740   2.549  11.013 -0.3253 -0.6677  0.2314
  106MOL0     C13865   9.699   2.609  10.891 -0.2547  1.3603 -0.5647
  106MOL0     C13866   9.567   2.615  10.857 -0.1341 -0.7604  0.3257
  106MOL0     C13867   9.460   2.581  10.943  0.2822 -0.0300 -0.1551
  106MOL0     O13868   9.338   2.600  10.897  0.3299 -0.2406 -0.1744
  106MOL0     C13869   9.244   2.555  10.988  0.1016  0.0487  0.4017
  106MOL0     C13870   9.109   2.543  10.913  0.1716  0.5370 -0.5481
  106MOL0     C13871   9.000   2.464  10.990  0.6430 -0.4663  0.0998
  106MOL0     C13872   8.873   2.488  10.909  0.4160 -0.1872 -0.0652
  106MOL0     C13873   8.755   2.416  10.977  1.2570 -0.1517  0.6930
  106MOL0     C13874   8.641   2.380  10.879 -0.3693 -0.5445 -0.7123
  106MOL0     C13875   8.567   2.509  10.850  0.3749  0.8698  0.0084
  106MOL0     C13876   8.452   2.480  10.758  1.4653  0.1453 -0.3837
  106MOL0     N13877   8.345   2.395  10.818  0.3030 -0.1761  0.0388
  106MOL0     C13878   8.261   2.420  10.920  0.3165  0.2250 -0.4554
  106MOL0     C13879   8.175   2.317  10.909 -0.6766  0.0568 -0.6373
  106MOL0     C13880   8.045   2.300  10.995  0.5542 -0.1320 -0.4060
  106MOL0     C13881   7.917   2.259  10.916  0.1992  0.6083  1.1995
  106MOL0     C13882   7.799   2.216  11.017  0.2267  0.0285  0.8540
  106MOL0     C13883   7.666   2.173  10.944  0.7661 -0.0062 -0.6758
  106MOL0     O13884   7.634   2.268  10.844  0.5170  0.6764 -1.0063
  106MOL0     C13885   7.502   2.301  10.830  0.2357  0.2846  0.4403
  106MOL0     C13886   7.391   2.215  10.846  0.0642  0.1163 -0.6552
  106MOL0     C13887   7.261   2.264  10.823  0.2399 -0.2543 -0.2453
  106MOL0     C13888   7.229   2.399  10.798  0.3841 -0.2877  0.2610
  106MOL0     C13889   7.091   2.454  10.787  0.2892 -0.0183  0.0357
  106MOL0     O13890   7.002   2.358  10.763  0.2878  0.3371 -1.0636
  106MOL0     C13891   6.871   2.389  10.765 -0.2704 -0.5531 -0.7007
  106MOL0     C13892   6.818   2.443  10.886  0.3751 -0.0516  0.4307
  106MOL0     C13893   6.683   2.490  10.874  0.1943 -0.1755  0.2879
  106MOL0     C13894   6.608   2.467  10.760  0.3220 -0.0344 -0.3837
  106MOL0     O13895   6.472   2.508  10.756 -0.4680 -0.3604 -0.4179
  106MOL0     C13896   6.416   2.610  10.832  0.9232  0.3987  0.2499
  106MOL0     C13897   6.283   2.652  10.772  0.2926 -0.1727  0.2152
  106MOL0     C13898   6.171   2.551  10.763 -0.9845 -0.1809  0.2510
  106MOL0     C13899   6.036   2.612  10.739 -0.0130  0.4252 -0.1887
  106MOL0     C13900   5.928   2.499  10.738  0.5131  0.0046  0.0461
  106MOL0     C13901   5.806   2.551  10.667  0.1856  0.0746  0.3423
  106MOL0     C13902   5.724   2.643  10.754  0.0968 -0.4262  0.3013
  106MOL0     C13903   5.626   2.707  10.658  0.0513  0.7169  0.2339
  106MOL0    Cl13904   5.504   2.802  10.756  0.3414 -0.4014  0.1437
  106MOL0     C13905   6.662   2.413  10.649  0.1712  0.0719  0.0807
  106MOL0     C13906   6.793   2.364  10.655  0.3762 -0.9966  0.1348
  106MOL0     O13907   7.074   2.571  10.784 -0.4727 -1.0419  0.0017
  106MOL0     C13908   7.345   2.487  10.787  0.2241  0.5213 -0.1832
  106MOL0     C13909   7.474   2.436  10.797 -0.3966  1.0334 -0.1793
  106MOL0     N13910   8.193   2.236  10.798  0.1532  0.0386 -0.9946
  106MOL0     N13911   8.296   2.286  10.745  0.2797 -0.1526 -0.1980
  106MOL0     C13912   9.500   2.538  11.073 -0.1834  0.3469 -0.3020
  106MOL0     C13913   9.636   2.510  11.104 -0.4368 -0.0005  0.5404
  106MOL0     C13914  10.085   2.434  11.127  0.5887  0.0498 -0.0802
  106MOL0     C13915  10.152   2.497  11.026  0.1770 -0.1480 -0.4853
  106MOL0     C13916  10.286   2.468  11.019 -0.3351  0.1682 -0.6558
  106MOL0     C13917  10.354   2.373  11.101  0.1780 -0.3665 -0.3440
  106MOL0     O13918  10.488   2.360  11.096  0.7620  0.3124 -0.2998
  106MOL0     C13919  10.535   2.271  10.999 -0.4071 -0.4995  0.6486
  106MOL0     C13920  10.686   2.243  11.013  0.9867  0.6789 -1.0045
  106MOL0     C13921  10.721   2.139  11.114  0.6546  0.1957 -0.1638
  106MOL0     C13922  10.874   2.142  11.143 -0.9981 -0.1817 -0.0571
  106MOL0     C13923  10.948   2.066  11.045 -0.5613  0.0683  0.4013
  106MOL0     C13924  10.984   1.986  10.961  0.0434  0.6619  1.1189
  106MOL0     C13925  10.279   2.314  11.203  0.4811 -0.1532  0.5105
  106MOL0     C13926  10.145   2.348  11.215 -0.2487  0.0617  0.4478
  106MOL0     H13927   9.768   2.643  10.814  1.0048 -2.4443 -1.2979
  106MOL0     H13928   9.568   2.647  10.754  1.6016 -1.5226  0.0539
  106MOL0     H13929   9.235   2.619  11.076 -1.3037  3.0405 -1.7446
  106MOL0     H13930   9.261   2.451  11.017 -0.1389 -0.1052  0.0075
  106MOL0     H13931   9.121   2.490  10.818 -1.4440  1.1129 -1.0983
  106MOL0     H13932   9.066   2.643  10.901 -1.4605 -0.1307 -0.5160
  106MOL0     H13933   8.976   2.508  11.088  1.6706  1.2345 -0.3721
  106MOL0     H13934   9.041   2.363  10.993  0.8522 -0.4702 -1.9287
  106MOL0     H13935   8.854   2.594  10.889 -1.4466 -0.7173 -1.3923
  106MOL0     H13936   8.890   2.449  10.808 -0.1151  1.1576 -0.7020
  106MOL0     H13937   8.721   2.481  11.058  4.0012  0.5039  1.4232
  106MOL0     H13938   8.791   2.325  11.025  1.1260  0.7349  2.5613
  106MOL0     H13939   8.587   2.301  10.932 -1.7308  1.1002  0.4379
  106MOL0     H13940   8.677   2.339  10.784  2.2792 -3.0666  1.1868
  106MOL0     H13941   8.539   2.558  10.944 -0.6538 -2.3268  1.5240
  106MOL0     H13942   8.640   2.579  10.807  2.5764 -1.2511  0.0508
  106MOL0     H13943   8.504   2.446  10.668  1.9097  0.1200 -0.1238
  106MOL0     H13944   8.402   2.571  10.726 -1.2888 -1.4883 -1.0068
  106MOL0     H13945   8.245   2.481  11.008  0.1347 -0.8531  0.2866
  106MOL0     H13946   8.035   2.396  11.047  2.7370  0.7399 -1.4300
  106MOL0     H13947   8.068   2.229  11.075  1.1602 -0.2477 -0.6735
  106MOL0     H13948   7.923   2.179  10.841  0.2684  0.1967  1.6381
  106MOL0     H13949   7.882   2.347  10.862 -0.6159 -0.5702 -0.2529
  106MOL0     H13950   7.826   2.128  11.076 -0.6053 -0.0576  1.1304
  106MOL0     H13951   7.792   2.295  11.092  1.9241 -0.0905  1.1595
  106MOL0     H13952   7.590   2.153  11.019 -1.0013  0.2025 -2.3226
  106MOL0     H13953   7.682   2.072  10.904  0.8039 -0.3066  0.0930
  106MOL0     H13954   7.410   2.111  10.872 -0.3098  0.3158  0.4822
  106MOL0     H13955   7.189   2.186  10.843 -0.3594  0.3586  0.0538
  106MOL0     H13956   6.879   2.462  10.973  1.2852  0.9136 -0.3905
  106MOL0     H13957   6.650   2.547  10.960 -0.4587  0.0291 -0.1000
  106MOL0     H13958   6.476   2.702  10.838 -0.4852  1.5577 -1.8555
  106MOL0     H13959   6.395   2.575  10.933 -1.8167  3.5194  0.9528
  106MOL0     H13960   6.298   2.692  10.672 -2.2376 -0.1850 -0.2524
  106MOL0     H13961   6.253   2.742  10.827  0.2937 -1.5034  2.5019
  106MOL0     H13962   6.177   2.490  10.853 -3.3847  1.2932  1.5110
  106MOL0     H13963   6.195   2.483  10.680  0.2919  0.3001  0.1970
  106MOL0     H13964   6.025   2.683  10.822 -2.0329 -1.3117  1.1179
  106MOL0     H13965   6.043   2.660  10.640  1.5155  2.7557  0.9472
  106MOL0     H13966   5.903   2.458  10.837 -0.2918  1.3780  0.4423
  106MOL0     H13967   5.976   2.426  10.672  0.9828  1.3215 -1.0990
  106MOL0     H13968   5.743   2.470  10.629  1.2958 -0.4511 -0.4303
  106MOL0     H13969   5.845   2.609  10.582  0.8976  1.2350  1.4272
  106MOL0     H13970   5.681   2.581  10.832  1.8100 -0.4580  1.2673
  106MOL0     H13971   5.783   2.723  10.800  0.4695 -0.0615 -0.7741
  106MOL0     H13972   5.561   2.631  10.615 -1.1927  2.7626 -1.7350
  106MOL0     H13973   5.659   2.772  10.576 -0.9760  2.2062  0.9631
  106MOL0     H13974   6.609   2.400  10.555  2.3296  0.0843 -1.2028
  106MOL0     H13975   6.835   2.320  10.565 -1.9787 -1.5536 -0.7544
  106MOL0     H13976   7.332   2.594  10.784 -0.5631  0.4713 -4.5259
  106MOL0     H13977   7.560   2.500  10.781  1.2151 -0.3736  2.2331
  106MOL0     H13978   9.435   2.508  11.154 -0.9207  4.3051  0.7482
  106MOL0     H13979   9.653   2.448  11.191  0.9210 -5.0776 -2.8501
  106MOL0     H13980  10.117   2.572  10.956  1.9454 -1.0931 -2.5050
  106MOL0     H13981  10.349   2.532  10.958 -0.8924  1.8711  0.4732
  106MOL0     H13982  10.526   2.324  10.904  2.5004 -0.7214  0.1581
  106MOL0     H13983  10.469   2.184  10.998 -2.9436  1.2845  1.9721
  106MOL0     H13984  10.724   2.215  10.914  1.2959  4.1952 -2.0080
  106MOL0     H13985  10.732   2.336  11.046  0.6096 -0.0268  1.7968
  106MOL0     H13986  10.687   2.038  11.091 -1.9491  0.6596  1.2469
  106MOL0     H13987  10.670   2.163  11.208  1.7841  0.3207  0.4304
  106MOL0     H13988  10.917   2.239  11.169 -1.7371 -0.6666  3.4836
  106MOL0     H13989  10.885   2.073  11.228 -1.9749 -2.4030 -1.6213
  106MOL0     H13990  11.015   1.909  10.893  0.8740  0.5338  1.6294
  106MOL0     H13991  10.320   2.240  11.271 -3.6972 -4.3346 -0.9541
  106MOL0     H13992  10.080   2.302  11.289 -0.4186  1.9615  1.5765
  107MOL0     O13993   4.776   5.768   2.493  0.0188  0.1309 -0.4564
  107MOL0     C13994   4.718   5.778   2.602 -0.9173  0.3740 -0.1993
  107MOL0     O13995   4.589   5.756   2.622 -0.2976  0.1412  0.3585
  107MOL0     C13996   4.529   5.705   2.513  0.0380  0.1237 -0.7596
  107MOL0     C13997   4.419   5.780   2.460 -0.9702 -0.6768  0.7514
  107MOL0     C13998   4.347   5.733   2.349 -0.2110 -0.1852 -0.7593
  107MOL0     C13999   4.368   5.601   2.297  0.1844 -0.2902  0.0924
  107MOL0     O14000   4.294   5.537   2.205  0.4973  0.4512 -0.0178
  107MOL0     C14001   4.230   5.603   2.095  0.4589 -0.4683 -0.2311
  107MOL0     C14002   4.204   5.509   1.983 -0.0419  0.1128 -0.2921
  107MOL0     C14003   4.332   5.455   1.915 -0.0912  0.1923 -0.3817
  107MOL0     C14004   4.311   5.331   1.829  0.0985 -0.0925 -0.1640
  107MOL0     C14005   4.428   5.287   1.748  0.1385 -0.3056  0.7706
  107MOL0     C14006   4.559   5.272   1.830 -1.2842 -0.3611 -0.4058
  107MOL0     C14007   4.650   5.171   1.766 -0.1751 -0.2480 -0.8859
  107MOL0     C14008   4.718   5.220   1.632 -0.0378 -0.0696  0.0839
  107MOL0     N14009   4.635   5.256   1.522  0.1038  0.3488 -0.5447
  107MOL0     C14010   4.545   5.174   1.456  0.5848  0.0550 -1.2556
  107MOL0     C14011   4.475   5.255   1.381  0.2791 -0.3739  0.4377
  107MOL0     C14012   4.363   5.230   1.280 -0.0097  0.0561  0.7262
  107MOL0     C14013   4.224   5.260   1.332 -0.1732  1.0446 -0.8508
  107MOL0     C14014   4.191   5.200   1.468 -0.6186  1.4156 -0.0424
  107MOL0     C14015   4.038   5.203   1.502 -0.4082 -0.1274  0.7866
  107MOL0     O14016   4.020   5.215   1.642  0.0471 -0.1227  0.5310
  107MOL0     C14017   3.888   5.204   1.688  0.3289  0.4147  0.9286
  107MOL0     C14018   3.779   5.231   1.603  0.0902  0.2714  0.2253
  107MOL0     C14019   3.646   5.211   1.650  0.7463 -0.1044  1.1569
  107MOL0     C14020   3.615   5.169   1.776 -0.7302  0.4139 -0.9448
  107MOL0     C14021   3.478   5.127   1.817 -0.7220 -0.7935  0.4899
  107MOL0     O14022   3.382   5.137   1.717  0.2142  0.6280  0.1346
  107MOL0     C14023   3.259   5.074   1.733  0.2300 -0.5680  0.8553
  107MOL0     C14024   3.225   4.983   1.830 -0.0239  0.2087  0.6160
  107MOL0     C14025   3.098   4.927   1.830 -0.1306 -0.4674 -0.5333
  107MOL0     C14026   3.004   4.974   1.728 -0.7145  0.5476  0.1510
  107MOL0     O14027   2.874   4.938   1.728 -0.2315  0.3392  0.0417
  107MOL0     C14028   2.834   4.827   1.810  0.6447  0.1155  0.4766
  107MOL0     C14029   2.694   4.787   1.786  1.4055  0.0074 -0.1283
  107MOL0     C14030   2.657   4.753   1.644  0.7546 -0.4070 -0.4593
  107MOL0     C14031   2.509   4.710   1.632  0.4809 -0.3617  0.3692
  107MOL0     C14032   2.499   4.666   1.475 -0.2437 -0.5567  0.1741
  107MOL0     C14033   2.344   4.664   1.434 -0.9552 -0.5734 -0.2296
  107MOL0     C14034   2.332   4.635   1.285 -0.0025 -0.3298  0.1062
  107MOL0     C14035   2.188   4.616   1.241 -0.2571  0.1956  0.2179
  107MOL0    Cl14036   2.068   4.738   1.310  0.3545  0.3767 -0.1968
  107MOL0     C14037   3.050   5.059   1.629 -0.5710 -1.2477  0.6635
  107MOL0     C14038   3.174   5.102   1.624  0.2760 -0.0346  0.4516
  107MOL0     O14039   3.460   5.102   1.935  0.3231  0.2902 -0.0952
  107MOL0     C14040   3.727   5.141   1.863 -1.1112  0.5940 -0.1410
  107MOL0     C14041   3.859   5.170   1.814 -0.6227 -0.2322 -0.3360
  107MOL0     N14042   4.538   5.377   1.394  0.4097  0.3328 -0.8161
  107MOL0     N14043   4.641   5.378   1.470  0.2546  0.4423 -0.0254
  107MOL0     C14044   4.472   5.528   2.356 -0.7132 -0.0806  0.4404
  107MOL0     C14045   4.556   5.576   2.455 -1.6782  0.1238 -0.2105
  107MOL0     C14046   4.804   5.817   2.723  0.5358 -0.2088  0.1704
  107MOL0     C14047   4.936   5.858   2.700 -0.1051  0.4904 -0.1318
  107MOL0     C14048   5.030   5.872   2.802  0.8209  0.1334 -0.3820
  107MOL0     C14049   4.991   5.856   2.936 -0.4422  0.4417  0.8264
  107MOL0     O14050   5.079   5.875   3.041 -0.4682  0.5463  0.8026
  107MOL0     C14051   5.069   5.804   3.162 -0.1907 -1.1333 -0.3376
  107MOL0     C14052   5.180   5.853   3.249  0.3545 -0.5363 -0.6746
  107MOL0     C14053   5.314   5.850   3.171 -0.3439 -0.1895 -0.3312
  107MOL0     C14054   5.425   5.893   3.249 -0.5813  0.8280 -0.7451
  107MOL0     C14055   5.471   5.785   3.335  0.5994 -0.8406 -0.3821
  107MOL0     C14056   5.521   5.700   3.406 -0.0092 -0.5824  0.4012
  107MOL0     C14057   4.859   5.814   2.961 -0.0741  0.6083  0.3673
  107MOL0     C14058   4.763   5.792   2.856 -0.5431 -0.7253  0.5793
  107MOL0     H14059   4.387   5.875   2.501 -0.0787 -1.3261  3.1354
  107MOL0     H14060   4.265   5.796   2.316  0.8870  3.2118  2.2996
  107MOL0     H14061   4.300   5.677   2.053 -2.2403  1.3792 -1.7699
  107MOL0     H14062   4.143   5.645   2.145  1.2651 -3.2476  3.9924
  107MOL0     H14063   4.141   5.554   1.906  1.9617  0.8816 -1.5739
  107MOL0     H14064   4.140   5.427   2.016  1.5637 -0.6551  1.0848
  107MOL0     H14065   4.405   5.426   1.991  1.7298  0.1376 -2.0656
  107MOL0     H14066   4.382   5.540   1.866 -1.1881 -0.4254 -2.7337
  107MOL0     H14067   4.292   5.242   1.889  5.3171 -1.6269 -0.2657
  107MOL0     H14068   4.231   5.352   1.758  1.1240  0.2807 -1.2582
  107MOL0     H14069   4.454   5.354   1.665  5.3801 -2.2016  0.4844
  107MOL0     H14070   4.385   5.200   1.697  0.1484  1.2720 -2.1586
  107MOL0     H14071   4.546   5.253   1.937  1.8530 -0.2620  0.0972
  107MOL0     H14072   4.611   5.368   1.830 -0.7052 -0.6516 -1.7020
  107MOL0     H14073   4.734   5.131   1.823  1.8137 -2.9285 -5.1965
  107MOL0     H14074   4.592   5.080   1.747  0.6492 -0.7592 -1.0310
  107MOL0     H14075   4.794   5.146   1.608 -0.5137 -0.9401  1.2074
  107MOL0     H14076   4.764   5.312   1.669 -1.8148 -0.0073  2.3779
  107MOL0     H14077   4.533   5.066   1.453 -1.0075  0.0355  1.8940
  107MOL0     H14078   4.370   5.129   1.241  4.3971  0.3791  0.1139
  107MOL0     H14079   4.381   5.300   1.198 -0.2414  1.8269  2.1216
  107MOL0     H14080   4.146   5.223   1.264 -0.0030 -1.1820  0.0917
  107MOL0     H14081   4.208   5.368   1.345  1.1817  1.0585  1.0645
  107MOL0     H14082   4.233   5.099   1.479 -1.1782  0.9996 -1.4838
  107MOL0     H14083   4.228   5.266   1.547  1.9473  1.8764 -1.4998
  107MOL0     H14084   3.982   5.117   1.463  1.9867 -1.4521  0.0590
  107MOL0     H14085   4.007   5.296   1.455 -1.6379 -0.4741  0.8519
  107MOL0     H14086   3.797   5.269   1.502  0.2667  2.3865  1.0039
  107MOL0     H14087   3.568   5.236   1.580 -0.7844  2.0937  3.4921
  107MOL0     H14088   3.290   4.964   1.914  0.7056 -1.3722 -0.2594
  107MOL0     H14089   3.078   4.866   1.918  0.8217  0.1095  0.0986
  107MOL0     H14090   2.850   4.850   1.915  0.9185  0.6906  0.3116
  107MOL0     H14091   2.896   4.738   1.793 -1.4763 -1.4435  0.4485
  107MOL0     H14092   2.632   4.870   1.819  3.0506  1.1025  0.3217
  107MOL0     H14093   2.679   4.712   1.864 -3.2939 -0.2820 -0.9953
  107MOL0     H14094   2.725   4.672   1.617  2.6802  0.1829  2.1945
  107MOL0     H14095   2.673   4.846   1.589  0.0766 -0.2665 -0.4303
  107MOL0     H14096   2.485   4.622   1.692 -6.5932  1.5965  1.3226
  107MOL0     H14097   2.432   4.786   1.643 -0.3300 -0.8898 -1.3532
  107MOL0     H14098   2.549   4.570   1.459 -1.0164 -1.0883  0.8192
  107MOL0     H14099   2.541   4.745   1.412 -2.2141  1.0923  0.8171
  107MOL0     H14100   2.304   4.764   1.452  1.9876  0.6294  0.3368
  107MOL0     H14101   2.287   4.588   1.488 -4.0078 -0.8889 -3.5617
  107MOL0     H14102   2.376   4.725   1.240  0.6488  0.8652  2.9027
  107MOL0     H14103   2.373   4.538   1.257 -2.0888 -0.6992 -2.0425
  107MOL0     H14104   2.165   4.512   1.266 -2.2735  0.7490  0.9160
  107MOL0     H14105   2.184   4.616   1.131  2.6984 -1.4446  0.0247
  107MOL0     H14106   2.993   5.102   1.547  0.5587  1.0599  1.0086
  107MOL0     H14107   3.208   5.171   1.547  0.5813 -2.0674 -1.3264
  107MOL0     H14108   3.712   5.088   1.957  0.2231  0.9765  0.3211
  107MOL0     H14109   3.935   5.145   1.888 -1.7699 -0.7763  0.7046
  107MOL0     H14110   4.501   5.427   2.327 -1.0021 -0.1968  0.5482
  107MOL0     H14111   4.635   5.518   2.501  0.3494  2.3461 -0.7156
  107MOL0     H14112   4.965   5.875   2.596  0.6315 -3.0194 -0.6315
  107MOL0     H14113   5.131   5.897   2.771  1.0345  0.7798  0.7956
  107MOL0     H14114   5.084   5.698   3.143  1.4289 -1.0035  0.0750
  107MOL0     H14115   4.966   5.823   3.194  0.2330  0.5751  0.1305
  107MOL0     H14116   5.160   5.958   3.268 -0.1168 -0.3962 -1.8448
  107MOL0     H14117   5.189   5.795   3.341 -0.2029  1.4123  0.6500
  107MOL0     H14118   5.301   5.924   3.093  4.7466  2.2372  0.7240
  107MOL0     H14119   5.335   5.753   3.125 -0.2610 -1.2763  1.8338
  107MOL0     H14120   5.496   5.925   3.172 -0.3752  1.2627 -0.3798
  107MOL0     H14121   5.399   5.983   3.305  2.7880  1.8579 -0.6248
  107MOL0     H14122   5.577   5.623   3.454 -1.0521 -1.6270 -0.0213
  107MOL0     H14123   4.817   5.790   3.058  0.1472  1.3094  0.6406
  107MOL0     H14124   4.660   5.770   2.882 -0.0680 -4.2978 -0.0385
  108MOL0     O14125   7.427   0.859   3.655  0.5047 -0.0465 -0.2413
  108MOL0     C14126   7.372   0.880   3.545 -0.3436  0.1260 -0.5874
  108MOL0     O14127   7.431   0.906   3.426 -0.0651 -0.2892  1.0014
  108MOL0     C14128   7.569   0.907   3.393  0.2379  0.7415  0.4721
  108MOL0     C14129   7.610   0.877   3.260 -0.7317 -0.1794  0.0195
  108MOL0     C14130   7.744   0.869   3.221 -1.4193  0.1384 -0.5291
  108MOL0     C14131   7.844   0.881   3.316 -0.3137  0.2121 -0.3001
  108MOL0     O14132   7.974   0.856   3.286 -0.3426  0.3542  0.3405
  108MOL0     C14133   8.030   0.966   3.216  0.4994  0.1305  0.9274
  108MOL0     C14134   8.160   1.004   3.279 -0.2948  0.2530 -0.8465
  108MOL0     C14135   8.239   1.074   3.168 -1.1933 -0.9965 -0.3059
  108MOL0     C14136   8.358   1.156   3.228  0.9391  0.7197  0.2641
  108MOL0     C14137   8.460   1.195   3.117  0.2210 -0.0102  0.5841
  108MOL0     C14138   8.580   1.280   3.166  0.5536 -0.0556 -0.1063
  108MOL0     C14139   8.704   1.257   3.075  0.7752 -0.3647 -0.2724
  108MOL0     C14140   8.713   1.366   2.963  0.5458  0.5335 -0.2061
  108MOL0     N14141   8.841   1.354   2.887 -0.2054 -0.4082  0.2092
  108MOL0     C14142   8.964   1.367   2.948  0.0447  0.7097 -0.4352
  108MOL0     C14143   9.050   1.357   2.843 -0.2273  0.4221 -0.2402
  108MOL0     C14144   9.195   1.385   2.843  0.2828  0.0418  0.2245
  108MOL0     C14145   9.260   1.268   2.906  0.1015  0.6170  1.0922
  108MOL0     C14146   9.245   1.138   2.834 -0.0068 -0.9824 -0.0319
  108MOL0     C14147   9.123   1.050   2.850  0.8176 -0.5872  0.4774
  108MOL0     O14148   9.122   1.023   2.990  0.5262  0.7146  0.4290
  108MOL0     C14149   9.008   0.962   3.032 -0.0853 -0.8986 -0.3156
  108MOL0     C14150   8.923   0.877   2.960 -0.7974  0.6220 -1.6663
  108MOL0     C14151   8.795   0.841   3.016 -0.1459 -0.5907  0.8116
  108MOL0     C14152   8.754   0.885   3.141 -0.1523  1.1287 -0.1626
  108MOL0     C14153   8.617   0.829   3.181 -0.6182 -0.9425  0.5546
  108MOL0     O14154   8.555   0.727   3.113  0.3971  0.2120  0.4397
  108MOL0     C14155   8.434   0.686   3.158 -0.6383  0.8672 -0.6826
  108MOL0     C14156   8.304   0.714   3.095 -0.4776 -0.1375 -0.1511
  108MOL0     C14157   8.185   0.658   3.155 -0.2256  0.4616 -0.0694
  108MOL0     C14158   8.198   0.571   3.267 -0.6005  0.2401 -0.3815
  108MOL0     O14159   8.098   0.501   3.321  0.4075 -0.2270 -0.0826
  108MOL0     C14160   8.079   0.491   3.462  0.2360 -0.8448  0.9377
  108MOL0     C14161   7.950   0.564   3.498  0.6190 -0.7587  0.1539
  108MOL0     C14162   7.870   0.494   3.608  0.8683 -0.8492  0.5058
  108MOL0     C14163   7.747   0.587   3.648 -0.3569 -0.3955  0.4147
  108MOL0     C14164   7.628   0.519   3.718  0.9598  0.2333 -0.6837
  108MOL0     C14165   7.664   0.476   3.858  0.6377  0.2202 -0.0730
  108MOL0     C14166   7.543   0.416   3.932 -0.2439 -0.9731 -0.3017
  108MOL0     C14167   7.572   0.296   4.024  0.2622  0.4940 -0.1768
  108MOL0    Cl14168   7.656   0.368   4.169  0.6344  0.0524  0.3613
  108MOL0     C14169   8.322   0.532   3.314  0.1944  0.2929  0.4469
  108MOL0     C14170   8.434   0.594   3.261 -0.4030 -0.6087 -0.1624
  108MOL0     O14171   8.569   0.890   3.285  0.1642 -0.2018 -0.1428
  108MOL0     C14172   8.848   0.959   3.218 -0.0233  0.9764  1.2774
  108MOL0     C14173   8.972   0.991   3.166  0.6681  0.2829  0.0912
  108MOL0     N14174   8.977   1.330   2.728 -0.5014  0.3186  0.4519
  108MOL0     N14175   8.849   1.323   2.757 -0.4689 -0.0717 -0.2632
  108MOL0     C14176   7.800   0.905   3.446 -0.5006  0.0573 -0.1190
  108MOL0     C14177   7.669   0.920   3.481  0.6968 -0.1485  0.0294
  108MOL0     C14178   7.234   0.837   3.547  0.0968 -0.1080 -0.9586
  108MOL0     C14179   7.150   0.868   3.435 -0.0498 -1.3688 -0.3189
  108MOL0     C14180   7.011   0.846   3.438 -0.5425 -0.2899 -0.7964
  108MOL0     C14181   6.951   0.788   3.553  0.7621 -0.8895 -0.4867
  108MOL0     O14182   6.820   0.789   3.604  0.4677 -0.1062  0.5827
  108MOL0     C14183   6.739   0.898   3.567 -0.0714 -0.2052  0.2274
  108MOL0     C14184   6.586   0.867   3.588 -0.3308  0.5219  0.1263
  108MOL0     C14185   6.543   0.866   3.745 -0.6036  0.2558 -1.2686
  108MOL0     C14186   6.535   0.729   3.822  0.6403  0.0332  1.2688
  108MOL0     C14187   6.417   0.650   3.776 -0.5724  0.0390  0.6549
  108MOL0     C14188   6.329   0.581   3.743  1.1023  0.4890  0.5016
  108MOL0     C14189   7.030   0.744   3.650  1.2684  0.9479  0.2764
  108MOL0     C14190   7.173   0.769   3.652  0.3588 -0.4188  0.2498
  108MOL0     H14191   7.532   0.857   3.187 -0.8884 -2.3376  0.7074
  108MOL0     H14192   7.770   0.840   3.120 -0.1186  0.6754 -0.3750
  108MOL0     H14193   7.967   1.056   3.214  2.4129  1.5976  2.7656
  108MOL0     H14194   8.039   0.932   3.112  1.4563  0.0901  1.0164
  108MOL0     H14195   8.212   0.918   3.322 -2.8859  0.4568  3.1413
  108MOL0     H14196   8.147   1.071   3.365  2.0721  2.5430 -2.0948
  108MOL0     H14197   8.170   1.137   3.111 -1.4122  0.2752  1.2665
  108MOL0     H14198   8.282   0.996   3.104 -0.2723 -0.1513 -0.7416
  108MOL0     H14199   8.322   1.249   3.271 -1.1728  0.0087  0.1741
  108MOL0     H14200   8.404   1.106   3.314  0.7927  0.2478  0.0739
  108MOL0     H14201   8.414   1.240   3.028 -1.0389 -1.4707  0.4454
  108MOL0     H14202   8.496   1.098   3.081 -3.4700  0.0802 -4.5859
  108MOL0     H14203   8.621   1.244   3.261 -2.7936 -1.6199  0.9315
  108MOL0     H14204   8.552   1.385   3.177  2.9813  0.4098  2.8836
  108MOL0     H14205   8.794   1.255   3.137  1.1451 -1.0881 -0.8158
  108MOL0     H14206   8.698   1.160   3.025 -0.9233  0.7413 -2.4113
  108MOL0     H14207   8.703   1.464   3.010 -2.0020 -1.0631  2.9860
  108MOL0     H14208   8.626   1.357   2.897 -0.5938 -1.2048  1.4248
  108MOL0     H14209   8.991   1.383   3.052  1.1490 -1.0440 -0.4034
  108MOL0     H14210   9.224   1.480   2.890  0.5805 -1.1855  2.7063
  108MOL0     H14211   9.225   1.390   2.738 -0.1529 -0.0640  0.0938
  108MOL0     H14212   9.207   1.250   3.000 -1.9003  1.0096  0.0863
  108MOL0     H14213   9.363   1.296   2.929  0.1634 -0.2769  1.9720
  108MOL0     H14214   9.259   1.159   2.727  3.2566 -2.6427 -0.0385
  108MOL0     H14215   9.324   1.075   2.875  2.3197  3.5096  3.2445
  108MOL0     H14216   9.129   0.963   2.783  0.0405 -1.2670  1.2725
  108MOL0     H14217   9.030   1.104   2.828 -0.2225 -2.9562 -1.3524
  108MOL0     H14218   8.965   0.843   2.866 -0.7672 -0.5164 -1.2611
  108MOL0     H14219   8.734   0.775   2.955 -0.0562 -2.6435  2.8429
  108MOL0     H14220   8.292   0.776   3.007 -1.5263 -0.3615 -0.1707
  108MOL0     H14221   8.085   0.676   3.118 -0.7651 -2.0634 -0.0539
  108MOL0     H14222   8.161   0.530   3.523  1.0718 -1.8235  0.4832
  108MOL0     H14223   8.059   0.388   3.495 -0.0134 -0.1566  3.0963
  108MOL0     H14224   7.887   0.583   3.411 -2.2742  0.9976  2.4410
  108MOL0     H14225   7.976   0.663   3.538  2.2312 -0.0706 -2.3392
  108MOL0     H14226   7.930   0.477   3.698  2.6687 -0.4497 -0.5714
  108MOL0     H14227   7.826   0.397   3.583 -1.2249  0.0800  0.3981
  108MOL0     H14228   7.780   0.673   3.707  2.8620 -3.4879  3.5917
  108MOL0     H14229   7.716   0.630   3.552  0.6006  0.2480  0.3888
  108MOL0     H14230   7.591   0.437   3.657 -0.7734  3.0964 -3.8082
  108MOL0     H14231   7.546   0.591   3.724  0.3518 -0.3575 -1.7379
  108MOL0     H14232   7.698   0.562   3.915  1.3642  0.0517 -0.2411
  108MOL0     H14233   7.756   0.416   3.859  3.6125  4.2616 -1.9310
  108MOL0     H14234   7.504   0.500   3.991  0.0461 -0.6809 -0.5243
  108MOL0     H14235   7.472   0.391   3.853 -0.6785  3.3620 -1.5558
  108MOL0     H14236   7.638   0.220   3.980  2.8372  4.5942 -4.4587
  108MOL0     H14237   7.480   0.249   4.059 -2.0795  3.1013 -2.3085
  108MOL0     H14238   8.334   0.448   3.381  3.0722 -0.6738 -1.0908
  108MOL0     H14239   8.535   0.568   3.291 -0.1022  0.3785 -0.3000
  108MOL0     H14240   8.817   0.989   3.317 -2.3717  3.4939 -0.0821
  108MOL0     H14241   9.037   1.055   3.226  0.6741  0.2345  0.1361
  108MOL0     H14242   7.879   0.910   3.520 -0.9545  1.8536  0.2879
  108MOL0     H14243   7.642   0.947   3.583 -0.7638 -2.4903  0.3210
  108MOL0     H14244   7.199   0.921   3.354  1.3327 -1.1448  0.6308
  108MOL0     H14245   6.944   0.882   3.361 -2.6411 -0.6297  0.7851
  108MOL0     H14246   6.769   0.921   3.465  2.5422 -0.8370  0.7685
  108MOL0     H14247   6.776   0.979   3.630 -1.7553  1.8278 -1.2646
  108MOL0     H14248   6.509   0.919   3.529 -0.6715  0.0708  0.1623
  108MOL0     H14249   6.585   0.768   3.541 -0.5847  1.7568 -2.6872
  108MOL0     H14250   6.442   0.909   3.744 -1.6926 -2.0347  0.4723
  108MOL0     H14251   6.606   0.939   3.795 -1.4455 -0.3515  0.7906
  108MOL0     H14252   6.628   0.671   3.823  0.5436 -0.1121  1.8303
  108MOL0     H14253   6.521   0.764   3.924 -0.5308 -0.0034  1.1376
  108MOL0     H14254   6.242   0.524   3.716  0.5929  0.5657  1.9038
  108MOL0     H14255   6.994   0.705   3.744 -1.3813 -0.0466 -1.0567
  108MOL0     H14256   7.234   0.748   3.740  1.5711 -0.4455 -0.5735
  109MOL0     O14257   9.954   7.237   5.992 -0.5460 -0.3968  0.5139
  109MOL0     C14258   9.958   7.342   6.063  0.3284 -0.5180 -0.6556
  109MOL0     O14259   9.893   7.358   6.183 -0.5471 -0.0181 -0.0836
  109MOL0     C14260   9.809   7.260   6.223  0.0983 -0.5645 -0.1388
  109MOL0     C14261   9.689   7.238   6.158 -0.2292  0.7448  0.8591
  109MOL0     C14262   9.611   7.125   6.197 -0.5278 -0.2773  1.1960
  109MOL0     C14263   9.648   7.050   6.307 -0.0293 -0.0618 -0.2473
  109MOL0     O14264   9.554   6.952   6.337 -0.1087 -0.2509  0.2491
  109MOL0     C14265   9.583   6.872   6.451  0.1296  0.3849  0.3712
  109MOL0     C14266   9.486   6.763   6.472  0.5639 -0.4296  0.3298
  109MOL0     C14267   9.340   6.801   6.474 -0.4549 -0.1240 -0.0611
  109MOL0     C14268   9.310   6.870   6.609  0.1559 -0.0586  0.2825
  109MOL0     C14269   9.157   6.892   6.632  0.2751 -0.1595  0.9931
  109MOL0     C14270   9.097   7.024   6.572  0.1208 -0.1789 -0.2850
  109MOL0     C14271   8.954   7.058   6.622  0.0048  0.3371  0.4047
  109MOL0     C14272   8.853   6.978   6.553  0.1857  1.3483 -0.6061
  109MOL0     N14273   8.726   6.976   6.619  1.0318 -0.0411 -0.3554
  109MOL0     C14274   8.630   7.075   6.608 -0.3565  0.1053  0.9046
  109MOL0     C14275   8.524   7.033   6.686 -0.9147  0.0476 -0.2193
  109MOL0     C14276   8.404   7.128   6.730  0.9825  0.4685 -0.7584
  109MOL0     C14277   8.325   7.068   6.842 -0.7549 -0.2917  0.6021
  109MOL0     C14278   8.209   7.147   6.898  0.1048 -0.0122 -0.2848
  109MOL0     C14279   8.141   7.093   7.020 -0.3117 -0.8038  0.8686
  109MOL0     O14280   7.999   7.093   6.999 -0.2942 -0.1073 -0.1748
  109MOL0     C14281   7.923   7.093   7.111 -0.5390 -1.1237  0.0040
  109MOL0     C14282   7.789   7.078   7.085 -0.2785 -0.1491  0.3612
  109MOL0     C14283   7.700   7.080   7.187 -0.1919  0.1355  0.5672
  109MOL0     C14284   7.737   7.093   7.320 -0.3222  0.2960  0.6473
  109MOL0     C14285   7.634   7.086   7.421 -0.6723 -0.7130 -0.1610
  109MOL0     O14286   7.659   7.129   7.543  0.2120 -0.2387 -0.1643
  109MOL0     C14287   7.589   7.104   7.650  0.5772 -0.4759  0.0498
  109MOL0     C14288   7.655   7.086   7.769  0.6469 -0.2821 -0.8569
  109MOL0     C14289   7.586   7.053   7.879  0.1038 -0.8186  0.1443
  109MOL0     C14290   7.440   7.061   7.888 -0.0197  0.3822  0.4302
  109MOL0     O14291   7.374   7.043   8.002 -0.3029 -0.0206  0.3512
  109MOL0     C14292   7.379   6.907   8.046 -0.2431  0.6216 -0.4554
  109MOL0     C14293   7.240   6.845   8.082 -0.4998 -0.3807 -0.0304
  109MOL0     C14294   7.246   6.732   8.191 -0.4233 -0.7466  1.1663
  109MOL0     C14295   7.299   6.597   8.130  0.3447 -0.8304  0.4843
  109MOL0     C14296   7.368   6.508   8.232 -0.1504 -0.3929 -0.1876
  109MOL0     C14297   7.412   6.380   8.167  0.3411  0.2728 -0.0115
  109MOL0     C14298   7.507   6.292   8.263  0.4078 -1.3677 -0.0755
  109MOL0     C14299   7.590   6.184   8.189  0.2425 -0.2301  0.3792
  109MOL0    Cl14300   7.711   6.248   8.080  0.3712 -0.1242 -0.1394
  109MOL0     C14301   7.376   7.108   7.776 -0.1341  0.1222 -0.0625
  109MOL0     C14302   7.445   7.128   7.654 -0.4159 -0.0232  0.3242
  109MOL0     O14303   7.533   7.031   7.383  0.1295 -0.3489 -0.0304
  109MOL0     C14304   7.871   7.100   7.354  0.8511  0.1076 -0.6624
  109MOL0     C14305   7.965   7.098   7.246  1.1188 -0.0926 -0.7447
  109MOL0     N14306   8.553   6.900   6.733  0.1816 -0.0834  0.5507
  109MOL0     N14307   8.671   6.873   6.688  0.4062 -0.5320 -0.6424
  109MOL0     C14308   9.771   7.087   6.376  0.5820  0.7116 -0.0318
  109MOL0     C14309   9.853   7.187   6.334  0.7782 -0.1973 -0.3508
  109MOL0     C14310  10.043   7.455   6.004 -0.1762  0.0163  0.9866
  109MOL0     C14311  10.001   7.590   6.000  0.4914 -0.0543  0.8265
  109MOL0     C14312  10.086   7.681   5.934  0.4429  0.1363 -0.0428
  109MOL0     C14313  10.207   7.644   5.877 -0.6007 -0.0214  0.5884
  109MOL0     O14314  10.293   7.726   5.808 -0.1909 -0.1485  0.2507
  109MOL0     C14315  10.259   7.865   5.787  0.2764  0.0050 -1.2480
  109MOL0     C14316  10.397   7.936   5.781  0.1767  0.0754 -0.0962
  109MOL0     C14317  10.466   7.937   5.924  0.9728  0.3139  0.5669
  109MOL0     C14318  10.575   7.833   5.935  0.0295 -0.1029  0.6513
  109MOL0     C14319  10.661   7.868   6.051 -0.1015 -0.7158  0.2254
  109MOL0     C14320  10.722   7.883   6.149  0.3537 -0.1850 -0.0794
  109MOL0     C14321  10.244   7.516   5.880 -0.6557 -0.3057 -1.3791
  109MOL0     C14322  10.164   7.420   5.943  1.0845  0.1806 -0.3722
  109MOL0     H14323   9.661   7.311   6.083  2.8401  0.6420 -0.5338
  109MOL0     H14324   9.527   7.109   6.130 -0.3319 -0.2367  0.9337
  109MOL0     H14325   9.580   6.942   6.535 -2.1104 -1.8174  2.3155
  109MOL0     H14326   9.682   6.825   6.440  0.1376  0.2846  0.8139
  109MOL0     H14327   9.509   6.698   6.557  0.2548 -1.5381 -0.4137
  109MOL0     H14328   9.497   6.693   6.389  0.5145 -0.1736  0.1060
  109MOL0     H14329   9.279   6.711   6.462  1.6300 -1.2426 -4.1012
  109MOL0     H14330   9.320   6.872   6.393 -0.3544  0.2697  0.2545
  109MOL0     H14331   9.344   6.813   6.696  0.2772  2.0987  1.7334
  109MOL0     H14332   9.349   6.972   6.622 -0.8908  0.2950  0.7933
  109MOL0     H14333   9.138   6.891   6.739  2.8272 -1.6018  1.5192
  109MOL0     H14334   9.104   6.806   6.591  2.1400 -0.8626 -0.0531
  109MOL0     H14335   9.083   7.021   6.464 -3.1161 -2.9824  0.0703
  109MOL0     H14336   9.154   7.115   6.594 -0.1833 -0.4415  1.7592
  109MOL0     H14337   8.949   7.039   6.730  4.0126  0.4782  0.7653
  109MOL0     H14338   8.930   7.161   6.598  1.5850  0.4559 -0.8187
  109MOL0     H14339   8.897   6.878   6.552 -0.7602  0.8924  0.7420
  109MOL0     H14340   8.838   7.010   6.450  1.5673 -1.0950 -1.6712
  109MOL0     H14341   8.642   7.166   6.551  1.5573 -2.1685 -2.7133
  109MOL0     H14342   8.343   7.154   6.644  1.0632  1.8262 -0.4224
  109MOL0     H14343   8.443   7.223   6.768  0.6313 -0.0654  1.0152
  109MOL0     H14344   8.402   7.052   6.918 -0.9321  1.5655  1.2240
  109MOL0     H14345   8.284   6.973   6.804 -3.6209  0.4513  1.6349
  109MOL0     H14346   8.258   7.243   6.919  0.7582 -0.4307  0.1449
  109MOL0     H14347   8.138   7.163   6.816  1.1961 -2.3114 -1.7753
  109MOL0     H14348   8.163   7.147   7.112 -1.7884 -1.3245  1.5549
  109MOL0     H14349   8.186   6.994   7.024  2.0074 -0.0530 -2.3144
  109MOL0     H14350   7.755   7.071   6.982 -0.1583 -3.5029  0.4227
  109MOL0     H14351   7.597   7.066   7.156  0.5247 -3.0568 -0.7949
  109MOL0     H14352   7.761   7.105   7.785  0.7668 -1.7360  0.3306
  109MOL0     H14353   7.655   7.047   7.963  3.0609 -0.4514 -2.1062
  109MOL0     H14354   7.441   6.906   8.136 -3.1290 -0.1590  1.6566
  109MOL0     H14355   7.408   6.837   7.966  0.4366 -0.0358  0.3515
  109MOL0     H14356   7.180   6.812   7.997 -3.4786  2.4517  0.7748
  109MOL0     H14357   7.169   6.920   8.119 -2.1914 -2.0073  0.1995
  109MOL0     H14358   7.147   6.720   8.237 -1.5505 -1.9070 -1.3397
  109MOL0     H14359   7.318   6.756   8.269 -0.0041  0.5971  0.4089
  109MOL0     H14360   7.214   6.540   8.092 -0.4369  0.2466  0.5632
  109MOL0     H14361   7.364   6.615   8.044 -0.5305 -1.5379 -0.3515
  109MOL0     H14362   7.300   6.485   8.315  0.8489 -3.3400 -0.0459
  109MOL0     H14363   7.456   6.563   8.267  0.0801 -2.5116  2.9980
  109MOL0     H14364   7.462   6.409   8.074  1.5897  3.3426  1.4730
  109MOL0     H14365   7.339   6.308   8.128 -1.5674  1.8911  0.3821
  109MOL0     H14366   7.575   6.366   8.308  1.2088 -1.8466 -0.4773
  109MOL0     H14367   7.449   6.238   8.339 -0.6060  0.1248  0.2540
  109MOL0     H14368   7.520   6.122   8.131  0.0520  0.9306 -0.7004
  109MOL0     H14369   7.644   6.129   8.266  2.1087  0.5225 -0.3438
  109MOL0     H14370   7.267   7.108   7.780 -0.1972 -0.7922 -1.1476
  109MOL0     H14371   7.399   7.166   7.563  0.0532 -1.9668 -0.7837
  109MOL0     H14372   7.902   7.103   7.458  1.2797  1.5909 -0.8009
  109MOL0     H14373   8.069   7.104   7.275  0.2867 -1.3124  3.2183
  109MOL0     H14374   9.800   7.028   6.463  0.8374  1.1408  0.1798
  109MOL0     H14375   9.949   7.201   6.383  0.5802 -1.2624  0.3794
  109MOL0     H14376   9.907   7.622   6.044  0.0255 -0.1975 -0.0342
  109MOL0     H14377  10.052   7.783   5.946 -1.1162  0.1732 -3.3930
  109MOL0     H14378  10.194   7.913   5.861  1.2411  2.4971 -1.8996
  109MOL0     H14379  10.198   7.883   5.698 -2.1743  0.4241  0.4272
  109MOL0     H14380  10.461   7.877   5.713  2.8195  0.9221  1.5123
  109MOL0     H14381  10.388   8.036   5.736 -0.1275  1.0094  1.9617
  109MOL0     H14382  10.390   7.918   6.000  1.4871 -0.2149  0.9601
  109MOL0     H14383  10.499   8.040   5.942 -1.4744  0.9757  1.6992
  109MOL0     H14384  10.535   7.732   5.938  0.5469 -0.3686  4.6093
  109MOL0     H14385  10.641   7.850   5.849  0.2130 -0.1325  0.7842
  109MOL0     H14386  10.769   7.911   6.242 -0.9927 -0.0245  0.5861
  109MOL0     H14387  10.337   7.481   5.836 -0.5467  1.1187 -2.3705
  109MOL0     H14388  10.195   7.316   5.944 -2.3368 -1.0618 -2.8111
  110MOL0     O14389   7.871   6.190   7.300  1.1000  0.0716  0.4246
  110MOL0     C14390   7.969   6.132   7.356  0.5476  0.3390  0.1666
  110MOL0     O14391   7.973   6.076   7.479  0.4451 -0.6738  0.9145
  110MOL0     C14392   7.865   6.091   7.558  0.5506  0.3276  0.1451
  110MOL0     C14393   7.740   6.035   7.520  0.3630 -0.5448 -0.4677
  110MOL0     C14394   7.638   6.046   7.612  0.4321 -0.1797 -0.1666
  110MOL0     C14395   7.646   6.126   7.727 -0.9782  0.5296  0.1080
  110MOL0     O14396   7.543   6.150   7.808 -0.5967  0.6239  0.2954
  110MOL0     C14397   7.415   6.092   7.781  0.0880 -0.8528  0.2368
  110MOL0     C14398   7.316   6.158   7.680  0.2542  0.0135 -0.9619
  110MOL0     C14399   7.208   6.245   7.756  0.2074  0.0141  0.0910
  110MOL0     C14400   7.113   6.322   7.667  0.7551  0.4843 -0.9617
  110MOL0     C14401   6.998   6.388   7.746  0.0133 -0.1638 -0.1692
  110MOL0     C14402   7.051   6.472   7.869  0.3646 -0.4124 -0.1040
  110MOL0     C14403   6.949   6.579   7.929 -0.4492 -0.3022  0.7510
  110MOL0     C14404   6.864   6.647   7.811  0.4479 -0.0536 -0.2919
  110MOL0     N14405   6.781   6.756   7.867  0.0577  0.0561 -0.8649
  110MOL0     C14406   6.751   6.771   7.998  0.0020  1.0422  0.9783
  110MOL0     C14407   6.662   6.867   8.007 -0.5385 -0.1525  0.4890
  110MOL0     C14408   6.620   6.927   8.138  0.0159 -0.9222 -0.0219
  110MOL0     C14409   6.687   7.065   8.147  0.1145  0.8023  0.3384
  110MOL0     C14410   6.678   7.176   8.032 -0.3119 -0.2333 -0.6160
  110MOL0     C14411   6.536   7.201   7.996  0.2152 -0.6913 -0.2179
  110MOL0     O14412   6.452   7.257   8.098 -0.3784  0.3053  0.9210
  110MOL0     C14413   6.313   7.275   8.076 -1.2149  0.2664 -1.0172
  110MOL0     C14414   6.232   7.306   8.193  0.1272 -0.1930 -0.0704
  110MOL0     C14415   6.104   7.335   8.175  0.0559  0.1071  0.2501
  110MOL0     C14416   6.041   7.336   8.055  0.7789 -0.1285  0.2613
  110MOL0     C14417   5.893   7.375   8.061  1.0023  0.3678  0.8067
  110MOL0     O14418   5.822   7.356   7.941  0.4104 -0.2686 -0.8117
  110MOL0     C14419   5.686   7.358   7.929  1.1418  0.2014 -0.6781
  110MOL0     C14420   5.594   7.345   8.036 -1.3799  0.6660  0.0668
  110MOL0     C14421   5.456   7.341   8.008  0.6991 -0.0756 -1.1388
  110MOL0     C14422   5.404   7.356   7.882  1.0474 -0.4660  0.6732
  110MOL0     O14423   5.272   7.380   7.861 -0.1146 -0.0367  0.0003
  110MOL0     C14424   5.191   7.472   7.944 -0.2122  0.3865  0.5774
  110MOL0     C14425   5.140   7.581   7.850 -0.3811  0.1298 -0.4114
  110MOL0     C14426   5.026   7.551   7.767  1.1424  0.1370  1.3184
  110MOL0     C14427   4.973   7.672   7.699 -0.3866  0.4945 -0.0480
  110MOL0     C14428   4.833   7.643   7.637  0.3536 -0.0408  0.1027
  110MOL0     C14429   4.783   7.775   7.578 -0.6509  0.1727 -0.3451
  110MOL0     C14430   4.653   7.750   7.504  0.6301  0.8841 -0.8431
  110MOL0     C14431   4.639   7.862   7.404 -0.0868  0.5872  0.5085
  110MOL0    Cl14432   4.654   8.024   7.476 -0.1455 -0.0745  0.0479
  110MOL0     C14433   5.494   7.353   7.782  0.4245 -0.3481  0.3326
  110MOL0     C14434   5.632   7.360   7.805  1.1072  0.5770 -0.3001
  110MOL0     O14435   5.853   7.395   8.171  0.3004 -0.8313 -0.5158
  110MOL0     C14436   6.109   7.300   7.941 -0.3304  0.7354 -0.6318
  110MOL0     C14437   6.251   7.263   7.956 -0.3300  1.5963 -0.0481
  110MOL0     N14438   6.617   6.896   7.882  0.0913  0.0868 -0.1344
  110MOL0     N14439   6.691   6.825   7.803 -0.0121 -0.3181 -0.4771
  110MOL0     C14440   7.766   6.184   7.762  0.6185  0.2266 -0.3833
  110MOL0     C14441   7.878   6.156   7.680 -0.4038  1.1831  1.2831
  110MOL0     C14442   8.093   6.103   7.281 -0.4333  0.4625 -0.1076
  110MOL0     C14443   8.209   6.049   7.343 -1.6151  0.4764 -0.0304
  110MOL0     C14444   8.328   6.034   7.266 -0.2552 -1.1643  0.5741
  110MOL0     C14445   8.331   6.087   7.132 -0.1946 -0.0604  0.7709
  110MOL0     O14446   8.445   6.117   7.063  0.1675  0.3127 -0.1345
  110MOL0     C14447   8.576   6.063   7.105 -0.8044 -0.8483  0.1127
  110MOL0     C14448   8.624   5.944   7.022 -0.7963  0.0565 -0.0451
  110MOL0     C14449   8.780   5.910   7.045 -0.2115 -0.3340  0.4020
  110MOL0     C14450   8.796   5.795   7.143 -0.3105 -0.0289 -0.7962
  110MOL0     C14451   8.934   5.769   7.190 -0.1320  0.2140 -0.7987
  110MOL0     C14452   9.046   5.749   7.221 -0.1012  0.9518 -0.0242
  110MOL0     C14453   8.214   6.135   7.075 -0.3652  0.4854  0.4874
  110MOL0     C14454   8.096   6.134   7.147 -0.1362 -0.5243  0.6615
  110MOL0     H14455   7.730   5.989   7.422  1.1003 -1.1478 -0.2638
  110MOL0     H14456   7.551   5.983   7.593  1.6920 -1.9079 -0.3454
  110MOL0     H14457   7.372   6.098   7.881  2.8683  0.3902  1.4559
  110MOL0     H14458   7.434   5.986   7.764  3.8595  0.0716 -2.9555
  110MOL0     H14459   7.271   6.081   7.617  0.2734  0.5700 -1.6626
  110MOL0     H14460   7.377   6.221   7.614 -0.6184  1.5657 -0.3291
  110MOL0     H14461   7.260   6.318   7.819  0.9248 -1.6053  1.4512
  110MOL0     H14462   7.155   6.180   7.826  0.3404 -0.6138 -0.3883
  110MOL0     H14463   7.167   6.401   7.614  1.0983  0.8366 -0.1045
  110MOL0     H14464   7.076   6.250   7.593 -1.7178 -0.3701  0.9610
  110MOL0     H14465   6.938   6.302   7.775 -0.4320  0.4231  0.7082
  110MOL0     H14466   6.937   6.450   7.679  0.1074 -0.7680 -0.8231
  110MOL0     H14467   7.150   6.513   7.847  0.5517 -1.0077 -0.3919
  110MOL0     H14468   7.077   6.398   7.945  1.9527 -0.8003 -0.9675
  110MOL0     H14469   6.884   6.532   8.004 -0.1133 -0.1194  1.1620
  110MOL0     H14470   6.999   6.659   7.986  0.4341 -0.8190  0.7123
  110MOL0     H14471   6.796   6.580   7.758 -1.4815  1.9209 -0.4103
  110MOL0     H14472   6.930   6.690   7.735  0.6072 -0.6085 -0.4760
  110MOL0     H14473   6.815   6.739   8.079 -1.9216 -1.9553  1.4449
  110MOL0     H14474   6.652   6.865   8.222 -0.7896  2.3874  2.9759
  110MOL0     H14475   6.513   6.930   8.160 -0.0874  0.8853 -0.6207
  110MOL0     H14476   6.787   7.054   8.191 -0.1027 -3.1874  0.2134
  110MOL0     H14477   6.629   7.095   8.234 -0.6906 -5.2956  2.3905
  110MOL0     H14478   6.709   7.277   8.062 -3.8884  1.1413 -0.9335
  110MOL0     H14479   6.736   7.143   7.946 -0.4373 -0.3800 -0.6444
  110MOL0     H14480   6.494   7.105   7.966 -0.4176 -0.6954  0.6595
  110MOL0     H14481   6.544   7.263   7.906  0.4101 -1.0190 -0.4273
  110MOL0     H14482   6.275   7.303   8.292  1.3346 -1.7934 -0.6009
  110MOL0     H14483   6.058   7.372   8.266 -0.4142 -0.3248  0.1973
  110MOL0     H14484   5.632   7.339   8.138  1.1067  1.4452 -0.7560
  110MOL0     H14485   5.386   7.338   8.092  1.6954 -0.9987 -0.3063
  110MOL0     H14486   5.260   7.512   8.019  0.8882 -3.4260  1.8360
  110MOL0     H14487   5.100   7.425   7.982 -1.3012  2.3725  0.5403
  110MOL0     H14488   5.225   7.602   7.785 -1.0523  1.7348 -0.8012
  110MOL0     H14489   5.121   7.673   7.906 -1.3412 -0.1961 -0.1870
  110MOL0     H14490   4.943   7.529   7.835 -1.0725  0.4124 -1.1007
  110MOL0     H14491   5.036   7.473   7.691 -3.5740  0.6216 -0.1200
  110MOL0     H14492   4.972   7.743   7.782  0.8616 -1.6883  1.9220
  110MOL0     H14493   5.044   7.707   7.624  1.4058 -1.1795  0.7894
  110MOL0     H14494   4.760   7.614   7.713  0.0636  1.6214  0.5033
  110MOL0     H14495   4.835   7.567   7.560 -2.3716 -0.4642  0.3589
  110MOL0     H14496   4.874   7.806   7.525  1.3346 -3.5578  0.5296
  110MOL0     H14497   4.771   7.850   7.657  0.2278  1.5860 -1.5003
  110MOL0     H14498   4.664   7.655   7.451  2.3916  1.6682 -1.9583
  110MOL0     H14499   4.577   7.753   7.583 -1.4079 -1.3594 -2.5466
  110MOL0     H14500   4.539   7.859   7.359  0.4669  1.8588 -0.9128
  110MOL0     H14501   4.711   7.858   7.322 -0.2932  1.0067  0.3024
  110MOL0     H14502   5.470   7.360   7.677  1.5569 -1.7245 -0.0498
  110MOL0     H14503   5.704   7.377   7.725  0.2700  1.8572 -0.8170
  110MOL0     H14504   6.060   7.303   7.844 -0.7423  1.4466 -0.4115
  110MOL0     H14505   6.301   7.240   7.862 -1.8418  0.6118 -0.6523
  110MOL0     H14506   7.785   6.243   7.852 -0.4084 -0.2618  0.1750
  110MOL0     H14507   7.973   6.194   7.716  2.0330 -2.5862 -0.5145
  110MOL0     H14508   8.215   6.040   7.451 -0.8711 -1.1805 -0.1708
  110MOL0     H14509   8.418   6.001   7.317  0.1077 -0.3550  0.4825
  110MOL0     H14510   8.583   6.037   7.211 -2.9693  1.8137  1.0242
  110MOL0     H14511   8.650   6.143   7.098  0.6901 -2.2985 -1.5202
  110MOL0     H14512   8.560   5.865   7.063 -0.7821 -0.4603 -1.0025
  110MOL0     H14513   8.617   5.957   6.914  0.5361  3.5391  0.1749
  110MOL0     H14514   8.836   5.992   7.089  1.1366 -1.1595  0.2646
  110MOL0     H14515   8.828   5.886   6.949 -1.9210  1.1345 -0.8899
  110MOL0     H14516   8.745   5.826   7.234  0.7720 -1.9428  0.5446
  110MOL0     H14517   8.759   5.700   7.104 -0.1445 -0.2627 -0.3970
  110MOL0     H14518   9.145   5.739   7.260 -0.1818 -1.8003 -0.3291
  110MOL0     H14519   8.212   6.162   6.970 -1.6209 -1.2662  0.0106
  110MOL0     H14520   8.003   6.163   7.100 -0.5919 -1.0754  1.2219
  111MOL0     O14521   5.492   6.589   7.040  0.5859 -0.4130 -0.3749
  111MOL0     C14522   5.470   6.542   6.932 -0.1565 -0.5242  0.6574
  111MOL0     O14523   5.566   6.502   6.841 -0.5226  0.2318  0.0338
  111MOL0     C14524   5.701   6.522   6.856 -0.5480 -0.0071 -0.5054
  111MOL0     C14525   5.754   6.624   6.938  0.5766  0.1665  0.7614
  111MOL0     C14526   5.898   6.643   6.939 -0.5119  0.2704 -0.6313
  111MOL0     C14527   5.978   6.570   6.859 -0.3176 -0.3053  0.2971
  111MOL0     O14528   6.112   6.598   6.868  0.8024 -0.4027  0.7145
  111MOL0     C14529   6.195   6.485   6.871 -0.0309 -0.5453  0.7549
  111MOL0     C14530   6.306   6.504   6.984  0.3304  0.5686  0.4271
  111MOL0     C14531   6.446   6.561   6.943  0.5411 -0.0716  0.4594
  111MOL0     C14532   6.446   6.697   6.886 -0.4354 -0.1244 -0.0459
  111MOL0     C14533   6.578   6.727   6.822 -0.4446 -0.5766 -0.0165
  111MOL0     C14534   6.562   6.859   6.741  0.3439  0.8722 -0.4762
  111MOL0     C14535   6.675   6.873   6.644  0.9009  0.3070 -0.1548
  111MOL0     C14536   6.810   6.893   6.717  0.0154 -0.5307  0.1118
  111MOL0     N14537   6.816   6.993   6.825  0.7119 -0.3257 -0.1088
  111MOL0     C14538   6.832   7.137   6.812 -0.4370  0.4836 -0.3797
  111MOL0     C14539   6.841   7.183   6.945  0.6483 -0.0953 -0.0793
  111MOL0     C14540   6.874   7.321   6.973 -0.0576 -0.7499 -0.2755
  111MOL0     C14541   6.757   7.409   6.936  0.0736  0.5044 -0.7888
  111MOL0     C14542   6.636   7.384   7.029 -0.3729 -0.1900  0.2219
  111MOL0     C14543   6.512   7.468   6.983 -0.0106 -0.1147 -1.1670
  111MOL0     O14544   6.407   7.419   7.072  0.1621 -0.0631  0.5220
  111MOL0     C14545   6.281   7.472   7.054 -1.1216  0.2062  0.4692
  111MOL0     C14546   6.184   7.439   7.148  1.0015  0.9226  0.5622
  111MOL0     C14547   6.064   7.503   7.155  0.2932  0.5906  1.4915
  111MOL0     C14548   6.021   7.586   7.051  0.4803 -0.1471  0.4203
  111MOL0     C14549   5.880   7.631   7.039  1.1293  0.0410 -0.6380
  111MOL0     O14550   5.829   7.634   6.909 -0.0955 -0.2902  0.0593
  111MOL0     C14551   5.697   7.676   6.879 -0.2848 -0.1615  0.2747
  111MOL0     C14552   5.613   7.750   6.954  0.5619 -0.3584 -0.5927
  111MOL0     C14553   5.490   7.798   6.911  0.6485 -0.5317  0.7231
  111MOL0     C14554   5.442   7.758   6.786 -0.1953  0.2483 -0.2274
  111MOL0     O14555   5.328   7.814   6.751  0.4409 -0.0302 -0.0030
  111MOL0     C14556   5.258   7.772   6.635 -0.5364 -0.2643 -0.1225
  111MOL0     C14557   5.119   7.845   6.623  0.2801  0.7624  0.1134
  111MOL0     C14558   5.006   7.800   6.712  1.0048 -0.1728 -0.3760
  111MOL0     C14559   4.877   7.885   6.684  0.4724 -0.7955  1.5221
  111MOL0     C14560   4.807   7.854   6.544 -0.4096 -0.7203 -0.4502
  111MOL0     C14561   4.668   7.927   6.539  0.2151 -0.5610 -0.8430
  111MOL0     C14562   4.561   7.851   6.622  0.8549  0.1266  0.3329
  111MOL0     C14563   4.418   7.878   6.574 -0.1709  0.2065  0.1486
  111MOL0    Cl14564   4.294   7.786   6.671  0.0176  0.2831  0.3912
  111MOL0     C14565   5.531   7.693   6.703  1.0918  0.1762 -0.2219
  111MOL0     C14566   5.648   7.652   6.751 -0.2250  0.2824  0.1646
  111MOL0     O14567   5.814   7.653   7.141 -0.0220  0.4101 -0.3026
  111MOL0     C14568   6.123   7.619   6.955 -0.3827  0.1645  0.2983
  111MOL0     C14569   6.246   7.561   6.956  0.1485 -0.6841  1.1308
  111MOL0     N14570   6.819   7.075   7.034  0.5114 -0.4079  0.1472
  111MOL0     N14571   6.808   6.967   6.956 -0.2871 -0.4610  0.2857
  111MOL0     C14572   5.928   6.473   6.775  0.3848  0.5385 -0.1386
  111MOL0     C14573   5.788   6.445   6.776  0.2208  0.1129 -0.1494
  111MOL0     C14574   5.326   6.537   6.898 -0.1801 -0.5567 -0.7732
  111MOL0     C14575   5.228   6.562   6.997 -0.7026  0.6319  0.7997
  111MOL0     C14576   5.091   6.546   6.971 -0.7504 -0.8619 -0.4202
  111MOL0     C14577   5.044   6.519   6.846  0.3589  0.3015  0.4939
  111MOL0     O14578   4.907   6.533   6.832 -0.3081 -0.1318  1.5601
  111MOL0     C14579   4.860   6.540   6.695 -0.3628 -0.2778 -0.3147
  111MOL0     C14580   4.727   6.624   6.719 -0.3420 -0.4629 -0.4731
  111MOL0     C14581   4.621   6.649   6.607 -0.1690  0.4132 -0.2284
  111MOL0     C14582   4.491   6.566   6.631 -1.1657 -0.2599  0.1817
  111MOL0     C14583   4.415   6.615   6.741  1.6264  0.4254 -0.4591
  111MOL0     C14584   4.330   6.632   6.829 -0.2443 -0.2775 -0.3255
  111MOL0     C14585   5.139   6.488   6.740 -0.0315 -0.3995  0.4337
  111MOL0     C14586   5.275   6.497   6.776 -0.2020 -0.4354 -0.0096
  111MOL0     H14587   5.688   6.686   6.997 -0.9485 -0.5206 -0.1821
  111MOL0     H14588   5.953   6.696   7.016 -3.7829 -1.9303  3.6780
  111MOL0     H14589   6.250   6.466   6.778  0.5426 -2.0768  1.3740
  111MOL0     H14590   6.141   6.396   6.904 -1.0382 -0.1113  0.3115
  111MOL0     H14591   6.332   6.406   7.025 -0.7008  0.8076  1.6772
  111MOL0     H14592   6.261   6.566   7.062 -0.1954  0.4265  0.2406
  111MOL0     H14593   6.484   6.485   6.874  0.3095 -0.7034  1.0100
  111MOL0     H14594   6.499   6.557   7.039  0.7787 -0.3440  0.3177
  111MOL0     H14595   6.363   6.707   6.816 -1.2439  1.4214  1.0723
  111MOL0     H14596   6.438   6.763   6.973  1.8774 -0.2802  0.3725
  111MOL0     H14597   6.635   6.653   6.765  1.2619  0.0213  0.8334
  111MOL0     H14598   6.646   6.738   6.907  0.2378  0.7363 -0.7098
  111MOL0     H14599   6.543   6.941   6.811 -1.2358 -0.6120  0.9435
  111MOL0     H14600   6.475   6.847   6.676  0.9073 -0.1298 -1.0700
  111MOL0     H14601   6.680   6.778   6.589 -1.6501 -0.9383  1.5825
  111MOL0     H14602   6.653   6.959   6.579 -1.3949  2.5680  3.2887
  111MOL0     H14603   6.880   6.914   6.636  0.0671  0.3687  0.3821
  111MOL0     H14604   6.847   6.804   6.770 -1.0535 -0.1256  1.6225
  111MOL0     H14605   6.840   7.193   6.720  2.8189  0.3774 -0.2766
  111MOL0     H14606   6.964   7.351   6.918 -0.4693  3.3514  0.8831
  111MOL0     H14607   6.899   7.340   7.078  0.6711  2.5286 -0.9141
  111MOL0     H14608   6.712   7.413   6.837 -0.0368  1.1868 -0.7150
  111MOL0     H14609   6.780   7.514   6.956 -3.5630  1.5726 -1.4516
  111MOL0     H14610   6.599   7.281   7.026  2.3123 -1.2767  1.2586
  111MOL0     H14611   6.659   7.415   7.131 -1.0359 -1.7173  0.8649
  111MOL0     H14612   6.493   7.454   6.876  1.0701 -0.9237 -1.2637
  111MOL0     H14613   6.526   7.572   7.015 -0.4026 -0.2828 -0.4469
  111MOL0     H14614   6.209   7.366   7.225  0.1519 -2.1280 -1.8484
  111MOL0     H14615   6.001   7.479   7.240 -1.4179 -0.6199 -0.0193
  111MOL0     H14616   5.632   7.787   7.054 -2.1658 -2.5623  0.8998
  111MOL0     H14617   5.424   7.855   6.975 -0.9098 -2.5484  1.0192
  111MOL0     H14618   5.237   7.665   6.645  1.1314 -0.5525  0.7194
  111MOL0     H14619   5.314   7.776   6.541  0.4662  0.7104  0.4907
  111MOL0     H14620   5.083   7.835   6.520 -1.5499  3.0041  0.4256
  111MOL0     H14621   5.135   7.952   6.641 -1.3127  1.1280 -0.4145
  111MOL0     H14622   5.028   7.821   6.817  0.7207 -0.2989 -0.2907
  111MOL0     H14623   4.990   7.692   6.704 -1.8657 -0.1909  3.1040
  111MOL0     H14624   4.802   7.843   6.752 -0.1410 -0.3103  1.1588
  111MOL0     H14625   4.895   7.992   6.693 -2.6229  0.2525 -2.1778
  111MOL0     H14626   4.782   7.748   6.535 -0.0798 -0.8717  0.3294
  111MOL0     H14627   4.878   7.886   6.468  0.0929  0.7705  0.5929
  111MOL0     H14628   4.629   7.939   6.437  0.5210 -0.4028 -0.9454
  111MOL0     H14629   4.677   8.026   6.584 -3.5434 -0.4735 -0.0181
  111MOL0     H14630   4.575   7.742   6.615 -3.5733 -0.5988 -0.6359
  111MOL0     H14631   4.568   7.880   6.727  0.8595  0.2666  0.2936
  111MOL0     H14632   4.422   7.852   6.468  1.1330 -0.0201  0.2363
  111MOL0     H14633   4.407   7.983   6.601 -3.8891 -0.7749  3.4400
  111MOL0     H14634   5.500   7.657   6.605  3.5085  1.7008 -1.6653
  111MOL0     H14635   5.714   7.604   6.680  3.0373  2.7240  1.2700
  111MOL0     H14636   6.103   7.680   6.868  1.8696 -0.6228 -0.8432
  111MOL0     H14637   6.314   7.579   6.874  1.0410 -0.4362  1.9006
  111MOL0     H14638   5.996   6.418   6.712  0.9091  0.4839  0.4667
  111MOL0     H14639   5.748   6.371   6.708 -0.5678  0.9165 -0.5672
  111MOL0     H14640   5.256   6.580   7.100 -0.4528 -0.3821  0.9222
  111MOL0     H14641   5.018   6.556   7.051  1.7884  2.0716  1.8005
  111MOL0     H14642   4.839   6.443   6.650 -3.2371 -0.9630  2.1729
  111MOL0     H14643   4.927   6.602   6.635 -2.3324  0.4959 -1.8461
  111MOL0     H14644   4.683   6.575   6.806 -0.9776 -1.7945 -1.5062
  111MOL0     H14645   4.757   6.726   6.745 -2.6997  0.3534 -0.6954
  111MOL0     H14646   4.659   6.612   6.511 -1.1985  3.4489 -1.9429
  111MOL0     H14647   4.597   6.756   6.600  1.8782  0.8682 -1.0672
  111MOL0     H14648   4.439   6.570   6.535  1.4011 -0.9095 -1.3436
  111MOL0     H14649   4.515   6.461   6.648 -2.3197 -0.3200  1.5659
  111MOL0     H14650   4.274   6.656   6.917 -0.1509 -1.8406  0.1810
  111MOL0     H14651   5.116   6.456   6.638 -0.4062  0.8020  0.1172
  111MOL0     H14652   5.345   6.471   6.698  1.6258  1.3310  0.9475
  112MOL0     O14653   0.490   5.251   0.437  0.8129  0.2625  0.0010
  112MOL0     C14654   0.484   5.357   0.371  0.8448 -0.6549 -1.1491
  112MOL0     O14655   0.365   5.399   0.319 -0.5036  0.1328 -0.6779
  112MOL0     C14656   0.256   5.321   0.341 -0.6124 -0.2339 -1.1548
  112MOL0     C14657   0.200   5.300   0.463 -0.1173  0.2269 -0.0205
  112MOL0     C14658   0.084   5.226   0.473  0.5645  0.0312 -0.1780
  112MOL0     C14659   0.018   5.177   0.353 -0.2126 -0.2959  0.3086
  112MOL0     O14660  -0.090   5.095   0.347 -0.6596  0.1708  1.0773
  112MOL0     C14661  -0.187   5.103   0.438  0.4461 -0.7398 -0.5166
  112MOL0     C14662  -0.273   5.236   0.454 -0.6174 -0.7050 -0.3690
  112MOL0     C14663  -0.375   5.232   0.565  0.0396  1.0926 -0.3513
  112MOL0     C14664  -0.467   5.102   0.550  0.4978  0.1116 -0.2189
  112MOL0     C14665  -0.599   5.113   0.617 -0.3067 -0.3725  0.4930
  112MOL0     C14666  -0.692   5.220   0.549  0.2046 -0.6587 -0.5669
  112MOL0     C14667  -0.835   5.201   0.613  0.7793  0.1148  0.1692
  112MOL0     C14668  -0.832   5.223   0.767  0.7180  0.4843  0.0634
  112MOL0     N14669  -0.967   5.223   0.820  0.1839  0.7238  1.0506
  112MOL0     C14670  -1.057   5.114   0.832  0.6864  0.3888 -1.1101
  112MOL0     C14671  -1.170   5.161   0.897  0.1754  0.9472 -0.2927
  112MOL0     C14672  -1.297   5.078   0.937  0.0277 -0.1484 -0.1812
  112MOL0     C14673  -1.326   5.075   1.082 -0.9586 -0.6025  0.0809
  112MOL0     C14674  -1.475   5.053   1.116 -0.0194 -0.4973  0.4315
  112MOL0     C14675  -1.528   5.123   1.234 -0.4503 -0.2029  0.2460
  112MOL0     O14676  -1.661   5.062   1.257 -1.0868 -0.3785  0.1418
  112MOL0     C14677  -1.777   5.121   1.210 -0.1675  0.6090  1.3289
  112MOL0     C14678  -1.889   5.078   1.271  0.0690 -0.2689 -0.7599
  112MOL0     C14679  -2.013   5.134   1.237  0.6224  0.7552 -0.5533
  112MOL0     C14680  -2.022   5.224   1.129 -0.7523  0.5691  0.5532
  112MOL0     C14681  -2.155   5.282   1.094  0.4273  0.0950  0.5632
  112MOL0     O14682  -2.276   5.229   1.154 -0.3764  0.7012 -0.3324
  112MOL0     C14683  -2.404   5.273   1.137  0.2379 -0.5886  0.3215
  112MOL0     C14684  -2.455   5.354   1.030 -0.3587  0.7907 -0.4427
  112MOL0     C14685  -2.597   5.383   1.010 -1.3981 -0.3654 -0.7451
  112MOL0     C14686  -2.690   5.315   1.096  0.2142  0.0678 -0.1193
  112MOL0     O14687  -2.826   5.339   1.082 -0.4349  0.8435 -0.2632
  112MOL0     C14688  -2.920   5.270   1.166 -0.2082 -0.1858 -0.1603
  112MOL0     C14689  -3.063   5.313   1.133  0.3851  0.0034 -0.2996
  112MOL0     C14690  -3.167   5.255   1.230  0.1695  0.6997  1.0320
  112MOL0     C14691  -3.308   5.290   1.187  0.1760 -1.1190 -0.0301
  112MOL0     C14692  -3.404   5.204   1.267 -0.6647  0.1517  0.7678
  112MOL0     C14693  -3.539   5.217   1.204 -0.5595 -0.1956  0.2835
  112MOL0     C14694  -3.639   5.112   1.258  0.8217 -0.2299  1.1559
  112MOL0     C14695  -3.789   5.146   1.231  1.1977  0.2734 -0.0194
  112MOL0    Cl14696  -3.841   5.150   1.052 -0.0854  0.1521  0.1263
  112MOL0     C14697  -2.637   5.241   1.209  0.7154 -0.0473 -0.7858
  112MOL0     C14698  -2.492   5.225   1.228 -0.0536 -0.6305 -0.7244
  112MOL0     O14699  -2.158   5.370   1.009  0.0391  0.7956 -0.4405
  112MOL0     C14700  -1.905   5.258   1.064 -0.3405 -0.0987  0.8462
  112MOL0     C14701  -1.781   5.209   1.101  0.1913 -0.2788 -0.0914
  112MOL0     N14702  -1.160   5.300   0.911  0.0509 -0.2412 -0.5069
  112MOL0     N14703  -1.033   5.326   0.872  0.9387  0.2566  0.6592
  112MOL0     C14704   0.078   5.205   0.230 -0.0572 -0.2034 -0.5442
  112MOL0     C14705   0.197   5.277   0.227 -0.3950  1.0412 -0.8726
  112MOL0     C14706   0.604   5.451   0.352 -0.5268 -0.3845 -0.4348
  112MOL0     C14707   0.734   5.401   0.369 -0.1315 -0.8719  0.4624
  112MOL0     C14708   0.842   5.485   0.349 -0.6099  0.4213  0.4046
  112MOL0     C14709   0.831   5.619   0.309  0.0455  0.6365  0.3973
  112MOL0     O14710   0.939   5.701   0.304 -0.1532  0.1238  0.1418
  112MOL0     C14711   1.072   5.652   0.312 -0.3902  0.1051 -0.5940
  112MOL0     C14712   1.177   5.761   0.313  0.3632 -0.0369 -0.2933
  112MOL0     C14713   1.316   5.716   0.355 -0.6668 -0.1567 -0.5973
  112MOL0     C14714   1.405   5.742   0.234  0.0990  0.1956  0.5634
  112MOL0     C14715   1.545   5.687   0.238 -0.1862  0.1825 -0.1014
  112MOL0     C14716   1.660   5.663   0.255  0.5379  0.3941  0.1780
  112MOL0     C14717   0.695   5.660   0.285 -0.6995  0.7058 -0.5030
  112MOL0     C14718   0.585   5.582   0.306 -0.1668  0.0438 -0.1304
  112MOL0     H14719   0.237   5.332   0.560 -0.5759 -2.6894  1.2324
  112MOL0     H14720   0.045   5.204   0.572 -1.1017  0.2119 -0.7628
  112MOL0     H14721  -0.145   5.089   0.538  2.2550  0.3495 -1.0743
  112MOL0     H14722  -0.256   5.021   0.416 -1.1077  0.0320  1.1852
  112MOL0     H14723  -0.312   5.264   0.356  0.8470  0.5920 -0.6325
  112MOL0     H14724  -0.201   5.315   0.479  0.7757 -2.7090  2.5094
  112MOL0     H14725  -0.435   5.324   0.560 -0.2273  0.8897 -0.8801
  112MOL0     H14726  -0.330   5.232   0.665 -4.7429  1.3243  2.0635
  112MOL0     H14727  -0.491   5.089   0.444  1.2424  1.3446 -0.5608
  112MOL0     H14728  -0.410   5.019   0.594  3.6904  0.5692 -3.1049
  112MOL0     H14729  -0.576   5.135   0.721 -1.7703 -0.5186  0.8666
  112MOL0     H14730  -0.645   5.014   0.615  0.2990 -0.6711  1.0574
  112MOL0     H14731  -0.706   5.203   0.442 -2.9850  2.1906 -0.7531
  112MOL0     H14732  -0.649   5.318   0.570 -1.5672 -0.2167  1.3983
  112MOL0     H14733  -0.905   5.277   0.576 -0.1462 -0.0299  1.5734
  112MOL0     H14734  -0.867   5.103   0.576 -0.1398  1.2129 -2.2345
  112MOL0     H14735  -0.777   5.318   0.772  0.5616  0.5893 -0.1871
  112MOL0     H14736  -0.762   5.162   0.825 -1.3173 -1.2939  0.7739
  112MOL0     H14737  -1.042   5.012   0.798  1.0600  0.1909 -0.3778
  112MOL0     H14738  -1.281   4.977   0.899  0.8854  0.3543 -1.2232
  112MOL0     H14739  -1.378   5.121   0.877 -0.2819 -1.8001 -0.9898
  112MOL0     H14740  -1.296   5.175   1.115  1.9550 -1.7438  1.2698
  112MOL0     H14741  -1.260   5.005   1.134  0.0947  1.2950  1.4817
  112MOL0     H14742  -1.545   5.070   1.034 -1.3402 -0.7289  1.4806
  112MOL0     H14743  -1.485   4.944   1.127 -0.7189 -0.3751  1.0974
  112MOL0     H14744  -1.526   5.228   1.206 -0.7698  0.4788  2.5816
  112MOL0     H14745  -1.465   5.114   1.323  1.0896  0.9601 -0.6820
  112MOL0     H14746  -1.896   5.005   1.351 -2.4949  0.4575 -0.2252
  112MOL0     H14747  -2.103   5.102   1.288  0.7800 -1.4388 -1.5795
  112MOL0     H14748  -2.378   5.388   0.962  0.8650 -0.5520  0.2377
  112MOL0     H14749  -2.620   5.439   0.920  0.3712  0.3448 -0.8030
  112MOL0     H14750  -2.893   5.287   1.270 -0.5942  0.0550 -0.0972
  112MOL0     H14751  -2.909   5.163   1.147 -3.0577 -0.3665 -1.3247
  112MOL0     H14752  -3.085   5.292   1.029 -0.6899  2.7429 -0.7194
  112MOL0     H14753  -3.071   5.420   1.155 -0.2799 -0.1949  0.4875
  112MOL0     H14754  -3.153   5.287   1.333  1.0546  4.9722 -0.2246
  112MOL0     H14755  -3.160   5.147   1.212  3.0983  1.0693 -0.7739
  112MOL0     H14756  -3.322   5.398   1.195 -0.0305 -1.1322 -0.1996
  112MOL0     H14757  -3.326   5.274   1.080  1.6798  2.8704 -1.0670
  112MOL0     H14758  -3.398   5.234   1.372 -0.3988  2.0196  0.2430
  112MOL0     H14759  -3.370   5.100   1.255 -4.0007 -1.2828  2.4384
  112MOL0     H14760  -3.536   5.217   1.095 -2.1256  0.7763  0.2062
  112MOL0     H14761  -3.580   5.317   1.223 -3.8465 -0.9588 -1.9909
  112MOL0     H14762  -3.617   5.014   1.215 -0.1307 -0.9709  2.2815
  112MOL0     H14763  -3.632   5.096   1.366 -2.0273  1.5547  1.7266
  112MOL0     H14764  -3.811   5.250   1.258  0.5210 -0.0575  0.7547
  112MOL0     H14765  -3.850   5.069   1.280  0.9080  1.5719  1.7654
  112MOL0     H14766  -2.706   5.190   1.275  1.3391 -0.0234 -0.0998
  112MOL0     H14767  -2.459   5.169   1.315  0.6549  2.0070  0.8170
  112MOL0     H14768  -1.908   5.312   0.970 -0.7941 -1.9512 -0.2515
  112MOL0     H14769  -1.693   5.233   1.043 -0.7183  0.1376 -1.3405
  112MOL0     H14770   0.024   5.160   0.147 -0.2945 -0.4710 -0.2477
  112MOL0     H14771   0.237   5.296   0.128 -0.8963 -2.6117 -1.9121
  112MOL0     H14772   0.750   5.303   0.412 -3.3771 -0.4347  3.0442
  112MOL0     H14773   0.937   5.445   0.383 -1.4652 -0.8440  1.4192
  112MOL0     H14774   1.096   5.585   0.229  0.6836  1.8057 -1.7131
  112MOL0     H14775   1.089   5.604   0.409 -3.1151 -0.6633 -0.4063
  112MOL0     H14776   1.164   5.807   0.215 -0.5065 -0.0224 -0.1764
  112MOL0     H14777   1.149   5.841   0.382  3.8944 -1.5005  3.2798
  112MOL0     H14778   1.327   5.611   0.384 -3.7222 -0.3297  0.2383
  112MOL0     H14779   1.348   5.775   0.441 -1.1904 -1.7085  0.6986
  112MOL0     H14780   1.361   5.709   0.139  0.3577 -1.9518  1.1513
  112MOL0     H14781   1.424   5.850   0.240  1.2525  0.0530 -0.1834
  112MOL0     H14782   1.765   5.647   0.267  1.1399  3.9859  0.8707
  112MOL0     H14783   0.675   5.760   0.248 -0.2248  0.9066 -0.2339
  112MOL0     H14784   0.490   5.634   0.297  0.2773  2.2020  4.6065
  113MOL0     O14785   7.276   9.679   4.046  0.8200 -0.2032  0.5102
  113MOL0     C14786   7.358   9.762   4.096  0.5283  0.5826 -0.1064
  113MOL0     O14787   7.321   9.859   4.189  0.2850 -0.2395  0.0362
  113MOL0     C14788   7.186   9.889   4.216  0.2842  0.6016  0.9048
  113MOL0     C14789   7.140   9.870   4.344  0.6301 -0.8631 -0.6835
  113MOL0     C14790   7.011   9.892   4.384  0.5080 -0.2111  0.1718
  113MOL0     C14791   6.916   9.936   4.287  0.7836 -0.4055  0.1032
  113MOL0     O14792   6.797   9.979   4.333  0.0580 -0.5099  0.3767
  113MOL0     C14793   6.678   9.957   4.262  0.0434  0.8620  0.3537
  113MOL0     C14794   6.555   9.975   4.347  0.6191 -0.3288 -0.5566
  113MOL0     C14795   6.539  10.115   4.414 -0.1216 -0.0949 -0.1912
  113MOL0     C14796   6.400  10.108   4.467  0.0451 -0.2429 -0.3871
  113MOL0     C14797   6.388  10.212   4.583  0.7757  0.5413  0.1944
  113MOL0     C14798   6.401  10.364   4.553 -0.6328  0.4933 -0.2626
  113MOL0     C14799   6.429  10.433   4.691  0.2869 -0.3691  0.0064
  113MOL0     C14800   6.387  10.578   4.680 -0.3056  0.1437 -0.1673
  113MOL0     N14801   6.461  10.650   4.570 -0.0235  0.3869  0.1341
  113MOL0     C14802   6.590  10.696   4.596  0.4774 -0.3724  0.1362
  113MOL0     C14803   6.630  10.734   4.468  0.3454 -0.4549  0.4902
  113MOL0     C14804   6.761  10.788   4.441 -0.1076 -0.1147 -0.1072
  113MOL0     C14805   6.773  10.935   4.463  0.2867  0.1339 -0.0053
  113MOL0     C14806   6.754  10.986   4.600  0.0231 -1.1312 -0.0880
  113MOL0     C14807   6.611  11.043   4.625 -0.1879 -0.0042  0.4322
  113MOL0     O14808   6.590  11.050   4.766 -0.1154  0.3952 -0.6635
  113MOL0     C14809   6.656  11.147   4.843 -0.2745 -0.1769  0.1747
  113MOL0     C14810   6.653  11.131   4.980  0.8890  0.1486  0.3527
  113MOL0     C14811   6.714  11.221   5.059 -0.5476  0.8252  0.0984
  113MOL0     C14812   6.787  11.330   5.005  0.1429  0.0272 -0.1074
  113MOL0     C14813   6.847  11.427   5.099 -0.3013  1.1913 -0.5292
  113MOL0     O14814   6.891  11.386   5.225  0.1162 -0.4944  0.1099
  113MOL0     C14815   6.948  11.473   5.309 -0.1933 -0.7175  0.3708
  113MOL0     C14816   6.910  11.469   5.440 -0.0437 -0.8590  0.0310
  113MOL0     C14817   6.959  11.563   5.536 -0.1041 -0.4069  0.0731
  113MOL0     C14818   7.065  11.647   5.498  0.2545  0.1731 -0.3534
  113MOL0     O14819   7.097  11.741   5.595  0.3377  0.1460  0.1772
  113MOL0     C14820   7.231  11.754   5.632 -0.0684  0.6733  0.5584
  113MOL0     C14821   7.268  11.676   5.760 -0.7710  0.0434 -0.6514
  113MOL0     C14822   7.417  11.673   5.779  0.4157 -0.8957  0.3189
  113MOL0     C14823   7.460  11.599   5.902 -0.3280 -0.7909  0.7596
  113MOL0     C14824   7.470  11.684   6.022 -0.2414 -0.0606  0.9163
  113MOL0     C14825   7.510  11.582   6.141  0.3977  0.2213 -0.3017
  113MOL0     C14826   7.595  11.651   6.252 -0.0753 -0.1731  0.2412
  113MOL0     C14827   7.571  11.576   6.389 -0.1686 -0.4985  0.0967
  113MOL0    Cl14828   7.676  11.430   6.389  0.3166 -0.0175  0.1395
  113MOL0     C14829   7.112  11.645   5.363 -0.2463 -0.4611  0.0020
  113MOL0     C14830   7.052  11.555   5.268  0.2537 -0.7239 -0.0528
  113MOL0     O14831   6.856  11.546   5.055 -0.6513 -0.6599 -0.2420
  113MOL0     C14832   6.793  11.342   4.868 -0.6907 -0.1525 -0.4845
  113MOL0     C14833   6.726  11.253   4.782  0.0577  1.3073 -0.0470
  113MOL0     N14834   6.520  10.722   4.383 -0.3420 -0.1283  0.8104
  113MOL0     N14835   6.420  10.664   4.448 -0.8089  0.4792 -0.4305
  113MOL0     C14836   6.958   9.945   4.151 -0.8267  0.5114 -0.7958
  113MOL0     C14837   7.094   9.919   4.111 -0.7302 -0.0773  1.2411
  113MOL0     C14838   7.500   9.738   4.081  0.3256 -1.4134  1.0442
  113MOL0     C14839   7.542   9.620   4.031 -0.1459 -0.6297  0.3022
  113MOL0     C14840   7.682   9.590   4.049  0.4323  0.1998  0.2710
  113MOL0     C14841   7.776   9.685   4.097  0.2777  0.6583  0.5839
  113MOL0     O14842   7.913   9.665   4.089  0.2650  0.6508  0.4368
  113MOL0     C14843   8.014   9.762   4.104 -0.0467  0.2078 -0.9992
  113MOL0     C14844   8.147   9.704   4.065  0.0566  0.2001 -0.2342
  113MOL0     C14845   8.145   9.699   3.911  0.7029  0.2439 -0.1384
  113MOL0     C14846   8.284   9.669   3.863  0.3809 -0.6420  1.0570
  113MOL0     C14847   8.304   9.704   3.719 -1.1902 -0.4022  1.0837
  113MOL0     C14848   8.301   9.728   3.598 -0.1824 -1.1291 -1.1876
  113MOL0     C14849   7.728   9.805   4.142  0.0887  0.7269  0.0523
  113MOL0     C14850   7.592   9.836   4.137 -0.0842  0.3269  0.4822
  113MOL0     H14851   7.216   9.863   4.420 -2.4867 -0.8233  2.7179
  113MOL0     H14852   6.976   9.882   4.487  0.9232  5.1218  1.1302
  113MOL0     H14853   6.674   9.851   4.237 -0.5294  1.3517 -1.8258
  113MOL0     H14854   6.669  10.017   4.171 -0.0550 -0.9959 -0.9136
  113MOL0     H14855   6.555   9.899   4.426 -0.7399  0.1980 -0.0089
  113MOL0     H14856   6.469   9.953   4.283  0.4536 -2.9642  0.4585
  113MOL0     H14857   6.562  10.197   4.345  0.5358 -0.6111 -0.6042
  113MOL0     H14858   6.620  10.114   4.488  2.5684  0.8126 -2.8920
  113MOL0     H14859   6.330  10.130   4.385  1.2593 -2.1642 -2.0339
  113MOL0     H14860   6.373  10.008   4.503  0.9435 -0.3462  0.0239
  113MOL0     H14861   6.468  10.188   4.654  3.1026  0.0346 -2.4224
  113MOL0     H14862   6.295  10.192   4.637  0.9129  1.6823  0.8851
  113MOL0     H14863   6.307  10.390   4.503 -0.5164 -1.0464 -1.3165
  113MOL0     H14864   6.478  10.377   4.477 -1.7677 -2.1431 -1.9861
  113MOL0     H14865   6.371  10.377   4.765  0.5679 -1.0512 -0.2787
  113MOL0     H14866   6.535  10.437   4.718 -0.3983  1.3239  2.8541
  113MOL0     H14867   6.400  10.617   4.781 -2.2271 -0.3544  0.2965
  113MOL0     H14868   6.281  10.579   4.654 -0.2659 -0.6559 -0.3837
  113MOL0     H14869   6.660  10.690   4.678  1.0785  0.3338 -0.3053
  113MOL0     H14870   6.785  10.767   4.336  0.9787  0.3346  0.0416
  113MOL0     H14871   6.836  10.740   4.504 -0.1805 -0.6541 -0.4230
  113MOL0     H14872   6.700  10.983   4.397  1.7311  1.4532 -0.7190
  113MOL0     H14873   6.871  10.972   4.433  0.5964  0.4216  1.3033
  113MOL0     H14874   6.770  10.906   4.674  1.2359 -0.1871  0.6961
  113MOL0     H14875   6.824  11.066   4.625 -1.2273  0.5830 -1.8189
  113MOL0     H14876   6.540  10.972   4.581 -0.7346  0.1285  1.0882
  113MOL0     H14877   6.590  11.136   4.570  0.3114 -1.4113 -2.3431
  113MOL0     H14878   6.599  11.043   5.014  0.3502 -0.0234 -0.8851
  113MOL0     H14879   6.708  11.223   5.167 -0.9391  5.9120  0.2196
  113MOL0     H14880   6.836  11.398   5.475 -2.1422  1.8224  1.3842
  113MOL0     H14881   6.926  11.556   5.639  0.2387  0.5022  0.2563
  113MOL0     H14882   7.256  11.860   5.625  0.3981  0.5088 -0.4517
  113MOL0     H14883   7.293  11.706   5.556  0.1512  0.2349  1.0075
  113MOL0     H14884   7.226  11.574   5.758  0.9902 -0.8700  2.4734
  113MOL0     H14885   7.231  11.730   5.847 -2.3484 -3.8318  1.3399
  113MOL0     H14886   7.462  11.773   5.771  0.3532 -0.9817 -1.7275
  113MOL0     H14887   7.452  11.610   5.697 -0.7077  0.0014 -0.9070
  113MOL0     H14888   7.398  11.509   5.913 -0.7263 -1.2568 -3.4578
  113MOL0     H14889   7.560  11.559   5.881  0.0656 -0.2611  1.5788
  113MOL0     H14890   7.376  11.730   6.053 -1.6328 -0.1738 -2.7021
  113MOL0     H14891   7.558  11.749   6.013  1.2165 -2.1156 -1.0514
  113MOL0     H14892   7.568  11.505   6.091 -1.4360 -1.1259 -0.4382
  113MOL0     H14893   7.420  11.534   6.181 -0.6556  1.3048 -1.2984
  113MOL0     H14894   7.699  11.639   6.218  0.4107 -0.1434  1.6129
  113MOL0     H14895   7.569  11.758   6.256 -1.3327 -0.4701  0.3683
  113MOL0     H14896   7.465  11.551   6.395 -1.2053  2.9546 -1.2630
  113MOL0     H14897   7.606  11.645   6.466  1.8466 -1.1561 -0.1518
  113MOL0     H14898   7.184  11.720   5.332 -0.8042 -0.8769 -2.5353
  113MOL0     H14899   7.080  11.555   5.164  0.6630  2.4489 -0.0239
  113MOL0     H14900   6.855  11.425   4.838 -0.9129 -0.5126 -2.0435
  113MOL0     H14901   6.723  11.271   4.675  0.0482 -1.2294 -0.5194
  113MOL0     H14902   6.894   9.989   4.075  2.8556  0.9119 -3.9913
  113MOL0     H14903   7.130   9.930   4.009  1.1765 -2.3317  1.5709
  113MOL0     H14904   7.470   9.546   3.998  3.2850 -5.5990  2.5751
  113MOL0     H14905   7.722   9.491   4.028  1.4656  0.6229  0.1943
  113MOL0     H14906   8.017   9.798   4.207 -0.7904 -1.1319 -0.4870
  113MOL0     H14907   7.997   9.849   4.039 -2.8969 -0.6031 -1.4977
  113MOL0     H14908   8.228   9.769   4.101  0.6592  0.8816 -2.6221
  113MOL0     H14909   8.170   9.605   4.105  0.2506  0.8567  1.3740
  113MOL0     H14910   8.111   9.791   3.863 -2.4418  0.3838  1.9585
  113MOL0     H14911   8.078   9.615   3.890  0.2358 -0.1988  2.6692
  113MOL0     H14912   8.357   9.712   3.932  0.1649  0.3107  0.7127
  113MOL0     H14913   8.313   9.564   3.864  0.9046 -0.5541  4.2959
  113MOL0     H14914   8.294   9.753   3.494  1.9765  2.2669 -0.6488
  113MOL0     H14915   7.794   9.879   4.185  2.6491  0.4254 -2.9929
  113MOL0     H14916   7.553   9.927   4.181  1.0697  0.5986  0.9834
  114MOL0     O14917   6.585   9.695  10.253 -0.8176  0.5229 -0.3692
  114MOL0     C14918   6.639   9.749  10.348 -0.1741  0.1932 -0.4985
  114MOL0     O14919   6.579   9.803  10.452  0.6353  0.5039 -0.5881
  114MOL0     C14920   6.446   9.833  10.470  0.3598  0.3690 -0.0215
  114MOL0     C14921   6.333   9.752  10.439 -0.3293  0.5603 -0.1395
  114MOL0     C14922   6.198   9.803  10.444 -0.1036 -0.1789 -0.4141
  114MOL0     C14923   6.179   9.931  10.487  0.2467  0.2449 -0.1151
  114MOL0     O14924   6.062  10.001  10.492  0.3407  0.2935 -0.1629
  114MOL0     C14925   5.937   9.926  10.474 -0.8896 -0.1357  0.9122
  114MOL0     C14926   5.825  10.028  10.461  0.8394 -1.0166 -0.7848
  114MOL0     C14927   5.687   9.969  10.437  0.2397 -0.0095  0.1375
  114MOL0     C14928   5.588  10.088  10.390 -0.2651  0.4877 -0.8780
  114MOL0     C14929   5.438  10.044  10.398  0.2046  0.4929 -0.2586
  114MOL0     C14930   5.413   9.915  10.322  1.1576  0.7019  0.7197
  114MOL0     C14931   5.262   9.898  10.309  0.1694  0.7061 -0.4947
  114MOL0     C14932   5.223   9.781  10.218  0.3204 -0.0951 -0.6458
  114MOL0     N14933   5.085   9.781  10.155 -0.1846 -0.9838 -0.1758
  114MOL0     C14934   5.050   9.833  10.033  0.2280  0.7138  0.3922
  114MOL0     C14935   4.916   9.815  10.028 -0.2424 -1.2890  0.6451
  114MOL0     C14936   4.831   9.854   9.913  0.1341 -0.2977 -0.2243
  114MOL0     C14937   4.688   9.908   9.948  0.2701  0.1077  0.4389
  114MOL0     C14938   4.585   9.822   9.865  0.3896 -0.1526  0.2850
  114MOL0     C14939   4.447   9.899   9.854 -0.1677  0.0966 -0.0341
  114MOL0     O14940   4.388   9.912   9.984  0.7695 -0.6463 -0.3734
  114MOL0     C14941   4.310   9.800  10.023  0.1823 -0.3661 -0.0079
  114MOL0     C14942   4.289   9.685   9.948 -1.2430 -0.5100  0.1445
  114MOL0     C14943   4.204   9.584   9.994 -1.0119  0.4576  0.0994
  114MOL0     C14944   4.124   9.604  10.101  0.9362 -1.4377  0.1217
  114MOL0     C14945   4.016   9.512  10.134  0.9403  0.4230 -0.4212
  114MOL0     O14946   3.923   9.536  10.240 -0.3989 -0.2015  0.8932
  114MOL0     C14947   3.821   9.447  10.265  1.0819 -0.1219 -0.1449
  114MOL0     C14948   3.753   9.379  10.159  0.3903  0.2330 -0.1862
  114MOL0     C14949   3.638   9.306  10.190  0.5343  0.7910 -0.3629
  114MOL0     C14950   3.581   9.299  10.319 -0.5140 -1.1068 -0.1852
  114MOL0     O14951   3.455   9.237  10.328  0.3155  0.0828  0.8670
  114MOL0     C14952   3.379   9.235  10.449 -0.3262 -0.1725  0.1958
  114MOL0     C14953   3.250   9.157  10.426 -0.1889 -0.2211  0.7129
  114MOL0     C14954   3.128   9.243  10.391 -0.0238  0.0298  0.1425
  114MOL0     C14955   3.155   9.343  10.275 -0.0228 -0.2907 -0.3678
  114MOL0     C14956   3.146   9.262  10.148 -0.1302 -0.1725  0.3239
  114MOL0     C14957   3.224   9.328  10.023 -0.0680  0.2163 -0.7214
  114MOL0     C14958   3.186   9.274   9.888  0.8155 -0.7088  0.2381
  114MOL0     C14959   3.050   9.327   9.847 -0.3622  0.7511 -0.1962
  114MOL0    Cl14960   3.043   9.502   9.847 -0.0674 -0.2276 -0.4699
  114MOL0     C14961   3.655   9.356  10.425  0.2065 -0.5388  0.2605
  114MOL0     C14962   3.773   9.438  10.400  0.3807  0.2245  0.3300
  114MOL0     O14963   4.010   9.416  10.057  0.6376  0.3496 -0.0586
  114MOL0     C14964   4.138   9.720  10.180 -0.4577 -0.5162 -0.0922
  114MOL0     C14965   4.227   9.822  10.140  0.5396  0.7098  0.4240
  114MOL0     N14966   4.876   9.754  10.145  0.1852  0.7550 -0.2099
  114MOL0     N14967   4.979   9.731  10.215  0.3047 -0.9022  0.7755
  114MOL0     C14968   6.290  10.013  10.505  0.0461  0.6784 -0.1752
  114MOL0     C14969   6.417   9.964  10.506 -0.8755 -0.0274 -0.1298
  114MOL0     C14970   6.778   9.736  10.347  0.4238  0.6977 -0.0631
  114MOL0     C14971   6.857   9.781  10.461  0.2094  0.3357  0.7303
  114MOL0     C14972   6.994   9.766  10.460  0.2796  1.6175  0.1361
  114MOL0     C14973   7.051   9.700  10.357  0.5060 -0.8771 -0.0002
  114MOL0     O14974   7.185   9.689  10.369 -0.0792 -0.5553 -0.5508
  114MOL0     C14975   7.274   9.633  10.273 -0.4892 -0.2510 -0.1354
  114MOL0     C14976   7.398   9.571  10.350  0.4860 -0.5962  0.4730
  114MOL0     C14977   7.483   9.489  10.256  0.8894  0.2898  0.0048
  114MOL0     C14978   7.611   9.440  10.333 -0.4141 -0.5900  0.8793
  114MOL0     C14979   7.711   9.390  10.237  0.1078  0.0478  0.2264
  114MOL0     C14980   7.799   9.349  10.165  0.4320  0.3725 -0.8760
  114MOL0     C14981   6.979   9.648  10.250  0.8561  0.1024  0.5673
  114MOL0     C14982   6.842   9.673  10.234  0.1122  0.2050 -1.0227
  114MOL0     H14983   6.364   9.656  10.399  0.0264  1.1934 -1.4286
  114MOL0     H14984   6.121   9.743  10.397  1.5627 -2.0809 -0.8349
  114MOL0     H14985   5.918   9.862  10.560 -3.0642  0.4964  0.9523
  114MOL0     H14986   5.937   9.864  10.383  1.0189 -0.9816  1.4411
  114MOL0     H14987   5.847  10.096  10.378  0.6146  1.2557  0.9258
  114MOL0     H14988   5.831  10.086  10.554  2.0330 -2.1843 -0.0934
  114MOL0     H14989   5.642   9.913  10.518  2.7279 -2.0453  0.2514
  114MOL0     H14990   5.693   9.897  10.354 -0.0433  0.9553 -0.7486
  114MOL0     H14991   5.601  10.184  10.442  0.3025  0.3145 -0.6922
  114MOL0     H14992   5.605  10.117  10.287  0.2295  0.6627 -0.7494
  114MOL0     H14993   5.373  10.122  10.356 -0.2407 -0.0809 -0.6521
  114MOL0     H14994   5.427  10.042  10.507  4.5486  6.1940  0.7894
  114MOL0     H14995   5.442   9.826  10.378  0.0225  1.4448  2.5845
  114MOL0     H14996   5.460   9.918  10.223 -0.6994  0.1539 -0.2201
  114MOL0     H14997   5.231   9.867  10.409  3.8769 -4.7681 -0.5948
  114MOL0     H14998   5.206   9.984  10.272 -0.2925  0.6322  0.0210
  114MOL0     H14999   5.233   9.690  10.278  1.0879  1.0374  1.0429
  114MOL0     H15000   5.294   9.768  10.137  3.7898 -1.4379  2.3150
  114MOL0     H15001   5.110   9.885   9.959  0.0675 -1.1466 -1.1522
  114MOL0     H15002   4.811   9.765   9.853 -2.4696  0.1920 -0.2134
  114MOL0     H15003   4.887   9.923   9.849 -1.5276  0.3427 -1.0467
  114MOL0     H15004   4.678  10.015   9.924 -0.9232  0.4167  2.1804
  114MOL0     H15005   4.665   9.891  10.053  5.4673  2.5363  2.2911
  114MOL0     H15006   4.615   9.810   9.760  0.4995  2.2101 -0.0125
  114MOL0     H15007   4.569   9.728   9.919 -0.6881 -0.1091  0.0789
  114MOL0     H15008   4.373   9.854   9.787  0.8984 -1.7661 -0.0191
  114MOL0     H15009   4.458   9.995   9.802  0.6934  0.5092  0.8920
  114MOL0     H15010   4.334   9.662   9.852 -0.1333 -0.5232  0.6499
  114MOL0     H15011   4.200   9.491   9.938  1.5873 -0.1861  0.8618
  114MOL0     H15012   3.763   9.391  10.052 -1.5732 -0.0625 -0.4345
  114MOL0     H15013   3.579   9.282  10.102 -0.1065 -1.4088  0.5880
  114MOL0     H15014   3.356   9.340  10.470  0.0131  0.0811 -0.6587
  114MOL0     H15015   3.428   9.182  10.531  2.2053  0.6436 -0.6833
  114MOL0     H15016   3.232   9.096  10.515 -0.9068  1.5109  1.7943
  114MOL0     H15017   3.265   9.093  10.338  1.5608  0.0754  0.7590
  114MOL0     H15018   3.079   9.291  10.476 -3.3652 -2.1539 -0.3531
  114MOL0     H15019   3.059   9.166  10.356 -0.8695  1.1972 -0.8691
  114MOL0     H15020   3.091   9.431  10.278  1.1865  0.6144  2.6581
  114MOL0     H15021   3.256   9.381  10.288 -0.6914  1.3630  0.1905
  114MOL0     H15022   3.041   9.250  10.118  0.3369 -2.0448 -0.7889
  114MOL0     H15023   3.193   9.163  10.152 -0.2417 -0.2332  0.1405
  114MOL0     H15024   3.330   9.303  10.039  0.6994  2.4173 -1.8981
  114MOL0     H15025   3.228   9.437  10.017  2.2424  0.4164  2.0900
  114MOL0     H15026   3.261   9.305   9.815  1.6072  0.6511  1.5617
  114MOL0     H15027   3.203   9.166   9.893  0.1062 -0.8152  0.5092
  114MOL0     H15028   2.979   9.288   9.919 -2.7000  0.1076 -2.6967
  114MOL0     H15029   3.028   9.283   9.749  3.1585  1.0633 -1.2761
  114MOL0     H15030   3.615   9.353  10.525 -0.0131  2.0915  0.3355
  114MOL0     H15031   3.822   9.491  10.481  3.3238  0.0904 -1.2163
  114MOL0     H15032   4.066   9.737  10.260  0.8650 -2.1809  1.5579
  114MOL0     H15033   4.237   9.904  10.210 -1.2446 -0.0830  1.6822
  114MOL0     H15034   6.275  10.120  10.506  0.6221  0.7791 -1.1613
  114MOL0     H15035   6.504  10.027  10.521 -1.1659 -0.0187  1.7858
  114MOL0     H15036   6.820   9.844  10.541  0.5101  2.6546 -0.8581
  114MOL0     H15037   7.047   9.803  10.547 -1.5406  1.9807  1.1362
  114MOL0     H15038   7.306   9.707  10.199  0.7253  2.1710  2.5982
  114MOL0     H15039   7.237   9.546  10.218 -1.1502  0.6727 -1.1752
  114MOL0     H15040   7.453   9.655  10.394 -2.5387  1.9738 -0.2304
  114MOL0     H15041   7.360   9.514  10.435 -0.4940 -0.9837 -0.2153
  114MOL0     H15042   7.513   9.536  10.162 -0.7858 -2.0120 -1.7947
  114MOL0     H15043   7.429   9.400  10.222  5.4264 -2.1112 -1.6095
  114MOL0     H15044   7.647   9.527  10.388 -2.1616  1.0780 -0.4729
  114MOL0     H15045   7.582   9.359  10.401  0.3561 -0.0178  1.9049
  114MOL0     H15046   7.862   9.287  10.105  1.5795  1.2812 -0.6442
  114MOL0     H15047   7.036   9.614  10.164  1.0627  0.0736  0.7133
  114MOL0     H15048   6.788   9.646  10.144 -1.0668  1.0695 -0.6062
  115MOL0     O15049   8.574   5.629   9.893 -0.1217 -0.4454  0.3452
  115MOL0     C15050   8.487   5.605   9.976  0.1221  0.7333  0.5358
  115MOL0     O15051   8.459   5.684  10.085  0.2545  0.2238 -0.0299
  115MOL0     C15052   8.490   5.820  10.094 -1.1488  0.0140 -1.1037
  115MOL0     C15053   8.509   5.903   9.978  0.6328  0.8395 -0.9127
  115MOL0     C15054   8.531   6.042   9.986  0.2935  1.0218  0.2683
  115MOL0     C15055   8.531   6.104  10.112  0.9964 -0.6884 -0.2742
  115MOL0     O15056   8.535   6.234  10.138 -0.1995 -0.0962 -0.4175
  115MOL0     C15057   8.581   6.323  10.039 -0.4245  0.1396  0.9394
  115MOL0     C15058   8.622   6.452  10.110  0.0454 -0.2435 -0.2142
  115MOL0     C15059   8.503   6.512  10.178  0.7719  0.6095  0.0631
  115MOL0     C15060   8.532   6.604  10.295  1.0039  0.4651  0.5013
  115MOL0     C15061   8.411   6.657  10.380  0.0410  0.3038 -0.0985
  115MOL0     C15062   8.362   6.797  10.345 -0.4472 -0.3483  0.1935
  115MOL0     C15063   8.266   6.856  10.462 -0.1933  1.0930  0.3441
  115MOL0     C15064   8.154   6.763  10.508 -0.2233 -0.4967  0.3909
  115MOL0     N15065   8.080   6.831  10.620 -0.3824 -0.4791 -0.0284
  115MOL0     C15066   7.963   6.800  10.679 -0.5086 -0.8708  0.0629
  115MOL0     C15067   7.919   6.897  10.761 -0.4921 -0.7707  0.1027
  115MOL0     C15068   7.807   6.885  10.860 -0.3376  0.1885  1.2414
  115MOL0     C15069   7.711   6.995  10.828  0.5243 -0.0339  0.0799
  115MOL0     C15070   7.590   6.984  10.915  0.4211  0.3551 -0.5399
  115MOL0     C15071   7.474   7.076  10.860 -0.4884 -0.6610  0.5593
  115MOL0     O15072   7.364   7.071  10.950  0.6707 -0.0081 -0.7028
  115MOL0     C15073   7.234   7.101  10.911  0.4864 -1.6415 -0.2892
  115MOL0     C15074   7.202   7.169  10.793  0.2354 -0.4155  0.6292
  115MOL0     C15075   7.071   7.190  10.752  0.0425 -0.6584 -0.2880
  115MOL0     C15076   6.964   7.137  10.827  0.0895 -0.2374  0.9436
  115MOL0     C15077   6.828   7.167  10.784 -0.0487 -0.4337 -0.4647
  115MOL0     O15078   6.736   7.198  10.881 -0.1486  0.5373 -0.5695
  115MOL0     C15079   6.602   7.224  10.848  0.1910 -0.2309  0.7232
  115MOL0     C15080   6.495   7.139  10.874  0.1155  0.0939 -0.3268
  115MOL0     C15081   6.374   7.152  10.825  0.0026  0.2370  0.4139
  115MOL0     C15082   6.335   7.266  10.756  0.2216 -0.0393  1.0056
  115MOL0     O15083   6.207   7.277  10.708 -0.4502  1.0576  0.2755
  115MOL0     C15084   6.181   7.396  10.632  0.5603 -0.5363  0.5595
  115MOL0     C15085   6.031   7.392  10.582 -0.0959  0.2085  0.0225
  115MOL0     C15086   5.921   7.388  10.690 -0.9795  0.4957  0.1291
  115MOL0     C15087   5.793   7.373  10.608  0.7781  0.9909 -0.4304
  115MOL0     C15088   5.693   7.319  10.711  0.1747  0.6775 -0.8317
  115MOL0     C15089   5.556   7.311  10.635 -0.9313 -0.5120 -0.1708
  115MOL0     C15090   5.463   7.223  10.711 -0.5920 -0.8213  0.7665
  115MOL0     C15091   5.374   7.293  10.801  0.3783 -0.3474  0.5302
  115MOL0    Cl15092   5.458   7.328  10.950  0.3607  0.3799 -0.0547
  115MOL0     C15093   6.440   7.361  10.733 -0.5848 -0.4623  0.5916
  115MOL0     C15094   6.574   7.332  10.770  0.0593 -0.6077  0.1274
  115MOL0     O15095   6.804   7.168  10.668 -0.7360  0.1795  0.4442
  115MOL0     C15096   6.990   7.076  10.947  0.3774 -0.5683  0.2400
  115MOL0     C15097   7.126   7.064  10.989 -1.2050 -0.3762  1.3201
  115MOL0     N15098   8.035   6.977  10.774 -0.2258 -0.2328  0.6337
  115MOL0     N15099   8.115   6.956  10.674 -0.3309  0.2649  0.2541
  115MOL0     C15100   8.498   6.027  10.227 -0.3336  0.5406  0.6055
  115MOL0     C15101   8.473   5.890  10.213 -1.1647  0.4094 -0.4185
  115MOL0     C15102   8.420   5.466   9.980 -0.0241  0.5578  0.3474
  115MOL0     C15103   8.339   5.421  10.088 -0.0389 -0.0899 -0.2162
  115MOL0     C15104   8.286   5.284  10.075  1.0847 -1.1381  0.0807
  115MOL0     C15105   8.294   5.206   9.963  0.2489  0.2996 -0.5631
  115MOL0     O15106   8.216   5.088   9.959  0.6149  0.1131  0.2407
  115MOL0     C15107   8.209   5.019   9.829  0.6923  0.0920  0.7049
  115MOL0     C15108   8.106   5.079   9.739 -0.5771  0.1066 -0.7162
  115MOL0     C15109   7.966   5.050   9.802 -0.8330  0.4820  0.4840
  115MOL0     C15110   7.844   5.082   9.709  0.5223  0.5468 -0.6380
  115MOL0     C15111   7.719   5.022   9.750 -0.1692  1.7150 -0.6591
  115MOL0     C15112   7.624   4.949   9.785 -0.3597  0.6978 -0.1666
  115MOL0     C15113   8.375   5.254   9.859 -0.5504  1.2545 -0.5756
  115MOL0     C15114   8.429   5.384   9.866  1.2599  0.3066 -0.2350
  115MOL0     H15115   8.498   5.856   9.881  0.1061  0.4626 -0.6823
  115MOL0     H15116   8.542   6.108   9.901  1.1486  0.2691 -0.2330
  115MOL0     H15117   8.502   6.346   9.966  0.7488  0.3962 -0.2813
  115MOL0     H15118   8.662   6.293   9.971 -2.1594 -0.1486 -1.1218
  115MOL0     H15119   8.650   6.533  10.042 -3.4575  2.0164  0.7388
  115MOL0     H15120   8.699   6.426  10.183  2.1448  2.2169 -1.3950
  115MOL0     H15121   8.443   6.429  10.215 -4.0866  3.9080  0.4997
  115MOL0     H15122   8.429   6.550  10.107 -0.0884  0.2430  0.7523
  115MOL0     H15123   8.595   6.544  10.361 -0.7340  2.5810  4.3936
  115MOL0     H15124   8.586   6.693  10.260 -1.0317  0.8677 -1.9229
  115MOL0     H15125   8.442   6.644  10.484 -1.3012 -0.4558  0.2296
  115MOL0     H15126   8.327   6.591  10.356  0.5789  0.0315 -1.3215
  115MOL0     H15127   8.306   6.783  10.252  2.9424 -0.2300 -2.0606
  115MOL0     H15128   8.439   6.871  10.325 -0.1596 -0.7581 -0.2486
  115MOL0     H15129   8.346   6.869  10.536  0.4267 -1.7866  0.3120
  115MOL0     H15130   8.227   6.945  10.413  0.6619 -0.5551 -3.7954
  115MOL0     H15131   8.184   6.672  10.561  1.6571  1.1695  2.4078
  115MOL0     H15132   8.085   6.736  10.428 -1.0844  1.1585  0.5336
  115MOL0     H15133   7.911   6.711  10.645 -0.1828 -0.2908 -2.1528
  115MOL0     H15134   7.839   6.894  10.965  0.4928  1.8384  0.8908
  115MOL0     H15135   7.760   6.787  10.851 -1.5959  0.7656  1.3567
  115MOL0     H15136   7.666   6.987  10.729  0.5564  1.0334 -0.0343
  115MOL0     H15137   7.759   7.094  10.832 -4.3711  2.6205  0.4015
  115MOL0     H15138   7.557   6.879  10.920  4.0086 -0.8539  1.2859
  115MOL0     H15139   7.623   7.021  11.013 -0.9642  1.6133 -0.5063
  115MOL0     H15140   7.448   7.037  10.761 -1.3538 -0.6092  0.7603
  115MOL0     H15141   7.516   7.176  10.853 -0.0343 -0.9436 -1.1975
  115MOL0     H15142   7.281   7.212  10.732 -0.4554 -0.3773 -0.2581
  115MOL0     H15143   7.058   7.239  10.656 -0.9430  5.0757  2.3434
  115MOL0     H15144   6.520   7.053  10.936 -3.8146  0.7061  2.4897
  115MOL0     H15145   6.291   7.082  10.824 -0.0424  0.2946 -0.0984
  115MOL0     H15146   6.241   7.397  10.541 -1.4311  1.1306 -0.8202
  115MOL0     H15147   6.204   7.483  10.693  0.7754 -0.5182  0.4557
  115MOL0     H15148   6.022   7.301  10.522  0.7894 -0.7510  1.2824
  115MOL0     H15149   6.015   7.481  10.520 -0.7890 -1.1917 -1.8966
  115MOL0     H15150   5.927   7.475  10.757  0.0096  1.5645 -1.2981
  115MOL0     H15151   5.947   7.301  10.752 -0.6693  0.1095 -0.5312
  115MOL0     H15152   5.761   7.470  10.569  2.9393  1.9036 -0.1197
  115MOL0     H15153   5.808   7.308  10.522 -2.8259  0.2759 -0.6722
  115MOL0     H15154   5.692   7.378  10.803 -2.7872  1.2267 -1.1207
  115MOL0     H15155   5.726   7.219  10.742 -3.0272 -0.3107 -0.1875
  115MOL0     H15156   5.568   7.282  10.530 -0.2583  1.0924 -0.5722
  115MOL0     H15157   5.519   7.414  10.641 -0.4361 -0.3730  0.7115
  115MOL0     H15158   5.407   7.172  10.632 -1.7524  1.3513  0.0756
  115MOL0     H15159   5.523   7.154  10.771  0.2630 -0.5317  0.2688
  115MOL0     H15160   5.294   7.221  10.819 -1.6287  1.5616 -0.3272
  115MOL0     H15161   5.339   7.389  10.760  0.4304 -0.2304  0.7590
  115MOL0     H15162   6.430   7.454  10.677  2.0902  0.5900  1.6783
  115MOL0     H15163   6.651   7.404  10.745 -0.0008 -0.8053 -0.6518
  115MOL0     H15164   6.909   7.038  11.008 -1.1099  1.5771 -0.2616
  115MOL0     H15165   7.146   7.024  11.088  0.0959  2.8721  2.4831
  115MOL0     H15166   8.494   6.085  10.319  3.4502 -0.6155  1.6730
  115MOL0     H15167   8.418   5.843  10.293  0.2868  0.4483  0.6482
  115MOL0     H15168   8.341   5.472  10.184 -0.8680 -0.8487  0.2217
  115MOL0     H15169   8.219   5.259  10.156  0.7892  4.4069  1.9147
  115MOL0     H15170   8.179   4.915   9.843 -0.7032  0.5134  0.9417
  115MOL0     H15171   8.303   5.025   9.772 -0.6535 -3.6313 -2.3345
  115MOL0     H15172   8.126   5.187   9.733  0.1485  0.2794  2.6366
  115MOL0     H15173   8.114   5.021   9.647  0.0850  0.0179 -0.6111
  115MOL0     H15174   7.952   5.105   9.896  2.5142  2.0707  0.2165
  115MOL0     H15175   7.968   4.949   9.843  0.9610  0.4621  0.4555
  115MOL0     H15176   7.839   5.191   9.703  5.2499  0.9495 -0.3400
  115MOL0     H15177   7.860   5.047   9.607 -0.3008  0.2646 -0.6803
  115MOL0     H15178   7.553   4.885   9.833  1.5967  0.2118  2.3057
  115MOL0     H15179   8.397   5.193   9.771 -0.4731  0.9564 -0.3493
  115MOL0     H15180   8.482   5.430   9.783 -2.9851  3.9906 -1.2947
  116MOL0     O15181   4.512   4.637   9.394 -0.1627 -0.0356  0.5643
  116MOL0     C15182   4.567   4.733   9.443 -0.2963 -0.5712  1.2647
  116MOL0     O15183   4.542   4.864   9.400  0.1394 -0.4489  0.2995
  116MOL0     C15184   4.443   4.908   9.308  0.1374 -0.1173 -1.0441
  116MOL0     C15185   4.323   4.846   9.290  0.4110 -1.0304  0.8458
  116MOL0     C15186   4.224   4.908   9.207  0.9900 -0.3497 -0.6039
  116MOL0     C15187   4.245   5.036   9.151 -0.0162 -0.0021 -0.4340
  116MOL0     O15188   4.138   5.095   9.083  0.0578  0.2828 -0.1786
  116MOL0     C15189   4.148   5.236   9.050  0.3885  0.0019  0.0073
  116MOL0     C15190   4.020   5.287   9.000 -0.3780 -0.2694 -0.0630
  116MOL0     C15191   3.961   5.207   8.881  0.5909  1.1449 -0.5310
  116MOL0     C15192   3.825   5.275   8.849 -0.6845 -0.2959  0.1693
  116MOL0     C15193   3.731   5.194   8.764  0.1244 -0.0133  0.4400
  116MOL0     C15194   3.607   5.272   8.729  0.8850 -0.5120  0.5135
  116MOL0     C15195   3.533   5.220   8.607  0.5867 -0.9332  0.0132
  116MOL0     C15196   3.421   5.317   8.563 -1.3996  0.0445 -0.2570
  116MOL0     N15197   3.325   5.337   8.671 -0.0813  0.6031  1.3934
  116MOL0     C15198   3.266   5.464   8.697 -0.3497  0.1494 -0.0831
  116MOL0     C15199   3.172   5.430   8.787 -0.6002 -0.0084  0.0679
  116MOL0     C15200   3.089   5.510   8.886 -0.0103 -0.8671 -0.6031
  116MOL0     C15201   2.969   5.575   8.817  0.5303 -0.4481  0.0154
  116MOL0     C15202   2.858   5.616   8.924 -0.3217  0.6817  1.2413
  116MOL0     C15203   2.726   5.668   8.858 -0.5170  0.0434  0.2906
  116MOL0     O15204   2.746   5.810   8.816 -0.4070  0.1934 -0.3902
  116MOL0     C15205   2.622   5.857   8.810 -0.2706 -0.0711 -0.7688
  116MOL0     C15206   2.549   5.825   8.697 -0.1656  1.2937  0.5396
  116MOL0     C15207   2.415   5.859   8.691 -0.5854  0.2738 -1.0302
  116MOL0     C15208   2.352   5.929   8.805 -0.3123  0.2351  0.9929
  116MOL0     C15209   2.210   5.978   8.783  0.0555  0.1741 -0.4320
  116MOL0     O15210   2.140   5.924   8.684  0.1667 -0.0157 -0.1107
  116MOL0     C15211   2.005   5.929   8.695  0.8380 -0.5824  0.9405
  116MOL0     C15212   1.931   5.969   8.586 -0.2241 -0.3307 -0.1242
  116MOL0     C15213   1.798   5.962   8.587  0.2911 -0.0859 -0.0277
  116MOL0     C15214   1.726   5.910   8.692  0.3793 -0.3397  1.0232
  116MOL0     O15215   1.593   5.893   8.696 -0.2175 -0.7494  0.5037
  116MOL0     C15216   1.516   5.920   8.585  0.5387  0.1192  0.6126
  116MOL0     C15217   1.371   5.891   8.606  0.1084  0.7473 -1.1274
  116MOL0     C15218   1.356   5.754   8.654 -0.2230  0.9144 -0.1932
  116MOL0     C15219   1.387   5.637   8.559 -0.4526 -0.0886  0.2299
  116MOL0     C15220   1.536   5.583   8.541 -0.3866  0.2069  1.2090
  116MOL0     C15221   1.600   5.541   8.676  0.2505 -0.5539  0.9946
  116MOL0     C15222   1.748   5.508   8.660  0.2976  0.1804  0.5016
  116MOL0     C15223   1.822   5.499   8.793  0.3781  0.3719 -0.1848
  116MOL0    Cl15224   1.999   5.480   8.770  0.2760 -0.3259 -0.0970
  116MOL0     C15225   1.793   5.875   8.813  0.3570  0.5291  0.6647
  116MOL0     C15226   1.932   5.880   8.810  0.3669  0.0134 -0.4575
  116MOL0     O15227   2.171   6.066   8.859  0.2223  0.2367 -0.3707
  116MOL0     C15228   2.434   5.966   8.918 -0.1755 -0.5736 -0.6511
  116MOL0     C15229   2.557   5.920   8.922 -0.2251 -0.2281  0.7387
  116MOL0     N15230   3.167   5.293   8.794  0.5620  0.4644  0.7156
  116MOL0     N15231   3.257   5.231   8.732 -0.3076 -0.3959 -0.1054
  116MOL0     C15232   4.375   5.090   9.162  0.8028 -0.7353  0.1953
  116MOL0     C15233   4.474   5.025   9.236  0.4143 -0.3677 -0.7000
  116MOL0     C15234   4.673   4.726   9.546 -0.2357  0.1043  0.1778
  116MOL0     C15235   4.746   4.606   9.568  0.4129  0.5611 -0.1785
  116MOL0     C15236   4.818   4.589   9.681 -0.0798 -0.3288  0.0569
  116MOL0     C15237   4.828   4.687   9.775  0.4322 -0.9072 -0.3178
  116MOL0     O15238   4.899   4.651   9.888  0.7487 -0.2965 -0.2858
  116MOL0     C15239   4.955   4.750   9.966 -0.2054 -0.6317 -0.1157
  116MOL0     C15240   5.104   4.729  10.008  0.3320  0.2761 -0.1283
  116MOL0     C15241   5.140   4.857  10.096  0.5971 -0.5729 -0.4318
  116MOL0     C15242   5.280   4.856  10.138 -0.6847 -0.3295 -0.3875
  116MOL0     C15243   5.374   4.856  10.029 -0.5310 -0.2444  0.1567
  116MOL0     C15244   5.430   4.873   9.929 -0.8157 -0.2102 -0.0399
  116MOL0     C15245   4.743   4.802   9.771  0.2643 -0.8575  0.0853
  116MOL0     C15246   4.672   4.826   9.649  0.0809  0.3931 -0.1328
  116MOL0     H15247   4.302   4.751   9.338  0.1089 -0.7851  1.2025
  116MOL0     H15248   4.131   4.854   9.191  0.7651  0.3694 -1.8625
  116MOL0     H15249   4.223   5.251   8.972 -0.7884 -0.6249 -1.2810
  116MOL0     H15250   4.186   5.295   9.133 -0.9236  0.9321 -0.0220
  116MOL0     H15251   4.040   5.391   8.973 -2.1750  0.2131  0.3301
  116MOL0     H15252   3.948   5.288   9.082  1.3768  1.0067  1.5434
  116MOL0     H15253   3.942   5.104   8.913  0.6919  2.1068  3.0859
  116MOL0     H15254   4.022   5.208   8.790 -0.2151  0.6854 -1.0907
  116MOL0     H15255   3.776   5.300   8.944 -1.4901 -3.6758  0.7709
  116MOL0     H15256   3.848   5.368   8.796 -1.9146 -1.7032 -3.1074
  116MOL0     H15257   3.698   5.104   8.817 -0.0098  0.8058  1.7916
  116MOL0     H15258   3.772   5.167   8.666 -1.6504 -4.1836  0.6445
  116MOL0     H15259   3.634   5.375   8.704 -4.6810  1.5784  1.6627
  116MOL0     H15260   3.542   5.279   8.816 -2.0213 -1.3944 -1.4482
  116MOL0     H15261   3.594   5.199   8.518  2.0262  0.3237  0.6813
  116MOL0     H15262   3.476   5.134   8.642 -0.3427  0.1382  1.2001
  116MOL0     H15263   3.377   5.268   8.476  0.8970 -2.6250 -0.0578
  116MOL0     H15264   3.469   5.411   8.536 -0.1555 -0.0686  1.3857
  116MOL0     H15265   3.300   5.561   8.662  0.7977  0.1537  0.9604
  116MOL0     H15266   3.145   5.597   8.921 -1.0304 -0.3873 -0.1148
  116MOL0     H15267   3.059   5.444   8.968  0.3677 -1.4292 -0.9129
  116MOL0     H15268   2.929   5.499   8.749  1.9709 -1.4042  0.1795
  116MOL0     H15269   2.998   5.663   8.759 -0.2284  0.6627  1.2554
  116MOL0     H15270   2.823   5.526   8.974 -0.6401 -1.4221 -2.4243
  116MOL0     H15271   2.873   5.687   9.006 -2.3696  0.2466  2.0760
  116MOL0     H15272   2.643   5.659   8.929 -0.9697  0.5632 -0.1585
  116MOL0     H15273   2.703   5.600   8.776  1.5385 -1.2933  0.7616
  116MOL0     H15274   2.597   5.767   8.619  3.5678  3.9938  0.5392
  116MOL0     H15275   2.365   5.834   8.599  0.3987  0.1771 -1.5566
  116MOL0     H15276   1.988   6.011   8.503  1.8893  2.2185  2.4507
  116MOL0     H15277   1.738   5.999   8.504 -1.6402 -0.0954  1.2870
  116MOL0     H15278   1.556   5.869   8.497  0.5262 -2.2421  1.9202
  116MOL0     H15279   1.530   6.027   8.566  0.9267 -0.0398 -0.0477
  116MOL0     H15280   1.319   5.892   8.510  1.8529  2.1367 -2.0912
  116MOL0     H15281   1.322   5.950   8.684 -2.5315 -1.4834 -0.9430
  116MOL0     H15282   1.263   5.728   8.706  0.2091  0.4705  0.3713
  116MOL0     H15283   1.427   5.735   8.735  0.3100  0.5489 -0.7335
  116MOL0     H15284   1.334   5.546   8.589  0.9482 -1.8413 -2.1483
  116MOL0     H15285   1.335   5.673   8.470 -0.7403  0.0531  0.4548
  116MOL0     H15286   1.592   5.664   8.494  0.3367  0.9443  3.2200
  116MOL0     H15287   1.528   5.491   8.483 -0.6948  1.1805 -0.3429
  116MOL0     H15288   1.538   5.460   8.714 -0.8849 -0.9993 -1.5845
  116MOL0     H15289   1.595   5.622   8.749 -0.1015 -0.3924  0.7938
  116MOL0     H15290   1.749   5.412   8.607 -0.8230 -0.5912  1.8166
  116MOL0     H15291   1.792   5.590   8.602 -0.8846  0.9421  0.6328
  116MOL0     H15292   1.789   5.418   8.859 -4.0231  0.4848 -1.8720
  116MOL0     H15293   1.803   5.587   8.856 -2.0294  0.9165 -1.5478
  116MOL0     H15294   1.750   5.843   8.908  0.4375  0.3151  0.6282
  116MOL0     H15295   1.988   5.850   8.899 -1.1145  0.7616  0.7703
  116MOL0     H15296   2.388   6.018   9.001  1.5756 -2.0617  1.3461
  116MOL0     H15297   2.609   5.938   9.015 -0.3698  1.3530  0.5321
  116MOL0     H15298   4.387   5.192   9.127  0.9359  0.0063  2.2816
  116MOL0     H15299   4.567   5.080   9.238  0.0570  0.2638 -1.2393
  116MOL0     H15300   4.730   4.529   9.494 -1.9090  2.4514 -1.7882
  116MOL0     H15301   4.860   4.494   9.712 -0.4146 -0.4319  0.1953
  116MOL0     H15302   4.894   4.751  10.057 -2.6329  0.8409 -1.6651
  116MOL0     H15303   4.948   4.849   9.921  0.2721 -0.7736 -0.5133
  116MOL0     H15304   5.116   4.638  10.067 -1.3526 -0.5189 -0.9159
  116MOL0     H15305   5.172   4.725   9.922 -1.7332 -0.0095 -1.8324
  116MOL0     H15306   5.070   4.852  10.180  1.4173 -0.7426  0.2590
  116MOL0     H15307   5.130   4.954  10.047 -1.5355 -0.2537  0.5023
  116MOL0     H15308   5.297   4.948  10.194 -2.3665 -0.4574  0.3690
  116MOL0     H15309   5.318   4.774  10.201  2.3718 -0.3812 -2.0972
  116MOL0     H15310   5.477   4.895   9.835 -0.6038  1.9164  0.5088
  116MOL0     H15311   4.741   4.864   9.860 -0.6015  0.7881 -1.0190
  116MOL0     H15312   4.626   4.925   9.648  1.1291  0.9136  0.9824
  117MOL0     O15313   8.623  11.142   5.812 -0.2215 -0.1285 -0.0278
  117MOL0     C15314   8.580  11.166   5.927  0.8727 -1.6190 -0.2376
  117MOL0     O15315   8.456  11.124   5.971  0.2414  0.3600 -0.4581
  117MOL0     C15316   8.388  11.044   5.891 -0.6882  1.6249  0.2638
  117MOL0     C15317   8.421  10.913   5.849  0.1081 -0.1482  0.2877
  117MOL0     C15318   8.345  10.838   5.761  0.3813  1.2340 -0.6335
  117MOL0     C15319   8.232  10.893   5.698 -0.0980 -0.2808  1.3529
  117MOL0     O15320   8.140  10.816   5.626  0.6787  0.7913  0.1875
  117MOL0     C15321   8.170  10.681   5.572  0.4314 -1.3305  0.2939
  117MOL0     C15322   8.049  10.618   5.507  0.1869  0.7359  0.1223
  117MOL0     C15323   7.981  10.698   5.397  0.4771  0.4235  0.0028
  117MOL0     C15324   7.874  10.615   5.319  0.3905 -0.3988 -0.1600
  117MOL0     C15325   7.946  10.524   5.226  0.0714 -0.4009 -0.2462
  117MOL0     C15326   7.851  10.435   5.139  0.6369 -0.3177 -1.0333
  117MOL0     C15327   7.929  10.345   5.040 -0.3710 -0.2325 -0.5367
  117MOL0     C15328   7.853  10.211   5.011 -0.4841  0.7420 -0.1040
  117MOL0     N15329   7.708  10.236   4.980  0.0126  0.0761  1.1573
  117MOL0     C15330   7.604  10.239   5.055 -0.5583  0.6605 -0.5433
  117MOL0     C15331   7.500  10.270   4.979 -0.3604 -0.5417  0.5373
  117MOL0     C15332   7.354  10.281   5.019 -0.8734 -0.0606  0.4931
  117MOL0     C15333   7.285  10.146   4.988  0.3240 -0.0274 -0.2053
  117MOL0     C15334   7.130  10.157   5.018  0.3900 -0.3272 -0.2990
  117MOL0     C15335   7.085  10.199   5.162 -0.5471  1.5527 -0.1514
  117MOL0     O15336   7.050  10.341   5.169 -0.4727  0.2807  0.3780
  117MOL0     C15337   6.981  10.396   5.285  0.3036 -0.0491  0.8046
  117MOL0     C15338   6.947  10.528   5.280 -0.3412 -0.8107  0.0727
  117MOL0     C15339   6.876  10.589   5.391 -0.1770  0.6187  0.4429
  117MOL0     C15340   6.848  10.510   5.496  0.5019 -0.3244  0.4637
  117MOL0     C15341   6.771  10.573   5.603  0.4209  0.0617 -0.5141
  117MOL0     O15342   6.764  10.710   5.599 -0.3935  0.1840 -0.1564
  117MOL0     C15343   6.715  10.789   5.691  0.1430  0.6850 -1.0853
  117MOL0     C15344   6.764  10.913   5.714 -0.5396 -0.1305  0.0858
  117MOL0     C15345   6.723  10.998   5.819 -0.2683 -0.8239  0.5977
  117MOL0     C15346   6.614  10.958   5.904 -0.0980 -0.4960  1.0183
  117MOL0     O15347   6.548  11.031   5.997  0.4663  0.3420  0.3300
  117MOL0     C15348   6.503  11.163   5.950  0.0269 -0.2034  0.3490
  117MOL0     C15349   6.446  11.249   6.061  0.2051 -0.3027 -0.1594
  117MOL0     C15350   6.300  11.210   6.112  0.1844  0.1950  1.3185
  117MOL0     C15351   6.199  11.242   5.998  0.5141 -0.7905 -0.8579
  117MOL0     C15352   6.067  11.255   6.070  0.1610 -0.8994  0.2903
  117MOL0     C15353   5.956  11.275   5.973  0.5260 -0.7892  0.1689
  117MOL0     C15354   5.815  11.267   6.057 -1.4003 -0.4698 -0.6249
  117MOL0     C15355   5.705  11.240   5.953 -0.2122 -0.2421  0.5707
  117MOL0    Cl15356   5.548  11.295   6.020 -0.4752  0.2776  0.3672
  117MOL0     C15357   6.560  10.838   5.876  0.0187 -0.8977  0.6650
  117MOL0     C15358   6.611  10.752   5.775 -0.2515  0.5191 -0.2550
  117MOL0     O15359   6.735  10.503   5.700 -0.0453 -0.1115 -0.1577
  117MOL0     C15360   6.877  10.385   5.494 -0.0438 -0.6412 -0.2463
  117MOL0     C15361   6.948  10.322   5.399  0.1427 -0.0629 -0.3484
  117MOL0     N15362   7.552  10.295   4.847  0.1094 -0.2429 -0.5531
  117MOL0     N15363   7.674  10.256   4.847  0.5054  0.0733 -0.0010
  117MOL0     C15364   8.205  11.020   5.728 -0.3062 -0.4900 -0.5848
  117MOL0     C15365   8.277  11.091   5.833  0.7215 -0.1251 -0.1444
  117MOL0     C15366   8.677  11.226   6.019  0.1318  0.5368 -0.8149
  117MOL0     C15367   8.796  11.294   5.975 -0.9616  0.1259  0.0892
  117MOL0     C15368   8.864  11.367   6.078  1.0288  0.5533  0.3049
  117MOL0     C15369   8.829  11.353   6.212 -0.2663 -0.2844  0.9385
  117MOL0     O15370   8.909  11.427   6.303 -1.0465  0.5441 -0.6346
  117MOL0     C15371   8.834  11.512   6.384 -0.1727  0.7345 -0.4095
  117MOL0     C15372   8.947  11.587   6.446 -0.6703 -0.7166 -0.1097
  117MOL0     C15373   8.998  11.707   6.355 -0.8237 -0.4130  0.9243
  117MOL0     C15374   9.102  11.797   6.421  0.5582 -0.6708 -0.7268
  117MOL0     C15375   9.118  11.933   6.360  0.4301  0.4518  0.2277
  117MOL0     C15376   9.149  12.043   6.320  0.4584  0.5509  0.3885
  117MOL0     C15377   8.725  11.277   6.253 -0.0895  0.8535 -0.2874
  117MOL0     C15378   8.648  11.212   6.156 -0.7404 -0.0780  0.5517
  117MOL0     H15379   8.516  10.890   5.896 -0.9370  1.6774  3.5499
  117MOL0     H15380   8.375  10.736   5.741 -2.0500  0.1872  0.5994
  117MOL0     H15381   8.206  10.621   5.656  1.0443  2.0729  2.6693
  117MOL0     H15382   8.248  10.678   5.495 -0.4417  0.2647 -0.7097
  117MOL0     H15383   7.979  10.587   5.585  2.3244 -0.8007  1.5615
  117MOL0     H15384   8.089  10.526   5.464 -2.4689  0.6557 -2.4958
  117MOL0     H15385   8.049  10.744   5.325  0.4323  2.1801  1.0473
  117MOL0     H15386   7.918  10.776   5.441 -1.6501 -1.4703  0.5020
  117MOL0     H15387   7.801  10.561   5.379  0.3761  0.9335  1.0751
  117MOL0     H15388   7.805  10.680   5.262  1.1648 -0.1691 -0.8596
  117MOL0     H15389   8.027  10.469   5.275 -0.6771  0.2559  1.8051
  117MOL0     H15390   7.997  10.586   5.151 -0.4262 -0.5480 -0.7078
  117MOL0     H15391   7.781  10.489   5.075  1.8145  1.3229 -1.0139
  117MOL0     H15392   7.787  10.379   5.208  1.8153  0.3381  0.6523
  117MOL0     H15393   7.940  10.399   4.945  2.7716  2.0847  0.9281
  117MOL0     H15394   8.028  10.325   5.081 -0.8712  0.5417  1.1317
  117MOL0     H15395   7.854  10.151   5.103 -1.6745 -0.2047 -0.6882
  117MOL0     H15396   7.903  10.158   4.930 -0.0448  0.8901  0.0655
  117MOL0     H15397   7.597  10.213   5.160 -2.0980 -0.8046 -0.9571
  117MOL0     H15398   7.313  10.372   4.973  2.9106  2.2758  1.2832
  117MOL0     H15399   7.353  10.302   5.126  2.2112  1.2965  0.3562
  117MOL0     H15400   7.333  10.067   5.045  1.0385 -1.2703 -2.4199
  117MOL0     H15401   7.299  10.119   4.883  2.0232 -1.7586  0.4198
  117MOL0     H15402   7.076  10.232   4.960 -0.2261  0.4828  1.2782
  117MOL0     H15403   7.082  10.063   4.987  0.3238 -0.2262 -0.5062
  117MOL0     H15404   7.164  10.177   5.235  0.1049 -1.2073 -1.5571
  117MOL0     H15405   6.996  10.141   5.187  0.5037 -0.2247 -0.2986
  117MOL0     H15406   6.968  10.583   5.189 -2.0414 -0.6902 -0.2789
  117MOL0     H15407   6.841  10.691   5.387 -0.6769  0.3975 -1.6626
  117MOL0     H15408   6.855  10.932   5.658  0.2980 -1.5469  0.8882
  117MOL0     H15409   6.773  11.094   5.827  0.6291 -0.9239 -2.6323
  117MOL0     H15410   6.421  11.143   5.881  1.5352  2.6580 -2.5491
  117MOL0     H15411   6.578  11.214   5.889 -0.7007 -1.6418 -1.8358
  117MOL0     H15412   6.444  11.353   6.026  2.8723 -0.0808  0.1524
  117MOL0     H15413   6.507  11.261   6.151  0.3618 -1.5120 -0.0923
  117MOL0     H15414   6.287  11.264   6.206  4.1456  1.2320  1.4594
  117MOL0     H15415   6.316  11.105   6.139 -2.0914 -0.6318 -0.3308
  117MOL0     H15416   6.238  11.334   5.955  1.1797 -1.4421 -1.6914
  117MOL0     H15417   6.206  11.171   5.914  4.0411 -2.8598  0.9628
  117MOL0     H15418   6.063  11.343   6.136 -0.6310  0.2512 -1.2175
  117MOL0     H15419   6.047  11.170   6.136 -0.2764  0.3574  1.8406
  117MOL0     H15420   5.962  11.195   5.899 -0.2123 -0.9744  0.2929
  117MOL0     H15421   5.949  11.375   5.931 -1.8729 -0.5789  0.8814
  117MOL0     H15422   5.814  11.188   6.132 -2.2118  1.1420  1.1165
  117MOL0     H15423   5.799  11.361   6.110  2.0898 -0.2623  0.3520
  117MOL0     H15424   5.701  11.132   5.939  0.9394 -0.5706  2.4530
  117MOL0     H15425   5.741  11.290   5.862 -0.7138  0.3446  0.6912
  117MOL0     H15426   6.460  10.824   5.917 -0.0565 -5.5439 -0.5931
  117MOL0     H15427   6.554  10.660   5.763 -0.2750  0.4485  0.3419
  117MOL0     H15428   6.849  10.323   5.578  3.0989  1.2564  2.4605
  117MOL0     H15429   6.996  10.227   5.415 -0.2870 -0.0464  1.1939
  117MOL0     H15430   8.123  11.068   5.676  0.4808 -1.0998 -2.4784
  117MOL0     H15431   8.241  11.191   5.856  0.0052 -0.7255  1.4838
  117MOL0     H15432   8.809  11.323   5.871  1.3004  1.4814  0.6891
  117MOL0     H15433   8.946  11.433   6.052  1.4084 -0.0633 -0.1069
  117MOL0     H15434   8.776  11.459   6.460 -2.1547  1.5136 -1.3236
  117MOL0     H15435   8.760  11.564   6.323 -0.9702 -0.2494 -0.2981
  117MOL0     H15436   8.899  11.631   6.534 -2.1230 -1.4745 -0.4770
  117MOL0     H15437   9.036  11.533   6.479  1.4571  0.5850 -3.2604
  117MOL0     H15438   8.912  11.773   6.335  1.3940  2.1703 -0.7984
  117MOL0     H15439   9.040  11.660   6.266 -2.5673  1.8703 -1.2553
  117MOL0     H15440   9.066  11.812   6.523  0.0345  0.2661 -1.0351
  117MOL0     H15441   9.201  11.750   6.426  3.0450  4.0349  3.4190
  117MOL0     H15442   9.183  12.136   6.280  3.3155 -1.7879 -3.1604
  117MOL0     H15443   8.706  11.267   6.360 -1.6411  1.0360 -0.5137
  117MOL0     H15444   8.578  11.141   6.200  1.3363 -2.7205 -0.1978
  118MOL0     O15445  10.899   5.637   5.970  0.3873  0.2223 -0.2004
  118MOL0     C15446  10.936   5.535   5.907 -0.8238 -0.1228  0.9695
  118MOL0     O15447  10.859   5.431   5.869 -0.3031  0.2135  0.0897
  118MOL0     C15448  10.724   5.418   5.889 -0.0938 -0.1857 -0.2682
  118MOL0     C15449  10.666   5.323   5.807 -0.0315 -0.5500  0.3646
  118MOL0     C15450  10.532   5.298   5.812 -0.3594 -1.5458  0.5219
  118MOL0     C15451  10.446   5.353   5.909 -0.3527 -0.3303 -0.4478
  118MOL0     O15452  10.310   5.314   5.902 -0.3038  0.2298  0.0222
  118MOL0     C15453  10.218   5.358   6.003 -0.1078  0.1661  0.1055
  118MOL0     C15454  10.085   5.295   5.985 -0.4364  0.0972  0.3462
  118MOL0     C15455   9.987   5.338   6.093  0.4169 -0.0632 -0.8075
  118MOL0     C15456   9.851   5.272   6.069 -0.2894 -0.1164 -0.6559
  118MOL0     C15457   9.751   5.299   6.178 -0.0523  0.1188 -0.0743
  118MOL0     C15458   9.671   5.430   6.155  0.9667  0.1313  0.6043
  118MOL0     C15459   9.567   5.453   6.268 -0.6585 -0.4780 -0.1597
  118MOL0     C15460   9.445   5.359   6.266 -0.1920 -0.0174 -1.1272
  118MOL0     N15461   9.356   5.386   6.381 -0.6799  0.6654 -0.5465
  118MOL0     C15462   9.246   5.465   6.380  0.4108 -0.0979  1.3172
  118MOL0     C15463   9.183   5.438   6.493  0.3417 -0.1114 -0.5005
  118MOL0     C15464   9.052   5.505   6.528  1.0175 -1.1983 -0.1337
  118MOL0     C15465   8.927   5.411   6.520 -0.1665  0.1509 -0.8906
  118MOL0     C15466   8.907   5.345   6.378  0.3460  0.5828 -1.1302
  118MOL0     C15467   8.782   5.270   6.362  1.0435  0.4810  0.2463
  118MOL0     O15468   8.769   5.241   6.214  0.1469  0.8184 -0.1000
  118MOL0     C15469   8.647   5.210   6.159 -1.0180  0.1061  0.0034
  118MOL0     C15470   8.645   5.186   6.022 -0.0053 -0.1522  0.0489
  118MOL0     C15471   8.518   5.162   5.961 -0.8481 -0.6446 -0.5284
  118MOL0     C15472   8.403   5.148   6.035  0.2384  0.9148  0.1932
  118MOL0     C15473   8.276   5.109   5.961  0.0017 -0.8791 -0.3207
  118MOL0     O15474   8.160   5.127   6.029 -0.1654 -0.8042 -0.3017
  118MOL0     C15475   8.042   5.105   5.966  0.3528  0.1877  0.5470
  118MOL0     C15476   7.983   5.224   5.922 -0.4946 -0.1163  0.2037
  118MOL0     C15477   7.855   5.226   5.860  0.6071  0.3267 -0.5961
  118MOL0     C15478   7.781   5.106   5.845  0.0200  0.1792  0.1413
  118MOL0     O15479   7.654   5.091   5.790 -0.2228  0.1140  0.1646
  118MOL0     C15480   7.581   5.215   5.757  0.2340  1.3398 -0.6179
  118MOL0     C15481   7.457   5.190   5.666  0.2556  0.1308 -0.0910
  118MOL0     C15482   7.338   5.120   5.739  0.2166 -0.4081  0.6544
  118MOL0     C15483   7.232   5.040   5.661  0.0863 -0.6741 -0.6046
  118MOL0     C15484   7.162   5.118   5.550 -0.6037 -0.5062  0.2592
  118MOL0     C15485   7.039   5.203   5.602  0.0263 -1.3070 -0.3160
  118MOL0     C15486   6.909   5.115   5.621  0.7758 -0.2909  0.5138
  118MOL0     C15487   6.795   5.172   5.709 -0.0353  0.3074 -0.3115
  118MOL0    Cl15488   6.731   5.331   5.637 -0.1137  0.1370  0.0881
  118MOL0     C15489   7.844   4.984   5.885  0.7230 -0.1119 -0.0062
  118MOL0     C15490   7.968   4.985   5.949 -0.5118 -0.0376 -0.1946
  118MOL0     O15491   8.284   5.068   5.842  0.0355  0.5217 -0.8705
  118MOL0     C15492   8.414   5.175   6.171  0.2166 -0.3418 -0.4408
  118MOL0     C15493   8.531   5.205   6.232 -0.1212  0.3957 -0.0649
  118MOL0     N15494   9.258   5.343   6.569  0.0843 -0.2953  0.0206
  118MOL0     N15495   9.364   5.308   6.497  0.1479 -0.6042 -0.1257
  118MOL0     C15496  10.509   5.431   6.011  0.1205  0.0476 -0.9523
  118MOL0     C15497  10.647   5.471   5.993  0.4105 -0.1734  0.3112
  118MOL0     C15498  11.087   5.529   5.876 -0.0331 -1.2594  0.0321
  118MOL0     C15499  11.139   5.436   5.786  0.0495 -0.7276  0.4292
  118MOL0     C15500  11.276   5.420   5.765 -0.4595  0.5820 -0.5063
  118MOL0     C15501  11.365   5.505   5.829 -0.4904 -0.8510 -0.2340
  118MOL0     O15502  11.505   5.483   5.830  0.2234 -0.5093  0.0646
  118MOL0     C15503  11.590   5.588   5.777 -0.2221  0.2627 -0.2446
  118MOL0     C15504  11.688   5.504   5.686  1.4539  0.0595 -0.7453
  118MOL0     C15505  11.801   5.596   5.637  0.1818  0.2438  0.4957
  118MOL0     C15506  11.922   5.519   5.579  0.5719 -0.8568 -0.2621
  118MOL0     C15507  11.893   5.417   5.483  0.7229  0.2903  0.3329
  118MOL0     C15508  11.861   5.323   5.402  0.3734 -0.0824  0.7963
  118MOL0     C15509  11.315   5.593   5.924  0.0136  0.5102 -0.1347
  118MOL0     C15510  11.185   5.615   5.942  0.3265  0.0292 -0.0066
  118MOL0     H15511  10.728   5.280   5.729  3.6841 -0.0484  2.8056
  118MOL0     H15512  10.481   5.229   5.746 -0.2927  0.3806 -1.6941
  118MOL0     H15513  10.207   5.466   6.020 -1.0901 -0.3026  3.1198
  118MOL0     H15514  10.255   5.319   6.098 -2.5777 -0.6980  0.7839
  118MOL0     H15515  10.104   5.187   5.981 -1.8466 -0.1524 -0.0926
  118MOL0     H15516  10.027   5.336   5.902  0.3657  1.1465  0.2763
  118MOL0     H15517   9.966   5.443   6.075 -2.7881 -0.2529  1.1250
  118MOL0     H15518  10.034   5.316   6.189  0.0811  0.9973 -0.3909
  118MOL0     H15519   9.812   5.306   5.972 -0.2214 -3.5292 -1.9987
  118MOL0     H15520   9.872   5.166   6.056 -1.8125 -0.5323  0.0943
  118MOL0     H15521   9.802   5.291   6.274 -0.1500 -1.7943 -0.1532
  118MOL0     H15522   9.684   5.212   6.179 -0.1567  0.1963 -0.2916
  118MOL0     H15523   9.617   5.435   6.060 -0.5075  1.9115  1.4794
  118MOL0     H15524   9.745   5.511   6.148 -0.1592  1.1161 -0.4123
  118MOL0     H15525   9.620   5.438   6.363  0.7935  2.5363 -0.3530
  118MOL0     H15526   9.544   5.560   6.255  0.9870 -0.2029 -1.1064
  118MOL0     H15527   9.476   5.254   6.272  0.7537  0.2492 -1.1978
  118MOL0     H15528   9.387   5.380   6.176  0.6736  1.3450 -1.4003
  118MOL0     H15529   9.214   5.529   6.298 -1.3326 -0.8881  1.3176
  118MOL0     H15530   9.035   5.591   6.463 -1.3680 -0.4459  1.3698
  118MOL0     H15531   9.063   5.534   6.633  0.0178 -0.6597 -0.1668
  118MOL0     H15532   8.836   5.461   6.554  0.5515  2.0951 -1.6919
  118MOL0     H15533   8.947   5.328   6.588  0.0233  0.2676 -0.8044
  118MOL0     H15534   8.919   5.419   6.298 -1.8716  0.8940 -1.2368
  118MOL0     H15535   8.990   5.275   6.364  1.4276  1.3176  1.1149
  118MOL0     H15536   8.702   5.340   6.387 -1.1109 -1.7460  0.0348
  118MOL0     H15537   8.780   5.179   6.423 -0.0899 -0.3387 -0.9665
  118MOL0     H15538   8.737   5.191   5.964  0.6770  3.5523  1.1902
  118MOL0     H15539   8.520   5.140   5.855  4.9774  0.2719 -0.9740
  118MOL0     H15540   8.031   5.316   5.952 -2.1023  0.3677  1.4168
  118MOL0     H15541   7.813   5.321   5.829 -3.4277 -0.9984  0.0935
  118MOL0     H15542   7.651   5.278   5.702 -0.0408  2.9687  0.8130
  118MOL0     H15543   7.561   5.271   5.849 -0.1162 -0.7507  0.6481
  118MOL0     H15544   7.487   5.129   5.580 -3.4883 -1.1195 -0.7306
  118MOL0     H15545   7.422   5.288   5.632  0.4439  0.0899 -0.4101
  118MOL0     H15546   7.289   5.203   5.791 -1.0567 -1.1010  0.6162
  118MOL0     H15547   7.366   5.051   5.818 -3.0993 -2.4904  0.2183
  118MOL0     H15548   7.289   4.958   5.616  0.9731  0.7000 -2.0895
  118MOL0     H15549   7.153   5.011   5.731 -0.4971  5.2093  1.7748
  118MOL0     H15550   7.123   5.050   5.474 -4.1286  3.0773 -1.4786
  118MOL0     H15551   7.233   5.191   5.510 -0.6540 -0.6137 -0.0222
  118MOL0     H15552   7.021   5.289   5.538  0.8108  2.7586  4.3220
  118MOL0     H15553   7.064   5.237   5.703 -1.6215 -0.9326  0.0022
  118MOL0     H15554   6.861   5.115   5.523 -0.3143  2.0635  0.9696
  118MOL0     H15555   6.924   5.015   5.660 -3.2455 -1.6183 -0.8906
  118MOL0     H15556   6.834   5.201   5.807 -1.6065 -0.0245  0.4421
  118MOL0     H15557   6.713   5.102   5.725  0.6009 -0.0501  1.6498
  118MOL0     H15558   7.788   4.891   5.875  1.2348 -0.9951  3.7901
  118MOL0     H15559   8.006   4.887   5.978  0.0911 -0.1542 -1.3391
  118MOL0     H15560   8.326   5.188   6.234  0.6420  3.2891 -0.4315
  118MOL0     H15561   8.531   5.219   6.340  2.4945  4.9999 -0.3980
  118MOL0     H15562  10.458   5.442   6.106  1.0846  0.7365 -0.5002
  118MOL0     H15563  10.696   5.529   6.071 -0.7633 -0.1006  1.0236
  118MOL0     H15564  11.079   5.379   5.716 -1.1167  0.1275  0.7172
  118MOL0     H15565  11.315   5.340   5.702 -1.9877 -1.3743  0.8805
  118MOL0     H15566  11.644   5.642   5.855 -0.1848 -1.1473  0.7403
  118MOL0     H15567  11.530   5.656   5.715  0.6350 -0.1780 -1.6154
  118MOL0     H15568  11.726   5.421   5.746 -2.2109 -1.8767 -0.8234
  118MOL0     H15569  11.628   5.465   5.603 -0.7144  3.5356 -0.9853
  118MOL0     H15570  11.835   5.672   5.708  0.7753  1.5068 -1.0839
  118MOL0     H15571  11.768   5.661   5.555 -0.3904  0.6097  1.0058
  118MOL0     H15572  11.986   5.591   5.527  0.2104 -0.4452 -0.1428
  118MOL0     H15573  11.972   5.472   5.664 -1.5412 -2.3575  0.2328
  118MOL0     H15574  11.820   5.249   5.335  2.1636 -1.0982  0.7517
  118MOL0     H15575  11.388   5.653   5.979 -0.3030  0.8282 -0.0630
  118MOL0     H15576  11.153   5.690   6.013  2.0901  1.5916 -0.8006
  119MOL0     O15577  10.031   7.514   2.303 -1.0303 -0.0955 -0.7782
  119MOL0     C15578  10.049   7.630   2.358  0.2717  0.6924  0.7207
  119MOL0     O15579   9.951   7.721   2.395  0.6011  0.2449  0.3916
  119MOL0     C15580   9.824   7.678   2.368 -0.0176 -0.1320 -0.9745
  119MOL0     C15581   9.783   7.561   2.435  0.4605 -0.0355  0.6841
  119MOL0     C15582   9.662   7.493   2.403 -0.6615 -0.9243 -0.4597
  119MOL0     C15583   9.569   7.558   2.314 -0.4121  0.5361 -0.7790
  119MOL0     O15584   9.441   7.513   2.275  0.3455 -0.5259 -0.1212
  119MOL0     C15585   9.393   7.387   2.324 -0.1175 -0.2323  0.0092
  119MOL0     C15586   9.253   7.339   2.277  0.0023  0.2788  0.0299
  119MOL0     C15587   9.203   7.219   2.356 -0.1766  0.6263  0.0544
  119MOL0     C15588   9.056   7.178   2.319 -0.4821 -0.5731 -0.2529
  119MOL0     C15589   9.006   7.055   2.389 -0.4577 -0.0291 -0.4915
  119MOL0     C15590   8.865   7.006   2.334  0.9470 -0.1775 -0.3059
  119MOL0     C15591   8.801   6.912   2.452 -0.7097 -0.4592 -0.5293
  119MOL0     C15592   8.665   6.850   2.428 -0.0908  0.2203 -0.5045
  119MOL0     N15593   8.661   6.783   2.296 -0.7222  0.9549  0.0104
  119MOL0     C15594   8.623   6.840   2.179 -0.5238  0.6269 -0.4594
  119MOL0     C15595   8.656   6.739   2.090 -0.7799 -0.1695  0.0531
  119MOL0     C15596   8.647   6.743   1.934  0.6197 -0.3894  0.6911
  119MOL0     C15597   8.520   6.661   1.885 -0.6879 -0.5258 -0.4226
  119MOL0     C15598   8.519   6.511   1.906 -0.0937 -0.7756  0.2929
  119MOL0     C15599   8.439   6.419   1.812  0.0845 -0.2382  0.4411
  119MOL0     O15600   8.325   6.497   1.772 -0.3432  0.1401 -0.4848
  119MOL0     C15601   8.218   6.438   1.707 -0.7016  0.4200 -0.4570
  119MOL0     C15602   8.189   6.302   1.714 -0.8232  0.4738 -0.0482
  119MOL0     C15603   8.072   6.253   1.644  0.2266  0.1504  0.9341
  119MOL0     C15604   7.986   6.340   1.571 -0.0158  0.0862  0.3662
  119MOL0     C15605   7.852   6.287   1.532 -0.4445  0.3357  0.2701
  119MOL0     O15606   7.819   6.165   1.591 -0.0881  0.6000 -0.7329
  119MOL0     C15607   7.698   6.119   1.562  0.9051 -0.6302  0.1504
  119MOL0     C15608   7.604   6.157   1.662 -0.7556 -0.1729 -0.2883
  119MOL0     C15609   7.476   6.099   1.660  0.5855 -0.1307 -0.7000
  119MOL0     C15610   7.433   6.032   1.547 -0.6869 -0.1335  0.0270
  119MOL0     O15611   7.300   5.983   1.534 -0.3793  0.0889  0.0030
  119MOL0     C15612   7.193   6.072   1.558 -0.8528 -0.2277 -0.4076
  119MOL0     C15613   7.073   6.048   1.466 -0.4270  0.3803  0.6326
  119MOL0     C15614   6.972   6.157   1.493  0.1911  0.0616 -0.5910
  119MOL0     C15615   6.837   6.109   1.438  0.4307 -0.3016 -0.1319
  119MOL0     C15616   6.735   6.221   1.404  0.5419  0.4780 -0.8668
  119MOL0     C15617   6.614   6.186   1.317  0.3659  0.8764  0.1508
  119MOL0     C15618   6.531   6.308   1.268  0.8085  0.4223  0.4476
  119MOL0     C15619   6.587   6.409   1.170 -0.6613  0.3030 -0.4276
  119MOL0    Cl15620   6.441   6.492   1.108 -0.3385  0.0068  0.3065
  119MOL0     C15621   7.521   6.013   1.438 -1.0235 -0.4866 -0.0002
  119MOL0     C15622   7.654   6.054   1.451 -1.1532 -0.6187  0.6477
  119MOL0     O15623   7.777   6.354   1.461  0.1482  0.3670  0.1017
  119MOL0     C15624   8.019   6.481   1.568  0.4530  0.0126 -0.4907
  119MOL0     C15625   8.131   6.530   1.633 -1.3167 -0.0812 -2.1909
  119MOL0     N15626   8.692   6.616   2.151 -0.1023 -0.6373  0.5279
  119MOL0     N15627   8.703   6.653   2.271  0.7880 -0.1113  0.6924
  119MOL0     C15628   9.608   7.683   2.271  0.4973 -0.4362 -1.1017
  119MOL0     C15629   9.730   7.748   2.298  0.0399 -0.6912  0.4276
  119MOL0     C15630  10.189   7.675   2.390 -0.0419  0.7691  0.1831
  119MOL0     C15631  10.292   7.591   2.354 -0.3836  0.1380 -1.0242
  119MOL0     C15632  10.426   7.626   2.407  0.2470  0.2324  0.0247
  119MOL0     C15633  10.448   7.744   2.474  0.0846 -0.3483  0.4955
  119MOL0     O15634  10.562   7.796   2.513  0.3345 -0.0703  0.1287
  119MOL0     C15635  10.662   7.702   2.559 -0.2282  0.4204  0.6690
  119MOL0     C15636  10.800   7.773   2.565  0.3886 -0.5014 -0.3155
  119MOL0     C15637  10.902   7.689   2.644  0.6098 -1.0251  0.2213
  119MOL0     C15638  11.040   7.765   2.653  0.7049  0.2281  0.2480
  119MOL0     C15639  11.143   7.682   2.722  0.1680 -1.1535 -0.0173
  119MOL0     C15640  11.223   7.614   2.783  0.4777  0.6583  0.4422
  119MOL0     C15641  10.342   7.835   2.492 -0.9761 -0.0604 -0.6505
  119MOL0     C15642  10.216   7.801   2.449  0.0083 -0.3348 -0.0628
  119MOL0     H15643   9.847   7.518   2.511  1.7113 -0.9079 -0.8084
  119MOL0     H15644   9.639   7.404   2.461 -0.6448 -1.6925 -1.6062
  119MOL0     H15645   9.382   7.403   2.431  0.9817 -0.5922  0.1944
  119MOL0     H15646   9.475   7.318   2.300  3.6473  4.0471 -0.9445
  119MOL0     H15647   9.252   7.313   2.171 -2.0158 -0.2727  0.1526
  119MOL0     H15648   9.179   7.418   2.288 -0.8291 -0.0146 -2.7524
  119MOL0     H15649   9.224   7.235   2.462  0.1358 -1.3694  0.3385
  119MOL0     H15650   9.270   7.140   2.322 -0.8199 -0.1711  0.6138
  119MOL0     H15651   8.989   7.263   2.337 -1.7892 -1.3757 -1.2413
  119MOL0     H15652   9.066   7.175   2.210 -0.2746  1.9724 -0.3626
  119MOL0     H15653   9.011   7.069   2.497  0.3924  0.7634 -0.6272
  119MOL0     H15654   9.081   6.978   2.369 -1.0683 -1.0364  0.9523
  119MOL0     H15655   8.884   6.948   2.244 -0.6169  1.3928 -1.7301
  119MOL0     H15656   8.792   7.087   2.322 -2.3040 -2.2241  3.0808
  119MOL0     H15657   8.878   6.843   2.487  2.0344  2.0043 -1.2857
  119MOL0     H15658   8.789   6.982   2.535  3.3705 -0.6814  0.4390
  119MOL0     H15659   8.592   6.930   2.441 -3.1759 -2.3580 -0.8066
  119MOL0     H15660   8.656   6.770   2.502 -1.3126 -1.1494 -2.0689
  119MOL0     H15661   8.585   6.939   2.158 -2.0004 -0.3445 -2.7093
  119MOL0     H15662   8.728   6.698   1.875 -0.2618  0.1390 -0.9625
  119MOL0     H15663   8.640   6.849   1.909  3.8962 -0.1460  0.3037
  119MOL0     H15664   8.518   6.683   1.778  0.3987  0.9024 -0.1731
  119MOL0     H15665   8.433   6.706   1.935 -0.3940  0.4625 -0.7749
  119MOL0     H15666   8.623   6.481   1.923 -0.3532 -0.5452  2.5813
  119MOL0     H15667   8.477   6.500   2.007 -0.8074 -1.7242 -0.0915
  119MOL0     H15668   8.431   6.320   1.857  1.4537 -0.2498  0.7035
  119MOL0     H15669   8.482   6.400   1.714 -2.0655  2.1779 -1.1009
  119MOL0     H15670   8.248   6.220   1.754 -0.2802 -0.7901 -3.1464
  119MOL0     H15671   8.063   6.145   1.642 -1.9811  0.3057 -0.6554
  119MOL0     H15672   7.649   6.193   1.753  1.6420 -3.4350  0.0026
  119MOL0     H15673   7.417   6.115   1.749  0.3535  1.5726 -1.1228
  119MOL0     H15674   7.224   6.176   1.571 -1.7401 -0.2072  2.1896
  119MOL0     H15675   7.164   6.048   1.661  4.0973  1.4724  1.7155
  119MOL0     H15676   7.029   5.952   1.495  1.3260 -0.3408  1.0642
  119MOL0     H15677   7.116   6.046   1.365  1.6164  4.6793  1.2070
  119MOL0     H15678   6.995   6.247   1.436  0.3234 -1.5039 -3.1603
  119MOL0     H15679   6.965   6.186   1.598 -2.4687 -0.3263 -0.5662
  119MOL0     H15680   6.859   6.063   1.342 -0.4951  1.6734 -1.3650
  119MOL0     H15681   6.781   6.053   1.513  1.7332  1.2102  2.0946
  119MOL0     H15682   6.788   6.302   1.351  4.1002 -1.1896 -0.1940
  119MOL0     H15683   6.695   6.256   1.499 -1.5286 -1.9576 -0.7709
  119MOL0     H15684   6.552   6.117   1.375  0.3068  0.4846 -0.3647
  119MOL0     H15685   6.658   6.134   1.231  0.9173 -2.4845  2.2737
  119MOL0     H15686   6.449   6.263   1.211  1.9824  1.5510 -2.2999
  119MOL0     H15687   6.500   6.364   1.357 -0.0562 -0.4462  0.7169
  119MOL0     H15688   6.639   6.358   1.089  1.2598 -0.9643  1.5107
  119MOL0     H15689   6.662   6.473   1.217  0.9997 -1.4073 -0.6445
  119MOL0     H15690   7.494   5.973   1.341 -2.8774 -2.8946  1.3932
  119MOL0     H15691   7.725   6.036   1.371 -0.5839  0.9282  0.7849
  119MOL0     H15692   7.939   6.541   1.526 -3.9591 -5.6033 -1.2306
  119MOL0     H15693   8.146   6.637   1.645 -0.5749 -0.4239  0.6197
  119MOL0     H15694   9.529   7.736   2.217  0.8499 -0.4262 -1.6156
  119MOL0     H15695   9.738   7.841   2.244 -2.1995  0.0189  1.2171
  119MOL0     H15696  10.270   7.496   2.307  0.4210 -0.3191 -0.5074
  119MOL0     H15697  10.514   7.565   2.387  0.4413  1.1017 -2.0162
  119MOL0     H15698  10.683   7.614   2.496 -1.3689  0.3671  0.3455
  119MOL0     H15699  10.639   7.668   2.660  2.7723 -1.5674  0.8143
  119MOL0     H15700  10.840   7.804   2.468  0.1360  1.8516  0.2535
  119MOL0     H15701  10.792   7.867   2.622  1.2179 -0.1013 -0.8388
  119MOL0     H15702  10.920   7.600   2.583  1.7514 -1.6507  1.4393
  119MOL0     H15703  10.858   7.678   2.743 -0.4309  1.1594  0.0752
  119MOL0     H15704  11.077   7.775   2.550  5.5524 -1.0971  1.6425
  119MOL0     H15705  11.034   7.866   2.693 -2.7799  0.3674 -0.3147
  119MOL0     H15706  11.299   7.559   2.835  0.9642  1.0389  0.1518
  119MOL0     H15707  10.361   7.929   2.542  2.6373 -0.5413 -0.8842
  119MOL0     H15708  10.129   7.865   2.464  0.7088  0.0271  2.9854
  120MOL0     O15709   1.743   2.302   5.812 -0.7638  0.0876 -0.4869
  120MOL0     C15710   1.757   2.279   5.696 -0.3030 -0.4453  0.4882
  120MOL0     O15711   1.665   2.215   5.621  0.7546  0.2064  0.1437
  120MOL0     C15712   1.557   2.156   5.686 -0.0903  1.0461  0.2709
  120MOL0     C15713   1.433   2.165   5.628 -0.3710  0.8128  0.2501
  120MOL0     C15714   1.320   2.109   5.679  0.2989 -0.0358  0.3338
  120MOL0     C15715   1.316   2.068   5.811  0.6182  0.5118  0.0656
  120MOL0     O15716   1.194   2.025   5.866  0.7251  0.5272  0.7868
  120MOL0     C15717   1.188   2.049   6.008 -0.6996  0.5166 -0.1030
  120MOL0     C15718   1.042   2.044   6.064  0.3043  0.7092 -0.7711
  120MOL0     C15719   1.021   1.905   6.136 -0.4616  0.3204 -0.5632
  120MOL0     C15720   0.887   1.903   6.209 -0.4038 -1.1315  0.6443
  120MOL0     C15721   0.836   1.758   6.241 -0.4438 -0.6409 -0.3593
  120MOL0     C15722   0.903   1.716   6.375 -0.6041 -0.0207  0.1203
  120MOL0     C15723   0.852   1.578   6.424 -0.2106 -0.4456 -0.1383
  120MOL0     C15724   0.699   1.579   6.443  0.1695  0.9528  0.1933
  120MOL0     N15725   0.645   1.442   6.490 -0.8214  1.0532 -0.0282
  120MOL0     C15726   0.578   1.409   6.602 -0.3877 -0.1744  1.1055
  120MOL0     C15727   0.569   1.272   6.605  0.0673 -1.7460 -0.4194
  120MOL0     C15728   0.508   1.194   6.714 -0.2052  0.4416 -0.3599
  120MOL0     C15729   0.370   1.249   6.741  0.2573  0.9715 -0.4699
  120MOL0     C15730   0.285   1.145   6.803  0.7808 -0.2025 -0.8275
  120MOL0     C15731   0.330   1.116   6.950  0.0596  0.8228 -0.3830
  120MOL0     O15732   0.267   0.996   6.998 -0.4143 -0.1304 -0.1832
  120MOL0     C15733   0.133   1.021   7.032 -0.2418 -0.0964 -0.5150
  120MOL0     C15734   0.028   0.997   6.942 -0.0436 -0.2154 -0.3686
  120MOL0     C15735  -0.102   1.030   6.971 -0.5203 -0.0899  0.0418
  120MOL0     C15736  -0.138   1.101   7.086 -0.0311  0.9050 -0.1808
  120MOL0     C15737  -0.277   1.138   7.123 -0.3793  0.5756  0.6052
  120MOL0     O15738  -0.383   1.111   7.037  0.0366 -0.4926 -0.0665
  120MOL0     C15739  -0.511   1.139   7.071  1.3272 -0.7001 -0.1766
  120MOL0     C15740  -0.547   1.254   7.148 -0.0843  0.3792  0.5576
  120MOL0     C15741  -0.680   1.288   7.171 -0.4309  0.1105 -0.1128
  120MOL0     C15742  -0.782   1.214   7.104 -0.7325 -0.4287  0.6695
  120MOL0     O15743  -0.913   1.246   7.088 -0.1743 -0.6490 -0.0111
  120MOL0     C15744  -0.974   1.337   7.186 -0.4924 -0.3799 -0.1638
  120MOL0     C15745  -1.122   1.313   7.225  0.8604  0.4866  0.2528
  120MOL0     C15746  -1.149   1.398   7.352  1.0146 -0.5615 -0.0811
  120MOL0     C15747  -1.294   1.377   7.411 -0.5016  0.0162 -0.0287
  120MOL0     C15748  -1.320   1.488   7.519 -0.7768  0.3050 -0.3696
  120MOL0     C15749  -1.468   1.531   7.528  0.4180  0.9094 -1.0558
  120MOL0     C15750  -1.480   1.653   7.616  0.1854  0.2034  0.2468
  120MOL0     C15751  -1.627   1.705   7.596 -0.0830 -1.2253 -0.1659
  120MOL0    Cl15752  -1.667   1.866   7.650 -0.3481 -0.5676 -0.1100
  120MOL0     C15753  -0.747   1.107   7.025 -0.4467 -0.1201  0.2034
  120MOL0     C15754  -0.612   1.064   7.014  1.4703 -0.0154 -0.9490
  120MOL0     O15755  -0.286   1.181   7.241 -0.4829 -0.2574 -0.1367
  120MOL0     C15756  -0.027   1.134   7.177  0.0369 -0.4572 -0.0119
  120MOL0     C15757   0.103   1.095   7.146 -1.1009  0.5207 -0.6189
  120MOL0     N15758   0.651   1.227   6.510 -0.4890  1.1425 -0.2350
  120MOL0     N15759   0.698   1.325   6.441  0.3968  0.5684  0.0460
  120MOL0     C15760   1.443   2.050   5.873 -0.6360  0.6557 -0.0036
  120MOL0     C15761   1.563   2.081   5.808  0.5368  0.7081  0.6809
  120MOL0     C15762   1.880   2.326   5.625  0.5531 -0.1157  1.2376
  120MOL0     C15763   1.997   2.357   5.689 -0.5973  0.7008  0.4214
  120MOL0     C15764   2.098   2.411   5.610 -0.0367  0.3862  0.3877
  120MOL0     C15765   2.099   2.432   5.475 -0.1097 -0.6301  0.4681
  120MOL0     O15766   2.209   2.473   5.404 -0.0027  0.1896 -0.2771
  120MOL0     C15767   2.331   2.517   5.470 -0.2546  0.9610  0.4346
  120MOL0     C15768   2.409   2.606   5.380 -1.2169  1.2500 -0.0011
  120MOL0     C15769   2.557   2.616   5.432  0.2665 -0.2732  0.2229
  120MOL0     C15770   2.614   2.759   5.438  0.2066 -0.1467  0.2208
  120MOL0     C15771   2.763   2.757   5.421 -0.0405  0.5982  0.3532
  120MOL0     C15772   2.884   2.741   5.400 -0.3457  0.2439 -0.4610
  120MOL0     C15773   1.982   2.389   5.408 -0.5277 -0.5060  0.3314
  120MOL0     C15774   1.873   2.347   5.479  0.4780  0.4626  0.3490
  120MOL0     H15775   1.424   2.221   5.535 -2.2716 -1.2996 -0.9556
  120MOL0     H15776   1.230   2.102   5.619  0.7746 -0.1886 -0.3805
  120MOL0     H15777   1.233   2.144   6.040  2.6740 -1.3741  1.3184
  120MOL0     H15778   1.241   1.975   6.069  1.4000  2.9534  1.2242
  120MOL0     H15779   0.965   2.054   5.987 -0.8116 -2.3681 -0.2082
  120MOL0     H15780   1.023   2.130   6.129 -2.1903  0.0875 -0.5723
  120MOL0     H15781   1.100   1.890   6.211 -3.2091 -1.5024  2.2196
  120MOL0     H15782   1.010   1.826   6.061 -1.3283 -2.6093  2.3833
  120MOL0     H15783   0.904   1.958   6.302 -1.8986  1.0587 -0.3076
  120MOL0     H15784   0.812   1.953   6.148 -1.1431 -2.7955  0.1155
  120MOL0     H15785   0.862   1.695   6.156 -1.2892 -0.1059 -1.0360
  120MOL0     H15786   0.727   1.767   6.252 -0.5074 -1.2850 -0.4419
  120MOL0     H15787   0.872   1.789   6.450 -3.8175 -0.5732 -0.5257
  120MOL0     H15788   1.012   1.716   6.362 -0.4071 -1.4450  1.3981
  120MOL0     H15789   0.887   1.512   6.344 -0.7509 -0.6859 -0.1815
  120MOL0     H15790   0.904   1.551   6.516  0.3037 -0.2877 -0.3801
  120MOL0     H15791   0.660   1.599   6.343 -0.3625 -1.9169 -0.2560
  120MOL0     H15792   0.669   1.652   6.519 -0.4841 -0.6268  1.5063
  120MOL0     H15793   0.544   1.493   6.662  1.0484 -0.1242  1.8838
  120MOL0     H15794   0.567   1.205   6.806  0.6122  2.7015 -1.0733
  120MOL0     H15795   0.504   1.089   6.684 -0.5426  0.5774 -0.8173
  120MOL0     H15796   0.329   1.278   6.644  0.2322 -0.3372 -0.8635
  120MOL0     H15797   0.368   1.340   6.802  0.9128  0.9543 -0.4145
  120MOL0     H15798   0.182   1.182   6.808 -0.0971 -2.5336 -0.6691
  120MOL0     H15799   0.280   1.052   6.747  3.4453 -0.4570 -0.7724
  120MOL0     H15800   0.306   1.203   7.012 -0.0011 -1.0003  2.2988
  120MOL0     H15801   0.437   1.091   6.955  0.0327  0.9769  1.6024
  120MOL0     H15802   0.062   0.951   6.850 -3.4767 -2.3098 -0.7701
  120MOL0     H15803  -0.181   0.996   6.906  2.2776  1.9772 -4.9689
  120MOL0     H15804  -0.474   1.324   7.187 -0.2829  1.7972 -1.4199
  120MOL0     H15805  -0.695   1.381   7.225  1.5309  0.7915 -0.6546
  120MOL0     H15806  -0.964   1.438   7.145  3.1431 -0.7541 -0.5405
  120MOL0     H15807  -0.922   1.329   7.282 -0.4063  0.2143 -0.1612
  120MOL0     H15808  -1.127   1.205   7.246  1.1146  0.7022  1.4840
  120MOL0     H15809  -1.179   1.348   7.139  0.7677 -0.2602  0.0012
  120MOL0     H15810  -1.151   1.504   7.324 -0.1966 -0.5012  0.1551
  120MOL0     H15811  -1.077   1.392   7.434  1.5217 -1.6917 -0.5813
  120MOL0     H15812  -1.367   1.385   7.329 -0.1667  0.7637 -0.2624
  120MOL0     H15813  -1.307   1.278   7.456  0.9047  0.0547  0.5022
  120MOL0     H15814  -1.262   1.579   7.499  5.3789 -2.2065  3.3555
  120MOL0     H15815  -1.282   1.455   7.616 -4.7521 -0.3469  1.1431
  120MOL0     H15816  -1.528   1.448   7.566  0.6381 -0.0219 -2.6568
  120MOL0     H15817  -1.517   1.555   7.433  0.7171  0.8963 -1.2140
  120MOL0     H15818  -1.463   1.624   7.720  0.4923 -2.9496 -0.5929
  120MOL0     H15819  -1.402   1.728   7.602  1.4112 -0.8952  1.0577
  120MOL0     H15820  -1.697   1.637   7.646 -2.3863 -0.2791 -1.9708
  120MOL0     H15821  -1.642   1.713   7.488 -0.5930  1.1683  0.0313
  120MOL0     H15822  -0.809   1.058   6.951  0.4080  0.3341 -0.8286
  120MOL0     H15823  -0.585   0.975   6.957 -1.9609 -1.1027 -1.0957
  120MOL0     H15824  -0.056   1.176   7.273 -2.8930 -0.7813 -0.6540
  120MOL0     H15825   0.188   1.133   7.201 -2.7785  1.3536  1.5205
  120MOL0     H15826   1.438   2.006   5.973 -1.4725  1.6432  0.4118
  120MOL0     H15827   1.663   2.061   5.846  0.7434  1.3056  0.4625
  120MOL0     H15828   2.011   2.334   5.794  2.5193 -1.2733 -0.2816
  120MOL0     H15829   2.181   2.446   5.671  0.3212  1.4204 -0.6508
  120MOL0     H15830   2.385   2.432   5.514 -0.0759 -0.4067 -2.2485
  120MOL0     H15831   2.291   2.580   5.550 -1.6195  0.3153  0.2859
  120MOL0     H15832   2.400   2.556   5.284 -4.1607  2.3800 -0.4283
  120MOL0     H15833   2.370   2.708   5.371 -0.5795  1.6510  1.4749
  120MOL0     H15834   2.626   2.559   5.369  1.3236  2.0255 -0.8170
  120MOL0     H15835   2.568   2.554   5.521  0.4552  0.2226  0.5500
  120MOL0     H15836   2.580   2.822   5.355 -0.0685  1.1711  1.2935
  120MOL0     H15837   2.576   2.809   5.528  0.1393  2.6684 -1.2294
  120MOL0     H15838   2.988   2.742   5.372 -0.7660  1.4375 -2.1109
  120MOL0     H15839   1.980   2.388   5.299  3.1692 -0.1845  0.1298
  120MOL0     H15840   1.783   2.318   5.426  1.0406 -1.7781  0.5035
  121MOL0     O15841   1.506   9.880   0.500 -0.7065  0.4287 -0.4555
  121MOL0     C15842   1.604   9.840   0.438 -0.5361  0.0819  0.5444
  121MOL0     O15843   1.607   9.782   0.309 -0.2186  0.0721  0.1905
  121MOL0     C15844   1.492   9.737   0.254 -0.6624 -0.0504 -0.0347
  121MOL0     C15845   1.453   9.780   0.132  0.7194  0.0713 -0.1981
  121MOL0     C15846   1.321   9.769   0.078  0.6594  0.0135  0.1942
  121MOL0     C15847   1.224   9.694   0.154  0.5017  0.3899 -0.1023
  121MOL0     O15848   1.096   9.668   0.111 -0.4988 -0.6100  0.1252
  121MOL0     C15849   1.052   9.748   0.001 -0.3020 -0.2522  0.6481
  121MOL0     C15850   0.903   9.723   0.008 -0.5113 -0.9508  0.0805
  121MOL0     C15851   0.828   9.787  -0.114 -0.0340 -1.1954  0.5749
  121MOL0     C15852   0.673   9.760  -0.095  0.6954 -0.8516  0.0821
  121MOL0     C15853   0.598   9.800  -0.222 -0.3933 -0.1344  0.9931
  121MOL0     C15854   0.453   9.823  -0.193  0.4292  0.0746  0.2684
  121MOL0     C15855   0.352   9.849  -0.311 -0.3727  0.1667 -0.8316
  121MOL0     C15856   0.212   9.859  -0.251  0.4588 -0.4372  0.6438
  121MOL0     N15857   0.108   9.879  -0.353 -0.5329  0.1742 -0.0612
  121MOL0     C15858   0.078   9.790  -0.457  0.0210  0.5434  0.0664
  121MOL0     C15859  -0.031   9.836  -0.515  0.0342  0.2026  0.3899
  121MOL0     C15860  -0.088   9.761  -0.632 -0.3299  0.5033 -0.4063
  121MOL0     C15861  -0.237   9.776  -0.649 -0.2406  1.5062  0.3004
  121MOL0     C15862  -0.279   9.916  -0.696  0.4234  0.9610 -0.2967
  121MOL0     C15863  -0.427   9.922  -0.704  0.3708 -0.7620  0.4750
  121MOL0     O15864  -0.464  10.022  -0.803 -0.3090  0.7851  0.1455
  121MOL0     C15865  -0.594  10.078  -0.795  0.7974  0.4623 -0.9277
  121MOL0     C15866  -0.697  10.008  -0.733  0.1089  1.1021 -0.1199
  121MOL0     C15867  -0.816  10.074  -0.703 -0.6331  0.3381 -0.1622
  121MOL0     C15868  -0.836  10.203  -0.761 -0.7210 -0.3180  0.9060
  121MOL0     C15869  -0.964  10.273  -0.750  0.3079  0.6870 -1.1080
  121MOL0     O15870  -0.968  10.398  -0.800  0.3179 -0.0084  0.2565
  121MOL0     C15871  -1.082  10.476  -0.776 -0.2191  0.4730 -0.2593
  121MOL0     C15872  -1.154  10.487  -0.659 -0.3267  0.5269 -0.8742
  121MOL0     C15873  -1.259  10.573  -0.640 -0.6659  0.2956 -0.3403
  121MOL0     C15874  -1.302  10.657  -0.748  0.6007 -0.3732 -0.3568
  121MOL0     O15875  -1.401  10.751  -0.724  0.4104  0.2143  0.1125
  121MOL0     C15876  -1.355  10.885  -0.719  0.4183 -0.7468 -0.6219
  121MOL0     C15877  -1.471  10.983  -0.686 -0.9972  0.7802 -0.5246
  121MOL0     C15878  -1.502  10.990  -0.537  0.1869 -0.7924  0.4513
  121MOL0     C15879  -1.614  10.891  -0.499 -0.1048 -0.5070  0.5697
  121MOL0     C15880  -1.626  10.892  -0.350  0.4592  0.3248 -0.3250
  121MOL0     C15881  -1.732  10.791  -0.296  0.5252 -0.3546  0.1804
  121MOL0     C15882  -1.862  10.847  -0.247  0.9709  0.3296  0.1475
  121MOL0     C15883  -1.931  10.946  -0.335  1.2040  0.8667  1.0043
  121MOL0    Cl15884  -2.051  11.033  -0.243 -0.1611  0.1366  0.4573
  121MOL0     C15885  -1.230  10.659  -0.862  1.0196  0.1483  0.6929
  121MOL0     C15886  -1.123  10.569  -0.874  1.1668  1.0537  0.0749
  121MOL0     O15887  -1.062  10.213  -0.705 -0.3992  0.4803  0.0569
  121MOL0     C15888  -0.736  10.260  -0.836 -0.1284  0.0136  0.5334
  121MOL0     C15889  -0.616  10.203  -0.850  0.3484 -0.0851 -0.1417
  121MOL0     N15890  -0.068   9.954  -0.450 -0.9345  0.6664 -0.6365
  121MOL0     N15891   0.012   9.968  -0.344 -0.4995  0.4082  0.0620
  121MOL0     C15892   1.264   9.634   0.271 -0.3651 -0.5496 -0.8659
  121MOL0     C15893   1.399   9.658   0.321  0.4015 -0.3644 -0.8220
  121MOL0     C15894   1.733   9.852   0.518  0.8785  0.3376 -0.1664
  121MOL0     C15895   1.847   9.908   0.461  0.3353  0.1037  0.3455
  121MOL0     C15896   1.955   9.950   0.540  0.1127  0.2560 -0.0639
  121MOL0     C15897   1.957   9.929   0.679 -0.2045  0.8368  0.7363
  121MOL0     O15898   2.066   9.979   0.742 -0.6101  0.0394  0.0105
  121MOL0     C15899   2.174   9.893   0.742  0.5158 -0.3257  0.6159
  121MOL0     C15900   2.303   9.973   0.731  0.7707  0.9272 -0.3368
  121MOL0     C15901   2.328  10.070   0.853 -0.0906  0.3633  1.0777
  121MOL0     C15902   2.300  10.014   0.993  0.3409 -0.8735  0.4889
  121MOL0     C15903   2.165  10.041   1.044  0.7355 -0.5890 -0.1888
  121MOL0     C15904   2.052  10.075   1.071 -0.0180 -0.2481  0.4260
  121MOL0     C15905   1.853   9.863   0.737  0.8776  0.1160 -1.1157
  121MOL0     C15906   1.738   9.828   0.662  0.3089  0.2111 -1.0366
  121MOL0     H15907   1.515   9.837   0.063 -1.0149 -0.2873 -2.1757
  121MOL0     H15908   1.299   9.806  -0.022  0.0812 -0.2931  0.2023
  121MOL0     H15909   1.105   9.716  -0.088  1.2418  2.1844  0.5877
  121MOL0     H15910   1.069   9.855   0.019 -0.6938 -0.4801  2.6454
  121MOL0     H15911   0.857   9.769   0.097  1.4596 -0.0418  0.6924
  121MOL0     H15912   0.890   9.614   0.011  2.3700 -1.4413 -1.2686
  121MOL0     H15913   0.861   9.741  -0.208 -0.4599  0.1401 -0.2531
  121MOL0     H15914   0.848   9.894  -0.127 -2.4608 -0.7173  0.4170
  121MOL0     H15915   0.660   9.660  -0.054 -0.0014  0.2289  2.7156
  121MOL0     H15916   0.641   9.826  -0.013  0.4071  2.2231 -2.3200
  121MOL0     H15917   0.605   9.712  -0.286 -0.7238  0.0434  0.7066
  121MOL0     H15918   0.647   9.884  -0.272 -0.4013  1.2268  3.1269
  121MOL0     H15919   0.443   9.905  -0.121  1.5581 -0.4260  1.0159
  121MOL0     H15920   0.421   9.736  -0.135  1.0435 -2.2630 -2.6988
  121MOL0     H15921   0.359   9.939  -0.374 -2.1028 -0.6791 -2.3244
  121MOL0     H15922   0.346   9.764  -0.379  2.4492 -0.9318  0.1549
  121MOL0     H15923   0.202   9.933  -0.171 -0.8747 -1.2463  1.2651
  121MOL0     H15924   0.187   9.767  -0.197 -1.0783  0.5901  1.8028
  121MOL0     H15925   0.141   9.708  -0.489  0.0241 -1.0307  3.6049
  121MOL0     H15926  -0.058   9.658  -0.615  0.1104  0.5928 -0.6331
  121MOL0     H15927  -0.051   9.792  -0.730  0.2773 -2.8555 -1.3526
  121MOL0     H15928  -0.295   9.745  -0.561  2.0865 -2.3512  0.7248
  121MOL0     H15929  -0.254   9.710  -0.734 -0.7662  1.0993  0.7110
  121MOL0     H15930  -0.253   9.993  -0.622 -1.1843  1.9114 -0.6584
  121MOL0     H15931  -0.236   9.935  -0.795 -1.9750  2.5131 -1.1496
  121MOL0     H15932  -0.469   9.936  -0.604 -1.7371  2.5540 -0.7147
  121MOL0     H15933  -0.465   9.828  -0.745 -0.0289 -1.2576  1.8883
  121MOL0     H15934  -0.677   9.906  -0.703 -0.5871  1.3830  1.3900
  121MOL0     H15935  -0.892  10.019  -0.650 -0.7989 -0.0102 -0.7637
  121MOL0     H15936  -1.110  10.437  -0.574  3.9177  2.3897 -1.7134
  121MOL0     H15937  -1.311  10.565  -0.545  0.1274 -0.4775  0.0384
  121MOL0     H15938  -1.324  10.908  -0.821  0.0461 -0.5103 -0.6869
  121MOL0     H15939  -1.273  10.899  -0.648  0.4902  0.8461 -0.9799
  121MOL0     H15940  -1.561  10.953  -0.740 -0.6425 -1.0624 -0.1692
  121MOL0     H15941  -1.435  11.080  -0.720 -2.1499  1.1720 -0.6566
  121MOL0     H15942  -1.534  11.092  -0.515 -1.1900 -1.5013  1.9949
  121MOL0     H15943  -1.411  10.960  -0.484  0.7430 -0.1653 -0.1410
  121MOL0     H15944  -1.710  10.919  -0.545  0.8167 -1.6030 -2.2002
  121MOL0     H15945  -1.581  10.795  -0.539  0.5083 -0.6438  1.3918
  121MOL0     H15946  -1.623  10.993  -0.307 -2.4195  1.2656 -2.0453
  121MOL0     H15947  -1.525  10.861  -0.321  0.9754  2.0659 -0.1219
  121MOL0     H15948  -1.696  10.732  -0.211 -2.3244 -0.8546  1.1565
  121MOL0     H15949  -1.758  10.722  -0.377  1.7787 -0.2134 -0.3467
  121MOL0     H15950  -1.941  10.772  -0.230 -0.5463  2.2785  2.3866
  121MOL0     H15951  -1.845  10.888  -0.147 -2.4057  0.7048  0.7156
  121MOL0     H15952  -1.979  10.906  -0.426  1.4372 -1.2721  1.7694
  121MOL0     H15953  -1.856  11.015  -0.373  1.9062 -1.3921 -2.1235
  121MOL0     H15954  -1.246  10.727  -0.946 -0.4617  2.6791  2.8804
  121MOL0     H15955  -1.055  10.576  -0.958 -1.5439 -1.1468 -2.5183
  121MOL0     H15956  -0.753  10.339  -0.908 -2.3617 -2.3257 -1.7357
  121MOL0     H15957  -0.538  10.255  -0.905  1.2328 -0.4565  0.7371
  121MOL0     H15958   1.205   9.563   0.328  1.4413 -1.3528  0.0587
  121MOL0     H15959   1.421   9.615   0.418 -1.9685  2.4509  1.1317
  121MOL0     H15960   1.857   9.939   0.358 -1.0216  0.7067  0.3806
  121MOL0     H15961   2.023  10.014   0.485  0.2522  2.1683  2.1542
  121MOL0     H15962   2.179   9.833   0.651  0.1855  0.6992 -0.1022
  121MOL0     H15963   2.168   9.822   0.825 -1.7935 -3.1092 -1.7174
  121MOL0     H15964   2.391   9.909   0.719  0.3667  0.8616 -4.1509
  121MOL0     H15965   2.300  10.035   0.640 -1.2840  1.6417  0.1542
  121MOL0     H15966   2.260  10.152   0.830  0.0936 -0.0011 -1.0291
  121MOL0     H15967   2.428  10.113   0.840 -0.1767  0.3958  0.4689
  121MOL0     H15968   2.312   9.906   1.011  2.4987 -0.6972  0.3676
  121MOL0     H15969   2.369  10.057   1.066 -0.8698  0.9694  0.5968
  121MOL0     H15970   1.950  10.092   1.099 -1.0192 -1.6126 -2.0711
  121MOL0     H15971   1.845   9.847   0.844 -0.3684  2.3039 -0.8176
  121MOL0     H15972   1.646   9.790   0.705 -0.2338  0.1414 -2.2453
  122MOL0     O15973   2.896   2.540   9.233 -0.5181  0.2074 -0.7120
  122MOL0     C15974   2.936   2.592   9.334 -0.5325 -0.4141 -0.1200
  122MOL0     O15975   2.857   2.665   9.424 -0.5686 -0.0862 -0.1154
  122MOL0     C15976   2.732   2.695   9.372  0.2233  0.0796 -0.7129
  122MOL0     C15977   2.625   2.614   9.417  1.0362  0.3572  0.3370
  122MOL0     C15978   2.495   2.667   9.388  0.7961  0.5753  1.1650
  122MOL0     C15979   2.478   2.772   9.293 -0.5161  0.3291  0.4008
  122MOL0     O15980   2.353   2.805   9.254 -0.2602 -0.0670  0.2422
  122MOL0     C15981   2.334   2.841   9.111  0.8576  0.5519 -0.9812
  122MOL0     C15982   2.191   2.806   9.064  0.0909  0.0087 -0.4504
  122MOL0     C15983   2.159   2.660   9.053 -0.9220  0.5093  0.8026
  122MOL0     C15984   2.245   2.588   8.954  0.4442 -0.2778 -0.1212
  122MOL0     C15985   2.199   2.446   8.938  0.3780  1.0231 -0.0283
  122MOL0     C15986   2.299   2.351   8.865 -0.5743  0.0242 -0.5619
  122MOL0     C15987   2.239   2.206   8.843  0.2496 -1.1308  1.1698
  122MOL0     C15988   2.197   2.136   8.974 -0.6970  0.3617  0.1624
  122MOL0     N15989   2.124   2.009   8.950  0.1211  0.6876  0.5752
  122MOL0     C15990   2.005   1.976   9.009  0.1776  0.4782  0.0476
  122MOL0     C15991   2.004   1.841   9.030  0.1151 -0.0463 -0.8462
  122MOL0     C15992   1.897   1.754   9.092  0.4483 -0.2508 -0.1203
  122MOL0     C15993   1.757   1.773   9.028  0.7779  0.0414  0.4436
  122MOL0     C15994   1.682   1.651   9.060 -0.9129  1.2666  0.0785
  122MOL0     C15995   1.547   1.640   8.984  0.7733 -0.0205  0.2446
  122MOL0     O15996   1.476   1.529   9.035 -0.0677  0.7940  0.5856
  122MOL0     C15997   1.352   1.504   8.974  0.3192 -0.6318 -0.7582
  122MOL0     C15998   1.282   1.388   9.020  0.2451 -0.3057 -0.0105
  122MOL0     C15999   1.152   1.349   8.984  0.3073 -0.0761 -0.4594
  122MOL0     C16000   1.080   1.436   8.900 -0.1837 -0.1306  0.1006
  122MOL0     C16001   0.939   1.404   8.864 -0.2620 -0.9651 -0.7229
  122MOL0     O16002   0.892   1.295   8.928 -0.1808  0.0505  0.0974
  122MOL0     C16003   0.762   1.277   8.921 -0.2315  0.3161 -0.1815
  122MOL0     C16004   0.674   1.372   8.976  0.0124 -0.1032  0.3811
  122MOL0     C16005   0.537   1.353   8.967 -0.1612  0.2449 -0.5147
  122MOL0     C16006   0.485   1.237   8.899 -0.3857 -0.5910  0.6338
  122MOL0     O16007   0.353   1.223   8.880 -0.1501 -0.1328 -0.4297
  122MOL0     C16008   0.269   1.217   8.994 -0.1207  0.1959 -0.2808
  122MOL0     C16009   0.181   1.339   8.982  0.2119 -0.2713 -0.5628
  122MOL0     C16010   0.076   1.346   9.096 -0.0907 -0.5141 -0.3445
  122MOL0     C16011  -0.017   1.465   9.072 -0.6175  0.0312 -0.4175
  122MOL0     C16012  -0.160   1.432   9.123 -0.6733  0.0152 -0.2646
  122MOL0     C16013  -0.255   1.561   9.119  0.2165  1.2204 -0.4231
  122MOL0     C16014  -0.401   1.513   9.144 -0.0746  0.5788 -0.0781
  122MOL0     C16015  -0.507   1.628   9.152  0.2350  0.9089 -0.2560
  122MOL0    Cl16016  -0.663   1.558   9.187  0.8501  0.4155 -0.0716
  122MOL0     C16017   0.570   1.145   8.842 -0.2189 -0.4367  0.1999
  122MOL0     C16018   0.712   1.158   8.862 -0.2374  0.3176 -0.5812
  122MOL0     O16019   0.877   1.486   8.799 -0.1987 -0.1138 -0.0392
  122MOL0     C16020   1.143   1.552   8.855 -0.1267  0.7176  0.1050
  122MOL0     C16021   1.276   1.589   8.889 -0.1781  0.7017 -0.6306
  122MOL0     N16022   2.113   1.795   8.965 -0.6210  0.1402  0.1202
  122MOL0     N16023   2.176   1.897   8.916  0.5555  0.9143 -0.2622
  122MOL0     C16024   2.593   2.838   9.251 -1.0204 -0.6184 -0.2476
  122MOL0     C16025   2.714   2.802   9.295  0.6198 -0.5001 -0.2450
  122MOL0     C16026   3.083   2.568   9.374  0.6952 -0.3537  0.1551
  122MOL0     C16027   3.168   2.492   9.283  0.3317 -0.3539  0.2614
  122MOL0     C16028   3.296   2.478   9.318 -0.2200  0.3240 -0.9712
  122MOL0     C16029   3.351   2.540   9.436  0.5985  0.8557  0.1276
  122MOL0     O16030   3.488   2.503   9.453  0.2145 -0.4385 -0.3710
  122MOL0     C16031   3.569   2.573   9.543  0.4869 -0.3353  0.0877
  122MOL0     C16032   3.578   2.726   9.516  0.3703  0.4653 -0.2210
  122MOL0     C16033   3.703   2.778   9.575 -0.6309 -0.9427 -0.4153
  122MOL0     C16034   3.737   2.934   9.576 -0.2376  0.5543  0.1305
  122MOL0     C16035   3.873   2.969   9.600  0.5665 -1.2417 -0.2281
  122MOL0     C16036   3.980   3.010   9.629  0.3392  0.5516 -0.3296
  122MOL0     C16037   3.263   2.605   9.524  0.1256  0.7777  0.2741
  122MOL0     C16038   3.129   2.619   9.495 -0.2721 -0.0390 -0.7031
  122MOL0     H16039   2.634   2.529   9.483  0.5897 -2.6337 -3.1475
  122MOL0     H16040   2.407   2.615   9.424 -0.2562  1.4986  0.0016
  122MOL0     H16041   2.417   2.796   9.055  2.8933  0.7849  1.6457
  122MOL0     H16042   2.348   2.949   9.107 -0.1770  0.9123  2.1090
  122MOL0     H16043   2.174   2.850   8.965  1.3384  1.3530 -0.0986
  122MOL0     H16044   2.124   2.853   9.137 -1.4237  1.1128 -2.4285
  122MOL0     H16045   2.055   2.646   9.024  0.5297 -0.7576 -4.9210
  122MOL0     H16046   2.166   2.619   9.154 -1.0916  0.6485  0.8706
  122MOL0     H16047   2.223   2.642   8.862 -2.2107  1.0148  1.1348
  122MOL0     H16048   2.351   2.590   8.979  0.1279 -1.1774  1.4888
  122MOL0     H16049   2.117   2.454   8.866 -0.5390 -1.1189  0.6891
  122MOL0     H16050   2.162   2.408   9.033 -0.3171 -1.4779 -1.1906
  122MOL0     H16051   2.387   2.334   8.927  0.8512  0.9771 -2.2361
  122MOL0     H16052   2.330   2.396   8.770  1.7334 -1.0734 -0.3882
  122MOL0     H16053   2.159   2.224   8.771  0.3111  0.6581  1.4977
  122MOL0     H16054   2.322   2.151   8.799  0.7276  1.4547 -1.4836
  122MOL0     H16055   2.141   2.199   9.044 -1.0877 -2.7506  2.8850
  122MOL0     H16056   2.289   2.106   9.026 -0.2852 -2.7772 -2.0947
  122MOL0     H16057   1.929   2.045   9.045 -1.7427 -1.8432  0.7141
  122MOL0     H16058   1.894   1.772   9.200  1.4011  3.6962 -0.6214
  122MOL0     H16059   1.933   1.653   9.070  3.8126  1.4764 -3.8230
  122MOL0     H16060   1.759   1.795   8.921 -3.3275  1.7979  0.5365
  122MOL0     H16061   1.715   1.865   9.071 -1.1923 -0.7280  0.2921
  122MOL0     H16062   1.747   1.566   9.038 -1.2089  1.2326 -0.6933
  122MOL0     H16063   1.664   1.639   9.168 -0.8807 -2.0636 -0.1842
  122MOL0     H16064   1.563   1.627   8.876  0.1130  2.2097 -0.1840
  122MOL0     H16065   1.488   1.727   9.013  0.8944  0.3261 -0.5311
  122MOL0     H16066   1.336   1.327   9.092 -0.2886 -0.6083  0.1398
  122MOL0     H16067   1.105   1.261   9.028 -1.1542  0.8599 -0.0576
  122MOL0     H16068   0.723   1.457   9.022  2.2136 -0.2960 -1.4318
  122MOL0     H16069   0.463   1.423   9.005  0.0033 -0.1503  0.5405
  122MOL0     H16070   0.332   1.203   9.082  3.1078 -0.6796 -2.5579
  122MOL0     H16071   0.208   1.126   8.995 -0.3120  0.3231  0.3653
  122MOL0     H16072   0.135   1.331   8.883 -1.4296 -3.2191  0.3062
  122MOL0     H16073   0.246   1.424   9.005  0.7801 -1.1878  1.4076
  122MOL0     H16074   0.125   1.348   9.194  1.4009 -0.8169 -1.0551
  122MOL0     H16075   0.010   1.258   9.099  0.5882 -1.0938 -1.4951
  122MOL0     H16076   0.016   1.553   9.128  1.9485 -0.5706 -0.8589
  122MOL0     H16077  -0.020   1.484   8.964 -2.1081  0.0847 -0.3869
  122MOL0     H16078  -0.164   1.404   9.229 -1.9965  0.6328 -0.1303
  122MOL0     H16079  -0.200   1.351   9.062 -0.6467 -0.4525  0.3331
  122MOL0     H16080  -0.257   1.614   9.024 -3.2304  3.5003  0.6993
  122MOL0     H16081  -0.224   1.631   9.197  1.2483 -3.6328  4.1304
  122MOL0     H16082  -0.433   1.440   9.069 -0.1860  0.1374  0.3949
  122MOL0     H16083  -0.400   1.455   9.236  4.0555 -3.5069 -2.2380
  122MOL0     H16084  -0.511   1.693   9.065  0.0050 -0.2211 -1.1110
  122MOL0     H16085  -0.484   1.699   9.233 -0.0400  0.2713  0.3935
  122MOL0     H16086   0.525   1.060   8.793  1.2203  0.0236 -2.0955
  122MOL0     H16087   0.790   1.084   8.844  1.0059  0.8965  1.9682
  122MOL0     H16088   1.084   1.609   8.785 -3.8344 -2.6062  0.1848
  122MOL0     H16089   1.324   1.679   8.851  1.5687 -0.1520 -0.5801
  122MOL0     H16090   2.579   2.924   9.186 -2.9712 -0.0981  0.7876
  122MOL0     H16091   2.804   2.855   9.268  0.8991  0.4455  2.2338
  122MOL0     H16092   3.121   2.458   9.191  2.9263 -3.1785 -0.2115
  122MOL0     H16093   3.372   2.424   9.262  0.4017 -0.7390  0.8301
  122MOL0     H16094   3.670   2.532   9.544  0.1734 -1.1317 -0.0509
  122MOL0     H16095   3.539   2.546   9.644  1.6947 -3.4265 -0.2840
  122MOL0     H16096   3.590   2.732   9.407  4.0520  0.9519  0.0708
  122MOL0     H16097   3.489   2.783   9.542 -0.6502 -0.2628 -1.9208
  122MOL0     H16098   3.789   2.720   9.541  1.6497 -0.7128  4.1815
  122MOL0     H16099   3.699   2.753   9.681  1.3319  0.6778  0.1005
  122MOL0     H16100   3.709   2.972   9.478 -1.6263 -1.6577 -0.4209
  122MOL0     H16101   3.671   2.982   9.649 -0.3822  0.6106 -0.0354
  122MOL0     H16102   4.066   3.060   9.669  0.7054  0.7634 -1.3423
  122MOL0     H16103   3.292   2.652   9.618 -1.1074  1.7070  0.2128
  122MOL0     H16104   3.059   2.669   9.562 -0.8455 -0.9746 -0.5965
  123MOL0     O16105   6.047   8.969   8.198  0.8626  0.0221 -0.6652
  123MOL0     C16106   6.073   8.897   8.111  0.5708  0.3134 -0.0786
  123MOL0     O16107   5.989   8.851   8.018 -0.7123 -0.1962 -0.1709
  123MOL0     C16108   5.855   8.881   8.020 -0.5263  1.3225 -0.5195
  123MOL0     C16109   5.803   9.010   8.011 -0.2708 -0.5876 -0.1661
  123MOL0     C16110   5.666   9.033   8.005  0.1115  1.0191  0.5028
  123MOL0     C16111   5.578   8.918   8.004  0.0255  0.0618  1.1358
  123MOL0     O16112   5.441   8.949   7.984 -0.2946 -0.1877  0.1052
  123MOL0     C16113   5.376   8.854   7.898 -0.0087 -0.2659 -0.5794
  123MOL0     C16114   5.247   8.903   7.830 -0.0757  0.4468 -0.4565
  123MOL0     C16115   5.132   8.958   7.919  0.7184 -0.0320  0.2539
  123MOL0     C16116   5.006   8.928   7.840  0.2820  0.5562  0.5054
  123MOL0     C16117   4.890   8.999   7.912 -0.2108  0.2966  0.4563
  123MOL0     C16118   4.763   8.923   7.877  0.0598 -0.5857  0.0390
  123MOL0     C16119   4.636   8.986   7.945  0.1776  0.1470  0.4944
  123MOL0     C16120   4.505   8.912   7.923  0.1369  0.4909  1.3371
  123MOL0     N16121   4.424   8.944   7.804  0.2237 -0.2582 -0.9043
  123MOL0     C16122   4.337   9.054   7.799 -0.2147  0.2855  0.1416
  123MOL0     C16123   4.284   9.054   7.675  0.7058 -0.2314 -0.5158
  123MOL0     C16124   4.175   9.143   7.609 -0.5603  0.0116  0.2362
  123MOL0     C16125   4.034   9.081   7.609 -0.2368  0.0950 -0.2929
  123MOL0     C16126   3.953   9.135   7.492 -0.6255 -0.1478  1.1786
  123MOL0     C16127   3.831   9.062   7.467 -0.1383 -0.2153  1.0236
  123MOL0     O16128   3.739   9.095   7.561  0.0707  0.6075 -0.3927
  123MOL0     C16129   3.611   9.055   7.526  0.0672 -0.6966 -0.7894
  123MOL0     C16130   3.514   9.143   7.562 -0.1658 -0.2983 -0.2670
  123MOL0     C16131   3.378   9.123   7.523  0.5414 -0.6203 -0.2288
  123MOL0     C16132   3.330   9.018   7.443 -0.7049 -0.5690  0.1295
  123MOL0     C16133   3.190   9.011   7.400  0.1371 -0.1020  0.1137
  123MOL0     O16134   3.110   9.122   7.395  0.1678 -0.4904  0.5291
  123MOL0     C16135   2.983   9.110   7.345 -0.5689 -1.2525 -0.4900
  123MOL0     C16136   2.941   9.045   7.234 -0.0601 -0.4106  0.2754
  123MOL0     C16137   2.816   9.043   7.186  0.1691 -0.2697 -0.3041
  123MOL0     C16138   2.709   9.109   7.249 -0.2141  0.5362  0.4650
  123MOL0     O16139   2.594   9.100   7.172 -0.0903 -0.4288 -0.4842
  123MOL0     C16140   2.481   9.174   7.225 -0.6077 -0.4355 -0.0183
  123MOL0     C16141   2.377   9.186   7.115 -0.2222  0.1424  0.4818
  123MOL0     C16142   2.245   9.240   7.173 -0.6337  0.8012 -0.1851
  123MOL0     C16143   2.152   9.262   7.059  0.8880 -0.4122  0.1167
  123MOL0     C16144   2.013   9.318   7.104 -1.2199 -0.2905  0.6738
  123MOL0     C16145   1.934   9.330   6.975 -0.3104 -0.0231  0.7234
  123MOL0     C16146   1.795   9.393   6.994 -1.4236 -0.5790  0.6013
  123MOL0     C16147   1.701   9.376   6.880  0.1729  0.4518  0.0305
  123MOL0    Cl16148   1.611   9.220   6.879  0.4410 -0.0172 -0.0295
  123MOL0     C16149   2.745   9.175   7.362  0.2269 -0.0431  1.3456
  123MOL0     C16150   2.882   9.179   7.409  0.1339 -0.2883  0.6285
  123MOL0     O16151   3.168   8.896   7.348  0.9292 -1.3388 -0.2442
  123MOL0     C16152   3.441   8.931   7.402  0.1253 -0.9281 -0.1525
  123MOL0     C16153   3.576   8.952   7.442  0.9758  0.4493  0.5824
  123MOL0     N16154   4.329   8.940   7.613 -0.8046 -0.1243 -0.3348
  123MOL0     N16155   4.405   8.872   7.692  0.6094  0.0748  0.0071
  123MOL0     C16156   5.630   8.791   8.031  0.2916 -1.0260 -0.2633
  123MOL0     C16157   5.766   8.773   8.034 -0.0268  0.0127  0.3003
  123MOL0     C16158   6.205   8.840   8.108 -0.5147  0.3123 -0.1725
  123MOL0     C16159   6.303   8.869   8.201  0.4691 -0.5714 -0.1505
  123MOL0     C16160   6.432   8.807   8.192 -0.2614 -0.6975  0.9587
  123MOL0     C16161   6.452   8.713   8.095  0.5050 -0.1070 -0.1717
  123MOL0     O16162   6.571   8.657   8.070 -0.3490  0.2651  0.0087
  123MOL0     C16163   6.691   8.709   8.133  0.3856 -0.3779  0.1336
  123MOL0     C16164   6.738   8.855   8.109  0.2103  0.4521 -0.3886
  123MOL0     C16165   6.871   8.876   8.184  0.6172  0.2947 -0.4170
  123MOL0     C16166   6.852   8.938   8.322  0.1722 -0.0703  0.0813
  123MOL0     C16167   6.974   8.971   8.393 -0.0726  0.1136 -0.5844
  123MOL0     C16168   7.072   8.991   8.457 -0.0443 -0.5988 -0.3270
  123MOL0     C16169   6.356   8.680   7.998  0.7482 -0.2458 -0.5484
  123MOL0     C16170   6.241   8.749   7.999  0.2529  0.4311 -0.1977
  123MOL0     H16171   5.874   9.091   8.027 -2.5727  1.3625  0.9087
  123MOL0     H16172   5.629   9.135   7.995 -0.1738  0.7498 -1.4543
  123MOL0     H16173   5.355   8.762   7.953 -0.3692  1.6448  2.7536
  123MOL0     H16174   5.441   8.831   7.813  2.1017  2.4151  0.1771
  123MOL0     H16175   5.221   8.815   7.770  1.1487  0.0465 -0.4231
  123MOL0     H16176   5.285   8.983   7.765 -1.5294  0.6140 -1.1448
  123MOL0     H16177   5.140   9.063   7.947 -3.0270 -0.2348  2.7650
  123MOL0     H16178   5.131   8.902   8.013  1.5705 -0.4988  0.0044
  123MOL0     H16179   5.028   8.966   7.740 -0.4475 -0.6848 -0.1534
  123MOL0     H16180   4.989   8.821   7.820  0.4025  0.8374 -1.2542
  123MOL0     H16181   4.884   9.102   7.877  0.9380 -0.1826 -1.3033
  123MOL0     H16182   4.903   8.992   8.020  1.5162 -1.7150  0.1799
  123MOL0     H16183   4.770   8.819   7.909 -0.4735 -0.5469  0.3024
  123MOL0     H16184   4.752   8.934   7.769 -4.0122 -4.5600 -0.2386
  123MOL0     H16185   4.652   8.989   8.053 -0.4461  1.4489  0.5711
  123MOL0     H16186   4.627   9.092   7.920  0.6165 -0.1451 -1.0356
  123MOL0     H16187   4.436   8.928   8.006  0.8610  0.1869  2.0016
  123MOL0     H16188   4.538   8.808   7.915 -1.8714 -0.1117  0.0507
  123MOL0     H16189   4.324   9.129   7.876 -0.4092  0.8390 -0.4251
  123MOL0     H16190   4.203   9.161   7.505 -1.4477 -2.0162 -0.4022
  123MOL0     H16191   4.158   9.245   7.647  0.9283  0.2776  0.2250
  123MOL0     H16192   3.977   9.098   7.700 -0.5751 -0.0678 -0.4749
  123MOL0     H16193   4.045   8.974   7.591  0.1688  0.3089 -1.4070
  123MOL0     H16194   3.933   9.240   7.517  3.3269  1.2655 -0.8239
  123MOL0     H16195   4.013   9.129   7.401  0.5941 -2.7106  2.0642
  123MOL0     H16196   3.847   8.954   7.471 -2.7117 -0.7282 -0.7144
  123MOL0     H16197   3.791   9.082   7.368 -2.5355 -1.8063  1.5874
  123MOL0     H16198   3.519   9.230   7.627 -2.2639  0.5589 -1.1402
  123MOL0     H16199   3.312   9.200   7.561  2.3886  0.3708  1.1356
  123MOL0     H16200   3.007   8.984   7.173  2.3789  1.0701  1.3306
  123MOL0     H16201   2.785   8.985   7.099 -0.6819  1.2555 -1.0624
  123MOL0     H16202   2.502   9.268   7.275  1.9435 -0.0712 -1.5886
  123MOL0     H16203   2.443   9.104   7.300  0.2161 -0.7307  0.1359
  123MOL0     H16204   2.362   9.090   7.064  1.5784 -0.2399  0.5994
  123MOL0     H16205   2.419   9.258   7.045  1.0636 -0.4948  0.5653
  123MOL0     H16206   2.265   9.330   7.233  0.1171  0.3196  0.2978
  123MOL0     H16207   2.204   9.169   7.245  1.1967 -1.4987 -1.2738
  123MOL0     H16208   2.192   9.341   6.994  0.4297 -0.4083 -0.1634
  123MOL0     H16209   2.130   9.165   7.013 -1.7810 -0.6832  1.7831
  123MOL0     H16210   2.025   9.413   7.157 -0.0985 -0.6038  1.0097
  123MOL0     H16211   1.955   9.254   7.171  0.2551 -2.1333  0.2780
  123MOL0     H16212   1.929   9.230   6.933 -1.1173  0.5759 -0.6524
  123MOL0     H16213   1.996   9.384   6.903  2.0498 -6.5546 -2.9543
  123MOL0     H16214   1.741   9.352   7.079  1.1304  1.6193  3.5194
  123MOL0     H16215   1.803   9.502   7.003  3.2484 -0.6140 -0.2409
  123MOL0     H16216   1.755   9.402   6.789 -0.9195  0.8828 -0.5151
  123MOL0     H16217   1.623   9.451   6.892 -0.8137 -0.2617 -1.5813
  123MOL0     H16218   2.663   9.226   7.412  1.4242  0.6671  2.6724
  123MOL0     H16219   2.911   9.241   7.493  0.1219  2.0828 -1.0061
  123MOL0     H16220   3.421   8.840   7.347 -2.2602 -1.9252  2.1260
  123MOL0     H16221   3.656   8.887   7.409  0.9365 -0.1382  1.6329
  123MOL0     H16222   5.563   8.706   8.039  0.4425 -1.1942 -0.7378
  123MOL0     H16223   5.807   8.673   8.038  1.4698  0.6255  1.4403
  123MOL0     H16224   6.280   8.937   8.282 -1.2736  1.7114 -2.4088
  123MOL0     H16225   6.513   8.834   8.259  0.1066  2.1402 -0.4589
  123MOL0     H16226   6.774   8.651   8.092  0.9573 -2.2314  3.5378
  123MOL0     H16227   6.690   8.697   8.241 -2.2658 -2.5044 -0.0027
  123MOL0     H16228   6.768   8.866   8.004 -2.8336  1.2073 -1.2710
  123MOL0     H16229   6.654   8.925   8.119 -1.4879 -0.7481 -4.2550
  123MOL0     H16230   6.925   8.946   8.119 -3.1900  0.6617 -3.4994
  123MOL0     H16231   6.928   8.783   8.193  1.3050  0.6915 -0.6128
  123MOL0     H16232   6.783   9.022   8.313  2.9272  2.1605 -2.5610
  123MOL0     H16233   6.789   8.872   8.382 -0.3687 -0.8489 -1.2859
  123MOL0     H16234   7.153   9.013   8.524 -0.9972  0.9895  0.3595
  123MOL0     H16235   6.389   8.607   7.925 -2.1113 -1.4893 -0.7118
  123MOL0     H16236   6.176   8.712   7.920  0.1119 -0.3913  0.2864
  124MOL0     O16237   6.550   2.415   2.377  0.5013 -0.6115 -0.4446
  124MOL0     C16238   6.612   2.319   2.422 -0.3068 -0.9533  0.2517
  124MOL0     O16239   6.567   2.210   2.484  0.1503 -0.6640 -0.8521
  124MOL0     C16240   6.431   2.179   2.482 -0.1635  0.0789 -0.3728
  124MOL0     C16241   6.381   2.122   2.375 -0.4499 -0.2584 -0.1859
  124MOL0     C16242   6.242   2.096   2.355 -0.3157 -0.4988  0.0632
  124MOL0     C16243   6.159   2.114   2.466  0.4833 -0.1719 -0.0361
  124MOL0     O16244   6.027   2.079   2.458 -0.3891  0.1609 -0.2975
  124MOL0     C16245   5.930   2.190   2.471  0.0110  0.3219  0.6101
  124MOL0     C16246   5.790   2.124   2.493 -0.1714 -0.3020  0.2438
  124MOL0     C16247   5.750   2.027   2.384 -0.1336 -0.5104 -0.2198
  124MOL0     C16248   5.629   1.946   2.419  0.1343  0.8202  0.1630
  124MOL0     C16249   5.661   1.832   2.514 -0.9397 -1.7398  0.7971
  124MOL0     C16250   5.612   1.697   2.453  0.3246 -1.1808  0.9466
  124MOL0     C16251   5.625   1.593   2.562 -0.1365  0.3231 -0.1797
  124MOL0     C16252   5.590   1.457   2.494 -0.1967  0.5611  0.5462
  124MOL0     N16253   5.441   1.439   2.470 -0.7901  0.9899  0.5967
  124MOL0     C16254   5.388   1.346   2.383 -0.1695  1.0880  0.2074
  124MOL0     C16255   5.260   1.394   2.359  0.1404  0.0012  0.1595
  124MOL0     C16256   5.163   1.316   2.272  0.0177  0.1490  0.4314
  124MOL0     C16257   5.043   1.240   2.343  0.2054 -0.1115 -0.5059
  124MOL0     C16258   4.967   1.335   2.434  0.7564  0.4520  0.0965
  124MOL0     C16259   4.853   1.402   2.360 -0.5608  0.0596  0.0086
  124MOL0     O16260   4.752   1.310   2.340 -0.1575 -0.2825  0.1943
  124MOL0     C16261   4.624   1.345   2.325 -0.1608  0.7631  1.3963
  124MOL0     C16262   4.538   1.256   2.251 -0.2944 -0.5356  0.2955
  124MOL0     C16263   4.405   1.294   2.234  0.5190  0.4279 -0.0881
  124MOL0     C16264   4.363   1.427   2.270  0.2194 -1.2840  0.0947
  124MOL0     C16265   4.226   1.478   2.237  0.2556 -0.0090 -0.2732
  124MOL0     O16266   4.146   1.386   2.185  0.4622  0.5002  0.1624
  124MOL0     C16267   4.013   1.408   2.157 -0.1215 -0.3200  1.0906
  124MOL0     C16268   3.955   1.533   2.112  0.6876  0.1522  0.1434
  124MOL0     C16269   3.824   1.543   2.075  0.6995  0.1838 -0.1747
  124MOL0     C16270   3.742   1.424   2.077  0.3149 -0.5869  0.3404
  124MOL0     O16271   3.605   1.428   2.062 -0.3329 -0.4754  0.3295
  124MOL0     C16272   3.554   1.446   1.926  0.4354 -0.4541  0.2752
  124MOL0     C16273   3.568   1.326   1.836  0.3222 -0.2633 -0.5241
  124MOL0     C16274   3.485   1.347   1.707 -0.4611  0.3691 -0.4638
  124MOL0     C16275   3.539   1.244   1.602  0.5500  0.3456 -0.0483
  124MOL0     C16276   3.456   1.268   1.480  0.3711 -0.7946  0.1008
  124MOL0     C16277   3.313   1.206   1.494 -0.2467  0.1709 -0.2082
  124MOL0     C16278   3.245   1.215   1.364  0.4816  0.1701  0.6631
  124MOL0     C16279   3.101   1.162   1.362 -0.3592  0.2661  0.0518
  124MOL0    Cl16280   3.081   1.085   1.200 -0.2393 -0.1694 -0.2253
  124MOL0     C16281   3.801   1.303   2.109  0.2044  0.6514  0.2132
  124MOL0     C16282   3.931   1.297   2.152  0.4060  0.6072 -0.1893
  124MOL0     O16283   4.204   1.597   2.251 -0.1508 -0.0609  0.3157
  124MOL0     C16284   4.453   1.514   2.331  0.0607 -0.4556  0.9414
  124MOL0     C16285   4.584   1.475   2.359  0.0870 -0.0104 -1.0279
  124MOL0     N16286   5.241   1.509   2.432  0.6869 -0.5153 -0.5786
  124MOL0     N16287   5.351   1.538   2.486 -0.2615  0.5341  0.8254
  124MOL0     C16288   6.219   2.156   2.584 -0.5552  1.2398 -0.0928
  124MOL0     C16289   6.353   2.205   2.593 -0.3024  0.8118  0.2088
  124MOL0     C16290   6.758   2.327   2.385 -0.1790  0.7477  0.5034
  124MOL0     C16291   6.847   2.218   2.421  0.3701 -0.0206  0.3582
  124MOL0     C16292   6.980   2.220   2.380  0.3210 -0.3602  0.7062
  124MOL0     C16293   7.037   2.329   2.302  0.4645  1.0685 -0.2780
  124MOL0     O16294   7.166   2.318   2.250 -0.2117  0.2390  0.3820
  124MOL0     C16295   7.247   2.434   2.246 -1.2506 -0.3299 -0.3176
  124MOL0     C16296   7.261   2.513   2.383  0.3112 -0.0375 -0.4507
  124MOL0     C16297   7.333   2.432   2.503  0.2016  0.2102  0.6115
  124MOL0     C16298   7.274   2.464   2.641 -0.2198  0.7872  0.2531
  124MOL0     C16299   7.133   2.416   2.640  0.1612  0.2103 -0.8071
  124MOL0     C16300   7.020   2.376   2.660  0.2338 -0.8300 -0.0311
  124MOL0     C16301   6.955   2.447   2.279  0.9161  0.3469  0.3089
  124MOL0     C16302   6.819   2.449   2.329  0.2793  0.1399  0.7221
  124MOL0     H16303   6.446   2.089   2.295 -1.4031 -1.6361 -0.4151
  124MOL0     H16304   6.206   2.051   2.263  0.8705 -0.7847 -0.2786
  124MOL0     H16305   5.932   2.247   2.378  0.4912 -1.3620 -0.4711
  124MOL0     H16306   5.954   2.255   2.556  0.8953 -0.7255  1.1911
  124MOL0     H16307   5.712   2.194   2.526 -1.6796 -0.8522 -1.9050
  124MOL0     H16308   5.806   2.062   2.582  1.9209 -1.6655 -0.9928
  124MOL0     H16309   5.831   1.954   2.380  0.0297 -0.4209  1.0048
  124MOL0     H16310   5.723   2.069   2.287 -0.4589 -1.6741 -0.6516
  124MOL0     H16311   5.551   2.009   2.462  1.4303  2.1202  0.7396
  124MOL0     H16312   5.598   1.906   2.323  3.1380 -0.0174 -0.5808
  124MOL0     H16313   5.616   1.853   2.612 -0.5585 -2.5252  1.1504
  124MOL0     H16314   5.767   1.825   2.542 -0.1772  0.8759 -1.0587
  124MOL0     H16315   5.678   1.680   2.367  0.8805 -2.1154  1.5409
  124MOL0     H16316   5.510   1.702   2.413  1.9038  0.3216 -3.4999
  124MOL0     H16317   5.727   1.608   2.599 -0.2433  0.7962 -0.0742
  124MOL0     H16318   5.562   1.627   2.645 -0.5029  0.1916 -0.3994
  124MOL0     H16319   5.635   1.384   2.562 -0.9290 -0.0643  0.3642
  124MOL0     H16320   5.636   1.448   2.395 -3.1140 -1.5676 -0.7540
  124MOL0     H16321   5.436   1.261   2.335 -2.2823 -0.1533  0.1307
  124MOL0     H16322   5.212   1.237   2.213 -1.9733 -1.9250  1.4236
  124MOL0     H16323   5.120   1.388   2.202  2.6230  0.4722 -0.9830
  124MOL0     H16324   5.091   1.169   2.411 -1.3464 -0.9329 -0.2421
  124MOL0     H16325   4.978   1.187   2.274  1.3312 -3.4442  0.7958
  124MOL0     H16326   4.906   1.284   2.508 -0.2955  3.4943  1.4900
  124MOL0     H16327   5.028   1.388   2.507 -1.2683  1.0404  1.4366
  124MOL0     H16328   4.874   1.429   2.257  0.5260  0.0647  0.2187
  124MOL0     H16329   4.821   1.479   2.431 -0.6612  1.7864 -1.8475
  124MOL0     H16330   4.577   1.161   2.215  0.3833 -0.9647  2.0499
  124MOL0     H16331   4.343   1.221   2.185 -1.0592  3.6510 -3.3520
  124MOL0     H16332   4.012   1.625   2.107 -0.1912  0.7558  0.8115
  124MOL0     H16333   3.761   1.630   2.059  1.7693  0.9047 -0.5270
  124MOL0     H16334   3.610   1.528   1.882 -2.6392  0.7329 -1.7350
  124MOL0     H16335   3.446   1.464   1.925 -0.1580 -3.4517 -1.3484
  124MOL0     H16336   3.546   1.238   1.897  3.4221 -1.0237 -0.3594
  124MOL0     H16337   3.674   1.309   1.818  0.3745 -3.6305  2.0019
  124MOL0     H16338   3.485   1.448   1.664 -1.2628  0.0145 -1.3451
  124MOL0     H16339   3.379   1.324   1.726 -0.0618 -1.0363  0.2053
  124MOL0     H16340   3.644   1.264   1.579  0.5272  0.8154  0.2204
  124MOL0     H16341   3.528   1.138   1.627  3.4578 -0.0946 -0.2425
  124MOL0     H16342   3.502   1.208   1.402 -0.5204 -0.7877 -0.4499
  124MOL0     H16343   3.442   1.374   1.456 -1.1405 -1.2707 -1.3723
  124MOL0     H16344   3.257   1.255   1.575 -0.2965  0.0156 -0.1494
  124MOL0     H16345   3.323   1.099   1.510 -0.5903 -0.4584 -3.5694
  124MOL0     H16346   3.238   1.313   1.315 -0.4508 -0.8886 -1.4592
  124MOL0     H16347   3.308   1.151   1.303 -1.1788 -1.1274  0.2554
  124MOL0     H16348   3.033   1.248   1.360  0.3485  0.8264 -0.8248
  124MOL0     H16349   3.082   1.086   1.438  0.7564 -4.5071 -3.9730
  124MOL0     H16350   3.731   1.221   2.120  0.9314  0.1499  1.2245
  124MOL0     H16351   3.983   1.202   2.150  0.7211  0.7639  0.4956
  124MOL0     H16352   4.435   1.617   2.360  2.7563 -0.4097  2.8143
  124MOL0     H16353   4.634   1.561   2.401 -1.3682  0.0969  0.6245
  124MOL0     H16354   6.150   2.163   2.668 -0.7910  0.7819 -0.2407
  124MOL0     H16355   6.380   2.239   2.693 -2.3705  2.6595  0.2209
  124MOL0     H16356   6.823   2.124   2.469 -0.9369 -0.6223 -1.4027
  124MOL0     H16357   7.051   2.141   2.403  1.1859  0.7113  1.8770
  124MOL0     H16358   7.202   2.516   2.189  0.0483  1.3785  1.0010
  124MOL0     H16359   7.348   2.403   2.219 -0.7916  2.2947 -1.9518
  124MOL0     H16360   7.307   2.612   2.379  1.6740 -0.4674  2.1503
  124MOL0     H16361   7.162   2.553   2.407  1.2963  1.1515  2.0633
  124MOL0     H16362   7.439   2.455   2.495  0.1815 -0.2369 -1.9092
  124MOL0     H16363   7.322   2.328   2.470 -0.1584  0.4631 -0.0975
  124MOL0     H16364   7.327   2.391   2.704 -1.9834 -0.9933 -0.2100
  124MOL0     H16365   7.286   2.569   2.668 -1.3517  2.3247 -4.3028
  124MOL0     H16366   6.920   2.338   2.666 -0.5334  0.5890 -2.5768
  124MOL0     H16367   6.999   2.538   2.239 -0.0135  0.8079  0.3172
  124MOL0     H16368   6.755   2.535   2.313 -0.3316 -0.3777  0.3160
  125MOL0     O16369   1.432   2.894   0.116  0.5022  0.5624  0.5649
  125MOL0     C16370   1.499   2.833   0.200 -0.7046 -0.1939 -0.1708
  125MOL0     O16371   1.468   2.812   0.327 -0.4977  0.2238  0.0937
  125MOL0     C16372   1.338   2.804   0.374  0.5283  0.9726  1.4150
  125MOL0     C16373   1.213   2.801   0.307 -0.1152  0.5400 -0.0540
  125MOL0     C16374   1.089   2.793   0.378  0.4755 -0.4231  0.7631
  125MOL0     C16375   1.084   2.787   0.512  0.2767  0.0524  0.2812
  125MOL0     O16376   0.966   2.803   0.582 -1.0238 -0.1634  0.3889
  125MOL0     C16377   0.957   2.758   0.713  0.3894  0.2703  0.5040
  125MOL0     C16378   0.811   2.750   0.738  0.5748  0.9987 -0.6261
  125MOL0     C16379   0.778   2.711   0.883  0.2125  0.0575  0.3261
  125MOL0     C16380   0.644   2.645   0.894  0.9686  0.7391  0.6188
  125MOL0     C16381   0.623   2.593   1.035  0.0090 -0.1262  0.0897
  125MOL0     C16382   0.494   2.525   1.051  0.4365  0.4605 -0.0005
  125MOL0     C16383   0.460   2.450   1.177  0.2382  0.2180  0.1765
  125MOL0     C16384   0.413   2.545   1.298  0.1562  0.0687 -0.7609
  125MOL0     N16385   0.351   2.461   1.412 -0.2228 -0.7142  0.4627
  125MOL0     C16386   0.221   2.421   1.417 -0.4627  0.3298  0.0436
  125MOL0     C16387   0.210   2.366   1.543 -0.1120 -0.0109 -0.2335
  125MOL0     C16388   0.087   2.290   1.595  0.1866 -0.2943  0.5768
  125MOL0     C16389  -0.047   2.363   1.550 -0.0453 -0.3117  0.4905
  125MOL0     C16390  -0.089   2.494   1.628  0.2259  0.8801 -1.2525
  125MOL0     C16391  -0.191   2.559   1.535 -0.3186  0.2328 -0.0798
  125MOL0     O16392  -0.286   2.635   1.598  0.7316  0.3289 -0.1662
  125MOL0     C16393  -0.406   2.578   1.635 -0.0366  0.0509 -0.3319
  125MOL0     C16394  -0.417   2.444   1.667  0.3713 -0.0805  0.7181
  125MOL0     C16395  -0.541   2.394   1.707 -0.6752  0.3652  0.4520
  125MOL0     C16396  -0.646   2.485   1.735 -0.3427 -0.2854  0.0830
  125MOL0     C16397  -0.785   2.440   1.772 -0.7364 -0.6967  0.7227
  125MOL0     O16398  -0.880   2.542   1.786 -0.2486 -0.7998  0.4749
  125MOL0     C16399  -1.009   2.524   1.822 -0.2513  0.3567  0.2325
  125MOL0     C16400  -1.063   2.410   1.886 -0.5425  1.0800 -0.4391
  125MOL0     C16401  -1.199   2.410   1.933 -0.9589 -0.3936 -0.7643
  125MOL0     C16402  -1.286   2.512   1.906  0.5403  0.3572 -0.3535
  125MOL0     O16403  -1.417   2.512   1.946  0.0727 -0.0681 -0.0366
  125MOL0     C16404  -1.462   2.396   2.017  0.4015 -0.6179 -0.7590
  125MOL0     C16405  -1.613   2.405   2.044 -0.0341 -0.2492  0.9167
  125MOL0     C16406  -1.659   2.277   2.123 -0.7922  0.4739  0.3895
  125MOL0     C16407  -1.802   2.290   2.175 -0.2276  0.1165  0.4224
  125MOL0     C16408  -1.836   2.165   2.245  0.3564 -0.2208  0.8241
  125MOL0     C16409  -1.962   2.180   2.333  0.3216  0.4996  0.4305
  125MOL0     C16410  -1.989   2.063   2.430  0.2646  0.5186  0.1203
  125MOL0     C16411  -2.099   2.090   2.534  0.1864 -0.0100  0.0731
  125MOL0    Cl16412  -2.043   2.219   2.652 -0.1491  0.0293  0.1523
  125MOL0     C16413  -1.230   2.618   1.835 -0.0557  0.6464  0.0215
  125MOL0     C16414  -1.098   2.633   1.802 -0.4557  0.0116  0.4025
  125MOL0     O16415  -0.802   2.321   1.789  0.1565  0.1355  0.6987
  125MOL0     C16416  -0.625   2.626   1.716 -0.5514  0.3549  0.3967
  125MOL0     C16417  -0.510   2.668   1.649  0.3295  0.6222  0.4644
  125MOL0     N16418   0.338   2.365   1.599 -0.7426  0.5089  0.1544
  125MOL0     N16419   0.416   2.424   1.518 -0.1342 -0.1528  0.8917
  125MOL0     C16420   1.211   2.776   0.577  0.0865 -0.0173 -0.5283
  125MOL0     C16421   1.328   2.784   0.509 -0.0194 -0.2232 -0.4173
  125MOL0     C16422   1.630   2.780   0.159  0.5440  0.1385 -0.0191
  125MOL0     C16423   1.722   2.727   0.250 -0.0027 -1.0459  0.2386
  125MOL0     C16424   1.845   2.681   0.195 -0.2965 -0.2763  0.4145
  125MOL0     C16425   1.887   2.685   0.064 -0.7140 -0.7484  0.1026
  125MOL0     O16426   2.014   2.657   0.012  0.8185  0.2400  0.5224
  125MOL0     C16427   2.127   2.643   0.100 -0.3207 -0.0881 -0.4111
  125MOL0     C16428   2.254   2.689   0.029 -0.2640 -0.2918 -0.7479
  125MOL0     C16429   2.273   2.625  -0.109 -0.4987  0.6977  0.1156
  125MOL0     C16430   2.409   2.669  -0.169  0.4042 -0.3701 -0.0329
  125MOL0     C16431   2.514   2.576  -0.129  0.5488 -0.7314  0.2212
  125MOL0     C16432   2.604   2.507  -0.104 -0.7066  0.1998  0.5771
  125MOL0     C16433   1.791   2.743  -0.021  0.7092  0.1688  0.1538
  125MOL0     C16434   1.666   2.790   0.024  0.4666  0.5340 -0.3184
  125MOL0     H16435   1.213   2.823   0.201  1.3719 -0.7172 -0.3530
  125MOL0     H16436   0.999   2.806   0.319  1.6122  0.8558 -0.7910
  125MOL0     H16437   1.000   2.841   0.770 -2.1384  1.6133  0.6116
  125MOL0     H16438   1.010   2.665   0.730 -1.7682 -0.9437  0.9586
  125MOL0     H16439   0.778   2.672   0.669  0.0492  1.6316 -1.0986
  125MOL0     H16440   0.757   2.842   0.716  0.1086  0.9937  0.4560
  125MOL0     H16441   0.775   2.795   0.954  2.2928 -0.6528  1.3387
  125MOL0     H16442   0.846   2.634   0.921  2.4845  1.4495 -0.7058
  125MOL0     H16443   0.577   2.728   0.870  2.3715  1.4825 -0.9651
  125MOL0     H16444   0.631   2.563   0.824 -0.4056  0.1334  1.5434
  125MOL0     H16445   0.629   2.671   1.110  1.0258 -1.3358  1.3178
  125MOL0     H16446   0.703   2.526   1.069 -0.3788 -0.3379  0.5977
  125MOL0     H16447   0.492   2.451   0.970  0.0642 -0.0071  0.4288
  125MOL0     H16448   0.425   2.606   1.023  1.0713  1.7342  1.9327
  125MOL0     H16449   0.397   2.362   1.161  4.1304 -2.2146 -3.7659
  125MOL0     H16450   0.552   2.398   1.208  1.4030  2.4991  0.7338
  125MOL0     H16451   0.342   2.621   1.265 -1.0324  0.2768  1.9943
  125MOL0     H16452   0.504   2.594   1.333 -1.7646  3.7190 -0.3637
  125MOL0     H16453   0.143   2.430   1.342 -0.5303 -0.0666  0.0667
  125MOL0     H16454   0.085   2.283   1.704  0.4262  0.8996  0.6652
  125MOL0     H16455   0.097   2.191   1.549  2.6244  1.5237 -3.2728
  125MOL0     H16456  -0.131   2.293   1.555 -0.2479 -0.0109  1.6432
  125MOL0     H16457  -0.030   2.394   1.447 -0.1934  2.0657  1.1315
  125MOL0     H16458  -0.133   2.469   1.725  3.1816 -4.5400 -0.9008
  125MOL0     H16459   0.002   2.552   1.648  0.0131  0.1633  2.6691
  125MOL0     H16460  -0.241   2.485   1.472  3.2015 -0.6909 -2.0696
  125MOL0     H16461  -0.140   2.634   1.474 -4.1187  3.2571  0.0506
  125MOL0     H16462  -0.337   2.370   1.664  0.1346 -0.3104 -1.5042
  125MOL0     H16463  -0.559   2.288   1.713  0.5886 -0.0916 -2.2578
  125MOL0     H16464  -1.007   2.321   1.913 -4.0047 -1.3930 -0.7757
  125MOL0     H16465  -1.246   2.333   1.994 -1.5967  1.0821  0.7105
  125MOL0     H16466  -1.410   2.386   2.113 -2.1589 -1.3269  0.6696
  125MOL0     H16467  -1.449   2.307   1.955  0.4131 -2.6183  1.9465
  125MOL0     H16468  -1.662   2.422   1.948 -0.4461  1.7653  1.4556
  125MOL0     H16469  -1.638   2.492   2.105 -1.3294  0.5947 -0.7394
  125MOL0     H16470  -1.601   2.259   2.214  0.7285  2.5459 -0.1110
  125MOL0     H16471  -1.640   2.182   2.072 -0.0828  0.8426 -0.0407
  125MOL0     H16472  -1.811   2.375   2.243  0.6689  0.4447  0.1388
  125MOL0     H16473  -1.866   2.319   2.092  1.0962  4.3429  0.6695
  125MOL0     H16474  -1.755   2.126   2.307  1.5515  0.3998 -0.2985
  125MOL0     H16475  -1.847   2.082   2.174  2.1445  1.9155 -2.2013
  125MOL0     H16476  -2.053   2.194   2.274 -1.7113 -1.8086  2.7940
  125MOL0     H16477  -1.946   2.270   2.394  1.1589  0.5782  0.1127
  125MOL0     H16478  -2.016   1.976   2.370  1.9229  0.3442 -0.4465
  125MOL0     H16479  -1.896   2.043   2.485 -0.1042 -2.0288 -0.0669
  125MOL0     H16480  -2.119   2.006   2.600 -0.4287  1.9124  2.4995
  125MOL0     H16481  -2.193   2.113   2.482 -0.9604 -3.3970  0.4328
  125MOL0     H16482  -1.291   2.703   1.805  0.6821  1.4456  0.6985
  125MOL0     H16483  -1.045   2.719   1.762 -1.2637  1.3824  2.1489
  125MOL0     H16484  -0.698   2.698   1.751 -1.7716 -1.1243  1.0654
  125MOL0     H16485  -0.490   2.773   1.625  0.8985  0.0826 -1.6681
  125MOL0     H16486   1.206   2.772   0.686 -1.7740  2.0647 -0.4489
  125MOL0     H16487   1.416   2.747   0.561 -0.4561 -3.1372 -1.5442
  125MOL0     H16488   1.699   2.732   0.356  2.0335  1.6269  0.6712
  125MOL0     H16489   1.919   2.657   0.270 -0.8271  1.9477  1.7280
  125MOL0     H16490   2.141   2.543   0.142  3.2003  0.0164 -0.9984
  125MOL0     H16491   2.118   2.707   0.188 -0.7669 -2.4422  1.3428
  125MOL0     H16492   2.246   2.797   0.013  0.8354 -0.2290 -0.9373
  125MOL0     H16493   2.336   2.666   0.098 -0.1266  0.6813 -0.5799
  125MOL0     H16494   2.195   2.660  -0.178  0.1887  0.4500 -0.8213
  125MOL0     H16495   2.278   2.516  -0.110  2.6970  0.6979  1.9331
  125MOL0     H16496   2.383   2.659  -0.275 -0.8660  1.1084  0.0963
  125MOL0     H16497   2.443   2.773  -0.162  2.7856 -1.0157 -0.8853
  125MOL0     H16498   2.683   2.439  -0.075  0.4279  0.0239 -2.4922
  125MOL0     H16499   1.803   2.744  -0.129 -1.9029  1.5426 -0.1938
  125MOL0     H16500   1.596   2.825  -0.051 -0.0528  0.9250  0.3402
  126MOL0     O16501   1.917   3.973  10.408 -0.0468  0.5777  0.7349
  126MOL0     C16502   1.948   3.916  10.511 -0.9007  0.4549 -0.6304
  126MOL0     O16503   1.860   3.850  10.598 -0.0362 -0.0965 -0.2659
  126MOL0     C16504   1.732   3.891  10.585  0.5601  0.7918  0.6971
  126MOL0     C16505   1.657   3.923  10.694  0.9084 -0.4321 -0.0807
  126MOL0     C16506   1.518   3.946  10.692  0.1691 -0.2819 -0.1677
  126MOL0     C16507   1.437   3.931  10.583 -1.2461  0.0058 -0.0538
  126MOL0     O16508   1.300   3.931  10.597  0.1553 -0.4526 -0.0968
  126MOL0     C16509   1.224   3.925  10.479  0.3317 -0.8090  0.4527
  126MOL0     C16510   1.076   3.939  10.520 -0.4654  0.3135  0.4300
  126MOL0     C16511   1.001   4.025  10.421  0.0361 -0.2308 -0.4904
  126MOL0     C16512   0.869   4.072  10.483 -0.8782 -0.5670  0.9640
  126MOL0     C16513   0.788   4.149  10.384 -0.0536  0.5811 -0.3093
  126MOL0     C16514   0.669   4.065  10.334 -0.8563 -0.0488 -0.6783
  126MOL0     C16515   0.584   4.154  10.244 -0.1129 -0.0672  0.5873
  126MOL0     C16516   0.450   4.092  10.192  0.7250  0.1319  0.3774
  126MOL0     N16517   0.369   4.031  10.301  0.0446 -0.2102 -0.1266
  126MOL0     C16518   0.289   4.098  10.390  0.5908 -0.3927 -0.7542
  126MOL0     C16519   0.201   4.008  10.442 -0.4796  0.5790  0.6339
  126MOL0     C16520   0.086   4.017  10.533  0.6702  0.4560  0.3445
  126MOL0     C16521  -0.022   4.102  10.464 -1.2566  0.3082  0.8475
  126MOL0     C16522  -0.137   4.122  10.565  0.5110 -0.8352  0.5289
  126MOL0     C16523  -0.268   4.143  10.485  0.0261  0.4594  0.2588
  126MOL0     O16524  -0.354   4.231  10.560  0.4292  0.2787  1.0716
  126MOL0     C16525  -0.484   4.249  10.523 -0.2989 -0.5290 -0.5182
  126MOL0     C16526  -0.552   4.194  10.406 -0.3165 -0.5889  0.4692
  126MOL0     C16527  -0.681   4.222  10.394 -0.4096  0.5154 -0.5249
  126MOL0     C16528  -0.754   4.290  10.487  1.0761 -0.6836 -0.3986
  126MOL0     C16529  -0.895   4.329  10.454  0.7113 -0.5086  0.3626
  126MOL0     O16530  -0.959   4.243  10.372 -0.2467 -0.1474  0.4414
  126MOL0     C16531  -1.097   4.250  10.347  0.5202  0.5119  0.6227
  126MOL0     C16532  -1.144   4.228  10.221  0.2261  0.6582 -0.2996
  126MOL0     C16533  -1.280   4.247  10.191  0.1586 -0.0970  0.0751
  126MOL0     C16534  -1.372   4.300  10.290 -0.1189  0.9735 -0.1054
  126MOL0     O16535  -1.497   4.333  10.246  0.3185  0.6687  0.7483
  126MOL0     C16536  -1.590   4.384  10.339  0.1688  0.1261  0.5919
  126MOL0     C16537  -1.727   4.406  10.272  0.0532 -1.0605  0.1214
  126MOL0     C16538  -1.851   4.430  10.364 -0.3698 -0.5703  0.2143
  126MOL0     C16539  -1.978   4.478  10.284  0.0259  0.3695 -0.1864
  126MOL0     C16540  -2.100   4.492  10.373 -0.0621  0.1509 -0.1664
  126MOL0     C16541  -2.209   4.586  10.322 -0.0853 -0.2040 -0.3348
  126MOL0     C16542  -2.264   4.558  10.175 -0.4080 -0.7004 -0.6744
  126MOL0     C16543  -2.372   4.451  10.181  0.4986 -0.3880 -0.1992
  126MOL0    Cl16544  -2.543   4.509  10.225  0.4586  0.2306 -0.3923
  126MOL0     C16545  -1.321   4.301  10.418  0.4598 -0.3428  0.4410
  126MOL0     C16546  -1.189   4.285  10.448 -0.7434 -0.1427 -0.1337
  126MOL0     O16547  -0.949   4.433  10.496 -0.0732  0.7703  0.0619
  126MOL0     C16548  -0.699   4.346  10.599 -0.5528 -1.0373  0.0373
  126MOL0     C16549  -0.559   4.322  10.618  0.2634 -0.6065 -0.3258
  126MOL0     N16550   0.244   3.883  10.403  0.6047  0.0412  0.1751
  126MOL0     N16551   0.343   3.895  10.318 -0.8597 -0.2156 -0.2082
  126MOL0     C16552   1.513   3.882  10.469  0.5704  0.6151 -0.9775
  126MOL0     C16553   1.650   3.854  10.471 -0.7135 -0.3775  0.1245
  126MOL0     C16554   2.094   3.932  10.542  0.3439 -0.5109  0.1075
  126MOL0     C16555   2.170   3.825  10.594  0.2338 -0.5472 -0.0894
  126MOL0     C16556   2.307   3.834  10.614 -0.5472  0.3612 -0.2099
  126MOL0     C16557   2.368   3.965  10.614  0.6047 -0.7206  0.3135
  126MOL0     O16558   2.499   3.975  10.651  0.2951 -0.7136  0.3574
  126MOL0     C16559   2.562   4.108  10.681  1.1630 -0.0363  0.4935
  126MOL0     C16560   2.718   4.095  10.707 -0.2169  0.6585 -0.3489
  126MOL0     C16561   2.806   4.055  10.588 -0.4530 -0.1051 -0.0600
  126MOL0     C16562   2.951   4.060  10.633  0.9251 -0.9598  0.0496
  126MOL0     C16563   3.039   4.047  10.521 -0.3870  0.1558 -1.0232
  126MOL0     C16564   3.124   4.048  10.429  0.3093 -0.3965 -0.4834
  126MOL0     C16565   2.292   4.066  10.551 -0.0914  0.5527 -0.6119
  126MOL0     C16566   2.157   4.049  10.512 -0.7188  0.4505 -1.1894
  126MOL0     H16567   1.710   3.935  10.787  1.0684  2.5399 -0.4613
  126MOL0     H16568   1.473   3.985  10.782 -0.3503 -0.4121 -0.3655
  126MOL0     H16569   1.233   3.839  10.413  1.5418 -0.3562 -0.0024
  126MOL0     H16570   1.252   4.016  10.425  0.4771 -1.1014  0.0382
  126MOL0     H16571   1.076   3.990  10.618  0.7822 -2.7210  2.1543
  126MOL0     H16572   1.036   3.842  10.548 -1.1506  0.1023 -1.2179
  126MOL0     H16573   0.983   3.964  10.331  0.3593 -1.8448  0.5056
  126MOL0     H16574   1.051   4.115  10.385 -1.0581  0.0777 -1.2914
  126MOL0     H16575   0.815   3.983  10.519 -3.7206  1.4910  2.1940
  126MOL0     H16576   0.887   4.133  10.573  1.0559 -0.9881  0.9134
  126MOL0     H16577   0.841   4.194  10.299  1.1906  0.8427  0.5824
  126MOL0     H16578   0.744   4.232  10.439 -2.9451 -3.1431  3.7057
  126MOL0     H16579   0.607   4.044  10.421  2.3313 -0.5171  1.6414
  126MOL0     H16580   0.702   3.974  10.281  0.3306  1.1374 -2.0902
  126MOL0     H16581   0.563   4.252  10.287  0.4655  0.4675 -0.3248
  126MOL0     H16582   0.656   4.181  10.167 -0.5501  0.5276  0.3773
  126MOL0     H16583   0.479   4.006  10.131  2.7520  1.6246 -0.8883
  126MOL0     H16584   0.390   4.161  10.131  3.3328 -0.2498 -2.9522
  126MOL0     H16585   0.287   4.206  10.399 -2.6043 -0.5008  1.0133
  126MOL0     H16586   0.129   4.065  10.621  1.8062 -1.9687  1.1924
  126MOL0     H16587   0.035   3.926  10.565 -1.9952  2.0001  0.7241
  126MOL0     H16588  -0.051   4.059  10.368  3.5103  0.8048 -1.0766
  126MOL0     H16589   0.014   4.203  10.443 -1.2163  0.6710  2.5124
  126MOL0     H16590  -0.153   4.036  10.631  1.7886 -3.7807 -2.6522
  126MOL0     H16591  -0.117   4.208  10.629  2.2224 -3.1290  3.3317
  126MOL0     H16592  -0.313   4.046  10.463  0.7194  0.6250 -2.1377
  126MOL0     H16593  -0.237   4.199  10.396  0.9800  0.6900  0.7292
  126MOL0     H16594  -0.491   4.155  10.326 -0.5008 -2.8476  1.3680
  126MOL0     H16595  -0.738   4.197  10.305 -2.6176  1.2255  0.6297
  126MOL0     H16596  -1.075   4.196  10.144 -0.4034 -0.5687 -0.3765
  126MOL0     H16597  -1.333   4.235  10.097  1.1998 -3.2855 -0.2232
  126MOL0     H16598  -1.548   4.477  10.378 -0.8816 -0.3404  3.0239
  126MOL0     H16599  -1.602   4.324  10.430  1.8462  0.1465  0.8605
  126MOL0     H16600  -1.756   4.322  10.208  2.6354 -1.4528 -0.6686
  126MOL0     H16601  -1.707   4.492  10.208  2.8906 -1.6493  0.0989
  126MOL0     H16602  -1.825   4.513  10.431 -0.1228  1.0380 -1.7619
  126MOL0     H16603  -1.871   4.342  10.426 -1.5976 -1.3876 -1.2926
  126MOL0     H16604  -1.950   4.577  10.246  1.8874  0.3798  1.0662
  126MOL0     H16605  -1.989   4.411  10.198  1.9144  0.0418 -0.2214
  126MOL0     H16606  -2.079   4.522  10.476  1.7412  1.9790 -0.9666
  126MOL0     H16607  -2.136   4.390  10.382  0.0671  0.2904  3.9006
  126MOL0     H16608  -2.175   4.688  10.338 -2.2735  0.6569 -0.8388
  126MOL0     H16609  -2.293   4.570  10.390  0.9519  2.5027  1.7699
  126MOL0     H16610  -2.299   4.648  10.124 -0.1903  0.0797  0.5165
  126MOL0     H16611  -2.175   4.524  10.122  1.6265  2.8829  0.1575
  126MOL0     H16612  -2.345   4.364  10.243 -3.1529 -3.8848 -2.9884
  126MOL0     H16613  -2.387   4.395  10.088  1.1230 -1.0680  0.0930
  126MOL0     H16614  -1.385   4.329  10.501  0.5970 -1.2411  0.8588
  126MOL0     H16615  -1.153   4.309  10.548  0.3182 -4.6768  0.8121
  126MOL0     H16616  -0.762   4.404  10.665  0.5825 -1.4460  1.5243
  126MOL0     H16617  -0.522   4.358  10.713 -0.7261 -0.6603  0.0922
  126MOL0     H16618   1.450   3.849  10.387  0.3084 -2.6135  0.3502
  126MOL0     H16619   1.686   3.810  10.378  0.1832  2.5231 -1.0194
  126MOL0     H16620   2.118   3.730  10.595 -0.0138 -0.4161 -0.2792
  126MOL0     H16621   2.369   3.750  10.643 -0.6934  0.7440  1.2681
  126MOL0     H16622   2.510   4.147  10.768 -1.8118 -0.7986 -0.8166
  126MOL0     H16623   2.539   4.181  10.603  2.4963  2.0260  1.9307
  126MOL0     H16624   2.744   4.192  10.749  0.9152  1.0796 -1.9546
  126MOL0     H16625   2.733   4.025  10.790 -1.6469 -1.8205 -2.0654
  126MOL0     H16626   2.788   4.113  10.497 -1.7793 -2.6044 -1.4904
  126MOL0     H16627   2.773   3.957  10.553 -2.5115 -1.0056  3.8063
  126MOL0     H16628   2.972   4.153  10.686 -2.1142  0.1671 -0.4994
  126MOL0     H16629   2.981   3.976  10.695  6.3250 -0.4407 -1.3952
  126MOL0     H16630   3.191   4.055  10.345  1.7893 -1.9863  0.4945
  126MOL0     H16631   2.342   4.163  10.551  1.1885 -0.0577  1.0355
  126MOL0     H16632   2.096   4.134  10.481  0.6183  1.5088 -1.0231
  127MOL0     O16633   1.081  10.429   2.581  0.2075 -0.0751  0.0963
  127MOL0     C16634   1.113  10.325   2.638  0.1702  0.4679 -0.6160
  127MOL0     O16635   1.026  10.227   2.696  0.3006  0.2396  0.0475
  127MOL0     C16636   0.889  10.220   2.660 -0.0267 -0.6089  0.2892
  127MOL0     C16637   0.821  10.117   2.725  0.0679 -0.4111 -0.2605
  127MOL0     C16638   0.685  10.089   2.705 -0.0639 -1.0129  0.8280
  127MOL0     C16639   0.614  10.182   2.624 -0.1660  0.4873  0.1342
  127MOL0     O16640   0.480  10.182   2.595 -0.7853  0.4726  0.0516
  127MOL0     C16641   0.417  10.061   2.549 -0.5633 -0.2866  0.8443
  127MOL0     C16642   0.288  10.095   2.481  0.2155 -0.0241 -0.0280
  127MOL0     C16643   0.171  10.004   2.530 -0.6821 -0.7247 -0.2043
  127MOL0     C16644   0.121  10.043   2.667  0.1505  0.3769 -0.4679
  127MOL0     C16645   0.036  10.173   2.670  0.2094 -0.0127  0.1058
  127MOL0     C16646  -0.094  10.164   2.585 -0.3262 -0.1522  0.0847
  127MOL0     C16647  -0.179  10.299   2.605  0.2017  0.0899  0.0702
  127MOL0     C16648  -0.296  10.279   2.693  0.4104 -0.0848  0.6302
  127MOL0     N16649  -0.424  10.241   2.629 -0.2207  0.5898 -0.4397
  127MOL0     C16650  -0.477  10.304   2.524 -0.1117  0.6462 -0.5470
  127MOL0     C16651  -0.606  10.267   2.521 -0.2087 -0.3495 -1.0964
  127MOL0     C16652  -0.725  10.324   2.439  0.1422  0.0881  0.6279
  127MOL0     C16653  -0.794  10.209   2.357 -0.3104  0.1832  0.6065
  127MOL0     C16654  -0.724  10.208   2.221 -0.2958 -1.1701 -0.6175
  127MOL0     C16655  -0.572  10.214   2.212  0.2270  0.8470 -0.0950
  127MOL0     O16656  -0.517  10.346   2.200  0.2430 -0.4729 -0.3452
  127MOL0     C16657  -0.377  10.356   2.203 -0.0091 -0.5547  0.1844
  127MOL0     C16658  -0.287  10.249   2.176  1.1047 -0.3396 -0.2429
  127MOL0     C16659  -0.146  10.266   2.170 -0.1600 -0.9110  0.3876
  127MOL0     C16660  -0.082  10.398   2.203 -0.7476 -0.2401 -0.3344
  127MOL0     C16661   0.061  10.421   2.198 -1.0452 -0.2134  0.4658
  127MOL0     O16662   0.133  10.311   2.172  0.7264  0.4843 -0.7232
  127MOL0     C16663   0.266  10.324   2.145  0.7784  0.4400 -0.4596
  127MOL0     C16664   0.301  10.325   2.011  0.2021 -0.0107  0.5103
  127MOL0     C16665   0.437  10.350   1.980  0.6003 -0.1812 -0.2777
  127MOL0     C16666   0.528  10.363   2.072 -0.1219  0.2791 -0.2338
  127MOL0     O16667   0.659  10.376   2.023 -0.4254  0.6006 -0.3209
  127MOL0     C16668   0.761  10.302   2.093  0.4245 -0.1325  0.0073
  127MOL0     C16669   0.861  10.397   2.170 -0.3330  0.1480  0.3423
  127MOL0     C16670   0.971  10.316   2.246 -0.2371  0.3995  0.5188
  127MOL0     C16671   1.050  10.216   2.163  0.1353 -0.4021  0.5068
  127MOL0     C16672   1.167  10.157   2.243 -0.3390  0.2661  0.7843
  127MOL0     C16673   1.253  10.065   2.152 -0.1704  0.4615 -0.5078
  127MOL0     C16674   1.356  10.138   2.060  0.1846 -0.9372  0.4253
  127MOL0     C16675   1.440  10.016   2.014 -0.3713  0.0974  0.3941
  127MOL0    Cl16676   1.585  10.084   1.931 -0.0771  0.4191 -0.3589
  127MOL0     C16677   0.499  10.369   2.209  0.3025 -0.3024 -0.2809
  127MOL0     C16678   0.356  10.351   2.244  0.0482  0.3527 -0.0892
  127MOL0     O16679   0.107  10.534   2.213 -0.5227  0.3518 -0.0640
  127MOL0     C16680  -0.175  10.502   2.237 -0.1205 -0.2076  0.3363
  127MOL0     C16681  -0.318  10.477   2.248  0.7780 -0.4882  0.5034
  127MOL0     N16682  -0.631  10.176   2.621 -0.0877 -1.0013 -0.8389
  127MOL0     N16683  -0.515  10.156   2.681 -0.3670  0.0789  0.3888
  127MOL0     C16684   0.683  10.292   2.566 -0.4632 -1.2546  0.3895
  127MOL0     C16685   0.818  10.317   2.581  0.1495  1.6892  0.0289
  127MOL0     C16686   1.247  10.294   2.652 -0.4320  0.5158 -0.3301
  127MOL0     C16687   1.300  10.177   2.706 -1.0982 -0.2693 -0.2609
  127MOL0     C16688   1.433  10.148   2.718  0.3697  0.0321 -0.1787
  127MOL0     C16689   1.526  10.242   2.683  0.2104  0.0818  0.1863
  127MOL0     O16690   1.659  10.230   2.704  0.5435  0.3635 -0.8835
  127MOL0     C16691   1.724  10.104   2.745 -0.0640 -0.2047  0.2327
  127MOL0     C16692   1.879  10.105   2.721  0.6192  0.0998 -0.1206
  127MOL0     C16693   1.973  10.183   2.821 -0.7563 -0.2298 -0.7614
  127MOL0     C16694   2.121  10.168   2.798  0.0964 -0.1396  0.1967
  127MOL0     C16695   2.211  10.254   2.880  0.4175  0.5345 -1.4433
  127MOL0     C16696   2.280  10.305   2.974  0.3730  0.0379 -0.4823
  127MOL0     C16697   1.482  10.363   2.620 -0.1772 -0.2669  0.4868
  127MOL0     C16698   1.343  10.384   2.606  0.0413 -1.3043 -0.1065
  127MOL0     H16699   0.882  10.060   2.795  0.0178  3.7505  3.6391
  127MOL0     H16700   0.638  10.002   2.748 -1.6464 -1.4649 -1.6287
  127MOL0     H16701   0.401   9.985   2.627 -0.0565 -1.2051  0.0806
  127MOL0     H16702   0.478  10.007   2.476 -0.1427 -2.0478  2.3950
  127MOL0     H16703   0.297  10.083   2.372  1.6545  0.7847 -0.0168
  127MOL0     H16704   0.258  10.198   2.505 -1.7714  0.4183 -3.6793
  127MOL0     H16705   0.201   9.899   2.534 -1.5337 -0.9418  0.5800
  127MOL0     H16706   0.094  10.008   2.452 -1.5188  0.6304  0.6560
  127MOL0     H16707   0.046   9.966   2.684 -1.4698  1.6649 -1.5911
  127MOL0     H16708   0.205  10.049   2.738  0.5445  0.1195 -0.9040
  127MOL0     H16709   0.093  10.261   2.639 -4.9066  3.8886  0.4153
  127MOL0     H16710   0.011  10.191   2.774 -0.0372 -0.1845  0.0770
  127MOL0     H16711  -0.160  10.079   2.598 -1.3211  0.5800 -0.0634
  127MOL0     H16712  -0.069  10.178   2.479  0.2272 -2.0820 -0.0831
  127MOL0     H16713  -0.119  10.383   2.642 -2.6147  1.5844  1.5547
  127MOL0     H16714  -0.213  10.331   2.507  3.6778 -1.2548 -1.7675
  127MOL0     H16715  -0.315  10.368   2.754 -2.1014 -0.6913  0.8706
  127MOL0     H16716  -0.273  10.200   2.765 -2.5677 -2.1174 -0.4551
  127MOL0     H16717  -0.440  10.384   2.460 -1.1510  3.5753  2.2287
  127MOL0     H16718  -0.702  10.412   2.378 -1.7720  0.6837  0.6834
  127MOL0     H16719  -0.795  10.363   2.514  0.3462 -1.6675  1.8017
  127MOL0     H16720  -0.900  10.238   2.355  0.1191  1.8321  0.3781
  127MOL0     H16721  -0.781  10.116   2.412 -1.2770 -0.9362 -0.9887
  127MOL0     H16722  -0.766  10.124   2.165 -1.2930  0.4387 -2.4162
  127MOL0     H16723  -0.756  10.290   2.156  3.6820  0.0264 -1.3381
  127MOL0     H16724  -0.551  10.157   2.120 -1.8636 -0.9380  0.4430
  127MOL0     H16725  -0.532  10.150   2.291 -2.0660 -1.3326 -0.5291
  127MOL0     H16726  -0.329  10.155   2.142  0.1235 -0.7376  1.9308
  127MOL0     H16727  -0.069  10.191   2.152  1.0910  0.8505 -2.1603
  127MOL0     H16728   0.229  10.298   1.934 -1.3019  0.6957  1.6130
  127MOL0     H16729   0.468  10.337   1.877  1.6956  1.2109 -0.1431
  127MOL0     H16730   0.806  10.234   2.021  0.3914  0.2979 -0.4231
  127MOL0     H16731   0.716  10.233   2.166 -0.2248 -1.9401 -1.9919
  127MOL0     H16732   0.802  10.453   2.243  0.7937 -1.5736  2.6972
  127MOL0     H16733   0.897  10.462   2.090 -5.1683  0.0336 -2.3020
  127MOL0     H16734   0.909  10.257   2.314 -0.5432  0.4039  0.2440
  127MOL0     H16735   1.048  10.379   2.293 -0.1481  2.2313 -1.9103
  127MOL0     H16736   0.973  10.142   2.138 -0.5017  0.3658  0.1753
  127MOL0     H16737   1.100  10.249   2.072  3.4684 -2.2940  1.4708
  127MOL0     H16738   1.146  10.136   2.349  0.8654 -1.2777  0.7479
  127MOL0     H16739   1.228  10.247   2.257  1.8550 -0.8167 -1.1741
  127MOL0     H16740   1.189   9.998   2.095 -0.4469  1.6920 -1.7080
  127MOL0     H16741   1.306  10.006   2.227 -1.5193 -2.6267 -1.8139
  127MOL0     H16742   1.304  10.191   1.980  0.0114 -0.9898  0.5032
  127MOL0     H16743   1.425  10.207   2.108  1.3707 -1.5697 -0.3186
  127MOL0     H16744   1.380   9.954   1.948  1.8257 -1.1699 -0.5419
  127MOL0     H16745   1.468   9.946   2.094  1.0021  0.3949  0.2089
  127MOL0     H16746   0.578  10.386   2.282  0.5527 -0.0438 -0.6054
  127MOL0     H16747   0.333  10.357   2.350  0.1703 -2.3481  0.1608
  127MOL0     H16748  -0.138  10.597   2.273 -2.4083  1.4617 -1.4326
  127MOL0     H16749  -0.379  10.560   2.279 -0.8276 -2.5796  3.4226
  127MOL0     H16750   0.618  10.360   2.512 -1.1465 -2.3757 -0.2411
  127MOL0     H16751   0.857  10.408   2.536 -0.1477  1.8405  0.0765
  127MOL0     H16752   1.239  10.104   2.759  0.0902 -0.3750  1.0326
  127MOL0     H16753   1.456  10.048   2.753 -2.9497 -0.5029  0.8222
  127MOL0     H16754   1.679  10.021   2.690 -0.6090 -0.9398  1.7193
  127MOL0     H16755   1.712  10.079   2.851  2.0644 -4.1752 -0.3014
  127MOL0     H16756   1.924  10.006   2.706  2.6934  1.2719 -2.1977
  127MOL0     H16757   1.884  10.143   2.619 -1.0890 -1.2017 -0.7405
  127MOL0     H16758   1.957  10.165   2.927 -1.0032  3.1639 -0.0944
  127MOL0     H16759   1.944  10.289   2.814 -1.0165 -0.1502  1.0662
  127MOL0     H16760   2.160  10.067   2.811  2.6496  0.7030 -0.4875
  127MOL0     H16761   2.133  10.195   2.693  0.0375 -1.7621 -0.2582
  127MOL0     H16762   2.362  10.337   3.035  3.3826 -0.9788 -3.6726
  127MOL0     H16763   1.544  10.439   2.574 -0.7332  0.1816  0.4732
  127MOL0     H16764   1.321  10.481   2.565  0.3718 -1.1421  0.0914
  128MOL0     O16765   5.556   4.132   8.563 -0.9016 -0.7756 -0.5482
  128MOL0     C16766   5.585   4.159   8.447  0.1861 -0.5521 -1.4683
  128MOL0     O16767   5.531   4.109   8.337  0.0908 -0.1785  0.9346
  128MOL0     C16768   5.430   4.025   8.331  0.4739  0.6763  0.8734
  128MOL0     C16769   5.313   4.034   8.404  0.7209  0.7101  0.3413
  128MOL0     C16770   5.192   3.964   8.372  0.0740 -0.3255  0.2915
  128MOL0     C16771   5.209   3.853   8.290 -0.1527  0.3414 -0.6928
  128MOL0     O16772   5.095   3.787   8.243 -0.2612 -1.0514  0.2950
  128MOL0     C16773   5.015   3.708   8.337  0.3153 -0.0722 -0.3501
  128MOL0     C16774   5.083   3.580   8.368 -0.3111 -0.6012 -0.2783
  128MOL0     C16775   4.989   3.481   8.438  0.1891 -0.8558 -0.5201
  128MOL0     C16776   4.855   3.454   8.360  0.5902 -0.9583 -0.8394
  128MOL0     C16777   4.887   3.365   8.236 -0.3229 -0.0195  0.9680
  128MOL0     C16778   4.758   3.306   8.177 -0.1159  0.0710  0.2588
  128MOL0     C16779   4.786   3.211   8.061 -0.6175  0.5430 -0.8107
  128MOL0     C16780   4.665   3.137   8.015 -1.0786  0.1642 -0.1722
  128MOL0     N16781   4.548   3.223   8.008 -0.2295  0.4127  0.4988
  128MOL0     C16782   4.486   3.253   7.890 -0.3316 -0.4204  0.3466
  128MOL0     C16783   4.376   3.326   7.924 -0.6044 -0.7115  0.6228
  128MOL0     C16784   4.285   3.419   7.837  0.0016  0.3298  0.8653
  128MOL0     C16785   4.379   3.494   7.736 -0.4775  0.5358 -1.5697
  128MOL0     C16786   4.313   3.596   7.654  0.4343 -0.5048 -0.4209
  128MOL0     C16787   4.240   3.539   7.528 -0.3519  0.4457 -0.2883
  128MOL0     O16788   4.145   3.439   7.548  1.1041 -0.2573 -0.2075
  128MOL0     C16789   4.027   3.424   7.475 -0.5178 -0.3493  0.4981
  128MOL0     C16790   3.944   3.319   7.508 -0.2192 -0.2699  0.0972
  128MOL0     C16791   3.821   3.301   7.439  0.7043  0.3489  0.0185
  128MOL0     C16792   3.780   3.387   7.329  0.1688 -0.1792 -0.8122
  128MOL0     C16793   3.650   3.382   7.271 -0.4093 -1.1790  0.4329
  128MOL0     O16794   3.555   3.332   7.357 -0.0450 -0.3552 -0.0318
  128MOL0     C16795   3.437   3.324   7.298  0.1140  0.7521  0.8213
  128MOL0     C16796   3.409   3.240   7.190 -0.3891 -0.0916  0.0546
  128MOL0     C16797   3.280   3.245   7.128  0.1512 -1.1321 -0.1275
  128MOL0     C16798   3.187   3.339   7.173 -0.0702  0.1541 -0.2737
  128MOL0     O16799   3.069   3.343   7.104 -0.7754 -0.3496 -1.2453
  128MOL0     C16800   2.958   3.413   7.159 -0.1802  0.2107  0.9065
  128MOL0     C16801   2.823   3.380   7.093 -0.1187  0.6457  0.8127
  128MOL0     C16802   2.704   3.391   7.198 -0.0966  0.1966 -0.2446
  128MOL0     C16803   2.578   3.339   7.135  0.5213  0.2501 -0.2692
  128MOL0     C16804   2.447   3.395   7.200 -0.8375 -0.5025  0.0026
  128MOL0     C16805   2.430   3.340   7.347 -0.3832 -0.4115 -0.6254
  128MOL0     C16806   2.288   3.316   7.401 -0.1430  0.4336 -0.9018
  128MOL0     C16807   2.226   3.438   7.461  0.2391  0.3697  0.0452
  128MOL0    Cl16808   2.202   3.582   7.342 -0.3102 -0.3610 -0.0941
  128MOL0     C16809   3.226   3.428   7.274 -0.3933 -0.2151 -0.1068
  128MOL0     C16810   3.346   3.418   7.332 -0.0217  0.3899 -0.0438
  128MOL0     O16811   3.633   3.427   7.159 -0.8306 -0.0857 -0.0002
  128MOL0     C16812   3.876   3.483   7.289 -1.7429  0.2490  0.2658
  128MOL0     C16813   3.996   3.505   7.359  0.4858  0.1431  1.0918
  128MOL0     N16814   4.365   3.330   8.055 -0.8455  0.1447 -0.3325
  128MOL0     N16815   4.466   3.266   8.107  0.0402 -0.1418 -0.2071
  128MOL0     C16816   5.324   3.838   8.214 -0.0557  0.2622 -0.1186
  128MOL0     C16817   5.438   3.919   8.237  0.0524  0.6944 -0.5806
  128MOL0     C16818   5.681   4.266   8.422 -0.3301 -0.4704 -0.3533
  128MOL0     C16819   5.751   4.332   8.529 -0.9818 -0.0567 -0.0988
  128MOL0     C16820   5.841   4.447   8.503 -0.4145  0.2338  0.1733
  128MOL0     C16821   5.869   4.482   8.364 -0.0997 -0.0157 -0.1100
  128MOL0     O16822   5.957   4.578   8.319 -0.0745 -0.6553 -0.5641
  128MOL0     C16823   6.050   4.642   8.409  0.0446  0.0845  0.2300
  128MOL0     C16824   6.145   4.752   8.352  0.2069 -0.7810  0.0623
  128MOL0     C16825   6.073   4.884   8.309 -0.6564  0.2944  0.1891
  128MOL0     C16826   6.172   4.961   8.223 -0.3500 -0.4097 -0.7166
  128MOL0     C16827   6.280   5.015   8.297 -0.2573  0.1033 -1.0123
  128MOL0     C16828   6.381   5.042   8.353 -0.1126  0.1331 -1.7616
  128MOL0     C16829   5.800   4.409   8.266  0.0966  0.2487 -0.0714
  128MOL0     C16830   5.706   4.317   8.298 -0.5019 -0.5182  0.1875
  128MOL0     H16831   5.288   4.109   8.478 -1.8354 -2.9458  3.6282
  128MOL0     H16832   5.099   3.986   8.424  1.1683 -1.3423  2.8283
  128MOL0     H16833   4.923   3.693   8.280 -0.6844  2.4506  0.4381
  128MOL0     H16834   4.988   3.766   8.426 -0.0257  0.0592 -0.5385
  128MOL0     H16835   5.165   3.604   8.436 -1.5136 -3.0061  2.1940
  128MOL0     H16836   5.127   3.531   8.280  0.1046 -1.6082  0.4729
  128MOL0     H16837   4.967   3.528   8.534  1.5658 -1.3805  0.0897
  128MOL0     H16838   5.035   3.384   8.459 -0.7255 -1.6223 -1.9018
  128MOL0     H16839   4.799   3.395   8.432  0.2693  0.4574  0.1073
  128MOL0     H16840   4.795   3.544   8.339  0.0490 -1.0093  0.4474
  128MOL0     H16841   4.964   3.289   8.249  2.4998  2.5648  0.4797
  128MOL0     H16842   4.925   3.428   8.155  0.2986 -0.9268  0.5420
  128MOL0     H16843   4.695   3.395   8.165 -0.0218  0.3110  1.3583
  128MOL0     H16844   4.711   3.239   8.250 -0.4143 -2.0388 -1.7766
  128MOL0     H16845   4.825   3.275   7.981  0.4572  0.4620 -0.3581
  128MOL0     H16846   4.864   3.137   8.082  3.3368  3.9765 -2.1810
  128MOL0     H16847   4.648   3.054   8.084 -0.3736 -1.5812 -1.9980
  128MOL0     H16848   4.677   3.106   7.910  1.6734  0.2228  0.0407
  128MOL0     H16849   4.522   3.216   7.795  0.5797 -3.0680  1.6281
  128MOL0     H16850   4.233   3.492   7.900 -2.2459  0.1114 -0.6413
  128MOL0     H16851   4.224   3.351   7.778  1.7631  0.8892 -1.7685
  128MOL0     H16852   4.424   3.423   7.666 -0.0490  0.3713 -1.1297
  128MOL0     H16853   4.459   3.548   7.787 -2.3389  1.5267  0.4740
  128MOL0     H16854   4.251   3.651   7.726  0.6448 -0.6443 -0.1271
  128MOL0     H16855   4.390   3.660   7.611  1.1000  0.0191  1.4189
  128MOL0     H16856   4.307   3.498   7.453 -1.7404 -0.6913 -0.9556
  128MOL0     H16857   4.195   3.629   7.485  0.5387  1.0598  0.0383
  128MOL0     H16858   3.963   3.260   7.597  4.6473  2.0634  0.9581
  128MOL0     H16859   3.751   3.224   7.472  0.2404  0.3354 -0.9499
  128MOL0     H16860   3.479   3.161   7.165 -1.9672 -0.9120 -2.0214
  128MOL0     H16861   3.248   3.183   7.044 -0.7196  0.4969 -1.0720
  128MOL0     H16862   2.978   3.520   7.171 -0.6317  0.5120 -0.8428
  128MOL0     H16863   2.951   3.378   7.263 -0.6188  1.2377  1.2353
  128MOL0     H16864   2.819   3.278   7.055 -0.4281  0.4531  1.3524
  128MOL0     H16865   2.805   3.445   7.007 -2.2989  2.3696  2.4592
  128MOL0     H16866   2.699   3.499   7.217  1.3634  0.5143 -1.4706
  128MOL0     H16867   2.732   3.338   7.290  0.2735 -0.2922 -0.6387
  128MOL0     H16868   2.586   3.372   7.031 -3.2200  1.3722 -0.3373
  128MOL0     H16869   2.573   3.229   7.137  0.2918  0.2669  0.5237
  128MOL0     H16870   2.372   3.353   7.133  1.1976 -2.2161 -1.3485
  128MOL0     H16871   2.441   3.504   7.208  1.9511 -0.3608  1.6688
  128MOL0     H16872   2.491   3.400   7.415  0.0536 -1.1518 -0.3506
  128MOL0     H16873   2.471   3.239   7.353 -0.7656 -0.7765 -3.0733
  128MOL0     H16874   2.230   3.269   7.320 -0.8347 -1.3684  0.5754
  128MOL0     H16875   2.282   3.241   7.480 -0.1349  0.6930 -0.6552
  128MOL0     H16876   2.298   3.472   7.535 -0.0002 -0.9779  0.9382
  128MOL0     H16877   2.134   3.409   7.513  0.7133 -3.4061 -0.9420
  128MOL0     H16878   3.164   3.515   7.296 -0.4830 -0.1606 -0.5556
  128MOL0     H16879   3.373   3.483   7.414  3.0972 -1.3163  0.4088
  128MOL0     H16880   3.844   3.564   7.223 -0.1687  3.0388  2.6860
  128MOL0     H16881   4.060   3.587   7.329 -1.5674  1.3446 -0.2728
  128MOL0     H16882   5.325   3.767   8.132 -2.0101  2.7573 -2.4822
  128MOL0     H16883   5.527   3.914   8.175 -1.1157  1.4883 -2.3912
  128MOL0     H16884   5.713   4.307   8.627 -1.1511  0.2893 -0.0725
  128MOL0     H16885   5.894   4.500   8.581  1.1166  0.7957 -1.1905
  128MOL0     H16886   6.120   4.568   8.449  2.1168  0.3940 -2.5095
  128MOL0     H16887   5.988   4.693   8.483 -1.4017 -2.4119  0.8263
  128MOL0     H16888   6.223   4.777   8.424 -0.1675  1.0647 -0.1209
  128MOL0     H16889   6.197   4.700   8.271 -0.3257  0.3717 -1.0598
  128MOL0     H16890   6.041   4.943   8.395 -0.2800 -3.1385  2.9092
  128MOL0     H16891   5.985   4.859   8.249 -0.2190  0.3860 -0.4999
  128MOL0     H16892   6.213   4.896   8.145  1.9994  1.0168 -0.7490
  128MOL0     H16893   6.122   5.041   8.168 -2.7630 -2.1492 -1.2533
  128MOL0     H16894   6.480   5.038   8.394 -1.4264  2.2390  2.2589
  128MOL0     H16895   5.824   4.444   8.166  1.0301  3.0681  1.0333
  128MOL0     H16896   5.645   4.293   8.211 -1.0233  4.3486 -1.0618
  129MOL0     O16897   0.675   9.713   2.831 -0.1349  0.8613  0.6670
  129MOL0     C16898   0.750   9.619   2.819 -0.3413  0.1116 -0.1494
  129MOL0     O16899   0.735   9.493   2.858 -0.2510  0.2967  0.0665
  129MOL0     C16900   0.620   9.465   2.929 -0.3143 -0.6073  0.8461
  129MOL0     C16901   0.499   9.422   2.876 -1.2097 -0.6783  0.2095
  129MOL0     C16902   0.390   9.383   2.956  0.2288  0.1101  0.3687
  129MOL0     C16903   0.399   9.388   3.099  0.9277 -0.8385  0.8572
  129MOL0     O16904   0.303   9.352   3.188 -0.5976 -0.8462 -0.2200
  129MOL0     C16905   0.183   9.291   3.128  0.4848  0.2973  0.2705
  129MOL0     C16906   0.069   9.380   3.072 -0.4404 -0.2171  0.6724
  129MOL0     C16907   0.022   9.325   2.936 -0.9133 -0.4082 -0.1864
  129MOL0     C16908  -0.129   9.294   2.951  0.0265  0.3067  0.2181
  129MOL0     C16909  -0.194   9.253   2.824 -0.0517  0.3694  0.6369
  129MOL0     C16910  -0.348   9.288   2.817 -0.2653 -0.0286 -0.4291
  129MOL0     C16911  -0.422   9.215   2.930  0.8042  0.6606 -0.0005
  129MOL0     C16912  -0.570   9.214   2.897  0.5637 -0.4652 -0.3853
  129MOL0     N16913  -0.657   9.141   2.989 -0.0309  0.0680  0.0142
  129MOL0     C16914  -0.791   9.148   3.007 -0.2841  0.3438 -0.7864
  129MOL0     C16915  -0.829   9.047   3.081 -0.2502  1.5048  0.4874
  129MOL0     C16916  -0.974   9.015   3.125 -0.2305  0.3552 -0.3251
  129MOL0     C16917  -1.029   8.895   3.058  0.1551 -0.0923  0.1094
  129MOL0     C16918  -1.163   8.834   3.115 -0.1231  0.2034 -0.4169
  129MOL0     C16919  -1.197   8.698   3.059  0.8499 -0.4534 -0.3648
  129MOL0     O16920  -1.259   8.704   2.928 -0.3569 -0.3620 -0.0825
  129MOL0     C16921  -1.388   8.660   2.914 -0.7581  0.2555 -0.8414
  129MOL0     C16922  -1.402   8.587   2.802  0.4371 -0.2111  0.5137
  129MOL0     C16923  -1.527   8.537   2.762 -0.2042  0.6587 -0.0829
  129MOL0     C16924  -1.642   8.561   2.842  0.9013  0.2853  0.3635
  129MOL0     C16925  -1.782   8.519   2.810  0.1187 -0.2485 -0.8435
  129MOL0     O16926  -1.876   8.589   2.883 -0.5246 -0.2377  0.0464
  129MOL0     C16927  -2.012   8.566   2.854  0.1530  0.0884 -0.3106
  129MOL0     C16928  -2.077   8.564   2.721 -0.3365  0.0224 -0.0464
  129MOL0     C16929  -2.208   8.541   2.707  0.5426  0.1292  0.0700
  129MOL0     C16930  -2.296   8.538   2.823 -0.0093  0.4646  0.0883
  129MOL0     O16931  -2.430   8.502   2.823 -0.1664  0.7882  0.4681
  129MOL0     C16932  -2.486   8.460   2.697  0.0320 -0.1076 -0.4718
  129MOL0     C16933  -2.634   8.433   2.720  0.3699  0.6651 -0.2990
  129MOL0     C16934  -2.715   8.437   2.586  0.3414 -0.5444  0.1017
  129MOL0     C16935  -2.866   8.405   2.612 -0.7019  0.0561  0.7912
  129MOL0     C16936  -2.949   8.392   2.479 -1.0087 -0.3061  0.3588
  129MOL0     C16937  -3.090   8.359   2.509 -1.7658 -0.1009  0.4885
  129MOL0     C16938  -3.166   8.343   2.378 -0.4692  0.0216 -0.3672
  129MOL0     C16939  -3.206   8.484   2.322 -1.0605  0.1795 -0.4909
  129MOL0    Cl16940  -3.261   8.470   2.158  0.3026 -0.1492  0.5817
  129MOL0     C16941  -2.237   8.559   2.947  0.3515 -0.0160 -0.0885
  129MOL0     C16942  -2.101   8.572   2.961 -1.2044 -0.5971  0.0033
  129MOL0     O16943  -1.805   8.423   2.739  0.2279  0.0756  0.0554
  129MOL0     C16944  -1.620   8.634   2.964  0.4046  0.3269  0.0329
  129MOL0     C16945  -1.494   8.679   3.000  0.1801  0.1536 -0.3691
  129MOL0     N16946  -0.716   8.979   3.120  0.4689 -0.2358 -0.3587
  129MOL0     N16947  -0.616   9.038   3.069  0.0440 -0.4779  0.6124
  129MOL0     C16948   0.520   9.439   3.151  0.4364  0.5167 -0.3311
  129MOL0     C16949   0.624   9.475   3.070 -0.5203  0.2906  0.2503
  129MOL0     C16950   0.883   9.654   2.751  0.7888  0.0784 -0.6239
  129MOL0     C16951   0.992   9.564   2.748 -0.2679 -0.3218 -1.0593
  129MOL0     C16952   1.112   9.598   2.685  0.0761  0.6118 -0.2777
  129MOL0     C16953   1.131   9.727   2.634  0.0608 -0.0643  0.6920
  129MOL0     O16954   1.246   9.777   2.593 -0.7572 -0.6402  0.1504
  129MOL0     C16955   1.353   9.680   2.589 -0.9441 -0.4732 -0.8268
  129MOL0     C16956   1.483   9.755   2.550 -0.3824 -0.6425  0.2348
  129MOL0     C16957   1.605   9.684   2.499 -0.3947  0.5416  0.3480
  129MOL0     C16958   1.733   9.777   2.508  0.1802  0.4811  0.2911
  129MOL0     C16959   1.856   9.695   2.495 -0.5193  0.7132  0.3618
  129MOL0     C16960   1.961   9.651   2.469  0.2229  0.2431 -0.4417
  129MOL0     C16961   1.030   9.819   2.649 -0.3179 -0.4842  0.2719
  129MOL0     C16962   0.906   9.782   2.693  0.0500 -0.4565  0.3228
  129MOL0     H16963   0.495   9.411   2.768 -3.2407  0.9853  0.0492
  129MOL0     H16964   0.298   9.373   2.900 -0.2849  1.5185  0.9035
  129MOL0     H16965   0.134   9.227   3.202  0.3543  1.2647  1.0497
  129MOL0     H16966   0.223   9.212   3.064  2.5424 -0.6815  2.5677
  129MOL0     H16967   0.104   9.477   3.037  2.5733 -2.2046 -2.5996
  129MOL0     H16968  -0.011   9.396   3.145 -1.6843  1.9395 -1.0638
  129MOL0     H16969   0.071   9.235   2.898 -0.2305 -0.6665  1.2517
  129MOL0     H16970   0.025   9.409   2.867  0.6467 -0.9813 -0.8485
  129MOL0     H16971  -0.122   9.206   3.015 -1.0264 -0.6554 -0.9401
  129MOL0     H16972  -0.186   9.374   2.999 -2.5651 -0.1159 -1.9365
  129MOL0     H16973  -0.190   9.143   2.823 -2.1438  0.2431  0.4700
  129MOL0     H16974  -0.145   9.291   2.734  0.5330 -2.3738 -0.3186
  129MOL0     H16975  -0.389   9.248   2.724 -1.0920  1.6615 -0.8345
  129MOL0     H16976  -0.362   9.396   2.827  3.1317  0.3158  5.8878
  129MOL0     H16977  -0.382   9.113   2.932  4.1198  1.8395  1.5489
  129MOL0     H16978  -0.399   9.261   3.027  2.1930  1.1018 -0.5249
  129MOL0     H16979  -0.581   9.177   2.795  1.2486 -0.8823 -0.3113
  129MOL0     H16980  -0.616   9.313   2.902 -1.1423 -1.2546  0.8142
  129MOL0     H16981  -0.863   9.218   2.965 -0.3806  0.5317 -0.3109
  129MOL0     H16982  -1.024   9.111   3.109  0.4705  0.8462  0.3336
  129MOL0     H16983  -0.975   8.988   3.231 -1.0219  1.5246 -0.0141
  129MOL0     H16984  -0.947   8.824   3.069  0.8752  0.6413 -0.4516
  129MOL0     H16985  -1.040   8.896   2.950 -1.1267  0.5851  0.2271
  129MOL0     H16986  -1.175   8.831   3.223 -0.3203 -0.5708 -0.4493
  129MOL0     H16987  -1.251   8.894   3.090 -0.5147 -0.2512 -0.1474
  129MOL0     H16988  -1.267   8.646   3.124  0.2842 -0.1593 -0.7330
  129MOL0     H16989  -1.106   8.637   3.053  1.4512  0.3814  0.0645
  129MOL0     H16990  -1.315   8.580   2.738 -0.1923  3.6009 -1.0384
  129MOL0     H16991  -1.526   8.474   2.674  0.7030  1.9584 -1.0499
  129MOL0     H16992  -2.004   8.559   2.641 -0.2373 -1.8117  0.1037
  129MOL0     H16993  -2.242   8.525   2.606  1.9794  0.5294 -0.5001
  129MOL0     H16994  -2.428   8.375   2.659  0.4557 -0.6766  1.3641
  129MOL0     H16995  -2.469   8.542   2.627  0.0358  1.3611  1.1777
  129MOL0     H16996  -2.670   8.518   2.780 -0.2403  1.2120 -1.4004
  129MOL0     H16997  -2.645   8.343   2.780  1.2682  1.5192  1.2292
  129MOL0     H16998  -2.672   8.368   2.513  3.1661  1.1667 -0.0177
  129MOL0     H16999  -2.710   8.538   2.545 -0.3524 -0.6965 -0.3574
  129MOL0     H17000  -2.865   8.303   2.652  2.1995 -0.2450  0.2281
  129MOL0     H17001  -2.916   8.467   2.686 -0.4379 -1.1278  2.0008
  129MOL0     H17002  -2.899   8.318   2.416  1.6878  2.3600 -0.8639
  129MOL0     H17003  -2.935   8.490   2.433  1.6179  0.7518  3.0684
  129MOL0     H17004  -3.131   8.434   2.577 -1.4239  1.4394 -0.9514
  129MOL0     H17005  -3.085   8.263   2.561 -0.6774 -1.3956 -1.8591
  129MOL0     H17006  -3.101   8.286   2.311 -0.6716  2.0209 -2.3725
  129MOL0     H17007  -3.258   8.292   2.406  0.5068 -2.3133 -1.1724
  129MOL0     H17008  -3.122   8.553   2.328 -2.8081  2.3598  0.3870
  129MOL0     H17009  -3.283   8.530   2.385 -0.1982 -0.6882  1.2736
  129MOL0     H17010  -2.309   8.570   3.028  1.0096  2.9845  0.1989
  129MOL0     H17011  -2.065   8.581   3.063 -1.4140  1.1720 -0.0575
  129MOL0     H17012  -1.700   8.665   3.031  0.4765  3.6055 -1.2088
  129MOL0     H17013  -1.480   8.726   3.097  2.7085 -0.8285 -0.1679
  129MOL0     H17014   0.521   9.450   3.259  1.0108 -0.4341 -0.2243
  129MOL0     H17015   0.713   9.520   3.112  0.9986  2.7935 -4.7677
  129MOL0     H17016   0.984   9.462   2.785  0.8270 -0.0472 -0.0154
  129MOL0     H17017   1.183   9.516   2.685 -2.3888 -1.6680 -1.2099
  129MOL0     H17018   1.334   9.602   2.515  1.2056 -2.9855  1.0555
  129MOL0     H17019   1.370   9.637   2.689 -2.4068 -0.7550 -0.6819
  129MOL0     H17020   1.452   9.831   2.477 -1.7463 -0.9141  0.5103
  129MOL0     H17021   1.524   9.805   2.638 -1.5168 -0.2379  0.5500
  129MOL0     H17022   1.588   9.662   2.393  0.2984  1.6269 -0.0148
  129MOL0     H17023   1.616   9.593   2.558 -1.1086 -0.5130 -1.0922
  129MOL0     H17024   1.731   9.853   2.428 -3.5259 -0.4232 -0.6395
  129MOL0     H17025   1.740   9.826   2.606 -1.7609 -0.1000  0.7526
  129MOL0     H17026   2.060   9.624   2.439  0.3828 -1.3440  1.3515
  129MOL0     H17027   1.057   9.917   2.612  0.0275  0.9498  3.9323
  129MOL0     H17028   0.822   9.851   2.691  1.2629  1.0810  0.5882
  130MOL0     O17029   2.511   2.159   9.854 -0.3686 -0.5194  1.1177
  130MOL0     C17030   2.537   2.168   9.730 -0.2654 -0.6738 -0.5096
  130MOL0     O17031   2.450   2.210   9.630 -0.0249 -0.7235  0.0040
  130MOL0     C17032   2.344   2.278   9.682  0.1677 -0.5810  0.2390
  130MOL0     C17033   2.215   2.221   9.704 -0.0013  0.2222 -0.9207
  130MOL0     C17034   2.120   2.293   9.768  0.0498 -0.0351 -1.4180
  130MOL0     C17035   2.136   2.434   9.797  0.1954  0.3184  0.2607
  130MOL0     O17036   2.052   2.514   9.854  0.0700  0.0034  0.1749
  130MOL0     C17037   1.913   2.463   9.863 -0.1620  0.7366  0.3126
  130MOL0     C17038   1.811   2.563   9.887  0.2162 -0.3914 -0.4460
  130MOL0     C17039   1.696   2.501   9.955  0.4209 -0.6842  0.0534
  130MOL0     C17040   1.594   2.607  10.013  0.0011  0.5981  0.9462
  130MOL0     C17041   1.445   2.567   9.995 -0.1324 -1.0047 -0.1172
  130MOL0     C17042   1.382   2.594   9.863  0.2741 -0.3229  0.3957
  130MOL0     C17043   1.222   2.580   9.867  0.7573 -0.1834  0.3187
  130MOL0     C17044   1.157   2.724   9.862  0.5609  0.3439 -0.4472
  130MOL0     N17045   1.012   2.722   9.881  1.2111 -0.0080 -0.6016
  130MOL0     C17046   0.915   2.792   9.821 -0.5223  0.6864  0.7101
  130MOL0     C17047   0.803   2.767   9.893 -0.1604  0.0367 -0.0448
  130MOL0     C17048   0.664   2.808   9.858 -0.3842 -0.1346 -0.8988
  130MOL0     C17049   0.630   2.732   9.725  1.0793  0.6610  0.1895
  130MOL0     C17050   0.500   2.777   9.648  0.4366 -1.3911  0.3206
  130MOL0     C17051   0.373   2.744   9.728  0.1828  0.5550 -0.7542
  130MOL0     O17052   0.259   2.762   9.632 -0.2538 -0.5241  0.4901
  130MOL0     C17053   0.135   2.768   9.675 -0.2199  0.0836 -0.1354
  130MOL0     C17054   0.097   2.738   9.805  0.9812  0.1401 -0.8568
  130MOL0     C17055  -0.037   2.718   9.851 -0.2565 -0.3872  0.0798
  130MOL0     C17056  -0.143   2.745   9.762  0.7557 -0.1615  0.4454
  130MOL0     C17057  -0.280   2.736   9.800 -0.0473 -0.3071 -0.2221
  130MOL0     O17058  -0.359   2.802   9.716 -0.6635  0.0232  0.1394
  130MOL0     C17059  -0.495   2.786   9.728 -0.9771 -0.9018  0.8054
  130MOL0     C17060  -0.575   2.881   9.793  1.1011  0.7807 -0.0789
  130MOL0     C17061  -0.716   2.874   9.776  0.4117  0.6185  0.4768
  130MOL0     C17062  -0.779   2.774   9.716 -0.0192  0.8519  1.3724
  130MOL0     O17063  -0.916   2.780   9.714 -0.3094  0.2050  0.1508
  130MOL0     C17064  -0.980   2.661   9.752  0.0705 -0.0773 -0.0456
  130MOL0     C17065  -1.117   2.688   9.800 -0.4029  0.1761 -0.2155
  130MOL0     C17066  -1.217   2.729   9.692 -0.7977 -0.1160 -0.5202
  130MOL0     C17067  -1.360   2.764   9.742 -0.3127  1.3176 -0.7417
  130MOL0     C17068  -1.454   2.795   9.620 -0.0865  0.7956 -1.1226
  130MOL0     C17069  -1.480   2.677   9.531 -0.1025  0.4955 -0.2643
  130MOL0     C17070  -1.578   2.700   9.415 -0.5478  0.6229 -0.9617
  130MOL0     C17071  -1.652   2.573   9.380  1.1125 -0.3271 -0.1658
  130MOL0    Cl17072  -1.776   2.587   9.251  0.3530 -0.1079 -0.0358
  130MOL0     C17073  -0.703   2.673   9.654  0.3898 -0.8351  0.0333
  130MOL0     C17074  -0.562   2.679   9.662  0.6554 -0.0991 -0.3015
  130MOL0     O17075  -0.314   2.674   9.907 -0.8421  0.5537 -0.1002
  130MOL0     C17076  -0.105   2.769   9.629 -0.0795  0.1749  0.4660
  130MOL0     C17077   0.034   2.782   9.583  0.0493 -0.1121  1.1568
  130MOL0     N17078   0.832   2.669   9.983  0.3457 -0.0271  0.2369
  130MOL0     N17079   0.953   2.655   9.981  1.1589 -0.2218 -0.1829
  130MOL0     C17080   2.259   2.488   9.772  0.1809 -0.2521  1.0186
  130MOL0     C17081   2.361   2.412   9.713 -0.3362 -0.1372 -0.1889
  130MOL0     C17082   2.674   2.133   9.689 -0.5921  0.4880 -0.4970
  130MOL0     C17083   2.765   2.100   9.791 -0.5372 -0.4810 -0.9834
  130MOL0     C17084   2.906   2.092   9.771 -0.0141 -0.6254 -0.7119
  130MOL0     C17085   2.955   2.121   9.647  0.6155  0.5077 -0.0395
  130MOL0     O17086   3.092   2.115   9.635 -0.7781 -0.1264  0.8055
  130MOL0     C17087   3.156   2.121   9.505  0.0270  0.1766 -0.4128
  130MOL0     C17088   3.308   2.136   9.542  0.0533 -0.6365 -0.0992
  130MOL0     C17089   3.414   2.127   9.425  1.0785  0.0533  0.0160
  130MOL0     C17090   3.547   2.146   9.488 -0.3040  0.5946 -0.6499
  130MOL0     C17091   3.630   2.231   9.406 -0.0459  0.1366 -0.2606
  130MOL0     C17092   3.696   2.298   9.332 -0.4463  0.0070 -0.2975
  130MOL0     C17093   2.870   2.160   9.535 -1.0864  0.5556 -1.1324
  130MOL0     C17094   2.729   2.168   9.558  0.2716 -0.5000 -0.2050
  130MOL0     H17095   2.207   2.118   9.671 -1.5967 -1.5120  3.9802
  130MOL0     H17096   2.022   2.251   9.786  0.8958 -1.3750  0.3845
  130MOL0     H17097   1.910   2.377   9.931  0.8861 -0.6857 -1.3251
  130MOL0     H17098   1.884   2.411   9.771 -0.7490  3.9525 -1.4623
  130MOL0     H17099   1.781   2.613   9.794 -0.8981  0.7487  0.4822
  130MOL0     H17100   1.863   2.647   9.935  0.7730  0.7575 -2.9142
  130MOL0     H17101   1.718   2.436  10.040  0.8183  0.1763  0.6254
  130MOL0     H17102   1.638   2.441   9.883 -0.8779  1.4268 -0.7604
  130MOL0     H17103   1.610   2.623  10.120  0.2617  0.6738  0.8940
  130MOL0     H17104   1.618   2.708   9.978  2.4797 -0.1874  0.1586
  130MOL0     H17105   1.391   2.614  10.078 -3.3701 -1.7162 -1.6595
  130MOL0     H17106   1.439   2.459  10.011  0.9445 -1.1137 -0.3704
  130MOL0     H17107   1.415   2.522   9.788 -0.6974  0.6446 -1.0219
  130MOL0     H17108   1.415   2.695   9.836  0.6814 -0.0036  1.9517
  130MOL0     H17109   1.182   2.533   9.777  0.6787 -0.6675  0.6039
  130MOL0     H17110   1.185   2.527   9.955  4.1797  2.1147  3.4485
  130MOL0     H17111   1.187   2.762   9.764  1.0006 -0.7205 -0.7338
  130MOL0     H17112   1.207   2.791   9.933  1.3241 -1.0860  0.3936
  130MOL0     H17113   0.915   2.867   9.743  0.5194  1.8774  1.8150
  130MOL0     H17114   0.654   2.912   9.827 -0.2377  0.9550  2.3178
  130MOL0     H17115   0.591   2.789   9.937 -0.5776  2.8049 -0.2570
  130MOL0     H17116   0.622   2.625   9.745 -1.0716  0.5841 -0.8175
  130MOL0     H17117   0.719   2.737   9.661  1.3309  0.8088  0.5477
  130MOL0     H17118   0.495   2.885   9.633  1.2874 -1.4378 -0.3472
  130MOL0     H17119   0.500   2.736   9.547 -0.9179  0.0657 -0.3039
  130MOL0     H17120   0.365   2.813   9.813  0.3331 -1.4648  1.0062
  130MOL0     H17121   0.368   2.643   9.771 -0.0970  1.1552  0.7134
  130MOL0     H17122   0.173   2.727   9.882  0.6369  0.1692 -0.5101
  130MOL0     H17123  -0.065   2.690   9.952 -0.0330 -0.9044  0.0029
  130MOL0     H17124  -0.522   2.960   9.846  3.2606 -0.1902 -0.6549
  130MOL0     H17125  -0.779   2.950   9.820 -0.2093 -1.9267  4.4501
  130MOL0     H17126  -0.922   2.619   9.835  1.6785  0.1478 -1.0017
  130MOL0     H17127  -0.976   2.600   9.661  0.6497  0.7425 -0.5967
  130MOL0     H17128  -1.113   2.764   9.879  0.3575  1.4907 -1.4668
  130MOL0     H17129  -1.143   2.594   9.849  0.4153  1.2172  2.4146
  130MOL0     H17130  -1.222   2.643   9.624 -0.9356 -0.7976  0.3336
  130MOL0     H17131  -1.181   2.813   9.632 -3.7171  0.9792 -0.9503
  130MOL0     H17132  -1.394   2.667   9.779  2.4071  0.2228 -0.9364
  130MOL0     H17133  -1.364   2.849   9.810  2.3067 -0.5131  1.9720
  130MOL0     H17134  -1.424   2.883   9.562 -0.8653  1.8194 -0.0169
  130MOL0     H17135  -1.558   2.815   9.650 -0.2724 -2.4484  0.8810
  130MOL0     H17136  -1.520   2.603   9.600 -3.6588  0.2030 -2.3772
  130MOL0     H17137  -1.394   2.639   9.475 -0.3177  1.7513 -1.5057
  130MOL0     H17138  -1.646   2.779   9.449 -1.4096 -0.6376  0.3525
  130MOL0     H17139  -1.512   2.730   9.333  0.0465  0.5016 -0.5359
  130MOL0     H17140  -1.723   2.545   9.458 -1.4326  1.9103 -1.5067
  130MOL0     H17141  -1.584   2.490   9.357 -0.8760 -1.9557 -0.4932
  130MOL0     H17142  -0.753   2.600   9.591  0.2239  0.7078 -1.6882
  130MOL0     H17143  -0.503   2.619   9.593 -1.9510 -0.2420 -2.5969
  130MOL0     H17144  -0.184   2.783   9.556 -1.6603  2.4971  2.4505
  130MOL0     H17145   0.054   2.801   9.478  1.5746 -0.0197  1.4420
  130MOL0     H17146   2.283   2.593   9.783 -1.2325 -0.0481  2.7467
  130MOL0     H17147   2.454   2.466   9.699 -1.3219  1.9215  0.7916
  130MOL0     H17148   2.733   2.085   9.894 -0.6400 -2.4889 -1.2570
  130MOL0     H17149   2.973   2.069   9.854 -1.1690 -1.1260  0.1060
  130MOL0     H17150   3.123   2.209   9.448  1.3296 -0.6319 -2.5665
  130MOL0     H17151   3.152   2.030   9.444  0.4548 -0.1030 -0.0315
  130MOL0     H17152   3.316   2.240   9.576 -2.6095 -0.2903 -0.2701
  130MOL0     H17153   3.332   2.068   9.624 -2.2338  0.8957  2.0180
  130MOL0     H17154   3.393   2.201   9.347 -0.3078 -1.2493 -0.9256
  130MOL0     H17155   3.393   2.033   9.373 -2.5356  2.5441 -3.6109
  130MOL0     H17156   3.541   2.178   9.593 -2.6979  1.6448 -1.0436
  130MOL0     H17157   3.598   2.049   9.487 -2.4084 -0.5845 -3.2696
  130MOL0     H17158   3.766   2.343   9.265  2.1135  0.3361  2.4118
  130MOL0     H17159   2.910   2.190   9.439  0.3863 -0.7902 -0.9771
  130MOL0     H17160   2.656   2.200   9.484  0.3415 -1.4672 -0.7079
  131MOL0     O17161   2.576   4.437   0.668 -0.2105 -0.0078  0.6376
  131MOL0     C17162   2.591   4.542   0.731  0.0667  0.3296 -0.6230
  131MOL0     O17163   2.492   4.619   0.783 -0.1217  0.2027  1.0016
  131MOL0     C17164   2.358   4.586   0.774  0.3307 -1.6659  0.4128
  131MOL0     C17165   2.266   4.663   0.859 -0.5128 -0.6436  0.0693
  131MOL0     C17166   2.134   4.642   0.859  0.7171  0.1106  0.5827
  131MOL0     C17167   2.069   4.537   0.784 -0.0845  1.0229  0.6993
  131MOL0     O17168   1.933   4.512   0.781 -0.1388  0.6679 -0.1231
  131MOL0     C17169   1.846   4.570   0.880 -0.4611  0.0474  0.3701
  131MOL0     C17170   1.713   4.499   0.886 -0.0429 -0.0245 -0.6707
  131MOL0     C17171   1.636   4.549   1.009  0.1348 -0.0444  0.6916
  131MOL0     C17172   1.487   4.569   0.979 -0.5075 -0.1767 -0.1425
  131MOL0     C17173   1.421   4.438   0.939 -1.0652 -0.0684 -0.2895
  131MOL0     C17174   1.275   4.454   0.898 -0.1403 -0.0941 -0.0539
  131MOL0     C17175   1.188   4.331   0.905 -0.2563  0.4801 -0.2967
  131MOL0     C17176   1.045   4.357   0.833  0.4782  1.3513 -0.5386
  131MOL0     N17177   0.955   4.242   0.847 -0.1600 -0.4932  0.5688
  131MOL0     C17178   0.851   4.238   0.936 -0.3393 -0.7574 -0.8941
  131MOL0     C17179   0.771   4.139   0.896  0.4799  0.2976 -0.2822
  131MOL0     C17180   0.653   4.081   0.972  0.1867 -1.0570  0.0885
  131MOL0     C17181   0.593   3.949   0.915 -1.1135 -0.4362  0.0251
  131MOL0     C17182   0.489   3.898   1.017 -0.4047 -0.8113  0.4471
  131MOL0     C17183   0.393   3.780   0.961  0.3946  0.2747 -0.0327
  131MOL0     O17184   0.312   3.815   0.840 -0.8199 -0.3055  0.7268
  131MOL0     C17185   0.186   3.854   0.856  0.0178 -0.2074  0.6391
  131MOL0     C17186   0.083   3.780   0.796 -0.4904  0.0998  0.0629
  131MOL0     C17187  -0.049   3.814   0.813  0.8202  0.2647 -0.3460
  131MOL0     C17188  -0.085   3.927   0.897  0.2607 -0.1192 -0.1248
  131MOL0     C17189  -0.226   3.968   0.907 -0.3865  0.6808  0.5560
  131MOL0     O17190  -0.265   4.020   1.025  0.2780  0.3787 -0.0075
  131MOL0     C17191  -0.379   4.100   1.037  0.4254  0.1011 -0.7076
  131MOL0     C17192  -0.495   4.102   0.960  0.0175  1.4120 -0.1937
  131MOL0     C17193  -0.592   4.197   0.983 -0.0062 -0.1930  0.3575
  131MOL0     C17194  -0.586   4.289   1.080  0.7675 -0.1014  0.3043
  131MOL0     O17195  -0.701   4.364   1.099 -0.1047 -0.1382  0.0234
  131MOL0     C17196  -0.683   4.507   1.140 -0.7956 -0.6621 -0.3514
  131MOL0     C17197  -0.777   4.599   1.053 -0.6622  0.0629 -0.2386
  131MOL0     C17198  -0.920   4.605   1.067 -0.1603  0.2265 -0.0135
  131MOL0     C17199  -0.965   4.637   1.216 -0.6485  0.2069  0.9761
  131MOL0     C17200  -1.102   4.703   1.229 -0.5591  0.4533  0.6306
  131MOL0     C17201  -1.135   4.730   1.379  0.4825  0.3785  0.4806
  131MOL0     C17202  -1.253   4.833   1.383  0.2393 -0.0013 -0.2678
  131MOL0     C17203  -1.295   4.870   1.524 -0.3035 -0.0376 -0.3203
  131MOL0    Cl17204  -1.341   4.727   1.619  0.3449 -0.2663 -0.0470
  131MOL0     C17205  -0.469   4.289   1.159 -1.2776 -0.0906 -0.5388
  131MOL0     C17206  -0.371   4.189   1.148  0.2902  0.5919  0.0566
  131MOL0     O17207  -0.301   3.928   0.820  0.4787  0.0314  0.3586
  131MOL0     C17208   0.018   3.997   0.967  0.6975  0.4705 -0.2638
  131MOL0     C17209   0.148   3.958   0.936 -0.5195 -1.1052  1.2933
  131MOL0     N17210   0.828   4.085   0.777 -0.6016 -0.3410 -0.3268
  131MOL0     N17211   0.942   4.146   0.749 -0.2448 -0.1292  0.4221
  131MOL0     C17212   2.144   4.462   0.694 -0.5835  0.0195  0.5766
  131MOL0     C17213   2.287   4.485   0.689 -0.5098  0.5981  0.3165
  131MOL0     C17214   2.735   4.589   0.748 -0.5503 -0.0450 -0.3958
  131MOL0     C17215   2.844   4.513   0.714 -0.3977  0.2972  0.6716
  131MOL0     C17216   2.970   4.549   0.749  0.5384 -0.3472  0.0296
  131MOL0     C17217   2.999   4.674   0.804 -0.3398 -0.0183 -0.6296
  131MOL0     O17218   3.130   4.700   0.827  0.8150  0.0657 -0.4994
  131MOL0     C17219   3.156   4.840   0.800 -0.4666 -0.1376 -1.1049
  131MOL0     C17220   3.310   4.852   0.808 -0.0495  0.6788 -0.4250
  131MOL0     C17221   3.376   4.832   0.946  0.1538 -0.3118  0.6801
  131MOL0     C17222   3.309   4.917   1.071  0.5889 -0.6387  1.4947
  131MOL0     C17223   3.300   5.064   1.046  0.3735  0.2619  0.2280
  131MOL0     C17224   3.314   5.184   1.031 -0.6623 -0.8671  0.7627
  131MOL0     C17225   2.895   4.762   0.832 -0.7576  0.6288 -0.1084
  131MOL0     C17226   2.762   4.712   0.803 -0.2311 -0.8389  0.0058
  131MOL0     H17227   2.304   4.742   0.924 -1.4484 -0.1188 -0.0102
  131MOL0     H17228   2.077   4.713   0.918 -1.1044 -2.0288  1.5359
  131MOL0     H17229   1.834   4.671   0.838  0.0416 -0.7321 -1.7376
  131MOL0     H17230   1.892   4.594   0.976 -2.5684  5.0430  0.4380
  131MOL0     H17231   1.734   4.392   0.893 -1.7332 -0.4753 -2.0731
  131MOL0     H17232   1.673   4.539   0.793 -1.3094  1.8828  0.6132
  131MOL0     H17233   1.668   4.650   1.037 -1.8878  1.3067 -1.5246
  131MOL0     H17234   1.659   4.478   1.088 -0.2867 -0.2260  0.6523
  131MOL0     H17235   1.433   4.611   1.064 -0.2716 -3.4187  1.8248
  131MOL0     H17236   1.471   4.628   0.889 -1.6221 -0.2458  0.0004
  131MOL0     H17237   1.418   4.374   1.027  0.5684  1.8607  1.2571
  131MOL0     H17238   1.472   4.383   0.859 -1.1344  1.3937 -1.3852
  131MOL0     H17239   1.274   4.498   0.798  1.2664 -0.5836 -0.3002
  131MOL0     H17240   1.234   4.532   0.962  0.0909  1.3051 -1.5387
  131MOL0     H17241   1.249   4.251   0.862  1.4958  0.8333  1.3823
  131MOL0     H17242   1.168   4.303   1.008  3.3504  1.1830  0.7293
  131MOL0     H17243   1.063   4.373   0.726  2.5196 -4.2946 -1.3265
  131MOL0     H17244   1.007   4.452   0.872  1.0342  0.6879  1.7609
  131MOL0     H17245   0.851   4.299   1.025 -0.5087 -1.0909 -0.6636
  131MOL0     H17246   0.570   4.151   0.985  0.1741  0.0258 -4.2896
  131MOL0     H17247   0.689   4.070   1.074  0.0398 -2.8648 -0.0223
  131MOL0     H17248   0.672   3.873   0.907 -0.0844  0.4906  0.9438
  131MOL0     H17249   0.551   3.974   0.817  0.6913  1.8326 -0.2573
  131MOL0     H17250   0.544   3.876   1.109  0.7435 -1.8412 -0.4436
  131MOL0     H17251   0.420   3.980   1.035 -0.2243 -0.8411  1.3286
  131MOL0     H17252   0.322   3.755   1.041  0.3924 -0.4074 -0.2455
  131MOL0     H17253   0.446   3.686   0.943  2.2988  1.9542 -4.9528
  131MOL0     H17254   0.116   3.697   0.734  1.3860  1.5524 -1.0075
  131MOL0     H17255  -0.125   3.754   0.764  0.8511 -0.2550  0.2237
  131MOL0     H17256  -0.514   4.025   0.885 -0.2881  0.2184  1.0634
  131MOL0     H17257  -0.686   4.187   0.929  0.1135  3.0002 -0.6750
  131MOL0     H17258  -0.584   4.551   1.139 -1.5916  1.2020 -0.7789
  131MOL0     H17259  -0.724   4.513   1.242 -0.7720 -0.7811 -0.3352
  131MOL0     H17260  -0.747   4.586   0.949  1.1081 -1.4886  0.4084
  131MOL0     H17261  -0.752   4.704   1.075 -1.0745  0.8293 -3.0118
  131MOL0     H17262  -0.962   4.513   1.026 -3.6405  2.0366 -0.8891
  131MOL0     H17263  -0.947   4.689   1.002  4.3004  0.7940 -1.4859
  131MOL0     H17264  -0.982   4.538   1.259 -0.9212  0.0656  0.5575
  131MOL0     H17265  -0.891   4.695   1.272 -0.6358 -0.2049  1.3926
  131MOL0     H17266  -1.178   4.637   1.187 -0.1247 -0.7754  1.7281
  131MOL0     H17267  -1.090   4.798   1.174 -1.0847  1.1958  1.7628
  131MOL0     H17268  -1.049   4.766   1.436  0.8741 -0.1557  0.2383
  131MOL0     H17269  -1.156   4.631   1.422  2.3670 -0.7130 -0.9498
  131MOL0     H17270  -1.211   4.922   1.334  3.5485 -1.8261 -1.0552
  131MOL0     H17271  -1.334   4.794   1.320 -1.5514  2.7788  0.1116
  131MOL0     H17272  -1.374   4.944   1.522 -1.8990 -1.5388  2.0981
  131MOL0     H17273  -1.215   4.924   1.576 -0.8541 -1.4288  2.1145
  131MOL0     H17274  -0.464   4.357   1.244  0.9246 -1.0575  0.1707
  131MOL0     H17275  -0.292   4.184   1.222  0.4351  1.6248 -0.0056
  131MOL0     H17276  -0.002   4.083   1.030 -1.1846  1.5171 -2.1377
  131MOL0     H17277   0.231   4.013   0.979  0.0903 -1.8038  1.0239
  131MOL0     H17278   2.088   4.391   0.633  2.2414 -2.4244  0.6102
  131MOL0     H17279   2.340   4.428   0.613 -0.8520  2.6471 -1.5643
  131MOL0     H17280   2.841   4.418   0.661  2.6677  0.6571 -0.3406
  131MOL0     H17281   3.049   4.477   0.731  1.5826  1.4161 -3.1023
  131MOL0     H17282   3.120   4.918   0.868  2.2734  0.5697 -0.3664
  131MOL0     H17283   3.118   4.861   0.699  0.0369  3.2708 -0.7099
  131MOL0     H17284   3.357   4.780   0.741  1.1663 -1.1348  2.1820
  131MOL0     H17285   3.323   4.959   0.790  0.7242  0.5456 -0.6769
  131MOL0     H17286   3.473   4.882   0.943 -0.8042  1.6907  1.3527
  131MOL0     H17287   3.377   4.724   0.965 -1.2079 -0.4204  0.1769
  131MOL0     H17288   3.206   4.884   1.087  1.0073 -2.7520  0.1879
  131MOL0     H17289   3.364   4.908   1.164 -1.6385  0.4107  3.0046
  131MOL0     H17290   3.353   5.284   1.035  0.3635 -1.2807  1.4884
  131MOL0     H17291   2.913   4.857   0.881  0.1136 -0.0791  0.9810
  131MOL0     H17292   2.680   4.774   0.838  1.5437  0.0286  3.0617
  132MOL0     O17293   7.735   2.351   1.784  0.3394 -0.1973  0.4594
  132MOL0     C17294   7.687   2.289   1.875  0.2069  0.4222 -0.0018
  132MOL0     O17295   7.759   2.207   1.959 -0.0485 -0.6021  0.0313
  132MOL0     C17296   7.893   2.204   1.932 -0.2715  0.4493 -0.6372
  132MOL0     C17297   7.949   2.091   1.871 -0.9448  0.1191 -0.0152
  132MOL0     C17298   8.084   2.097   1.845 -0.4681  0.2684  0.1887
  132MOL0     C17299   8.169   2.201   1.891  0.6447 -0.0861 -0.3553
  132MOL0     O17300   8.292   2.232   1.858 -0.3764 -0.2850 -0.3367
  132MOL0     C17301   8.351   2.143   1.754 -0.1655 -0.0310 -0.1807
  132MOL0     C17302   8.495   2.189   1.707 -0.5494 -1.5623 -0.8930
  132MOL0     C17303   8.570   2.300   1.800  0.8798 -1.0426  0.3110
  132MOL0     C17304   8.671   2.362   1.711 -0.1461  0.2567 -0.2142
  132MOL0     C17305   8.729   2.478   1.779  1.5398 -0.3439 -0.0401
  132MOL0     C17306   8.827   2.552   1.690  0.1031  0.1142  0.7808
  132MOL0     C17307   8.840   2.702   1.720  0.6832 -0.3636 -0.3995
  132MOL0     C17308   8.848   2.743   1.869 -0.0887  0.2516 -0.0520
  132MOL0     N17309   8.962   2.666   1.933 -0.2432 -0.0605 -0.1588
  132MOL0     C17310   8.960   2.572   2.029 -0.6828 -0.2589 -0.2337
  132MOL0     C17311   9.089   2.541   2.054 -0.3760  0.6110 -0.6812
  132MOL0     C17312   9.134   2.435   2.156 -0.0762  0.8503 -1.1001
  132MOL0     C17313   9.158   2.504   2.291 -0.8611 -0.0144 -0.4292
  132MOL0     C17314   9.031   2.550   2.352 -0.1185 -0.0646  0.4995
  132MOL0     C17315   8.949   2.435   2.406  0.2700 -1.2573  0.0436
  132MOL0     O17316   8.842   2.483   2.486  0.3503  0.2343 -0.0104
  132MOL0     C17317   8.753   2.380   2.530 -0.5278 -0.1989  1.1356
  132MOL0     C17318   8.754   2.245   2.501  0.0069  0.2189  0.6918
  132MOL0     C17319   8.656   2.153   2.556 -0.4463  0.3284 -0.2079
  132MOL0     C17320   8.560   2.200   2.642 -0.1542  0.4644 -1.7569
  132MOL0     C17321   8.462   2.109   2.693  0.4782  0.1465 -0.5673
  132MOL0     O17322   8.359   2.154   2.772 -0.2515  0.2356  0.1315
  132MOL0     C17323   8.258   2.067   2.810  0.5849 -0.1323  0.4469
  132MOL0     C17324   8.261   1.928   2.846  0.5146  0.1896  0.8013
  132MOL0     C17325   8.138   1.867   2.885  0.5321 -0.1619  0.7967
  132MOL0     C17326   8.015   1.940   2.888 -1.1007 -0.1979  0.3739
  132MOL0     O17327   7.909   1.874   2.931  0.1200 -0.2628 -0.3530
  132MOL0     C17328   7.896   1.749   2.982 -0.2323  0.3725  0.2877
  132MOL0     C17329   7.742   1.714   3.002 -0.7151 -0.0968 -0.0691
  132MOL0     C17330   7.665   1.716   2.869 -1.1133  0.5184 -0.8022
  132MOL0     C17331   7.515   1.667   2.876 -0.4533  0.6818 -0.0360
  132MOL0     C17332   7.440   1.647   2.741  0.2254 -0.5252 -0.6678
  132MOL0     C17333   7.411   1.780   2.662 -0.9812 -0.6735  0.3269
  132MOL0     C17334   7.317   1.754   2.543  0.1969 -0.2593  0.0361
  132MOL0     C17335   7.291   1.881   2.459  0.5215  0.1819 -0.4965
  132MOL0    Cl17336   7.435   1.909   2.343  0.2925  0.0446 -0.4019
  132MOL0     C17337   8.012   2.074   2.848 -0.5637  0.6514  0.2213
  132MOL0     C17338   8.133   2.130   2.818  0.5424  0.2522  0.3726
  132MOL0     O17339   8.469   1.989   2.658  0.1893 -0.2386 -0.6606
  132MOL0     C17340   8.561   2.334   2.672  0.1044  1.2296  0.5519
  132MOL0     C17341   8.663   2.417   2.626  0.1583 -0.2375 -0.1215
  132MOL0     N17342   9.162   2.631   1.986 -0.0779  0.7800  0.0200
  132MOL0     N17343   9.094   2.703   1.910  0.3894  0.2660  0.2609
  132MOL0     C17344   8.106   2.298   1.975  0.3709 -0.3991  0.1596
  132MOL0     C17345   7.966   2.304   1.978 -0.3480 -0.6728 -0.4586
  132MOL0     C17346   7.539   2.278   1.885 -0.7082  0.5905  0.0682
  132MOL0     C17347   7.486   2.234   2.012 -0.5884 -0.2839  0.2221
  132MOL0     C17348   7.342   2.210   2.025  0.0196  0.5454  1.3898
  132MOL0     C17349   7.258   2.236   1.914 -0.0670  0.5223  0.0993
  132MOL0     O17350   7.127   2.213   1.942 -0.4836 -0.2649 -0.8324
  132MOL0     C17351   7.017   2.267   1.867 -0.2081 -0.0051 -0.0856
  132MOL0     C17352   6.928   2.147   1.815  1.0833 -0.7683 -0.3502
  132MOL0     C17353   6.880   2.050   1.921 -0.4560 -1.4347 -0.2840
  132MOL0     C17354   6.780   2.126   2.016  0.2102  0.1106 -0.1391
  132MOL0     C17355   6.740   2.039   2.124 -0.3395  0.8957 -0.8763
  132MOL0     C17356   6.712   1.958   2.217 -0.1577 -0.1760  0.5780
  132MOL0     C17357   7.315   2.303   1.805  0.0696  0.4165 -0.5512
  132MOL0     C17358   7.451   2.322   1.791 -0.2465  0.0665 -0.0635
  132MOL0     H17359   7.897   2.007   1.826  2.1637 -2.1597  0.3600
  132MOL0     H17360   8.134   2.015   1.796  1.0188  2.0336 -1.4052
  132MOL0     H17361   8.282   2.151   1.669 -0.8722 -0.7478  0.3142
  132MOL0     H17362   8.359   2.039   1.787  2.6747 -1.2131 -3.9112
  132MOL0     H17363   8.487   2.232   1.607 -1.2368 -0.1408 -0.2647
  132MOL0     H17364   8.562   2.103   1.700  0.5160 -0.6660 -1.9923
  132MOL0     H17365   8.607   2.260   1.895  1.4700  4.1830  2.6518
  132MOL0     H17366   8.500   2.380   1.826  2.0015 -0.4537  1.6522
  132MOL0     H17367   8.755   2.301   1.675  0.5763  3.4679 -4.8811
  132MOL0     H17368   8.626   2.392   1.617 -0.3717 -0.0114 -0.1949
  132MOL0     H17369   8.777   2.428   1.864 -0.8782  0.6312  2.0227
  132MOL0     H17370   8.644   2.542   1.804 -1.5096 -2.9228 -3.0106
  132MOL0     H17371   8.804   2.536   1.584  2.9181  1.5968 -0.1614
  132MOL0     H17372   8.927   2.510   1.704  0.5604 -0.0719 -2.2965
  132MOL0     H17373   8.932   2.738   1.673  2.6088 -1.5265  2.2212
  132MOL0     H17374   8.753   2.755   1.681  0.7486  0.4711  0.5330
  132MOL0     H17375   8.756   2.737   1.929  1.1617 -0.5766  1.8523
  132MOL0     H17376   8.881   2.847   1.859 -0.8538  0.3859 -1.4475
  132MOL0     H17377   8.872   2.517   2.061 -1.1991 -0.7950 -2.3931
  132MOL0     H17378   9.232   2.398   2.124 -0.2910  0.8946 -1.8090
  132MOL0     H17379   9.062   2.353   2.167  0.8267 -0.0490 -1.6792
  132MOL0     H17380   9.225   2.585   2.260 -2.2617  1.7432  0.9313
  132MOL0     H17381   9.207   2.436   2.361 -2.7359  2.1958  3.3206
  132MOL0     H17382   9.045   2.627   2.429  1.2297 -2.2832  2.6293
  132MOL0     H17383   8.969   2.604   2.279 -0.4553  0.0794  0.8844
  132MOL0     H17384   9.013   2.362   2.457  2.9596  0.3988 -0.7714
  132MOL0     H17385   8.896   2.388   2.323 -1.5377 -2.0949  1.5855
  132MOL0     H17386   8.828   2.214   2.428 -3.3462 -3.3068 -1.6276
  132MOL0     H17387   8.670   2.050   2.525 -0.4170  0.9351 -2.4258
  132MOL0     H17388   8.356   1.875   2.844  0.2769 -0.3218  2.0064
  132MOL0     H17389   8.161   1.766   2.917  0.3465 -1.5145 -2.8467
  132MOL0     H17390   7.959   1.740   3.071  3.3795  0.6545 -2.0188
  132MOL0     H17391   7.937   1.673   2.915 -1.8215 -0.0794 -0.2050
  132MOL0     H17392   7.706   1.782   3.080  1.5039  0.6664  0.3558
  132MOL0     H17393   7.746   1.612   3.040 -0.0562  0.5246  1.6169
  132MOL0     H17394   7.717   1.644   2.806  2.2924  0.2648  1.9590
  132MOL0     H17395   7.670   1.817   2.827 -1.4906 -0.3262 -2.9519
  132MOL0     H17396   7.518   1.570   2.927 -2.5087  2.2440  3.4256
  132MOL0     H17397   7.461   1.737   2.940  0.2119 -1.2476  2.8136
  132MOL0     H17398   7.340   1.610   2.768  0.0146  0.6342  0.2176
  132MOL0     H17399   7.495   1.580   2.674  1.0309 -0.0113 -0.5297
  132MOL0     H17400   7.509   1.811   2.626 -1.6923  0.6147 -0.5947
  132MOL0     H17401   7.374   1.863   2.723 -2.5345 -0.3173 -1.0137
  132MOL0     H17402   7.362   1.677   2.479  1.8241  1.1903 -0.6530
  132MOL0     H17403   7.226   1.720   2.593  0.2047 -0.0371  0.2028
  132MOL0     H17404   7.303   1.955   2.539  3.4005 -2.6908  2.0310
  132MOL0     H17405   7.197   1.888   2.404 -0.2252 -0.5824  0.6362
  132MOL0     H17406   7.920   2.128   2.866 -0.8047 -0.0708  1.2022
  132MOL0     H17407   8.121   2.237   2.801  0.5160  0.1281 -0.4383
  132MOL0     H17408   8.489   2.382   2.737  2.4275  1.0384  3.4922
  132MOL0     H17409   8.646   2.518   2.662 -4.1120 -0.4843 -0.9734
  132MOL0     H17410   8.161   2.384   2.012 -0.8272  0.9936 -1.1835
  132MOL0     H17411   7.911   2.384   2.026 -1.6977  0.0400 -2.9918
  132MOL0     H17412   7.548   2.214   2.099 -0.6477 -0.7088  0.1695
  132MOL0     H17413   7.306   2.169   2.118 -1.5350 -2.0772 -0.2360
  132MOL0     H17414   7.043   2.327   1.779 -3.8083  0.7648 -0.7657
  132MOL0     H17415   6.957   2.338   1.924 -0.7829  1.4604 -2.3753
  132MOL0     H17416   6.841   2.197   1.771 -1.3241 -2.9748  1.6026
  132MOL0     H17417   6.988   2.095   1.740  1.7046 -1.5248  0.6513
  132MOL0     H17418   6.970   2.018   1.974  0.7258  1.8155 -0.0558
  132MOL0     H17419   6.823   1.973   1.869 -1.7303 -1.7603  1.5031
  132MOL0     H17420   6.846   2.200   2.062  2.6742 -3.1068  1.9193
  132MOL0     H17421   6.695   2.159   1.955 -0.0540  0.5773  0.4625
  132MOL0     H17422   6.694   1.904   2.309 -0.4145  0.7301  1.0672
  132MOL0     H17423   7.269   2.353   1.720  1.4753  0.2053 -1.4755
  132MOL0     H17424   7.483   2.379   1.705  1.1100  1.7459  1.4998
  133MOL0     O17425  11.172   9.305   5.142  0.3232  0.2457  0.1628
  133MOL0     C17426  11.132   9.314   5.259 -0.6256 -0.0567 -0.5312
  133MOL0     O17427  11.019   9.259   5.301  0.0888  0.2613  0.7486
  133MOL0     C17428  10.935   9.181   5.223  0.7306 -0.3966  0.3171
  133MOL0     C17429  10.868   9.082   5.284  0.4674 -0.5758  0.7174
  133MOL0     C17430  10.778   8.997   5.213 -0.3338  0.0494  0.3438
  133MOL0     C17431  10.744   9.040   5.083 -0.3952  0.5769  0.0941
  133MOL0     O17432  10.655   8.974   5.010 -0.3750  0.0736 -0.0477
  133MOL0     C17433  10.572   8.864   5.067 -0.9661  0.2458  0.2026
  133MOL0     C17434  10.465   8.905   5.171 -0.1190 -0.5124  0.8024
  133MOL0     C17435  10.419   8.783   5.254  0.5443 -0.2882  0.2604
  133MOL0     C17436  10.312   8.707   5.173 -0.6259  0.1933 -0.8602
  133MOL0     C17437  10.254   8.606   5.267  0.1850 -0.0274 -0.0306
  133MOL0     C17438  10.122   8.557   5.214  0.5672  0.2093  0.2097
  133MOL0     C17439  10.069   8.467   5.333 -0.6710  0.3761 -0.3498
  133MOL0     C17440  10.156   8.340   5.360  0.3131  0.3774  0.2311
  133MOL0     N17441  10.089   8.247   5.440 -0.0839 -0.0423  0.3990
  133MOL0     C17442   9.983   8.170   5.406 -0.9898 -0.2359 -0.1264
  133MOL0     C17443   9.968   8.084   5.507 -0.0087  0.1703  1.5437
  133MOL0     C17444   9.860   7.975   5.506  0.6504 -0.1743  0.5084
  133MOL0     C17445   9.781   7.978   5.640  0.6039  0.6144  0.7013
  133MOL0     C17446   9.858   7.937   5.773  0.1863  0.3019 -0.3993
  133MOL0     C17447   9.783   7.843   5.866 -0.1083  0.8211  0.2447
  133MOL0     O17448   9.771   7.717   5.794 -0.3804  0.9353  0.2864
  133MOL0     C17449   9.676   7.622   5.829  0.3174  0.0464  0.8568
  133MOL0     C17450   9.662   7.501   5.754  0.2798 -0.5289 -0.5155
  133MOL0     C17451   9.558   7.412   5.787 -0.3225 -0.0377  0.4817
  133MOL0     C17452   9.473   7.429   5.898 -0.1215  0.7327 -0.8285
  133MOL0     C17453   9.353   7.346   5.932 -0.5951 -0.2061  0.0810
  133MOL0     O17454   9.267   7.391   6.031  0.7543 -0.5295 -0.1999
  133MOL0     C17455   9.166   7.295   6.056  0.8867 -0.3792 -0.1791
  133MOL0     C17456   9.173   7.168   6.106 -0.1101  0.1593  0.3639
  133MOL0     C17457   9.057   7.094   6.121 -0.8137 -0.5677  0.2382
  133MOL0     C17458   8.935   7.141   6.102  0.2358 -0.1752  0.0527
  133MOL0     O17459   8.821   7.059   6.140 -0.4864 -0.6375  0.0991
  133MOL0     C17460   8.700   7.134   6.159 -0.0752 -0.4384 -0.4115
  133MOL0     C17461   8.609   7.042   6.231  0.6497  0.4923  0.0996
  133MOL0     C17462   8.479   7.114   6.242 -0.0116  1.1019  0.2924
  133MOL0     C17463   8.362   7.028   6.292  0.1408 -0.3669 -0.9276
  133MOL0     C17464   8.238   7.117   6.278  1.0177 -0.4467 -0.0820
  133MOL0     C17465   8.129   7.052   6.358 -0.2423  0.1499  0.5382
  133MOL0     C17466   8.071   6.927   6.291  0.2725 -0.3385 -0.3404
  133MOL0     C17467   7.919   6.916   6.337  0.5280  0.2236  0.4202
  133MOL0    Cl17468   7.889   6.917   6.516  0.3637 -0.4207  0.2685
  133MOL0     C17469   8.926   7.273   6.055  0.2338  0.3153  0.3543
  133MOL0     C17470   9.038   7.348   6.021 -0.0533  0.1352  0.2057
  133MOL0     O17471   9.344   7.245   5.867 -0.2627 -0.6538 -0.7348
  133MOL0     C17472   9.498   7.546   5.969  0.0638  1.2476 -0.4443
  133MOL0     C17473   9.591   7.646   5.936 -0.4351  0.0226 -0.6722
  133MOL0     N17474  10.057   8.108   5.607 -0.5065 -0.9325 -0.7004
  133MOL0     N17475  10.136   8.208   5.567  0.5911  0.4424 -0.4350
  133MOL0     C17476  10.815   9.137   5.019 -0.6444 -0.7500  0.5387
  133MOL0     C17477  10.920   9.195   5.079 -0.8670 -0.4580 -0.2993
  133MOL0     C17478  11.223   9.395   5.355  0.4810 -0.2468  0.7447
  133MOL0     C17479  11.174   9.434   5.482  0.6947  0.0250  0.2169
  133MOL0     C17480  11.250   9.524   5.566 -0.5983  0.3509 -0.3101
  133MOL0     C17481  11.374   9.563   5.527 -0.0089  0.6598  0.0449
  133MOL0     O17482  11.456   9.643   5.606 -0.2344  0.7587 -0.3838
  133MOL0     C17483  11.598   9.662   5.577  0.1824  0.5625 -0.4236
  133MOL0     C17484  11.655   9.758   5.677 -0.0316  0.1802  1.3505
  133MOL0     C17485  11.813   9.755   5.679 -0.0530 -0.3647 -1.5163
  133MOL0     C17486  11.861   9.865   5.773  0.0421 -0.6136 -0.3187
  133MOL0     C17487  12.003   9.895   5.748 -0.1581  0.2722 -0.5322
  133MOL0     C17488  12.122   9.944   5.746  0.4512  0.4157  0.2302
  133MOL0     C17489  11.421   9.532   5.398 -0.4621 -0.3068 -0.2363
  133MOL0     C17490  11.349   9.451   5.316  0.5892 -0.4785 -0.1763
  133MOL0     H17491  10.894   9.059   5.387 -4.2117  0.1702  2.3121
  133MOL0     H17492  10.736   8.912   5.266 -1.6983  1.5087  1.7270
  133MOL0     H17493  10.638   8.786   5.105 -0.0970 -0.6241 -2.8049
  133MOL0     H17494  10.520   8.812   4.986  1.5297 -1.0938 -0.6593
  133MOL0     H17495  10.383   8.941   5.109  0.4103  1.8034  1.3503
  133MOL0     H17496  10.507   8.982   5.236 -1.0742  0.7355 -0.0236
  133MOL0     H17497  10.384   8.822   5.350 -0.8775 -1.1402  0.1190
  133MOL0     H17498  10.502   8.720   5.287  0.0241 -1.1776 -0.0972
  133MOL0     H17499  10.239   8.778   5.133 -2.1426  1.1837  3.1750
  133MOL0     H17500  10.366   8.662   5.089 -1.1200 -0.9806 -0.5649
  133MOL0     H17501  10.246   8.639   5.371 -1.3986 -0.9446  0.1725
  133MOL0     H17502  10.324   8.523   5.281  0.1156 -0.0109  0.4429
  133MOL0     H17503  10.128   8.500   5.120 -2.1908 -1.4805  0.9448
  133MOL0     H17504  10.054   8.636   5.183  1.7040  0.1720 -2.7559
  133MOL0     H17505  10.050   8.526   5.423 -2.7101  0.5195 -0.8285
  133MOL0     H17506   9.970   8.430   5.307 -0.6143  1.0279 -1.5391
  133MOL0     H17507  10.240   8.380   5.418  0.8366  1.1074 -0.9760
  133MOL0     H17508  10.186   8.300   5.262 -2.1831  0.2889 -0.5610
  133MOL0     H17509   9.926   8.172   5.313 -0.2139  0.5119 -0.6044
  133MOL0     H17510   9.905   7.876   5.499 -1.9435 -1.4971  1.2115
  133MOL0     H17511   9.797   7.989   5.418  3.0940  2.1651 -1.0434
  133MOL0     H17512   9.686   7.925   5.636  0.7614  0.2539  1.5449
  133MOL0     H17513   9.759   8.084   5.656  0.2995  0.2705  2.8041
  133MOL0     H17514   9.958   7.897   5.753  0.0568 -0.1586 -0.1469
  133MOL0     H17515   9.876   8.031   5.827  1.7524 -1.1625  1.8304
  133MOL0     H17516   9.679   7.877   5.877 -0.2836 -0.1537  2.1016
  133MOL0     H17517   9.825   7.833   5.967 -0.8274 -1.2465  0.3816
  133MOL0     H17518   9.728   7.478   5.670  1.9699 -2.9412  1.3316
  133MOL0     H17519   9.561   7.320   5.729 -0.5550  1.0750 -1.3692
  133MOL0     H17520   9.273   7.139   6.138  0.0319 -0.4710 -0.6053
  133MOL0     H17521   9.068   6.994   6.161 -0.7252 -1.3733 -1.6573
  133MOL0     H17522   8.659   7.154   6.059  0.6868 -1.7363 -1.0034
  133MOL0     H17523   8.715   7.229   6.212 -1.7223  2.1413 -4.1264
  133MOL0     H17524   8.648   7.012   6.328 -0.9082  1.3105  1.0285
  133MOL0     H17525   8.596   6.945   6.182  1.5785  0.8621 -0.9400
  133MOL0     H17526   8.448   7.135   6.139  0.0761  0.0301  0.0380
  133MOL0     H17527   8.489   7.200   6.309 -2.0474  3.2104 -1.8907
  133MOL0     H17528   8.356   6.942   6.226 -4.7747  0.6878 -2.3034
  133MOL0     H17529   8.367   7.010   6.400 -5.9718  0.8077 -0.0520
  133MOL0     H17530   8.224   7.118   6.170  0.0450  1.4624  0.0212
  133MOL0     H17531   8.256   7.220   6.311 -2.3564 -0.2301  1.4449
  133MOL0     H17532   8.052   7.128   6.375  1.3944  1.6968  1.3396
  133MOL0     H17533   8.168   7.020   6.456  0.9661 -1.7927 -0.5131
  133MOL0     H17534   8.062   6.933   6.182 -1.3410  0.0738 -0.2097
  133MOL0     H17535   8.133   6.841   6.319  1.8354  1.1324  0.9116
  133MOL0     H17536   7.879   6.828   6.286 -0.1463  1.0475 -0.5122
  133MOL0     H17537   7.869   7.004   6.294 -3.1205 -1.6956  0.3759
  133MOL0     H17538   8.829   7.319   6.043 -0.1765 -0.3062  1.1551
  133MOL0     H17539   9.024   7.450   5.986  0.0728  1.1450  2.9150
  133MOL0     H17540   9.437   7.564   6.057  1.7772 -0.3312  1.1562
  133MOL0     H17541   9.607   7.732   5.999  1.2671 -0.0329 -0.9851
  133MOL0     H17542  10.805   9.157   4.913 -3.8193  1.0965  1.0252
  133MOL0     H17543  10.973   9.267   5.018 -3.3066  0.0703 -1.9208
  133MOL0     H17544  11.077   9.401   5.515 -0.3129  0.5006 -2.0895
  133MOL0     H17545  11.220   9.552   5.667 -0.0028 -0.6006  0.1445
  133MOL0     H17546  11.614   9.709   5.480 -0.1553 -1.2258 -1.3854
  133MOL0     H17547  11.650   9.567   5.586 -0.8029  0.1146  0.9319
  133MOL0     H17548  11.612   9.858   5.660 -1.0177 -0.6380 -1.7613
  133MOL0     H17549  11.638   9.713   5.775 -0.9286 -1.8085  0.3495
  133MOL0     H17550  11.848   9.764   5.576  2.4525 -1.0730 -0.7903
  133MOL0     H17551  11.845   9.656   5.713 -1.3769 -0.2209  0.3104
  133MOL0     H17552  11.798   9.952   5.754  0.1128 -0.5545 -0.2820
  133MOL0     H17553  11.845   9.838   5.878  3.1408  0.8625  0.6849
  133MOL0     H17554  12.214   9.997   5.762  0.9229 -0.8284  1.9502
  133MOL0     H17555  11.505   9.575   5.344 -2.0729 -0.8910 -3.4894
  133MOL0     H17556  11.400   9.420   5.225  1.6955  4.3887 -1.5458
  134MOL0     O17557   2.096   4.671   6.956  0.1863  0.7049  0.2451
  134MOL0     C17558   2.113   4.712   6.842 -0.3263  1.2604  0.0899
  134MOL0     O17559   2.021   4.723   6.743  0.2862  0.5905  0.7250
  134MOL0     C17560   1.896   4.726   6.784  0.7342  0.2289 -0.8027
  134MOL0     C17561   1.830   4.846   6.767 -0.7139  0.4738 -0.5010
  134MOL0     C17562   1.696   4.855   6.797 -0.4902 -0.0835  0.1623
  134MOL0     C17563   1.626   4.745   6.847  0.2149  0.6677  0.2828
  134MOL0     O17564   1.493   4.760   6.876 -0.4921  0.6124  0.6987
  134MOL0     C17565   1.415   4.633   6.874 -1.0066  0.3000  0.0700
  134MOL0     C17566   1.276   4.681   6.921  0.2790  0.4301 -0.3729
  134MOL0     C17567   1.199   4.590   7.015  0.6996 -0.2505 -0.5885
  134MOL0     C17568   1.093   4.667   7.100  0.7121 -0.6754 -0.4154
  134MOL0     C17569   0.962   4.696   7.022 -1.1748  0.0410 -0.1741
  134MOL0     C17570   0.851   4.728   7.128  0.1561 -0.7408  0.4657
  134MOL0     C17571   0.797   4.607   7.203  0.3717  0.3218  0.5749
  134MOL0     C17572   0.661   4.636   7.275  0.1208 -0.3444  0.1701
  134MOL0     N17573   0.558   4.628   7.168 -0.3721 -0.0650 -0.5508
  134MOL0     C17574   0.457   4.723   7.143  0.2076  0.2340  0.5604
  134MOL0     C17575   0.366   4.658   7.067  0.0988 -0.5849 -0.7928
  134MOL0     C17576   0.246   4.710   7.000 -0.5575  0.4964 -0.0819
  134MOL0     C17577   0.184   4.835   7.048  0.0667 -0.8056  0.0253
  134MOL0     C17578   0.069   4.878   6.966  0.9991 -0.4255  0.4149
  134MOL0     C17579  -0.012   5.002   7.011  0.4624 -0.0005  0.7298
  134MOL0     O17580  -0.057   4.973   7.147  0.5386  0.3412 -0.6520
  134MOL0     C17581  -0.178   5.015   7.181 -0.0621 -0.3577 -0.3949
  134MOL0     C17582  -0.284   4.932   7.144  0.5786 -0.2543 -0.2883
  134MOL0     C17583  -0.414   4.961   7.198  0.1022  0.8421 -0.6673
  134MOL0     C17584  -0.434   5.076   7.286  0.0022  0.8958  0.1472
  134MOL0     C17585  -0.573   5.109   7.321  0.5880 -0.5047  0.8442
  134MOL0     O17586  -0.675   5.025   7.280 -0.2560  0.3531 -0.0970
  134MOL0     C17587  -0.803   5.061   7.303  0.8092  0.1808 -0.3350
  134MOL0     C17588  -0.857   5.182   7.267 -1.1502 -0.0519  1.2970
  134MOL0     C17589  -0.997   5.214   7.272 -0.6833 -0.3207 -0.0984
  134MOL0     C17590  -1.081   5.115   7.322 -0.1595  0.2057  0.0744
  134MOL0     O17591  -1.217   5.127   7.319 -0.3260 -0.5609 -0.1240
  134MOL0     C17592  -1.275   5.231   7.231 -0.0315  1.4716 -0.2188
  134MOL0     C17593  -1.425   5.200   7.234 -0.2266  0.1789 -0.2051
  134MOL0     C17594  -1.464   5.062   7.185 -0.6661  0.4916 -0.1033
  134MOL0     C17595  -1.615   5.018   7.218  1.0910 -0.2166  0.6962
  134MOL0     C17596  -1.623   4.949   7.351  0.2063 -0.7095  0.2801
  134MOL0     C17597  -1.755   4.881   7.386  0.2518  0.6480  0.7906
  134MOL0     C17598  -1.871   4.982   7.358  0.2148 -0.2515 -0.5321
  134MOL0     C17599  -1.998   4.963   7.459  0.5591  0.5430 -0.7303
  134MOL0    Cl17600  -2.154   5.036   7.402 -0.1060 -0.4001 -0.2822
  134MOL0     C17601  -1.030   4.985   7.358  0.0347  0.1279 -0.3565
  134MOL0     C17602  -0.892   4.971   7.352 -1.3720  0.3514  0.2893
  134MOL0     O17603  -0.594   5.210   7.388 -0.3652  0.0219 -0.6371
  134MOL0     C17604  -0.319   5.150   7.322  0.6980 -0.3586 -0.1383
  134MOL0     C17605  -0.196   5.119   7.276 -0.2023 -0.8784 -0.4090
  134MOL0     N17606   0.409   4.522   7.043  0.1483 -0.2627 -0.6179
  134MOL0     N17607   0.521   4.510   7.103 -0.4111  0.1717 -0.5818
  134MOL0     C17608   1.691   4.621   6.857 -0.2659  0.1290 -0.0081
  134MOL0     C17609   1.820   4.614   6.815  0.2880  0.6998  0.3290
  134MOL0     C17610   2.248   4.702   6.795 -0.2696  0.6205  0.4526
  134MOL0     C17611   2.284   4.715   6.662  0.1734  0.9925  0.1196
  134MOL0     C17612   2.416   4.725   6.623  0.3916 -0.2251 -0.6632
  134MOL0     C17613   2.522   4.692   6.712 -0.2038 -0.2603  0.4209
  134MOL0     O17614   2.645   4.681   6.644  0.0129  0.1065 -0.8733
  134MOL0     C17615   2.758   4.659   6.716 -1.0262 -0.1912 -0.3775
  134MOL0     C17616   2.866   4.759   6.664 -1.3151  0.2592  0.1272
  134MOL0     C17617   3.008   4.692   6.642 -1.1108  0.8255  0.5322
  134MOL0     C17618   3.110   4.787   6.575  0.2731  0.7561  0.3807
  134MOL0     C17619   3.066   4.830   6.448 -0.5126 -0.2215 -0.3696
  134MOL0     C17620   3.029   4.870   6.333 -0.5649 -0.3139 -0.6747
  134MOL0     C17621   2.486   4.662   6.844 -0.3639  0.1622 -0.0761
  134MOL0     C17622   2.355   4.671   6.886 -0.6718 -1.3672 -0.0259
  134MOL0     H17623   1.884   4.931   6.727  1.7465 -1.9499 -2.6731
  134MOL0     H17624   1.651   4.952   6.782  3.3639  1.7570 -0.7791
  134MOL0     H17625   1.466   4.572   6.950 -1.0706 -0.0079 -0.1348
  134MOL0     H17626   1.418   4.584   6.776 -0.6990  0.8528 -0.2050
  134MOL0     H17627   1.216   4.699   6.832  1.5890  0.6730 -1.2332
  134MOL0     H17628   1.281   4.780   6.967 -3.5477  0.6987 -0.2361
  134MOL0     H17629   1.269   4.541   7.084  1.3212  1.4754  0.0491
  134MOL0     H17630   1.147   4.524   6.945  1.6835 -1.5207 -0.1649
  134MOL0     H17631   1.080   4.606   7.190  3.2701  0.5844  0.9113
  134MOL0     H17632   1.140   4.756   7.142 -0.7772 -1.4640  3.3604
  134MOL0     H17633   0.926   4.621   6.951 -4.0562  2.7641 -1.8599
  134MOL0     H17634   0.987   4.788   6.968 -1.1355  1.4351  2.0402
  134MOL0     H17635   0.766   4.766   7.072  1.8310  2.7005  0.0060
  134MOL0     H17636   0.878   4.809   7.196 -0.6341 -1.6020  1.8512
  134MOL0     H17637   0.790   4.522   7.135  1.4025  2.5835 -2.6125
  134MOL0     H17638   0.875   4.589   7.277  1.2812 -1.3192 -0.7156
  134MOL0     H17639   0.658   4.731   7.329 -5.2858  2.3999 -3.9047
  134MOL0     H17640   0.639   4.559   7.350  0.7607 -0.4829  0.2225
  134MOL0     H17641   0.452   4.817   7.196 -1.0508 -0.7024  2.1847
  134MOL0     H17642   0.176   4.627   6.991  0.5725 -0.4330 -0.5622
  134MOL0     H17643   0.284   4.728   6.899  2.9914 -0.8481  0.8671
  134MOL0     H17644   0.254   4.913   7.078 -1.6527  0.4343  1.0457
  134MOL0     H17645   0.142   4.806   7.145 -1.1693 -2.2667 -0.9020
  134MOL0     H17646   0.108   4.906   6.867  2.2795 -0.0383  1.0084
  134MOL0     H17647   0.001   4.797   6.937 -1.4590  2.7127 -3.7549
  134MOL0     H17648  -0.091   5.029   6.940  1.2498  2.4791  0.7225
  134MOL0     H17649   0.057   5.087   7.010  1.3749 -0.7280  0.9770
  134MOL0     H17650  -0.252   4.850   7.081  0.1716 -0.1617 -0.6213
  134MOL0     H17651  -0.491   4.892   7.167 -0.6756  2.3473 -2.2913
  134MOL0     H17652  -0.789   5.253   7.221 -1.2618 -1.2861 -0.9174
  134MOL0     H17653  -1.031   5.313   7.241  3.2278  1.3373  0.2924
  134MOL0     H17654  -1.229   5.226   7.132  2.4557 -2.8637  0.8777
  134MOL0     H17655  -1.259   5.331   7.272  0.5749  1.0484  0.6071
  134MOL0     H17656  -1.479   5.281   7.185  1.4337  2.5278  1.5822
  134MOL0     H17657  -1.454   5.198   7.340 -0.0576 -1.5472 -0.1667
  134MOL0     H17658  -1.395   4.989   7.228 -0.4357  1.7974  1.8641
  134MOL0     H17659  -1.449   5.060   7.077 -2.2233 -2.3962 -0.3803
  134MOL0     H17660  -1.691   5.097   7.210 -0.6403 -1.4262  3.4987
  134MOL0     H17661  -1.634   4.941   7.143  0.4342  0.7832 -0.2026
  134MOL0     H17662  -1.600   5.028   7.422  1.6165  1.2324 -2.1682
  134MOL0     H17663  -1.546   4.873   7.359  2.2587  1.3281  0.8986
  134MOL0     H17664  -1.747   4.852   7.491  1.8016 -3.1392 -0.1974
  134MOL0     H17665  -1.765   4.792   7.322  2.6718 -0.7498  2.1917
  134MOL0     H17666  -1.826   5.076   7.393  0.2403 -0.8370  1.1346
  134MOL0     H17667  -1.910   4.985   7.256  1.4686  0.1669 -1.0199
  134MOL0     H17668  -1.978   5.005   7.558 -4.1474 -1.2259  1.2740
  134MOL0     H17669  -2.026   4.858   7.470 -3.2881  1.5278  0.6630
  134MOL0     H17670  -1.098   4.912   7.400 -0.6936  0.1252 -1.4940
  134MOL0     H17671  -0.849   4.874   7.375 -1.8570  0.6805  2.9148
  134MOL0     H17672  -0.338   5.229   7.394 -1.2889  2.7430 -3.6945
  134MOL0     H17673  -0.107   5.161   7.321 -0.4636  1.8596 -2.1748
  134MOL0     H17674   1.654   4.521   6.876  3.6110 -1.2881  0.9922
  134MOL0     H17675   1.865   4.516   6.812 -1.2867 -0.0335 -0.1785
  134MOL0     H17676   2.214   4.728   6.580 -2.4740 -1.0485  1.8871
  134MOL0     H17677   2.455   4.746   6.524  2.0159  0.4379  0.0769
  134MOL0     H17678   2.795   4.557   6.706  3.6815  1.0801  1.4446
  134MOL0     H17679   2.750   4.691   6.821 -0.0301 -2.0996  0.3177
  134MOL0     H17680   2.828   4.795   6.567  1.6916 -2.0015 -2.0735
  134MOL0     H17681   2.884   4.832   6.743  0.1389 -0.8940  0.8997
  134MOL0     H17682   3.010   4.596   6.590  2.8678 -0.2404  2.2116
  134MOL0     H17683   3.052   4.665   6.739  0.0299 -0.8694 -0.4099
  134MOL0     H17684   3.129   4.870   6.644  2.8272  0.9633 -0.4681
  134MOL0     H17685   3.206   4.739   6.551  0.9589  1.8577  0.8331
  134MOL0     H17686   2.990   4.915   6.244 -0.1210 -2.7716 -2.2176
  134MOL0     H17687   2.560   4.619   6.910  0.6816 -1.9633 -2.4499
  134MOL0     H17688   2.325   4.645   6.987  1.0462  1.6808  1.4370
  135MOL0     O17689   0.970   4.451   1.173  0.0973 -0.3953 -0.7613
  135MOL0     C17690   0.982   4.567   1.198  0.7247  0.2858 -0.4885
  135MOL0     O17691   0.886   4.666   1.166  0.7170 -0.2270 -0.5631
  135MOL0     C17692   0.762   4.624   1.131  0.0490  0.3242  0.1208
  135MOL0     C17693   0.737   4.591   0.990  0.4924 -0.5474  0.3616
  135MOL0     C17694   0.605   4.566   0.942  0.4773 -0.3166  0.1083
  135MOL0     C17695   0.499   4.547   1.033 -0.7636  0.7467  0.3766
  135MOL0     O17696   0.383   4.498   0.978 -0.6094  0.0375 -0.7126
  135MOL0     C17697   0.265   4.496   1.059  0.1456  0.8339 -0.6771
  135MOL0     C17698   0.161   4.421   0.979 -0.1600 -0.2640  1.4244
  135MOL0     C17699   0.024   4.498   0.968 -0.2289  0.4604  1.3469
  135MOL0     C17700  -0.056   4.423   0.859 -0.0634 -0.0442  0.3848
  135MOL0     C17701  -0.206   4.473   0.871  0.3595 -0.0053 -0.0789
  135MOL0     C17702  -0.229   4.624   0.861  0.7510 -0.4275  1.1286
  135MOL0     C17703  -0.381   4.643   0.859 -0.3697  0.7028  0.0939
  135MOL0     C17704  -0.417   4.792   0.826 -0.5974 -0.3939 -0.1807
  135MOL0     N17705  -0.559   4.817   0.798  0.7811 -0.4386  0.1027
  135MOL0     C17706  -0.626   4.760   0.692  1.1322  0.0182  0.3259
  135MOL0     C17707  -0.753   4.791   0.716  0.7410  0.3948 -0.7248
  135MOL0     C17708  -0.878   4.756   0.623 -0.5717  0.3218 -0.3477
  135MOL0     C17709  -0.991   4.728   0.718  0.5070 -0.5681 -0.0221
  135MOL0     C17710  -1.112   4.690   0.635 -0.3863  0.7113  0.5266
  135MOL0     C17711  -1.242   4.681   0.705  0.3609  0.4572  0.0067
  135MOL0     O17712  -1.352   4.649   0.618 -0.0235  0.0365 -0.0278
  135MOL0     C17713  -1.465   4.724   0.634  0.6233  1.1829 -0.0704
  135MOL0     C17714  -1.596   4.666   0.614  0.3345  0.7872  0.4580
  135MOL0     C17715  -1.708   4.742   0.622  0.5886 -0.0654  0.8849
  135MOL0     C17716  -1.705   4.873   0.658 -0.2776  0.2628 -1.0306
  135MOL0     C17717  -1.825   4.948   0.709  0.3745 -0.3445  0.4078
  135MOL0     O17718  -1.952   4.906   0.666  0.5770  0.3093 -0.8567
  135MOL0     C17719  -2.072   4.964   0.709 -0.2919 -0.3235  0.1559
  135MOL0     C17720  -2.088   5.095   0.769 -0.0424  0.1812  0.1289
  135MOL0     C17721  -2.217   5.149   0.789 -0.0881  0.2875 -1.0569
  135MOL0     C17722  -2.333   5.079   0.774  1.1327  0.0913 -1.0743
  135MOL0     O17723  -2.447   5.155   0.793  0.5516 -0.2851  0.3962
  135MOL0     C17724  -2.568   5.087   0.760  0.9354  0.4471  0.3732
  135MOL0     C17725  -2.675   5.197   0.736 -0.0225 -0.6724  0.0277
  135MOL0     C17726  -2.809   5.141   0.701  0.2136 -0.2431 -0.1003
  135MOL0     C17727  -2.922   5.247   0.676  0.4296  0.5255 -0.9081
  135MOL0     C17728  -3.040   5.186   0.595  0.2803  0.8082 -0.1638
  135MOL0     C17729  -3.119   5.084   0.685  0.4928  0.3408  0.3523
  135MOL0     C17730  -3.201   4.978   0.598  0.1200  0.0305 -0.4484
  135MOL0     C17731  -3.321   5.043   0.527  0.2449 -0.1038 -0.6743
  135MOL0    Cl17732  -3.417   4.926   0.430 -0.8839 -0.1432 -0.2499
  135MOL0     C17733  -2.320   4.943   0.726 -0.1900  0.1791 -0.8326
  135MOL0     C17734  -2.194   4.890   0.693 -0.2020 -0.1893  0.3386
  135MOL0     O17735  -1.796   5.028   0.794  0.5517  0.7034 -0.1859
  135MOL0     C17736  -1.579   4.939   0.668 -0.4153  0.1104  0.5873
  135MOL0     C17737  -1.457   4.864   0.662  0.3061  0.8126  0.5051
  135MOL0     N17738  -0.759   4.862   0.837  0.1334  0.9438 -0.1149
  135MOL0     N17739  -0.645   4.880   0.878 -0.3354  0.0883  0.7142
  135MOL0     C17740   0.525   4.575   1.171  0.2955  0.4875 -0.4002
  135MOL0     C17741   0.652   4.619   1.221  0.7977  0.1289 -0.9519
  135MOL0     C17742   1.104   4.610   1.261 -0.3041  0.2290 -0.7592
  135MOL0     C17743   1.209   4.522   1.293  0.5820  0.1666  0.8635
  135MOL0     C17744   1.327   4.569   1.329  0.0529  0.5722 -0.6018
  135MOL0     C17745   1.357   4.706   1.326  0.3579  1.4599  0.0669
  135MOL0     O17746   1.477   4.763   1.357  0.2059  0.5642 -0.6467
  135MOL0     C17747   1.589   4.682   1.378  0.2320  0.2682 -0.2479
  135MOL0     C17748   1.689   4.774   1.431 -0.1194  0.7821 -1.1009
  135MOL0     C17749   1.659   4.828   1.577  0.6892 -0.1020  0.8986
  135MOL0     C17750   1.737   4.960   1.590  0.0060  1.5438 -1.1379
  135MOL0     C17751   1.880   4.939   1.603 -0.1175  0.3468  0.5081
  135MOL0     C17752   1.995   4.949   1.593 -1.1252  0.8424 -0.4755
  135MOL0     C17753   1.250   4.788   1.310 -0.6571  0.1159  0.2573
  135MOL0     C17754   1.125   4.744   1.283  0.0053  0.0873 -0.5201
  135MOL0     H17755   0.818   4.607   0.919  0.6129  3.5644  1.1435
  135MOL0     H17756   0.586   4.556   0.836 -1.5433  1.7746  0.2077
  135MOL0     H17757   0.233   4.600   1.076  0.6628  0.9217 -0.2053
  135MOL0     H17758   0.282   4.437   1.150  0.8648  2.2897  0.1736
  135MOL0     H17759   0.139   4.323   1.021  1.3940 -2.5452 -2.5598
  135MOL0     H17760   0.198   4.397   0.879 -2.5595 -2.8959  1.0507
  135MOL0     H17761   0.041   4.604   0.944 -0.6923  0.6130  1.6791
  135MOL0     H17762  -0.028   4.483   1.063  0.5660 -0.7770  1.6009
  135MOL0     H17763  -0.011   4.458   0.765  1.7191 -1.6072  0.6034
  135MOL0     H17764  -0.050   4.314   0.862  3.0960  0.0687  0.9796
  135MOL0     H17765  -0.237   4.439   0.970  0.1165  0.2330 -0.0734
  135MOL0     H17766  -0.251   4.410   0.793 -0.1734  1.3806 -0.9191
  135MOL0     H17767  -0.195   4.655   0.762 -0.3247  0.6444  1.0670
  135MOL0     H17768  -0.179   4.684   0.937  0.2715 -0.7279  1.6871
  135MOL0     H17769  -0.423   4.581   0.780 -0.6262 -1.2645  1.7042
  135MOL0     H17770  -0.430   4.623   0.955 -4.3356  0.8312 -1.6998
  135MOL0     H17771  -0.343   4.825   0.753  0.0903  1.2802  1.2098
  135MOL0     H17772  -0.395   4.864   0.906 -0.9987  1.9399 -2.0553
  135MOL0     H17773  -0.587   4.691   0.618  2.6723  0.1063  1.0277
  135MOL0     H17774  -0.870   4.662   0.567 -3.7771 -3.5388  4.8045
  135MOL0     H17775  -0.905   4.850   0.573  0.1213  0.0849 -1.1762
  135MOL0     H17776  -1.012   4.822   0.769 -3.7561 -1.6436  0.5415
  135MOL0     H17777  -0.957   4.642   0.777  2.6892  0.0697 -0.2296
  135MOL0     H17778  -1.130   4.767   0.559  0.1906  0.7077  0.3861
  135MOL0     H17779  -1.094   4.602   0.573 -1.3657  1.9655 -1.6601
  135MOL0     H17780  -1.261   4.767   0.770 -0.6128 -1.4770  2.4238
  135MOL0     H17781  -1.241   4.599   0.777 -0.3547  1.0938  0.7688
  135MOL0     H17782  -1.611   4.562   0.587  0.1710  1.1566 -0.9665
  135MOL0     H17783  -1.803   4.690   0.624  0.5194  0.0850  2.7337
  135MOL0     H17784  -2.005   5.162   0.790 -1.9422  2.6555  0.3003
  135MOL0     H17785  -2.222   5.255   0.813 -2.3985 -0.1836  0.8458
  135MOL0     H17786  -2.588   5.023   0.847  1.0383  0.9257  0.7537
  135MOL0     H17787  -2.570   5.031   0.666 -2.0674  4.0122 -1.9852
  135MOL0     H17788  -2.643   5.266   0.657  1.6463  0.3435  1.5142
  135MOL0     H17789  -2.693   5.252   0.828 -1.1929 -3.0306  1.2882
  135MOL0     H17790  -2.846   5.070   0.776 -1.5714  0.3022 -0.4156
  135MOL0     H17791  -2.801   5.088   0.606  2.4318  1.5501 -1.0059
  135MOL0     H17792  -2.948   5.286   0.775  1.8531  0.3676 -0.4448
  135MOL0     H17793  -2.860   5.321   0.625  4.8322 -1.5556  0.9269
  135MOL0     H17794  -3.011   5.143   0.499 -0.7535 -2.3186  0.8343
  135MOL0     H17795  -3.110   5.268   0.576 -0.7559 -0.0995 -0.3441
  135MOL0     H17796  -3.188   5.137   0.751  0.2521 -0.7831  1.0321
  135MOL0     H17797  -3.050   5.016   0.736 -0.2255 -2.4433 -2.0603
  135MOL0     H17798  -3.129   4.929   0.532  1.4711  1.2174  0.0844
  135MOL0     H17799  -3.250   4.904   0.662 -1.2874 -0.2166 -1.7613
  135MOL0     H17800  -3.289   5.123   0.459 -2.3100 -0.4327 -2.4212
  135MOL0     H17801  -3.383   5.081   0.609  1.7739 -4.9023  3.1798
  135MOL0     H17802  -2.399   4.872   0.700 -0.8059  1.4323 -2.6547
  135MOL0     H17803  -2.190   4.790   0.651  2.3403 -1.5766  3.4899
  135MOL0     H17804  -1.574   5.046   0.683 -1.7983  0.3661 -0.6439
  135MOL0     H17805  -1.359   4.910   0.671  1.1290 -1.0301  1.6210
  135MOL0     H17806   0.443   4.572   1.241 -1.7755  2.5541 -2.5529
  135MOL0     H17807   0.666   4.647   1.325 -2.3769 -0.9541 -0.1370
  135MOL0     H17808   1.211   4.414   1.280  0.8839  0.2893 -0.2131
  135MOL0     H17809   1.395   4.492   1.366 -0.8426  0.1238  0.1534
  135MOL0     H17810   1.636   4.641   1.288  1.7353 -0.0652  0.6629
  135MOL0     H17811   1.575   4.594   1.442  2.3758 -0.4385 -0.6842
  135MOL0     H17812   1.773   4.712   1.463  1.1731  3.2671  0.6957
  135MOL0     H17813   1.712   4.852   1.358  3.1152  2.3783  1.3978
  135MOL0     H17814   1.682   4.748   1.649  1.3451 -3.0083 -2.2559
  135MOL0     H17815   1.554   4.857   1.588  0.7451  2.3893 -3.0773
  135MOL0     H17816   1.707   5.034   1.516 -0.6812  2.6943  0.2333
  135MOL0     H17817   1.715   4.999   1.690 -1.3817 -0.7995 -0.4473
  135MOL0     H17818   2.102   4.961   1.589 -0.8864 -0.2998  1.1999
  135MOL0     H17819   1.268   4.895   1.322 -0.7040  0.0561  0.9279
  135MOL0     H17820   1.046   4.816   1.270  0.4049  0.6481  0.0943
  136MOL0     O17821   7.758   8.264   2.455 -0.2776  0.2646 -0.2289
  136MOL0     C17822   7.794   8.357   2.526  0.5087  0.6195 -0.5149
  136MOL0     O17823   7.746   8.490   2.512  0.3272 -0.0085 -0.3280
  136MOL0     C17824   7.658   8.512   2.414 -0.0509  0.1199 -0.3114
  136MOL0     C17825   7.696   8.550   2.286 -0.2239  0.4806  0.7277
  136MOL0     C17826   7.604   8.586   2.188  0.0211 -0.4671  0.9602
  136MOL0     C17827   7.462   8.581   2.215 -0.4421  0.0688  0.3520
  136MOL0     O17828   7.355   8.606   2.128 -0.1309  1.1100  0.3253
  136MOL0     C17829   7.396   8.650   1.992  0.9567  0.0599 -0.2338
  136MOL0     C17830   7.258   8.682   1.921 -0.7738  0.1527  0.1749
  136MOL0     C17831   7.290   8.736   1.781 -0.3650 -0.4258  0.4822
  136MOL0     C17832   7.159   8.765   1.709  0.5093 -1.0689 -0.1642
  136MOL0     C17833   7.119   8.909   1.750  0.8486  0.6366  0.7904
  136MOL0     C17834   6.999   8.966   1.657 -0.4060  0.3978 -0.3627
  136MOL0     C17835   6.961   9.115   1.702  0.2843  0.0982  0.2643
  136MOL0     C17836   7.080   9.216   1.701 -0.3994 -0.6152 -0.0709
  136MOL0     N17837   7.105   9.268   1.561 -0.4127 -0.4900  0.2305
  136MOL0     C17838   7.180   9.203   1.470 -0.0557  1.3741 -0.3564
  136MOL0     C17839   7.178   9.286   1.357  0.4538  0.4234 -0.6906
  136MOL0     C17840   7.211   9.266   1.209 -0.7480  1.4866 -0.0757
  136MOL0     C17841   7.362   9.287   1.179 -0.1322  1.6617 -0.0902
  136MOL0     C17842   7.387   9.222   1.044  0.5525  0.0510 -1.2196
  136MOL0     C17843   7.533   9.236   1.016  0.2910  0.8491 -0.1075
  136MOL0     O17844   7.572   9.367   0.984 -0.4741 -0.0259 -0.3601
  136MOL0     C17845   7.713   9.385   0.972  0.1632  0.1154 -0.2134
  136MOL0     C17846   7.810   9.334   1.063 -0.1873  0.8637  0.8277
  136MOL0     C17847   7.945   9.361   1.039 -0.6021 -0.3075  1.4604
  136MOL0     C17848   7.986   9.460   0.941  0.2508 -0.3573 -0.3076
  136MOL0     C17849   8.128   9.488   0.920  0.7186  0.4036  0.2823
  136MOL0     O17850   8.151   9.542   0.789 -0.0428 -0.1703  0.7218
  136MOL0     C17851   8.266   9.587   0.741 -1.2890  0.0818 -0.1125
  136MOL0     C17852   8.360   9.652   0.822  0.6594 -0.1991  0.0036
  136MOL0     C17853   8.473   9.721   0.762  1.2520 -1.1338 -0.6241
  136MOL0     C17854   8.483   9.723   0.628 -0.6128 -0.0831  0.3062
  136MOL0     O17855   8.598   9.772   0.567 -0.0179  0.0141  1.0088
  136MOL0     C17856   8.709   9.818   0.637 -0.7550  0.0070 -0.3355
  136MOL0     C17857   8.816   9.847   0.535 -0.5503  0.8513  0.4553
  136MOL0     C17858   8.874   9.718   0.468 -0.2379 -0.0189  0.2094
  136MOL0     C17859   8.948   9.754   0.336  0.4102  1.0066 -0.3613
  136MOL0     C17860   8.993   9.623   0.269 -0.7064 -0.4848  0.3726
  136MOL0     C17861   9.099   9.652   0.168  0.1797 -1.0081  0.7399
  136MOL0     C17862   9.142   9.520   0.113  0.4411 -0.3173  0.6555
  136MOL0     C17863   9.240   9.512  -0.005  0.4653  0.7962  0.2786
  136MOL0    Cl17864   9.406   9.558   0.040  0.0223  0.5783 -0.3180
  136MOL0     C17865   8.384   9.664   0.547 -0.3320 -0.9128  1.2257
  136MOL0     C17866   8.278   9.590   0.603  1.1908  0.2236 -0.5187
  136MOL0     O17867   8.212   9.450   1.000 -0.5669  0.4916 -0.2420
  136MOL0     C17868   7.885   9.521   0.860  0.2987 -0.2166 -0.5300
  136MOL0     C17869   7.753   9.473   0.873  0.7118 -0.0191 -0.6851
  136MOL0     N17870   7.104   9.400   1.398  0.2063  0.2315  0.3157
  136MOL0     N17871   7.060   9.384   1.514  0.2396 -0.3361  0.2204
  136MOL0     C17872   7.429   8.528   2.339 -0.9028  0.7864  0.9097
  136MOL0     C17873   7.522   8.499   2.438 -0.1526 -0.0696 -0.5055
  136MOL0     C17874   7.884   8.332   2.639 -0.1384 -1.0938  0.0322
  136MOL0     C17875   7.945   8.435   2.715  0.4250  0.6865  0.5048
  136MOL0     C17876   8.050   8.405   2.799 -0.8069 -0.2764 -0.9968
  136MOL0     C17877   8.087   8.274   2.830 -0.2551  0.1576  0.0457
  136MOL0     O17878   8.194   8.238   2.905 -0.3754  0.0707 -0.1336
  136MOL0     C17879   8.298   8.329   2.933  0.3575  0.6969 -0.2920
  136MOL0     C17880   8.293   8.417   3.059 -0.3550  0.8580  0.0585
  136MOL0     C17881   8.418   8.493   3.095 -1.2524  0.1926  0.1131
  136MOL0     C17882   8.541   8.411   3.105 -0.4791 -0.1549 -0.1896
  136MOL0     C17883   8.655   8.494   3.151 -0.7860 -0.1332 -1.1065
  136MOL0     C17884   8.763   8.550   3.194  0.9244 -0.4796 -0.3456
  136MOL0     C17885   8.019   8.172   2.771 -0.3700  0.3430 -1.0649
  136MOL0     C17886   7.919   8.205   2.677  0.9713  0.4844  0.7337
  136MOL0     H17887   7.801   8.576   2.274  0.6935 -3.1136 -0.3304
  136MOL0     H17888   7.627   8.632   2.093 -0.3313 -1.9386  0.1304
  136MOL0     H17889   7.453   8.580   1.930 -1.9547 -1.2607 -1.6275
  136MOL0     H17890   7.448   8.741   2.024 -0.3708  0.2320  1.6200
  136MOL0     H17891   7.207   8.758   1.981 -0.2520  2.9134 -2.6209
  136MOL0     H17892   7.202   8.588   1.920 -1.6341  0.5225  3.1929
  136MOL0     H17893   7.349   8.666   1.720  0.0336  0.8185 -0.5861
  136MOL0     H17894   7.349   8.827   1.767 -3.0031  1.5214  1.2830
  136MOL0     H17895   7.180   8.743   1.604  1.4664 -2.9964  0.3700
  136MOL0     H17896   7.094   8.681   1.734  2.7335 -3.5292 -2.0442
  136MOL0     H17897   7.207   8.975   1.751  0.7257  0.9447 -1.8108
  136MOL0     H17898   7.081   8.908   1.853  2.5466 -0.2600  1.4574
  136MOL0     H17899   6.913   8.898   1.658 -0.0270 -0.1334  1.6694
  136MOL0     H17900   7.025   8.981   1.552 -1.0228  1.2966 -0.3919
  136MOL0     H17901   6.874   9.146   1.643  1.2739 -0.0395 -1.3178
  136MOL0     H17902   6.926   9.118   1.806 -1.0701 -2.2023 -0.0438
  136MOL0     H17903   7.169   9.174   1.748  0.3996  1.7389  0.5973
  136MOL0     H17904   7.051   9.300   1.764 -1.6371  0.1364 -1.5714
  136MOL0     H17905   7.218   9.103   1.454 -1.0794  0.6462  1.4235
  136MOL0     H17906   7.149   9.338   1.155  0.3382  3.1987  0.8421
  136MOL0     H17907   7.178   9.166   1.179  0.9514 -0.1573  2.9641
  136MOL0     H17908   7.427   9.236   1.251 -2.0872 -1.6819 -0.4379
  136MOL0     H17909   7.382   9.394   1.180 -2.8549  2.2369 -0.6704
  136MOL0     H17910   7.355   9.117   1.047  0.1891  0.1557 -1.4441
  136MOL0     H17911   7.329   9.272   0.966 -1.0641 -2.5693 -1.8228
  136MOL0     H17912   7.556   9.171   0.931 -3.2005 -3.0660  1.6241
  136MOL0     H17913   7.585   9.183   1.096 -0.9314 -1.5144 -0.7822
  136MOL0     H17914   7.793   9.276   1.154 -2.7109 -0.1671 -0.2037
  136MOL0     H17915   8.029   9.310   1.085  0.3681 -2.2445 -2.0986
  136MOL0     H17916   8.341   9.658   0.929  0.6899  0.5044 -0.0280
  136MOL0     H17917   8.544   9.762   0.834  2.5760 -1.3437 -1.7569
  136MOL0     H17918   8.745   9.745   0.710  0.5931  3.1722  2.3846
  136MOL0     H17919   8.683   9.906   0.695  2.0803  1.5556 -1.2262
  136MOL0     H17920   8.896   9.895   0.592 -2.4723  1.4147  2.8244
  136MOL0     H17921   8.772   9.924   0.471  0.2824  1.1055  0.1716
  136MOL0     H17922   8.797   9.646   0.437 -1.3217  1.4696 -0.7281
  136MOL0     H17923   8.945   9.664   0.531  0.1149 -0.0705 -0.2240
  136MOL0     H17924   8.894   9.814   0.262 -0.8697  0.1566 -0.1427
  136MOL0     H17925   9.042   9.802   0.365  1.5478 -0.8684 -0.7992
  136MOL0     H17926   8.905   9.569   0.234  0.5325  0.5509 -5.3489
  136MOL0     H17927   9.042   9.573   0.354 -0.7296  1.2282  1.4365
  136MOL0     H17928   9.181   9.704   0.217  0.5710 -1.6732  0.8035
  136MOL0     H17929   9.053   9.707   0.085 -0.9703 -3.0521 -0.0536
  136MOL0     H17930   9.180   9.457   0.194  1.3061  0.0143  0.5252
  136MOL0     H17931   9.048   9.483   0.071 -0.0507  2.0325 -0.4739
  136MOL0     H17932   9.204   9.567  -0.093 -0.9914 -1.3669 -0.5538
  136MOL0     H17933   9.258   9.407  -0.029 -0.0486  0.8130 -0.2004
  136MOL0     H17934   8.408   9.665   0.441  1.1630  1.2099  1.5054
  136MOL0     H17935   8.214   9.541   0.531  0.5005  0.0944  0.1663
  136MOL0     H17936   7.907   9.597   0.786  0.7665  1.1676  0.9592
  136MOL0     H17937   7.685   9.528   0.808 -1.8021 -2.1874 -0.0871
  136MOL0     H17938   7.325   8.504   2.362 -0.6794 -0.4174  0.7423
  136MOL0     H17939   7.502   8.471   2.541  1.6893  0.2333 -0.0259
  136MOL0     H17940   7.906   8.534   2.694 -2.5659 -0.2144  1.3040
  136MOL0     H17941   8.101   8.485   2.852  0.6136 -1.6522 -0.1812
  136MOL0     H17942   8.309   8.400   2.850  4.1112  1.7655  0.9186
  136MOL0     H17943   8.389   8.268   2.934  1.7630  2.6472 -0.9739
  136MOL0     H17944   8.208   8.485   3.063 -0.6505  0.6215 -1.3421
  136MOL0     H17945   8.271   8.349   3.141 -4.0883  2.9023  0.9351
  136MOL0     H17946   8.393   8.529   3.196 -3.4283  1.1172 -0.7039
  136MOL0     H17947   8.430   8.580   3.030 -4.0042  0.9458  0.4828
  136MOL0     H17948   8.525   8.326   3.173 -2.2466  1.4292  1.4872
  136MOL0     H17949   8.570   8.370   3.008  1.8289  2.0485 -0.5392
  136MOL0     H17950   8.821   8.624   3.244 -1.7313 -1.3636  4.6254
  136MOL0     H17951   8.032   8.067   2.796  2.9731  0.6839 -0.8868
  136MOL0     H17952   7.862   8.118   2.646  0.1138  1.2971 -0.0769
  137MOL0     O17953   3.743   6.763   5.197  0.1624 -0.2720 -0.5319
  137MOL0     C17954   3.695   6.856   5.270 -0.5405 -0.0126  0.4367
  137MOL0     O17955   3.562   6.883   5.294 -1.0669  0.3414 -0.4617
  137MOL0     C17956   3.475   6.835   5.199  0.9854  0.1238  0.8081
  137MOL0     C17957   3.484   6.876   5.070 -1.0472  0.6331  0.5026
  137MOL0     C17958   3.395   6.829   4.971 -0.1184  0.8342 -0.3786
  137MOL0     C17959   3.284   6.746   5.019 -1.1796 -0.3945 -1.1324
  137MOL0     O17960   3.200   6.673   4.936  0.5541  0.2765 -0.4262
  137MOL0     C17961   3.209   6.688   4.795 -0.6708  0.0819 -0.7683
  137MOL0     C17962   3.097   6.599   4.737 -0.2967  0.0140  0.1856
  137MOL0     C17963   2.955   6.650   4.759 -0.6214 -0.3646 -1.3223
  137MOL0     C17964   2.853   6.544   4.711 -0.3814  0.7922  0.0714
  137MOL0     C17965   2.706   6.587   4.732  0.1475  0.1384  0.2554
  137MOL0     C17966   2.657   6.688   4.636 -0.8173 -0.3524  0.5404
  137MOL0     C17967   2.503   6.684   4.632 -0.1901  0.0781  0.1188
  137MOL0     C17968   2.432   6.801   4.565 -1.1537  0.6434  0.6109
  137MOL0     N17969   2.292   6.823   4.597 -0.6433  0.1942  0.5919
  137MOL0     C17970   2.217   6.777   4.704  0.6177 -0.1733  0.6373
  137MOL0     C17971   2.097   6.835   4.693 -0.7750 -0.4952 -0.1057
  137MOL0     C17972   1.990   6.819   4.795 -0.5054  0.7398  0.4522
  137MOL0     C17973   1.881   6.920   4.779  0.2926 -1.4947  0.7740
  137MOL0     C17974   1.799   6.918   4.647 -0.8695  0.8213  0.1076
  137MOL0     C17975   1.678   7.006   4.656 -0.8079  0.0987 -0.1265
  137MOL0     O17976   1.607   6.980   4.774 -0.5571  0.2296 -0.3026
  137MOL0     C17977   1.476   6.991   4.772 -0.3956 -0.1990 -0.8173
  137MOL0     C17978   1.413   6.968   4.892  0.6508 -0.1691  0.6537
  137MOL0     C17979   1.273   6.997   4.905 -0.2706 -0.3480  0.3211
  137MOL0     C17980   1.192   7.046   4.802  0.1501 -0.3534  0.1699
  137MOL0     C17981   1.047   7.074   4.830  0.5182  0.3875  0.5011
  137MOL0     O17982   1.010   7.104   4.957 -0.2259  0.3351  0.0213
  137MOL0     C17983   0.883   7.150   4.991  0.0306  0.2258  0.0527
  137MOL0     C17984   0.809   7.091   5.096 -0.8880  0.1882  0.2898
  137MOL0     C17985   0.682   7.130   5.122  0.0458 -0.7183 -0.1887
  137MOL0     C17986   0.623   7.235   5.050  0.2050  0.2497 -1.0231
  137MOL0     O17987   0.496   7.258   5.083 -0.5513 -0.2227 -0.2577
  137MOL0     C17988   0.451   7.393   5.097  0.1292  0.1748  0.1269
  137MOL0     C17989   0.308   7.387   5.146  0.6279 -0.1475 -0.4856
  137MOL0     C17990   0.292   7.321   5.285  0.0015  0.1418  0.1179
  137MOL0     C17991   0.146   7.301   5.328  0.2931  0.3307  0.2227
  137MOL0     C17992   0.068   7.177   5.258 -0.1850  0.1949  0.0766
  137MOL0     C17993  -0.069   7.135   5.304  0.6183 -0.7100  0.3639
  137MOL0     C17994  -0.166   7.236   5.255 -0.4755 -0.1934 -0.2870
  137MOL0     C17995  -0.308   7.238   5.308  0.3815  0.4820 -0.3343
  137MOL0    Cl17996  -0.405   7.338   5.195 -0.2576  0.0169 -0.0799
  137MOL0     C17997   0.695   7.299   4.953 -1.5914 -0.2556  0.9407
  137MOL0     C17998   0.825   7.254   4.920 -0.4222  0.1894  1.2461
  137MOL0     O17999   0.976   7.088   4.740 -0.1383 -0.6341  0.5267
  137MOL0     C18000   1.257   7.061   4.677  0.4478 -0.9741 -0.2953
  137MOL0     C18001   1.392   7.024   4.666 -0.1395  0.6783  0.8127
  137MOL0     N18002   2.099   6.915   4.583 -0.4008 -0.1069  0.4345
  137MOL0     N18003   2.210   6.903   4.518 -0.0737 -0.0276 -0.2489
  137MOL0     C18004   3.269   6.715   5.158 -0.1910  0.8648  0.8427
  137MOL0     C18005   3.366   6.764   5.247  0.6971  0.7868  0.4022
  137MOL0     C18006   3.798   6.928   5.348 -0.8485 -0.1924  0.5218
  137MOL0     C18007   3.762   6.991   5.464 -0.1614 -0.2316 -0.2199
  137MOL0     C18008   3.857   7.081   5.527  0.5227  0.2605  0.1068
  137MOL0     C18009   3.993   7.095   5.481  0.6047 -0.0367  0.4563
  137MOL0     O18010   4.084   7.169   5.560 -0.3374  0.4876 -0.4254
  137MOL0     C18011   4.224   7.122   5.553 -0.0296 -0.3890 -0.5867
  137MOL0     C18012   4.296   7.180   5.679  0.2935 -0.2995  0.0152
  137MOL0     C18013   4.443   7.206   5.664 -0.3496 -0.0222  0.1556
  137MOL0     C18014   4.495   7.315   5.751 -0.0828  0.3660  0.1377
  137MOL0     C18015   4.507   7.278   5.888  0.0769 -1.1222 -0.0257
  137MOL0     C18016   4.543   7.265   6.006  0.8322 -0.7015  1.2238
  137MOL0     C18017   4.026   7.006   5.376 -0.2343 -0.7331  0.1886
  137MOL0     C18018   3.933   6.930   5.304  0.2803 -0.2739  0.7471
  137MOL0     H18019   3.565   6.943   5.042 -0.2728 -0.3658  0.2584
  137MOL0     H18020   3.404   6.851   4.865 -2.3921 -1.2286 -1.0859
  137MOL0     H18021   3.295   6.626   4.766 -0.2514  0.1297  0.3382
  137MOL0     H18022   3.215   6.793   4.763  0.2002 -0.4456 -2.5146
  137MOL0     H18023   3.101   6.499   4.780 -2.1176 -1.0053 -1.8308
  137MOL0     H18024   3.108   6.587   4.629  2.0203 -0.7073  0.4526
  137MOL0     H18025   2.954   6.742   4.699 -0.3691  0.0444 -0.7046
  137MOL0     H18026   2.939   6.677   4.864  1.2966 -0.9920 -0.8266
  137MOL0     H18027   2.872   6.507   4.610 -0.0464 -2.7935  1.2817
  137MOL0     H18028   2.873   6.450   4.763 -0.8705 -0.7198 -2.3117
  137MOL0     H18029   2.697   6.624   4.835  2.2236  0.8794  0.2295
  137MOL0     H18030   2.644   6.498   4.739  0.4346 -0.0404  0.5347
  137MOL0     H18031   2.701   6.668   4.538  0.0637 -2.6417  1.3535
  137MOL0     H18032   2.681   6.790   4.670 -0.6463  0.0752 -0.7962
  137MOL0     H18033   2.475   6.590   4.585  1.7445 -0.2224 -0.5161
  137MOL0     H18034   2.477   6.680   4.738  0.0710 -3.7775  0.1733
  137MOL0     H18035   2.439   6.801   4.456  0.2962  1.1787  0.6739
  137MOL0     H18036   2.485   6.895   4.587  1.6281 -0.6564 -0.0651
  137MOL0     H18037   2.255   6.709   4.780  2.9739 -1.0917 -1.2318
  137MOL0     H18038   2.035   6.828   4.894 -4.3281  2.6589  2.2117
  137MOL0     H18039   1.955   6.715   4.792  0.2205  0.4604  0.9958
  137MOL0     H18040   1.917   7.024   4.772 -1.4926 -0.9337 -1.1633
  137MOL0     H18041   1.819   6.915   4.868 -0.4390  1.3107  0.5392
  137MOL0     H18042   1.851   6.967   4.565 -1.5399  2.4489  0.6284
  137MOL0     H18043   1.769   6.818   4.615 -2.0304  0.7037  1.4846
  137MOL0     H18044   1.623   6.979   4.566 -0.9023  2.3544 -0.7962
  137MOL0     H18045   1.706   7.111   4.659 -0.0651 -0.0805 -0.5536
  137MOL0     H18046   1.472   6.931   4.975 -0.6721 -3.0932  0.3759
  137MOL0     H18047   1.231   6.983   5.004 -3.2911 -1.0441 -0.9557
  137MOL0     H18048   0.837   7.005   5.155  0.9315  1.3407  1.1860
  137MOL0     H18049   0.637   7.091   5.213  1.9157 -1.5910  0.3871
  137MOL0     H18050   0.462   7.459   5.010 -3.2976 -1.1216 -1.4448
  137MOL0     H18051   0.505   7.437   5.182  1.0936 -0.8515  0.0776
  137MOL0     H18052   0.248   7.338   5.069 -0.6182  1.7429 -0.7802
  137MOL0     H18053   0.264   7.487   5.157  0.7656 -0.3823  6.5410
  137MOL0     H18054   0.348   7.380   5.358  0.9027  1.2617 -1.4207
  137MOL0     H18055   0.341   7.224   5.286  1.9420  1.0441  1.8492
  137MOL0     H18056   0.143   7.283   5.435  0.5348  0.7025  0.2950
  137MOL0     H18057   0.101   7.400   5.316  1.7736  1.4712  3.1490
  137MOL0     H18058   0.135   7.093   5.280 -1.7201 -1.4011 -1.0764
  137MOL0     H18059   0.064   7.183   5.149 -1.1983 -0.3461  0.0754
  137MOL0     H18060  -0.073   7.136   5.413  1.0078  0.1885  0.3823
  137MOL0     H18061  -0.090   7.038   5.259 -0.7079  1.3889 -4.1592
  137MOL0     H18062  -0.131   7.339   5.268 -0.5113  0.3052 -3.4411
  137MOL0     H18063  -0.172   7.215   5.148  0.3743 -0.5341 -0.2735
  137MOL0     H18064  -0.323   7.252   5.415 -2.5236 -2.1146 -0.2396
  137MOL0     H18065  -0.340   7.134   5.297 -2.6931  1.1107  1.4498
  137MOL0     H18066   0.648   7.375   4.892 -1.6898 -0.2235  1.0559
  137MOL0     H18067   0.884   7.311   4.849 -0.9763 -0.3454  0.3505
  137MOL0     H18068   1.219   7.124   4.597  0.2157  2.4181  2.2416
  137MOL0     H18069   1.435   7.053   4.571  0.4423  0.6497  1.0615
  137MOL0     H18070   3.190   6.653   5.199 -0.3191  0.5159  0.0869
  137MOL0     H18071   3.364   6.750   5.354 -1.1880 -0.6561  0.2407
  137MOL0     H18072   3.663   6.965   5.501 -0.4513 -1.0577 -1.5341
  137MOL0     H18073   3.816   7.124   5.618  0.8553 -0.1907  0.4736
  137MOL0     H18074   4.264   7.184   5.472 -1.1727  0.5670 -0.4444
  137MOL0     H18075   4.247   7.016   5.542  3.2725  0.3744 -2.3173
  137MOL0     H18076   4.256   7.280   5.700  1.4818  0.2237 -0.1302
  137MOL0     H18077   4.281   7.116   5.766  0.5145  1.7651  1.6597
  137MOL0     H18078   4.458   7.239   5.561  1.6637  2.2315  1.0637
  137MOL0     H18079   4.492   7.112   5.690 -0.3851 -0.0098  0.2699
  137MOL0     H18080   4.593   7.348   5.713  0.1151 -0.7898 -0.3998
  137MOL0     H18081   4.419   7.393   5.756  0.1514  0.6987 -1.1542
  137MOL0     H18082   4.561   7.260   6.111  0.2914  1.9451  1.5088
  137MOL0     H18083   4.124   7.007   5.330  0.5698 -1.2673  1.7938
  137MOL0     H18084   3.965   6.873   5.217  1.1529  0.2589  0.7064
  138MOL0     O18085   5.472   5.247   1.696 -0.1939 -0.0314  0.4454
  138MOL0     C18086   5.573   5.283   1.626  0.5120  0.5857  1.0375
  138MOL0     O18087   5.578   5.325   1.497  1.2361 -0.0320  0.0866
  138MOL0     C18088   5.457   5.317   1.415 -0.7353 -0.3177 -0.1217
  138MOL0     C18089   5.391   5.434   1.381  0.5773 -0.1634  0.0933
  138MOL0     C18090   5.265   5.432   1.310 -0.3472  0.1711  1.0301
  138MOL0     C18091   5.211   5.314   1.269  0.1783 -0.2494  0.6373
  138MOL0     O18092   5.097   5.300   1.189 -0.3377 -0.3117 -0.2249
  138MOL0     C18093   5.002   5.399   1.232  0.2435 -0.0133 -0.4341
  138MOL0     C18094   4.864   5.358   1.182  0.5313  0.7542 -0.0991
  138MOL0     C18095   4.875   5.348   1.029 -0.0330 -0.9619 -0.6486
  138MOL0     C18096   4.744   5.349   0.940 -0.4743 -0.9708 -0.7942
  138MOL0     C18097   4.608   5.296   0.997 -0.5674 -1.2585  0.0937
  138MOL0     C18098   4.490   5.314   0.903 -0.7565  0.4973 -1.0547
  138MOL0     C18099   4.473   5.212   0.791  0.0241 -0.0269 -0.2622
  138MOL0     C18100   4.359   5.240   0.694  0.2290  0.2695  0.3143
  138MOL0     N18101   4.341   5.382   0.664 -0.1427 -0.2613  0.3303
  138MOL0     C18102   4.237   5.457   0.710  0.4060  0.6430 -0.5888
  138MOL0     C18103   4.257   5.590   0.678  0.2357  0.3248  0.5700
  138MOL0     C18104   4.175   5.710   0.722 -0.2378  0.1585  0.4823
  138MOL0     C18105   4.040   5.715   0.642  0.2506  0.4309 -0.2562
  138MOL0     C18106   3.962   5.849   0.637 -0.9594  0.4224  0.6086
  138MOL0     C18107   3.840   5.846   0.544  0.4359  0.0638  0.4496
  138MOL0     O18108   3.746   5.755   0.599  1.1374 -0.4438  0.9316
  138MOL0     C18109   3.618   5.741   0.533 -0.1583 -1.1992 -0.0735
  138MOL0     C18110   3.584   5.808   0.408  0.6796 -0.2154  0.1076
  138MOL0     C18111   3.452   5.780   0.350 -0.0258 -0.1509 -0.0183
  138MOL0     C18112   3.353   5.702   0.419  0.3558 -0.0137 -0.0487
  138MOL0     C18113   3.221   5.685   0.361  0.1276  0.6439 -0.3884
  138MOL0     O18114   3.121   5.620   0.433  0.1701 -0.5413 -0.3480
  138MOL0     C18115   2.993   5.594   0.379 -0.2526 -0.6928  0.0383
  138MOL0     C18116   2.912   5.522   0.466 -0.6748 -0.3707  0.4817
  138MOL0     C18117   2.778   5.497   0.440 -0.0426 -0.1095 -0.6217
  138MOL0     C18118   2.722   5.551   0.324 -0.3653 -0.2192  0.0718
  138MOL0     O18119   2.590   5.519   0.303  0.7909  0.4131 -0.2262
  138MOL0     C18120   2.522   5.576   0.188 -0.4646  0.2475  0.1768
  138MOL0     C18121   2.386   5.514   0.183  0.7565  1.1204 -0.1772
  138MOL0     C18122   2.294   5.569   0.075 -0.9941 -0.5559  0.5082
  138MOL0     C18123   2.157   5.490   0.067 -0.8300  0.6157  0.0892
  138MOL0     C18124   2.066   5.562  -0.039  0.7078  0.1308 -0.0897
  138MOL0     C18125   1.932   5.493  -0.043 -0.7502 -0.0966  0.5819
  138MOL0     C18126   1.856   5.561  -0.154  0.3443  0.1885 -0.0676
  138MOL0     C18127   1.701   5.543  -0.144 -0.1894 -0.7066  0.4821
  138MOL0    Cl18128   1.675   5.375  -0.098  0.5992 -0.0990 -0.3321
  138MOL0     C18129   2.802   5.641   0.238  0.0317  0.3296  0.0737
  138MOL0     C18130   2.936   5.657   0.265 -0.0993 -0.1559  0.0890
  138MOL0     O18131   3.207   5.734   0.249  0.2255 -0.5977 -0.2291
  138MOL0     C18132   3.391   5.644   0.539 -0.7101 -0.4368  0.5094
  138MOL0     C18133   3.522   5.665   0.594  0.0336  1.0492  0.2093
  138MOL0     N18134   4.386   5.585   0.619 -0.1488  0.7772  0.0239
  138MOL0     N18135   4.427   5.463   0.609 -0.1851  0.9231  0.0259
  138MOL0     C18136   5.286   5.197   1.292  0.7494  0.6733 -0.0957
  138MOL0     C18137   5.406   5.201   1.372  1.0252 -1.0202  0.3594
  138MOL0     C18138   5.707   5.263   1.687  0.8247  0.3680 -0.4856
  138MOL0     C18139   5.722   5.169   1.791  0.1430  1.1842  0.5559
  138MOL0     C18140   5.847   5.149   1.856 -0.4018 -0.7694 -0.0223
  138MOL0     C18141   5.953   5.226   1.812  0.1893  0.3970 -0.4125
  138MOL0     O18142   6.074   5.212   1.866  0.2515 -0.0421  0.2718
  138MOL0     C18143   6.133   5.089   1.897  0.2141 -0.1646 -0.0316
  138MOL0     C18144   6.117   5.076   2.057 -0.0545 -0.7439  0.2802
  138MOL0     C18145   6.218   4.983   2.102  0.5831  1.6051 -0.7976
  138MOL0     C18146   6.166   4.897   2.221 -0.0590 -0.3049 -0.5822
  138MOL0     C18147   6.073   4.790   2.180 -0.2054 -0.3527 -0.6452
  138MOL0     C18148   5.995   4.704   2.154 -0.9290  0.6548  0.5378
  138MOL0     C18149   5.938   5.322   1.709  0.0722  0.1735  0.2152
  138MOL0     C18150   5.813   5.342   1.650  0.2848  0.5810  0.1538
  138MOL0     H18151   5.449   5.523   1.405 -1.6466  2.0797 -2.2384
  138MOL0     H18152   5.224   5.532   1.295 -0.5666 -0.1419 -0.6692
  138MOL0     H18153   5.027   5.498   1.191  1.6243 -0.9660 -2.0467
  138MOL0     H18154   4.995   5.409   1.340 -0.0853  0.6365 -0.5092
  138MOL0     H18155   4.788   5.428   1.219 -0.1509  1.0213 -1.8743
  138MOL0     H18156   4.836   5.260   1.223 -1.8317  0.7757 -1.4442
  138MOL0     H18157   4.929   5.254   1.015 -1.7659 -2.2061  0.6010
  138MOL0     H18158   4.943   5.423   0.987  1.3052 -2.4814 -1.2965
  138MOL0     H18159   4.729   5.450   0.902  0.9408 -0.5839 -0.3823
  138MOL0     H18160   4.767   5.286   0.854  0.9569 -0.4784 -0.8123
  138MOL0     H18161   4.590   5.342   1.095 -0.2252 -0.7207 -0.0906
  138MOL0     H18162   4.625   5.190   1.014  3.2700 -0.7776  0.1908
  138MOL0     H18163   4.499   5.417   0.866 -1.5400  1.5915  1.5791
  138MOL0     H18164   4.401   5.311   0.967  0.7139 -0.8598  1.0547
  138MOL0     H18165   4.571   5.204   0.742  0.1191 -3.7008  0.2317
  138MOL0     H18166   4.453   5.113   0.833 -2.3915 -1.4801 -4.2347
  138MOL0     H18167   4.274   5.206   0.755  0.1593  3.4571  2.1812
  138MOL0     H18168   4.375   5.178   0.605  1.8656  2.1714 -0.7833
  138MOL0     H18169   4.146   5.431   0.761 -1.3423  1.1457 -3.2481
  138MOL0     H18170   4.228   5.806   0.720  0.2706 -0.0776  1.6798
  138MOL0     H18171   4.134   5.686   0.821 -4.8088 -0.8323 -1.4307
  138MOL0     H18172   3.974   5.630   0.663 -0.0963  0.6046 -0.6280
  138MOL0     H18173   4.077   5.715   0.540 -1.0795 -1.5854 -0.8071
  138MOL0     H18174   3.927   5.870   0.739 -2.4604  1.1620 -0.0233
  138MOL0     H18175   4.033   5.923   0.600 -0.4064 -0.3812  0.0430
  138MOL0     H18176   3.869   5.817   0.442  0.2665  0.8475  0.1710
  138MOL0     H18177   3.790   5.943   0.547 -2.0327 -1.1338  0.3575
  138MOL0     H18178   3.649   5.875   0.354  1.2128  1.8863  3.0806
  138MOL0     H18179   3.435   5.827   0.253  2.7869 -0.5600 -0.7938
  138MOL0     H18180   2.951   5.477   0.557 -0.5157 -1.5906 -0.1744
  138MOL0     H18181   2.728   5.419   0.497  2.0436 -0.9073  0.1853
  138MOL0     H18182   2.579   5.536   0.104  0.6603 -2.2449  1.9944
  138MOL0     H18183   2.513   5.685   0.186 -3.3358  0.0899  0.0799
  138MOL0     H18184   2.334   5.505   0.279 -1.8082  0.4742 -1.5587
  138MOL0     H18185   2.406   5.412   0.147 -1.4189  0.0919  1.2938
  138MOL0     H18186   2.344   5.569  -0.022 -1.0611 -0.3410  0.4735
  138MOL0     H18187   2.271   5.673   0.099  1.3367 -0.0044  0.5829
  138MOL0     H18188   2.176   5.391   0.022  0.6443  0.4946  0.8978
  138MOL0     H18189   2.109   5.476   0.164 -1.5083 -2.6495 -0.5924
  138MOL0     H18190   2.115   5.559  -0.137  0.1322  3.8700 -0.6107
  138MOL0     H18191   2.061   5.663   0.001  0.5724  0.3707 -0.7070
  138MOL0     H18192   1.883   5.492   0.055 -0.6325 -0.2507  0.6410
  138MOL0     H18193   1.928   5.390  -0.081 -4.5491  0.0680  0.1457
  138MOL0     H18194   1.879   5.668  -0.163  0.5799  0.2311  0.9134
  138MOL0     H18195   1.889   5.512  -0.246 -0.2696 -0.4848  0.0661
  138MOL0     H18196   1.660   5.541  -0.245 -0.9261 -2.2055  0.7859
  138MOL0     H18197   1.645   5.618  -0.086  1.5126 -1.2152  2.9416
  138MOL0     H18198   2.765   5.678   0.143  1.9346  0.5023 -0.6396
  138MOL0     H18199   3.005   5.722   0.212 -0.3440  1.6930  1.9136
  138MOL0     H18200   3.319   5.587   0.597 -1.5683 -1.4361 -1.4506
  138MOL0     H18201   3.541   5.620   0.691 -1.2118  1.3308  0.6067
  138MOL0     H18202   5.247   5.103   1.254  0.5356  1.6031 -2.2759
  138MOL0     H18203   5.473   5.119   1.398  1.3338 -0.6471  0.7639
  138MOL0     H18204   5.640   5.108   1.830  1.9498 -2.2658 -0.6187
  138MOL0     H18205   5.851   5.075   1.936  2.5629  0.2508  0.8700
  138MOL0     H18206   6.237   5.101   1.867  0.1618  1.5603  0.3862
  138MOL0     H18207   6.090   5.004   1.843 -0.0264  0.4185 -0.7634
  138MOL0     H18208   6.135   5.167   2.113 -0.4516 -2.5933  3.6822
  138MOL0     H18209   6.020   5.032   2.079  0.4794 -2.1404 -0.0358
  138MOL0     H18210   6.309   5.039   2.125  0.3437  2.0197 -0.8642
  138MOL0     H18211   6.240   4.915   2.019 -0.5527  1.2926 -0.8631
  138MOL0     H18212   6.254   4.867   2.280  0.6373  1.2051 -0.8058
  138MOL0     H18213   6.106   4.959   2.288 -0.0014 -2.2622  1.4164
  138MOL0     H18214   5.925   4.628   2.127 -0.5695  0.5242 -0.0543
  138MOL0     H18215   6.026   5.378   1.678  0.9192 -0.2657  1.7055
  138MOL0     H18216   5.801   5.406   1.564  0.1266 -0.7113 -0.8261
  139MOL0     O18217   8.089   9.029   5.354 -0.0216  0.2879 -0.9209
  139MOL0     C18218   8.099   8.912   5.319  0.0416 -0.2926  0.3566
  139MOL0     O18219   8.000   8.822   5.325 -0.1728 -0.0852 -0.2905
  139MOL0     C18220   7.871   8.864   5.382 -0.4113  0.5263  0.6493
  139MOL0     C18221   7.851   8.829   5.519 -0.7388 -0.3536 -0.5234
  139MOL0     C18222   7.737   8.853   5.587  0.6772 -0.2412 -0.0148
  139MOL0     C18223   7.629   8.915   5.520 -1.2100  1.7179 -0.5248
  139MOL0     O18224   7.521   8.945   5.590  0.4722  0.3436  1.0820
  139MOL0     C18225   7.403   8.885   5.540  0.1347 -0.6254  0.6155
  139MOL0     C18226   7.277   8.970   5.579  0.2013  0.1308  0.6192
  139MOL0     C18227   7.283   9.116   5.541 -0.0629 -0.6931 -0.1871
  139MOL0     C18228   7.142   9.181   5.556 -0.0607 -0.0479 -0.5822
  139MOL0     C18229   7.130   9.324   5.502  0.3820  0.2854 -0.5355
  139MOL0     C18230   7.090   9.316   5.357 -0.3591 -1.3085 -0.1925
  139MOL0     C18231   7.098   9.452   5.295 -0.6070 -0.0117 -0.7086
  139MOL0     C18232   7.014   9.458   5.165  0.2835 -0.3068  0.2275
  139MOL0     N18233   6.994   9.595   5.125  0.1564 -0.2169  0.5476
  139MOL0     C18234   6.868   9.658   5.122  0.1529 -0.5315  0.6054
  139MOL0     C18235   6.897   9.791   5.090 -0.5313  0.5936 -0.3485
  139MOL0     C18236   6.790   9.890   5.079  0.2964  0.7585 -0.8354
  139MOL0     C18237   6.786   9.960   4.939 -0.2783 -0.1010  0.3081
  139MOL0     C18238   6.657  10.049   4.912  0.7662 -0.1181 -0.3013
  139MOL0     C18239   6.640  10.155   5.019  0.4911  0.1463  1.2815
  139MOL0     O18240   6.570  10.260   4.960 -0.0581  0.3896 -0.3833
  139MOL0     C18241   6.603  10.377   5.018 -0.7159  0.8933  0.5717
  139MOL0     C18242   6.552  10.401   5.146 -0.0528 -0.5754  0.7533
  139MOL0     C18243   6.585  10.522   5.206  1.0522 -0.8563  0.1437
  139MOL0     C18244   6.663  10.620   5.145 -0.9596  0.0079  0.2004
  139MOL0     C18245   6.685  10.751   5.201 -0.1169 -0.1058  0.6146
  139MOL0     O18246   6.595  10.793   5.296  0.7236 -0.8092 -0.0613
  139MOL0     C18247   6.568  10.929   5.323  0.5440  0.8967  0.8130
  139MOL0     C18248   6.667  11.012   5.375  0.2136  0.1197 -1.3188
  139MOL0     C18249   6.651  11.144   5.423  0.5997  0.2984  0.7352
  139MOL0     C18250   6.518  11.195   5.398  0.0056  0.0590  0.6727
  139MOL0     O18251   6.476  11.321   5.426  0.5088 -0.6555 -0.3371
  139MOL0     C18252   6.546  11.391   5.529 -0.2073 -0.9277  0.7190
  139MOL0     C18253   6.435  11.461   5.601 -0.0454 -0.7654 -0.1980
  139MOL0     C18254   6.488  11.536   5.733 -0.9062 -0.6099 -0.6178
  139MOL0     C18255   6.605  11.643   5.724  0.4711 -0.4403  0.7793
  139MOL0     C18256   6.668  11.679   5.857  0.0923  0.0538  0.6272
  139MOL0     C18257   6.571  11.759   5.950  0.5351  0.6699 -0.2906
  139MOL0     C18258   6.624  11.894   6.004 -0.8356 -0.1822  0.5936
  139MOL0     C18259   6.738  11.890   6.108  0.3931 -0.8530  0.3736
  139MOL0    Cl18260   6.891  11.832   6.032  0.3933  0.2364 -0.1128
  139MOL0     C18261   6.427  11.117   5.320  0.4365  0.5853 -0.1797
  139MOL0     C18262   6.455  10.990   5.279  0.9221 -0.6581 -0.3707
  139MOL0     O18263   6.768  10.816   5.145  0.3079  0.7189  0.1399
  139MOL0     C18264   6.721  10.577   5.019 -0.2374 -0.6213 -0.1703
  139MOL0     C18265   6.697  10.455   4.962 -1.4756  0.2453 -0.1675
  139MOL0     N18266   7.033   9.805   5.085 -0.0483  0.2382  0.7356
  139MOL0     N18267   7.090   9.692   5.087  0.0861 -0.2889 -0.1759
  139MOL0     C18268   7.645   8.959   5.387 -0.1361  0.0570 -0.1308
  139MOL0     C18269   7.764   8.931   5.317 -0.5180  0.3970  0.5796
  139MOL0     C18270   8.224   8.864   5.250 -0.1678  0.0591  0.0381
  139MOL0     C18271   8.335   8.949   5.243  0.2956  0.0865 -0.1701
  139MOL0     C18272   8.455   8.904   5.182  0.3624 -0.3879 -1.1478
  139MOL0     C18273   8.469   8.767   5.141 -0.1430  0.4897  0.0929
  139MOL0     O18274   8.584   8.720   5.086 -0.9753  0.5240  0.2137
  139MOL0     C18275   8.706   8.782   5.119 -0.2335 -0.2558  0.4585
  139MOL0     C18276   8.821   8.703   5.055  0.5818  0.4917 -0.2220
  139MOL0     C18277   8.959   8.747   5.092  0.3131 -0.1385 -0.7605
  139MOL0     C18278   9.035   8.628   5.159  1.2113 -0.2451  0.2169
  139MOL0     C18279   9.165   8.685   5.194 -0.5038  1.1257 -0.2435
  139MOL0     C18280   9.280   8.718   5.195  0.3828  0.4030 -0.3514
  139MOL0     C18281   8.352   8.695   5.140 -0.2557  1.1233 -0.5331
  139MOL0     C18282   8.231   8.736   5.188  0.3774 -0.7169 -0.2196
  139MOL0     H18283   7.928   8.787   5.583 -1.1481  0.8341  0.7959
  139MOL0     H18284   7.726   8.837   5.694 -2.8940  0.6957 -0.1176
  139MOL0     H18285   7.401   8.785   5.585 -0.1461  0.6329  3.6716
  139MOL0     H18286   7.410   8.869   5.432  1.1483  1.6550  0.2816
  139MOL0     H18287   7.271   8.971   5.688 -1.4590  0.1406  0.5586
  139MOL0     H18288   7.182   8.926   5.546 -1.3698 -0.7153  5.3785
  139MOL0     H18289   7.322   9.128   5.439  1.2928 -1.4899  0.2125
  139MOL0     H18290   7.355   9.170   5.603  1.9808  0.2741 -3.1678
  139MOL0     H18291   7.057   9.126   5.515 -1.4533 -0.3083  2.4237
  139MOL0     H18292   7.132   9.177   5.665 -0.0817  0.3082 -0.5708
  139MOL0     H18293   7.221   9.384   5.519  0.4740  0.2202 -0.7924
  139MOL0     H18294   7.049   9.352   5.569  1.0433  0.4390  0.2226
  139MOL0     H18295   6.985   9.286   5.358  0.1334 -3.1722 -0.2910
  139MOL0     H18296   7.155   9.247   5.301 -1.5660 -0.9883 -2.1025
  139MOL0     H18297   7.053   9.514   5.374  1.0182 -1.2282  1.2939
  139MOL0     H18298   7.199   9.489   5.275 -0.8366  0.7172 -0.5732
  139MOL0     H18299   6.914   9.415   5.178 -0.9428  1.2221 -2.8553
  139MOL0     H18300   7.056   9.398   5.083 -1.6218 -2.5943  0.8150
  139MOL0     H18301   6.769   9.614   5.119  0.2353 -0.7028 -1.2141
  139MOL0     H18302   6.816   9.965   5.154 -0.5519 -0.8743  1.1717
  139MOL0     H18303   6.689   9.854   5.100  1.1180 -1.0161  0.2952
  139MOL0     H18304   6.782   9.880   4.864 -0.5991  1.9725 -2.0331
  139MOL0     H18305   6.874  10.020   4.916 -0.4362  0.6569  1.5851
  139MOL0     H18306   6.668  10.100   4.817 -0.3656 -0.7751 -0.8173
  139MOL0     H18307   6.566   9.987   4.907  0.6361  0.0293  0.1382
  139MOL0     H18308   6.736  10.185   5.063 -0.0089  0.0201  2.4950
  139MOL0     H18309   6.580  10.117   5.103 -0.0625 -1.1552  0.3277
  139MOL0     H18310   6.494  10.330   5.203 -2.5855  1.4989  0.9227
  139MOL0     H18311   6.544  10.556   5.301  2.5959 -0.4709  0.7086
  139MOL0     H18312   6.755  10.952   5.392  0.5142  0.7906 -0.4576
  139MOL0     H18313   6.728  11.203   5.471 -2.2974  5.0971  0.2440
  139MOL0     H18314   6.623  11.454   5.484  0.8659 -3.0054 -0.5057
  139MOL0     H18315   6.606  11.336   5.602  1.2727  0.9122  0.9640
  139MOL0     H18316   6.345  11.405   5.629 -1.9022  1.8400 -0.5328
  139MOL0     H18317   6.399  11.546   5.541 -2.2367 -0.0900  1.9039
  139MOL0     H18318   6.521  11.456   5.799 -2.4141 -1.0445 -0.3640
  139MOL0     H18319   6.401  11.584   5.779 -1.5973 -1.6012 -0.8742
  139MOL0     H18320   6.692  11.616   5.663 -0.5236 -0.5541 -0.6348
  139MOL0     H18321   6.567  11.727   5.665  1.9632  1.8662  2.8706
  139MOL0     H18322   6.753  11.740   5.827 -1.1339  2.3924  1.6262
  139MOL0     H18323   6.722  11.594   5.901  1.2167  0.1475 -0.5483
  139MOL0     H18324   6.540  11.703   6.039  1.8762  0.8468  0.3263
  139MOL0     H18325   6.482  11.780   5.891  0.6996  4.9696  0.6627
  139MOL0     H18326   6.643  11.963   5.921 -3.0526  1.8287  1.6143
  139MOL0     H18327   6.540  11.951   6.045 -0.5111 -1.7867  3.7689
  139MOL0     H18328   6.705  11.836   6.197 -2.3766  3.4078  2.2439
  139MOL0     H18329   6.757  11.990   6.147 -0.3790 -2.1059  4.3286
  139MOL0     H18330   6.341  11.165   5.275 -1.2644 -2.2084 -0.1628
  139MOL0     H18331   6.389  10.924   5.223  1.5737 -0.1222 -1.8320
  139MOL0     H18332   6.787  10.649   4.971  2.3581 -2.4295  0.4885
  139MOL0     H18333   6.746  10.429   4.868  1.8646 -0.4632  1.6356
  139MOL0     H18334   7.568   9.003   5.324 -1.0913 -1.8067 -0.3156
  139MOL0     H18335   7.784   8.950   5.212  1.1248 -4.4714 -0.2637
  139MOL0     H18336   8.326   9.056   5.256 -2.2852 -0.1201  0.4118
  139MOL0     H18337   8.531   8.982   5.175  3.1452 -2.8900 -0.8984
  139MOL0     H18338   8.722   8.784   5.228  4.7462 -0.7855 -0.0250
  139MOL0     H18339   8.694   8.885   5.083  1.5610 -0.0527  0.3168
  139MOL0     H18340   8.819   8.595   5.076  3.1570  0.5160  0.4117
  139MOL0     H18341   8.810   8.716   4.947  0.3387 -1.1117 -0.4244
  139MOL0     H18342   8.946   8.836   5.153  0.6203 -0.8131  0.3237
  139MOL0     H18343   9.008   8.776   4.998  0.8188  1.8297  0.0673
  139MOL0     H18344   8.990   8.594   5.253 -1.0887 -1.5230 -1.2622
  139MOL0     H18345   9.054   8.545   5.091  0.1068  1.0019 -1.6903
  139MOL0     H18346   9.384   8.733   5.217 -0.0712 -0.1800  2.6540
  139MOL0     H18347   8.362   8.590   5.111 -1.8936 -1.2613  5.9192
  139MOL0     H18348   8.144   8.671   5.190 -0.9275  0.9731  0.9492
  140MOL0     O18349  10.786  10.082   9.341 -0.0791 -0.0502 -0.1330
  140MOL0     C18350  10.730  10.022   9.433 -0.5790 -0.2012 -0.4050
  140MOL0     O18351  10.594  10.013   9.444 -0.2728  0.6788  0.8305
  140MOL0     C18352  10.507  10.050   9.341  0.0244 -0.0479  0.8596
  140MOL0     C18353  10.481   9.967   9.235  0.3443 -0.2339  0.2914
  140MOL0     C18354  10.385   9.998   9.141  0.5486 -1.0658  0.4524
  140MOL0     C18355  10.292  10.100   9.163  0.0076  0.1974 -0.1050
  140MOL0     O18356  10.187  10.118   9.076  0.5843 -0.7731 -1.1018
  140MOL0     C18357  10.064  10.166   9.122  0.4714 -0.7221  0.7915
  140MOL0     C18358   9.957  10.153   9.014  0.1606  0.2058 -0.1143
  140MOL0     C18359   9.818  10.169   9.054 -0.4521  0.3172  0.5568
  140MOL0     C18360   9.770  10.062   9.151 -0.6048 -0.2829  1.1185
  140MOL0     C18361   9.732  10.123   9.286  0.3397  0.6257  0.2786
  140MOL0     C18362   9.720  10.023   9.395  0.1891 -0.7278 -0.4686
  140MOL0     C18363   9.586   9.950   9.394  0.1990  0.8906  0.2767
  140MOL0     C18364   9.595   9.863   9.517  0.1539  0.7758 -0.0437
  140MOL0     N18365   9.680   9.741   9.508 -0.5944 -0.5770 -0.0486
  140MOL0     C18366   9.627   9.630   9.555  0.8228  0.0631 -0.2121
  140MOL0     C18367   9.725   9.547   9.601  0.1613  0.0871  0.3208
  140MOL0     C18368   9.710   9.405   9.664  1.3017 -0.0847 -0.3109
  140MOL0     C18369   9.558   9.350   9.672 -0.6258  1.0202 -0.5167
  140MOL0     C18370   9.507   9.298   9.540  0.5490  1.3715  0.7615
  140MOL0     C18371   9.365   9.240   9.574  0.0394  0.6639  0.5944
  140MOL0     O18372   9.320   9.200   9.450 -0.4250  0.1589  0.1279
  140MOL0     C18373   9.194   9.147   9.434  0.7681 -0.1535  0.9657
  140MOL0     C18374   9.106   9.121   9.540 -0.5807  0.3057  0.3309
  140MOL0     C18375   8.985   9.053   9.505  0.9953  0.8221  0.0769
  140MOL0     C18376   8.945   9.011   9.376 -1.1550  0.4276 -0.3369
  140MOL0     C18377   8.800   8.973   9.341  0.1077 -0.2205 -0.1188
  140MOL0     O18378   8.700   8.989   9.441 -0.7452  0.5919 -0.4775
  140MOL0     C18379   8.573   8.950   9.420  0.4223 -0.7197  0.2147
  140MOL0     C18380   8.535   8.812   9.430  0.2874  0.1327 -0.6891
  140MOL0     C18381   8.403   8.777   9.409 -0.4144 -0.1328 -0.3028
  140MOL0     C18382   8.307   8.877   9.384 -0.1999  0.1104  0.5789
  140MOL0     O18383   8.179   8.848   9.346 -0.9028 -0.8700  0.5256
  140MOL0     C18384   8.137   8.712   9.345  0.3681  1.2021  0.0879
  140MOL0     C18385   8.013   8.706   9.261 -0.3970  0.2206 -0.4784
  140MOL0     C18386   7.895   8.755   9.349 -0.3222  0.9404 -0.4955
  140MOL0     C18387   7.782   8.802   9.270 -0.4908 -0.4721 -0.6341
  140MOL0     C18388   7.661   8.826   9.366  0.5124  0.0751  0.3628
  140MOL0     C18389   7.527   8.860   9.289  0.1683 -0.7219 -0.0461
  140MOL0     C18390   7.404   8.873   9.385 -0.5027 -0.8547 -0.1610
  140MOL0     C18391   7.277   8.866   9.304 -0.3636  0.3494  0.5000
  140MOL0    Cl18392   7.129   8.840   9.393 -0.1065 -0.1198  0.6469
  140MOL0     C18393   8.349   9.015   9.371 -0.9492 -0.2071  0.8528
  140MOL0     C18394   8.482   9.049   9.392 -0.2136 -0.4968  0.8343
  140MOL0     O18395   8.778   8.927   9.229  0.3883 -0.3589  0.0882
  140MOL0     C18396   9.038   9.038   9.275  0.1255  0.3627 -1.5414
  140MOL0     C18397   9.153   9.100   9.306  0.2150 -0.1503  0.9447
  140MOL0     N18398   9.841   9.615   9.586 -0.5277  0.7491 -0.2669
  140MOL0     N18399   9.815   9.727   9.533 -0.5006 -0.3188 -0.6514
  140MOL0     C18400  10.310  10.181   9.272  0.5150 -0.0665  0.1587
  140MOL0     C18401  10.423  10.161   9.360 -0.3638 -0.4931  0.4623
  140MOL0     C18402  10.816   9.973   9.542  0.1780 -1.0055  0.1099
  140MOL0     C18403  10.767   9.969   9.674 -0.2569 -0.8116  0.4929
  140MOL0     C18404  10.855   9.957   9.780  0.0612  0.2730 -0.7074
  140MOL0     C18405  10.990   9.929   9.758  0.0370  0.2097 -0.6491
  140MOL0     O18406  11.066   9.922   9.869 -0.0444 -0.9106 -0.7507
  140MOL0     C18407  11.216   9.900   9.844 -0.8130  0.3800  0.4121
  140MOL0     C18408  11.256   9.751   9.818 -0.6433  0.3477 -0.6475
  140MOL0     C18409  11.406   9.727   9.802 -0.1782  0.0532 -0.1796
  140MOL0     C18410  11.463   9.785   9.674  0.8229  0.0965 -0.0503
  140MOL0     C18411  11.410   9.723   9.557 -0.2415  0.8562  0.6912
  140MOL0     C18412  11.364   9.682   9.451  0.1920 -0.0759  0.3530
  140MOL0     C18413  11.042   9.930   9.623 -0.3369 -0.7771 -0.0478
  140MOL0     C18414  10.954   9.960   9.518 -0.0176  1.0108  0.1111
  140MOL0     H18415  10.547   9.884   9.210 -0.1974 -0.3224 -0.9425
  140MOL0     H18416  10.391   9.937   9.051  1.6745 -0.2038 -0.0670
  140MOL0     H18417  10.074  10.272   9.147  0.9718 -0.4686 -0.3859
  140MOL0     H18418  10.045  10.102   9.208  2.0933 -0.7302  1.1734
  140MOL0     H18419   9.967  10.052   8.976 -0.1130  0.1050  0.0756
  140MOL0     H18420   9.970  10.229   8.936  0.2482  0.3746  0.0655
  140MOL0     H18421   9.761  10.165   8.961  3.0211  0.5078 -1.7805
  140MOL0     H18422   9.795  10.268   9.092  0.1582  0.1021  1.5121
  140MOL0     H18423   9.687  10.004   9.111 -3.2904  4.0965 -0.3100
  140MOL0     H18424   9.857   9.997   9.167  0.1553  0.7162  1.2086
  140MOL0     H18425   9.637  10.177   9.275  0.8499  1.2407 -1.6229
  140MOL0     H18426   9.808  10.198   9.308  1.1568 -0.5724  1.6932
  140MOL0     H18427   9.732  10.080   9.487  0.3141  0.0362 -0.9523
  140MOL0     H18428   9.798   9.947   9.380 -0.1127 -0.9459 -0.9585
  140MOL0     H18429   9.510  10.028   9.402 -0.5297  0.1390  0.8184
  140MOL0     H18430   9.577   9.897   9.299 -0.3705  1.9478 -0.2769
  140MOL0     H18431   9.494   9.821   9.522 -0.1040  1.5145  1.9961
  140MOL0     H18432   9.623   9.917   9.608 -0.7498  0.7628  0.2500
  140MOL0     H18433   9.522   9.620   9.579  1.8126 -0.9020  4.8996
  140MOL0     H18434   9.741   9.408   9.769 -1.0461  2.9077  0.4548
  140MOL0     H18435   9.777   9.338   9.610  3.0737  0.1046  1.5470
  140MOL0     H18436   9.497   9.425   9.723 -0.1851 -0.3971  2.3026
  140MOL0     H18437   9.561   9.261   9.735 -1.6605  0.9187 -0.5959
  140MOL0     H18438   9.495   9.375   9.464 -0.7415  0.3232 -0.1391
  140MOL0     H18439   9.571   9.215   9.509 -1.8639  0.1272 -1.2688
  140MOL0     H18440   9.290   9.312   9.608 -1.2892  0.2269 -1.2660
  140MOL0     H18441   9.377   9.152   9.637  1.4071  0.9344  0.7509
  140MOL0     H18442   9.116   9.146   9.645 -2.1517 -1.1736  0.8826
  140MOL0     H18443   8.922   9.035   9.591  0.6103 -1.8935 -0.6663
  140MOL0     H18444   8.616   8.742   9.449 -0.4539 -1.1036 -1.9402
  140MOL0     H18445   8.381   8.671   9.421 -0.8260 -0.0198 -0.0486
  140MOL0     H18446   8.102   8.686   9.446 -0.5529  0.9033 -0.2962
  140MOL0     H18447   8.208   8.640   9.304  0.1521  0.8373  0.3410
  140MOL0     H18448   7.998   8.610   9.210 -1.0603 -0.6973  1.3388
  140MOL0     H18449   8.033   8.779   9.183 -1.1821  2.2702  1.1507
  140MOL0     H18450   7.926   8.839   9.412 -0.2055  0.4580  0.0942
  140MOL0     H18451   7.868   8.673   9.417  1.8225  3.2163  3.4354
  140MOL0     H18452   7.823   8.894   9.228  0.6884 -0.3059  0.7641
  140MOL0     H18453   7.759   8.735   9.187  0.9381  0.6344 -1.9729
  140MOL0     H18454   7.679   8.909   9.434 -1.0207 -2.3282  4.0434
  140MOL0     H18455   7.640   8.738   9.428  0.3854 -0.8688 -0.9756
  140MOL0     H18456   7.509   8.774   9.223  0.1690 -0.7105 -0.0609
  140MOL0     H18457   7.526   8.949   9.226 -0.4481 -0.4015  0.4096
  140MOL0     H18458   7.404   8.796   9.463 -3.2242 -1.7570 -0.9509
  140MOL0     H18459   7.422   8.969   9.435 -2.2442 -0.5453 -0.0619
  140MOL0     H18460   7.286   8.797   9.220 -0.0466 -0.6501  1.3343
  140MOL0     H18461   7.266   8.967   9.263  0.3041  0.9464  1.7215
  140MOL0     H18462   8.283   9.091   9.330 -0.3484 -0.4570 -0.6661
  140MOL0     H18463   8.503   9.155   9.385 -2.5999 -0.0113  0.2392
  140MOL0     H18464   9.003   9.018   9.174  0.3206 -0.9666 -1.3582
  140MOL0     H18465   9.215   9.128   9.221 -1.4559  0.0942 -0.2341
  140MOL0     H18466  10.250  10.265   9.304 -0.7480 -0.5200 -0.9170
  140MOL0     H18467  10.420  10.232   9.442 -2.3758  0.6862 -0.5508
  140MOL0     H18468  10.664  10.001   9.687 -0.4447 -1.2058 -0.0030
  140MOL0     H18469  10.807   9.965   9.877  1.6834 -1.0685  0.2598
  140MOL0     H18470  11.254   9.941   9.939 -1.1242  0.7861  0.3652
  140MOL0     H18471  11.257   9.962   9.764  1.6331 -1.2898  0.2525
  140MOL0     H18472  11.214   9.696   9.902  1.3767  0.2692  0.3820
  140MOL0     H18473  11.196   9.708   9.737  0.5538  1.8297 -2.4034
  140MOL0     H18474  11.411   9.618   9.793 -2.4778  0.0163 -2.0973
  140MOL0     H18475  11.477   9.749   9.882 -1.2112 -3.8193  1.9982
  140MOL0     H18476  11.458   9.894   9.667 -0.3565  0.1549  1.2192
  140MOL0     H18477  11.571   9.768   9.672  1.2702  2.6078 -0.2961
  140MOL0     H18478  11.330   9.642   9.358 -1.4144 -1.2532  1.3964
  140MOL0     H18479  11.145   9.907   9.600  0.5981  0.9181  2.0120
  140MOL0     H18480  11.010   9.966   9.426  2.7227 -2.3423  1.3418
  141MOL0     O18481   1.185   4.782   5.249 -0.6783 -0.4401  0.5472
  141MOL0     C18482   1.258   4.835   5.331 -0.5069  0.2718  0.1451
  141MOL0     O18483   1.223   4.875   5.464 -0.8825  0.4448  0.5565
  141MOL0     C18484   1.109   4.822   5.522  0.3171 -0.5816  0.1638
  141MOL0     C18485   1.115   4.684   5.552 -0.3527 -0.1902  0.6607
  141MOL0     C18486   0.997   4.617   5.597  0.1607 -0.5888 -0.8092
  141MOL0     C18487   0.885   4.695   5.640 -0.0152  0.3875  1.2789
  141MOL0     O18488   0.780   4.643   5.708 -0.0324  0.3674 -0.2160
  141MOL0     C18489   0.767   4.505   5.736  0.4040 -0.4257  0.5727
  141MOL0     C18490   0.641   4.485   5.821  0.5387  0.3254  1.2265
  141MOL0     C18491   0.512   4.552   5.774  0.2018 -0.9131  0.3034
  141MOL0     C18492   0.453   4.514   5.638  0.2409 -0.6022 -0.2177
  141MOL0     C18493   0.346   4.611   5.601 -0.2206 -0.6808 -1.0444
  141MOL0     C18494   0.246   4.584   5.489  0.0159  1.1318  0.4958
  141MOL0     C18495   0.202   4.439   5.484 -0.1569  0.5769  0.8166
  141MOL0     C18496   0.092   4.407   5.587  0.2710  1.5373  0.2885
  141MOL0     N18497  -0.040   4.456   5.557 -0.2442  0.3307  0.1960
  141MOL0     C18498  -0.094   4.510   5.444  0.0880  1.5185 -0.3254
  141MOL0     C18499  -0.219   4.557   5.462 -0.5032  0.9768  0.1883
  141MOL0     C18500  -0.318   4.604   5.357 -0.7668  0.2720  0.8312
  141MOL0     C18501  -0.274   4.737   5.302  0.4699  0.0312 -0.3338
  141MOL0     C18502  -0.390   4.802   5.221 -0.5644 -0.6958 -0.0219
  141MOL0     C18503  -0.453   4.716   5.117 -0.1145  1.0239 -0.0624
  141MOL0     O18504  -0.549   4.795   5.043  0.3553 -0.2216 -0.5317
  141MOL0     C18505  -0.661   4.849   5.108 -0.3810 -0.9887  0.0242
  141MOL0     C18506  -0.742   4.930   5.029  0.2233 -0.9049 -0.6302
  141MOL0     C18507  -0.850   5.011   5.088 -0.3545 -0.4582 -0.1081
  141MOL0     C18508  -0.883   5.009   5.229  0.0323  1.3008  0.1591
  141MOL0     C18509  -0.976   5.095   5.305  0.5496  0.2515  0.7559
  141MOL0     O18510  -1.001   5.052   5.437  0.4034 -0.2742  0.0120
  141MOL0     C18511  -1.119   5.105   5.501  0.2613  0.4672  0.5290
  141MOL0     C18512  -1.110   5.209   5.593  0.3824  0.0094 -0.2133
  141MOL0     C18513  -1.227   5.255   5.647  0.4203  0.2219  0.1121
  141MOL0     C18514  -1.353   5.190   5.629 -1.0473  0.1799  0.2464
  141MOL0     O18515  -1.453   5.247   5.699 -0.6871  1.0170  0.0119
  141MOL0     C18516  -1.588   5.209   5.678 -0.2918  0.5494  0.5946
  141MOL0     C18517  -1.670   5.332   5.732  0.5515  0.5895  0.6489
  141MOL0     C18518  -1.817   5.298   5.722 -0.1785 -0.4254 -0.4794
  141MOL0     C18519  -1.915   5.414   5.745  0.3629  0.5382 -0.7486
  141MOL0     C18520  -2.057   5.365   5.766 -0.6914 -0.0526 -0.4068
  141MOL0     C18521  -2.071   5.324   5.907  0.1003  0.8891  0.9434
  141MOL0     C18522  -2.209   5.252   5.905  0.5044  0.6396 -1.0868
  141MOL0     C18523  -2.263   5.218   6.049  0.1210 -0.3963  0.2970
  141MOL0    Cl18524  -2.132   5.177   6.166  0.2662 -0.1286  0.1429
  141MOL0     C18525  -1.363   5.092   5.535  0.2115 -0.0449  0.1843
  141MOL0     C18526  -1.252   5.052   5.461 -0.0921  0.2527 -0.8656
  141MOL0     O18527  -1.032   5.191   5.250  0.6857  0.1533  0.3313
  141MOL0     C18528  -0.807   4.920   5.297  0.3594 -0.1832  0.1770
  141MOL0     C18529  -0.704   4.840   5.236  1.5284 -0.2602 -0.1797
  141MOL0     N18530  -0.250   4.525   5.592  0.4055 -0.3232 -0.6569
  141MOL0     N18531  -0.143   4.480   5.647 -0.0215 -0.5713 -0.4060
  141MOL0     C18532   0.887   4.830   5.614 -1.3330 -0.2252  1.2466
  141MOL0     C18533   0.990   4.897   5.551 -0.0506  0.3603 -0.1893
  141MOL0     C18534   1.393   4.870   5.289  0.0468  0.9222  0.2450
  141MOL0     C18535   1.475   4.932   5.377 -0.4554 -0.9746  0.2331
  141MOL0     C18536   1.606   4.963   5.332  0.1250 -1.0788 -0.4369
  141MOL0     C18537   1.655   4.948   5.203  0.5247 -0.0449  0.1478
  141MOL0     O18538   1.782   4.980   5.159  0.1353 -0.2275  0.1055
  141MOL0     C18539   1.897   5.020   5.240 -0.4296  0.3054 -0.3622
  141MOL0     C18540   2.014   5.076   5.156 -0.4731  0.4547  0.6779
  141MOL0     C18541   2.020   5.232   5.134 -0.4935 -0.1065 -0.0686
  141MOL0     C18542   1.881   5.296   5.119  0.0379 -0.5136 -0.0926
  141MOL0     C18543   1.896   5.447   5.109  0.1184 -0.4613 -0.2431
  141MOL0     C18544   1.921   5.567   5.104 -0.4181  0.7489 -0.2176
  141MOL0     C18545   1.572   4.882   5.111 -0.1840 -0.1763  1.1315
  141MOL0     C18546   1.445   4.841   5.155 -0.8342  0.4349  0.5090
  141MOL0     H18547   1.208   4.628   5.539 -0.0601 -0.1269  2.2780
  141MOL0     H18548   1.006   4.514   5.627 -1.0564 -0.3633  0.4010
  141MOL0     H18549   0.849   4.462   5.794  1.0676 -0.8007 -0.6175
  141MOL0     H18550   0.772   4.449   5.643  0.3967  0.3178  0.1145
  141MOL0     H18551   0.662   4.512   5.925  1.1783  2.0468  0.6865
  141MOL0     H18552   0.618   4.378   5.810 -1.5750  0.6237  2.3894
  141MOL0     H18553   0.523   4.661   5.774 -0.3438 -0.7993 -2.2747
  141MOL0     H18554   0.438   4.538   5.853 -1.5273 -0.5135 -1.1736
  141MOL0     H18555   0.538   4.511   5.569  2.8362  1.6138  2.5861
  141MOL0     H18556   0.421   4.411   5.658  0.4112 -0.5338  0.4444
  141MOL0     H18557   0.399   4.705   5.579  0.7203 -0.4777  1.6579
  141MOL0     H18558   0.297   4.639   5.694  0.2781 -1.1788 -0.6271
  141MOL0     H18559   0.299   4.608   5.396  1.7412 -0.0702  1.1043
  141MOL0     H18560   0.154   4.639   5.506 -1.0595  0.4496 -2.4661
  141MOL0     H18561   0.158   4.408   5.389 -1.9568 -0.5752  1.9838
  141MOL0     H18562   0.287   4.371   5.491  0.7754  1.4601 -1.0434
  141MOL0     H18563   0.124   4.440   5.686  1.8292  1.3828 -0.1466
  141MOL0     H18564   0.087   4.298   5.591 -0.6706  1.4975 -1.1666
  141MOL0     H18565  -0.044   4.505   5.348 -2.4714  1.3865 -1.7281
  141MOL0     H18566  -0.418   4.620   5.398 -1.3482  2.1578 -1.1477
  141MOL0     H18567  -0.326   4.537   5.270 -1.9474  2.5581 -0.9256
  141MOL0     H18568  -0.180   4.735   5.247 -0.0399 -0.6699 -1.2056
  141MOL0     H18569  -0.253   4.806   5.384 -2.0424  0.3905  0.0936
  141MOL0     H18570  -0.464   4.831   5.297 -2.4319  0.7772 -2.2647
  141MOL0     H18571  -0.366   4.895   5.169  0.1030 -0.3450  0.8798
  141MOL0     H18572  -0.515   4.640   5.165  0.8538  3.1861  5.4021
  141MOL0     H18573  -0.375   4.670   5.056  0.8491 -1.7768  3.0130
  141MOL0     H18574  -0.726   4.958   4.925  0.7465 -0.5421 -0.4548
  141MOL0     H18575  -0.907   5.077   5.023 -4.0145 -0.8225  2.4706
  141MOL0     H18576  -1.016   5.261   5.609  1.2131 -1.0169 -1.4829
  141MOL0     H18577  -1.226   5.342   5.712 -3.5231 -0.6215  1.5622
  141MOL0     H18578  -1.618   5.115   5.726  0.8678 -1.1251 -1.7775
  141MOL0     H18579  -1.614   5.210   5.572 -2.9217  0.6390  1.1818
  141MOL0     H18580  -1.659   5.423   5.672  1.8735 -0.6641 -1.1323
  141MOL0     H18581  -1.646   5.359   5.835  0.1960  1.3919  0.5317
  141MOL0     H18582  -1.832   5.226   5.802 -0.4182  0.3840  0.2190
  141MOL0     H18583  -1.838   5.258   5.622 -2.5367 -1.7086  0.4532
  141MOL0     H18584  -1.882   5.468   5.834 -1.0942 -0.8446  0.7134
  141MOL0     H18585  -1.921   5.490   5.667  0.9477  2.4191  0.9681
  141MOL0     H18586  -2.080   5.288   5.692 -1.8181  1.6249 -1.8896
  141MOL0     H18587  -2.114   5.458   5.753 -0.4632  0.4471  1.7692
  141MOL0     H18588  -2.082   5.414   5.969  0.8801  2.9189 -1.6995
  141MOL0     H18589  -1.992   5.257   5.941  0.7175  1.8526  1.4651
  141MOL0     H18590  -2.273   5.328   5.858 -1.9700 -0.4025  0.4817
  141MOL0     H18591  -2.204   5.157   5.851 -0.0564  1.2548 -2.2818
  141MOL0     H18592  -2.334   5.135   6.045 -0.4218  0.0935 -1.9197
  141MOL0     H18593  -2.309   5.308   6.092  0.2233 -0.4907  0.6066
  141MOL0     H18594  -1.458   5.042   5.518  0.9722 -1.4646 -0.0087
  141MOL0     H18595  -1.261   4.984   5.377  1.0309 -0.1101 -0.7083
  141MOL0     H18596  -0.842   4.882   5.392  1.9179 -4.3547 -0.7012
  141MOL0     H18597  -0.656   4.761   5.292  3.6776  0.8281 -0.4081
  141MOL0     H18598   0.811   4.896   5.653  1.0686  2.8467  1.1557
  141MOL0     H18599   0.988   5.004   5.529  0.4673  0.6495  1.1413
  141MOL0     H18600   1.451   4.956   5.481 -1.7792 -2.9037  0.4238
  141MOL0     H18601   1.675   5.014   5.398 -0.2296  0.2547 -1.0701
  141MOL0     H18602   1.933   4.927   5.285  1.7649 -0.4225 -3.2487
  141MOL0     H18603   1.868   5.088   5.320 -0.8673 -0.1593 -0.1226
  141MOL0     H18604   2.106   5.034   5.199 -0.1037  1.7782  1.2337
  141MOL0     H18605   2.002   5.031   5.057 -4.2794 -0.2975  1.3014
  141MOL0     H18606   2.076   5.250   5.043 -0.1849 -0.0075  0.1389
  141MOL0     H18607   2.068   5.279   5.221 -2.7851  1.9620  0.1895
  141MOL0     H18608   1.832   5.256   5.030  3.2188  0.4296 -2.4176
  141MOL0     H18609   1.813   5.280   5.204 -0.3407  0.6574 -0.1490
  141MOL0     H18610   1.930   5.673   5.092 -1.0152  0.6955 -1.2586
  141MOL0     H18611   1.616   4.861   5.014 -0.9452  1.9867  0.2481
  141MOL0     H18612   1.374   4.783   5.096 -1.5348  0.7316  1.0355
  142MOL0     O18613  11.129   6.957   6.570  0.1700 -0.3553  1.1078
  142MOL0     C18614  11.074   6.855   6.607  0.3351 -0.3168 -0.1485
  142MOL0     O18615  11.136   6.748   6.656 -0.5081  0.2820  0.0981
  142MOL0     C18616  11.270   6.723   6.633  0.0349 -0.8355 -0.2257
  142MOL0     C18617  11.331   6.744   6.512 -0.6661  0.1098 -0.4114
  142MOL0     C18618  11.474   6.730   6.499  0.6563 -0.7524 -0.4736
  142MOL0     C18619  11.550   6.675   6.604 -0.0199  0.7350  0.2984
  142MOL0     O18620  11.688   6.652   6.597  0.5072 -0.2917 -0.6266
  142MOL0     C18621  11.722   6.559   6.496 -0.3492 -1.0998 -1.1120
  142MOL0     C18622  11.865   6.503   6.508 -1.0367 -0.6489  0.3184
  142MOL0     C18623  11.872   6.349   6.509  0.0575 -0.6663  0.3021
  142MOL0     C18624  12.001   6.286   6.557 -0.7457  0.4823  0.4804
  142MOL0     C18625  11.992   6.126   6.539 -0.0264  0.3409  0.6589
  142MOL0     C18626  12.129   6.066   6.587  0.5922  0.4552 -0.4125
  142MOL0     C18627  12.130   5.904   6.578  0.1848  0.3700 -0.2020
  142MOL0     C18628  12.243   5.870   6.488 -0.1167  1.0124  0.2266
  142MOL0     N18629  12.256   5.727   6.463  0.0790 -0.1281  0.1395
  142MOL0     C18630  12.318   5.628   6.538  0.4937  0.0611  0.7837
  142MOL0     C18631  12.320   5.516   6.466 -0.2432 -0.1610  0.0638
  142MOL0     C18632  12.372   5.374   6.506 -0.2335  0.2291 -0.3038
  142MOL0     C18633  12.504   5.356   6.445 -0.9699  0.4837  0.5561
  142MOL0     C18634  12.576   5.223   6.508  0.0581  0.7545 -0.7030
  142MOL0     C18635  12.697   5.171   6.421  0.3080 -0.9916 -0.2614
  142MOL0     O18636  12.785   5.272   6.405 -0.1131 -0.6310  0.0541
  142MOL0     C18637  12.899   5.252   6.327  0.5819 -0.6099 -0.3546
  142MOL0     C18638  12.981   5.356   6.305  0.0193 -0.3350  1.3831
  142MOL0     C18639  13.095   5.354   6.226  0.5781  0.5564  0.2571
  142MOL0     C18640  13.128   5.227   6.173 -0.2099  0.2149 -0.5894
  142MOL0     C18641  13.246   5.205   6.085  0.5827 -0.0232 -0.0061
  142MOL0     O18642  13.254   5.090   6.019 -0.4426 -0.8277 -0.5529
  142MOL0     C18643  13.371   5.060   5.952  0.2642 -0.5181  0.3145
  142MOL0     C18644  13.471   5.154   5.895  0.5530  0.2732 -0.4767
  142MOL0     C18645  13.597   5.105   5.856 -0.7119  0.3667  0.9914
  142MOL0     C18646  13.622   4.968   5.860 -0.3787 -0.1988  0.5405
  142MOL0     O18647  13.745   4.910   5.823 -0.2723  0.1241 -0.3924
  142MOL0     C18648  13.854   5.001   5.790 -0.0060  0.2719  0.4717
  142MOL0     C18649  13.961   4.912   5.723 -0.1960 -0.3660  0.6459
  142MOL0     C18650  14.094   4.991   5.674  0.1573 -0.2089 -0.3793
  142MOL0     C18651  14.187   4.894   5.617 -0.5365 -0.3943  0.2862
  142MOL0     C18652  14.310   4.967   5.560  0.3314  0.3561 -0.1548
  142MOL0     C18653  14.396   4.877   5.476  0.4867 -0.2268 -0.5239
  142MOL0     C18654  14.525   4.945   5.450  0.3802 -0.0559 -0.7632
  142MOL0     C18655  14.630   4.860   5.381  0.4552  0.1769 -0.4057
  142MOL0    Cl18656  14.786   4.975   5.393 -0.2565 -0.8026  0.0347
  142MOL0     C18657  13.520   4.876   5.890 -0.1625 -0.2866  0.1161
  142MOL0     C18658  13.400   4.923   5.942 -0.9868 -0.7781  0.8564
  142MOL0     O18659  13.331   5.291   6.087  0.8574  0.1765 -0.1556
  142MOL0     C18660  13.043   5.114   6.200  0.1832 -0.5802  0.2450
  142MOL0     C18661  12.924   5.131   6.272  0.4472  0.5053  0.8859
  142MOL0     N18662  12.244   5.538   6.350 -0.5031  0.0523 -0.2305
  142MOL0     N18663  12.216   5.661   6.346 -0.2362 -0.2921 -0.2718
  142MOL0     C18664  11.487   6.641   6.726 -1.1137  1.0879 -0.2285
  142MOL0     C18665  11.350   6.665   6.736 -0.4353 -0.3904 -0.0844
  142MOL0     C18666  10.928   6.851   6.598  0.0245  0.2887 -0.3294
  142MOL0     C18667  10.855   6.969   6.581  0.0329 -0.7796  1.2772
  142MOL0     C18668  10.717   6.966   6.597  0.0181 -0.5383  0.9361
  142MOL0     C18669  10.645   6.844   6.608  0.1021 -0.3412  0.0082
  142MOL0     O18670  10.509   6.829   6.613  0.2177 -0.4552  0.0877
  142MOL0     C18671  10.443   6.816   6.483  0.9783 -0.2647  0.0587
  142MOL0     C18672  10.371   6.941   6.443  0.6358  0.2000 -0.1483
  142MOL0     C18673  10.280   6.991   6.552 -0.6063 -0.1793 -0.0546
  142MOL0     C18674  10.144   6.919   6.566 -0.6731 -0.0563  0.4772
  142MOL0     C18675  10.055   7.011   6.638 -0.2057 -0.1871 -0.3189
  142MOL0     C18676  10.004   7.100   6.705  0.1891 -1.0157 -0.0801
  142MOL0     C18677  10.717   6.721   6.615  0.2025 -0.2988  0.1759
  142MOL0     C18678  10.854   6.724   6.624  0.1393  0.1740  0.6623
  142MOL0     H18679  11.285   6.786   6.423  2.5968  2.1671 -1.2803
  142MOL0     H18680  11.519   6.730   6.400 -0.5290 -1.5662 -1.0306
  142MOL0     H18681  11.717   6.613   6.401  1.1842 -1.0775 -1.1961
  142MOL0     H18682  11.647   6.481   6.479 -3.6621  1.2841  1.2056
  142MOL0     H18683  11.898   6.555   6.598  2.9994  3.0685 -2.8898
  142MOL0     H18684  11.936   6.540   6.433  1.3056 -0.4010  2.5404
  142MOL0     H18685  11.860   6.316   6.406 -0.9020 -0.6009  0.3868
  142MOL0     H18686  11.787   6.302   6.561  0.2706 -0.1860  1.1079
  142MOL0     H18687  12.074   6.340   6.496 -2.2587  2.1558  0.0339
  142MOL0     H18688  12.015   6.306   6.664 -0.1508 -0.2183  0.5398
  142MOL0     H18689  11.978   6.112   6.431 -1.3961  1.0990  0.7135
  142MOL0     H18690  11.897   6.086   6.576 -1.1557 -1.7245 -3.8209
  142MOL0     H18691  12.127   6.083   6.695  0.1178  0.9192 -0.4864
  142MOL0     H18692  12.209   6.122   6.538 -0.5891 -0.0311 -3.0941
  142MOL0     H18693  12.146   5.858   6.676 -2.7344 -1.1892 -0.3617
  142MOL0     H18694  12.041   5.854   6.538  0.0820 -0.0801  0.5603
  142MOL0     H18695  12.334   5.912   6.531 -0.3914  1.6651  0.1867
  142MOL0     H18696  12.228   5.916   6.389  1.4060 -0.7684 -0.8946
  142MOL0     H18697  12.363   5.644   6.635 -0.0636 -0.2101  1.0971
  142MOL0     H18698  12.299   5.304   6.466 -0.9071  0.2421  0.8554
  142MOL0     H18699  12.384   5.359   6.614 -0.7427 -3.6556 -0.6708
  142MOL0     H18700  12.570   5.443   6.451  0.3200 -0.4228  0.1079
  142MOL0     H18701  12.498   5.327   6.339  2.3574 -2.8997  1.0565
  142MOL0     H18702  12.616   5.238   6.608  0.9994 -0.3357 -0.8979
  142MOL0     H18703  12.498   5.149   6.526  0.8975 -0.5124 -2.0474
  142MOL0     H18704  12.646   5.126   6.335  0.3634 -3.8349  1.0861
  142MOL0     H18705  12.743   5.089   6.477  0.5457 -0.1316  0.8506
  142MOL0     H18706  12.961   5.454   6.349 -0.6008  0.5459 -0.7298
  142MOL0     H18707  13.162   5.436   6.204 -0.0184  0.4140 -2.3822
  142MOL0     H18708  13.463   5.262   5.903  1.5824  0.3670 -0.6244
  142MOL0     H18709  13.675   5.178   5.840 -1.7193  1.1177 -0.7568
  142MOL0     H18710  13.896   5.055   5.876  1.9342  0.3493 -0.4780
  142MOL0     H18711  13.827   5.072   5.711  2.8771 -1.5146 -2.3313
  142MOL0     H18712  13.910   4.853   5.646  1.0283 -0.0624 -0.4220
  142MOL0     H18713  13.991   4.834   5.793  3.0490 -0.0906 -0.2868
  142MOL0     H18714  14.141   5.038   5.761 -1.0218 -2.3292  1.5278
  142MOL0     H18715  14.063   5.069   5.604  0.4568 -0.8500 -1.2331
  142MOL0     H18716  14.224   4.816   5.685  0.1685  1.9766  2.7657
  142MOL0     H18717  14.138   4.850   5.529 -0.3175  1.6858 -0.9301
  142MOL0     H18718  14.363   5.009   5.646  1.0355  1.2981 -1.0328
  142MOL0     H18719  14.290   5.054   5.497  0.9723  0.8945  0.3714
  142MOL0     H18720  14.339   4.852   5.386 -0.8933  0.5376  0.0902
  142MOL0     H18721  14.403   4.781   5.526 -2.0571 -0.4972 -0.5458
  142MOL0     H18722  14.512   5.042   5.401  2.0952 -0.2697 -1.7387
  142MOL0     H18723  14.566   4.952   5.552 -0.0118 -0.5866 -0.5656
  142MOL0     H18724  14.611   4.856   5.274  0.4048  1.4434 -0.4570
  142MOL0     H18725  14.638   4.755   5.411 -0.0313 -0.4711 -2.4390
  142MOL0     H18726  13.529   4.768   5.895 -1.5999 -0.4336  0.0088
  142MOL0     H18727  13.326   4.848   5.968 -0.4798 -0.9190  1.9512
  142MOL0     H18728  13.064   5.014   6.163 -0.1646 -0.2667 -0.8251
  142MOL0     H18729  12.870   5.044   6.309  0.1569  1.4226  2.7158
  142MOL0     H18730  11.555   6.600   6.800 -0.6860 -0.2034 -1.2778
  142MOL0     H18731  11.310   6.655   6.836 -2.4652  0.5990 -0.7537
  142MOL0     H18732  10.911   7.061   6.572  0.5860 -1.1121  1.2716
  142MOL0     H18733  10.674   7.065   6.602 -1.4971 -1.2340  5.3248
  142MOL0     H18734  10.364   6.742   6.497  1.5781 -0.6313  1.7098
  142MOL0     H18735  10.502   6.792   6.394  0.6268  1.9162 -0.8325
  142MOL0     H18736  10.443   7.016   6.411  0.4924  0.3511 -0.1178
  142MOL0     H18737  10.321   6.910   6.351 -0.2476  0.5479  0.1997
  142MOL0     H18738  10.267   7.097   6.530 -0.7108  0.2497  1.9499
  142MOL0     H18739  10.337   7.000   6.645  2.7960 -1.2778 -1.8346
  142MOL0     H18740  10.096   6.904   6.468 -0.9407  0.5630  0.5078
  142MOL0     H18741  10.160   6.824   6.617  0.7688 -1.4575 -2.3154
  142MOL0     H18742   9.971   7.181   6.768  1.0804 -2.6491  2.6904
  142MOL0     H18743  10.670   6.624   6.622  2.7812 -1.8522 -2.1182
  142MOL0     H18744  10.909   6.631   6.633  3.3891  2.1161  3.3995
  143MOL0     O18745   0.601   4.970   8.298 -0.1968  0.4664  0.1720
  143MOL0     C18746   0.647   4.927   8.401  0.6463  0.3866  0.6120
  143MOL0     O18747   0.580   4.902   8.513  0.0283  0.4431 -0.4978
  143MOL0     C18748   0.449   4.942   8.523 -0.6634 -0.1024 -0.1094
  143MOL0     C18749   0.415   5.016   8.639  0.0814 -0.0197 -0.6227
  143MOL0     C18750   0.289   5.063   8.662  0.4262 -0.6052 -0.8898
  143MOL0     C18751   0.188   5.039   8.561 -0.3797 -0.3927  0.0323
  143MOL0     O18752   0.061   5.084   8.568  0.3511 -0.3346  0.3027
  143MOL0     C18753  -0.009   5.026   8.683 -0.7426  0.6744  0.6650
  143MOL0     C18754  -0.134   5.101   8.697  1.6192 -0.1830 -0.1732
  143MOL0     C18755  -0.206   5.047   8.818 -0.2797 -0.6385 -0.3154
  143MOL0     C18756  -0.330   5.130   8.842 -0.1960  0.3659  0.1964
  143MOL0     C18757  -0.408   5.068   8.952  0.0454 -0.6669 -0.0664
  143MOL0     C18758  -0.545   5.128   8.973  0.0229  0.8418  0.7879
  143MOL0     C18759  -0.623   5.048   9.075  0.0337  0.3334  0.4264
  143MOL0     C18760  -0.676   5.118   9.203 -0.5276  0.6705 -0.2683
  143MOL0     N18761  -0.560   5.177   9.277 -0.6322  0.7507  0.1894
  143MOL0     C18762  -0.447   5.098   9.313  0.8071 -0.0690  0.6723
  143MOL0     C18763  -0.362   5.188   9.341  0.0254 -0.4553 -0.6344
  143MOL0     C18764  -0.228   5.153   9.384  0.1751 -0.0680 -0.0901
  143MOL0     C18765  -0.133   5.112   9.266 -0.8451 -0.4247  0.9180
  143MOL0     C18766   0.007   5.091   9.310  0.2560 -0.7370  0.0882
  143MOL0     C18767   0.116   5.074   9.200 -0.3400 -0.4775 -0.2117
  143MOL0     O18768   0.098   4.947   9.131 -0.3434 -0.1686  0.0350
  143MOL0     C18769   0.203   4.864   9.161  0.3422  0.8188 -0.2542
  143MOL0     C18770   0.197   4.774   9.273 -0.0080 -0.5476 -0.1545
  143MOL0     C18771   0.308   4.698   9.310  0.6393  0.2966 -0.3864
  143MOL0     C18772   0.419   4.702   9.220  0.2116  0.7612 -0.5055
  143MOL0     C18773   0.540   4.620   9.268  0.3465  0.9502  0.0783
  143MOL0     O18774   0.651   4.653   9.204  0.2574  0.1027 -0.3905
  143MOL0     C18775   0.774   4.603   9.247 -0.4502  0.3735 -0.0323
  143MOL0     C18776   0.807   4.464   9.264 -0.7160 -0.0438 -0.0472
  143MOL0     C18777   0.934   4.425   9.317  0.7203 -0.5590  0.1953
  143MOL0     C18778   1.020   4.530   9.360  0.0654  0.1889 -0.3605
  143MOL0     O18779   1.147   4.521   9.425  0.6019 -0.5646 -0.4922
  143MOL0     C18780   1.156   4.411   9.523  0.4261 -0.4244  0.9834
  143MOL0     C18781   1.250   4.431   9.639  0.4858  0.8770  0.1834
  143MOL0     C18782   1.393   4.432   9.598 -0.1359  0.3135  0.3700
  143MOL0     C18783   1.442   4.289   9.584 -0.2024 -0.8585  0.6068
  143MOL0     C18784   1.591   4.292   9.549 -0.2278  0.1465 -0.1025
  143MOL0     C18785   1.628   4.155   9.483  0.4973  0.0867 -0.0595
  143MOL0     C18786   1.627   4.045   9.596 -0.6582 -0.2082  0.4077
  143MOL0     C18787   1.609   3.905   9.553  0.3014  0.3584 -0.4884
  143MOL0    Cl18788   1.443   3.880   9.461 -0.0248  0.2479 -0.9948
  143MOL0     C18789   0.991   4.662   9.332  0.6453 -0.5738 -0.1019
  143MOL0     C18790   0.869   4.702   9.285  0.3477 -0.1469  0.2007
  143MOL0     O18791   0.529   4.539   9.363  0.3110  0.5836  0.0908
  143MOL0     C18792   0.424   4.789   9.110  0.0930 -0.0579  0.0228
  143MOL0     C18793   0.316   4.861   9.076  0.4055  0.0075 -0.7716
  143MOL0     N18794  -0.415   5.317   9.339 -0.1313  0.6950  0.6022
  143MOL0     N18795  -0.529   5.298   9.296  0.1500  0.1297 -0.3981
  143MOL0     C18796   0.218   4.958   8.456  0.6182 -0.5762  0.6588
  143MOL0     C18797   0.348   4.906   8.431 -0.3022  0.4928  0.0380
  143MOL0     C18798   0.796   4.908   8.406 -0.6997  0.4770 -0.7029
  143MOL0     C18799   0.885   5.005   8.351  0.6383  0.6329  0.9139
  143MOL0     C18800   1.021   4.989   8.346  0.1205 -0.6310 -1.3850
  143MOL0     C18801   1.071   4.866   8.389  0.1101 -0.5953  1.0070
  143MOL0     O18802   1.208   4.849   8.378  0.5550  0.6455  0.3823
  143MOL0     C18803   1.280   4.715   8.380 -0.3092 -0.1178 -0.6174
  143MOL0     C18804   1.379   4.719   8.489 -0.3063  0.1951  0.5789
  143MOL0     C18805   1.323   4.654   8.617 -0.0909 -0.6168 -0.3221
  143MOL0     C18806   1.406   4.669   8.738  0.2806  0.5115 -0.8998
  143MOL0     C18807   1.330   4.657   8.863 -0.2998  0.7354  0.3800
  143MOL0     C18808   1.245   4.652   8.946  0.5287 -0.0680 -0.1361
  143MOL0     C18809   0.985   4.774   8.453  0.0106 -0.2285 -0.4725
  143MOL0     C18810   0.849   4.792   8.474 -0.1767 -0.1568  0.8553
  143MOL0     H18811   0.497   5.052   8.700 -0.2902 -1.9711  1.1713
  143MOL0     H18812   0.262   5.133   8.741  1.6146  0.8172 -1.6967
  143MOL0     H18813   0.054   5.024   8.772 -0.2508 -3.7398  0.4465
  143MOL0     H18814  -0.029   4.919   8.669 -0.6869  0.7512 -0.0404
  143MOL0     H18815  -0.195   5.088   8.607 -0.5533  1.1479  1.0238
  143MOL0     H18816  -0.105   5.205   8.716  2.8232 -0.8115  1.7203
  143MOL0     H18817  -0.127   5.040   8.893 -0.2566  0.3079 -0.2335
  143MOL0     H18818  -0.248   4.950   8.790  1.2972 -1.6509  0.6672
  143MOL0     H18819  -0.283   5.223   8.876 -1.7957  1.2041  0.2358
  143MOL0     H18820  -0.388   5.144   8.751  0.1278 -1.3329 -0.3008
  143MOL0     H18821  -0.348   5.074   9.044 -0.8352  0.2311  0.4732
  143MOL0     H18822  -0.414   4.961   8.930  0.6498 -0.8598  0.6479
  143MOL0     H18823  -0.601   5.137   8.879 -2.8644  0.8028  2.4288
  143MOL0     H18824  -0.521   5.231   9.003 -0.8397  0.9603  1.0850
  143MOL0     H18825  -0.717   5.008   9.037 -0.3342  1.3806  0.2139
  143MOL0     H18826  -0.561   4.960   9.092  0.0891 -0.2747 -2.3856
  143MOL0     H18827  -0.720   5.042   9.268 -1.7667  1.0770 -0.6128
  143MOL0     H18828  -0.748   5.198   9.185 -3.2233 -0.5076  3.7684
  143MOL0     H18829  -0.431   4.992   9.300 -2.1284 -0.6786  1.3667
  143MOL0     H18830  -0.233   5.069   9.455 -2.2597  0.4475  0.4252
  143MOL0     H18831  -0.190   5.234   9.447 -0.0647 -1.4541  1.9491
  143MOL0     H18832  -0.134   5.196   9.196 -2.0502 -1.2235 -0.0950
  143MOL0     H18833  -0.167   5.025   9.209 -0.3354  0.6184 -1.0827
  143MOL0     H18834   0.042   5.170   9.377 -0.8081 -0.7207  0.6427
  143MOL0     H18835   0.000   5.001   9.372  1.4647  0.7902  2.5996
  143MOL0     H18836   0.218   5.078   9.237  0.1884 -4.8024 -0.7782
  143MOL0     H18837   0.114   5.162   9.134 -0.6263  0.5861  1.1790
  143MOL0     H18838   0.110   4.779   9.338  1.4494  0.1418  1.8677
  143MOL0     H18839   0.313   4.634   9.397  0.3308  3.7146  2.3551
  143MOL0     H18840   0.727   4.393   9.244 -1.2160  0.0319  1.5072
  143MOL0     H18841   0.962   4.322   9.337  2.7045  0.3175  2.4614
  143MOL0     H18842   1.180   4.322   9.465 -1.6877 -1.9453  2.3258
  143MOL0     H18843   1.057   4.402   9.569 -0.2373  0.3483 -0.2340
  143MOL0     H18844   1.228   4.365   9.724  2.2682 -0.5148 -0.3658
  143MOL0     H18845   1.235   4.533   9.677  2.9020  1.3802 -0.0370
  143MOL0     H18846   1.450   4.486   9.675 -0.5012  0.6386  0.4150
  143MOL0     H18847   1.404   4.483   9.502 -0.3450  1.6624  1.0294
  143MOL0     H18848   1.419   4.230   9.674 -1.3188 -2.7404 -0.8326
  143MOL0     H18849   1.386   4.250   9.499 -1.2175 -1.2328  1.4307
  143MOL0     H18850   1.661   4.306   9.632  1.6839 -0.9235 -1.4448
  143MOL0     H18851   1.607   4.375   9.479 -0.5981 -0.2738 -0.6939
  143MOL0     H18852   1.725   4.158   9.432  1.2254 -1.1675  1.1653
  143MOL0     H18853   1.557   4.131   9.403 -2.1327  0.3288  2.0566
  143MOL0     H18854   1.728   4.045   9.638 -0.9179  0.5710  1.0537
  143MOL0     H18855   1.548   4.072   9.667 -1.6540  0.2952 -0.8552
  143MOL0     H18856   1.624   3.844   9.642  1.8411  0.1073 -0.8836
  143MOL0     H18857   1.684   3.874   9.480  0.2132 -5.5904  1.4068
  143MOL0     H18858   1.067   4.739   9.342  0.0605  0.0816 -0.6664
  143MOL0     H18859   0.855   4.809   9.273  0.8334 -0.3596 -3.6677
  143MOL0     H18860   0.512   4.791   9.046  1.3733 -0.1449  1.7065
  143MOL0     H18861   0.321   4.922   8.987  0.5273 -1.8750 -2.1001
  143MOL0     H18862   0.134   4.924   8.397  1.8745 -1.2147 -0.8462
  143MOL0     H18863   0.366   4.845   8.343 -0.2634  0.1140  0.3060
  143MOL0     H18864   0.833   5.092   8.312 -2.4119 -1.3571  0.1850
  143MOL0     H18865   1.091   5.063   8.307 -0.0910  2.2099  3.0190
  143MOL0     H18866   1.314   4.694   8.278 -1.0035 -0.7314 -0.7355
  143MOL0     H18867   1.210   4.637   8.409 -3.4222  3.1785  1.6525
  143MOL0     H18868   1.461   4.651   8.460 -0.8104 -0.2380  0.1541
  143MOL0     H18869   1.421   4.819   8.504  2.3439 -0.7220 -0.1038
  143MOL0     H18870   1.320   4.547   8.595  3.5275 -0.9017 -0.0580
  143MOL0     H18871   1.222   4.691   8.635  0.5204  0.6995  0.5864
  143MOL0     H18872   1.490   4.599   8.745 -1.5843 -1.7178  0.3617
  143MOL0     H18873   1.449   4.769   8.727  2.4392 -0.0939  1.0831
  143MOL0     H18874   1.152   4.655   8.999  0.7184  0.8592  0.1628
  143MOL0     H18875   1.022   4.685   8.501 -0.3683 -1.2998 -2.0661
  143MOL0     H18876   0.779   4.724   8.522  0.9480 -2.0812 -0.1202
  144MOL0     O18877   0.707   9.319  10.565  0.0532  0.4555 -0.1578
  144MOL0     C18878   0.771   9.411  10.517  0.3430  0.9568 -0.6212
  144MOL0     O18879   0.721   9.509  10.438 -0.1307 -0.2838  0.9213
  144MOL0     C18880   0.584   9.503  10.400 -0.5723  0.1805  0.1018
  144MOL0     C18881   0.525   9.389  10.351  0.3699  0.1505  0.2126
  144MOL0     C18882   0.387   9.378  10.337  0.4004 -0.0116 -0.6541
  144MOL0     C18883   0.303   9.484  10.369  0.5078  1.2468  0.1164
  144MOL0     O18884   0.170   9.464  10.357  0.2003 -0.4647 -0.3285
  144MOL0     C18885   0.095   9.550  10.266  0.0240 -0.6790  0.3906
  144MOL0     C18886  -0.043   9.586  10.329 -0.3446 -0.0289  0.4864
  144MOL0     C18887  -0.144   9.646  10.232 -0.2977 -0.7187 -0.0250
  144MOL0     C18888  -0.282   9.644  10.290  0.2603  1.1553  0.1732
  144MOL0     C18889  -0.383   9.707  10.194 -0.1125 -0.4350 -0.7273
  144MOL0     C18890  -0.524   9.718  10.260 -0.2082  0.0512  1.0384
  144MOL0     C18891  -0.618   9.802  10.178 -0.7995 -0.1317  0.4015
  144MOL0     C18892  -0.639   9.942  10.222 -0.0195 -1.4377 -0.1022
  144MOL0     N18893  -0.737  10.015  10.142 -0.2202 -0.6949 -0.4196
  144MOL0     C18894  -0.868  10.014  10.170 -0.6408  0.1745  0.4241
  144MOL0     C18895  -0.927  10.086  10.083  0.8469 -1.0282  1.6142
  144MOL0     C18896  -1.085  10.089  10.063 -0.5934 -0.3081 -0.1974
  144MOL0     C18897  -1.145  10.135  10.200  1.1138 -0.0180  0.0887
  144MOL0     C18898  -1.276  10.224  10.185  0.4916 -0.0871 -0.3914
  144MOL0     C18899  -1.348  10.235  10.321 -0.5484 -0.4542 -0.4627
  144MOL0     O18900  -1.491  10.250  10.295  0.1203 -0.3064 -0.1440
  144MOL0     C18901  -1.568  10.146  10.337 -1.1723 -0.1195  0.3853
  144MOL0     C18902  -1.539  10.009  10.329 -0.3861 -0.7355  0.3619
  144MOL0     C18903  -1.637   9.912  10.345 -0.1478  0.2585 -0.1624
  144MOL0     C18904  -1.761   9.942  10.399 -0.2869 -0.7520 -1.4973
  144MOL0     C18905  -1.862   9.846  10.448 -0.9113 -0.5774 -0.0722
  144MOL0     O18906  -1.990   9.890  10.437  1.0407  0.1167 -0.8753
  144MOL0     C18907  -2.094   9.847  10.513 -0.6530  0.5602 -0.4440
  144MOL0     C18908  -2.075   9.767  10.630  0.1871  0.5169  0.5263
  144MOL0     C18909  -2.181   9.752  10.720  0.4604  0.0888  0.3355
  144MOL0     C18910  -2.307   9.798  10.689  0.0596 -0.8112 -0.1204
  144MOL0     O18911  -2.404   9.797  10.781 -0.0119 -0.1575 -0.6164
  144MOL0     C18912  -2.438   9.692  10.869 -0.9475  0.0026  0.2028
  144MOL0     C18913  -2.589   9.718  10.902 -0.3321 -0.0168  0.3099
  144MOL0     C18914  -2.606   9.804  11.026  0.1948 -0.5083 -0.3082
  144MOL0     C18915  -2.532   9.754  11.149  0.7488 -0.4775  0.2321
  144MOL0     C18916  -2.597   9.813  11.278  0.5524  0.3667  0.6060
  144MOL0     C18917  -2.733   9.747  11.317 -0.7279  0.5328 -0.7829
  144MOL0     C18918  -2.770   9.776  11.465 -0.2284 -0.5788  0.4308
  144MOL0     C18919  -2.782   9.921  11.511  0.4288  0.4692 -0.0303
  144MOL0    Cl18920  -2.879  10.012  11.392 -0.0268  0.3389 -0.0205
  144MOL0     C18921  -2.330   9.865  10.565 -1.1015 -0.0938  0.1209
  144MOL0     C18922  -2.224   9.886  10.481 -0.8335 -0.4114 -0.1564
  144MOL0     O18923  -1.824   9.729  10.473 -0.3273 -0.3884  0.7149
  144MOL0     C18924  -1.791  10.074  10.417 -0.1383  0.5860 -0.4804
  144MOL0     C18925  -1.697  10.174  10.382  0.0089 -0.0374 -0.0926
  144MOL0     N18926  -0.827  10.133   9.996  0.0159 -0.1109 -0.3343
  144MOL0     N18927  -0.707  10.101  10.033  0.7594  0.7586  0.2762
  144MOL0     C18928   0.371   9.600  10.402  0.1685  0.0441  0.3213
  144MOL0     C18929   0.505   9.603  10.422 -0.4044 -0.9031  0.5704
  144MOL0     C18930   0.915   9.421  10.560  0.2754  0.3880 -0.4675
  144MOL0     C18931   0.973   9.299  10.604  0.4657 -0.0068 -0.2140
  144MOL0     C18932   1.102   9.308  10.654  0.1512 -0.3811  0.2256
  144MOL0     C18933   1.176   9.420  10.647  0.4154 -0.6809 -0.1964
  144MOL0     O18934   1.308   9.403  10.672 -0.4409  0.2954 -0.9331
  144MOL0     C18935   1.399   9.479  10.595 -0.5105  0.1344  0.3837
  144MOL0     C18936   1.526   9.495  10.680 -0.1820 -0.3318 -0.3953
  144MOL0     C18937   1.600   9.363  10.685 -0.1765 -0.9273 -0.9303
  144MOL0     C18938   1.572   9.258  10.797 -0.4501  0.4690 -0.5000
  144MOL0     C18939   1.588   9.325  10.932 -0.5165  0.7635  0.8586
  144MOL0     C18940   1.621   9.371  11.036  0.0620 -0.4142 -0.4206
  144MOL0     C18941   1.115   9.539  10.594 -0.1007  0.0180 -0.1254
  144MOL0     C18942   0.985   9.548  10.550  1.6869  1.0980  0.2704
  144MOL0     H18943   0.586   9.299  10.345 -1.8558 -1.4244 -0.2712
  144MOL0     H18944   0.348   9.283  10.302  1.5554 -0.4015 -0.9440
  144MOL0     H18945   0.078   9.493  10.175  0.4900  1.9723 -1.4553
  144MOL0     H18946   0.147   9.642  10.237 -1.2060 -0.4046 -1.0174
  144MOL0     H18947  -0.021   9.662  10.404 -0.9635  3.0637 -2.2806
  144MOL0     H18948  -0.086   9.493  10.369 -1.2519  0.7297  1.3124
  144MOL0     H18949  -0.139   9.583  10.143 -1.3172 -1.8617  0.7066
  144MOL0     H18950  -0.107   9.744  10.200  0.3987 -0.9351  0.0907
  144MOL0     H18951  -0.311   9.543  10.320  2.2061  1.1244  2.2085
  144MOL0     H18952  -0.280   9.701  10.383  2.4697 -0.6464  1.3161
  144MOL0     H18953  -0.380   9.660  10.095 -1.1850 -2.3929  0.1120
  144MOL0     H18954  -0.339   9.806  10.176  0.4292 -0.8225 -1.5917
  144MOL0     H18955  -0.515   9.770  10.356 -1.6466  1.8687  0.2621
  144MOL0     H18956  -0.577   9.625  10.279  0.8257 -0.6666  0.5253
  144MOL0     H18957  -0.575   9.816  10.079  1.2066  1.0953  1.3788
  144MOL0     H18958  -0.714   9.749  10.180 -0.0694 -1.4854  0.8819
  144MOL0     H18959  -0.543   9.996  10.221  0.3411 -2.0328  0.8414
  144MOL0     H18960  -0.670   9.941  10.327 -0.7594  0.7450 -0.2378
  144MOL0     H18961  -0.917   9.953  10.245 -0.7638  0.9413  0.9883
  144MOL0     H18962  -1.125   9.993  10.030  0.7335 -1.6365  1.8029
  144MOL0     H18963  -1.118  10.165   9.992  0.2945 -1.0075 -1.3755
  144MOL0     H18964  -1.075  10.178  10.272 -0.7465 -2.1410  3.4238
  144MOL0     H18965  -1.177  10.045  10.252 -1.9435 -0.7665 -2.7674
  144MOL0     H18966  -1.257  10.321  10.138 -0.1914  0.4402  0.3831
  144MOL0     H18967  -1.343  10.165  10.122 -2.8959  1.4148  1.4961
  144MOL0     H18968  -1.317  10.329  10.369  1.6922 -0.6675 -1.3918
  144MOL0     H18969  -1.325  10.153  10.390  3.6489  0.5041 -0.4356
  144MOL0     H18970  -1.437   9.989  10.297 -0.2105  3.3122 -2.3156
  144MOL0     H18971  -1.619   9.811  10.309 -2.5304  0.0822 -1.0607
  144MOL0     H18972  -1.975   9.733  10.654 -0.4999 -1.7371  0.4194
  144MOL0     H18973  -2.168   9.708  10.819  2.0379  0.1699  0.1861
  144MOL0     H18974  -2.371   9.686  10.956 -2.2982 -1.1217  1.2154
  144MOL0     H18975  -2.435   9.605  10.803 -1.6461  0.6416 -0.7002
  144MOL0     H18976  -2.635   9.621  10.920  0.6418 -0.0411  3.2558
  144MOL0     H18977  -2.644   9.762  10.819  1.5916  2.3517  0.1609
  144MOL0     H18978  -2.714   9.808  11.038 -0.1459  1.6684 -3.1332
  144MOL0     H18979  -2.576   9.902  10.990  1.8890 -0.4152  1.1661
  144MOL0     H18980  -2.540   9.645  11.151  0.2681 -0.4357  1.0749
  144MOL0     H18981  -2.430   9.793  11.138  0.0966  2.6180  3.2177
  144MOL0     H18982  -2.608   9.921  11.268 -2.9010  0.0181 -0.7806
  144MOL0     H18983  -2.532   9.790  11.363 -0.7312 -3.6214  0.7326
  144MOL0     H18984  -2.720   9.639  11.312  1.1973  0.6835  0.3275
  144MOL0     H18985  -2.803   9.773  11.236 -1.5153 -2.0659 -1.0178
  144MOL0     H18986  -2.866   9.726  11.482 -1.3093  1.8227  1.9456
  144MOL0     H18987  -2.689   9.735  11.527  0.5686  1.4529  0.8063
  144MOL0     H18988  -2.683   9.966  11.517  1.0961 -0.9851  0.4269
  144MOL0     H18989  -2.828   9.935  11.609  0.5121 -1.7499  0.3824
  144MOL0     H18990  -2.430   9.903  10.545 -0.9280 -0.4575 -1.5930
  144MOL0     H18991  -2.255   9.934  10.389 -0.5036 -1.3610 -0.7721
  144MOL0     H18992  -1.874  10.094  10.484  0.6048  0.4142  0.5190
  144MOL0     H18993  -1.721  10.275  10.413 -0.3418 -0.9188  2.7750
  144MOL0     H18994   0.302   9.683  10.416  1.7309  1.5577 -0.6251
  144MOL0     H18995   0.557   9.697  10.438 -0.2623 -1.0732  1.1156
  144MOL0     H18996   0.913   9.209  10.611 -1.0837  0.9274 -0.9592
  144MOL0     H18997   1.138   9.211  10.685 -1.4348 -0.7485  0.9784
  144MOL0     H18998   1.364   9.577  10.561  0.6244  0.1341 -0.8552
  144MOL0     H18999   1.412   9.426  10.501  1.5263 -1.2417  1.3706
  144MOL0     H19000   1.589   9.573  10.636 -1.1405  0.4728 -0.3900
  144MOL0     H19001   1.485   9.530  10.776 -1.8834  0.2923 -1.3059
  144MOL0     H19002   1.705   9.393  10.695 -0.9801  1.2865  3.8529
  144MOL0     H19003   1.590   9.312  10.589 -0.1354  0.7868 -1.8969
  144MOL0     H19004   1.472   9.217  10.780 -2.2010  3.3315  1.8970
  144MOL0     H19005   1.628   9.165  10.789 -0.1654  0.3598  1.9508
  144MOL0     H19006   1.649   9.427  11.123 -3.0856  1.6146 -0.5603
  144MOL0     H19007   1.179   9.624  10.572  0.2290  0.1581  1.2788
  144MOL0     H19008   0.933   9.635  10.511  0.1668  0.6658  1.2121
  145MOL0     O19009   8.942   2.316   3.525  0.0215 -0.3091  0.0148
  145MOL0     C19010   8.983   2.421   3.580 -0.7959  1.0743  0.3909
  145MOL0     O19011   8.912   2.526   3.631  0.0300 -0.7631 -0.6249
  145MOL0     C19012   8.771   2.525   3.634  0.6063  0.4008  0.0961
  145MOL0     C19013   8.699   2.641   3.598  0.3035  0.8190 -0.1404
  145MOL0     C19014   8.554   2.635   3.587 -0.4965 -0.1643 -0.5062
  145MOL0     C19015   8.486   2.519   3.611  0.6732  0.3251 -0.2848
  145MOL0     O19016   8.354   2.507   3.600 -0.1289 -0.3972  0.4852
  145MOL0     C19017   8.284   2.596   3.512  0.4300 -0.6016 -0.5382
  145MOL0     C19018   8.131   2.580   3.487  0.4319  0.5664  0.0811
  145MOL0     C19019   8.106   2.434   3.452 -0.7908  0.7472  0.4096
  145MOL0     C19020   7.962   2.402   3.441 -0.1044 -0.4047  0.1124
  145MOL0     C19021   7.951   2.308   3.320 -0.2126  0.0701 -0.3959
  145MOL0     C19022   7.807   2.313   3.273  0.7781  0.2517  0.4089
  145MOL0     C19023   7.792   2.236   3.136  0.5213 -0.0312  0.4006
  145MOL0     C19024   7.643   2.269   3.092  0.0704  0.3763  0.5561
  145MOL0     N19025   7.649   2.280   2.947  0.0742 -0.3203 -0.3729
  145MOL0     C19026   7.643   2.173   2.860  0.1746 -0.6152  0.1573
  145MOL0     C19027   7.613   2.229   2.739 -0.6042  0.8814  0.0849
  145MOL0     C19028   7.610   2.148   2.611  0.0649 -0.8711  0.4411
  145MOL0     C19029   7.731   2.187   2.536 -0.4646 -0.6030  0.3805
  145MOL0     C19030   7.703   2.137   2.387  0.6165  0.2850 -0.8827
  145MOL0     C19031   7.798   2.193   2.285  0.7714  0.0846 -0.2488
  145MOL0     O19032   7.806   2.335   2.290 -0.7441  0.0907  0.0462
  145MOL0     C19033   7.911   2.398   2.358  0.1898  0.6507 -0.1130
  145MOL0     C19034   7.931   2.532   2.346 -0.3668  0.0946  0.2943
  145MOL0     C19035   8.035   2.601   2.410  0.0507  0.1208 -0.8631
  145MOL0     C19036   8.128   2.539   2.491 -0.1145  1.3848  0.4500
  145MOL0     C19037   8.228   2.619   2.562  0.8320 -0.5919  0.3360
  145MOL0     O19038   8.251   2.753   2.516 -0.9088 -0.3942  0.6531
  145MOL0     C19039   8.360   2.816   2.568  0.9158  1.5465  0.6395
  145MOL0     C19040   8.486   2.757   2.547 -0.1416 -0.1894 -0.3781
  145MOL0     C19041   8.603   2.811   2.614 -0.5592  0.3176  0.2863
  145MOL0     C19042   8.581   2.927   2.688 -0.3205  0.4187 -0.6204
  145MOL0     O19043   8.699   2.974   2.746  0.5113 -0.0811 -0.6385
  145MOL0     C19044   8.699   2.976   2.887  0.3398 -0.8827 -0.2865
  145MOL0     C19045   8.845   2.972   2.939  1.2601  0.3173  0.2088
  145MOL0     C19046   8.899   2.835   2.934 -1.2060 -0.5131 -0.2677
  145MOL0     C19047   9.053   2.840   2.987 -0.2373 -0.3991  0.0770
  145MOL0     C19048   9.130   2.706   2.970 -0.5701  0.1900 -0.1687
  145MOL0     C19049   9.054   2.577   3.022  0.3061 -0.0163 -0.0705
  145MOL0     C19050   9.154   2.472   3.063  0.2640 -0.8451  1.1586
  145MOL0     C19051   9.231   2.416   2.941  0.7066  0.2089  0.8010
  145MOL0    Cl19052   9.363   2.308   3.006  0.1958 -0.4054 -0.1613
  145MOL0     C19053   8.460   2.988   2.713  0.2380 -0.0275 -0.1079
  145MOL0     C19054   8.345   2.935   2.646 -0.2529 -0.6408  0.5300
  145MOL0     O19055   8.286   2.556   2.649 -0.4068 -0.0225 -0.0459
  145MOL0     C19056   8.114   2.398   2.498 -0.2482  0.7075  1.0563
  145MOL0     C19057   8.008   2.331   2.435 -0.2262  0.3640  0.4331
  145MOL0     N19058   7.617   2.362   2.751 -0.0025  0.1172 -0.2694
  145MOL0     N19059   7.640   2.397   2.874 -0.8630  0.4982  0.4424
  145MOL0     C19060   8.555   2.402   3.659  0.4810  0.2595  0.7240
  145MOL0     C19061   8.692   2.409   3.668 -0.9330  0.0103 -0.8936
  145MOL0     C19062   9.130   2.451   3.583  0.6944 -0.0743 -0.1098
  145MOL0     C19063   9.193   2.550   3.666  0.8764 -0.2900  0.3852
  145MOL0     C19064   9.326   2.574   3.661  0.1430 -0.0097 -1.3847
  145MOL0     C19065   9.407   2.504   3.574 -0.6876  0.1007  0.2874
  145MOL0     O19066   9.545   2.531   3.570 -0.3664  0.7925 -0.9615
  145MOL0     C19067   9.594   2.628   3.472  0.0947 -0.3149  0.0729
  145MOL0     C19068   9.713   2.571   3.392  0.1626  0.4899  0.3543
  145MOL0     C19069   9.670   2.486   3.268  0.3095  0.8340  1.1069
  145MOL0     C19070   9.779   2.402   3.212  0.5260 -0.4406 -0.3403
  145MOL0     C19071   9.743   2.362   3.076 -1.4979  0.0372  0.6577
  145MOL0     C19072   9.709   2.329   2.964 -0.1540 -0.0294  0.4514
  145MOL0     C19073   9.349   2.413   3.486  0.4356  0.2567  0.3208
  145MOL0     C19074   9.214   2.388   3.492  0.3617  0.2388  0.1974
  145MOL0     H19075   8.768   2.721   3.575  3.2313 -1.6590 -0.7247
  145MOL0     H19076   8.502   2.725   3.558 -1.2803  0.4349  2.4018
  145MOL0     H19077   8.334   2.605   3.415  3.0938 -0.5305  0.7639
  145MOL0     H19078   8.289   2.696   3.557 -0.3414 -1.4858  1.6438
  145MOL0     H19079   8.090   2.643   3.408 -0.1336  0.0985 -0.0030
  145MOL0     H19080   8.080   2.606   3.580  2.6058 -1.2415  1.9054
  145MOL0     H19081   8.154   2.366   3.523 -1.9820 -1.4161 -0.7614
  145MOL0     H19082   8.161   2.418   3.359  1.8547 -2.0754  2.2682
  145MOL0     H19083   7.921   2.361   3.534 -1.6301 -1.4333 -0.9730
  145MOL0     H19084   7.902   2.493   3.434  0.1778 -0.3020 -1.0802
  145MOL0     H19085   7.997   2.215   3.354  0.5960  0.4574 -0.4134
  145MOL0     H19086   8.004   2.344   3.232 -2.4465  0.5784 -1.6169
  145MOL0     H19087   7.780   2.419   3.271 -2.1503 -0.4074 -1.3697
  145MOL0     H19088   7.743   2.261   3.344  1.2702  0.0711  0.7316
  145MOL0     H19089   7.863   2.268   3.060 -0.7485  1.6925 -0.1383
  145MOL0     H19090   7.805   2.128   3.146  0.0741 -0.2263 -0.9050
  145MOL0     H19091   7.608   2.364   3.133 -2.7570  0.5167 -1.8064
  145MOL0     H19092   7.568   2.203   3.137 -0.3086  1.9338  2.3267
  145MOL0     H19093   7.648   2.071   2.897  0.7919 -0.6664 -0.0525
  145MOL0     H19094   7.510   2.160   2.570 -0.6823 -4.1711  1.0049
  145MOL0     H19095   7.627   2.041   2.628 -0.9892 -0.9150  1.3564
  145MOL0     H19096   7.823   2.143   2.575 -0.8640 -1.7726  0.0337
  145MOL0     H19097   7.749   2.295   2.535  2.6738 -1.0024 -1.3272
  145MOL0     H19098   7.709   2.028   2.384  1.7009  0.3486 -1.8619
  145MOL0     H19099   7.602   2.162   2.356  0.8428  2.5361 -0.0210
  145MOL0     H19100   7.765   2.161   2.186  1.1588 -2.6775  0.4259
  145MOL0     H19101   7.898   2.153   2.303  0.3175  0.1706  3.1529
  145MOL0     H19102   7.849   2.581   2.295 -2.5195 -1.1672  2.3276
  145MOL0     H19103   8.038   2.709   2.402 -2.8460  0.2698 -0.9414
  145MOL0     H19104   8.495   2.664   2.493  2.2384 -0.3323  0.1257
  145MOL0     H19105   8.698   2.764   2.592 -1.8301 -1.6421 -1.4503
  145MOL0     H19106   8.622   2.909   2.927  0.0961 -1.5087 -1.7481
  145MOL0     H19107   8.670   3.077   2.915 -1.8131 -1.2482 -1.0343
  145MOL0     H19108   8.842   2.998   3.045 -0.5647  0.4047  0.1798
  145MOL0     H19109   8.900   3.048   2.883  0.0506  0.4045 -0.9044
  145MOL0     H19110   8.908   2.799   2.832 -1.6700  0.5925 -0.7173
  145MOL0     H19111   8.850   2.756   2.992  1.1000 -0.8805  1.2937
  145MOL0     H19112   9.109   2.919   2.936 -0.6750  0.0569  0.2980
  145MOL0     H19113   9.048   2.873   3.092 -1.2201  0.7119 -0.2972
  145MOL0     H19114   9.221   2.728   3.027 -0.4115  1.4819 -0.8722
  145MOL0     H19115   9.161   2.698   2.866  0.4739  1.7485 -0.0087
  145MOL0     H19116   8.988   2.548   2.940 -2.3813  2.7731  0.9136
  145MOL0     H19117   8.988   2.600   3.106  0.9717 -2.2426  1.1341
  145MOL0     H19118   9.225   2.528   3.124 -1.6863  2.2791  0.7586
  145MOL0     H19119   9.116   2.384   3.116 -2.5189 -1.4360 -1.5356
  145MOL0     H19120   9.289   2.487   2.882  0.4256 -0.4549 -0.3060
  145MOL0     H19121   9.159   2.362   2.879  0.4253  0.2621  1.0795
  145MOL0     H19122   8.470   3.065   2.789  1.5344 -1.5833  1.4032
  145MOL0     H19123   8.247   2.975   2.670 -0.2470 -0.5227  0.3619
  145MOL0     H19124   8.181   2.328   2.545  1.3479  1.0573 -0.5841
  145MOL0     H19125   8.017   2.223   2.444  2.3512  0.3890 -0.7426
  145MOL0     H19126   8.502   2.317   3.702  0.7164  0.7082  1.9436
  145MOL0     H19127   8.740   2.319   3.703 -0.7998  0.0031 -1.0881
  145MOL0     H19128   9.136   2.599   3.744 -0.1435  1.0467 -1.1403
  145MOL0     H19129   9.380   2.649   3.717 -1.7250  0.5759 -0.2861
  145MOL0     H19130   9.626   2.717   3.525  1.5605 -0.5555 -0.3631
  145MOL0     H19131   9.514   2.649   3.400 -0.8596  0.5834  1.3615
  145MOL0     H19132   9.787   2.647   3.362 -1.8591  2.1263 -0.7640
  145MOL0     H19133   9.773   2.506   3.457 -1.6500 -3.1236 -1.3299
  145MOL0     H19134   9.636   2.551   3.186 -1.1373 -1.7190 -0.4413
  145MOL0     H19135   9.586   2.427   3.307  0.9693  0.4918  2.0377
  145MOL0     H19136   9.874   2.455   3.205  1.2867 -1.6431  0.5888
  145MOL0     H19137   9.793   2.312   3.272 -0.7809 -0.8582 -0.6272
  145MOL0     H19138   9.669   2.300   2.869 -2.2737 -0.1547  1.3350
  145MOL0     H19139   9.411   2.357   3.416 -2.9871 -2.2550 -1.0349
  145MOL0     H19140   9.180   2.303   3.434 -0.3663  0.8078 -0.2333
  146MOL0     O19141   0.811   1.745   3.492  0.3508  0.0823  0.2622
  146MOL0     C19142   0.835   1.778   3.604  0.1406  0.5254  0.1520
  146MOL0     O19143   0.778   1.891   3.672 -0.2574  0.4439  0.2479
  146MOL0     C19144   0.668   1.961   3.625  0.2892  0.1807  0.4673
  146MOL0     C19145   0.540   1.966   3.701 -1.0471  0.5045  1.2151
  146MOL0     C19146   0.433   2.033   3.643 -0.5993  0.0361  1.0368
  146MOL0     C19147   0.447   2.111   3.524  0.8856  0.7029  0.9175
  146MOL0     O19148   0.324   2.170   3.489  0.1508  0.1292  0.8430
  146MOL0     C19149   0.309   2.213   3.350 -0.4291 -0.7605  0.3663
  146MOL0     C19150   0.159   2.254   3.316  0.6034 -0.5297 -0.7605
  146MOL0     C19151   0.123   2.294   3.172 -0.7364 -0.0488 -0.7442
  146MOL0     C19152   0.212   2.413   3.131  0.5960  0.4543  0.7140
  146MOL0     C19153   0.147   2.498   3.029  0.1859 -0.4344  0.7597
  146MOL0     C19154   0.235   2.594   2.937 -0.4409 -0.5409 -0.6218
  146MOL0     C19155   0.328   2.707   3.012 -0.8967  0.4097  0.2660
  146MOL0     C19156   0.468   2.644   3.051 -0.0597 -0.3185 -0.8666
  146MOL0     N19157   0.541   2.602   2.929 -0.2093 -0.6658  0.1438
  146MOL0     C19158   0.626   2.502   2.929  0.7900 -0.8108  0.0914
  146MOL0     C19159   0.675   2.502   2.807 -0.8844  0.0484  0.9951
  146MOL0     C19160   0.790   2.418   2.765  0.2274 -0.5836  0.0177
  146MOL0     C19161   0.741   2.274   2.741 -0.1455 -0.4650 -0.4035
  146MOL0     C19162   0.858   2.182   2.698 -0.6041  0.0848  2.0185
  146MOL0     C19163   0.900   2.196   2.546  0.0188  0.8981 -0.5222
  146MOL0     O19164   1.036   2.155   2.553  0.0810 -0.5609 -0.1718
  146MOL0     C19165   1.105   2.123   2.445  0.1382 -0.6281  0.1164
  146MOL0     C19166   1.231   2.079   2.474 -0.1345  0.1357  0.0347
  146MOL0     C19167   1.319   2.058   2.372 -0.1942 -0.0456  0.1287
  146MOL0     C19168   1.288   2.072   2.244  0.0234 -0.2202 -0.0377
  146MOL0     C19169   1.376   2.046   2.130 -0.9472  0.3223 -0.4441
  146MOL0     O19170   1.326   2.070   2.002  0.4828 -0.5707 -0.3414
  146MOL0     C19171   1.395   2.021   1.891 -0.5175  0.4059 -0.5304
  146MOL0     C19172   1.307   1.982   1.797  0.6975  0.2877 -0.6526
  146MOL0     C19173   1.334   1.971   1.664  0.0843  0.5679  1.0297
  146MOL0     C19174   1.472   2.002   1.628 -0.6045  0.1850  0.2012
  146MOL0     O19175   1.523   2.005   1.501  0.3583 -0.2649 -0.4870
  146MOL0     C19176   1.432   1.970   1.395  0.7558 -0.2799 -0.0459
  146MOL0     C19177   1.396   1.813   1.383 -0.0182 -0.8203 -0.8015
  146MOL0     C19178   1.278   1.796   1.288  0.6895 -0.2332  0.4252
  146MOL0     C19179   1.137   1.821   1.358  0.1458 -0.5668  0.1928
  146MOL0     C19180   1.035   1.797   1.247 -0.2899 -0.0272  0.6639
  146MOL0     C19181   0.886   1.789   1.297  0.1084 -0.7399  0.9005
  146MOL0     C19182   0.864   1.688   1.415  0.3000  0.6234  0.1388
  146MOL0     C19183   0.744   1.607   1.398 -0.0556  0.6638 -0.3478
  146MOL0    Cl19184   0.605   1.707   1.348  0.5224  0.2493 -0.1127
  146MOL0     C19185   1.557   2.062   1.722 -0.3498  0.6229  0.6469
  146MOL0     C19186   1.527   2.066   1.860 -0.6667  0.1013 -0.6046
  146MOL0     O19187   1.487   1.993   2.153  0.4925 -0.5371 -0.2125
  146MOL0     C19188   1.152   2.104   2.214  0.6250  0.7045  0.0557
  146MOL0     C19189   1.068   2.131   2.313  0.2010  0.5371  0.4581
  146MOL0     N19190   0.608   2.593   2.731 -0.2608  0.5667 -0.1819
  146MOL0     N19191   0.522   2.658   2.807  0.7048  0.2904  0.8782
  146MOL0     C19192   0.566   2.102   3.456  0.5588  1.1493  0.4500
  146MOL0     C19193   0.676   2.026   3.505  0.2816  0.6100 -0.4110
  146MOL0     C19194   0.936   1.704   3.672 -0.4670  0.4962  0.0782
  146MOL0     C19195   0.912   1.568   3.716 -0.1813  0.1506 -1.0917
  146MOL0     C19196   1.008   1.499   3.791  0.1028  0.3078  1.2349
  146MOL0     C19197   1.133   1.555   3.805 -0.3118  1.2225 -0.3121
  146MOL0     O19198   1.222   1.489   3.888  0.4902  0.7139  0.0342
  146MOL0     C19199   1.353   1.452   3.836  0.4911 -0.0564 -0.1214
  146MOL0     C19200   1.436   1.402   3.951  0.1432  0.2974 -0.9782
  146MOL0     C19201   1.581   1.361   3.925 -0.1799  0.6207  0.4296
  146MOL0     C19202   1.675   1.384   4.040  0.1598 -0.2222  0.0643
  146MOL0     C19203   1.622   1.328   4.159  0.4089 -0.0579  0.8340
  146MOL0     C19204   1.575   1.295   4.265 -0.1340  0.0085  0.2938
  146MOL0     C19205   1.167   1.685   3.761 -0.7864  0.3206 -0.5669
  146MOL0     C19206   1.073   1.762   3.690 -0.0377 -0.3181  0.3780
  146MOL0     H19207   0.514   1.911   3.792 -0.0469 -0.5546  0.8833
  146MOL0     H19208   0.336   2.018   3.689 -0.7837 -2.1006  0.0320
  146MOL0     H19209   0.352   2.137   3.284  2.6963 -1.2454  2.7457
  146MOL0     H19210   0.373   2.300   3.338 -3.0672  1.5218  1.5555
  146MOL0     H19211   0.132   2.347   3.367  0.7545  0.0964 -1.7803
  146MOL0     H19212   0.091   2.171   3.336 -0.7587  1.1221  2.1395
  146MOL0     H19213   0.018   2.321   3.190 -0.6127  0.3057 -0.5416
  146MOL0     H19214   0.135   2.207   3.106 -1.2042 -0.9494  0.3200
  146MOL0     H19215   0.223   2.478   3.218 -4.4244  2.0864  0.4401
  146MOL0     H19216   0.304   2.369   3.091  1.7313  2.2492  1.2183
  146MOL0     H19217   0.073   2.559   3.081  1.2265  1.1985  0.3815
  146MOL0     H19218   0.102   2.432   2.954  0.1926 -1.5314  1.6900
  146MOL0     H19219   0.157   2.646   2.881 -2.1724 -0.9784  1.2415
  146MOL0     H19220   0.285   2.521   2.873  1.4723  0.3022 -0.1550
  146MOL0     H19221   0.337   2.790   2.942 -3.2834 -0.1594 -0.8215
  146MOL0     H19222   0.270   2.751   3.094 -1.0174  1.6624 -0.4660
  146MOL0     H19223   0.455   2.557   3.117  1.1984 -1.5509 -2.1553
  146MOL0     H19224   0.521   2.721   3.108 -2.3498  1.3259 -0.8339
  146MOL0     H19225   0.659   2.450   3.019  2.7492 -0.4951 -0.4041
  146MOL0     H19226   0.873   2.418   2.837  1.0617  1.6265 -0.8256
  146MOL0     H19227   0.822   2.465   2.671  0.9099  0.8760  0.9477
  146MOL0     H19228   0.665   2.261   2.663  2.0443 -2.2505 -2.3919
  146MOL0     H19229   0.709   2.235   2.838  2.0512  0.3507  0.7003
  146MOL0     H19230   0.941   2.206   2.765 -0.1359 -0.9392  1.8358
  146MOL0     H19231   0.828   2.077   2.706  1.8967 -0.9403 -0.2420
  146MOL0     H19232   0.895   2.301   2.514 -1.7131  1.6624  2.0010
  146MOL0     H19233   0.843   2.136   2.474  0.9319  2.7916 -2.9787
  146MOL0     H19234   1.260   2.082   2.578  1.8872  0.3251 -0.4947
  146MOL0     H19235   1.415   2.028   2.414 -0.0312 -1.8692 -1.4153
  146MOL0     H19236   1.209   1.964   1.840  1.2450 -1.4838 -0.0563
  146MOL0     H19237   1.259   1.934   1.594  1.5378 -3.1092  1.1566
  146MOL0     H19238   1.478   2.005   1.302 -0.5249  0.7978 -0.2948
  146MOL0     H19239   1.339   2.026   1.410  0.3145 -1.4181  1.7247
  146MOL0     H19240   1.376   1.767   1.481  0.1494 -1.1428 -0.9176
  146MOL0     H19241   1.481   1.756   1.345 -0.7289 -2.9783  0.6360
  146MOL0     H19242   1.274   1.695   1.248 -0.8614 -0.0146 -0.0193
  146MOL0     H19243   1.282   1.861   1.201 -0.7828 -2.9491 -1.8271
  146MOL0     H19244   1.117   1.758   1.445 -0.2727  0.1777  0.6440
  146MOL0     H19245   1.139   1.926   1.390  4.5654 -0.4318  0.1097
  146MOL0     H19246   1.057   1.704   1.194 -0.4268 -0.6333  1.6373
  146MOL0     H19247   1.043   1.878   1.175  2.7699 -0.4276  0.4502
  146MOL0     H19248   0.815   1.768   1.217  0.1933  0.5099  0.4687
  146MOL0     H19249   0.858   1.893   1.316 -2.1139 -0.7964 -1.5375
  146MOL0     H19250   0.945   1.615   1.417 -0.6740 -0.6722 -2.7954
  146MOL0     H19251   0.852   1.748   1.507 -0.3855  1.1701 -0.2939
  146MOL0     H19252   0.720   1.564   1.495 -0.6434  0.9599 -0.3561
  146MOL0     H19253   0.770   1.522   1.334 -2.4912 -0.4241 -0.0203
  146MOL0     H19254   1.658   2.093   1.697 -0.4318  0.5939  0.2764
  146MOL0     H19255   1.589   2.093   1.946 -2.5326 -0.4602  0.9843
  146MOL0     H19256   1.109   2.096   2.114  2.1939 -2.0654 -0.4990
  146MOL0     H19257   0.968   2.160   2.281 -0.0047  0.9652  1.4418
  146MOL0     H19258   0.587   2.153   3.362 -0.0160  1.2790  0.3919
  146MOL0     H19259   0.756   2.016   3.431 -1.4287 -0.1389 -2.2477
  146MOL0     H19260   0.820   1.514   3.694  0.4767 -0.5992 -2.1504
  146MOL0     H19261   0.993   1.397   3.826  1.4808 -0.1391  0.6118
  146MOL0     H19262   1.386   1.542   3.785  0.4005 -1.1188 -2.1876
  146MOL0     H19263   1.359   1.366   3.767  2.9836 -0.0328 -0.0112
  146MOL0     H19264   1.439   1.482   4.026  0.3971 -0.7577  0.1559
  146MOL0     H19265   1.384   1.322   4.004  2.3085  1.6789  3.7145
  146MOL0     H19266   1.617   1.411   3.835  0.6000  0.3503  0.5828
  146MOL0     H19267   1.595   1.259   3.889  1.9029  0.0556  2.5542
  146MOL0     H19268   1.775   1.347   4.015 -0.9404 -1.0482 -3.8967
  146MOL0     H19269   1.691   1.489   4.062  0.8132 -0.3779  0.3503
  146MOL0     H19270   1.547   1.267   4.365 -0.8867 -2.6884 -0.5866
  146MOL0     H19271   1.266   1.723   3.782  1.2994 -2.6015 -3.9019
  146MOL0     H19272   1.090   1.867   3.669 -4.7331  0.2460 -1.8257
  147MOL0     O19273   8.171   9.093   4.363  0.4677  0.2830  0.1893
  147MOL0     C19274   8.227   9.161   4.447 -0.4670 -0.3271  0.6250
  147MOL0     O19275   8.178   9.271   4.510 -0.1425 -0.0717 -0.3685
  147MOL0     C19276   8.049   9.296   4.481 -0.9978  0.4251 -0.1426
  147MOL0     C19277   8.035   9.429   4.430  0.8001  1.4869  0.1098
  147MOL0     C19278   7.903   9.472   4.393 -0.4905 -0.0961 -0.7358
  147MOL0     C19279   7.791   9.393   4.412  0.1091 -0.0031  0.0068
  147MOL0     O19280   7.666   9.442   4.385  0.2313 -0.4831  0.3002
  147MOL0     C19281   7.576   9.354   4.320 -0.4522  0.1486  0.5713
  147MOL0     C19282   7.454   9.447   4.321  0.3961 -0.7394 -0.5763
  147MOL0     C19283   7.314   9.383   4.312 -0.2410  0.2414 -0.5244
  147MOL0     C19284   7.202   9.487   4.304 -0.2611  0.3412 -0.2546
  147MOL0     C19285   7.076   9.417   4.358  0.4124 -0.2712  0.6576
  147MOL0     C19286   6.945   9.491   4.316  0.5593 -0.2561  0.5991
  147MOL0     C19287   6.830   9.397   4.347 -0.3626  0.0588  0.1829
  147MOL0     C19288   6.695   9.463   4.324  0.6653  0.2064  0.1380
  147MOL0     N19289   6.626   9.411   4.210 -0.8140 -0.0346 -0.2617
  147MOL0     C19290   6.630   9.465   4.083  0.6281 -0.8726  0.7421
  147MOL0     C19291   6.559   9.385   4.008 -0.3473 -0.1871 -0.0452
  147MOL0     C19292   6.565   9.368   3.856 -0.5165 -0.6827  0.0661
  147MOL0     C19293   6.420   9.360   3.805 -0.4222 -0.1072 -0.4032
  147MOL0     C19294   6.391   9.213   3.759  0.2608 -0.1701  0.2476
  147MOL0     C19295   6.254   9.198   3.721  0.1546  0.8741  1.1572
  147MOL0     O19296   6.202   9.285   3.618  0.3577  0.4891 -0.2403
  147MOL0     C19297   6.067   9.298   3.613  0.1363 -0.1626 -0.0750
  147MOL0     C19298   6.014   9.409   3.548 -0.1536  0.2636  0.7837
  147MOL0     C19299   5.876   9.441   3.551 -0.2022 -0.2385  0.1154
  147MOL0     C19300   5.785   9.351   3.608 -0.7145 -0.1457  0.0438
  147MOL0     C19301   5.641   9.386   3.609  0.2483 -0.0317  0.2306
  147MOL0     O19302   5.567   9.280   3.645 -0.3798  0.9477  0.1254
  147MOL0     C19303   5.439   9.295   3.688  1.2127  0.4891  0.6090
  147MOL0     C19304   5.389   9.415   3.751  0.2589 -0.0311 -0.0493
  147MOL0     C19305   5.259   9.436   3.784  0.9528 -0.3798  0.0805
  147MOL0     C19306   5.167   9.336   3.760  0.6606 -0.1239 -0.3151
  147MOL0     O19307   5.033   9.345   3.809  0.0595 -0.1068 -0.2137
  147MOL0     C19308   4.972   9.473   3.779 -0.4034 -0.3783 -0.2444
  147MOL0     C19309   4.819   9.459   3.795  0.0566 -0.0381 -1.0884
  147MOL0     C19310   4.776   9.462   3.946  0.4385  0.1961 -0.1736
  147MOL0     C19311   4.633   9.485   3.970  0.7631  0.8945 -0.3257
  147MOL0     C19312   4.605   9.487   4.121  0.3759  0.1518 -0.0201
  147MOL0     C19313   4.456   9.523   4.152  0.7574 -0.6550  0.5880
  147MOL0     C19314   4.429   9.507   4.300  0.6581  0.8881  0.4751
  147MOL0     C19315   4.345   9.375   4.311  0.3239 -0.2832 -0.1940
  147MOL0    Cl19316   4.174   9.410   4.261 -0.1556  0.3426  0.4696
  147MOL0     C19317   5.208   9.207   3.707 -0.4052 -0.8876  1.0272
  147MOL0     C19318   5.341   9.194   3.674 -0.0149 -0.0492  0.7769
  147MOL0     O19319   5.602   9.491   3.563 -0.4000  0.6451  0.1118
  147MOL0     C19320   5.835   9.232   3.653  0.2354  0.2007 -0.2498
  147MOL0     C19321   5.976   9.209   3.658  0.6691  0.0097  0.2150
  147MOL0     N19322   6.489   9.300   4.092 -0.5568 -0.4047  0.6075
  147MOL0     N19323   6.531   9.318   4.209 -0.3740 -0.6242 -0.4435
  147MOL0     C19324   7.812   9.264   4.474  0.3710 -0.1117 -0.0068
  147MOL0     C19325   7.941   9.212   4.505 -0.2640 -0.4510  0.7379
  147MOL0     C19326   8.376   9.130   4.470  0.7484 -0.8596  1.0404
  147MOL0     C19327   8.461   9.221   4.543  0.2813  0.2122  0.7585
  147MOL0     C19328   8.601   9.213   4.546  0.5917  0.6784 -1.0980
  147MOL0     C19329   8.666   9.096   4.508 -0.6583 -0.1530 -0.5404
  147MOL0     O19330   8.807   9.083   4.501 -0.3532 -0.2633  0.5577
  147MOL0     C19331   8.892   9.142   4.594  0.4657 -0.4279 -1.1752
  147MOL0     C19332   9.018   9.052   4.611  0.3431  0.0164 -0.0781
  147MOL0     C19333   9.112   9.040   4.491  0.4503 -1.3034 -0.1752
  147MOL0     C19334   9.196   9.168   4.475 -0.5003 -0.2998 -0.1666
  147MOL0     C19335   9.293   9.183   4.586  0.8249 -0.1214 -0.0541
  147MOL0     C19336   9.377   9.186   4.667 -0.4179  0.4018  0.2937
  147MOL0     C19337   8.594   9.004   4.441  0.6666 -0.3694  0.2592
  147MOL0     C19338   8.452   9.029   4.411 -1.3338 -0.8003  0.9081
  147MOL0     H19339   8.121   9.495   4.419  1.8692  0.0439 -0.5466
  147MOL0     H19340   7.903   9.574   4.355  0.2024  0.5143  0.8324
  147MOL0     H19341   7.561   9.263   4.377  5.0490 -0.4398  1.5684
  147MOL0     H19342   7.614   9.332   4.219  0.2142  0.2624  0.7959
  147MOL0     H19343   7.469   9.521   4.242 -0.3550  0.6142  0.5014
  147MOL0     H19344   7.458   9.519   4.403  1.0283 -0.7587 -0.5906
  147MOL0     H19345   7.305   9.322   4.402 -1.5129  2.7677  1.2021
  147MOL0     H19346   7.300   9.320   4.223 -3.1637 -0.6297  0.4456
  147MOL0     H19347   7.221   9.570   4.372 -1.5764  1.5078 -1.2559
  147MOL0     H19348   7.196   9.528   4.203  0.9155  1.5349  0.1260
  147MOL0     H19349   7.089   9.401   4.465  0.6968  1.9595  1.0090
  147MOL0     H19350   7.091   9.319   4.312  2.6722  0.7367 -0.9536
  147MOL0     H19351   6.936   9.531   4.214 -0.9060 -1.3614  0.2617
  147MOL0     H19352   6.937   9.583   4.374 -0.2666  0.2236 -0.2457
  147MOL0     H19353   6.831   9.308   4.284  2.0449  0.5394 -0.5384
  147MOL0     H19354   6.842   9.367   4.452  1.4098 -2.8374 -0.7352
  147MOL0     H19355   6.708   9.572   4.319 -1.4741  0.4682 -1.0635
  147MOL0     H19356   6.640   9.437   4.415  1.0974 -3.9821 -0.6029
  147MOL0     H19357   6.689   9.550   4.053  0.2974  0.0628  2.5726
  147MOL0     H19358   6.634   9.287   3.830  2.0144  0.5511  2.3525
  147MOL0     H19359   6.623   9.455   3.822  2.6150 -1.9844  1.6118
  147MOL0     H19360   6.408   9.432   3.724 -1.0763  2.8908  2.1362
  147MOL0     H19361   6.356   9.387   3.890  0.9939 -1.3289  1.1434
  147MOL0     H19362   6.442   9.198   3.663 -0.3235  4.5668 -1.0728
  147MOL0     H19363   6.427   9.130   3.821  0.3856 -0.0973  0.2736
  147MOL0     H19364   6.191   9.209   3.810 -0.5349  1.9538  0.5613
  147MOL0     H19365   6.234   9.097   3.684  2.6389  1.1632 -1.2490
  147MOL0     H19366   6.078   9.490   3.513 -2.4568  0.7291 -2.9299
  147MOL0     H19367   5.851   9.535   3.504 -1.7358 -1.5191 -1.8216
  147MOL0     H19368   5.450   9.504   3.761  1.1780 -0.6629  0.0433
  147MOL0     H19369   5.231   9.532   3.824  0.8879 -0.3025 -0.1527
  147MOL0     H19370   4.995   9.500   3.675  0.6734  0.2805  0.1541
  147MOL0     H19371   5.014   9.547   3.848  0.2490  0.9712 -2.0094
  147MOL0     H19372   4.789   9.363   3.754 -0.6259 -2.2173  3.8010
  147MOL0     H19373   4.782   9.549   3.745  1.7752  1.6217  0.4198
  147MOL0     H19374   4.844   9.534   3.992  3.0058 -1.1741 -1.5911
  147MOL0     H19375   4.814   9.373   3.998  3.0141  1.5877  0.5180
  147MOL0     H19376   4.604   9.583   3.931  1.6786  0.3863 -2.3866
  147MOL0     H19377   4.568   9.411   3.923  1.0010  1.2200 -1.1803
  147MOL0     H19378   4.673   9.552   4.177 -0.9949  1.0531  0.6432
  147MOL0     H19379   4.613   9.387   4.166 -2.1687 -0.6554 -1.1821
  147MOL0     H19380   4.384   9.460   4.098  0.1238 -0.2997  0.9988
  147MOL0     H19381   4.438   9.628   4.127 -0.9339 -0.8087  1.0370
  147MOL0     H19382   4.521   9.508   4.358  0.5202  1.8435  0.6888
  147MOL0     H19383   4.368   9.592   4.332 -0.6995 -0.7913  2.7228
  147MOL0     H19384   4.350   9.351   4.417  2.3328  1.0924  0.0854
  147MOL0     H19385   4.379   9.294   4.246  1.6742  2.2325 -2.8741
  147MOL0     H19386   5.131   9.134   3.685 -2.4371  1.4962 -0.1773
  147MOL0     H19387   5.365   9.101   3.622 -4.5290 -0.9979 -0.0072
  147MOL0     H19388   5.766   9.152   3.677 -0.2262 -0.0515 -2.2598
  147MOL0     H19389   6.000   9.110   3.696  1.1980 -0.7830 -2.0284
  147MOL0     H19390   7.726   9.201   4.495  1.0980 -0.2683  3.0941
  147MOL0     H19391   7.959   9.112   4.542  2.5690 -0.3957 -0.2420
  147MOL0     H19392   8.403   9.308   4.573 -2.5425 -0.2332 -2.6710
  147MOL0     H19393   8.651   9.296   4.595 -0.6602  0.1339  1.2333
  147MOL0     H19394   8.834   9.159   4.685 -0.0515 -2.3412 -1.1035
  147MOL0     H19395   8.926   9.242   4.567  2.4930 -0.6510  0.3317
  147MOL0     H19396   9.080   9.080   4.696  0.8703 -3.2592  0.7195
  147MOL0     H19397   8.973   8.956   4.636  0.0666  0.4106  0.9913
  147MOL0     H19398   9.048   9.016   4.406 -0.1234 -0.3190 -0.0281
  147MOL0     H19399   9.174   8.952   4.513  0.9609 -1.1668 -1.0409
  147MOL0     H19400   9.245   9.183   4.379  0.4293 -0.1842  0.3100
  147MOL0     H19401   9.124   9.251   4.480 -1.3475 -1.0747  3.2501
  147MOL0     H19402   9.458   9.182   4.737  0.6190 -1.5066 -0.9050
  147MOL0     H19403   8.643   8.913   4.408  1.0144 -0.2936  0.5571
  147MOL0     H19404   8.411   8.955   4.343  2.4729 -3.5309  1.2121
  148MOL0     O19405   4.142   4.391   1.701 -0.4395 -1.1327  0.3354
  148MOL0     C19406   4.156   4.274   1.732  0.4893 -0.3307  0.3778
  148MOL0     O19407   4.062   4.184   1.701 -0.2672 -0.3456 -0.3621
  148MOL0     C19408   3.933   4.225   1.692  0.0949 -0.2894 -0.1108
  148MOL0     C19409   3.849   4.249   1.803  0.6193  0.2496  0.0142
  148MOL0     C19410   3.713   4.288   1.792  0.2469  0.8268 -0.4102
  148MOL0     C19411   3.657   4.308   1.668  0.8601  0.1870  0.7822
  148MOL0     O19412   3.525   4.321   1.673  0.0956  0.2593 -0.5882
  148MOL0     C19413   3.445   4.381   1.570 -0.4531 -0.4619 -0.4645
  148MOL0     C19414   3.312   4.410   1.628  0.3620 -0.3142 -1.3539
  148MOL0     C19415   3.213   4.462   1.516 -0.5852  0.1308 -1.1143
  148MOL0     C19416   3.226   4.609   1.491 -0.0828  0.5368 -0.8792
  148MOL0     C19417   3.122   4.660   1.396  0.7920  0.6895 -0.3754
  148MOL0     C19418   3.130   4.810   1.379 -0.0791  0.2498 -0.1128
  148MOL0     C19419   3.018   4.867   1.286  0.1123 -0.0945 -0.0691
  148MOL0     C19420   2.882   4.845   1.342  0.9837 -0.2348  0.4136
  148MOL0     N19421   2.773   4.869   1.243 -0.7166  0.6214 -1.3399
  148MOL0     C19422   2.734   4.998   1.215  0.2127  0.3619  0.0148
  148MOL0     C19423   2.621   4.984   1.133 -0.3549  0.4809 -0.5294
  148MOL0     C19424   2.537   5.085   1.058  0.0867  0.2082  0.1698
  148MOL0     C19425   2.400   5.025   1.062 -0.1937 -0.3105  0.8695
  148MOL0     C19426   2.296   5.119   0.994 -0.6410  0.0690  0.5894
  148MOL0     C19427   2.160   5.058   1.031 -0.1565  0.1491  0.9751
  148MOL0     O19428   2.075   5.115   0.934 -0.2287 -1.1351 -0.7833
  148MOL0     C19429   1.955   5.049   0.911 -0.4552  0.4967 -0.2165
  148MOL0     C19430   1.873   4.995   1.013  0.0326  0.6011  0.1828
  148MOL0     C19431   1.749   4.943   0.982  0.8103 -0.8736  0.1721
  148MOL0     C19432   1.710   4.938   0.846  0.2858  0.0073  1.4605
  148MOL0     C19433   1.573   4.899   0.811  0.2590 -0.4097 -0.3546
  148MOL0     O19434   1.483   4.936   0.905  1.1431  0.6022 -0.2400
  148MOL0     C19435   1.354   4.949   0.867  0.3558  0.1954  0.9712
  148MOL0     C19436   1.310   5.038   0.773  0.8622 -0.4585  0.6850
  148MOL0     C19437   1.171   5.032   0.733  0.4896  0.0566 -0.4284
  148MOL0     C19438   1.075   4.976   0.812 -0.1981  0.3642 -0.4256
  148MOL0     O19439   0.944   5.008   0.794  0.1509 -1.0670 -0.4317
  148MOL0     C19440   0.892   5.059   0.671 -0.8919  0.0195 -0.1961
  148MOL0     C19441   0.737   5.085   0.692  0.7556 -0.3440 -1.0574
  148MOL0     C19442   0.665   4.959   0.720 -1.4829 -0.0227 -0.7542
  148MOL0     C19443   0.512   4.988   0.722 -0.1901 -0.1048  0.9509
  148MOL0     C19444   0.437   4.859   0.771  0.1108  0.4961 -0.1713
  148MOL0     C19445   0.290   4.863   0.733  0.2028 -0.5497  0.0062
  148MOL0     C19446   0.208   4.973   0.801  0.1318 -0.5875  0.4452
  148MOL0     C19447   0.057   4.962   0.770 -0.3147  0.6258 -0.0119
  148MOL0    Cl19448  -0.037   5.095   0.857 -0.0446  0.0360 -0.0526
  148MOL0     C19449   1.118   4.893   0.917 -0.2784 -0.8479  0.3182
  148MOL0     C19450   1.253   4.883   0.937 -0.3663 -0.3436 -0.8615
  148MOL0     O19451   1.549   4.844   0.700 -0.3662  0.7593  0.0243
  148MOL0     C19452   1.799   4.971   0.742 -0.0531  0.1289  0.4680
  148MOL0     C19453   1.920   5.034   0.777  0.6774  0.6611  0.3783
  148MOL0     N19454   2.614   4.852   1.107 -0.0912 -0.1812  0.3498
  148MOL0     N19455   2.707   4.782   1.172  1.0390  0.0338 -0.9617
  148MOL0     C19456   3.736   4.286   1.555  1.1780 -0.2790 -0.2806
  148MOL0     C19457   3.873   4.239   1.571  0.6666  0.1993  0.6487
  148MOL0     C19458   4.285   4.230   1.781 -1.8111  0.2260  0.2478
  148MOL0     C19459   4.397   4.315   1.797  0.6137  0.2531  0.1965
  148MOL0     C19460   4.520   4.260   1.845  0.1187 -0.4849 -0.4767
  148MOL0     C19461   4.543   4.124   1.852  0.5953  0.3280  0.1715
  148MOL0     O19462   4.665   4.074   1.894 -0.5456  0.2728  0.2483
  148MOL0     C19463   4.694   3.931   1.901 -0.2115 -0.5625 -0.3220
  148MOL0     C19464   4.829   3.906   1.954  0.5552  0.3872  0.9035
  148MOL0     C19465   4.936   3.933   1.848  1.1621 -0.3634 -0.8434
  148MOL0     C19466   5.086   3.898   1.885  0.0883 -0.7742  0.3322
  148MOL0     C19467   5.174   3.986   1.810 -0.5360 -0.2498 -0.0507
  148MOL0     C19468   5.251   4.034   1.728  0.0386 -0.6219 -0.7235
  148MOL0     C19469   4.430   4.041   1.837 -0.1088 -0.3921 -0.0648
  148MOL0     C19470   4.308   4.092   1.807  0.3631 -0.9381  0.3901
  148MOL0     H19471   3.881   4.231   1.905  0.0264 -1.9589 -0.1409
  148MOL0     H19472   3.651   4.304   1.880 -0.1753  4.1108 -1.1846
  148MOL0     H19473   3.439   4.312   1.485  2.5434  3.4252 -4.3374
  148MOL0     H19474   3.491   4.476   1.540 -1.2242 -0.8761 -3.3224
  148MOL0     H19475   3.324   4.483   1.708  0.8313 -1.9051  0.0891
  148MOL0     H19476   3.266   4.326   1.680 -3.3954  2.6409  0.5801
  148MOL0     H19477   3.108   4.450   1.545 -0.0510 -1.9510  0.2172
  148MOL0     H19478   3.222   4.417   1.417 -1.6039 -0.3208 -1.0152
  148MOL0     H19479   3.218   4.657   1.589 -3.0921 -0.8376 -0.3455
  148MOL0     H19480   3.325   4.634   1.452 -0.0223  0.9962 -0.4369
  148MOL0     H19481   3.020   4.634   1.426  0.1479  1.5868 -1.6719
  148MOL0     H19482   3.141   4.613   1.300 -1.8618  0.0224 -0.6492
  148MOL0     H19483   3.227   4.831   1.332  0.4918 -2.4924 -0.3330
  148MOL0     H19484   3.120   4.857   1.477  1.0876  0.0952  0.0970
  148MOL0     H19485   3.027   4.975   1.271  0.7113 -0.1226  0.0661
  148MOL0     H19486   3.037   4.820   1.189  1.6048  2.6475 -1.2148
  148MOL0     H19487   2.865   4.908   1.430 -3.3452  0.7708 -0.8939
  148MOL0     H19488   2.861   4.742   1.372 -0.3330  0.3236  1.5243
  148MOL0     H19489   2.774   5.088   1.260 -0.0709  0.3183  0.3627
  148MOL0     H19490   2.579   5.100   0.958  1.2558  2.5234  0.9465
  148MOL0     H19491   2.531   5.182   1.108  0.3753  0.4006 -0.1561
  148MOL0     H19492   2.379   5.009   1.168  3.7668 -3.0694  1.4891
  148MOL0     H19493   2.393   4.927   1.015 -1.6663  0.1422  0.1255
  148MOL0     H19494   2.309   5.218   1.041  1.2173 -0.7620  1.9591
  148MOL0     H19495   2.313   5.119   0.886  0.4518 -3.4065  0.6410
  148MOL0     H19496   2.125   5.089   1.130 -0.1491  2.6292  0.2766
  148MOL0     H19497   2.152   4.949   1.030  1.6560 -0.0130 -0.4969
  148MOL0     H19498   1.907   5.001   1.115 -2.2292 -1.1332  1.1091
  148MOL0     H19499   1.684   4.915   1.065  0.9031 -2.1710 -0.1791
  148MOL0     H19500   1.380   5.111   0.733  0.9801 -1.2389 -0.5558
  148MOL0     H19501   1.132   5.094   0.653  2.5695  4.0345  1.3299
  148MOL0     H19502   0.926   5.004   0.583  2.4650  0.2597  0.8034
  148MOL0     H19503   0.935   5.158   0.653  0.8354 -0.9327 -1.5200
  148MOL0     H19504   0.708   5.137   0.600  0.0772  0.6847 -0.2711
  148MOL0     H19505   0.722   5.149   0.779  0.8807 -3.3299  1.3467
  148MOL0     H19506   0.683   4.926   0.823 -0.6913 -0.6310 -1.0756
  148MOL0     H19507   0.709   4.881   0.657 -1.2682  0.5249 -1.2954
  148MOL0     H19508   0.487   5.067   0.794 -2.1551  0.6567 -0.4681
  148MOL0     H19509   0.476   5.024   0.626  3.8090  2.4385  0.2027
  148MOL0     H19510   0.437   4.860   0.880  2.3422 -1.6250 -0.0877
  148MOL0     H19511   0.492   4.775   0.729  0.4946  0.9860 -0.6603
  148MOL0     H19512   0.232   4.775   0.765 -1.2361  0.1992 -0.4342
  148MOL0     H19513   0.281   4.866   0.624  0.7489 -1.6338 -0.0830
  148MOL0     H19514   0.220   4.955   0.909  0.8882 -0.1700  0.4338
  148MOL0     H19515   0.247   5.071   0.774  4.1963 -2.1256  0.0441
  148MOL0     H19516   0.021   4.875   0.824  0.4211 -1.1900 -2.3020
  148MOL0     H19517   0.031   4.934   0.668 -1.9866  1.5351  0.1394
  148MOL0     H19518   1.049   4.849   0.988  1.0843 -1.2494  1.4345
  148MOL0     H19519   1.294   4.833   1.024 -1.7258  0.5011  0.3051
  148MOL0     H19520   1.789   4.956   0.635  2.6846 -2.2409  0.4277
  148MOL0     H19521   1.996   5.050   0.701  2.0419 -2.9864  0.7778
  148MOL0     H19522   3.702   4.308   1.454  1.7539  0.7802 -0.2551
  148MOL0     H19523   3.938   4.217   1.487  0.0911  1.4640 -0.1600
  148MOL0     H19524   4.377   4.420   1.777 -2.3641 -0.7283 -2.8674
  148MOL0     H19525   4.608   4.322   1.856 -1.6961  2.1040  0.4550
  148MOL0     H19526   4.665   3.878   1.809  0.2241  0.5324 -1.1081
  148MOL0     H19527   4.626   3.900   1.981 -0.7932  3.5393  1.0023
  148MOL0     H19528   4.858   3.967   2.041  3.4530  0.5784 -0.1058
  148MOL0     H19529   4.837   3.799   1.972  0.6128  0.6185  2.4022
  148MOL0     H19530   4.925   4.039   1.824 -1.8880 -0.5738 -0.6991
  148MOL0     H19531   4.902   3.875   1.762 -2.0599 -1.8894  1.2867
  148MOL0     H19532   5.099   3.916   1.992  1.5475 -1.7344  0.3375
  148MOL0     H19533   5.114   3.794   1.871  2.4844 -0.3363  1.4351
  148MOL0     H19534   5.319   4.089   1.666  0.2689 -2.6090 -2.3117
  148MOL0     H19535   4.433   3.935   1.860 -3.6513 -0.8604 -1.1024
  148MOL0     H19536   4.227   4.022   1.789 -1.7231  1.2932  0.6087
  149MOL0     O19537   5.531   3.662   7.626  0.1629  0.4349  0.5832
  149MOL0     C19538   5.520   3.700   7.746  0.2052 -0.2119  0.4948
  149MOL0     O19539   5.447   3.640   7.840 -0.2863  0.4314 -0.0640
  149MOL0     C19540   5.382   3.519   7.823  0.1697  0.4194  0.2507
  149MOL0     C19541   5.315   3.481   7.704 -1.0193  0.2182  0.4009
  149MOL0     C19542   5.261   3.353   7.685  0.5614  0.3995  0.0748
  149MOL0     C19543   5.261   3.261   7.786 -0.3860 -0.4306  0.7781
  149MOL0     O19544   5.214   3.137   7.770  0.0822  0.1766 -1.3069
  149MOL0     C19545   5.129   3.100   7.664  0.4429  0.3724 -0.3089
  149MOL0     C19546   5.088   2.956   7.665 -0.0006 -0.2920 -0.3197
  149MOL0     C19547   5.206   2.857   7.665  0.7598 -0.5643 -1.0535
  149MOL0     C19548   5.155   2.709   7.685 -0.4113  0.4875 -0.1050
  149MOL0     C19549   5.259   2.592   7.662  0.1822 -0.2728  0.7211
  149MOL0     C19550   5.317   2.595   7.518 -0.2694  0.3570 -0.2288
  149MOL0     C19551   5.411   2.473   7.490  0.2910  0.4384 -0.2827
  149MOL0     C19552   5.452   2.474   7.334  0.5902  0.2852 -0.4451
  149MOL0     N19553   5.584   2.439   7.311 -0.4739  0.0932 -0.3764
  149MOL0     C19554   5.627   2.334   7.235 -0.4021  0.6755  0.0799
  149MOL0     C19555   5.761   2.342   7.234 -1.0248 -0.1065 -0.1638
  149MOL0     C19556   5.854   2.247   7.170  0.1416  1.2435 -0.9392
  149MOL0     C19557   5.915   2.160   7.280 -0.3706  0.5080  0.0474
  149MOL0     C19558   6.052   2.101   7.224  0.0793 -0.6890  0.0210
  149MOL0     C19559   6.110   1.985   7.308 -1.0281 -0.7799 -0.3350
  149MOL0     O19560   6.183   2.023   7.424  0.4553 -0.0530  0.0933
  149MOL0     C19561   6.312   2.059   7.425  0.4772 -0.7309  0.1058
  149MOL0     C19562   6.360   2.111   7.546  0.0860  0.6892  0.6362
  149MOL0     C19563   6.487   2.170   7.545  0.3579  0.1298  0.6268
  149MOL0     C19564   6.574   2.157   7.437 -0.1665  0.7410 -0.0836
  149MOL0     C19565   6.706   2.215   7.443 -0.2275  0.5250  0.4457
  149MOL0     O19566   6.789   2.218   7.327  0.1399  0.1691 -0.5151
  149MOL0     C19567   6.925   2.241   7.315 -0.7134  0.3272  0.5453
  149MOL0     C19568   6.982   2.278   7.194 -0.5150  0.5218  0.6933
  149MOL0     C19569   7.111   2.311   7.188 -0.3137 -0.3462 -0.3115
  149MOL0     C19570   7.206   2.297   7.289 -0.1281 -0.8957 -0.8615
  149MOL0     O19571   7.345   2.318   7.307 -0.4602  0.2034  0.1080
  149MOL0     C19572   7.417   2.327   7.183 -0.2430 -0.1498 -0.7744
  149MOL0     C19573   7.555   2.366   7.240  0.0804 -0.8645 -0.0748
  149MOL0     C19574   7.641   2.442   7.131 -0.1452  0.3023 -0.4475
  149MOL0     C19575   7.780   2.461   7.180  0.9699 -0.0657 -0.4318
  149MOL0     C19576   7.873   2.347   7.133  0.7235 -0.1317  0.1084
  149MOL0     C19577   8.019   2.375   7.141 -0.4661  0.1424  0.3226
  149MOL0     C19578   8.061   2.504   7.068  0.7338 -0.1648 -0.2312
  149MOL0     C19579   8.207   2.504   7.029  0.6412 -0.8669 -0.2094
  149MOL0    Cl19580   8.315   2.450   7.163 -0.1417 -0.7697  0.1856
  149MOL0     C19581   7.147   2.243   7.415  0.5123  0.6753 -0.0421
  149MOL0     C19582   7.007   2.231   7.426  0.0413  0.0003 -0.3951
  149MOL0     O19583   6.739   2.243   7.559 -0.1732 -0.1410  0.0141
  149MOL0     C19584   6.531   2.089   7.323  0.1983 -0.6947 -1.0544
  149MOL0     C19585   6.398   2.049   7.317  0.7598  0.4552  0.2546
  149MOL0     N19586   5.805   2.451   7.305  0.6382 -0.6786 -0.1704
  149MOL0     N19587   5.688   2.516   7.346 -0.4388 -0.1718  0.0595
  149MOL0     C19588   5.324   3.298   7.906  0.4680 -0.5738  0.3254
  149MOL0     C19589   5.383   3.422   7.926 -0.0077 -0.7416  0.2863
  149MOL0     C19590   5.606   3.805   7.798 -0.1411 -1.5828 -0.5145
  149MOL0     C19591   5.669   3.901   7.711 -0.5030 -0.3915  0.7264
  149MOL0     C19592   5.759   3.986   7.764  0.2028 -0.3973 -0.5316
  149MOL0     C19593   5.786   4.001   7.902  0.5167  0.8552 -0.3575
  149MOL0     O19594   5.887   4.093   7.931  0.5466  0.2564 -0.4158
  149MOL0     C19595   5.943   4.108   8.065 -0.2613 -0.7742  0.2994
  149MOL0     C19596   6.088   4.178   8.058 -0.2709 -0.1728 -0.1423
  149MOL0     C19597   6.143   4.210   8.204  1.3743  0.4567 -0.6533
  149MOL0     C19598   6.285   4.263   8.189  0.3828 -0.4251 -0.3877
  149MOL0     C19599   6.284   4.394   8.120  0.4608 -0.4090  0.2975
  149MOL0     C19600   6.288   4.512   8.086 -0.0313 -0.5199 -0.4134
  149MOL0     C19601   5.733   3.899   7.982  0.8329  0.0997  0.0253
  149MOL0     C19602   5.642   3.809   7.933 -0.6815 -0.4995  0.1393
  149MOL0     H19603   5.298   3.554   7.626 -1.4120 -1.2086 -0.9018
  149MOL0     H19604   5.212   3.336   7.589 -1.3896 -0.4666  1.1544
  149MOL0     H19605   5.175   3.122   7.567 -0.1307  1.5747 -0.3295
  149MOL0     H19606   5.042   3.167   7.669  0.2623  0.0559  1.0211
  149MOL0     H19607   5.022   2.943   7.579 -3.4897  1.6117  1.8155
  149MOL0     H19608   5.028   2.932   7.753  0.4210 -3.0073 -0.6986
  149MOL0     H19609   5.271   2.889   7.747 -1.1790 -0.5229  0.5465
  149MOL0     H19610   5.257   2.863   7.569 -0.1604  1.0608 -1.4882
  149MOL0     H19611   5.120   2.694   7.787  0.4955  1.7590  0.4138
  149MOL0     H19612   5.078   2.682   7.611  0.2946  2.0027 -1.4722
  149MOL0     H19613   5.195   2.503   7.676 -0.9423 -0.0962 -2.4615
  149MOL0     H19614   5.333   2.595   7.743  0.1126 -1.2032  0.8329
  149MOL0     H19615   5.381   2.684   7.515 -0.2225  0.5833  3.2442
  149MOL0     H19616   5.242   2.614   7.441  0.8205  1.1846 -1.1162
  149MOL0     H19617   5.502   2.478   7.550  1.1861 -0.8487 -1.4912
  149MOL0     H19618   5.353   2.386   7.522 -0.7527 -0.2123 -3.5828
  149MOL0     H19619   5.433   2.576   7.299  0.3880  0.8793  1.2955
  149MOL0     H19620   5.387   2.410   7.274  0.8625 -1.0516  0.6449
  149MOL0     H19621   5.565   2.260   7.185 -1.3595  1.7753 -0.4192
  149MOL0     H19622   5.920   2.311   7.112 -1.2128  2.8839 -0.7403
  149MOL0     H19623   5.802   2.173   7.108 -0.0510 -1.1556  1.8314
  149MOL0     H19624   5.855   2.070   7.294  0.0126  0.2807  0.2439
  149MOL0     H19625   5.919   2.216   7.374 -0.2986  2.0988 -0.8712
  149MOL0     H19626   6.035   2.066   7.122 -3.7602  0.2629  0.1748
  149MOL0     H19627   6.127   2.179   7.236 -0.5436 -0.3624  2.4466
  149MOL0     H19628   6.181   1.923   7.251  1.0455  0.2305  1.0046
  149MOL0     H19629   6.032   1.910   7.323 -0.8221 -0.6186  1.8169
  149MOL0     H19630   6.288   2.112   7.627  1.2049 -0.9333  1.7067
  149MOL0     H19631   6.524   2.216   7.636 -1.1801  1.8897  0.4086
  149MOL0     H19632   6.920   2.283   7.105 -0.6130  0.3915  0.7536
  149MOL0     H19633   7.143   2.355   7.094  0.4065  1.2285  0.6400
  149MOL0     H19634   7.373   2.404   7.118  0.9605  1.1021 -0.1646
  149MOL0     H19635   7.416   2.230   7.134 -1.1295  0.0312 -1.1397
  149MOL0     H19636   7.601   2.279   7.288  1.1008 -0.5167 -0.3950
  149MOL0     H19637   7.542   2.441   7.318  0.7753  2.3991 -2.8695
  149MOL0     H19638   7.605   2.544   7.116  2.2139  1.3405  0.4597
  149MOL0     H19639   7.637   2.386   7.037 -2.1810 -1.1117  0.3954
  149MOL0     H19640   7.826   2.549   7.135  0.2282  0.9300  0.7056
  149MOL0     H19641   7.786   2.480   7.287  0.6661  2.7859 -0.8581
  149MOL0     H19642   7.850   2.320   7.029 -1.0175  0.5140  0.2819
  149MOL0     H19643   7.858   2.254   7.188 -0.5132 -2.0220 -3.0890
  149MOL0     H19644   8.064   2.289   7.092 -0.2639  1.6909 -2.4517
  149MOL0     H19645   8.041   2.374   7.248 -1.1266 -0.4496  0.4595
  149MOL0     H19646   7.997   2.518   6.981  0.0095  0.3599  0.3789
  149MOL0     H19647   8.046   2.584   7.142 -0.0776 -1.9048  1.5922
  149MOL0     H19648   8.229   2.610   7.012 -0.8365 -0.1377  1.9784
  149MOL0     H19649   8.230   2.444   6.940  1.0524  0.1038 -0.7707
  149MOL0     H19650   7.210   2.221   7.500 -1.1716 -1.4837  0.7423
  149MOL0     H19651   6.969   2.213   7.525 -0.9981  1.5477 -0.4904
  149MOL0     H19652   6.596   2.083   7.236  1.0901  1.4319 -0.5930
  149MOL0     H19653   6.350   2.004   7.231 -3.1858  0.3832  2.2803
  149MOL0     H19654   5.325   3.222   7.984  2.2183 -0.3586  0.5446
  149MOL0     H19655   5.422   3.454   8.022 -0.4288 -1.1868  0.6139
  149MOL0     H19656   5.654   3.898   7.603  1.6473 -0.1228  0.3841
  149MOL0     H19657   5.807   4.058   7.698  0.6766 -1.6894 -1.6480
  149MOL0     H19658   5.962   4.010   8.110  3.0754 -1.7783 -2.8076
  149MOL0     H19659   5.878   4.162   8.135  0.8931  1.6995 -0.4024
  149MOL0     H19660   6.157   4.107   8.011 -0.7366 -1.4931  1.1049
  149MOL0     H19661   6.074   4.273   8.005  0.8873  0.1023  0.0143
  149MOL0     H19662   6.151   4.112   8.252  1.1303  0.8242  0.1504
  149MOL0     H19663   6.076   4.275   8.260  1.4535 -0.0814  0.0807
  149MOL0     H19664   6.330   4.275   8.288 -1.6827 -3.0931  1.0013
  149MOL0     H19665   6.356   4.197   8.138  2.2469 -0.1863  1.7545
  149MOL0     H19666   6.287   4.615   8.056  0.1088 -0.4616 -0.2215
  149MOL0     H19667   5.748   3.918   8.088 -0.9176  0.0179  0.3164
  149MOL0     H19668   5.605   3.737   8.005  0.7889 -3.2498 -1.6744
  150MOL0     O19669   0.405   8.385   9.809  0.0769  0.2472  0.2171
  150MOL0     C19670   0.479   8.290   9.820  0.3857 -0.3486  0.1588
  150MOL0     O19671   0.598   8.274   9.763 -0.2246  0.5267  0.2723
  150MOL0     C19672   0.677   8.375   9.719  0.1675 -0.9101  0.3507
  150MOL0     C19673   0.777   8.348   9.619 -0.4370 -0.4140  0.1999
  150MOL0     C19674   0.859   8.458   9.571  0.5606  0.5089  0.3948
  150MOL0     C19675   0.838   8.584   9.626 -0.3565 -0.2433  0.2608
  150MOL0     O19676   0.907   8.699   9.584 -0.2570  0.6673 -0.1494
  150MOL0     C19677   1.014   8.684   9.492 -1.1181  0.6321  0.1121
  150MOL0     C19678   0.972   8.707   9.349  0.2293  0.0156  0.3506
  150MOL0     C19679   0.922   8.853   9.333  0.0031 -1.1050 -0.3717
  150MOL0     C19680   0.876   8.873   9.190 -0.2056 -0.0718  0.5163
  150MOL0     C19681   0.796   8.992   9.177 -0.5776 -0.1269 -0.8842
  150MOL0     C19682   0.742   9.019   9.042  0.6097 -0.4499 -0.2980
  150MOL0     C19683   0.663   9.159   9.023 -0.5289  0.3267 -0.1177
  150MOL0     C19684   0.514   9.146   9.042 -0.0897  0.1356  0.0359
  150MOL0     N19685   0.480   9.108   9.186 -0.2565  0.8623  0.3489
  150MOL0     C19686   0.410   8.992   9.219  0.0067  0.2554  0.7790
  150MOL0     C19687   0.377   9.006   9.350  0.5076  0.5259 -0.4692
  150MOL0     C19688   0.318   8.903   9.434 -0.4330 -0.0315 -0.5296
  150MOL0     C19689   0.419   8.789   9.455  0.9706 -0.5466 -0.1423
  150MOL0     C19690   0.377   8.684   9.544 -0.0215 -0.4138 -0.3377
  150MOL0     C19691   0.229   8.636   9.518  0.4973  0.4633  0.4518
  150MOL0     O19692   0.212   8.612   9.378 -0.2262 -0.1369 -0.2085
  150MOL0     C19693   0.092   8.565   9.324  0.2777  0.1986 -1.3247
  150MOL0     C19694   0.093   8.538   9.192  0.8503  0.3954  0.0572
  150MOL0     C19695  -0.021   8.500   9.121  0.7518  1.0506  0.2500
  150MOL0     C19696  -0.146   8.468   9.186  0.2863  0.0418 -0.4296
  150MOL0     C19697  -0.254   8.405   9.111  0.2931 -0.2562 -0.8611
  150MOL0     O19698  -0.225   8.395   8.979 -0.1325  0.0378 -0.2078
  150MOL0     C19699  -0.306   8.312   8.899 -0.6536 -0.9798  0.0319
  150MOL0     C19700  -0.240   8.219   8.810 -0.5590 -0.7210  0.6403
  150MOL0     C19701  -0.322   8.139   8.728  0.5941 -0.7143  1.0061
  150MOL0     C19702  -0.460   8.146   8.735  0.5415 -0.3692  0.7963
  150MOL0     O19703  -0.532   8.054   8.660 -0.3258 -0.8829  0.5842
  150MOL0     C19704  -0.596   7.956   8.740  0.0124  0.0299  0.2821
  150MOL0     C19705  -0.747   7.979   8.751  0.7008  0.3817  0.3241
  150MOL0     C19706  -0.820   7.843   8.762  0.0809  0.0505 -0.4893
  150MOL0     C19707  -0.782   7.779   8.897 -0.2641 -0.2322 -0.6716
  150MOL0     C19708  -0.881   7.671   8.934  0.7854 -0.3155 -0.5341
  150MOL0     C19709  -0.892   7.558   8.826 -0.7506  0.4816 -0.4755
  150MOL0     C19710  -0.761   7.479   8.832 -0.8234  0.0798  0.7830
  150MOL0     C19711  -0.759   7.349   8.745 -0.6401 -1.2525  0.4227
  150MOL0    Cl19712  -0.843   7.228   8.841  0.4063 -0.8310 -0.2809
  150MOL0     C19713  -0.523   8.247   8.817  0.3176  0.4451 -0.9638
  150MOL0     C19714  -0.443   8.336   8.894  0.2978  0.8226  0.1152
  150MOL0     O19715  -0.349   8.356   9.168 -0.5566  0.1628  0.6033
  150MOL0     C19716  -0.144   8.491   9.328  0.0545  0.1388  0.0641
  150MOL0     C19717  -0.034   8.548   9.395  1.1262  0.2186 -0.6790
  150MOL0     N19718   0.417   9.135   9.389 -0.6313  0.8278 -0.2135
  150MOL0     N19719   0.490   9.181   9.294 -0.3261  0.0223 -0.2836
  150MOL0     C19720   0.752   8.607   9.728 -0.4624  1.2089 -0.9548
  150MOL0     C19721   0.663   8.503   9.777  0.6624  0.5136 -0.4209
  150MOL0     C19722   0.424   8.184   9.903 -0.4559 -0.0157  0.3866
  150MOL0     C19723   0.298   8.185   9.966 -0.5999 -0.2536  0.1458
  150MOL0     C19724   0.274   8.086  10.064 -0.2482  0.4111  0.3283
  150MOL0     C19725   0.367   7.972  10.082 -0.5260  0.4577  1.3127
  150MOL0     O19726   0.333   7.882  10.173  0.0915  0.0289 -0.4730
  150MOL0     C19727   0.417   7.773  10.218 -0.9369  0.1495 -0.2041
  150MOL0     C19728   0.445   7.804  10.369 -0.5869 -0.1706  0.0507
  150MOL0     C19729   0.492   7.681  10.442  0.3985  0.7757  0.4887
  150MOL0     C19730   0.551   7.718  10.589  1.3399  0.8074  0.2892
  150MOL0     C19731   0.628   7.612  10.655  1.0805 -0.4496 -0.3927
  150MOL0     C19732   0.694   7.533  10.726 -0.0030  0.6120 -0.1920
  150MOL0     C19733   0.489   7.971  10.007 -0.2284  0.5038 -0.5087
  150MOL0     C19734   0.511   8.071   9.913 -0.4433 -0.0425 -0.1808
  150MOL0     H19735   0.786   8.243   9.593 -1.5606 -0.5293  0.2076
  150MOL0     H19736   0.937   8.440   9.498  0.3461 -0.1442  0.3145
  150MOL0     H19737   1.070   8.590   9.496  1.2152  1.7080 -3.1355
  150MOL0     H19738   1.086   8.761   9.521  0.0061  0.4954 -2.0521
  150MOL0     H19739   0.901   8.627   9.324  0.2209 -1.3250  3.9887
  150MOL0     H19740   1.052   8.699   9.275 -0.9437  1.3719 -1.1504
  150MOL0     H19741   0.989   8.935   9.359 -1.1330  0.3425 -1.7440
  150MOL0     H19742   0.834   8.866   9.398 -0.4267  0.3179 -1.1955
  150MOL0     H19743   0.962   8.867   9.123  0.7717 -0.2081  1.7522
  150MOL0     H19744   0.806   8.792   9.163 -0.6795 -0.1584  1.9081
  150MOL0     H19745   0.870   9.068   9.204 -0.5255 -0.4707 -0.0408
  150MOL0     H19746   0.717   8.993   9.253 -0.2426  0.7716 -0.5368
  150MOL0     H19747   0.680   8.936   9.007  0.0923  0.1158 -0.7514
  150MOL0     H19748   0.822   9.027   8.968 -0.1715  1.0658 -1.0318
  150MOL0     H19749   0.710   9.238   9.082  1.0668  1.1663 -2.4114
  150MOL0     H19750   0.672   9.191   8.919  0.4294 -2.6513 -1.0643
  150MOL0     H19751   0.479   9.071   8.971 -1.2305 -0.4274  1.1542
  150MOL0     H19752   0.467   9.240   9.008  1.4496  0.7723 -0.4189
  150MOL0     H19753   0.383   8.902   9.164 -1.3813  0.2963  1.3466
  150MOL0     H19754   0.228   8.867   9.383 -0.3946 -0.6851 -0.1479
  150MOL0     H19755   0.282   8.949   9.526  0.0371 -1.1042  0.2121
  150MOL0     H19756   0.509   8.834   9.498  0.1654  3.7122 -2.3636
  150MOL0     H19757   0.450   8.749   9.358 -1.1458  0.3071 -1.2357
  150MOL0     H19758   0.439   8.594   9.538 -0.6048 -0.8543  0.0663
  150MOL0     H19759   0.372   8.721   9.647  0.3085 -3.9675  1.0933
  150MOL0     H19760   0.163   8.717   9.552  0.3791  0.8929 -0.7389
  150MOL0     H19761   0.204   8.550   9.580  1.5367 -0.6733 -0.6381
  150MOL0     H19762   0.175   8.557   9.124 -1.0148 -0.3591 -2.5377
  150MOL0     H19763  -0.000   8.478   9.017  2.7237  1.5298  0.5052
  150MOL0     H19764  -0.132   8.223   8.803 -0.4660  0.6488  2.3383
  150MOL0     H19765  -0.275   8.059   8.672  1.6519  1.4258 -1.3538
  150MOL0     H19766  -0.548   7.944   8.838 -1.1028  1.6870  1.0742
  150MOL0     H19767  -0.578   7.870   8.675  0.7051  0.6885 -0.4217
  150MOL0     H19768  -0.791   8.032   8.665 -1.0959 -0.3960  0.7082
  150MOL0     H19769  -0.764   8.040   8.841  3.5744  0.7069  0.7269
  150MOL0     H19770  -0.798   7.783   8.673  0.5339  0.6707 -0.8080
  150MOL0     H19771  -0.929   7.856   8.767  0.1359  0.4273 -0.2391
  150MOL0     H19772  -0.680   7.742   8.902 -0.8771 -1.8324  1.6629
  150MOL0     H19773  -0.783   7.855   8.976  1.8378  0.5586 -1.3440
  150MOL0     H19774  -0.983   7.710   8.942 -0.1552 -2.8586  1.4389
  150MOL0     H19775  -0.849   7.619   9.025 -2.9239  0.6951  1.5739
  150MOL0     H19776  -0.912   7.593   8.724 -2.5368  2.3754  0.4587
  150MOL0     H19777  -0.983   7.503   8.854 -0.6304  0.4540 -0.1336
  150MOL0     H19778  -0.690   7.539   8.774 -1.6233 -0.0038 -0.3093
  150MOL0     H19779  -0.715   7.468   8.930  2.4154 -0.9173 -0.7033
  150MOL0     H19780  -0.652   7.335   8.724 -0.2072  3.0716 -1.2716
  150MOL0     H19781  -0.810   7.366   8.650 -0.4317 -4.7278 -0.4627
  150MOL0     H19782  -0.629   8.265   8.800  0.2877 -1.5193 -3.5135
  150MOL0     H19783  -0.486   8.416   8.955  2.1000  1.7487  0.2198
  150MOL0     H19784  -0.224   8.462   9.396  0.5687 -0.8380  0.2750
  150MOL0     H19785  -0.038   8.563   9.502  1.0168  4.2844 -1.0855
  150MOL0     H19786   0.751   8.706   9.771  1.8424  0.1003  2.0005
  150MOL0     H19787   0.599   8.526   9.862  1.3890  0.9495  0.0224
  150MOL0     H19788   0.234   8.272   9.966  0.5118  0.5793 -0.4959
  150MOL0     H19789   0.181   8.096  10.120 -1.2840  0.2517 -1.2722
  150MOL0     H19790   0.515   7.761  10.170 -0.8689 -2.5423  0.4496
  150MOL0     H19791   0.366   7.677  10.210  1.6813 -1.5389  1.5668
  150MOL0     H19792   0.516   7.886  10.376 -1.1631  0.3213  0.2498
  150MOL0     H19793   0.354   7.845  10.413  0.3496 -1.0256  2.9841
  150MOL0     H19794   0.561   7.620  10.383  1.6151  2.0940  0.4996
  150MOL0     H19795   0.400   7.623  10.455  1.8396 -1.6349  0.5482
  150MOL0     H19796   0.610   7.809  10.582  0.1065  1.5774 -0.6281
  150MOL0     H19797   0.464   7.735  10.653 -1.1303 -1.6021 -2.1589
  150MOL0     H19798   0.755   7.466  10.785 -2.8220 -1.3722  0.6799
  150MOL0     H19799   0.568   7.897  10.011  1.1365  1.9489  1.2570
  150MOL0     H19800   0.597   8.068   9.847  1.8701  2.3480  2.4805
  151MOL0     O19801   7.906   6.041  10.208  0.2233 -0.0674 -0.8464
  151MOL0     C19802   7.842   5.936  10.210 -0.4361  0.2278  0.1591
  151MOL0     O19803   7.704   5.927  10.184 -0.3882  0.5008 -0.1534
  151MOL0     C19804   7.634   6.041  10.186 -0.3018 -0.0287  0.4916
  151MOL0     C19805   7.626   6.123  10.069  0.2842 -0.7309  0.1593
  151MOL0     C19806   7.537   6.240  10.070 -1.1679  0.3380  0.4642
  151MOL0     C19807   7.456   6.264  10.178 -0.4034 -0.2575 -0.9639
  151MOL0     O19808   7.370   6.373  10.174 -0.4913 -0.2162  0.0044
  151MOL0     C19809   7.372   6.457  10.060 -0.1333 -1.1331  0.0434
  151MOL0     C19810   7.292   6.587  10.090 -0.5805 -0.3857  0.0504
  151MOL0     C19811   7.137   6.567  10.105  0.5630  0.1900  0.0335
  151MOL0     C19812   7.070   6.461  10.008 -0.3105  0.1101 -0.2302
  151MOL0     C19813   6.919   6.469  10.009  0.3964 -0.3496 -0.6256
  151MOL0     C19814   6.844   6.437  10.147 -0.9782  0.2080  1.3331
  151MOL0     C19815   6.693   6.438  10.141 -0.2095 -0.6350  1.0354
  151MOL0     C19816   6.638   6.585  10.110  0.0686  0.4240 -0.4670
  151MOL0     N19817   6.488   6.585  10.114 -0.5618  0.5906 -0.5243
  151MOL0     C19818   6.410   6.656  10.197  1.0523  0.2485 -0.1814
  151MOL0     C19819   6.281   6.607  10.168 -0.3909 -0.3123  0.0034
  151MOL0     C19820   6.149   6.651  10.234  0.1239  0.9405  0.8761
  151MOL0     C19821   6.038   6.575  10.185 -0.2193  0.3444  0.3305
  151MOL0     C19822   5.910   6.658  10.170  1.2836 -0.0440  0.2313
  151MOL0     C19823   5.788   6.564  10.145  0.1122  0.0040  0.2392
  151MOL0     O19824   5.678   6.653  10.136 -0.0331  0.3974  0.6121
  151MOL0     C19825   5.557   6.582  10.101 -0.7668  0.0086  0.4934
  151MOL0     C19826   5.438   6.655  10.131 -0.2302 -0.6579 -0.2908
  151MOL0     C19827   5.306   6.600  10.110  0.7099 -0.7147 -0.8509
  151MOL0     C19828   5.297   6.477  10.045 -0.1098  0.3802  0.7645
  151MOL0     C19829   5.165   6.409  10.030  1.3131  0.0211  0.5825
  151MOL0     O19830   5.156   6.283   9.986 -0.3781  0.3029 -1.0456
  151MOL0     C19831   5.046   6.199   9.983  0.7777 -0.0837 -0.2343
  151MOL0     C19832   4.918   6.245   9.948  0.9591 -0.2260  0.0159
  151MOL0     C19833   4.819   6.144   9.941  0.4228 -0.2116 -0.5498
  151MOL0     C19834   4.837   6.009   9.980  0.7058 -0.3179  1.2838
  151MOL0     O19835   4.722   5.938   9.975 -0.0599  0.3743  0.0032
  151MOL0     C19836   4.714   5.820  10.070 -0.3584  0.0164 -0.6020
  151MOL0     C19837   4.683   5.690  10.000  0.0901  0.5725 -0.2484
  151MOL0     C19838   4.578   5.702   9.883 -0.5565  0.7452 -0.5271
  151MOL0     C19839   4.427   5.720   9.933  0.3374  0.0715 -0.4926
  151MOL0     C19840   4.326   5.652   9.839  0.7860  0.8925  0.0812
  151MOL0     C19841   4.175   5.695   9.876  0.6726 -0.0485  0.1374
  151MOL0     C19842   4.071   5.663   9.772 -0.9584 -0.4430 -0.1150
  151MOL0     C19843   3.950   5.757   9.786 -0.2972  0.2710  0.3346
  151MOL0    Cl19844   3.874   5.760   9.617  0.2089 -0.2130  0.2838
  151MOL0     C19845   4.970   5.970  10.006  0.9827 -0.0972  0.8659
  151MOL0     C19846   5.076   6.064   9.993  0.8294  0.0398 -0.4327
  151MOL0     O19847   5.071   6.484  10.059 -0.0315  0.3576 -0.6273
  151MOL0     C19848   5.415   6.416  10.015  0.9297  0.1039 -0.4351
  151MOL0     C19849   5.540   6.461  10.046  0.1444 -0.0647 -0.4117
  151MOL0     N19850   6.292   6.504  10.073  0.4696  0.0473  0.6340
  151MOL0     N19851   6.416   6.489  10.044 -0.3106  0.1546  0.9273
  151MOL0     C19852   7.466   6.195  10.294  0.3248 -0.0833 -0.1464
  151MOL0     C19853   7.551   6.074  10.295 -0.4596  0.8128  0.8840
  151MOL0     C19854   7.917   5.817  10.237 -0.3434 -0.3992 -0.1666
  151MOL0     C19855   7.860   5.695  10.197 -0.7952  0.1124 -1.0622
  151MOL0     C19856   7.928   5.578  10.224  0.4685  0.6427  0.0241
  151MOL0     C19857   8.044   5.575  10.292  0.2734  0.6949 -0.6620
  151MOL0     O19858   8.088   5.447  10.327 -0.5819 -0.0585 -0.7316
  151MOL0     C19859   8.184   5.448  10.434 -0.1589  0.0683 -0.5764
  151MOL0     C19860   8.196   5.310  10.495 -0.0673 -0.0071 -0.6583
  151MOL0     C19861   8.314   5.280  10.593  0.1278 -0.3742 -0.2228
  151MOL0     C19862   8.456   5.267  10.527 -0.1980  0.6658 -0.5939
  151MOL0     C19863   8.502   5.388  10.465  0.3782  0.1506  1.1066
  151MOL0     C19864   8.544   5.485  10.409  1.2208 -1.3952 -0.8152
  151MOL0     C19865   8.114   5.694  10.312 -0.0671 -0.2442  0.4945
  151MOL0     C19866   8.044   5.814  10.300  0.8009 -0.7530  0.7439
  151MOL0     H19867   7.690   6.106   9.983  1.1216  2.4127  0.0509
  151MOL0     H19868   7.534   6.295   9.977  1.6346  0.2481  0.2400
  151MOL0     H19869   7.320   6.404   9.979 -0.3765  0.5818 -0.9716
  151MOL0     H19870   7.471   6.485  10.023 -0.8633 -1.1493 -2.0812
  151MOL0     H19871   7.307   6.651  10.003 -0.7071 -0.3914  0.0241
  151MOL0     H19872   7.330   6.628  10.184 -2.1453  0.0926  0.5117
  151MOL0     H19873   7.090   6.666  10.096  1.8171  0.7000 -1.3073
  151MOL0     H19874   7.119   6.534  10.208  0.3983 -0.4406 -0.1940
  151MOL0     H19875   7.105   6.483   9.906 -2.6919  1.8284 -0.7533
  151MOL0     H19876   7.088   6.356  10.033  2.1523  0.6152  0.3996
  151MOL0     H19877   6.874   6.409   9.929 -1.3239 -1.4717  1.0815
  151MOL0     H19878   6.892   6.568   9.970  0.2544  0.3884  1.2232
  151MOL0     H19879   6.867   6.518  10.216  2.4216  1.7617 -1.3426
  151MOL0     H19880   6.873   6.341  10.190  0.1255 -0.9310 -1.6756
  151MOL0     H19881   6.657   6.379  10.056 -0.3576  1.1739 -0.2097
  151MOL0     H19882   6.658   6.402  10.239  0.5597  1.1958  2.0298
  151MOL0     H19883   6.671   6.630  10.016 -2.0861  1.8301 -0.6110
  151MOL0     H19884   6.672   6.648  10.194 -3.7700  1.2949  0.6385
  151MOL0     H19885   6.441   6.728  10.272  2.6985 -1.3759  0.7839
  151MOL0     H19886   6.132   6.757  10.210 -1.4001  0.5308  0.0371
  151MOL0     H19887   6.157   6.647  10.343 -0.9949  0.4636  0.9484
  151MOL0     H19888   6.022   6.488  10.249  1.1861 -0.5257 -0.4461
  151MOL0     H19889   6.059   6.523  10.091 -0.7692 -1.0799  0.9667
  151MOL0     H19890   5.893   6.732  10.248 -0.4693  0.6641 -0.7676
  151MOL0     H19891   5.933   6.723  10.085  0.5895  0.4925  0.4421
  151MOL0     H19892   5.781   6.485  10.220  3.2831  0.6309  1.3383
  151MOL0     H19893   5.811   6.512  10.051  1.2213  0.2930  0.3351
  151MOL0     H19894   5.461   6.758  10.157  1.2002 -1.4938  2.1046
  151MOL0     H19895   5.225   6.663  10.143  2.0280  1.1902 -1.0682
  151MOL0     H19896   4.896   6.349   9.926  4.5686  1.1370  1.9770
  151MOL0     H19897   4.722   6.186   9.919  0.3833 -1.2148 -2.5371
  151MOL0     H19898   4.635   5.838  10.143  2.0601  1.5740  1.8283
  151MOL0     H19899   4.810   5.822  10.122 -0.5157 -0.6310 -0.2871
  151MOL0     H19900   4.651   5.619  10.077  3.3720 -1.2057 -0.3321
  151MOL0     H19901   4.781   5.661   9.960  0.3038  1.0384 -0.0737
  151MOL0     H19902   4.593   5.609   9.829 -3.8721 -0.3137  0.1593
  151MOL0     H19903   4.590   5.787   9.815 -2.0389 -0.1283 -1.9359
  151MOL0     H19904   4.425   5.682  10.036  0.0944  2.7140  0.5529
  151MOL0     H19905   4.403   5.826   9.935  1.0343  0.2264  0.9303
  151MOL0     H19906   4.338   5.544   9.856 -0.4753  0.8817  1.0746
  151MOL0     H19907   4.345   5.682   9.736  0.6706 -0.1735 -0.2673
  151MOL0     H19908   4.175   5.803   9.891 -0.6455 -0.1817  1.2902
  151MOL0     H19909   4.138   5.649   9.968 -1.5963  1.4558  0.0565
  151MOL0     H19910   4.118   5.674   9.674  1.2436 -0.1140  0.9174
  151MOL0     H19911   4.036   5.559   9.781 -2.5648  0.0396 -0.3883
  151MOL0     H19912   3.983   5.855   9.821  0.4073 -0.6987  2.5982
  151MOL0     H19913   3.876   5.708   9.850 -0.1393  0.7768  0.9198
  151MOL0     H19914   4.993   5.864  10.017 -3.6520 -1.4392 -0.1891
  151MOL0     H19915   5.179   6.030   9.991  1.6563  2.2924  0.6911
  151MOL0     H19916   5.413   6.315   9.976  1.5863  0.5572 -1.7259
  151MOL0     H19917   5.626   6.402  10.014 -1.6604 -1.8296 -2.3330
  151MOL0     H19918   7.410   6.236  10.377 -1.4314 -0.7533 -0.9410
  151MOL0     H19919   7.578   6.032  10.391 -1.1188 -1.5916  0.0760
  151MOL0     H19920   7.765   5.692  10.144  0.5660 -2.2547 -3.6691
  151MOL0     H19921   7.883   5.481  10.207  0.2743  1.0065 -1.7182
  151MOL0     H19922   8.159   5.521  10.511 -0.0341 -0.4676 -0.0256
  151MOL0     H19923   8.274   5.498  10.396 -2.4908  4.3613 -1.0870
  151MOL0     H19924   8.098   5.284  10.536  0.2145 -2.0951 -1.2034
  151MOL0     H19925   8.212   5.240  10.413 -1.7819 -1.0612 -0.1545
  151MOL0     H19926   8.278   5.195  10.651  0.9547  0.1080  1.0449
  151MOL0     H19927   8.326   5.368  10.658  0.3305 -0.6609  0.1295
  151MOL0     H19928   8.520   5.253  10.614 -3.4537  1.3841  2.1527
  151MOL0     H19929   8.454   5.183  10.457 -1.9042 -0.5327  0.7937
  151MOL0     H19930   8.570   5.576  10.359  1.8083 -1.2580 -0.2746
  151MOL0     H19931   8.213   5.697  10.357  0.5631 -0.9136 -0.7914
  151MOL0     H19932   8.089   5.908  10.329 -0.5935  0.0173  0.5355
  152MOL0     O19933   1.943   1.316   4.903 -0.2288  0.1470  0.1214
  152MOL0     C19934   1.919   1.221   4.977 -0.2488 -0.5171 -0.2106
  152MOL0     O19935   1.985   1.192   5.091  0.1138  0.3442 -0.5117
  152MOL0     C19936   2.080   1.278   5.136 -0.1057  0.3759  0.0484
  152MOL0     C19937   2.059   1.410   5.173 -0.3065 -1.3263 -0.2203
  152MOL0     C19938   2.163   1.497   5.205  0.0582 -0.9370 -0.6145
  152MOL0     C19939   2.299   1.449   5.216 -0.3279  0.0462 -0.2097
  152MOL0     O19940   2.404   1.541   5.244  0.4492 -0.5703  0.1346
  152MOL0     C19941   2.387   1.684   5.231  0.5048  1.1040  0.3734
  152MOL0     C19942   2.532   1.752   5.247  0.8251  0.6793  0.7663
  152MOL0     C19943   2.564   1.780   5.386  0.0528  0.0182 -0.2405
  152MOL0     C19944   2.603   1.656   5.471 -0.1694 -0.3319  0.5232
  152MOL0     C19945   2.601   1.677   5.620 -0.3466 -0.6962 -0.9039
  152MOL0     C19946   2.599   1.545   5.705 -0.3697  0.6567 -0.5091
  152MOL0     C19947   2.725   1.461   5.717  0.1042  0.2270  1.7410
  152MOL0     C19948   2.822   1.511   5.818 -0.2468 -0.5152 -0.8398
  152MOL0     N19949   2.772   1.484   5.965 -0.3427  0.0968  0.6124
  152MOL0     C19950   2.799   1.383   6.048 -0.0228 -0.9421  0.0270
  152MOL0     C19951   2.742   1.411   6.162 -0.0351  0.5741 -0.6210
  152MOL0     C19952   2.740   1.313   6.266  0.3540 -0.5587 -0.1797
  152MOL0     C19953   2.607   1.235   6.275  0.2256  0.4496 -0.0447
  152MOL0     C19954   2.577   1.120   6.175 -0.6397 -0.4726  1.4580
  152MOL0     C19955   2.485   1.016   6.233  0.1284 -0.2652 -0.8374
  152MOL0     O19956   2.362   1.073   6.275  0.1884 -0.0347 -0.0961
  152MOL0     C19957   2.252   0.985   6.288 -0.0636 -0.3714  0.0677
  152MOL0     C19958   2.258   0.846   6.322  0.0256 -0.0473 -0.0321
  152MOL0     C19959   2.145   0.770   6.336 -0.4581  0.4913  0.3964
  152MOL0     C19960   2.021   0.825   6.314 -0.4136 -0.1320  0.0468
  152MOL0     C19961   1.888   0.753   6.328 -0.8309  1.1915 -0.1931
  152MOL0     O19962   1.790   0.839   6.355  0.8048  0.3923 -0.3352
  152MOL0     C19963   1.656   0.803   6.356  1.4609  0.1731 -0.7116
  152MOL0     C19964   1.566   0.903   6.344 -0.2357  0.1346  0.3405
  152MOL0     C19965   1.430   0.890   6.366  0.1035  1.0366 -0.0598
  152MOL0     C19966   1.378   0.757   6.393 -0.1034  0.6192 -0.3162
  152MOL0     O19967   1.248   0.747   6.417  0.0736 -0.0138  0.5550
  152MOL0     C19968   1.170   0.625   6.417 -0.3980  0.3921  0.2513
  152MOL0     C19969   1.021   0.638   6.383  0.3637  0.1484 -0.9330
  152MOL0     C19970   0.956   0.723   6.500  0.0071  0.3473 -0.6074
  152MOL0     C19971   0.810   0.725   6.465 -0.4455 -0.0867 -0.0416
  152MOL0     C19972   0.722   0.807   6.561  0.2784  0.0180 -0.0921
  152MOL0     C19973   0.727   0.741   6.702 -0.4290  0.7316  0.1333
  152MOL0     C19974   0.587   0.714   6.749 -0.3721  0.6312  0.0629
  152MOL0     C19975   0.536   0.835   6.829  0.6092 -0.7888  0.1614
  152MOL0    Cl19976   0.633   0.928   6.941  0.0811 -0.1414 -0.3580
  152MOL0     C19977   1.468   0.645   6.394  0.0481  0.0362 -0.3135
  152MOL0     C19978   1.604   0.671   6.372  0.4740  0.3683  0.6800
  152MOL0     O19979   1.882   0.631   6.329 -0.1203  0.9387 -0.9599
  152MOL0     C19980   2.010   0.959   6.283 -0.2376 -0.9546 -0.3233
  152MOL0     C19981   2.126   1.038   6.276 -0.7771 -0.1416 -0.3752
  152MOL0     N19982   2.685   1.533   6.150  0.2551 -0.3774  0.4758
  152MOL0     N19983   2.720   1.580   6.041 -0.0189 -0.1895 -0.3823
  152MOL0     C19984   2.321   1.320   5.174  0.1161  0.5498  0.6875
  152MOL0     C19985   2.213   1.229   5.132  0.1913  0.5083 -0.6869
  152MOL0     C19986   1.811   1.120   4.927 -0.5474 -1.6747  0.7914
  152MOL0     C19987   1.753   1.154   4.799 -0.3109  0.0320  0.6385
  152MOL0     C19988   1.670   1.066   4.740  0.3707 -0.1748 -0.8420
  152MOL0     C19989   1.638   0.943   4.801 -0.3558 -0.0510  0.7043
  152MOL0     O19990   1.542   0.867   4.749 -0.3559 -0.2627  0.2484
  152MOL0     C19991   1.540   0.731   4.786 -0.1933  0.6797 -0.1534
  152MOL0     C19992   1.482   0.633   4.677 -0.1018  0.6155 -0.2594
  152MOL0     C19993   1.342   0.674   4.633  0.3857 -0.4497  0.4034
  152MOL0     C19994   1.265   0.570   4.546  0.1161  0.1741  0.0685
  152MOL0     C19995   1.189   0.471   4.625 -0.5438  0.2550  0.4747
  152MOL0     C19996   1.123   0.383   4.686 -0.4530  0.3157 -0.9061
  152MOL0     C19997   1.701   0.911   4.932  0.3154  0.2244  0.1630
  152MOL0     C19998   1.796   1.000   4.984  0.5338 -0.8123 -0.3099
  152MOL0     H19999   1.958   1.449   5.182  0.5556  0.6746  1.5552
  152MOL0     H20000   2.138   1.601   5.226 -0.2359 -1.1037 -0.1076
  152MOL0     H20001   2.319   1.719   5.308 -1.4102 -0.3745 -0.5513
  152MOL0     H20002   2.341   1.726   5.141 -3.4211 -0.4429  1.4432
  152MOL0     H20003   2.536   1.846   5.192 -1.4213 -0.1587 -0.9581
  152MOL0     H20004   2.606   1.692   5.195 -1.5101 -1.2805 -0.4789
  152MOL0     H20005   2.473   1.816   5.434 -0.3389 -1.1036 -0.1134
  152MOL0     H20006   2.641   1.857   5.394  1.0431 -1.1498  3.2829
  152MOL0     H20007   2.546   1.567   5.444 -0.2564 -0.3367  0.7196
  152MOL0     H20008   2.707   1.634   5.444 -0.1451  1.1547 -0.7053
  152MOL0     H20009   2.505   1.729   5.632  0.7017  2.4204 -4.2930
  152MOL0     H20010   2.680   1.746   5.650 -1.3109 -0.4539  1.3163
  152MOL0     H20011   2.524   1.483   5.655 -0.4059 -0.0227  0.3533
  152MOL0     H20012   2.564   1.569   5.806 -4.4351 -0.0342 -1.5414
  152MOL0     H20013   2.699   1.360   5.750  0.8269 -0.3706  0.5358
  152MOL0     H20014   2.776   1.441   5.623 -0.7156  2.0542  0.8563
  152MOL0     H20015   2.829   1.617   5.791  1.3380 -0.1692  0.7435
  152MOL0     H20016   2.915   1.457   5.795 -0.6025 -2.0330  1.0167
  152MOL0     H20017   2.845   1.298   5.998 -1.6103  1.4014 -6.4535
  152MOL0     H20018   2.755   1.365   6.362 -2.8819  4.4787 -1.9899
  152MOL0     H20019   2.822   1.243   6.250 -0.6565 -2.5182  2.4379
  152MOL0     H20020   2.529   1.311   6.262 -0.2122 -0.0281 -0.2174
  152MOL0     H20021   2.612   1.196   6.377  0.0984  4.3610  1.6335
  152MOL0     H20022   2.529   1.159   6.085 -0.0187  0.2597  1.4307
  152MOL0     H20023   2.677   1.080   6.156  0.7623  1.9060  3.1960
  152MOL0     H20024   2.529   0.969   6.321  1.9910  2.9355  0.1308
  152MOL0     H20025   2.462   0.941   6.156  2.8290  0.0493 -2.0600
  152MOL0     H20026   2.346   0.787   6.349 -0.7659  0.2951  3.6722
  152MOL0     H20027   2.148   0.661   6.345 -2.2338 -0.1221 -3.9180
  152MOL0     H20028   1.602   1.000   6.312  1.6014 -0.9133 -0.9628
  152MOL0     H20029   1.372   0.980   6.381 -2.2144 -0.5436  1.0750
  152MOL0     H20030   1.173   0.569   6.511 -0.6256 -2.3433 -1.2820
  152MOL0     H20031   1.211   0.555   6.345 -0.0490  0.1683  0.6636
  152MOL0     H20032   0.978   0.538   6.378  0.1387  0.2165 -0.3992
  152MOL0     H20033   1.014   0.695   6.289  1.3772 -1.9844 -2.3727
  152MOL0     H20034   0.993   0.826   6.502  0.0206  0.3302  0.0633
  152MOL0     H20035   0.978   0.680   6.598 -0.5999 -2.4714 -1.6217
  152MOL0     H20036   0.806   0.779   6.370  1.2123  1.2852  0.6201
  152MOL0     H20037   0.777   0.621   6.453  1.6891 -0.8332  0.0882
  152MOL0     H20038   0.617   0.804   6.530  0.1419 -4.2801  0.2596
  152MOL0     H20039   0.762   0.907   6.581 -1.2467  1.0729 -1.8977
  152MOL0     H20040   0.789   0.790   6.778  0.3062 -2.4275  1.7731
  152MOL0     H20041   0.759   0.636   6.690  2.2974  1.7083 -2.4233
  152MOL0     H20042   0.517   0.670   6.677 -1.4141  1.0750  0.7723
  152MOL0     H20043   0.599   0.628   6.815  1.1190 -0.1360 -1.1613
  152MOL0     H20044   0.450   0.802   6.887  1.1939  0.8374  2.0765
  152MOL0     H20045   0.498   0.908   6.757 -0.1523 -0.0325  1.2932
  152MOL0     H20046   1.435   0.545   6.420  0.7399 -0.3653 -0.9387
  152MOL0     H20047   1.673   0.590   6.393  0.4221  0.7659  2.5381
  152MOL0     H20048   1.919   1.014   6.261  0.0421 -0.4479 -0.2273
  152MOL0     H20049   2.118   1.145   6.258  1.5902  0.5681  2.0545
  152MOL0     H20050   2.423   1.282   5.172 -0.4889 -1.1471 -0.5855
  152MOL0     H20051   2.241   1.126   5.112 -0.2880 -0.2301  2.0195
  152MOL0     H20052   1.779   1.242   4.742  1.9311 -1.7887 -1.4372
  152MOL0     H20053   1.614   1.100   4.653 -3.7460 -1.0719  1.2151
  152MOL0     H20054   1.473   0.713   4.871  0.1097  0.5513  0.0654
  152MOL0     H20055   1.636   0.688   4.817 -0.5309 -0.4803 -0.6267
  152MOL0     H20056   1.540   0.641   4.585  0.1626  2.9448  0.0596
  152MOL0     H20057   1.486   0.528   4.709  3.5128  0.9271  0.7035
  152MOL0     H20058   1.362   0.760   4.568  0.5637 -0.4643  0.4386
  152MOL0     H20059   1.268   0.710   4.704 -2.9726  0.3530 -3.1448
  152MOL0     H20060   1.183   0.613   4.488 -0.6875 -1.2294  0.1135
  152MOL0     H20061   1.332   0.525   4.471 -0.9655  1.2202 -1.5919
  152MOL0     H20062   1.070   0.300   4.728 -0.3995 -0.4795 -2.3350
  152MOL0     H20063   1.674   0.819   4.982 -2.8293  0.4373 -0.9595
  152MOL0     H20064   1.845   0.991   5.081 -0.6309  0.1555  0.3976
  153MOL0     O20065   1.373   6.883   8.813  0.0889  0.0607  0.4996
  153MOL0     C20066   1.334   6.821   8.715 -0.7276 -0.1704 -0.0050
  153MOL0     O20067   1.197   6.814   8.681 -0.8854  0.6492  0.6033
  153MOL0     C20068   1.092   6.828   8.760 -0.2232 -0.4012  0.5252
  153MOL0     C20069   0.961   6.827   8.700  0.1767 -0.0476  0.5262
  153MOL0     C20070   0.838   6.820   8.761 -1.0183 -0.4301  0.4261
  153MOL0     C20071   0.845   6.817   8.909  1.0252 -0.1522  1.0929
  153MOL0     O20072   0.741   6.810   8.995  0.1820 -0.2718 -0.2783
  153MOL0     C20073   0.633   6.737   8.939 -0.0674  0.3377 -0.1549
  153MOL0     C20074   0.531   6.668   9.038  0.4254 -0.2066  0.1325
  153MOL0     C20075   0.472   6.777   9.138  0.7558 -0.1608 -0.0563
  153MOL0     C20076   0.374   6.734   9.244  0.9353  0.5464  0.7438
  153MOL0     C20077   0.236   6.714   9.176  0.0764 -1.3032  0.0601
  153MOL0     C20078   0.137   6.623   9.250 -0.8282  0.3022  0.7220
  153MOL0     C20079   0.169   6.475   9.247  0.7214 -0.2018  0.8963
  153MOL0     C20080   0.163   6.401   9.102  0.4502 -0.6972  0.0002
  153MOL0     N20081   0.028   6.379   9.038 -0.0848 -0.6014 -0.3524
  153MOL0     C20082  -0.080   6.468   9.016  0.1071  0.0477  0.6784
  153MOL0     C20083  -0.167   6.392   8.935  0.4139 -0.2437 -0.4141
  153MOL0     C20084  -0.301   6.427   8.875  0.3074  0.1777  0.0344
  153MOL0     C20085  -0.415   6.328   8.906  0.3443  0.4298  0.0075
  153MOL0     C20086  -0.539   6.397   8.852 -0.5798 -0.1464  0.0200
  153MOL0     C20087  -0.667   6.312   8.876 -0.1977  0.3260  0.4196
  153MOL0     O20088  -0.778   6.397   8.855 -0.1528  0.1131  0.1896
  153MOL0     C20089  -0.901   6.342   8.834  0.1866  0.1217 -0.6757
  153MOL0     C20090  -0.944   6.208   8.848 -0.7884 -0.5063  0.2858
  153MOL0     C20091  -1.081   6.192   8.824 -0.2815  0.8214 -0.8257
  153MOL0     C20092  -1.171   6.293   8.795  0.3615  0.9083 -0.1627
  153MOL0     C20093  -1.312   6.262   8.766 -0.9094 -0.4331  0.0119
  153MOL0     O20094  -1.392   6.366   8.735  1.0258 -0.2353  0.8580
  153MOL0     C20095  -1.529   6.337   8.734 -1.3329  0.2776 -0.6855
  153MOL0     C20096  -1.607   6.417   8.819  0.5684  0.1222 -0.1453
  153MOL0     C20097  -1.748   6.392   8.827 -0.3016  0.0411  0.7113
  153MOL0     C20098  -1.808   6.281   8.748  0.0021  0.0759 -0.1420
  153MOL0     O20099  -1.944   6.242   8.760 -0.2913  0.0747 -0.5452
  153MOL0     C20100  -1.973   6.217   8.902  0.7935 -0.4267 -0.9206
  153MOL0     C20101  -2.129   6.228   8.925 -0.2546  1.1814 -0.1196
  153MOL0     C20102  -2.193   6.124   8.831  0.8635 -0.3434  0.2947
  153MOL0     C20103  -2.329   6.090   8.887 -0.0242 -0.5443 -0.5104
  153MOL0     C20104  -2.396   5.979   8.803  0.3224 -0.1098 -0.4913
  153MOL0     C20105  -2.449   6.035   8.668  0.0533 -0.4521  0.3767
  153MOL0     C20106  -2.527   5.936   8.585 -0.4292 -0.0183 -0.2170
  153MOL0     C20107  -2.529   5.997   8.442 -0.6122 -0.3315  0.0333
  153MOL0    Cl20108  -2.615   6.151   8.438  0.1926 -0.2833 -0.3944
  153MOL0     C20109  -1.726   6.218   8.659 -0.4164  0.7509 -0.1664
  153MOL0     C20110  -1.595   6.238   8.658 -0.5056  0.2319  0.7348
  153MOL0     O20111  -1.344   6.147   8.786  0.1052  0.1251 -0.1774
  153MOL0     C20112  -1.123   6.427   8.790  0.2071 -0.4480 -0.3123
  153MOL0     C20113  -0.992   6.453   8.811 -0.3887  2.0888 -0.0897
  153MOL0     N20114  -0.100   6.278   8.903  0.0438 -0.0325 -0.3707
  153MOL0     N20115   0.006   6.263   8.964  0.0906  0.9040  0.3404
  153MOL0     C20116   0.962   6.855   8.966 -0.2082  0.0106  0.0444
  153MOL0     C20117   1.084   6.852   8.889  1.1332 -0.3257  0.0066
  153MOL0     C20118   1.442   6.777   8.619 -0.6921 -0.4095 -0.1636
  153MOL0     C20119   1.415   6.679   8.525  0.4265  0.5123 -0.0993
  153MOL0     C20120   1.515   6.631   8.438 -0.3922 -0.1055  0.6305
  153MOL0     C20121   1.643   6.690   8.437  0.2939  0.4220 -0.1118
  153MOL0     O20122   1.736   6.647   8.341 -0.2818  0.2316  0.3752
  153MOL0     C20123   1.875   6.690   8.356 -0.3275  0.0747  0.4161
  153MOL0     C20124   1.968   6.612   8.259  0.2960 -0.0855 -0.2896
  153MOL0     C20125   2.102   6.681   8.252 -0.7053  1.1534  0.1826
  153MOL0     C20126   2.199   6.627   8.141  0.0488 -0.1724 -0.3000
  153MOL0     C20127   2.308   6.718   8.104  1.0697 -0.1119  0.3435
  153MOL0     C20128   2.401   6.792   8.072  0.0706 -0.3264 -0.3869
  153MOL0     C20129   1.671   6.777   8.544  0.2412  0.4462 -0.3956
  153MOL0     C20130   1.568   6.834   8.623  0.0103  0.0989  0.9788
  153MOL0     H20131   0.959   6.833   8.591 -0.6908  1.6577  0.5980
  153MOL0     H20132   0.751   6.798   8.700 -0.5158 -1.2096 -0.0268
  153MOL0     H20133   0.662   6.663   8.865 -0.1604 -1.2915  1.3757
  153MOL0     H20134   0.573   6.812   8.887  0.0442 -0.1601 -1.0182
  153MOL0     H20135   0.575   6.583   9.091 -0.8404 -1.4184 -0.6860
  153MOL0     H20136   0.454   6.623   8.974 -0.2249 -0.4035  1.0179
  153MOL0     H20137   0.427   6.862   9.086 -0.2699 -1.2528 -0.9983
  153MOL0     H20138   0.557   6.820   9.192  0.8078 -1.9175  1.3554
  153MOL0     H20139   0.421   6.646   9.289 -0.0163 -0.9633 -1.0453
  153MOL0     H20140   0.374   6.805   9.327 -0.4655  0.6677  0.6671
  153MOL0     H20141   0.255   6.667   9.079 -0.3460  0.2599 -0.8055
  153MOL0     H20142   0.181   6.805   9.154 -2.3421 -2.2599  1.7079
  153MOL0     H20143   0.041   6.638   9.199 -1.3512 -0.0910  1.5628
  153MOL0     H20144   0.144   6.668   9.350 -2.0028  3.3423 -0.4437
  153MOL0     H20145   0.273   6.455   9.274  0.4525 -2.6892  0.2956
  153MOL0     H20146   0.099   6.430   9.318 -3.9071  1.5303 -2.0518
  153MOL0     H20147   0.201   6.299   9.115  2.7618  0.3218  1.8071
  153MOL0     H20148   0.233   6.452   9.035  1.3460  0.8540  2.0107
  153MOL0     H20149  -0.086   6.569   9.056 -2.8918  0.2230  0.0026
  153MOL0     H20150  -0.290   6.441   8.767  1.3470 -1.2305 -0.0775
  153MOL0     H20151  -0.343   6.514   8.927 -2.1930 -0.9795  0.1496
  153MOL0     H20152  -0.417   6.303   9.013 -0.8108 -3.7763 -0.8292
  153MOL0     H20153  -0.409   6.244   8.837 -2.9320  0.1333 -0.0666
  153MOL0     H20154  -0.555   6.494   8.900 -1.8780 -0.3677  0.0859
  153MOL0     H20155  -0.523   6.426   8.747 -1.5794  0.0085 -0.0993
  153MOL0     H20156  -0.669   6.281   8.981  0.3345  0.4640  0.4703
  153MOL0     H20157  -0.668   6.222   8.814  2.6675  0.1466  0.5196
  153MOL0     H20158  -0.867   6.137   8.878  0.3588  0.9341  0.8415
  153MOL0     H20159  -1.117   6.089   8.829 -0.1882  0.8244  0.3231
  153MOL0     H20160  -1.565   6.497   8.879 -2.7103  2.4109 -0.6304
  153MOL0     H20161  -1.811   6.465   8.877  0.6718  2.9910 -2.0573
  153MOL0     H20162  -1.944   6.296   8.971 -5.3560  1.9696 -0.5106
  153MOL0     H20163  -1.948   6.115   8.934 -2.5792 -0.8151  0.8905
  153MOL0     H20164  -2.162   6.330   8.902  3.7768  2.7879  0.3052
  153MOL0     H20165  -2.145   6.202   9.030 -2.2185 -2.6607 -1.1883
  153MOL0     H20166  -2.132   6.034   8.845  1.1584 -0.1848  0.0415
  153MOL0     H20167  -2.197   6.156   8.727 -1.8062  1.9333  0.9643
  153MOL0     H20168  -2.313   6.060   8.991  2.1790 -0.1607 -0.6919
  153MOL0     H20169  -2.392   6.178   8.902  0.6900 -0.1905  0.5594
  153MOL0     H20170  -2.481   5.931   8.852 -0.0163  0.6647 -0.3100
  153MOL0     H20171  -2.322   5.904   8.772  0.3187  0.0540 -0.9037
  153MOL0     H20172  -2.365   6.088   8.623  0.3116 -1.2383 -0.0659
  153MOL0     H20173  -2.518   6.117   8.694  3.2412  2.9110 -0.8691
  153MOL0     H20174  -2.470   5.842   8.590  1.5767  1.2149  2.0676
  153MOL0     H20175  -2.625   5.924   8.631  0.3927  0.5262  1.7939
  153MOL0     H20176  -2.588   5.936   8.373 -1.3136  2.6287 -2.2057
  153MOL0     H20177  -2.423   5.991   8.412 -0.5067  0.9443  0.0960
  153MOL0     H20178  -1.772   6.154   8.586  0.3850 -2.5088  1.9726
  153MOL0     H20179  -1.531   6.189   8.585 -0.1712 -0.1194  1.2559
  153MOL0     H20180  -1.185   6.509   8.756 -0.0698 -0.0843  1.0355
  153MOL0     H20181  -0.954   6.554   8.801  0.0961  1.7356 -2.4182
  153MOL0     H20182   0.956   6.875   9.072  1.0711  0.7419  0.0090
  153MOL0     H20183   1.178   6.873   8.938  0.3109 -0.1028  1.5809
  153MOL0     H20184   1.321   6.627   8.543  1.4046 -1.9470 -1.5688
  153MOL0     H20185   1.507   6.543   8.375  1.1321  2.0959 -2.9408
  153MOL0     H20186   1.904   6.661   8.458 -0.1261 -1.4945 -0.0544
  153MOL0     H20187   1.878   6.798   8.341 -0.1215  0.1771  1.1743
  153MOL0     H20188   1.963   6.506   8.285  2.4481  0.3635  2.4453
  153MOL0     H20189   1.926   6.616   8.158  2.1399 -2.0776 -1.2232
  153MOL0     H20190   2.160   6.675   8.345 -0.4564 -2.6210 -0.0712
  153MOL0     H20191   2.097   6.789   8.236 -0.5361  1.0060 -0.9459
  153MOL0     H20192   2.235   6.529   8.175 -1.6868 -1.5864 -2.2659
  153MOL0     H20193   2.142   6.609   8.049  1.4069 -1.4411 -0.9492
  153MOL0     H20194   2.481   6.863   8.078  1.7764 -1.7401 -3.8465
  153MOL0     H20195   1.777   6.797   8.556  0.6667 -1.7339 -0.0994
  153MOL0     H20196   1.599   6.908   8.696  1.4723  1.6106 -1.0649
  154MOL0     O20197   6.756   4.416   6.814 -1.1290 -0.6871  0.8474
  154MOL0     C20198   6.730   4.339   6.724  0.8835 -0.2229  0.0909
  154MOL0     O20199   6.805   4.240   6.667 -1.2605 -0.9249 -0.2040
  154MOL0     C20200   6.926   4.205   6.729 -1.3197  0.4437  0.9725
  154MOL0     C20201   6.975   4.064   6.726  0.0709 -0.0345 -0.3658
  154MOL0     C20202   7.112   4.039   6.767  0.7447  0.3725  0.4081
  154MOL0     C20203   7.196   4.134   6.821 -0.1491  0.6458 -1.3565
  154MOL0     O20204   7.320   4.091   6.848  0.0294 -0.4635 -0.0830
  154MOL0     C20205   7.418   4.189   6.900 -0.4579  0.3848  0.0972
  154MOL0     C20206   7.535   4.110   6.960  0.0635  0.0594  0.9064
  154MOL0     C20207   7.638   4.193   7.049  0.1712  0.7049 -0.4417
  154MOL0     C20208   7.678   4.328   6.990 -0.6747 -0.2230  0.0882
  154MOL0     C20209   7.817   4.384   7.033  0.1907 -1.0821 -0.2926
  154MOL0     C20210   7.930   4.331   6.945  0.0706  1.2315  0.7647
  154MOL0     C20211   8.057   4.389   6.998  0.2329  0.6172  0.4316
  154MOL0     C20212   8.181   4.355   6.902  0.8616 -0.8038 -0.4712
  154MOL0     N20213   8.202   4.212   6.898  0.1822  0.7966  0.4493
  154MOL0     C20214   8.135   4.123   6.808 -0.0181  0.4931 -0.1500
  154MOL0     C20215   8.181   4.000   6.854  0.0587  0.0708  1.2128
  154MOL0     C20216   8.127   3.870   6.800 -0.1095  0.4995 -0.1547
  154MOL0     C20217   8.018   3.808   6.903  0.1718  0.2697  0.3745
  154MOL0     C20218   7.876   3.873   6.891  0.0036  0.8223  0.0941
  154MOL0     C20219   7.773   3.778   6.950 -1.0349 -0.3565  0.7389
  154MOL0     O20220   7.740   3.673   6.852  0.5759  0.6321 -0.0085
  154MOL0     C20221   7.625   3.596   6.869 -0.1654 -0.1452  0.0641
  154MOL0     C20222   7.532   3.606   6.965 -0.7883  0.6239 -0.6953
  154MOL0     C20223   7.414   3.528   6.967  0.5554  0.3334  0.0261
  154MOL0     C20224   7.401   3.426   6.873  0.8840  0.1644  0.3031
  154MOL0     C20225   7.292   3.325   6.878 -0.5703  0.0271 -1.2510
  154MOL0     O20226   7.271   3.264   6.758  0.0396  0.0259 -0.7278
  154MOL0     C20227   7.187   3.163   6.773  0.4904 -0.3133 -0.0082
  154MOL0     C20228   7.176   3.067   6.884  0.0023  1.8348  0.7026
  154MOL0     C20229   7.062   2.973   6.890 -0.2441 -0.1861 -0.0294
  154MOL0     C20230   6.982   2.953   6.782  1.3091 -0.5249 -0.0050
  154MOL0     O20231   6.869   2.867   6.778 -0.0592  0.1004  0.0442
  154MOL0     C20232   6.805   2.855   6.902  0.1263 -0.1438  0.5116
  154MOL0     C20233   6.660   2.797   6.883 -0.1451 -0.4985  0.8592
  154MOL0     C20234   6.560   2.872   6.792 -0.3860 -0.3331  0.4423
  154MOL0     C20235   6.441   2.771   6.761 -0.4591 -0.4233  0.1437
  154MOL0     C20236   6.334   2.832   6.672  0.0026 -0.4995  0.4493
  154MOL0     C20237   6.227   2.734   6.620 -0.2084 -0.0008  0.6614
  154MOL0     C20238   6.113   2.810   6.556 -0.3176 -0.2590 -0.7262
  154MOL0     C20239   5.993   2.721   6.526  1.0440 -0.0470  0.2274
  154MOL0    Cl20240   5.881   2.708   6.677  0.5108 -0.0050  0.0129
  154MOL0     C20241   6.989   3.049   6.680  0.0804  0.6846 -0.2668
  154MOL0     C20242   7.086   3.151   6.675 -0.7540  0.4408  0.8914
  154MOL0     O20243   7.222   3.323   6.983  0.7130 -0.8447  0.1825
  154MOL0     C20244   7.493   3.418   6.764  0.3029 -0.1255  0.0753
  154MOL0     C20245   7.612   3.496   6.772  0.5925 -0.0270  0.1813
  154MOL0     N20246   8.279   4.015   6.946  0.1797 -0.6011  0.4952
  154MOL0     N20247   8.290   4.142   6.973  0.3442 -0.3491  0.2820
  154MOL0     C20248   7.153   4.270   6.825  0.2380  0.7759 -0.0286
  154MOL0     C20249   7.022   4.299   6.784 -0.0495  0.1438 -0.1425
  154MOL0     C20250   6.592   4.351   6.669  0.5111 -0.1804  0.4031
  154MOL0     C20251   6.568   4.288   6.545  1.5171  0.0785  0.2221
  154MOL0     C20252   6.439   4.291   6.493  0.4842  0.5756 -0.0594
  154MOL0     C20253   6.329   4.365   6.551 -0.0140  0.3171 -0.6824
  154MOL0     O20254   6.202   4.380   6.495  0.2328 -0.3008 -0.1913
  154MOL0     C20255   6.157   4.280   6.401  0.5270 -0.1477 -0.9153
  154MOL0     C20256   6.012   4.327   6.370 -0.2224 -0.1552 -0.9984
  154MOL0     C20257   5.942   4.218   6.290  0.4892  0.2757  0.6018
  154MOL0     C20258   5.804   4.254   6.283  0.3301 -0.2768  0.7473
  154MOL0     C20259   5.732   4.145   6.206  0.4507  0.2300  0.5436
  154MOL0     C20260   5.686   4.051   6.149 -0.4446 -0.3886  0.0437
  154MOL0     C20261   6.361   4.429   6.669  0.2715  0.3253 -0.6043
  154MOL0     C20262   6.488   4.416   6.732  0.3812 -0.3725  0.2998
  154MOL0     H20263   6.908   3.986   6.692  0.5363 -1.4414  1.7463
  154MOL0     H20264   7.142   3.936   6.757 -1.4360 -0.3781  0.9347
  154MOL0     H20265   7.372   4.260   6.970 -0.8812  0.0020  0.2194
  154MOL0     H20266   7.448   4.258   6.821  0.6941 -2.2785 -1.9553
  154MOL0     H20267   7.593   4.067   6.877 -0.6449 -1.1823  1.0194
  154MOL0     H20268   7.494   4.024   7.015  0.6464 -1.7700 -1.3257
  154MOL0     H20269   7.723   4.126   7.064 -1.7167 -1.6695  0.2314
  154MOL0     H20270   7.590   4.212   7.145 -0.1491 -3.0762  0.2595
  154MOL0     H20271   7.688   4.334   6.882  1.7505  1.8815  0.3129
  154MOL0     H20272   7.594   4.393   7.012 -0.6077 -0.0623 -0.1329
  154MOL0     H20273   7.828   4.360   7.140 -4.7399 -3.5109 -0.0401
  154MOL0     H20274   7.807   4.492   7.020 -0.4847 -1.0894  0.1024
  154MOL0     H20275   7.913   4.352   6.839 -2.5190 -1.1392  0.5890
  154MOL0     H20276   7.928   4.222   6.949  0.4996  1.2513  2.3095
  154MOL0     H20277   8.054   4.498   6.995  1.5632  0.7861  2.7344
  154MOL0     H20278   8.065   4.357   7.102 -0.5217  0.6653  0.5077
  154MOL0     H20279   8.261   4.403   6.959  0.3850 -1.1500  0.5087
  154MOL0     H20280   8.161   4.399   6.804 -4.4484  0.1855  0.7627
  154MOL0     H20281   8.053   4.141   6.739  1.1926 -1.2581 -2.2004
  154MOL0     H20282   8.214   3.804   6.807  0.7032  1.2453 -2.4213
  154MOL0     H20283   8.099   3.872   6.694 -0.6717 -0.7184 -0.0396
  154MOL0     H20284   8.058   3.807   7.005  0.1854 -0.4935  0.3637
  154MOL0     H20285   8.010   3.703   6.875 -0.0306  0.5124 -0.4997
  154MOL0     H20286   7.871   3.969   6.943 -0.6971  1.1863 -0.6125
  154MOL0     H20287   7.855   3.900   6.787 -3.7791 -1.8911 -0.0472
  154MOL0     H20288   7.684   3.830   6.986 -1.9061  1.0000 -2.9646
  154MOL0     H20289   7.813   3.728   7.039 -1.7361  0.2188  1.3860
  154MOL0     H20290   7.544   3.685   7.039 -0.5498 -1.0283  1.0984
  154MOL0     H20291   7.337   3.531   7.044  0.5476 -0.8392  0.0819
  154MOL0     H20292   7.254   3.049   6.958  2.6878  0.7469 -2.1803
  154MOL0     H20293   7.042   2.900   6.968 -2.0934  0.3923  0.0928
  154MOL0     H20294   6.783   2.954   6.944 -1.4067 -0.5566  0.7343
  154MOL0     H20295   6.856   2.796   6.979 -1.0191 -0.8265  0.7576
  154MOL0     H20296   6.614   2.789   6.982 -1.3120  1.9392  0.5808
  154MOL0     H20297   6.672   2.699   6.836 -0.6307  0.2785 -0.9447
  154MOL0     H20298   6.615   2.889   6.699 -1.3533  2.2547  0.2435
  154MOL0     H20299   6.533   2.968   6.838 -2.5007 -0.1767 -0.9871
  154MOL0     H20300   6.479   2.678   6.716 -0.1116 -0.1231 -0.1889
  154MOL0     H20301   6.397   2.739   6.856  1.1954  1.9570  1.8352
  154MOL0     H20302   6.395   2.870   6.590 -0.5766 -0.3044  0.1038
  154MOL0     H20303   6.294   2.922   6.721  0.4818 -0.6041  1.0511
  154MOL0     H20304   6.191   2.672   6.703 -1.9695 -0.5175 -0.4400
  154MOL0     H20305   6.283   2.662   6.559 -0.3716 -0.9238  1.5565
  154MOL0     H20306   6.082   2.885   6.628  0.6818 -0.0284 -0.5258
  154MOL0     H20307   6.140   2.858   6.462  1.2232  0.0316 -0.1686
  154MOL0     H20308   6.024   2.626   6.481 -0.0385  0.1985 -1.0948
  154MOL0     H20309   5.921   2.766   6.458 -1.0217 -1.7057  1.2181
  154MOL0     H20310   6.906   3.048   6.610 -0.7315  0.4679  0.6832
  154MOL0     H20311   7.087   3.222   6.593 -1.3172  2.5074  2.6001
  154MOL0     H20312   7.497   3.333   6.697 -1.1690 -1.5417  1.6775
  154MOL0     H20313   7.693   3.482   6.702  1.7941  2.7687  0.8659
  154MOL0     H20314   7.211   4.351   6.869 -3.0624  1.6762  3.2311
  154MOL0     H20315   6.997   4.404   6.793  2.7705  0.8026  1.1698
  154MOL0     H20316   6.639   4.229   6.488 -0.2522  0.1715 -2.2421
  154MOL0     H20317   6.417   4.231   6.405  0.8085  1.8951 -1.0864
  154MOL0     H20318   6.174   4.178   6.436  1.5180 -0.2528 -1.6401
  154MOL0     H20319   6.202   4.283   6.301 -1.4648 -0.9149 -1.8800
  154MOL0     H20320   5.951   4.333   6.460 -2.2800 -4.8576 -1.7555
  154MOL0     H20321   6.009   4.419   6.311  0.1327  0.5101  0.0086
  154MOL0     H20322   5.942   4.136   6.362 -1.0401  0.7336  1.1772
  154MOL0     H20323   5.973   4.194   6.188 -0.3947  3.0474 -0.4173
  154MOL0     H20324   5.755   4.274   6.379 -2.2175  0.2103 -0.5482
  154MOL0     H20325   5.792   4.348   6.226  2.8343 -1.2567 -1.6183
  154MOL0     H20326   5.647   3.960   6.108  0.1849 -0.2156 -0.9750
  154MOL0     H20327   6.272   4.477   6.709  1.9045  3.2244 -0.2418
  154MOL0     H20328   6.518   4.445   6.832  0.6078 -1.9357  0.7102
  155MOL0     O20329   6.924   3.068   9.173 -0.5011  0.2073 -0.2009
  155MOL0     C20330   6.808   3.022   9.165 -0.2783 -0.2366 -0.2121
  155MOL0     O20331   6.705   3.069   9.231  0.0648 -1.2499  0.3222
  155MOL0     C20332   6.701   3.178   9.322  0.7942  0.1596 -0.3596
  155MOL0     C20333   6.803   3.261   9.375 -0.2733  0.1861 -1.0575
  155MOL0     C20334   6.774   3.377   9.461  0.2693  0.3470  0.5384
  155MOL0     C20335   6.636   3.410   9.489 -0.7098  0.2248 -0.0994
  155MOL0     O20336   6.617   3.519   9.574 -0.2786  1.6677  0.3150
  155MOL0     C20337   6.577   3.488   9.712 -1.1974  0.0820  0.9726
  155MOL0     C20338   6.604   3.600   9.814 -0.1592  0.3925 -0.5904
  155MOL0     C20339   6.544   3.740   9.794 -0.3031  0.1043  0.4491
  155MOL0     C20340   6.562   3.819   9.921  0.0819 -0.1330 -0.4608
  155MOL0     C20341   6.495   3.961   9.918 -0.7281 -0.2748 -0.1406
  155MOL0     C20342   6.459   4.001  10.062 -0.6524 -0.4450 -0.1184
  155MOL0     C20343   6.343   4.101  10.058  0.2354 -0.4984 -0.1839
  155MOL0     C20344   6.206   4.035  10.029 -0.2592  0.7142 -0.1529
  155MOL0     N20345   6.158   3.951  10.142 -0.3684 -0.8086 -0.0134
  155MOL0     C20346   6.136   3.816  10.112  0.5447  0.4405 -0.1463
  155MOL0     C20347   6.029   3.792  10.183  0.6784 -0.2775  0.1490
  155MOL0     C20348   5.962   3.661  10.205 -0.4873 -0.5677 -0.0207
  155MOL0     C20349   5.887   3.657  10.337 -0.2844 -0.0459 -0.7264
  155MOL0     C20350   5.873   3.519  10.409 -0.0470 -0.3285  1.0769
  155MOL0     C20351   5.769   3.427  10.347 -0.1089  0.0303  0.0355
  155MOL0     O20352   5.806   3.394  10.213  0.3669 -0.6936 -0.1253
  155MOL0     C20353   5.716   3.374  10.116  0.2890 -0.0426 -0.7877
  155MOL0     C20354   5.766   3.376   9.991  0.3040  1.3375  0.9562
  155MOL0     C20355   5.683   3.375   9.879  0.1767  0.1334  0.1643
  155MOL0     C20356   5.545   3.355   9.895  0.0940  0.9085  0.3982
  155MOL0     C20357   5.452   3.336   9.775 -0.3303  0.1837 -0.5301
  155MOL0     O20358   5.321   3.385   9.794 -0.1535  0.1711  0.1649
  155MOL0     C20359   5.224   3.376   9.698  0.8759  0.5408 -0.4155
  155MOL0     C20360   5.220   3.283   9.587 -0.5262 -0.1593 -0.0007
  155MOL0     C20361   5.113   3.267   9.496  0.1857  0.5592 -0.3988
  155MOL0     C20362   4.986   3.333   9.534  0.8518 -0.6961 -0.1090
  155MOL0     O20363   4.862   3.325   9.466 -0.0127  0.3357  0.8150
  155MOL0     C20364   4.840   3.217   9.368 -0.4038  0.1860  0.9184
  155MOL0     C20365   4.705   3.155   9.384  0.1558  0.6476  1.4073
  155MOL0     C20366   4.685   3.062   9.265 -0.8320 -0.0931  0.2982
  155MOL0     C20367   4.559   2.983   9.284 -0.5885 -0.2755  0.3595
  155MOL0     C20368   4.523   2.883   9.165  0.0592 -0.1077 -0.8168
  155MOL0     C20369   4.482   2.942   9.030  0.3829  0.0614 -0.9697
  155MOL0     C20370   4.352   3.025   9.043  0.7787  0.0253 -0.2434
  155MOL0     C20371   4.304   3.081   8.905  1.2725  0.1806  0.0331
  155MOL0    Cl20372   4.223   2.953   8.805  0.3214 -0.0506 -0.7740
  155MOL0     C20373   4.991   3.422   9.644  1.0059  0.0314 -0.1580
  155MOL0     C20374   5.107   3.444   9.717  0.4870  0.1392  0.2767
  155MOL0     O20375   5.507   3.299   9.672  0.4122  0.4246  0.4005
  155MOL0     C20376   5.498   3.346  10.023 -0.0394  1.0950  0.1979
  155MOL0     C20377   5.579   3.351  10.132  0.2869 -0.3969 -0.1972
  155MOL0     N20378   5.996   3.904  10.261  1.4324 -0.0267 -0.1459
  155MOL0     N20379   6.081   3.994  10.245  0.3375 -0.2878 -0.7452
  155MOL0     C20380   6.532   3.328   9.439 -0.6368 -0.2849  0.5410
  155MOL0     C20381   6.560   3.215   9.355 -0.6579 -0.4114  0.7850
  155MOL0     C20382   6.782   2.914   9.075 -0.0030  0.3582  0.2080
  155MOL0     C20383   6.886   2.863   8.997  0.5284 -1.2100  0.2008
  155MOL0     C20384   6.862   2.759   8.903  0.1948  0.3514  0.0035
  155MOL0     C20385   6.729   2.714   8.874 -0.7513 -0.5748  0.4424
  155MOL0     O20386   6.712   2.614   8.788  0.0380 -0.1096  0.5819
  155MOL0     C20387   6.823   2.577   8.695  0.7383 -0.4665 -0.7732
  155MOL0     C20388   6.778   2.502   8.571  0.1585 -0.1121 -0.1223
  155MOL0     C20389   6.739   2.351   8.598  1.1912 -0.0419 -0.8086
  155MOL0     C20390   6.727   2.265   8.469  0.6767  0.1332 -0.0626
  155MOL0     C20391   6.696   2.128   8.503 -0.3613  0.3169 -0.1271
  155MOL0     C20392   6.673   2.018   8.555 -1.0816  0.1630 -0.0149
  155MOL0     C20393   6.630   2.763   8.957 -0.5105 -0.2958  0.3426
  155MOL0     C20394   6.651   2.867   9.049 -1.3871  0.8888 -0.7565
  155MOL0     H20395   6.909   3.249   9.355  0.2271  2.4173 -0.0164
  155MOL0     H20396   6.851   3.440   9.504  0.4676 -0.6968  1.7917
  155MOL0     H20397   6.628   3.397   9.744 -0.2270 -1.0219 -3.0714
  155MOL0     H20398   6.473   3.454   9.718 -1.1855 -0.2860 -0.4312
  155MOL0     H20399   6.713   3.613   9.820 -0.1109  0.4091 -1.3425
  155MOL0     H20400   6.580   3.556   9.911  3.7864  0.0923  0.4403
  155MOL0     H20401   6.436   3.722   9.790 -0.1367 -0.7696 -0.6244
  155MOL0     H20402   6.583   3.783   9.701 -0.2834 -0.8610  0.0036
  155MOL0     H20403   6.514   3.757   9.997 -0.9245  0.5623 -0.5115
  155MOL0     H20404   6.665   3.832   9.955 -0.2381  1.1655  0.0723
  155MOL0     H20405   6.403   3.952   9.860 -0.9147  1.4947 -0.1591
  155MOL0     H20406   6.559   4.039   9.876 -0.8981  1.8376  3.1201
  155MOL0     H20407   6.543   4.049  10.114 -0.2151 -1.1842 -0.1276
  155MOL0     H20408   6.423   3.910  10.111 -0.8064  0.8061  2.2433
  155MOL0     H20409   6.340   4.146  10.157 -0.7548  0.2038 -0.5126
  155MOL0     H20410   6.360   4.180   9.984  0.6348 -1.0138 -0.6529
  155MOL0     H20411   6.209   3.976   9.937 -0.9963  0.9169 -0.3090
  155MOL0     H20412   6.124   4.107  10.020 -1.2398 -0.0857  1.7283
  155MOL0     H20413   6.171   3.745  10.038 -1.9134  1.0682 -2.0336
  155MOL0     H20414   6.051   3.597  10.207 -0.4116 -0.4636 -0.0431
  155MOL0     H20415   5.902   3.637  10.117  1.2013 -1.2561 -1.0288
  155MOL0     H20416   5.792   3.711  10.339 -0.1472  0.2223  1.6489
  155MOL0     H20417   5.942   3.716  10.410  1.2609 -3.3233  0.9637
  155MOL0     H20418   5.970   3.468  10.398 -1.3484 -2.6825 -0.5160
  155MOL0     H20419   5.861   3.525  10.518 -1.7724 -1.0793  0.9701
  155MOL0     H20420   5.669   3.473  10.340  0.2337  0.5526 -4.0251
  155MOL0     H20421   5.762   3.331  10.398 -1.3275  0.0334 -0.0775
  155MOL0     H20422   5.873   3.394   9.985  0.8020 -0.4513  3.0741
  155MOL0     H20423   5.726   3.383   9.780 -1.0693 -1.1891 -0.5293
  155MOL0     H20424   5.305   3.224   9.557 -1.0101 -0.7212 -0.2646
  155MOL0     H20425   5.122   3.193   9.417 -0.4520 -1.0916  1.0006
  155MOL0     H20426   4.912   3.134   9.373 -2.4730 -2.0281 -2.3109
  155MOL0     H20427   4.850   3.267   9.272 -1.4102 -2.3619 -0.6102
  155MOL0     H20428   4.625   3.230   9.381 -2.4199 -1.9628  1.0387
  155MOL0     H20429   4.697   3.105   9.481  0.3173  0.2821  1.2354
  155MOL0     H20430   4.767   2.989   9.260  1.0203  1.9653 -2.1021
  155MOL0     H20431   4.688   3.114   9.169  3.7058  0.6581  0.6132
  155MOL0     H20432   4.574   2.928   9.378 -0.1043 -2.3575 -0.8787
  155MOL0     H20433   4.469   3.044   9.293 -1.1437 -0.1494 -3.9163
  155MOL0     H20434   4.445   2.815   9.202  0.7927 -1.7877 -2.2130
  155MOL0     H20435   4.607   2.815   9.148 -0.2797 -0.6994 -0.2037
  155MOL0     H20436   4.459   2.857   8.965 -1.4891 -1.1047  1.1017
  155MOL0     H20437   4.570   2.992   8.988  0.6803  0.1598 -0.2452
  155MOL0     H20438   4.279   2.955   9.086 -3.0074  2.4441 -2.2528
  155MOL0     H20439   4.363   3.109   9.112  2.2167 -0.6906  0.4367
  155MOL0     H20440   4.386   3.133   8.856  3.0949 -2.0104  0.5658
  155MOL0     H20441   4.218   3.145   8.924 -1.1370 -2.6151 -0.6927
  155MOL0     H20442   4.899   3.476   9.661  0.9992 -0.3677  1.1643
  155MOL0     H20443   5.088   3.491   9.813  1.3498 -0.3319  0.6893
  155MOL0     H20444   5.392   3.331  10.044 -0.3160 -1.4633 -2.3872
  155MOL0     H20445   5.545   3.343  10.235  2.5268 -2.2319  0.4807
  155MOL0     H20446   6.433   3.339   9.482 -1.0211 -2.3958  0.2993
  155MOL0     H20447   6.476   3.169   9.305 -1.8292  2.5637 -0.2273
  155MOL0     H20448   6.981   2.915   9.006 -0.1634  0.1800 -0.2877
  155MOL0     H20449   6.947   2.721   8.846 -1.5298  0.9728 -3.1703
  155MOL0     H20450   6.882   2.514   8.762  0.4084  1.2204  1.1750
  155MOL0     H20451   6.873   2.668   8.662 -1.4353  1.4145  0.8844
  155MOL0     H20452   6.691   2.550   8.524 -2.6803 -3.5918  1.0833
  155MOL0     H20453   6.864   2.504   8.505 -0.0623 -0.5788 -0.4252
  155MOL0     H20454   6.650   2.343   8.661  0.5374  0.2544 -1.6753
  155MOL0     H20455   6.822   2.310   8.657 -0.8884 -1.5502  1.2154
  155MOL0     H20456   6.649   2.302   8.402 -1.8113 -1.3783  1.8087
  155MOL0     H20457   6.820   2.268   8.413  0.7560  0.6421  0.0920
  155MOL0     H20458   6.663   1.920   8.596  1.5191 -0.5072 -0.8132
  155MOL0     H20459   6.537   2.708   8.953 -0.2467 -0.9744  2.4000
  155MOL0     H20460   6.567   2.909   9.103 -1.0990  0.3899  0.1100
  156MOL0     O20461   0.778   2.830   5.483  0.0690 -0.2319 -0.0878
  156MOL0     C20462   0.760   2.907   5.576 -0.1787  0.8394 -0.5659
  156MOL0     O20463   0.687   3.020   5.572  0.0328 -0.2426 -0.2413
  156MOL0     C20464   0.610   3.046   5.460  0.2576 -0.1136 -0.7327
  156MOL0     C20465   0.530   2.953   5.396  0.0984  0.2729  1.3280
  156MOL0     C20466   0.458   2.980   5.276  0.2808 -0.1343 -0.2475
  156MOL0     C20467   0.469   3.119   5.224 -0.0779  0.7455 -0.0423
  156MOL0     O20468   0.428   3.137   5.087 -0.0191 -0.3566 -0.0207
  156MOL0     C20469   0.384   3.274   5.051 -0.1485 -0.7805 -0.4585
  156MOL0     C20470   0.316   3.265   4.911  0.5981 -0.3207  0.0662
  156MOL0     C20471   0.187   3.190   4.924  0.2403  0.1711  0.5348
  156MOL0     C20472   0.096   3.168   4.800  0.2761 -0.7133  0.5504
  156MOL0     C20473   0.025   3.305   4.753 -1.0633 -0.6487  0.2197
  156MOL0     C20474  -0.078   3.291   4.641  0.6683 -0.0733 -0.0900
  156MOL0     C20475  -0.136   3.425   4.610 -0.1037  0.6486  0.3789
  156MOL0     C20476  -0.242   3.432   4.503 -0.2682  0.4032 -0.0816
  156MOL0     N20477  -0.381   3.389   4.546  0.0195  0.5960  0.0941
  156MOL0     C20478  -0.502   3.424   4.491 -0.0538  0.8174 -0.1864
  156MOL0     C20479  -0.586   3.355   4.572 -0.0783 -0.5812  0.0641
  156MOL0     C20480  -0.737   3.354   4.528 -1.7962 -0.1301 -0.7930
  156MOL0     C20481  -0.776   3.210   4.485  0.0908  0.0031  0.0645
  156MOL0     C20482  -0.918   3.202   4.427 -0.0434 -0.5590 -0.2648
  156MOL0     C20483  -1.035   3.263   4.516 -1.1858  0.4909 -0.3092
  156MOL0     O20484  -1.034   3.239   4.656 -0.0615  0.3215 -0.5611
  156MOL0     C20485  -1.159   3.229   4.713 -0.0379 -0.0508 -0.1908
  156MOL0     C20486  -1.208   3.117   4.767  0.4330  0.5166 -0.8005
  156MOL0     C20487  -1.331   3.111   4.836 -0.0675  0.3228 -0.0761
  156MOL0     C20488  -1.411   3.227   4.832  1.1032  0.4518  0.5178
  156MOL0     C20489  -1.542   3.229   4.900 -0.8280  0.2351  0.1460
  156MOL0     O20490  -1.560   3.132   4.992  0.3369 -0.1322 -0.1807
  156MOL0     C20491  -1.662   3.134   5.082  0.0037 -0.1230 -0.0644
  156MOL0     C20492  -1.683   3.239   5.172 -0.7354  0.9637 -1.0447
  156MOL0     C20493  -1.790   3.232   5.261 -0.6389 -0.5208  0.1532
  156MOL0     C20494  -1.878   3.121   5.264  0.1829  0.4885  0.8517
  156MOL0     O20495  -1.977   3.121   5.359  0.5316 -0.2393  0.4898
  156MOL0     C20496  -2.043   2.997   5.385 -1.2738  0.4118 -0.4941
  156MOL0     C20497  -2.120   3.009   5.519 -0.8026 -1.1772  0.2695
  156MOL0     C20498  -2.226   2.902   5.538 -0.7425 -0.0409 -0.0186
  156MOL0     C20499  -2.314   2.930   5.659 -0.6957  0.2022  0.2356
  156MOL0     C20500  -2.407   2.809   5.680  0.0874  0.0957 -0.0377
  156MOL0     C20501  -2.515   2.781   5.568 -0.4134  0.4076  0.5418
  156MOL0     C20502  -2.607   2.668   5.614  0.1458  0.1623 -0.0474
  156MOL0     C20503  -2.539   2.536   5.619  0.6776 -0.5207 -0.5388
  156MOL0    Cl20504  -2.649   2.401   5.668  0.5517  0.1314  0.2483
  156MOL0     C20505  -1.859   3.012   5.169  0.0669 -0.1834  0.0336
  156MOL0     C20506  -1.748   3.017   5.086 -0.6160 -0.0050 -0.4000
  156MOL0     O20507  -1.614   3.331   4.886 -0.1427 -0.8077  1.0437
  156MOL0     C20508  -1.359   3.341   4.771 -0.4033  0.5690  0.0557
  156MOL0     C20509  -1.233   3.346   4.711 -1.5332  1.0259 -0.4100
  156MOL0     N20510  -0.523   3.280   4.663 -0.0226  0.2712 -0.5445
  156MOL0     N20511  -0.399   3.300   4.651  0.1232 -0.4265 -0.4900
  156MOL0     C20512   0.541   3.214   5.295 -0.1855 -0.1394 -0.4486
  156MOL0     C20513   0.610   3.178   5.411  0.4215 -0.0401  0.0827
  156MOL0     C20514   0.820   2.869   5.705 -0.0228  0.3918 -0.5433
  156MOL0     C20515   0.875   2.742   5.722 -0.7640  0.2420 -0.0668
  156MOL0     C20516   0.940   2.705   5.849 -0.1375 -0.5233  0.6811
  156MOL0     C20517   0.961   2.813   5.943 -0.0159  0.4572 -1.1316
  156MOL0     O20518   1.029   2.776   6.060 -0.0357 -0.8173  0.8135
  156MOL0     C20519   1.154   2.713   6.026 -0.4104 -0.6862  1.1945
  156MOL0     C20520   1.263   2.802   5.969  0.6820 -0.3988 -0.3678
  156MOL0     C20521   1.279   2.930   6.050  0.3495 -0.1583 -0.6599
  156MOL0     C20522   1.392   3.018   5.999 -0.3976  0.4905  0.3734
  156MOL0     C20523   1.408   3.144   6.081 -0.2361  0.4288  0.3966
  156MOL0     C20524   1.413   3.240   6.147  1.0736 -0.2883  0.3962
  156MOL0     C20525   0.904   2.936   5.928  2.0077 -0.4170  0.2035
  156MOL0     C20526   0.835   2.963   5.807  0.6981  0.2993 -0.2507
  156MOL0     H20527   0.523   2.854   5.440  1.3399 -0.3476  0.1880
  156MOL0     H20528   0.409   2.906   5.214 -0.2611  0.3152 -0.3595
  156MOL0     H20529   0.462   3.349   5.034  0.2405 -0.2717  2.7883
  156MOL0     H20530   0.307   3.323   5.112 -0.2869  0.8158 -1.8487
  156MOL0     H20531   0.385   3.215   4.842 -1.2456 -0.3874 -1.8345
  156MOL0     H20532   0.295   3.360   4.861  1.5064 -0.6245 -0.9374
  156MOL0     H20533   0.132   3.244   5.003 -1.0664  4.5618 -2.9300
  156MOL0     H20534   0.214   3.092   4.963  1.4200  0.1608 -0.2683
  156MOL0     H20535   0.148   3.117   4.719 -4.4675 -2.0977 -2.0398
  156MOL0     H20536   0.017   3.095   4.824 -0.7713 -0.7603 -2.5578
  156MOL0     H20537   0.104   3.376   4.727 -2.4805  1.9871  2.5619
  156MOL0     H20538  -0.020   3.351   4.842  2.4061  2.5633  0.5633
  156MOL0     H20539  -0.159   3.228   4.680  1.5304 -1.4458 -0.4743
  156MOL0     H20540  -0.035   3.244   4.552  1.9641 -0.1435  0.5557
  156MOL0     H20541  -0.190   3.455   4.700 -0.5684 -2.5636  1.3204
  156MOL0     H20542  -0.059   3.498   4.584  0.5054 -0.1881 -0.2306
  156MOL0     H20543  -0.202   3.365   4.427  0.9506 -2.1325  2.5760
  156MOL0     H20544  -0.238   3.532   4.459 -0.3703 -0.8359 -3.1681
  156MOL0     H20545  -0.533   3.496   4.416 -0.8932  2.7834  1.9211
  156MOL0     H20546  -0.739   3.425   4.445 -0.2845  3.8368  2.2692
  156MOL0     H20547  -0.808   3.385   4.606 -1.6937 -1.9292  0.0636
  156MOL0     H20548  -0.779   3.142   4.570  0.0442  1.9813  1.7401
  156MOL0     H20549  -0.702   3.190   4.407 -1.8452  1.4337 -2.2378
  156MOL0     H20550  -0.918   3.245   4.327  1.0871  1.6971  0.6355
  156MOL0     H20551  -0.939   3.097   4.405  0.8376 -1.0127  0.9649
  156MOL0     H20552  -1.126   3.211   4.482 -0.3750 -1.0292 -0.2566
  156MOL0     H20553  -1.043   3.372   4.509 -2.3105  0.8818  4.2239
  156MOL0     H20554  -1.146   3.029   4.759  1.1281  0.9726 -0.4686
  156MOL0     H20555  -1.356   3.017   4.882  2.1107 -0.3406 -0.1641
  156MOL0     H20556  -1.622   3.329   5.168 -1.9909  1.8097 -1.6769
  156MOL0     H20557  -1.815   3.314   5.326  1.1621  0.0591  0.1677
  156MOL0     H20558  -1.965   2.920   5.387  0.4685  2.0892 -0.6366
  156MOL0     H20559  -2.117   2.975   5.307 -0.8825  0.9126 -1.0129
  156MOL0     H20560  -2.167   3.108   5.516  2.1935  0.6175  3.7066
  156MOL0     H20561  -2.043   3.000   5.597 -1.2526 -0.0371  0.8812
  156MOL0     H20562  -2.181   2.803   5.556 -1.0870 -0.6776 -2.3737
  156MOL0     H20563  -2.268   2.893   5.438  1.5733  0.3617 -1.0947
  156MOL0     H20564  -2.252   2.945   5.748 -0.3173  0.9746 -0.1463
  156MOL0     H20565  -2.376   3.020   5.646  0.0924  0.5613 -1.2267
  156MOL0     H20566  -2.465   2.825   5.771  0.8732  0.6994  0.3721
  156MOL0     H20567  -2.338   2.725   5.690  0.5147  0.7158  3.4765
  156MOL0     H20568  -2.455   2.746   5.483 -2.0775 -0.3266 -0.3703
  156MOL0     H20569  -2.564   2.874   5.539  1.2792  1.8331  2.0042
  156MOL0     H20570  -2.637   2.684   5.718 -2.6692 -1.3213 -0.5195
  156MOL0     H20571  -2.707   2.656   5.571 -0.1166  1.5239  0.1395
  156MOL0     H20572  -2.456   2.551   5.688 -0.0103 -0.1737  0.2289
  156MOL0     H20573  -2.502   2.514   5.518 -4.2794  3.3965 -3.6643
  156MOL0     H20574  -1.926   2.927   5.165 -0.6029  0.2145  1.8446
  156MOL0     H20575  -1.720   2.942   5.012  1.8500  0.3618  0.0541
  156MOL0     H20576  -1.422   3.429   4.775 -2.0507 -0.6052  2.9304
  156MOL0     H20577  -1.189   3.440   4.677  2.3030 -1.0927 -1.9111
  156MOL0     H20578   0.551   3.315   5.256 -1.5014 -0.4980 -1.8227
  156MOL0     H20579   0.664   3.258   5.459  1.4941  0.1647 -1.3720
  156MOL0     H20580   0.860   2.657   5.656 -2.2129 -0.4007  1.0309
  156MOL0     H20581   0.975   2.603   5.854  0.0743 -0.5396 -0.6515
  156MOL0     H20582   1.142   2.622   5.966  2.4690  0.2144 -0.9529
  156MOL0     H20583   1.205   2.673   6.115  2.2947  0.7541  0.4215
  156MOL0     H20584   1.359   2.749   5.960  0.1585 -1.3750 -0.2633
  156MOL0     H20585   1.235   2.840   5.871 -2.1824  1.7650  1.1446
  156MOL0     H20586   1.299   2.896   6.151 -2.2424  0.4990  0.1379
  156MOL0     H20587   1.188   2.989   6.063 -0.5625 -1.4329 -1.1183
  156MOL0     H20588   1.487   2.965   5.986 -0.5780 -0.0757  1.2574
  156MOL0     H20589   1.364   3.058   5.902  0.4827  1.3780  0.4690
  156MOL0     H20590   1.408   3.336   6.193  2.3151 -1.0086  2.1341
  156MOL0     H20591   0.926   3.011   6.003  2.6558 -0.9415  0.5426
  156MOL0     H20592   0.788   3.060   5.798 -0.7616 -0.4251 -0.6940
  157MOL0     O20593   9.017   4.278   2.777  0.0036 -0.1335  0.3750
  157MOL0     C20594   9.042   4.174   2.720 -0.4803  0.0463  1.2436
  157MOL0     O20595   8.956   4.074   2.690  0.1079 -0.0089 -0.4859
  157MOL0     C20596   8.824   4.080   2.711 -0.1542  0.6954  0.4940
  157MOL0     C20597   8.767   4.059   2.840 -0.3759 -0.3908 -0.6612
  157MOL0     C20598   8.633   4.101   2.856 -0.3578  0.2385 -0.4855
  157MOL0     C20599   8.549   4.144   2.752  0.7354 -0.0078 -0.1569
  157MOL0     O20600   8.417   4.177   2.791  0.4517 -0.5729 -0.4217
  157MOL0     C20601   8.331   4.226   2.697 -0.1370 -0.2026 -0.2807
  157MOL0     C20602   8.241   4.112   2.642  0.1568  0.0367  0.1359
  157MOL0     C20603   8.117   4.171   2.556 -0.9029  0.2811 -0.5133
  157MOL0     C20604   8.039   4.053   2.498  0.6797  0.5844  0.4146
  157MOL0     C20605   7.930   4.100   2.400  0.4863 -0.0092  0.3143
  157MOL0     C20606   7.818   4.166   2.481 -0.5238 -0.2277 -0.0688
  157MOL0     C20607   7.684   4.162   2.402 -0.0962 -0.4059 -0.1125
  157MOL0     C20608   7.576   4.247   2.476  0.4776 -0.2606  0.9535
  157MOL0     N20609   7.440   4.233   2.417  0.6030 -0.0400  0.3116
  157MOL0     C20610   7.347   4.127   2.411 -0.3459 -0.2517 -0.0952
  157MOL0     C20611   7.233   4.167   2.349 -0.5200  0.1576  0.1578
  157MOL0     C20612   7.111   4.093   2.307 -0.3927  0.2241 -1.0705
  157MOL0     C20613   7.147   3.981   2.209  0.6813  0.0098  0.2788
  157MOL0     C20614   7.019   3.895   2.180 -0.0144  0.1858 -0.6119
  157MOL0     C20615   7.027   3.788   2.066 -0.1933 -0.6206 -0.3319
  157MOL0     O20616   7.023   3.858   1.936  0.8709  0.5755 -0.4127
  157MOL0     C20617   6.897   3.859   1.875 -0.2457  1.1781  0.0585
  157MOL0     C20618   6.885   3.886   1.743  0.4166  0.1963  0.7568
  157MOL0     C20619   6.768   3.881   1.671  0.2295  0.2263  0.4076
  157MOL0     C20620   6.648   3.877   1.741  0.0601 -0.6184  0.4644
  157MOL0     C20621   6.513   3.871   1.667 -1.0431 -0.5329 -0.5386
  157MOL0     O20622   6.400   3.840   1.736  0.2149  0.5171 -0.2692
  157MOL0     C20623   6.276   3.859   1.683  0.3028 -0.6915  0.4261
  157MOL0     C20624   6.227   3.945   1.581 -1.5146  0.3770  0.2745
  157MOL0     C20625   6.092   3.967   1.548 -0.9495  0.8844 -0.4865
  157MOL0     C20626   5.997   3.890   1.607  0.8054  0.4237 -0.0766
  157MOL0     O20627   5.870   3.879   1.564  0.2856  0.1072 -0.1367
  157MOL0     C20628   5.815   3.964   1.470  0.1320 -0.9560  0.5678
  157MOL0     C20629   5.670   3.923   1.482  0.0819  0.2352 -0.9972
  157MOL0     C20630   5.577   3.993   1.383 -0.4806 -0.1375 -0.6449
  157MOL0     C20631   5.477   3.885   1.330 -0.2144  0.1667 -0.0543
  157MOL0     C20632   5.383   3.938   1.223 -1.2044 -0.5985 -0.4379
  157MOL0     C20633   5.286   4.037   1.284  0.0024 -0.0744  0.1064
  157MOL0     C20634   5.193   4.110   1.181 -0.2013  0.0767 -0.7030
  157MOL0     C20635   5.080   4.029   1.124  0.5001 -0.9356 -0.6100
  157MOL0    Cl20636   4.970   4.122   1.022  0.5199 -0.0401  0.2115
  157MOL0     C20637   6.038   3.800   1.703 -0.5636 -0.5717 -0.3741
  157MOL0     C20638   6.175   3.796   1.752 -0.5076 -0.4219 -0.3432
  157MOL0     O20639   6.522   3.891   1.547  0.3411 -0.8230 -0.3424
  157MOL0     C20640   6.653   3.859   1.880 -0.0231  0.3223 -0.5738
  157MOL0     C20641   6.777   3.843   1.949 -0.1545 -0.3536  0.2547
  157MOL0     N20642   7.255   4.302   2.318  0.4655  0.7436 -0.0630
  157MOL0     N20643   7.376   4.334   2.347 -0.0032  0.5546 -0.1986
  157MOL0     C20644   8.613   4.160   2.619 -0.8496  0.2587 -0.6520
  157MOL0     C20645   8.747   4.122   2.597  0.1540  0.4551 -0.2655
  157MOL0     C20646   9.187   4.151   2.678 -0.4321 -0.3385 -1.1618
  157MOL0     C20647   9.286   4.252   2.696 -0.3835 -0.4457  0.7595
  157MOL0     C20648   9.426   4.223   2.677  0.2082  0.3253 -0.6126
  157MOL0     C20649   9.469   4.099   2.632 -0.8102 -0.5776  0.8911
  157MOL0     O20650   9.598   4.061   2.628 -0.2111  0.1270  0.7696
  157MOL0     C20651   9.698   4.148   2.681 -0.4346 -0.0244  0.1324
  157MOL0     C20652   9.842   4.076   2.679 -0.6053 -0.2081  0.3311
  157MOL0     C20653   9.962   4.154   2.740 -0.4193  0.7243  0.3280
  157MOL0     C20654  10.028   4.235   2.634  0.4898 -0.0721  0.5819
  157MOL0     C20655  10.141   4.315   2.676 -0.4507 -0.0766 -0.7889
  157MOL0     C20656  10.232   4.376   2.727 -0.7553  0.4495  0.1020
  157MOL0     C20657   9.370   4.010   2.606  0.0582  1.0392  0.0182
  157MOL0     C20658   9.238   4.035   2.609  0.6135 -0.2248  0.8564
  157MOL0     H20659   8.820   4.017   2.925 -0.5168 -3.3210 -1.9049
  157MOL0     H20660   8.593   4.087   2.956  0.3247 -1.6972 -0.4370
  157MOL0     H20661   8.367   4.283   2.611 -1.6968  1.8498  0.3377
  157MOL0     H20662   8.272   4.306   2.744  0.1260  1.8470 -3.1327
  157MOL0     H20663   8.192   4.077   2.733  0.3721 -0.8509 -0.0805
  157MOL0     H20664   8.301   4.031   2.599 -0.2694 -0.6732  0.8336
  157MOL0     H20665   8.159   4.228   2.472 -0.2806  1.1564  0.3660
  157MOL0     H20666   8.057   4.236   2.619  1.0659  1.1268  0.5872
  157MOL0     H20667   8.113   3.989   2.448 -1.4814 -0.6444 -1.3832
  157MOL0     H20668   7.983   3.988   2.566 -0.6241  1.3059  0.0589
  157MOL0     H20669   7.901   4.006   2.352 -0.0128 -0.1095  0.8138
  157MOL0     H20670   7.960   4.171   2.322  0.1503 -1.7367 -1.4651
  157MOL0     H20671   7.854   4.267   2.504  1.0760 -0.3656 -1.8185
  157MOL0     H20672   7.798   4.103   2.568  0.4586 -0.8419 -0.2774
  157MOL0     H20673   7.702   4.206   2.303 -1.3466  0.1002 -0.1250
  157MOL0     H20674   7.657   4.059   2.380  0.1568 -0.2822 -1.0562
  157MOL0     H20675   7.600   4.352   2.462 -1.4290 -0.1102 -2.1750
  157MOL0     H20676   7.563   4.226   2.583 -1.8020  0.5427  0.8875
  157MOL0     H20677   7.369   4.029   2.452 -0.1018 -0.8528 -1.5793
  157MOL0     H20678   7.033   4.162   2.273 -1.5523  0.9248  2.5456
  157MOL0     H20679   7.065   4.056   2.399  1.1003 -1.1863 -0.8552
  157MOL0     H20680   7.220   3.910   2.248 -1.6650 -4.1446 -2.1576
  157MOL0     H20681   7.190   4.034   2.123 -0.6635  1.4271  0.4189
  157MOL0     H20682   6.994   3.840   2.271  0.4131 -3.6605 -2.5924
  157MOL0     H20683   6.934   3.960   2.160 -0.6147 -1.3113 -3.5327
  157MOL0     H20684   6.948   3.714   2.082 -0.4663 -1.0949 -3.2466
  157MOL0     H20685   7.118   3.729   2.080 -0.0283  0.0599  1.7578
  157MOL0     H20686   6.980   3.894   1.690  0.8433 -3.0929  0.8390
  157MOL0     H20687   6.785   3.892   1.564  0.5500  3.2595  0.6920
  157MOL0     H20688   6.305   3.986   1.518 -1.5336 -0.0959 -0.0616
  157MOL0     H20689   6.063   4.021   1.458 -0.4564  1.5601 -0.2518
  157MOL0     H20690   5.852   3.944   1.369 -2.4468  0.0597 -0.6798
  157MOL0     H20691   5.833   4.069   1.494 -1.2780 -0.4385 -0.5638
  157MOL0     H20692   5.649   3.965   1.581  2.2827 -1.7307  0.4081
  157MOL0     H20693   5.657   3.815   1.481 -0.7601  0.3142 -3.0085
  157MOL0     H20694   5.641   4.046   1.312  0.2824 -2.5680 -1.8898
  157MOL0     H20695   5.529   4.076   1.436  1.2096  0.5551 -0.1259
  157MOL0     H20696   5.530   3.809   1.272  2.2364  0.8956  1.0977
  157MOL0     H20697   5.425   3.844   1.417  0.0472 -0.7493 -0.3152
  157MOL0     H20698   5.333   3.851   1.181  1.4169 -2.6983  0.5092
  157MOL0     H20699   5.451   3.990   1.154 -1.5088 -0.1332 -0.3936
  157MOL0     H20700   5.345   4.119   1.325  1.9492 -2.3517  2.1520
  157MOL0     H20701   5.225   4.001   1.367  0.9427 -1.4324  0.2365
  157MOL0     H20702   5.133   4.186   1.233 -0.2736  0.2222 -0.9968
  157MOL0     H20703   5.239   4.165   1.098 -1.4548  1.3308 -0.6175
  157MOL0     H20704   5.020   3.973   1.196  3.4657 -3.0392  0.4088
  157MOL0     H20705   5.122   3.961   1.050 -0.5684 -0.7631 -1.4036
  157MOL0     H20706   5.958   3.736   1.739  1.8088 -2.9880  0.9242
  157MOL0     H20707   6.202   3.717   1.821 -0.0725 -2.8987 -3.1306
  157MOL0     H20708   6.561   3.839   1.934  1.2240  0.1668  1.6515
  157MOL0     H20709   6.775   3.807   2.051 -3.3252 -2.3118 -0.3462
  157MOL0     H20710   8.549   4.184   2.535 -2.9027 -2.5049 -0.0274
  157MOL0     H20711   8.790   4.127   2.498 -0.0803  1.0841 -0.3393
  157MOL0     H20712   9.261   4.353   2.726 -0.6123  0.4619 -2.1444
  157MOL0     H20713   9.498   4.301   2.699  0.6250  0.4618 -2.3307
  157MOL0     H20714   9.678   4.182   2.783  0.1666 -3.1343  1.3957
  157MOL0     H20715   9.705   4.237   2.618 -0.2947 -0.3464 -0.3123
  157MOL0     H20716   9.841   3.983   2.737  1.5445  1.7070  3.7481
  157MOL0     H20717   9.868   4.046   2.577 -0.3387 -1.2901  0.7028
  157MOL0     H20718  10.033   4.079   2.776 -0.7856 -0.8980 -2.0960
  157MOL0     H20719   9.928   4.198   2.834  0.1848 -0.1387  0.9688
  157MOL0     H20720  10.063   4.158   2.564 -1.0416  0.2997 -0.6492
  157MOL0     H20721   9.958   4.304   2.586  2.1921  1.4046  0.0978
  157MOL0     H20722  10.311   4.429   2.776 -0.7394  1.6067 -1.0911
  157MOL0     H20723   9.399   3.910   2.575 -0.3914 -0.1673  3.0946
  157MOL0     H20724   9.163   3.962   2.582 -0.9123  1.6411 -0.1589
  158MOL0     O20725   8.172   5.688   9.063 -0.0055  0.4804 -0.4536
  158MOL0     C20726   8.255   5.605   9.022  0.7794 -0.0121 -0.6151
  158MOL0     O20727   8.226   5.490   8.951  0.4765  0.0165  0.2018
  158MOL0     C20728   8.107   5.436   8.916 -0.0008  0.2896  0.0891
  158MOL0     C20729   7.990   5.501   8.927  0.1852  0.4345  0.2015
  158MOL0     C20730   7.872   5.444   8.883 -0.7556 -0.0107  1.4677
  158MOL0     C20731   7.871   5.322   8.807 -0.4254  0.3096 -0.6508
  158MOL0     O20732   7.766   5.271   8.744 -0.6777 -0.4224  0.1653
  158MOL0     C20733   7.668   5.355   8.684 -0.9869  0.3191 -0.2494
  158MOL0     C20734   7.617   5.314   8.555 -0.8286  0.3347 -0.0033
  158MOL0     C20735   7.516   5.204   8.558  1.2062  1.0612  0.1079
  158MOL0     C20736   7.440   5.195   8.429 -0.1317 -0.2413 -0.1514
  158MOL0     C20737   7.322   5.094   8.443 -0.0035 -1.1674  0.8027
  158MOL0     C20738   7.244   5.076   8.310 -0.5250 -0.5377 -0.6475
  158MOL0     C20739   7.114   4.994   8.324  0.6340  0.8614  0.0331
  158MOL0     C20740   7.064   4.967   8.174  0.3309 -0.2333 -0.6035
  158MOL0     N20741   6.960   5.076   8.146 -0.5405  0.3430  0.3561
  158MOL0     C20742   6.992   5.197   8.101 -0.5727 -0.2001  0.1795
  158MOL0     C20743   6.871   5.261   8.112 -1.0950 -0.0806  0.7420
  158MOL0     C20744   6.857   5.400   8.068 -0.9211 -0.1741 -0.5692
  158MOL0     C20745   6.946   5.494   8.146 -0.0568 -0.5036  0.0560
  158MOL0     C20746   6.929   5.649   8.118  0.0238  0.2013  0.2072
  158MOL0     C20747   6.798   5.693   8.178 -0.2956 -0.7043 -0.5124
  158MOL0     O20748   6.780   5.829   8.134  0.3891 -0.1011  0.6257
  158MOL0     C20749   6.662   5.879   8.183  0.2968 -0.3286 -0.0205
  158MOL0     C20750   6.649   5.932   8.312 -0.6853  0.2095  0.3354
  158MOL0     C20751   6.522   5.969   8.360  0.5670 -0.5727  0.3812
  158MOL0     C20752   6.407   5.967   8.282  0.7391 -0.6209 -0.1014
  158MOL0     C20753   6.271   6.015   8.331  0.0162  0.6455 -0.1530
  158MOL0     O20754   6.264   6.029   8.470  0.4651 -0.2298  0.7555
  158MOL0     C20755   6.146   6.088   8.504  0.0558 -0.7079 -0.0444
  158MOL0     C20756   6.041   6.002   8.539  0.0122  0.1498  0.1411
  158MOL0     C20757   5.908   6.049   8.560 -0.2474  0.1795  0.3399
  158MOL0     C20758   5.887   6.188   8.558 -0.4133  0.1112  0.7087
  158MOL0     O20759   5.763   6.245   8.583 -0.4075  0.5380 -0.3513
  158MOL0     C20760   5.643   6.162   8.600 -0.1819 -0.2645 -0.3692
  158MOL0     C20761   5.533   6.258   8.635  0.0392  0.4852  0.7978
  158MOL0     C20762   5.481   6.349   8.520  0.1514  0.6221  0.4759
  158MOL0     C20763   5.343   6.403   8.561  0.9450 -0.1780 -0.3960
  158MOL0     C20764   5.295   6.510   8.457  0.0438  2.0040 -1.0947
  158MOL0     C20765   5.165   6.581   8.512 -0.6416  0.5661 -0.7423
  158MOL0     C20766   5.108   6.657   8.398 -0.5258 -0.2218 -0.0701
  158MOL0     C20767   4.975   6.728   8.437  1.0376 -1.9328 -0.1670
  158MOL0    Cl20768   5.023   6.881   8.528 -0.1104 -0.0165  0.0368
  158MOL0     C20769   5.988   6.275   8.522  0.0240  0.8676  0.2205
  158MOL0     C20770   6.119   6.223   8.495 -1.4215  0.3562  0.1881
  158MOL0     O20771   6.182   6.042   8.254  0.8253 -0.7423  0.1181
  158MOL0     C20772   6.426   5.940   8.148  0.1347 -0.4866 -0.4159
  158MOL0     C20773   6.548   5.891   8.097  0.6098 -1.0657  0.0298
  158MOL0     N20774   6.777   5.187   8.174  0.6507 -0.2395  0.3736
  158MOL0     N20775   6.833   5.076   8.201 -0.6270  0.3545 -0.5747
  158MOL0     C20776   7.989   5.256   8.801  0.1743 -0.4018  0.2107
  158MOL0     C20777   8.105   5.309   8.852  0.7911 -0.0136  0.3926
  158MOL0     C20778   8.407   5.630   9.041 -0.5242 -0.2479  0.8503
  158MOL0     C20779   8.496   5.569   8.957 -0.1619  0.4292  1.0066
  158MOL0     C20780   8.641   5.589   8.973  0.7282 -0.4147 -0.0099
  158MOL0     C20781   8.689   5.680   9.068 -0.2327  0.5282 -0.1161
  158MOL0     O20782   8.827   5.712   9.090  0.1851  0.1192 -0.5835
  158MOL0     C20783   8.916   5.613   9.040 -0.6256  1.0768 -0.3264
  158MOL0     C20784   9.062   5.622   9.097 -0.7757  0.1580 -0.4940
  158MOL0     C20785   9.060   5.593   9.254 -0.7284 -0.3421  0.1909
  158MOL0     C20786   9.193   5.603   9.322 -0.7557  0.4495  0.4397
  158MOL0     C20787   9.292   5.505   9.272 -0.0600 -0.0511 -0.6746
  158MOL0     C20788   9.368   5.415   9.256 -0.5178 -0.3282 -0.0431
  158MOL0     C20789   8.588   5.756   9.142 -0.8726  1.0654  0.2281
  158MOL0     C20790   8.453   5.731   9.133 -0.2852  0.0683 -0.1636
  158MOL0     H20791   7.983   5.600   8.970  0.1874  0.4098  0.2575
  158MOL0     H20792   7.783   5.502   8.902  0.9143  3.0306  0.7594
  158MOL0     H20793   7.725   5.448   8.675  0.0477 -0.0461  1.9199
  158MOL0     H20794   7.582   5.383   8.746 -1.0977  1.0062 -0.6877
  158MOL0     H20795   7.704   5.282   8.497 -1.5908  1.3386 -1.7915
  158MOL0     H20796   7.584   5.411   8.516  0.5576  0.5491 -0.6938
  158MOL0     H20797   7.440   5.213   8.637 -0.0928 -2.5859 -0.5229
  158MOL0     H20798   7.558   5.107   8.589 -5.1067 -1.7425  1.5510
  158MOL0     H20799   7.403   5.294   8.402  2.8193  0.8789 -0.3928
  158MOL0     H20800   7.510   5.176   8.347 -1.6385 -1.8258 -1.1349
  158MOL0     H20801   7.245   5.129   8.512 -1.2146  0.7956 -1.3996
  158MOL0     H20802   7.366   4.998   8.471 -0.5035 -1.8040 -0.5006
  158MOL0     H20803   7.313   5.036   8.236  0.1632  2.3818 -1.7096
  158MOL0     H20804   7.209   5.170   8.268  0.6661  2.0605  3.5877
  158MOL0     H20805   7.128   4.904   8.384 -2.5025  0.7838  0.8812
  158MOL0     H20806   7.040   5.050   8.383  0.1893  1.9030 -1.4582
  158MOL0     H20807   7.017   4.869   8.169 -0.5008  0.0262  1.4963
  158MOL0     H20808   7.143   4.973   8.098  0.9952  4.9460  0.0918
  158MOL0     H20809   7.079   5.235   8.049  0.0486  1.6050  2.4199
  158MOL0     H20810   6.755   5.435   8.085 -1.8095 -2.5997 -0.4949
  158MOL0     H20811   6.875   5.398   7.960 -0.6260 -1.5043 -0.5128
  158MOL0     H20812   7.047   5.468   8.113 -0.2137 -0.4696 -0.4537
  158MOL0     H20813   6.948   5.468   8.252  0.3449  0.6889  0.3532
  158MOL0     H20814   7.014   5.695   8.169 -0.3001  0.8321  0.1820
  158MOL0     H20815   6.938   5.682   8.015  3.0151 -1.2144 -0.0996
  158MOL0     H20816   6.813   5.688   8.287  0.0683  2.7893 -0.3017
  158MOL0     H20817   6.712   5.634   8.146 -0.9040 -0.4781  0.6271
  158MOL0     H20818   6.744   5.935   8.365 -0.2435 -1.6328 -0.2920
  158MOL0     H20819   6.518   5.998   8.464 -3.4949 -3.9976  1.4808
  158MOL0     H20820   6.046   5.899   8.575 -1.6898  0.2093  0.6460
  158MOL0     H20821   5.839   5.968   8.581 -0.4209 -0.3076 -1.8721
  158MOL0     H20822   5.656   6.084   8.676 -1.1712 -0.4626 -0.3797
  158MOL0     H20823   5.618   6.107   8.508 -3.4723 -0.8441  0.7119
  158MOL0     H20824   5.561   6.320   8.720 -2.2958 -1.1735  2.9051
  158MOL0     H20825   5.448   6.198   8.669 -0.3441 -0.1302 -1.1135
  158MOL0     H20826   5.463   6.296   8.425 -0.0517 -0.2726  1.0054
  158MOL0     H20827   5.557   6.425   8.502  2.8695 -2.4331 -2.3282
  158MOL0     H20828   5.272   6.321   8.570 -0.1072  0.6913 -0.6111
  158MOL0     H20829   5.351   6.460   8.655 -1.0891  0.8642 -0.7958
  158MOL0     H20830   5.271   6.463   8.361 -2.3885 -0.6826  0.6762
  158MOL0     H20831   5.376   6.583   8.453  1.6755  0.5270  2.0834
  158MOL0     H20832   5.193   6.643   8.598  1.0130 -1.0185 -0.0573
  158MOL0     H20833   5.093   6.509   8.553  1.4295 -0.9036  0.4765
  158MOL0     H20834   5.175   6.739   8.372 -0.8413  0.4131  1.0604
  158MOL0     H20835   5.102   6.598   8.306  1.2480  1.5395 -1.4077
  158MOL0     H20836   4.897   6.669   8.485 -2.4742 -0.4496 -3.5438
  158MOL0     H20837   4.924   6.764   8.347 -0.7746  1.1986  1.9460
  158MOL0     H20838   5.954   6.372   8.486 -0.2327 -0.2975 -2.9578
  158MOL0     H20839   6.188   6.291   8.446 -1.0022  0.0256  0.3183
  158MOL0     H20840   6.348   5.957   8.076  0.3719 -1.4644 -0.9252
  158MOL0     H20841   6.548   5.856   7.994 -2.0828  1.1053 -0.8260
  158MOL0     H20842   7.985   5.157   8.757  2.7304  0.0532 -1.2987
  158MOL0     H20843   8.204   5.265   8.841  0.3174 -1.1882  0.6540
  158MOL0     H20844   8.471   5.491   8.886 -2.1956  0.7546  1.2956
  158MOL0     H20845   8.712   5.544   8.904  0.1223  0.3306 -1.1564
  158MOL0     H20846   8.912   5.618   8.931 -0.8519 -0.4027 -0.4077
  158MOL0     H20847   8.884   5.511   9.066  2.4614  0.4092  1.3243
  158MOL0     H20848   9.125   5.548   9.047  1.0188  1.3752 -0.1602
  158MOL0     H20849   9.107   5.720   9.077  0.5999  0.1081  1.8598
  158MOL0     H20850   9.035   5.489   9.279  0.2332 -0.8456 -0.8620
  158MOL0     H20851   8.991   5.661   9.304  0.3174 -0.4646  1.8622
  158MOL0     H20852   9.236   5.704   9.318  3.8421 -1.3069 -1.0556
  158MOL0     H20853   9.190   5.599   9.431  1.2091 -0.7695  0.5020
  158MOL0     H20854   9.443   5.340   9.244  2.2253  2.1005  0.8296
  158MOL0     H20855   8.631   5.825   9.214 -0.0855  0.1753  0.6372
  158MOL0     H20856   8.374   5.770   9.197 -1.7831 -3.5072  0.4250
  159MOL0     O20857   1.900   2.095   2.166  0.1074 -0.5215  0.5223
  159MOL0     C20858   1.832   2.197   2.173 -0.1470  0.1550 -0.0146
  159MOL0     O20859   1.837   2.302   2.078 -1.1880 -0.2935 -0.1202
  159MOL0     C20860   1.936   2.305   1.976 -0.3259  0.4806  0.3547
  159MOL0     C20861   1.898   2.272   1.848 -0.0886 -0.1360 -0.2990
  159MOL0     C20862   1.980   2.299   1.743  0.1424  0.2949  1.7678
  159MOL0     C20863   2.103   2.359   1.756  0.5538 -0.4900  0.5773
  159MOL0     O20864   2.172   2.383   1.640  0.2439  0.6402 -0.5405
  159MOL0     C20865   2.293   2.462   1.654  0.2319  0.3389  1.8527
  159MOL0     C20866   2.336   2.502   1.510  0.7232  0.2481 -0.0956
  159MOL0     C20867   2.489   2.500   1.485 -0.7209 -0.8835 -0.2394
  159MOL0     C20868   2.574   2.570   1.596  0.6784 -0.6980  0.3666
  159MOL0     C20869   2.713   2.585   1.554 -0.6266  0.7993 -1.0823
  159MOL0     C20870   2.806   2.578   1.682 -0.6631  0.0601  0.4746
  159MOL0     C20871   2.946   2.541   1.643  0.7364  0.0240 -0.2137
  159MOL0     C20872   3.039   2.576   1.754 -0.2044  0.4392 -0.7135
  159MOL0     N20873   2.992   2.517   1.886  1.0058 -0.8250  0.5070
  159MOL0     C20874   2.966   2.388   1.914  0.3133 -0.0944  0.7951
  159MOL0     C20875   2.951   2.378   2.047 -0.0618 -0.1957  0.0986
  159MOL0     C20876   2.938   2.250   2.125  0.2841 -0.9793  0.4795
  159MOL0     C20877   3.069   2.171   2.135 -0.8512  0.2107  0.1996
  159MOL0     C20878   3.157   2.247   2.244 -0.5417  0.3271  0.3301
  159MOL0     C20879   3.312   2.216   2.240  0.0524 -1.0574 -0.1471
  159MOL0     O20880   3.377   2.265   2.123 -0.0883  0.2983 -0.3433
  159MOL0     C20881   3.409   2.399   2.110  0.6823 -0.2102  0.2515
  159MOL0     C20882   3.317   2.478   2.051 -0.0707 -0.1205  0.0654
  159MOL0     C20883   3.339   2.614   2.045  0.5035 -0.0136  0.0689
  159MOL0     C20884   3.460   2.670   2.095 -1.0121  0.3088 -0.6462
  159MOL0     C20885   3.488   2.808   2.074  1.0679 -0.4211 -0.0621
  159MOL0     O20886   3.390   2.887   2.001  0.6593  0.1534 -0.1336
  159MOL0     C20887   3.419   3.019   1.981  0.3340 -0.1186 -0.4768
  159MOL0     C20888   3.317   3.117   1.988 -0.0444 -1.1810 -1.0264
  159MOL0     C20889   3.331   3.248   1.947  0.5066  0.2023  0.2576
  159MOL0     C20890   3.458   3.284   1.883  1.1195  1.0663  0.0243
  159MOL0     O20891   3.490   3.404   1.831  0.5077 -0.3132 -0.3028
  159MOL0     C20892   3.385   3.510   1.812 -0.7445  0.3691 -0.3769
  159MOL0     C20893   3.462   3.640   1.774  0.6160 -0.4618  0.5749
  159MOL0     C20894   3.359   3.741   1.733 -0.4142  0.5237 -0.4893
  159MOL0     C20895   3.400   3.886   1.747 -0.2207  0.1801  0.2021
  159MOL0     C20896   3.290   3.994   1.732 -1.1457  0.0857  0.0086
  159MOL0     C20897   3.159   3.968   1.808 -0.1133  0.1718  0.5722
  159MOL0     C20898   3.065   4.088   1.768 -1.1188  0.3130 -0.7433
  159MOL0     C20899   2.943   4.081   1.854 -0.1827  0.3662  0.5411
  159MOL0    Cl20900   2.860   3.920   1.847  0.0345  0.0674  0.0589
  159MOL0     C20901   3.561   3.189   1.884 -0.1155  0.3153  0.2345
  159MOL0     C20902   3.548   3.060   1.927  0.4151  0.1351  0.1264
  159MOL0     O20903   3.589   2.849   2.129  0.8740 -0.7525 -0.0882
  159MOL0     C20904   3.544   2.589   2.164 -0.2493  0.0973 -0.2063
  159MOL0     C20905   3.520   2.453   2.162 -0.2068 -0.5142 -0.0464
  159MOL0     N20906   2.952   2.504   2.101  0.4500 -0.2963 -0.7215
  159MOL0     N20907   2.972   2.588   2.003 -0.0274 -0.0419  0.3222
  159MOL0     C20908   2.149   2.385   1.889  0.1406  0.2655  0.0086
  159MOL0     C20909   2.067   2.353   1.995  0.5031 -0.5409  0.1169
  159MOL0     C20910   1.750   2.218   2.288  0.9848  0.0747  1.3327
  159MOL0     C20911   1.717   2.105   2.366 -0.6514 -0.2690  0.1677
  159MOL0     C20912   1.634   2.128   2.484 -0.6429 -0.9621 -0.2757
  159MOL0     C20913   1.582   2.258   2.522 -0.1009  0.0543 -1.0247
  159MOL0     O20914   1.511   2.280   2.639 -0.2760 -0.2153 -0.3410
  159MOL0     C20915   1.391   2.370   2.644 -0.2917 -0.7717 -0.5333
  159MOL0     C20916   1.356   2.379   2.798 -0.6412 -0.0151  0.0137
  159MOL0     C20917   1.218   2.442   2.828 -0.2934 -1.0568 -0.1151
  159MOL0     C20918   1.194   2.440   2.976  0.1889 -0.0535  0.5847
  159MOL0     C20919   1.074   2.518   3.005 -0.1730  0.3052 -0.3284
  159MOL0     C20920   0.974   2.580   3.043 -0.0222  0.3998  0.5204
  159MOL0     C20921   1.607   2.359   2.431  0.8155 -0.4068  0.2819
  159MOL0     C20922   1.692   2.342   2.316 -0.0784 -0.8501  0.1772
  159MOL0     H20923   1.800   2.231   1.826 -2.3518  4.1150  0.6745
  159MOL0     H20924   1.941   2.276   1.644  0.5248  1.7478  1.2605
  159MOL0     H20925   2.376   2.406   1.696  1.1824 -1.3996 -1.8800
  159MOL0     H20926   2.284   2.555   1.710 -0.1003  1.4830  0.0120
  159MOL0     H20927   2.291   2.598   1.483 -0.0392  0.7049  2.4876
  159MOL0     H20928   2.290   2.422   1.452 -2.5221 -0.0140  2.5078
  159MOL0     H20929   2.511   2.560   1.396  1.7394 -1.0477  0.2016
  159MOL0     H20930   2.524   2.399   1.467  0.0726 -0.7942  0.6939
  159MOL0     H20931   2.529   2.670   1.606  0.3261 -0.7719 -0.3670
  159MOL0     H20932   2.557   2.518   1.691 -1.1888 -0.1836  0.3737
  159MOL0     H20933   2.736   2.685   1.514  4.2055 -0.3580 -1.7840
  159MOL0     H20934   2.744   2.505   1.487  0.3967 -0.5306  0.8928
  159MOL0     H20935   2.768   2.497   1.745 -0.7187 -0.3566 -0.0856
  159MOL0     H20936   2.815   2.670   1.741 -0.0058 -0.3640  1.0525
  159MOL0     H20937   2.942   2.432   1.628  0.4472  0.4141 -4.1867
  159MOL0     H20938   2.978   2.574   1.543 -1.5523  1.9208 -0.4159
  159MOL0     H20939   3.045   2.685   1.763  0.8195  0.4589 -1.3757
  159MOL0     H20940   3.137   2.530   1.741  0.1794  0.6311  1.2846
  159MOL0     H20941   2.974   2.306   1.844  1.3773  1.1193 -0.5723
  159MOL0     H20942   2.861   2.183   2.086 -0.2343  0.4021 -0.9736
  159MOL0     H20943   2.904   2.275   2.225 -0.9966  0.8845 -0.3732
  159MOL0     H20944   3.121   2.153   2.041 -1.4908 -2.7697  0.3275
  159MOL0     H20945   3.046   2.072   2.174  2.2834 -0.3876  0.8017
  159MOL0     H20946   3.149   2.356   2.231 -0.7097  0.0671 -2.2420
  159MOL0     H20947   3.116   2.226   2.344  0.8057 -1.9371  0.4685
  159MOL0     H20948   3.319   2.108   2.255 -0.5140 -0.9565  0.9398
  159MOL0     H20949   3.360   2.246   2.334 -1.0714 -0.7254  0.3407
  159MOL0     H20950   3.234   2.421   2.010  1.9236 -3.1422 -0.1711
  159MOL0     H20951   3.258   2.673   2.003  0.0077 -0.4051  0.4645
  159MOL0     H20952   3.213   3.094   2.007 -0.3482 -0.3771 -1.6402
  159MOL0     H20953   3.258   3.324   1.974 -1.8683 -2.0231  0.4013
  159MOL0     H20954   3.342   3.531   1.910 -0.2992  2.3026 -0.5518
  159MOL0     H20955   3.310   3.466   1.746 -1.6389  0.7885  0.3428
  159MOL0     H20956   3.524   3.622   1.686  1.1571 -0.3420  0.9273
  159MOL0     H20957   3.536   3.664   1.851  3.3516  0.9526 -2.2716
  159MOL0     H20958   3.267   3.724   1.791  1.9336 -1.0296  3.1530
  159MOL0     H20959   3.327   3.720   1.630  2.5998 -3.9269 -0.8370
  159MOL0     H20960   3.441   3.883   1.848  0.7146 -1.5003 -0.1989
  159MOL0     H20961   3.480   3.910   1.677  0.4296  2.0709  1.4954
  159MOL0     H20962   3.273   4.012   1.626  2.2573 -1.2884 -0.9257
  159MOL0     H20963   3.338   4.083   1.774  2.8386 -1.7048 -0.2541
  159MOL0     H20964   3.183   3.960   1.914  0.8729 -2.0657  0.2447
  159MOL0     H20965   3.123   3.874   1.766  1.1987 -0.3535  0.5799
  159MOL0     H20966   3.120   4.182   1.780  0.2468 -0.2753 -2.0273
  159MOL0     H20967   3.025   4.077   1.667 -5.3985 -1.1349  0.9104
  159MOL0     H20968   2.878   4.160   1.816  1.8141  2.4000  1.0932
  159MOL0     H20969   2.975   4.091   1.958 -0.1047  1.2412  0.4406
  159MOL0     H20970   3.657   3.220   1.845 -0.2829 -0.4859 -0.8736
  159MOL0     H20971   3.625   2.984   1.911  1.8156  1.6574 -0.7060
  159MOL0     H20972   3.632   2.632   2.211  1.4615 -0.5175 -2.6578
  159MOL0     H20973   3.592   2.380   2.200  2.6217  0.8625 -2.4052
  159MOL0     H20974   2.252   2.413   1.908  0.3998  2.5848 -3.7207
  159MOL0     H20975   2.097   2.363   2.098 -0.2658  0.0498  0.3002
  159MOL0     H20976   1.758   2.008   2.342 -2.3090 -0.7560 -0.8762
  159MOL0     H20977   1.623   2.037   2.542 -0.5334 -0.6404  0.2496
  159MOL0     H20978   1.301   2.338   2.590 -1.2525 -0.6823  0.9585
  159MOL0     H20979   1.415   2.469   2.605 -0.7844 -0.6408 -0.5057
  159MOL0     H20980   1.349   2.277   2.837 -2.1640  0.4878  1.1581
  159MOL0     H20981   1.441   2.434   2.839  0.0987  1.2548 -2.9435
  159MOL0     H20982   1.134   2.393   2.778 -2.9132  0.8376  2.1118
  159MOL0     H20983   1.209   2.546   2.795 -0.1800 -1.3905 -1.2335
  159MOL0     H20984   1.196   2.335   3.008  3.2034 -0.9049 -1.8982
  159MOL0     H20985   1.277   2.491   3.025  2.5094  0.8987 -3.8581
  159MOL0     H20986   0.894   2.633   3.091  0.7633  0.0602  2.2842
  159MOL0     H20987   1.555   2.451   2.457  0.6537 -0.3987 -0.0677
  159MOL0     H20988   1.706   2.431   2.256  1.3078 -3.0079 -2.9111
  160MOL0     O20989   8.136   4.618   2.712 -0.3568  0.0815 -0.2440
  160MOL0     C20990   8.143   4.741   2.697 -0.3932  0.7180 -0.5552
  160MOL0     O20991   8.054   4.821   2.642  0.8545  1.3528 -0.2191
  160MOL0     C20992   7.930   4.788   2.615  0.8318 -0.7689  0.3287
  160MOL0     C20993   7.853   4.890   2.553  0.1248 -0.4029  0.2008
  160MOL0     C20994   7.719   4.867   2.516  0.0217  0.3344  0.4209
  160MOL0     C20995   7.659   4.740   2.536  0.0981 -0.9209 -0.1468
  160MOL0     O20996   7.527   4.710   2.498  0.6633  0.2575 -0.5537
  160MOL0     C20997   7.508   4.701   2.358 -0.0597 -0.1168 -0.9323
  160MOL0     C20998   7.361   4.689   2.318  0.7080  0.4436  0.0598
  160MOL0     C20999   7.346   4.670   2.166 -0.2002 -0.2056 -0.8018
  160MOL0     C21000   7.196   4.634   2.132 -0.4721  0.0069 -0.5821
  160MOL0     C21001   7.170   4.606   1.986 -0.4103  0.8357 -0.5571
  160MOL0     C21002   7.051   4.512   1.972 -0.0415  0.2868 -0.1484
  160MOL0     C21003   7.016   4.475   1.832  0.0808 -0.1649  0.1082
  160MOL0     C21004   6.883   4.532   1.771  0.4903  0.2451 -0.5744
  160MOL0     N21005   6.776   4.433   1.769  0.7977 -0.1011 -0.5981
  160MOL0     C21006   6.737   4.354   1.663 -1.2492 -1.0666 -0.0263
  160MOL0     C21007   6.615   4.302   1.693 -1.0236  0.1015  0.6437
  160MOL0     C21008   6.525   4.229   1.596  0.5527  0.3639 -0.4911
  160MOL0     C21009   6.468   4.323   1.489  0.6362  0.7621  0.0261
  160MOL0     C21010   6.569   4.406   1.412  0.0050 -0.7772  0.6621
  160MOL0     C21011   6.510   4.483   1.296  0.7327  0.0087  0.2492
  160MOL0     O21012   6.382   4.545   1.318  0.4495 -0.5138 -0.6156
  160MOL0     C21013   6.269   4.489   1.264  1.0347 -0.8958 -0.0496
  160MOL0     C21014   6.256   4.428   1.141  0.1664 -0.0771  0.5933
  160MOL0     C21015   6.131   4.378   1.097  0.0213  0.0909  0.5090
  160MOL0     C21016   6.020   4.389   1.182 -0.1151  0.3528 -0.6225
  160MOL0     C21017   5.895   4.348   1.135  0.1002  0.5538 -0.1686
  160MOL0     O21018   5.888   4.308   1.006 -0.9008  0.2264  0.8107
  160MOL0     C21019   5.768   4.281   0.945  0.4453  0.0872  0.4075
  160MOL0     C21020   5.651   4.223   1.002  0.0481 -0.7024 -0.3506
  160MOL0     C21021   5.526   4.239   0.929 -0.2617  0.2970  0.4398
  160MOL0     C21022   5.518   4.304   0.806  1.6197  0.2323  0.7314
  160MOL0     O21023   5.406   4.333   0.729 -0.3466  0.5609  0.0550
  160MOL0     C21024   5.303   4.392   0.821 -0.1092  0.6758 -0.1692
  160MOL0     C21025   5.189   4.452   0.741  0.4741 -0.8385 -0.6047
  160MOL0     C21026   5.107   4.361   0.642 -0.7371  0.8061 -0.6020
  160MOL0     C21027   5.039   4.228   0.706  0.3376  0.0255 -0.9690
  160MOL0     C21028   4.929   4.184   0.613  0.1185  0.6430 -0.2948
  160MOL0     C21029   4.888   4.040   0.649 -0.1266 -0.2315 -0.1477
  160MOL0     C21030   4.794   3.995   0.534  0.7233 -0.0453  0.0173
  160MOL0     C21031   4.747   3.851   0.562 -0.6506 -0.5884 -0.9580
  160MOL0    Cl21032   4.641   3.788   0.438 -0.2071  0.0244 -0.2034
  160MOL0     C21033   5.646   4.342   0.758  0.2659  0.0476  0.5418
  160MOL0     C21034   5.765   4.331   0.826 -0.1129 -0.6945 -0.8111
  160MOL0     O21035   5.806   4.344   1.218 -0.1285  0.4918  0.1302
  160MOL0     C21036   6.028   4.460   1.309  0.7355  0.3309  0.1916
  160MOL0     C21037   6.148   4.507   1.347 -0.2029 -0.0736  0.5978
  160MOL0     N21038   6.593   4.328   1.827  0.7015  0.0049  0.5405
  160MOL0     N21039   6.688   4.408   1.869  0.0924 -0.1212  0.1165
  160MOL0     C21040   7.732   4.637   2.604  0.6798  0.1100  0.5753
  160MOL0     C21041   7.869   4.661   2.642  1.8434 -0.6814  0.1501
  160MOL0     C21042   8.270   4.812   2.742  0.0899  1.0594  0.0217
  160MOL0     C21043   8.389   4.738   2.772  0.0206 -0.8572 -0.8920
  160MOL0     C21044   8.501   4.803   2.839  0.0944 -0.3183  0.5587
  160MOL0     C21045   8.497   4.944   2.862  0.1752  0.1936  0.4492
  160MOL0     O21046   8.594   5.015   2.914 -0.2381  0.1966 -0.5418
  160MOL0     C21047   8.707   4.939   2.967  0.5045  0.3711 -0.6550
  160MOL0     C21048   8.795   5.035   3.053  0.9550 -0.1053  0.4615
  160MOL0     C21049   8.905   4.947   3.113 -0.7532 -0.1891 -0.1637
  160MOL0     C21050   9.030   4.915   3.023  0.2125 -0.3377 -0.6094
  160MOL0     C21051   9.143   4.879   3.110 -0.1529 -0.1935  1.4502
  160MOL0     C21052   9.235   4.862   3.186 -0.1554  0.6263 -0.1812
  160MOL0     C21053   8.385   5.024   2.816 -0.0387  0.5673 -0.4484
  160MOL0     C21054   8.267   4.957   2.767 -1.1142 -1.1700 -0.3076
  160MOL0     H21055   7.888   4.985   2.514 -0.0857 -0.9743 -1.4439
  160MOL0     H21056   7.667   4.948   2.465  2.1193  0.6619 -1.3836
  160MOL0     H21057   7.549   4.603   2.330 -0.6789 -0.6853  0.0938
  160MOL0     H21058   7.563   4.784   2.313  1.9256  0.7792  2.7620
  160MOL0     H21059   7.310   4.781   2.346  0.6263  0.4259 -0.0347
  160MOL0     H21060   7.317   4.605   2.374 -1.4299  3.1265  2.7160
  160MOL0     H21061   7.407   4.595   2.116  0.7249  1.3639 -2.0982
  160MOL0     H21062   7.360   4.768   2.120 -2.4837 -0.0213 -1.2436
  160MOL0     H21063   7.166   4.550   2.196 -0.4021  2.5943  3.1670
  160MOL0     H21064   7.127   4.711   2.168 -0.9470 -2.0390  3.4134
  160MOL0     H21065   7.252   4.582   1.918 -2.9394  1.9118 -4.2738
  160MOL0     H21066   7.132   4.699   1.942 -0.5717  0.0861 -2.0637
  160MOL0     H21067   6.963   4.556   2.021 -0.3980  0.3407 -0.8216
  160MOL0     H21068   7.084   4.429   2.035  4.5206  2.0145  0.0856
  160MOL0     H21069   7.105   4.484   1.769  1.6101  0.9248  2.2853
  160MOL0     H21070   7.004   4.367   1.840  0.2830 -0.0384  2.9997
  160MOL0     H21071   6.899   4.565   1.668 -0.2088 -0.5784 -0.9583
  160MOL0     H21072   6.845   4.612   1.835  1.1565 -1.2860  1.8379
  160MOL0     H21073   6.790   4.348   1.569 -0.1430  0.8011  0.4479
  160MOL0     H21074   6.455   4.174   1.661  1.5111 -1.3151 -0.8407
  160MOL0     H21075   6.587   4.158   1.542  1.3809  0.4516  0.3288
  160MOL0     H21076   6.397   4.392   1.535  2.3398  0.8929  2.6669
  160MOL0     H21077   6.409   4.264   1.418  0.0397  0.1366  1.0156
  160MOL0     H21078   6.617   4.480   1.477 -0.4917  2.2076 -2.1235
  160MOL0     H21079   6.647   4.341   1.371 -0.5598 -0.7012 -0.5871
  160MOL0     H21080   6.501   4.402   1.223  1.3499 -3.1228  3.3896
  160MOL0     H21081   6.570   4.565   1.255 -3.0515  1.1447 -3.8478
  160MOL0     H21082   6.332   4.431   1.064 -0.1134  1.8511  0.3431
  160MOL0     H21083   6.118   4.324   1.004  0.4640 -2.2504  1.7339
  160MOL0     H21084   5.658   4.190   1.105 -1.1817 -1.2133 -0.4089
  160MOL0     H21085   5.434   4.197   0.968  0.2487  0.9311  2.4462
  160MOL0     H21086   5.353   4.468   0.882 -0.1230  2.5432 -2.3529
  160MOL0     H21087   5.263   4.313   0.885 -1.6101  0.7267 -0.9980
  160MOL0     H21088   5.218   4.547   0.696  0.5193 -0.1414  0.8253
  160MOL0     H21089   5.117   4.494   0.812  0.7570  0.8115 -1.2428
  160MOL0     H21090   5.170   4.339   0.556 -2.4174  0.7346 -1.8612
  160MOL0     H21091   5.023   4.425   0.612 -0.1286  1.0044 -1.9668
  160MOL0     H21092   5.118   4.159   0.734 -0.0206  0.3010  0.8134
  160MOL0     H21093   4.998   4.245   0.806  0.9388 -1.3810 -0.4643
  160MOL0     H21094   4.961   4.188   0.509 -1.7894 -1.8109 -1.0688
  160MOL0     H21095   4.849   4.257   0.625  0.6235  1.3183 -0.9456
  160MOL0     H21096   4.835   4.033   0.745 -1.6932  1.8850 -0.7924
  160MOL0     H21097   4.979   3.980   0.650  2.0543  2.8418 -0.1678
  160MOL0     H21098   4.710   4.062   0.512  0.7255 -0.2545 -0.6682
  160MOL0     H21099   4.854   3.991   0.442  0.5731 -1.7274 -0.0295
  160MOL0     H21100   4.694   3.855   0.658 -1.0101  2.0069 -1.1898
  160MOL0     H21101   4.841   3.794   0.565  0.0398  0.2437  4.4583
  160MOL0     H21102   5.633   4.376   0.656  3.3636 -1.4529 -0.4557
  160MOL0     H21103   5.854   4.370   0.777 -1.3163  0.4663 -2.2054
  160MOL0     H21104   5.938   4.461   1.371  0.9155  0.8047  0.4460
  160MOL0     H21105   6.153   4.564   1.439 -1.7980 -0.2732  0.8290
  160MOL0     H21106   7.684   4.539   2.615 -1.7361  1.0293 -0.8703
  160MOL0     H21107   7.919   4.571   2.674  0.8944 -1.0463  0.6283
  160MOL0     H21108   8.371   4.631   2.770 -0.7277 -0.7285 -1.2320
  160MOL0     H21109   8.588   4.745   2.870 -0.0899 -0.4703  0.7985
  160MOL0     H21110   8.760   4.892   2.884  2.0980 -3.8787  2.4069
  160MOL0     H21111   8.674   4.860   3.036  2.2722 -1.0799 -1.3915
  160MOL0     H21112   8.831   5.115   2.987  0.9960  1.3079  2.1395
  160MOL0     H21113   8.737   5.074   3.137  1.1567 -2.5302  1.8245
  160MOL0     H21114   8.847   4.860   3.146 -1.8054  0.3700 -0.4841
  160MOL0     H21115   8.935   4.995   3.206  3.6267 -0.1745 -1.3579
  160MOL0     H21116   9.004   4.828   2.962  2.8857 -1.7375  0.0672
  160MOL0     H21117   9.068   5.005   2.975  0.9328 -0.4479 -0.2605
  160MOL0     H21118   9.309   4.818   3.251 -1.0648  0.4855  0.7925
  160MOL0     H21119   8.381   5.130   2.839  2.3445  0.6450 -0.0866
  160MOL0     H21120   8.191   5.026   2.733  1.3644  0.6390 -2.5637
  161MOL0     O21121   0.405   0.206   7.815  0.1678 -0.4306 -0.6042
  161MOL0     C21122   0.429   0.269   7.711  0.2630  0.5591 -0.6550
  161MOL0     O21123   0.381   0.237   7.590  0.5453  0.2667  0.3397
  161MOL0     C21124   0.305   0.124   7.564  0.8405  0.0689  0.0196
  161MOL0     C21125   0.288   0.000   7.632  0.7733  0.0646  0.3002
  161MOL0     C21126   0.213  -0.106   7.575  0.2001 -0.9614 -0.4375
  161MOL0     C21127   0.153  -0.098   7.446 -0.3704  0.2224  0.4618
  161MOL0     O21128   0.079  -0.209   7.400  0.0436  0.1959 -0.3867
  161MOL0     C21129  -0.037  -0.162   7.328  0.3926 -0.2542  0.4802
  161MOL0     C21130  -0.140  -0.277   7.324 -0.3319 -0.3419 -0.6167
  161MOL0     C21131  -0.271  -0.218   7.272 -0.2389  0.3871  0.0791
  161MOL0     C21132  -0.374  -0.327   7.225 -0.7053 -0.5935  0.4166
  161MOL0     C21133  -0.498  -0.273   7.161  0.1912  0.3199 -0.5929
  161MOL0     C21134  -0.583  -0.384   7.103  0.7956 -0.1047 -0.7633
  161MOL0     C21135  -0.708  -0.335   7.042 -0.2817  0.4014  0.1236
  161MOL0     C21136  -0.682  -0.266   6.903 -0.0552 -0.6552 -0.5781
  161MOL0     N21137  -0.805  -0.202   6.854  0.4450 -0.0709 -0.2166
  161MOL0     C21138  -0.910  -0.147   6.932 -0.0863  1.0789  0.6682
  161MOL0     C21139  -0.990  -0.080   6.849  0.0266 -0.8501  0.2482
  161MOL0     C21140  -1.125  -0.019   6.881 -0.7745 -0.4586 -0.3869
  161MOL0     C21141  -1.239  -0.111   6.849  0.1988  0.3022 -0.8630
  161MOL0     C21142  -1.362  -0.073   6.933  0.1533 -0.6068  0.2255
  161MOL0     C21143  -1.470  -0.184   6.917 -0.3833 -0.2129  0.0058
  161MOL0     O21144  -1.586  -0.125   6.982  0.3826 -0.3652 -0.8235
  161MOL0     C21145  -1.689  -0.215   7.008 -0.2253 -0.0948  0.3385
  161MOL0     C21146  -1.702  -0.333   6.936  0.6252 -0.8049 -0.0980
  161MOL0     C21147  -1.808  -0.420   6.977 -0.7815 -0.6057 -0.2065
  161MOL0     C21148  -1.900  -0.381   7.086 -0.6015  0.6845 -0.3607
  161MOL0     C21149  -2.005  -0.475   7.132 -0.2281 -0.4004 -0.7942
  161MOL0     O21150  -1.983  -0.610   7.115  0.3320 -0.3463 -0.8848
  161MOL0     C21151  -2.061  -0.700   7.176  0.9367  0.4901 -0.3324
  161MOL0     C21152  -2.146  -0.780   7.103 -1.2476 -0.3764  0.1738
  161MOL0     C21153  -2.223  -0.879   7.172  0.0081 -0.0465  0.1328
  161MOL0     C21154  -2.227  -0.882   7.314  0.8868  0.6225  0.9677
  161MOL0     O21155  -2.316  -0.962   7.385 -0.3592 -0.8037 -0.5638
  161MOL0     C21156  -2.389  -1.070   7.325  0.6765 -0.2011 -0.6849
  161MOL0     C21157  -2.455  -1.157   7.427  0.2480 -0.1580 -0.5306
  161MOL0     C21158  -2.560  -1.073   7.510 -0.0321  0.0733  0.6703
  161MOL0     C21159  -2.662  -1.003   7.416  0.2800  0.2793 -0.1065
  161MOL0     C21160  -2.774  -0.923   7.490 -0.4326  0.8925  0.9484
  161MOL0     C21161  -2.726  -0.838   7.608  0.0332  0.5417 -0.3436
  161MOL0     C21162  -2.835  -0.736   7.649  0.7263  0.0022  0.5134
  161MOL0     C21163  -2.809  -0.647   7.762 -0.4802  0.0108 -0.1178
  161MOL0    Cl21164  -2.754  -0.734   7.911  0.6723  0.7182  0.2776
  161MOL0     C21165  -2.144  -0.803   7.384 -1.2745  0.1304 -0.8055
  161MOL0     C21166  -2.053  -0.714   7.322  0.6898  0.1727  0.4195
  161MOL0     O21167  -2.111  -0.437   7.173  0.5359 -0.4074 -0.3328
  161MOL0     C21168  -1.900  -0.247   7.115  0.0233 -0.2200  0.2073
  161MOL0     C21169  -1.793  -0.164   7.078 -0.3777  0.0176  0.5134
  161MOL0     N21170  -0.928  -0.079   6.724 -0.0003 -0.2063 -0.1965
  161MOL0     N21171  -0.829  -0.167   6.721 -0.0477 -0.8773 -0.2039
  161MOL0     C21172   0.177   0.019   7.373  0.6224  0.7590  0.1405
  161MOL0     C21173   0.257   0.125   7.431 -0.0847 -0.6244 -0.5543
  161MOL0     C21174   0.523   0.379   7.721 -0.9727 -0.2422  0.7559
  161MOL0     C21175   0.600   0.393   7.839  0.0255  0.2434 -0.2859
  161MOL0     C21176   0.702   0.491   7.851  1.5715 -0.4508  0.1580
  161MOL0     C21177   0.724   0.565   7.739 -0.4348  0.1882  0.5030
  161MOL0     O21178   0.825   0.654   7.751  0.4302  0.1147 -0.2991
  161MOL0     C21179   0.807   0.776   7.677  0.5417 -0.2102 -0.4224
  161MOL0     C21180   0.910   0.874   7.725 -1.0489 -0.1217  0.2948
  161MOL0     C21181   0.887   1.013   7.665  0.0842 -0.1185  0.0917
  161MOL0     C21182   0.963   1.134   7.726  0.5302  0.4630 -0.1490
  161MOL0     C21183   1.112   1.125   7.743 -0.5370 -0.2202  0.7479
  161MOL0     C21184   1.232   1.117   7.768 -0.4031 -0.6846 -0.0958
  161MOL0     C21185   0.645   0.553   7.624  1.1216 -0.0743  0.2183
  161MOL0     C21186   0.545   0.456   7.613  0.0085 -0.6431  0.1181
  161MOL0     H21187   0.332  -0.021   7.729 -0.3504  4.6428  2.0456
  161MOL0     H21188   0.214  -0.202   7.626 -1.7442 -0.4860  0.5609
  161MOL0     H21189  -0.010  -0.129   7.227  2.8527  0.0754  1.1839
  161MOL0     H21190  -0.077  -0.076   7.382  2.2264 -0.9541  3.1547
  161MOL0     H21191  -0.135  -0.320   7.424  1.3565 -2.6023 -1.5794
  161MOL0     H21192  -0.104  -0.360   7.262 -0.6203 -0.9695  0.0461
  161MOL0     H21193  -0.244  -0.147   7.193 -0.4061  0.5117  0.1321
  161MOL0     H21194  -0.309  -0.167   7.361 -0.6817  0.6671 -0.2639
  161MOL0     H21195  -0.323  -0.394   7.157  3.2473 -0.4464  2.9186
  161MOL0     H21196  -0.406  -0.385   7.313 -3.5663 -0.6480 -0.5447
  161MOL0     H21197  -0.469  -0.194   7.091 -1.1932  1.1713 -0.2424
  161MOL0     H21198  -0.566  -0.223   7.232 -2.1359 -0.5508 -2.0764
  161MOL0     H21199  -0.619  -0.451   7.181 -0.8178  0.2156 -1.2034
  161MOL0     H21200  -0.523  -0.434   7.026  2.4798  3.4309 -1.9858
  161MOL0     H21201  -0.785  -0.411   7.027  0.0191  0.0310  0.4311
  161MOL0     H21202  -0.752  -0.267   7.115  0.1979 -1.7779  2.5771
  161MOL0     H21203  -0.650  -0.335   6.825 -1.3326  0.2268 -1.9311
  161MOL0     H21204  -0.611  -0.183   6.907 -0.6535 -0.0901 -1.4138
  161MOL0     H21205  -0.924  -0.174   7.036 -2.2463 -2.0357 -0.2986
  161MOL0     H21206  -1.130   0.079   6.833 -2.1027  0.4315  1.4342
  161MOL0     H21207  -1.114  -0.007   6.989  0.7339  1.4373 -0.7125
  161MOL0     H21208  -1.207  -0.212   6.876 -0.1580  0.8626  2.0045
  161MOL0     H21209  -1.266  -0.114   6.743 -2.6015 -3.3302 -0.2406
  161MOL0     H21210  -1.330  -0.063   7.037 -0.1107  4.2147  0.0588
  161MOL0     H21211  -1.397   0.027   6.905 -1.1958 -1.3170 -0.7630
  161MOL0     H21212  -1.423  -0.276   6.952  2.2353  0.8685 -0.3749
  161MOL0     H21213  -1.481  -0.194   6.809  3.5813 -0.4727 -0.5323
  161MOL0     H21214  -1.641  -0.374   6.857  1.2329 -2.1587  1.0337
  161MOL0     H21215  -1.816  -0.518   6.931  1.9079 -0.0008 -2.1355
  161MOL0     H21216  -2.148  -0.775   6.995 -0.5763  0.7725  0.1941
  161MOL0     H21217  -2.299  -0.938   7.123  1.5343 -4.1349  2.2411
  161MOL0     H21218  -2.321  -1.141   7.275  0.4732 -1.2842  0.5339
  161MOL0     H21219  -2.462  -1.026   7.256 -0.9527  1.8578  2.1279
  161MOL0     H21220  -2.382  -1.212   7.488 -0.8417 -2.8080 -1.5039
  161MOL0     H21221  -2.513  -1.224   7.364  0.0028  0.1628 -0.6519
  161MOL0     H21222  -2.506  -0.994   7.563 -2.0573  2.6098 -0.7803
  161MOL0     H21223  -2.610  -1.137   7.583 -0.1632  2.6806  3.0197
  161MOL0     H21224  -2.618  -0.924   7.354 -1.2927  0.1421 -1.4611
  161MOL0     H21225  -2.696  -1.076   7.342  3.0315  2.0927 -3.4345
  161MOL0     H21226  -2.839  -1.006   7.521  1.4619 -2.1757 -2.5331
  161MOL0     H21227  -2.837  -0.861   7.425 -3.0973 -1.7212  0.8015
  161MOL0     H21228  -2.639  -0.777   7.581  1.0538 -0.4483  0.6352
  161MOL0     H21229  -2.701  -0.900   7.694  1.4594  0.5661 -0.7225
  161MOL0     H21230  -2.864  -0.674   7.564 -2.0314  0.2680  1.5459
  161MOL0     H21231  -2.924  -0.791   7.681  0.5765  0.5313  1.0222
  161MOL0     H21232  -2.904  -0.602   7.792 -0.4873  1.3746 -2.0156
  161MOL0     H21233  -2.738  -0.569   7.733 -1.4331 -0.0348 -2.7829
  161MOL0     H21234  -2.153  -0.798   7.492  0.0206  1.1802 -0.7383
  161MOL0     H21235  -1.978  -0.647   7.363  0.9846  0.7526 -1.0042
  161MOL0     H21236  -1.979  -0.197   7.171  1.6592  1.4422  1.1494
  161MOL0     H21237  -1.790  -0.060   7.109  0.4496  0.1566 -0.0109
  161MOL0     H21238   0.145   0.036   7.271 -0.5089 -1.0047  0.1638
  161MOL0     H21239   0.253   0.215   7.370 -4.2080 -0.4303 -0.2654
  161MOL0     H21240   0.604   0.323   7.922  0.4353  1.2721  0.5842
  161MOL0     H21241   0.762   0.523   7.936  2.3209  3.8713 -1.7473
  161MOL0     H21242   0.715   0.822   7.713  0.3852 -0.2874 -0.7236
  161MOL0     H21243   0.804   0.761   7.569 -4.7837 -2.9097 -0.2528
  161MOL0     H21244   0.897   0.882   7.834  2.3682 -1.0585  0.9195
  161MOL0     H21245   1.013   0.836   7.717 -1.5731 -2.0863  1.8651
  161MOL0     H21246   0.779   1.030   7.664 -0.2228 -1.8433  0.9268
  161MOL0     H21247   0.919   1.008   7.560  0.6427  1.6006  0.1462
  161MOL0     H21248   0.943   1.229   7.675  2.0708  0.9704  0.1693
  161MOL0     H21249   0.923   1.140   7.827  0.1698  1.7409 -0.3493
  161MOL0     H21250   1.335   1.101   7.791  0.8854  0.1880 -4.4621
  161MOL0     H21251   0.662   0.624   7.544 -0.2505 -0.4925 -0.4587
  161MOL0     H21252   0.476   0.450   7.529 -0.5726  0.5367  0.4949
  162MOL0     O21253   4.766   5.515   9.421 -0.1559 -0.2385  0.2689
  162MOL0     C21254   4.780   5.426   9.330  1.0309 -0.4999 -0.1088
  162MOL0     O21255   4.677   5.404   9.236 -0.0827  0.1687  0.9653
  162MOL0     C21256   4.552   5.457   9.245  0.6914 -0.3290  0.7602
  162MOL0     C21257   4.486   5.520   9.351  0.4430  0.0747  0.4707
  162MOL0     C21258   4.361   5.589   9.330 -0.3925 -0.2875 -1.0206
  162MOL0     C21259   4.297   5.571   9.204  0.3641 -0.0653  0.2923
  162MOL0     O21260   4.174   5.620   9.162 -0.1072  0.0666 -0.7867
  162MOL0     C21261   4.114   5.716   9.249  0.3608 -0.1524  0.5371
  162MOL0     C21262   3.969   5.756   9.206 -1.1102 -0.6405  0.0412
  162MOL0     C21263   3.882   5.647   9.151  0.2620  0.5772 -0.0281
  162MOL0     C21264   3.734   5.687   9.153  0.1444  0.4539 -0.0586
  162MOL0     C21265   3.634   5.577   9.151  0.2409 -0.4629 -0.3993
  162MOL0     C21266   3.491   5.637   9.128 -0.3181  0.1736 -0.0067
  162MOL0     C21267   3.385   5.536   9.117  0.0370  0.1689  0.0779
  162MOL0     C21268   3.396   5.434   9.237  0.3087  0.6537 -0.3058
  162MOL0     N21269   3.267   5.364   9.233  0.1309  0.2224 -0.3518
  162MOL0     C21270   3.228   5.282   9.127 -0.9073 -0.4641  0.1310
  162MOL0     C21271   3.093   5.248   9.162  0.5932 -0.8856  0.6658
  162MOL0     C21272   3.000   5.157   9.093 -0.1478  0.3652 -0.1853
  162MOL0     C21273   2.886   5.104   9.192 -0.5825  0.3590  0.3150
  162MOL0     C21274   2.764   5.194   9.189 -1.3053 -0.2077 -0.2086
  162MOL0     C21275   2.663   5.161   9.289  0.5589 -0.1080 -0.2157
  162MOL0     O21276   2.580   5.057   9.236  0.2103  0.2067 -0.2111
  162MOL0     C21277   2.467   5.088   9.168  0.1851  0.1326  0.1634
  162MOL0     C21278   2.395   5.205   9.188 -0.6040 -0.0985  0.1410
  162MOL0     C21279   2.272   5.217   9.124 -0.0462  0.2746 -0.2172
  162MOL0     C21280   2.205   5.111   9.062 -0.4316 -0.6260 -0.1421
  162MOL0     C21281   2.060   5.118   9.029  0.9970 -1.0172  0.2098
  162MOL0     O21282   2.011   5.009   8.952  0.8698  0.2906  0.0003
  162MOL0     C21283   1.885   5.021   8.894 -0.0965 -0.4424 -1.0899
  162MOL0     C21284   1.841   5.141   8.843  0.1750  0.4246 -0.3579
  162MOL0     C21285   1.707   5.153   8.815  0.1159  0.4180  0.2503
  162MOL0     C21286   1.616   5.057   8.847  0.8977 -0.1429 -0.8597
  162MOL0     O21287   1.485   5.062   8.801 -0.3761 -0.1487  0.4255
  162MOL0     C21288   1.419   5.175   8.743 -0.3878 -0.4448  1.5687
  162MOL0     C21289   1.283   5.136   8.687  0.1894  0.7256 -0.4548
  162MOL0     C21290   1.211   5.034   8.780 -0.7122  0.2298 -0.4617
  162MOL0     C21291   1.066   4.998   8.728 -0.7461 -0.8216 -0.1584
  162MOL0     C21292   0.966   4.967   8.847  0.5825  0.8617  0.0930
  162MOL0     C21293   0.827   4.929   8.802  0.1703  0.2752 -0.4241
  162MOL0     C21294   0.735   4.910   8.925  0.3508  0.5279  0.3694
  162MOL0     C21295   0.737   5.040   9.014  0.6586 -0.0218  0.6719
  162MOL0    Cl21296   0.578   5.086   9.064 -0.4248 -0.0210  0.1695
  162MOL0     C21297   1.656   4.943   8.915 -0.4015  0.7988  0.8925
  162MOL0     C21298   1.793   4.920   8.931  0.1670 -0.0951  0.0831
  162MOL0     O21299   1.998   5.220   9.066  0.2012 -0.3282 -0.0627
  162MOL0     C21300   2.275   4.991   9.049  0.0084  0.6876  0.5392
  162MOL0     C21301   2.404   4.982   9.093 -0.4431 -0.0522 -0.2155
  162MOL0     N21302   3.064   5.305   9.279 -0.6656  0.4442 -0.5528
  162MOL0     N21303   3.172   5.347   9.328  0.0982  0.5816  0.1877
  162MOL0     C21304   4.353   5.495   9.110 -0.4820 -0.5749  0.2314
  162MOL0     C21305   4.477   5.438   9.128 -0.4370 -0.2971  0.5043
  162MOL0     C21306   4.905   5.353   9.314 -0.0841  0.1631  0.2333
  162MOL0     C21307   5.018   5.399   9.386 -0.0258  0.7711 -0.5910
  162MOL0     C21308   5.145   5.337   9.380  0.7993 -0.1237  0.5068
  162MOL0     C21309   5.165   5.224   9.298 -0.0694  0.1093 -0.2244
  162MOL0     O21310   5.294   5.175   9.291 -0.1801  0.3723 -0.0526
  162MOL0     C21311   5.297   5.055   9.209  0.5167 -0.2426 -0.0703
  162MOL0     C21312   5.427   4.989   9.221 -0.2547  0.7928  0.6472
  162MOL0     C21313   5.544   5.045   9.128 -0.3458  0.4815 -0.2855
  162MOL0     C21314   5.598   5.177   9.189 -0.0120  0.8117  0.3033
  162MOL0     C21315   5.709   5.230   9.110  0.2013  0.1854  0.6570
  162MOL0     C21316   5.811   5.242   9.038 -0.0530 -0.2281 -0.0851
  162MOL0     C21317   5.051   5.172   9.223  0.2679 -0.1390  0.8435
  162MOL0     C21318   4.921   5.242   9.230 -0.1697  0.0250 -0.3339
  162MOL0     H21319   4.521   5.537   9.453 -2.2381  1.3083  1.2898
  162MOL0     H21320   4.313   5.649   9.406 -0.7978  2.1660 -3.0712
  162MOL0     H21321   4.182   5.799   9.269  1.1705 -0.1995 -1.7098
  162MOL0     H21322   4.092   5.679   9.350 -0.4035  3.3974  1.8195
  162MOL0     H21323   3.989   5.832   9.130  2.4725  0.1512  1.5219
  162MOL0     H21324   3.923   5.809   9.290  4.5810  2.3167  1.9014
  162MOL0     H21325   3.892   5.561   9.217 -0.0914 -0.5728 -1.4131
  162MOL0     H21326   3.904   5.611   9.050  1.0767  2.2072 -0.4682
  162MOL0     H21327   3.705   5.742   9.244  1.8078 -1.9549  2.0581
  162MOL0     H21328   3.711   5.757   9.072  2.2241 -0.2831 -1.3526
  162MOL0     H21329   3.639   5.523   9.246 -1.0035 -0.4497 -0.3043
  162MOL0     H21330   3.645   5.508   9.067 -0.7540  0.7145 -1.5349
  162MOL0     H21331   3.486   5.689   9.033  0.6390 -0.8219 -0.6173
  162MOL0     H21332   3.449   5.707   9.201 -2.4446 -0.7553 -0.2692
  162MOL0     H21333   3.287   5.584   9.123  1.1709  2.3991  2.4150
  162MOL0     H21334   3.398   5.479   9.025  3.1659 -0.5259  0.8334
  162MOL0     H21335   3.426   5.480   9.332  1.1768  1.5304 -0.9766
  162MOL0     H21336   3.444   5.339   9.214 -4.0334 -1.8346  0.0023
  162MOL0     H21337   3.283   5.248   9.040  0.9560  1.8084  0.3327
  162MOL0     H21338   3.046   5.066   9.053 -4.1392 -2.4959  1.0215
  162MOL0     H21339   2.954   5.204   9.005  2.2562  3.2653 -0.0336
  162MOL0     H21340   2.918   5.087   9.295 -0.1348 -2.9153 -0.2569
  162MOL0     H21341   2.864   5.007   9.149  2.9205 -0.8682  0.9473
  162MOL0     H21342   2.813   5.292   9.193  0.0812 -0.9037  1.7807
  162MOL0     H21343   2.714   5.190   9.092 -1.8691  1.6936 -0.0425
  162MOL0     H21344   2.612   5.251   9.325 -0.6993 -0.4987 -0.9495
  162MOL0     H21345   2.705   5.107   9.374  1.4951 -0.1268 -0.6850
  162MOL0     H21346   2.436   5.287   9.245 -0.5749 -0.6369  0.9199
  162MOL0     H21347   2.220   5.311   9.134 -0.4585  0.1582 -1.1523
  162MOL0     H21348   1.911   5.218   8.812  0.8966 -0.4735 -1.0523
  162MOL0     H21349   1.669   5.251   8.787 -0.6262 -0.1929 -0.9489
  162MOL0     H21350   1.478   5.221   8.663 -1.2323 -1.5266  0.2775
  162MOL0     H21351   1.399   5.248   8.822 -0.3721  0.5554  0.6702
  162MOL0     H21352   1.303   5.083   8.593 -1.6592  0.7874 -0.9387
  162MOL0     H21353   1.218   5.218   8.656 -0.2377 -0.3993 -2.8181
  162MOL0     H21354   1.209   5.069   8.884 -0.2760 -0.2536 -0.2856
  162MOL0     H21355   1.259   4.936   8.786 -4.4871 -2.0679 -2.8570
  162MOL0     H21356   1.028   5.071   8.656  1.7319 -0.9911 -1.7717
  162MOL0     H21357   1.080   4.908   8.669 -0.7637 -1.0673  0.2055
  162MOL0     H21358   0.973   5.058   8.908 -1.1608  2.1262 -1.4569
  162MOL0     H21359   1.011   4.893   8.913  3.4843  2.9875  0.6916
  162MOL0     H21360   0.828   4.838   8.742  0.1521  0.7330 -1.1262
  162MOL0     H21361   0.782   4.999   8.731 -3.2010 -1.5043 -0.2374
  162MOL0     H21362   0.639   4.885   8.880  0.7274  0.2642 -0.2946
  162MOL0     H21363   0.770   4.832   8.993  0.2062 -0.1277 -0.3042
  162MOL0     H21364   0.784   5.128   8.970  1.6163  0.4392  2.5152
  162MOL0     H21365   0.808   5.012   9.093  0.3997 -0.7895  0.6486
  162MOL0     H21366   1.575   4.873   8.937 -1.1171  1.1504 -0.4990
  162MOL0     H21367   1.841   4.832   8.973  1.6050  0.1097 -1.0364
  162MOL0     H21368   2.227   4.912   8.990  0.3167  1.3726 -0.6737
  162MOL0     H21369   2.462   4.890   9.087 -0.1488  0.0688  0.6424
  162MOL0     H21370   4.302   5.477   9.016 -3.3787 -3.7883  2.1522
  162MOL0     H21371   4.502   5.353   9.066 -0.7812 -1.0036  1.3223
  162MOL0     H21372   5.017   5.478   9.460 -0.1636 -0.0756  0.3365
  162MOL0     H21373   5.217   5.367   9.455  0.7096  0.7726  0.2385
  162MOL0     H21374   5.285   5.093   9.108 -1.8768 -1.4590 -0.3025
  162MOL0     H21375   5.215   4.991   9.242 -0.5218  1.9655  1.8820
  162MOL0     H21376   5.466   4.989   9.323  4.7969 -0.4403 -1.0251
  162MOL0     H21377   5.408   4.882   9.213  1.2332  0.5927 -0.7184
  162MOL0     H21378   5.498   5.081   9.035 -1.9306 -0.2146  0.2171
  162MOL0     H21379   5.629   4.977   9.121 -0.8765 -0.3310  0.9240
  162MOL0     H21380   5.514   5.243   9.212 -1.2082 -0.9069  1.0860
  162MOL0     H21381   5.639   5.136   9.282  1.3273  0.0764 -0.5742
  162MOL0     H21382   5.906   5.249   8.990  0.1029 -0.7287  0.1431
  162MOL0     H21383   5.045   5.083   9.161  3.2611 -2.3862  3.3985
  162MOL0     H21384   4.835   5.188   9.189  0.6344 -1.9988  0.5069
  163MOL0     O21385  10.853   8.244  10.769  1.2899 -0.0757  0.3309
  163MOL0     C21386  10.953   8.303  10.727  0.4214  0.2768  0.1657
  163MOL0     O21387  10.958   8.430  10.683 -0.1250 -0.2083  0.0524
  163MOL0     C21388  10.832   8.491  10.688 -0.7445  0.1492  0.2338
  163MOL0     C21389  10.750   8.472  10.578 -0.6731 -0.4391  0.3149
  163MOL0     C21390  10.624   8.513  10.566  0.5374 -0.1272 -0.3969
  163MOL0     C21391  10.564   8.581  10.677 -0.7945 -0.8506 -0.7004
  163MOL0     O21392  10.441   8.620  10.664 -0.6323  0.1162 -0.3204
  163MOL0     C21393  10.394   8.720  10.756 -0.1240  0.7525  0.4261
  163MOL0     C21394  10.244   8.698  10.789 -0.1609 -0.2220  0.0664
  163MOL0     C21395  10.142   8.804  10.741  0.5219 -0.3903  0.4910
  163MOL0     C21396   9.993   8.780  10.782 -0.7003 -1.4306 -0.0678
  163MOL0     C21397   9.964   8.824  10.924 -0.5000  0.6068  0.0991
  163MOL0     C21398   9.824   8.776  10.965  0.4937 -0.7011  0.6879
  163MOL0     C21399   9.778   8.856  11.093  0.9765  1.2865  0.2249
  163MOL0     C21400   9.641   8.817  11.133  0.2376 -0.6719 -0.1648
  163MOL0     N21401   9.536   8.844  11.030 -0.0459 -0.8242  0.2274
  163MOL0     C21402   9.431   8.775  10.995 -0.8835  0.8873 -0.3823
  163MOL0     C21403   9.364   8.840  10.898 -0.0165  0.0141 -0.0267
  163MOL0     C21404   9.238   8.804  10.833 -0.5854 -0.8895  0.3240
  163MOL0     C21405   9.241   8.659  10.807  0.2162 -0.2970  0.2076
  163MOL0     C21406   9.166   8.609  10.687  0.0124  0.6683  0.3157
  163MOL0     C21407   9.013   8.638  10.697  0.6331  0.7059 -0.2450
  163MOL0     O21408   8.961   8.597  10.832  0.0360  0.2818 -1.3156
  163MOL0     C21409   8.831   8.630  10.869 -0.5725  0.7934  0.3418
  163MOL0     C21410   8.768   8.745  10.819  0.4121  0.4436 -0.0962
  163MOL0     C21411   8.635   8.769  10.850 -0.5473  0.9197  0.2273
  163MOL0     C21412   8.565   8.695  10.939  0.6357 -0.8194 -0.2301
  163MOL0     C21413   8.419   8.712  10.963  0.2307 -0.0623  0.0829
  163MOL0     O21414   8.365   8.825  10.909 -0.1611  0.0477 -0.0623
  163MOL0     C21415   8.234   8.846  10.934  0.5076 -0.0314 -0.3404
  163MOL0     C21416   8.199   8.914  11.057  0.0728  0.2651  0.9692
  163MOL0     C21417   8.063   8.920  11.091 -0.2826  0.6948  0.7880
  163MOL0     C21418   7.955   8.875  11.003 -1.0081 -0.2667 -0.1445
  163MOL0     O21419   7.818   8.903  11.030  0.3879  0.3670 -0.0786
  163MOL0     C21420   7.782   9.003  11.123  0.8677  0.3686  0.1274
  163MOL0     C21421   7.634   9.045  11.109 -0.4465  0.9054  0.0761
  163MOL0     C21422   7.603   9.165  11.190  0.0231 -0.1025 -0.3899
  163MOL0     C21423   7.445   9.177  11.200  0.1190 -0.4881  0.0319
  163MOL0     C21424   7.407   9.310  11.255 -0.1199 -0.5711 -0.9723
  163MOL0     C21425   7.259   9.325  11.282 -0.5288  0.3431  0.3826
  163MOL0     C21426   7.208   9.222  11.391  0.4178 -0.1792 -0.7648
  163MOL0     C21427   7.057   9.235  11.411 -0.3037  0.2726  1.0644
  163MOL0    Cl21428   6.969   9.278  11.251  0.4916  0.3815  0.3849
  163MOL0     C21429   7.991   8.815  10.885 -0.2210 -0.1408 -0.4816
  163MOL0     C21430   8.129   8.804  10.853 -1.1876 -0.0386  0.5880
  163MOL0     O21431   8.358   8.632  11.035 -0.7719  0.2079 -0.3148
  163MOL0     C21432   8.633   8.594  11.005 -0.7172 -0.4089 -0.3908
  163MOL0     C21433   8.775   8.562  10.971  0.4761  0.1556 -0.1448
  163MOL0     N21434   9.442   8.952  10.859 -0.0943 -0.7042 -0.4350
  163MOL0     N21435   9.541   8.948  10.945 -0.6893  0.4386  0.9692
  163MOL0     C21436  10.653   8.604  10.792 -0.1856 -0.0245  0.0093
  163MOL0     C21437  10.785   8.548  10.804  0.6367 -0.6973 -0.4712
  163MOL0     C21438  11.073   8.216  10.723  0.4338 -0.1054  0.1158
  163MOL0     C21439  11.068   8.071  10.734 -0.0205  1.3616  0.5340
  163MOL0     C21440  11.188   7.994  10.718  0.2354  0.5909 -0.7057
  163MOL0     C21441  11.311   8.067  10.689  0.4836 -0.4238  0.5638
  163MOL0     O21442  11.437   8.015  10.659  0.0808 -0.6161  0.0856
  163MOL0     C21443  11.444   7.878  10.660 -0.0521  0.5995  0.8354
  163MOL0     C21444  11.462   7.826  10.802  0.3692  0.1831  0.1151
  163MOL0     C21445  11.447   7.677  10.813 -0.3833 -0.2950 -0.8730
  163MOL0     C21446  11.298   7.643  10.863  0.8867 -0.3073  0.3089
  163MOL0     C21447  11.179   7.636  10.773  0.1168  0.6611 -0.2015
  163MOL0     C21448  11.073   7.631  10.712  0.0846 -0.5051  0.0196
  163MOL0     C21449  11.313   8.204  10.678  1.1779 -0.8492  0.8744
  163MOL0     C21450  11.201   8.282  10.702  0.3562 -0.8085  0.1081
  163MOL0     H21451  10.786   8.428  10.486  2.5254 -0.0451  1.2518
  163MOL0     H21452  10.572   8.490  10.473  0.8842  0.5658 -0.7671
  163MOL0     H21453  10.408   8.821  10.716  1.5738  1.2127  2.0551
  163MOL0     H21454  10.446   8.722  10.852  1.8759 -1.8986 -0.4952
  163MOL0     H21455  10.236   8.710  10.897 -1.7771  0.3960 -0.0983
  163MOL0     H21456  10.201   8.606  10.746 -0.6453 -1.0272  2.1224
  163MOL0     H21457  10.137   8.799  10.632 -3.0024  0.2401  0.4859
  163MOL0     H21458  10.188   8.898  10.772  0.3229 -0.2141  0.2515
  163MOL0     H21459   9.929   8.839  10.716 -2.4009 -3.7258 -0.5652
  163MOL0     H21460   9.962   8.681  10.748  0.9043 -1.4954 -1.4900
  163MOL0     H21461   9.982   8.932  10.924  0.0631  0.5290 -1.3754
  163MOL0     H21462  10.033   8.797  11.004 -0.7290 -1.0832 -0.2350
  163MOL0     H21463   9.834   8.670  10.990 -1.2303 -1.1681 -0.4133
  163MOL0     H21464   9.759   8.796  10.880 -0.4786 -0.1212  1.5372
  163MOL0     H21465   9.837   8.822  11.178 -0.9886 -3.5494 -0.0146
  163MOL0     H21466   9.802   8.961  11.075  2.8279  0.5905 -1.9068
  163MOL0     H21467   9.617   8.873  11.224 -0.7658 -1.3655  0.0140
  163MOL0     H21468   9.644   8.709  11.153 -0.8878 -0.6739  0.0631
  163MOL0     H21469   9.402   8.682  11.043 -0.3345 -0.1929 -2.0529
  163MOL0     H21470   9.246   8.853  10.736  0.8357 -1.4460  0.1394
  163MOL0     H21471   9.147   8.830  10.888  0.3733  0.9108  1.1585
  163MOL0     H21472   9.205   8.608  10.897  2.5396  0.1210  1.4768
  163MOL0     H21473   9.342   8.621  10.786  0.0705 -0.2280 -0.6413
  163MOL0     H21474   9.209   8.636  10.590 -1.1320 -5.5478 -2.3810
  163MOL0     H21475   9.187   8.502  10.688  0.1886  0.6655 -1.1764
  163MOL0     H21476   8.958   8.584  10.619 -1.5896  0.2587  1.5273
  163MOL0     H21477   9.004   8.745  10.675 -0.0219  0.9354  1.0321
  163MOL0     H21478   8.821   8.809  10.749 -0.1767  0.9606 -0.0757
  163MOL0     H21479   8.593   8.841  10.780 -2.2853 -1.1857 -1.0123
  163MOL0     H21480   8.286   8.956  11.108  2.2817  0.0330 -2.2956
  163MOL0     H21481   8.031   8.979  11.177 -0.7293  1.7271 -0.0664
  163MOL0     H21482   7.840   9.095  11.110 -0.8458  1.7684  1.6941
  163MOL0     H21483   7.805   8.960  11.221  1.2362 -0.9559 -0.5215
  163MOL0     H21484   7.562   8.965  11.132  0.8717  0.1322  1.7431
  163MOL0     H21485   7.619   9.075  11.005  1.3280  1.7624  0.0421
  163MOL0     H21486   7.656   9.252  11.148 -2.9133  2.1276  0.2131
  163MOL0     H21487   7.652   9.153  11.287 -0.1692 -1.6715 -0.4603
  163MOL0     H21488   7.405   9.174  11.098 -1.4889  0.4854  0.5983
  163MOL0     H21489   7.401   9.095  11.257 -0.5833  0.5029  0.9530
  163MOL0     H21490   7.444   9.387  11.186 -0.2952  1.0004  0.6209
  163MOL0     H21491   7.460   9.329  11.349 -0.8462  1.8736 -0.9780
  163MOL0     H21492   7.212   9.305  11.186 -1.0566  2.5595  0.1188
  163MOL0     H21493   7.229   9.424  11.320 -2.2976  0.3670 -0.9533
  163MOL0     H21494   7.214   9.122  11.346 -1.1604 -1.7605  2.2249
  163MOL0     H21495   7.256   9.222  11.489  0.7959 -0.7941 -0.9449
  163MOL0     H21496   7.027   9.310  11.485  3.6702  0.1282  3.0713
  163MOL0     H21497   7.037   9.135  11.449 -1.1635 -0.5060 -1.2262
  163MOL0     H21498   7.913   8.772  10.823  2.0817 -2.5370 -1.9441
  163MOL0     H21499   8.163   8.746  10.769 -0.7697  0.9382  0.0644
  163MOL0     H21500   8.588   8.522  11.073 -0.5040 -2.3006 -2.1499
  163MOL0     H21501   8.826   8.482  11.024 -0.8436  0.4691  1.7166
  163MOL0     H21502  10.628   8.658  10.883 -0.9351 -2.5941  1.4113
  163MOL0     H21503  10.855   8.558  10.886  0.6335  2.6659 -0.7283
  163MOL0     H21504  10.974   8.019  10.752 -1.9484  4.0228 -1.2176
  163MOL0     H21505  11.181   7.886  10.723  2.3209  0.4087 -1.0393
  163MOL0     H21506  11.525   7.854  10.591 -0.3767  2.5930 -0.3014
  163MOL0     H21507  11.354   7.840  10.612 -0.4197  3.5414 -1.0542
  163MOL0     H21508  11.562   7.849  10.840 -0.6136  1.5520  1.9915
  163MOL0     H21509  11.391   7.873  10.870 -1.0493  0.7325 -1.6751
  163MOL0     H21510  11.511   7.637  10.892 -3.2343 -3.6976 -0.0161
  163MOL0     H21511  11.463   7.634  10.714 -0.6828  1.8308 -1.9019
  163MOL0     H21512  11.301   7.539  10.900  0.8368  0.7113  3.4990
  163MOL0     H21513  11.259   7.701  10.947 -1.6378 -0.2272 -0.8405
  163MOL0     H21514  10.988   7.638  10.648  1.5832 -1.9567 -2.2901
  163MOL0     H21515  11.408   8.250  10.651  0.2756  1.4535  1.3738
  163MOL0     H21516  11.212   8.390  10.694  0.4631 -0.7204  1.2618
  164MOL0     O21517  10.802   8.146   0.681 -0.1392 -0.1180 -0.0474
  164MOL0     C21518  10.830   8.032   0.665  0.3094  0.2033  0.1436
  164MOL0     O21519  10.743   7.934   0.621 -0.0635  1.7985  0.1794
  164MOL0     C21520  10.616   7.970   0.596  0.1027 -0.2856 -0.9540
  164MOL0     C21521  10.580   8.076   0.517 -0.1655 -0.1249 -0.2450
  164MOL0     C21522  10.447   8.117   0.502 -0.6986 -0.2097  0.1192
  164MOL0     C21523  10.345   8.045   0.566  0.4629  0.0731  0.8712
  164MOL0     O21524  10.213   8.054   0.529  0.1563 -0.6135 -0.0649
  164MOL0     C21525  10.156   8.185   0.528 -0.8165  0.2864 -1.0357
  164MOL0     C21526  10.004   8.171   0.509  0.2559  0.5539 -0.0175
  164MOL0     C21527   9.944   8.310   0.543 -0.0978  0.9129  0.2105
  164MOL0     C21528   9.791   8.310   0.528 -0.2483  0.2353 -0.1663
  164MOL0     C21529   9.732   8.449   0.546 -0.5625 -0.0644  0.3660
  164MOL0     C21530   9.583   8.438   0.554 -0.0589  0.0837 -0.0762
  164MOL0     C21531   9.529   8.367   0.676  1.5833  0.2315  0.4857
  164MOL0     C21532   9.390   8.422   0.721 -0.8478  1.0019  0.6943
  164MOL0     N21533   9.279   8.406   0.622 -0.4104  0.5713 -0.1828
  164MOL0     C21534   9.229   8.291   0.576 -0.8286  1.0838  0.8958
  164MOL0     C21535   9.115   8.316   0.511  0.8285  0.5583 -0.4601
  164MOL0     C21536   9.021   8.213   0.455  0.1736  0.6054  0.0206
  164MOL0     C21537   8.949   8.135   0.566 -0.3888  0.8850  0.6349
  164MOL0     C21538   8.866   8.218   0.665 -0.2091  0.3268  0.2673
  164MOL0     C21539   8.745   8.293   0.597 -0.0083 -1.1068 -0.1269
  164MOL0     O21540   8.666   8.191   0.534  0.0195 -0.1303 -0.6356
  164MOL0     C21541   8.534   8.208   0.506 -0.6855 -0.1412  0.0104
  164MOL0     C21542   8.470   8.099   0.452  0.6946  0.3019 -0.1429
  164MOL0     C21543   8.329   8.099   0.427 -0.0087 -0.2751 -0.2019
  164MOL0     C21544   8.246   8.206   0.472 -0.1710 -0.0402 -0.5690
  164MOL0     C21545   8.091   8.202   0.446  0.2657  0.3852 -0.2332
  164MOL0     O21546   8.003   8.282   0.513 -0.2890 -0.5459  0.4686
  164MOL0     C21547   7.867   8.264   0.479 -0.6652  0.1128  1.2755
  164MOL0     C21548   7.775   8.244   0.579 -0.3146 -0.2138 -0.7460
  164MOL0     C21549   7.642   8.209   0.548  0.4173 -0.8146  0.5507
  164MOL0     C21550   7.595   8.201   0.416 -0.3638 -1.1206 -0.4105
  164MOL0     O21551   7.464   8.186   0.388 -0.4499 -0.0344  0.2407
  164MOL0     C21552   7.434   8.084   0.294 -0.8427  0.6650  0.2936
  164MOL0     C21553   7.317   7.998   0.355 -1.0353  0.2779  0.4947
  164MOL0     C21554   7.235   7.933   0.252 -0.1345  0.2276 -0.4753
  164MOL0     C21555   7.118   7.852   0.322  0.3686 -0.7199  0.7040
  164MOL0     C21556   7.050   7.763   0.213 -0.3729 -0.4109 -0.7674
  164MOL0     C21557   6.928   7.695   0.270  0.4196 -0.1617  0.4092
  164MOL0     C21558   6.873   7.592   0.177  0.0532 -0.8588 -0.0598
  164MOL0     C21559   6.772   7.498   0.235 -0.9508  0.1275 -0.4754
  164MOL0    Cl21560   6.629   7.558   0.328 -0.7240 -0.0545 -0.3912
  164MOL0     C21561   7.683   8.241   0.315 -0.3125 -0.8291 -0.9485
  164MOL0     C21562   7.816   8.266   0.349  0.2832 -0.9779  0.4032
  164MOL0     O21563   8.057   8.104   0.373 -0.3590 -0.4700 -0.2560
  164MOL0     C21564   8.313   8.318   0.520  0.6769 -0.7715 -1.0544
  164MOL0     C21565   8.451   8.315   0.546 -0.5999  0.4604 -0.4402
  164MOL0     N21566   9.097   8.452   0.505 -0.0314  0.4656 -0.6310
  164MOL0     N21567   9.194   8.497   0.580  0.0632  0.3807  0.3483
  164MOL0     C21568  10.378   7.937   0.650 -0.0861  0.2116  0.4725
  164MOL0     C21569  10.511   7.897   0.662 -0.3315 -0.4533 -0.2665
  164MOL0     C21570  10.953   7.978   0.708  0.2202 -1.0397 -0.0850
  164MOL0     C21571  11.050   8.065   0.757 -0.4430  0.4147 -0.6634
  164MOL0     C21572  11.172   8.002   0.798 -0.5592 -0.2537  0.6880
  164MOL0     C21573  11.197   7.864   0.797  0.0591 -0.2956 -0.6190
  164MOL0     O21574  11.303   7.807   0.865 -0.7573 -0.3684  0.2346
  164MOL0     C21575  11.350   7.673   0.842  0.3723 -0.6117 -0.5568
  164MOL0     C21576  11.500   7.667   0.875  0.5356  0.0056 -0.5465
  164MOL0     C21577  11.592   7.726   0.769 -0.7803 -0.6202  0.3898
  164MOL0     C21578  11.742   7.715   0.805 -0.2085  0.4259 -0.2602
  164MOL0     C21579  11.817   7.811   0.731 -0.6647 -0.0762  0.6866
  164MOL0     C21580  11.896   7.867   0.660 -0.3243  0.3167 -0.0969
  164MOL0     C21581  11.099   7.783   0.763  0.6579  0.2796 -0.1949
  164MOL0     C21582  10.985   7.836   0.711  0.2012 -0.2900  0.0176
  164MOL0     H21583  10.653   8.119   0.450 -0.9533 -2.2695 -2.6615
  164MOL0     H21584  10.428   8.201   0.437  0.1052  0.4474  0.7212
  164MOL0     H21585  10.192   8.246   0.444 -1.9407 -1.3103 -2.7424
  164MOL0     H21586  10.169   8.239   0.623 -2.9054  1.1477 -1.1783
  164MOL0     H21587   9.960   8.090   0.569 -0.3079 -0.4931 -1.7464
  164MOL0     H21588   9.985   8.140   0.405  1.3085  0.7215 -0.2682
  164MOL0     H21589   9.983   8.388   0.477  0.5338  1.6705  1.4345
  164MOL0     H21590   9.967   8.338   0.647  1.5728  2.4230 -0.5106
  164MOL0     H21591   9.767   8.268   0.430 -0.8007 -1.9598  0.8550
  164MOL0     H21592   9.744   8.234   0.591  1.7099  0.9831  2.3474
  164MOL0     H21593   9.781   8.511   0.471  0.3970  0.7234  1.6107
  164MOL0     H21594   9.768   8.490   0.641 -0.8851 -0.5405  0.7027
  164MOL0     H21595   9.550   8.388   0.463 -2.9655  1.7516 -0.0694
  164MOL0     H21596   9.547   8.541   0.552 -0.0652  0.0750 -0.5070
  164MOL0     H21597   9.527   8.259   0.660 -1.4035  0.0931  1.2049
  164MOL0     H21598   9.585   8.389   0.767  2.4716 -0.1351  0.0380
  164MOL0     H21599   9.381   8.524   0.759 -2.6868  0.4324  1.9397
  164MOL0     H21600   9.363   8.355   0.803  0.9579  2.4378  2.5505
  164MOL0     H21601   9.283   8.202   0.608 -0.2838  0.4401 -1.6023
  164MOL0     H21602   9.080   8.136   0.405  0.5409  0.1582  1.1218
  164MOL0     H21603   8.949   8.266   0.391 -0.1383  1.4151  1.0165
  164MOL0     H21604   9.027   8.093   0.631  0.1096 -3.4732 -2.3324
  164MOL0     H21605   8.881   8.061   0.524  0.7773  1.2320 -2.1572
  164MOL0     H21606   8.819   8.144   0.730 -1.7408  0.7558 -0.3011
  164MOL0     H21607   8.924   8.290   0.724  3.0456 -2.0857  0.2871
  164MOL0     H21608   8.777   8.373   0.530 -0.8658 -0.8982 -0.3000
  164MOL0     H21609   8.682   8.338   0.674  3.2098  2.2446  0.8464
  164MOL0     H21610   8.530   8.025   0.401  1.4090  0.8661 -0.1319
  164MOL0     H21611   8.301   8.013   0.367 -0.2992  0.8277 -1.7372
  164MOL0     H21612   7.797   8.252   0.685 -1.7959 -2.3050 -0.2177
  164MOL0     H21613   7.574   8.188   0.630 -0.3963  0.3867  0.2132
  164MOL0     H21614   7.511   8.009   0.272 -1.0595 -0.1621  2.1380
  164MOL0     H21615   7.400   8.132   0.203  1.0680  0.4623 -0.5888
  164MOL0     H21616   7.249   8.064   0.410 -0.5575  2.4148 -1.3615
  164MOL0     H21617   7.362   7.920   0.418 -0.3081 -1.0938 -1.6338
  164MOL0     H21618   7.296   7.863   0.194  0.0531 -1.8909  2.0802
  164MOL0     H21619   7.195   8.008   0.183 -1.0905  0.1354 -0.0318
  164MOL0     H21620   7.167   7.798   0.403  0.5061  1.4802  2.1988
  164MOL0     H21621   7.053   7.932   0.361 -0.2828 -0.6453 -0.4920
  164MOL0     H21622   7.123   7.702   0.159 -0.3064 -0.8885 -0.1556
  164MOL0     H21623   7.016   7.829   0.133  0.5956 -1.4830 -2.1087
  164MOL0     H21624   6.857   7.773   0.298  2.5201  2.1026 -0.2875
  164MOL0     H21625   6.960   7.650   0.365  1.7350 -1.6646 -0.6881
  164MOL0     H21626   6.827   7.651   0.096  2.3101  1.4798  0.2260
  164MOL0     H21627   6.948   7.529   0.129  1.0082 -0.6276  1.0904
  164MOL0     H21628   6.818   7.428   0.305  0.2675  0.2405 -1.1374
  164MOL0     H21629   6.732   7.441   0.151 -0.0914  0.1307 -0.8958
  164MOL0     H21630   7.650   8.249   0.213 -0.5207 -0.0023 -0.8210
  164MOL0     H21631   7.878   8.286   0.262  0.3146 -2.4115  0.0850
  164MOL0     H21632   8.270   8.417   0.537  0.5328 -0.3447 -3.5526
  164MOL0     H21633   8.490   8.397   0.605 -0.1294 -1.4712  2.0854
  164MOL0     H21634  10.306   7.868   0.693 -0.9503  0.6432 -0.2555
  164MOL0     H21635  10.539   7.809   0.718  1.7785  0.0788 -0.3768
  164MOL0     H21636  11.032   8.172   0.769 -1.9504  0.2850 -1.5657
  164MOL0     H21637  11.245   8.081   0.815 -0.1255 -0.2739 -0.9716
  164MOL0     H21638  11.326   7.645   0.739  1.3527  0.9417 -1.2354
  164MOL0     H21639  11.294   7.605   0.907  0.1104 -0.8668 -1.0421
  164MOL0     H21640  11.508   7.730   0.964 -2.7378 -1.8948  1.2717
  164MOL0     H21641  11.527   7.564   0.900 -0.1186  0.0119  0.2212
  164MOL0     H21642  11.564   7.830   0.750  5.9340  1.7695  0.8396
  164MOL0     H21643  11.576   7.668   0.678 -2.4067 -0.6848  0.6871
  164MOL0     H21644  11.757   7.725   0.913 -1.2527 -5.3930  0.7750
  164MOL0     H21645  11.784   7.616   0.782  0.8133  1.2316 -2.0146
  164MOL0     H21646  11.964   7.907   0.588 -1.0233 -0.2521 -1.0930
  164MOL0     H21647  11.110   7.677   0.785 -0.0798  0.3502  0.5664
  164MOL0     H21648  10.899   7.771   0.702 -1.6730  1.0231  4.9029
  165MOL0     O21649   7.791   4.479  10.326 -0.7920  0.0796 -0.1685
  165MOL0     C21650   7.748   4.439  10.216  0.5151  0.0763  0.0305
  165MOL0     O21651   7.818   4.426  10.097 -0.1621 -0.1284  0.3630
  165MOL0     C21652   7.944   4.475  10.114  0.7851 -0.7379  0.4641
  165MOL0     C21653   8.056   4.392  10.127 -0.0973  0.7406  0.5511
  165MOL0     C21654   8.193   4.438  10.124  0.1532  0.5156  0.4599
  165MOL0     C21655   8.208   4.575  10.101 -0.3444 -0.2777  0.2074
  165MOL0     O21656   8.338   4.616  10.097 -0.0956 -0.7826 -0.1672
  165MOL0     C21657   8.362   4.753  10.120  0.3282  0.0416  0.3664
  165MOL0     C21658   8.504   4.780  10.126 -0.2028  0.6456  0.3593
  165MOL0     C21659   8.530   4.921  10.163  0.2386  0.1120  0.1274
  165MOL0     C21660   8.648   4.978  10.096 -0.8293 -0.1021  0.2233
  165MOL0     C21661   8.656   5.133  10.126 -0.3957  0.7423 -0.2862
  165MOL0     C21662   8.801   5.194  10.113  0.2082 -0.1762  0.1414
  165MOL0     C21663   8.788   5.347  10.104 -0.8371 -0.3632  0.3198
  165MOL0     C21664   8.925   5.399  10.083  0.8490  0.2743  0.0399
  165MOL0     N21665   8.953   5.384   9.936 -0.1834  0.0907  0.1882
  165MOL0     C21666   8.896   5.448   9.828  0.1861  0.2311  0.5933
  165MOL0     C21667   8.963   5.404   9.723 -0.4393 -0.7697 -0.0220
  165MOL0     C21668   8.947   5.432   9.575 -0.5478  0.7013 -0.3417
  165MOL0     C21669   8.826   5.355   9.525 -0.0529 -0.3862 -0.3940
  165MOL0     C21670   8.817   5.361   9.367  0.0012 -0.4204 -0.5267
  165MOL0     C21671   8.692   5.307   9.316  0.2008 -0.3575 -0.1609
  165MOL0     O21672   8.705   5.205   9.219 -0.5276  0.5034  0.1192
  165MOL0     C21673   8.587   5.149   9.186 -0.1074  0.3899  0.2937
  165MOL0     C21674   8.568   5.023   9.236 -0.6033 -0.5373 -0.8885
  165MOL0     C21675   8.455   4.951   9.205  0.8596  0.4315 -0.1559
  165MOL0     C21676   8.342   4.998   9.126 -0.7864  0.2884  1.0567
  165MOL0     C21677   8.216   4.922   9.099 -0.1340  0.1829  0.8485
  165MOL0     O21678   8.196   4.808   9.160  0.3451 -0.0296  0.3554
  165MOL0     C21679   8.086   4.728   9.141  1.0118  0.4232  0.0438
  165MOL0     C21680   8.091   4.595   9.137 -0.5278 -0.4863 -0.0959
  165MOL0     C21681   7.981   4.511   9.121  0.6359 -0.1911 -0.3686
  165MOL0     C21682   7.855   4.570   9.095  0.5504 -0.0101 -0.0275
  165MOL0     O21683   7.741   4.505   9.050  0.0461  0.2177 -0.1454
  165MOL0     C21684   7.719   4.370   9.103  0.0404 -0.2679 -0.2270
  165MOL0     C21685   7.582   4.331   9.057  0.1994 -0.0615 -0.5643
  165MOL0     C21686   7.464   4.424   9.105 -0.3111 -0.4416 -0.6144
  165MOL0     C21687   7.332   4.384   9.036 -0.8453  0.1303 -0.2117
  165MOL0     C21688   7.220   4.474   9.076  0.5680  0.9026 -0.5550
  165MOL0     C21689   7.087   4.395   9.056  0.2145 -0.2589  0.0251
  165MOL0     C21690   7.047   4.360   8.904 -0.7020 -0.4531 -0.6532
  165MOL0     C21691   6.993   4.477   8.829  0.2065  0.2310  0.1069
  165MOL0    Cl21692   6.829   4.510   8.902  0.0407 -0.3828 -0.0685
  165MOL0     C21693   7.850   4.712   9.086  0.3641 -0.7201  0.6871
  165MOL0     C21694   7.966   4.787   9.117  0.1461  0.6093 -0.1256
  165MOL0     O21695   8.161   4.958   8.996  1.0029 -0.0456  0.2757
  165MOL0     C21696   8.370   5.124   9.074  1.4298  0.0848 -0.8118
  165MOL0     C21697   8.483   5.207   9.109  1.1381 -1.5575 -0.0681
  165MOL0     N21698   9.064   5.321   9.762  0.2746 -0.3615  0.8722
  165MOL0     N21699   9.055   5.300   9.892  0.1688 -0.4961 -0.6402
  165MOL0     C21700   8.100   4.664  10.084  0.7592 -0.2340  0.3845
  165MOL0     C21701   7.968   4.614  10.101  0.6603  0.6135  0.3170
  165MOL0     C21702   7.602   4.406  10.220 -0.9782  0.5386  0.7457
  165MOL0     C21703   7.512   4.443  10.322 -0.2556 -0.2767 -0.4372
  165MOL0     C21704   7.380   4.411  10.311 -0.5618 -0.0298  1.1908
  165MOL0     C21705   7.323   4.341  10.203 -0.0704  0.0741 -0.2586
  165MOL0     O21706   7.191   4.312  10.189 -0.3710  0.3542 -0.0524
  165MOL0     C21707   7.083   4.364  10.276 -0.0705  0.5370  0.3260
  165MOL0     C21708   6.958   4.271  10.253  0.2445  0.2985 -1.0161
  165MOL0     C21709   6.873   4.330  10.137 -0.0454  0.2451 -0.0612
  165MOL0     C21710   6.742   4.260  10.109  0.4958 -0.7383  0.8004
  165MOL0     C21711   6.645   4.310  10.212 -0.1194 -0.4938  0.5854
  165MOL0     C21712   6.560   4.350  10.286  1.1829 -0.1330 -0.3081
  165MOL0     C21713   7.408   4.308  10.095 -0.2742 -0.1223 -0.8048
  165MOL0     C21714   7.544   4.336  10.109 -0.3733 -0.0575 -0.4828
  165MOL0     H21715   8.034   4.287  10.147  2.6406 -0.0251 -0.0271
  165MOL0     H21716   8.281   4.379  10.149  0.4463  1.1036  0.8502
  165MOL0     H21717   8.306   4.781  10.210  1.7386  0.2814  1.1927
  165MOL0     H21718   8.329   4.807  10.030  1.5530 -2.6457 -1.8128
  165MOL0     H21719   8.540   4.758  10.025  2.7849 -1.2708  1.7130
  165MOL0     H21720   8.564   4.726  10.200  0.2347  0.3043 -0.2343
  165MOL0     H21721   8.540   4.923  10.272 -4.2436 -2.1074  0.8097
  165MOL0     H21722   8.443   4.985  10.147  1.4314  1.8602  0.3515
  165MOL0     H21723   8.740   4.931  10.130 -0.7850  1.6287  2.7697
  165MOL0     H21724   8.646   4.953   9.989 -0.1135  0.4447  0.0681
  165MOL0     H21725   8.620   5.156  10.226  2.5470  0.9708  0.8256
  165MOL0     H21726   8.591   5.182  10.052 -0.3413  0.9383 -0.2046
  165MOL0     H21727   8.841   5.154  10.019 -0.2504 -0.4215  0.0485
  165MOL0     H21728   8.871   5.167  10.192  1.0929  2.1015  0.2100
  165MOL0     H21729   8.715   5.387  10.033 -1.6528 -0.2005  1.2369
  165MOL0     H21730   8.746   5.389  10.196 -3.2343 -1.5960 -0.1365
  165MOL0     H21731   8.987   5.337  10.149 -3.0903 -0.4290  3.5706
  165MOL0     H21732   8.929   5.499  10.128 -0.7553  0.5610 -0.3823
  165MOL0     H21733   8.814   5.520   9.828 -1.4854 -1.5698 -0.6652
  165MOL0     H21734   9.029   5.412   9.506 -0.3294  1.3858 -0.2957
  165MOL0     H21735   8.922   5.539   9.582 -1.8753  0.4049 -0.4423
  165MOL0     H21736   8.734   5.379   9.580  0.0613 -0.4157 -0.1908
  165MOL0     H21737   8.832   5.250   9.553 -0.3245  0.1350  1.8100
  165MOL0     H21738   8.808   5.469   9.352 -2.6787 -0.7815 -2.0642
  165MOL0     H21739   8.902   5.307   9.323  0.1274 -0.6800  0.0231
  165MOL0     H21740   8.632   5.388   9.274 -0.8771 -1.4635 -0.8082
  165MOL0     H21741   8.637   5.269   9.402  1.0230 -1.3046 -0.0381
  165MOL0     H21742   8.649   4.987   9.299  0.4256  1.1823 -1.1891
  165MOL0     H21743   8.443   4.851   9.246  1.1957 -0.4772 -2.1517
  165MOL0     H21744   8.190   4.553   9.153 -0.3609 -0.0270  0.0965
  165MOL0     H21745   8.003   4.405   9.117  4.2654  0.4694 -2.4409
  165MOL0     H21746   7.722   4.356   9.212 -2.6387 -0.0275 -0.0529
  165MOL0     H21747   7.786   4.303   9.048  2.2620  2.0906 -0.5866
  165MOL0     H21748   7.573   4.227   9.088 -0.4028  0.3227  0.6243
  165MOL0     H21749   7.578   4.323   8.948 -1.1625  0.1986 -0.5465
  165MOL0     H21750   7.495   4.528   9.094  1.6168 -0.5873  2.2835
  165MOL0     H21751   7.450   4.407   9.212 -1.2938  1.7261 -0.3538
  165MOL0     H21752   7.337   4.399   8.928 -0.7736 -0.2662 -0.2648
  165MOL0     H21753   7.310   4.279   9.059 -1.0150  0.6220  2.0494
  165MOL0     H21754   7.214   4.565   9.015 -0.5694  0.0003 -1.8541
  165MOL0     H21755   7.216   4.500   9.182 -1.0550 -1.3529  0.0278
  165MOL0     H21756   7.014   4.472   9.082 -1.2473 -1.5543 -0.1309
  165MOL0     H21757   7.079   4.309   9.122  2.8568  0.4517  1.4414
  165MOL0     H21758   7.138   4.328   8.853 -0.1721  0.5012 -0.3408
  165MOL0     H21759   6.983   4.272   8.904 -1.0739 -0.1898 -0.9972
  165MOL0     H21760   6.998   4.459   8.721 -0.3091 -1.7994  0.3738
  165MOL0     H21761   7.059   4.562   8.849 -0.5860  1.9426 -3.7508
  165MOL0     H21762   7.757   4.758   9.052  0.8625 -1.9775 -2.7329
  165MOL0     H21763   7.951   4.893   9.104  0.3292  0.7461  0.7223
  165MOL0     H21764   8.292   5.164   9.010 -2.5323 -1.2127  2.7324
  165MOL0     H21765   8.490   5.305   9.063  0.1276 -1.2519  0.4060
  165MOL0     H21766   8.114   4.771  10.077  0.4934 -0.2038  0.3054
  165MOL0     H21767   7.881   4.678  10.094 -0.0274 -0.2630  0.7186
  165MOL0     H21768   7.544   4.498  10.410 -1.7092 -1.8977  1.1732
  165MOL0     H21769   7.314   4.456  10.385 -1.8509  1.6404 -0.8639
  165MOL0     H21770   7.055   4.464  10.242  0.9524 -0.1020 -2.7247
  165MOL0     H21771   7.128   4.365  10.376  3.3266  0.9160 -1.0642
  165MOL0     H21772   6.988   4.167  10.236 -2.4644 -0.4805 -1.4456
  165MOL0     H21773   6.898   4.277  10.344  2.7051  1.8696  0.6345
  165MOL0     H21774   6.941   4.327  10.051 -0.1026 -2.0404 -0.0877
  165MOL0     H21775   6.860   4.436  10.160 -0.1193  0.3063 -0.3722
  165MOL0     H21776   6.705   4.309  10.019  4.0875  1.8274  0.4882
  165MOL0     H21777   6.740   4.151  10.103  2.7800 -0.8095  0.3960
  165MOL0     H21778   6.488   4.386  10.357  1.7744  2.1248 -0.7661
  165MOL0     H21779   7.363   4.266  10.005 -1.9306 -0.9674  0.3416
  165MOL0     H21780   7.612   4.301  10.032  2.3236  0.5664  1.4642
  166MOL0     O21781   6.819   8.326   2.685  0.0934 -0.5932  0.4676
  166MOL0     C21782   6.840   8.247   2.775 -0.5430 -0.8620  0.3801
  166MOL0     O21783   6.749   8.183   2.851 -0.6976  0.5191 -0.2912
  166MOL0     C21784   6.625   8.198   2.810  0.2770  1.6509  0.6793
  166MOL0     C21785   6.532   8.239   2.900 -0.3644  0.8125 -0.2657
  166MOL0     C21786   6.397   8.247   2.861 -0.5129  0.0512  0.6968
  166MOL0     C21787   6.354   8.208   2.733 -0.1053 -0.2672 -0.4844
  166MOL0     O21788   6.225   8.207   2.692  0.2839 -0.6817 -0.0010
  166MOL0     C21789   6.140   8.301   2.769  0.2580  0.0415  0.6868
  166MOL0     C21790   6.027   8.346   2.684 -0.3321  0.6099  0.9248
  166MOL0     C21791   6.069   8.410   2.555  0.1111 -0.6529  0.3085
  166MOL0     C21792   5.953   8.476   2.468 -0.4836  0.2080  0.0751
  166MOL0     C21793   5.998   8.562   2.359  0.3600  0.3918  0.6800
  166MOL0     C21794   6.117   8.507   2.261 -0.2583 -1.1308  0.0463
  166MOL0     C21795   6.152   8.621   2.164 -0.0817 -0.7657  0.0393
  166MOL0     C21796   6.228   8.571   2.040 -0.0250 -0.0801 -0.0265
  166MOL0     N21797   6.364   8.622   2.018  0.1875  0.0992  0.4039
  166MOL0     C21798   6.473   8.552   1.976  0.8885 -0.7478  0.1735
  166MOL0     C21799   6.557   8.651   1.924  0.6429  0.0704 -0.8701
  166MOL0     C21800   6.686   8.634   1.848  0.1985 -0.7440 -0.6811
  166MOL0     C21801   6.695   8.513   1.766  1.0665  0.2904  0.3411
  166MOL0     C21802   6.814   8.536   1.671 -0.5408  1.2176  0.1331
  166MOL0     C21803   6.817   8.412   1.588 -1.1441 -0.2769  0.1455
  166MOL0     O21804   6.700   8.403   1.499 -0.4435 -0.5408 -0.2588
  166MOL0     C21805   6.666   8.276   1.443 -0.6643 -0.5493 -0.1158
  166MOL0     C21806   6.552   8.263   1.352  0.1063  0.2805  0.5153
  166MOL0     C21807   6.504   8.135   1.312 -0.5390 -0.2278  0.2181
  166MOL0     C21808   6.559   8.018   1.351 -0.4403 -0.6769 -0.6563
  166MOL0     C21809   6.501   7.882   1.324  0.5521 -0.3209 -0.0309
  166MOL0     O21810   6.372   7.894   1.268 -0.4439  0.5349  0.7540
  166MOL0     C21811   6.285   7.789   1.240 -0.2121 -0.6345  0.7887
  166MOL0     C21812   6.278   7.667   1.305  0.3528  0.1168  0.9227
  166MOL0     C21813   6.191   7.558   1.272 -0.7293  0.4363  0.1985
  166MOL0     C21814   6.098   7.588   1.168 -0.0672 -0.1236  0.9021
  166MOL0     O21815   5.985   7.513   1.135 -1.3583  0.2588 -0.0262
  166MOL0     C21816   5.928   7.437   1.237  0.0550  0.2331 -0.8455
  166MOL0     C21817   5.814   7.349   1.187 -0.3436  0.2690 -0.3226
  166MOL0     C21818   5.858   7.254   1.070  0.2648  0.8576 -0.4721
  166MOL0     C21819   5.738   7.193   0.980  0.0598  0.5294 -0.1832
  166MOL0     C21820   5.800   7.071   0.898  1.1745 -0.3875  0.3747
  166MOL0     C21821   5.706   7.030   0.781 -0.8667  0.2809 -0.4061
  166MOL0     C21822   5.783   6.922   0.702 -0.5492 -0.3636  0.2038
  166MOL0     C21823   5.695   6.853   0.597 -0.3512  0.5017  0.2060
  166MOL0    Cl21824   5.800   6.774   0.479 -0.1475 -0.1916 -0.0536
  166MOL0     C21825   6.105   7.713   1.100 -1.4839 -0.4692  0.0842
  166MOL0     C21826   6.203   7.805   1.127  0.0413  0.7214 -0.6110
  166MOL0     O21827   6.549   7.782   1.377  0.1535  0.4632  0.6743
  166MOL0     C21828   6.668   8.028   1.443 -0.6146 -0.3975 -0.1266
  166MOL0     C21829   6.718   8.148   1.490 -0.8281 -0.1071  0.3515
  166MOL0     N21830   6.499   8.773   1.949 -0.4792 -0.3341  1.0635
  166MOL0     N21831   6.383   8.756   1.998 -0.6860  0.7426 -0.5458
  166MOL0     C21832   6.450   8.167   2.639 -0.5915  0.0191  0.1691
  166MOL0     C21833   6.582   8.164   2.677 -0.1723 -0.6103  0.2187
  166MOL0     C21834   6.986   8.227   2.798  0.9667 -0.5064 -0.7043
  166MOL0     C21835   7.083   8.308   2.743  0.5910 -0.3645  0.5818
  166MOL0     C21836   7.215   8.298   2.774  0.1554  0.6777  0.1353
  166MOL0     C21837   7.254   8.204   2.866 -0.2710 -0.6186 -0.6989
  166MOL0     O21838   7.383   8.190   2.904 -0.2229  0.4904  0.0515
  166MOL0     C21839   7.480   8.199   2.797  0.1427 -0.5720 -0.6573
  166MOL0     C21840   7.615   8.126   2.827 -0.0394  0.3346 -0.5263
  166MOL0     C21841   7.607   8.055   2.963  0.6538  0.2318 -0.0841
  166MOL0     C21842   7.741   7.978   2.996 -0.1792  0.2106 -0.4241
  166MOL0     C21843   7.841   8.067   3.060 -0.7304  0.0710  0.2780
  166MOL0     C21844   7.930   8.128   3.115 -0.8305 -0.6764  0.4777
  166MOL0     C21845   7.157   8.116   2.919 -0.8917 -0.7499 -0.0477
  166MOL0     C21846   7.020   8.128   2.892  0.1675 -0.5536  0.1407
  166MOL0     H21847   6.552   8.236   3.006  0.7775  3.3220 -0.3283
  166MOL0     H21848   6.326   8.281   2.936 -0.4933 -0.4404  0.9402
  166MOL0     H21849   6.206   8.385   2.790 -1.0567  1.1087  0.6691
  166MOL0     H21850   6.107   8.259   2.864 -0.2588 -1.0058  0.0682
  166MOL0     H21851   5.966   8.422   2.734 -0.2626  2.4725 -1.6162
  166MOL0     H21852   5.960   8.260   2.671 -1.5528  1.4803  1.2801
  166MOL0     H21853   6.122   8.329   2.504 -1.8272 -1.1507 -1.0154
  166MOL0     H21854   6.141   8.490   2.573  0.5799 -0.9016 -0.4059
  166MOL0     H21855   5.899   8.388   2.430 -0.3260  0.1588 -0.0319
  166MOL0     H21856   5.879   8.529   2.530 -1.9276 -1.8379  0.2114
  166MOL0     H21857   6.032   8.653   2.410 -0.9013  0.9011  0.6671
  166MOL0     H21858   5.915   8.587   2.292  1.2604 -1.1583 -1.0918
  166MOL0     H21859   6.079   8.419   2.207 -3.9846 -0.8465  1.8824
  166MOL0     H21860   6.202   8.487   2.326  0.3274  0.1675 -0.2981
  166MOL0     H21861   6.063   8.678   2.133  0.7564  1.6578  1.7669
  166MOL0     H21862   6.206   8.701   2.216 -1.1486 -0.4931  0.7842
  166MOL0     H21863   6.171   8.575   1.947 -0.6115  1.3959  0.3795
  166MOL0     H21864   6.243   8.464   2.056 -2.8785 -0.3672  1.3672
  166MOL0     H21865   6.484   8.444   1.974 -0.9718 -0.9752  0.7408
  166MOL0     H21866   6.780   8.631   1.905 -0.1294  1.8899  0.1009
  166MOL0     H21867   6.700   8.717   1.779  0.7100 -0.2371  0.0224
  166MOL0     H21868   6.605   8.488   1.709  0.4387  0.6345  1.1680
  166MOL0     H21869   6.708   8.423   1.826 -1.2516 -2.5783 -3.0302
  166MOL0     H21870   6.798   8.623   1.607  2.2465  0.2153 -2.1107
  166MOL0     H21871   6.905   8.547   1.731  0.1385  2.2916 -1.0594
  166MOL0     H21872   6.818   8.329   1.660  2.4922 -0.0764  0.4928
  166MOL0     H21873   6.913   8.407   1.535 -1.5424 -0.5385 -0.5748
  166MOL0     H21874   6.490   8.346   1.323  0.8595  1.0182  0.9658
  166MOL0     H21875   6.411   8.132   1.256 -1.1296 -1.0188  1.2116
  166MOL0     H21876   6.347   7.651   1.388  0.6874  3.5615  1.4968
  166MOL0     H21877   6.193   7.466   1.328 -1.1878  0.6500  0.5770
  166MOL0     H21878   5.891   7.506   1.314  1.8730 -1.3567  1.5865
  166MOL0     H21879   5.997   7.369   1.286  0.3188  2.5828  2.3141
  166MOL0     H21880   5.738   7.415   1.146 -0.6783  1.0754  1.5009
  166MOL0     H21881   5.775   7.295   1.274 -1.2539  3.7370  1.5939
  166MOL0     H21882   5.929   7.179   1.108  0.9920 -0.1782 -3.5662
  166MOL0     H21883   5.928   7.307   1.005 -1.4884  1.4048 -1.9869
  166MOL0     H21884   5.657   7.159   1.044 -0.1640  0.5188 -0.4733
  166MOL0     H21885   5.707   7.280   0.922  1.9143  0.5577 -1.2189
  166MOL0     H21886   5.823   6.979   0.953  0.2372 -1.5995 -1.1517
  166MOL0     H21887   5.889   7.114   0.851 -1.1843  1.5150 -2.7901
  166MOL0     H21888   5.678   7.114   0.717 -2.5294 -1.2304 -1.7874
  166MOL0     H21889   5.624   6.975   0.829  2.6657 -2.7362  2.8610
  166MOL0     H21890   5.849   6.978   0.635 -4.9566  1.8508 -2.7922
  166MOL0     H21891   5.834   6.848   0.764  2.6809  0.9696 -0.6487
  166MOL0     H21892   5.648   6.938   0.545  2.3780  2.8256  1.2416
  166MOL0     H21893   5.623   6.787   0.646  3.3498 -1.6888  3.2171
  166MOL0     H21894   6.033   7.738   1.022 -1.4431 -0.0400  0.1814
  166MOL0     H21895   6.217   7.902   1.080  2.0121 -0.1073 -1.8157
  166MOL0     H21896   6.716   7.932   1.464  0.0405  0.0904  0.6679
  166MOL0     H21897   6.816   8.129   1.533 -0.1811  0.0907 -0.9832
  166MOL0     H21898   6.407   8.147   2.542 -0.7480 -2.7747  0.7341
  166MOL0     H21899   6.656   8.128   2.606 -1.0930 -1.9649 -0.0954
  166MOL0     H21900   7.050   8.374   2.664 -1.9990 -1.7350  0.4402
  166MOL0     H21901   7.266   8.372   2.713 -3.8645  0.0651 -4.5900
  166MOL0     H21902   7.498   8.305   2.775 -2.3852  0.4525  1.6468
  166MOL0     H21903   7.442   8.168   2.699  1.2644 -0.7872 -1.0446
  166MOL0     H21904   7.627   8.048   2.752  2.3175 -2.3477  2.3696
  166MOL0     H21905   7.699   8.197   2.820 -1.0063  1.4174 -1.4594
  166MOL0     H21906   7.528   7.980   2.952 -1.0778  1.9215  0.2508
  166MOL0     H21907   7.583   8.122   3.046  1.3549  0.1156  0.2181
  166MOL0     H21908   7.711   7.899   3.067 -1.1413  0.7690 -0.1970
  166MOL0     H21909   7.789   7.939   2.906  1.6033 -2.2806  1.4377
  166MOL0     H21910   8.010   8.190   3.151 -0.9317 -1.0424  1.3622
  166MOL0     H21911   7.186   8.036   2.986 -3.7930 -1.8724  0.0291
  166MOL0     H21912   6.947   8.065   2.943  2.8521 -2.9327  1.3333
  167MOL0     O21913   4.698   2.075   9.369  1.1153  0.5549  0.1061
  167MOL0     C21914   4.666   2.144   9.266 -0.1377  0.1903  0.3708
  167MOL0     O21915   4.696   2.109   9.136 -0.1748  0.6207  0.5804
  167MOL0     C21916   4.743   1.979   9.126 -0.2416 -0.0746 -0.1639
  167MOL0     C21917   4.862   1.933   9.178  0.6082  0.6131 -0.6629
  167MOL0     C21918   4.906   1.805   9.146 -0.0649  0.8568  0.0199
  167MOL0     C21919   4.840   1.710   9.071 -0.5188 -0.6239  0.1086
  167MOL0     O21920   4.906   1.592   9.045 -0.2682 -0.1584  0.1588
  167MOL0     C21921   4.835   1.487   8.977 -0.1888 -0.0867  0.4526
  167MOL0     C21922   4.918   1.351   8.999 -0.6556  0.3030  0.0316
  167MOL0     C21923   5.067   1.362   8.952 -0.0480 -0.6477  0.9341
  167MOL0     C21924   5.139   1.228   8.973 -0.2834  0.7298 -0.4066
  167MOL0     C21925   5.284   1.227   8.932  0.0990 -0.0999  0.3108
  167MOL0     C21926   5.348   1.091   8.951  0.3599  0.0829 -0.5188
  167MOL0     C21927   5.501   1.093   8.911  0.4148  1.1306  0.0522
  167MOL0     C21928   5.583   0.970   8.952  0.0950 -0.7370 -1.1049
  167MOL0     N21929   5.722   0.975   8.899  0.5959  0.3175  0.4043
  167MOL0     C21930   5.813   0.881   8.923  0.5262 -0.4140  0.8911
  167MOL0     C21931   5.930   0.926   8.865  0.3746  0.5890 -0.3013
  167MOL0     C21932   6.065   0.858   8.863  0.3633 -0.0541 -0.2224
  167MOL0     C21933   6.100   0.808   8.729 -0.0203 -0.9131 -0.0265
  167MOL0     C21934   6.226   0.716   8.747  0.3501  0.6873 -0.7347
  167MOL0     C21935   6.354   0.790   8.723 -0.4565  0.5000  0.1670
  167MOL0     O21936   6.456   0.682   8.728 -0.3364 -0.2517 -0.5997
  167MOL0     C21937   6.587   0.709   8.684  0.2336  0.7258 -0.1224
  167MOL0     C21938   6.643   0.832   8.667  0.1315  0.5348 -0.0035
  167MOL0     C21939   6.772   0.835   8.618 -0.1660 -0.3200  1.1816
  167MOL0     C21940   6.847   0.710   8.603  0.1515 -0.9381  0.5426
  167MOL0     C21941   6.988   0.716   8.553  0.5592 -0.4306 -0.2736
  167MOL0     O21942   7.028   0.839   8.500  0.1809  0.4457  0.1351
  167MOL0     C21943   7.158   0.858   8.484  0.4127 -0.1430 -0.4962
  167MOL0     C21944   7.199   0.947   8.382 -0.4970 -0.2412  0.2326
  167MOL0     C21945   7.340   0.986   8.368 -0.0193 -0.6155 -0.5847
  167MOL0     C21946   7.440   0.932   8.444  0.3801 -0.5296  0.1632
  167MOL0     O21947   7.571   0.970   8.421 -0.1586  0.2404  0.0633
  167MOL0     C21948   7.675   0.866   8.449 -0.2336  0.0535 -0.6519
  167MOL0     C21949   7.772   0.864   8.330  0.3601  0.4039 -0.6719
  167MOL0     C21950   7.912   0.798   8.362 -0.1429  0.1628  0.2229
  167MOL0     C21951   8.001   0.786   8.230 -0.0552 -1.1351  0.0949
  167MOL0     C21952   8.124   0.700   8.259 -0.3359 -0.2196 -0.4742
  167MOL0     C21953   8.209   0.710   8.128  0.5684 -0.5583 -0.0553
  167MOL0     C21954   8.280   0.583   8.102  0.8450  0.4348  0.5801
  167MOL0     C21955   8.422   0.569   8.169  0.1290  0.2343 -0.5294
  167MOL0    Cl21956   8.499   0.415   8.147  0.2601  0.5684 -0.2453
  167MOL0     C21957   7.394   0.857   8.553  0.0997  0.2608 -1.3568
  167MOL0     C21958   7.255   0.813   8.569  0.5321 -0.3858 -0.0759
  167MOL0     O21959   7.050   0.605   8.550  0.4994  0.3197 -0.4412
  167MOL0     C21960   6.777   0.588   8.629 -0.1039 -0.4612 -0.5396
  167MOL0     C21961   6.648   0.587   8.664 -0.1805 -0.1178  0.7357
  167MOL0     N21962   5.909   1.048   8.813  0.2193  1.3536  0.3287
  167MOL0     N21963   5.779   1.074   8.828  0.1529 -1.2469 -1.0549
  167MOL0     C21964   4.718   1.767   9.017 -0.8337  1.1560  0.6837
  167MOL0     C21965   4.665   1.897   9.040  0.5728  0.5804 -0.3626
  167MOL0     C21966   4.587   2.270   9.287 -0.5131  0.5707  0.6163
  167MOL0     C21967   4.516   2.285   9.403 -0.3970  0.7571 -0.0890
  167MOL0     C21968   4.437   2.397   9.416 -0.1542 -1.2945  0.0722
  167MOL0     C21969   4.431   2.496   9.316  0.1839 -0.3198  1.0171
  167MOL0     O21970   4.342   2.608   9.311  0.0056  0.1999 -0.0945
  167MOL0     C21971   4.260   2.641   9.429  0.6898 -0.8329 -0.4148
  167MOL0     C21972   4.147   2.742   9.396 -0.8888 -0.2413 -0.2468
  167MOL0     C21973   4.072   2.690   9.267  0.4169 -0.6702  0.3336
  167MOL0     C21974   3.950   2.772   9.241  0.2843  0.2773  0.1367
  167MOL0     C21975   3.978   2.908   9.203 -0.0297 -0.6279 -0.2283
  167MOL0     C21976   4.018   3.022   9.192  0.2438 -0.1360  0.6219
  167MOL0     C21977   4.498   2.478   9.196 -0.0295  1.0379 -0.4718
  167MOL0     C21978   4.588   2.363   9.180  0.3796  0.3667  0.2921
  167MOL0     H21979   4.938   1.991   9.231  1.1886 -0.7785  0.0909
  167MOL0     H21980   4.991   1.765   9.201 -1.4424 -1.8451  0.3633
  167MOL0     H21981   4.826   1.507   8.870  0.2422  2.5308  0.8492
  167MOL0     H21982   4.740   1.474   9.030 -0.0312 -2.6057  0.2281
  167MOL0     H21983   4.864   1.273   8.945 -1.6051  0.1843  1.1000
  167MOL0     H21984   4.912   1.325   9.105 -0.5111 -0.5312 -0.1584
  167MOL0     H21985   5.128   1.441   8.996 -1.4203  0.1047  1.5662
  167MOL0     H21986   5.069   1.379   8.844  0.0583 -0.6978  0.9294
  167MOL0     H21987   5.122   1.207   9.079 -1.0338  0.1024 -0.6441
  167MOL0     H21988   5.095   1.149   8.912  1.9259 -0.3679 -0.6706
  167MOL0     H21989   5.340   1.305   8.984 -0.5193 -0.2613  1.2526
  167MOL0     H21990   5.296   1.264   8.830 -3.3090  1.9114  0.5179
  167MOL0     H21991   5.291   1.017   8.893 -2.2962  0.8673  0.9180
  167MOL0     H21992   5.328   1.064   9.055  0.6967  1.7214  0.0022
  167MOL0     H21993   5.513   1.112   8.804  3.8675 -2.2930 -0.3995
  167MOL0     H21994   5.557   1.178   8.950  2.1844  0.7289 -1.4822
  167MOL0     H21995   5.521   0.888   8.914  1.8999 -2.5962 -0.2122
  167MOL0     H21996   5.582   0.954   9.060  0.7425  0.4892 -0.9043
  167MOL0     H21997   5.804   0.780   8.960 -1.1936 -1.2577 -1.5558
  167MOL0     H21998   6.060   0.772   8.930  0.7995  0.7450  0.8740
  167MOL0     H21999   6.133   0.935   8.902 -0.2663 -0.3092  1.4687
  167MOL0     H22000   6.124   0.879   8.650  0.1663 -5.1217 -4.1788
  167MOL0     H22001   6.026   0.736   8.692 -1.7150  0.9996 -0.5244
  167MOL0     H22002   6.227   0.679   8.850 -0.9572 -0.6244 -1.1579
  167MOL0     H22003   6.219   0.619   8.698 -0.2135 -0.3210  1.2269
  167MOL0     H22004   6.374   0.858   8.806 -1.1093  2.7197 -1.4087
  167MOL0     H22005   6.359   0.841   8.627  1.9815 -0.2216 -0.1578
  167MOL0     H22006   6.597   0.926   8.695 -1.0690  0.1956 -0.7589
  167MOL0     H22007   6.814   0.935   8.606  0.1616 -0.6225 -0.5104
  167MOL0     H22008   7.135   0.992   8.307 -0.0578  0.7125  0.4038
  167MOL0     H22009   7.372   1.060   8.295 -0.8510  0.0487 -0.2969
  167MOL0     H22010   7.628   0.770   8.470  0.2477 -0.5002 -2.0013
  167MOL0     H22011   7.740   0.883   8.536  1.1471 -1.2240 -1.3874
  167MOL0     H22012   7.783   0.967   8.294 -0.0370  1.2205  1.4019
  167MOL0     H22013   7.731   0.805   8.247 -1.3253 -1.3572  1.3110
  167MOL0     H22014   7.905   0.699   8.408 -0.0066  1.0108  2.1263
  167MOL0     H22015   7.965   0.851   8.442 -0.3063  0.6702  0.0007
  167MOL0     H22016   7.950   0.735   8.148 -1.3886  3.2646 -2.1122
  167MOL0     H22017   8.030   0.883   8.189 -2.9853 -0.4700 -0.6447
  167MOL0     H22018   8.097   0.596   8.283 -2.4376  0.3517 -0.1016
  167MOL0     H22019   8.183   0.743   8.340 -0.2960 -0.0617 -0.5884
  167MOL0     H22020   8.281   0.791   8.139 -0.0758 -0.2598  3.0998
  167MOL0     H22021   8.136   0.719   8.047  0.1946 -1.1696  0.2003
  167MOL0     H22022   8.215   0.498   8.126  0.3327 -0.2231 -2.6297
  167MOL0     H22023   8.288   0.581   7.993 -1.2128  2.1489  0.3329
  167MOL0     H22024   8.415   0.566   8.279  1.1207 -2.1891 -0.4669
  167MOL0     H22025   8.487   0.656   8.156  0.8422 -0.4222 -1.4468
  167MOL0     H22026   7.474   0.824   8.620  1.4091  1.8481 -2.0698
  167MOL0     H22027   7.222   0.754   8.655 -0.3945  0.4636  0.1705
  167MOL0     H22028   6.825   0.491   8.622 -1.6569 -1.3675  0.6217
  167MOL0     H22029   6.598   0.494   8.686 -0.9591 -0.1371 -0.9547
  167MOL0     H22030   4.655   1.698   8.961 -0.8580  0.7382  1.2146
  167MOL0     H22031   4.565   1.924   9.006 -0.5211  0.2773  2.4033
  167MOL0     H22032   4.507   2.219   9.488 -4.4607  1.2207  0.0699
  167MOL0     H22033   4.385   2.419   9.509  1.5261  1.3419  0.4915
  167MOL0     H22034   4.317   2.676   9.516 -2.1480 -2.1061  2.1379
  167MOL0     H22035   4.213   2.556   9.480 -1.1105  0.8677  0.8891
  167MOL0     H22036   4.087   2.754   9.486 -1.0158 -1.3166 -0.1754
  167MOL0     H22037   4.192   2.840   9.378 -1.1710 -0.0582  0.0574
  167MOL0     H22038   4.046   2.584   9.280  0.0378 -1.0128 -2.5113
  167MOL0     H22039   4.144   2.702   9.186  0.5172  0.3515  0.5589
  167MOL0     H22040   3.887   2.733   9.161  0.1804  4.1266 -1.9165
  167MOL0     H22041   3.893   2.785   9.333 -0.4392 -1.4089 -0.0415
  167MOL0     H22042   4.055   3.118   9.161 -0.4898 -1.3682 -5.1414
  167MOL0     H22043   4.484   2.536   9.106 -2.1146  0.7732 -0.3593
  167MOL0     H22044   4.642   2.344   9.088  0.3883  1.5482  0.0446
  168MOL0     O22045  10.784   1.238   0.501  0.0099 -0.2620  0.2241
  168MOL0     C22046  10.720   1.143   0.463 -0.4268  0.0346 -0.2128
  168MOL0     O22047  10.784   1.026   0.421  0.6277 -0.1025 -0.0419
  168MOL0     C22048  10.915   0.999   0.423 -0.1639  0.1101 -1.0192
  168MOL0     C22049  10.946   0.864   0.430 -0.0632  0.6649 -0.1047
  168MOL0     C22050  11.086   0.819   0.434  0.9338 -0.2035 -1.7426
  168MOL0     C22051  11.195   0.901   0.426 -0.3212 -0.0599 -0.6342
  168MOL0     O22052  11.327   0.865   0.432  0.2700  0.1983 -0.5262
  168MOL0     C22053  11.368   0.766   0.528  0.0994  0.3397 -0.1931
  168MOL0     C22054  11.420   0.820   0.660  0.2472 -0.1247 -0.5996
  168MOL0     C22055  11.331   0.921   0.734  0.0651 -0.2180 -0.0396
  168MOL0     C22056  11.201   0.864   0.771  0.5575 -0.5088 -0.1596
  168MOL0     C22057  11.089   0.969   0.790 -0.3290 -0.3673  0.6092
  168MOL0     C22058  10.950   0.917   0.827 -0.1954  0.1502  0.1330
  168MOL0     C22059  10.849   1.024   0.874 -0.4563 -0.2308 -0.0241
  168MOL0     C22060  10.784   1.100   0.762  0.4919  0.4602  0.2722
  168MOL0     N22061  10.664   1.173   0.808 -0.2883  0.5065 -0.2579
  168MOL0     C22062  10.666   1.298   0.871 -0.1685  0.1445 -0.6522
  168MOL0     C22063  10.530   1.325   0.881  0.2981 -0.4540 -0.3292
  168MOL0     C22064  10.462   1.439   0.950 -0.0376  0.2473 -0.7096
  168MOL0     C22065  10.555   1.504   1.060  0.0614 -0.2803  0.3845
  168MOL0     C22066  10.490   1.605   1.152  0.5956  0.2674  0.0459
  168MOL0     C22067  10.413   1.558   1.280  0.0402  0.1936  0.1664
  168MOL0     O22068  10.277   1.519   1.245 -0.5934  0.1210  0.7023
  168MOL0     C22069  10.184   1.527   1.353 -0.1541  0.2207  0.5779
  168MOL0     C22070  10.114   1.417   1.390  0.3671  0.1121 -0.2345
  168MOL0     C22071  10.015   1.416   1.482 -0.4523 -1.7846  0.2758
  168MOL0     C22072   9.995   1.532   1.559  0.3774 -1.8229 -0.1113
  168MOL0     C22073   9.887   1.535   1.665  0.1610 -0.5321  0.6936
  168MOL0     O22074   9.828   1.410   1.693 -0.1529 -0.2784  0.0268
  168MOL0     C22075   9.716   1.421   1.772  0.5051 -0.0132  0.6320
  168MOL0     C22076   9.704   1.350   1.893  0.3358 -0.3629 -0.4489
  168MOL0     C22077   9.576   1.340   1.952 -0.6059  1.1512  0.2202
  168MOL0     C22078   9.458   1.397   1.898 -0.0599  0.0814 -0.8073
  168MOL0     O22079   9.330   1.370   1.946 -0.1810 -0.2211 -0.0041
  168MOL0     C22080   9.322   1.332   2.084 -0.3657  1.2143  0.3429
  168MOL0     C22081   9.172   1.305   2.108 -0.2869  0.6857  0.1074
  168MOL0     C22082   9.126   1.162   2.066 -0.2856  0.4753 -0.4829
  168MOL0     C22083   8.992   1.113   2.123 -0.5740 -1.2802  0.2448
  168MOL0     C22084   8.952   0.975   2.083 -0.3600 -0.1812 -0.3161
  168MOL0     C22085   8.826   0.942   2.162  0.1188 -0.4181  0.1982
  168MOL0     C22086   8.779   0.802   2.122 -0.2086 -0.7076 -0.7125
  168MOL0     C22087   8.636   0.778   2.128 -0.2414  0.4631  0.7165
  168MOL0    Cl22088   8.544   0.921   2.055 -0.0852  0.0170  0.3218
  168MOL0     C22089   9.475   1.462   1.774 -0.9471 -0.6604  0.0975
  168MOL0     C22090   9.601   1.474   1.709  0.0834  0.5569 -0.5515
  168MOL0     O22091   9.850   1.642   1.709 -0.4635  0.0065 -0.2846
  168MOL0     C22092  10.066   1.653   1.524 -0.0270  0.0295 -0.1691
  168MOL0     C22093  10.161   1.649   1.414  0.1159  0.2708 -1.4619
  168MOL0     N22094  10.456   1.224   0.831  0.1172 -0.0219  0.0670
  168MOL0     N22095  10.532   1.130   0.791  1.0794 -0.2524  0.3420
  168MOL0     C22096  11.156   1.038   0.419  0.4572  0.3998  0.3521
  168MOL0     C22097  11.023   1.086   0.415  0.0072  0.0718  0.1913
  168MOL0     C22098  10.576   1.154   0.436 -0.5497  0.4852 -1.1632
  168MOL0     C22099  10.502   1.240   0.517 -0.6226  0.2259  0.2844
  168MOL0     C22100  10.365   1.249   0.495  0.3025 -0.3295 -0.5787
  168MOL0     C22101  10.293   1.164   0.406  0.0790 -0.5550 -0.0978
  168MOL0     O22102  10.154   1.161   0.384 -0.5035 -0.8252 -0.0715
  168MOL0     C22103  10.064   1.220   0.479  0.6264 -1.4694 -0.0310
  168MOL0     C22104  10.055   1.146   0.611  0.9561  0.2069  0.5559
  168MOL0     C22105   9.994   1.004   0.599  0.6681  0.2337 -0.1279
  168MOL0     C22106  10.027   0.922   0.730  0.8319 -0.0718 -0.0794
  168MOL0     C22107   9.922   0.972   0.828  0.1333  0.1793 -0.0432
  168MOL0     C22108   9.839   1.019   0.907 -0.2720  0.3467 -0.2485
  168MOL0     C22109  10.365   1.069   0.334 -0.5134 -0.7847  0.6802
  168MOL0     C22110  10.507   1.071   0.340  0.7243 -0.3294 -0.3443
  168MOL0     H22111  10.875   0.783   0.419  1.8141 -0.8728 -1.3066
  168MOL0     H22112  11.105   0.713   0.448  1.6311 -0.0141 -1.2391
  168MOL0     H22113  11.438   0.708   0.468  0.7673 -1.3677  2.1138
  168MOL0     H22114  11.288   0.692   0.537 -0.5037  1.1868  2.3158
  168MOL0     H22115  11.514   0.869   0.633  0.2677 -1.1921 -2.7038
  168MOL0     H22116  11.437   0.736   0.728  3.4284  1.3608  0.6281
  168MOL0     H22117  11.325   1.001   0.660 -0.7567  1.9234  2.2095
  168MOL0     H22118  11.385   0.957   0.821  1.9124 -4.1464  0.6911
  168MOL0     H22119  11.168   0.792   0.696 -1.2978  0.5146 -0.3759
  168MOL0     H22120  11.215   0.812   0.866  0.3044 -1.2020 -0.5011
  168MOL0     H22121  11.086   1.021   0.694 -0.2639  1.5814  1.6234
  168MOL0     H22122  11.118   1.044   0.864 -1.0818  0.2748  0.2653
  168MOL0     H22123  10.964   0.861   0.920 -2.1626  1.3240  1.1864
  168MOL0     H22124  10.921   0.849   0.746 -0.1962  0.1237  0.1552
  168MOL0     H22125  10.773   0.973   0.935 -1.7655  2.3356  0.6609
  168MOL0     H22126  10.889   1.096   0.946 -0.5546  0.3258 -0.5133
  168MOL0     H22127  10.751   1.028   0.686 -2.1313  3.4906 -1.7037
  168MOL0     H22128  10.855   1.174   0.726  2.5967 -0.7282  1.7633
  168MOL0     H22129  10.753   1.360   0.894 -0.4795  0.8228 -1.2637
  168MOL0     H22130  10.367   1.405   0.991  1.3314 -2.6074  0.3251
  168MOL0     H22131  10.424   1.512   0.877 -1.3439 -0.7315 -1.0477
  168MOL0     H22132  10.641   1.548   1.010 -0.2560 -0.4340 -0.3048
  168MOL0     H22133  10.590   1.423   1.125  0.0401  1.4576  2.7140
  168MOL0     H22134  10.568   1.667   1.198  1.0293  0.2306 -0.6322
  168MOL0     H22135  10.426   1.660   1.083  1.2823 -0.9972 -1.6726
  168MOL0     H22136  10.410   1.633   1.359 -1.1157 -2.0397  2.3644
  168MOL0     H22137  10.468   1.470   1.314 -1.7614 -1.0814 -0.1106
  168MOL0     H22138  10.135   1.345   1.312 -1.7679 -0.6305 -0.1951
  168MOL0     H22139   9.972   1.319   1.504 -0.7620 -1.6818  0.1243
  168MOL0     H22140   9.788   1.305   1.945 -1.6132 -0.9117  2.4599
  168MOL0     H22141   9.575   1.302   2.053  0.1681  1.2892  0.2820
  168MOL0     H22142   9.346   1.412   2.154 -1.4776  1.8754 -0.0081
  168MOL0     H22143   9.366   1.235   2.108 -3.4838 -0.0411  1.5106
  168MOL0     H22144   9.122   1.384   2.051 -0.1957  2.4659  2.3550
  168MOL0     H22145   9.153   1.319   2.215  2.1673 -0.4460  0.7629
  168MOL0     H22146   9.194   1.093   2.117 -0.8884  1.0963  1.2453
  168MOL0     H22147   9.135   1.152   1.958  1.0069  2.5554 -0.6200
  168MOL0     H22148   8.993   1.117   2.232  0.8502 -1.4154  0.2476
  168MOL0     H22149   8.916   1.184   2.087 -1.7814 -1.9311  1.3862
  168MOL0     H22150   9.026   0.901   2.112 -2.4579 -1.4892  2.0546
  168MOL0     H22151   8.940   0.970   1.974  1.6123  0.6999 -0.6132
  168MOL0     H22152   8.756   1.023   2.141 -0.2334 -1.0198 -1.0400
  168MOL0     H22153   8.850   0.938   2.269 -0.8507  1.8960  0.5657
  168MOL0     H22154   8.806   0.767   2.021 -1.5826 -2.1743 -0.6020
  168MOL0     H22155   8.831   0.728   2.183  1.8240  1.4059  0.2722
  168MOL0     H22156   8.591   0.771   2.227 -3.5245  0.9765 -0.6047
  168MOL0     H22157   8.618   0.686   2.071  0.3783  1.5426 -1.3069
  168MOL0     H22158   9.387   1.494   1.719 -1.3895  1.8661  2.1169
  168MOL0     H22159   9.624   1.512   1.610  2.4892 -1.8879 -1.0320
  168MOL0     H22160  10.040   1.747   1.572  0.4204  0.2476 -0.3472
  168MOL0     H22161  10.203   1.737   1.367 -1.0457  1.3387 -0.5652
  168MOL0     H22162  11.241   1.105   0.417  1.0671 -0.3119  1.4005
  168MOL0     H22163  11.011   1.194   0.417 -0.9916 -0.0042 -0.7531
  168MOL0     H22164  10.556   1.295   0.593  0.2967 -0.4763  0.1524
  168MOL0     H22165  10.312   1.320   0.558  5.5618  2.7155  1.0926
  168MOL0     H22166   9.973   1.233   0.419 -0.0245 -0.0074  1.2091
  168MOL0     H22167  10.088   1.321   0.511  2.3074 -1.7371 -0.3640
  168MOL0     H22168  10.155   1.134   0.653  0.7777  1.1190  1.2916
  168MOL0     H22169   9.993   1.206   0.679 -3.9647  0.1883 -3.3085
  168MOL0     H22170  10.052   0.963   0.515  1.2519  0.6874  0.0552
  168MOL0     H22171   9.885   1.005   0.586  0.8952  0.0479 -2.5880
  168MOL0     H22172  10.028   0.814   0.715  0.5331 -0.0920  0.0369
  168MOL0     H22173  10.126   0.949   0.766  1.1145  0.9045 -1.4820
  168MOL0     H22174   9.764   1.068   0.965  0.6211  0.1463  1.1061
  168MOL0     H22175  10.296   1.013   0.273 -0.8382  0.1647  0.1602
  168MOL0     H22176  10.558   0.995   0.281 -0.0737 -0.1427 -1.2940
  169MOL0     O22177   5.884   5.975  11.052  0.1019  0.4085  0.3475
  169MOL0     C22178   5.911   5.988  10.933 -0.5883 -1.6113 -0.3391
  169MOL0     O22179   5.834   5.959  10.830 -0.5974 -0.1423  0.3361
  169MOL0     C22180   5.693   5.959  10.838 -0.5391 -0.8268  0.2436
  169MOL0     C22181   5.629   5.974  10.719 -0.1459  1.1162 -0.0431
  169MOL0     C22182   5.488   5.956  10.718 -0.7123 -0.0961 -0.0604
  169MOL0     C22183   5.407   5.953  10.827 -0.6202  0.7191  0.1997
  169MOL0     O22184   5.267   5.936  10.815  0.7522 -0.3127 -0.5263
  169MOL0     C22185   5.193   5.955  10.694 -0.7368  0.1153 -0.1087
  169MOL0     C22186   5.068   5.880  10.724 -0.0873  0.5044  0.0765
  169MOL0     C22187   5.083   5.721  10.707  0.3655 -0.3601 -0.1151
  169MOL0     C22188   4.969   5.662  10.774  0.2805  0.3233 -0.5537
  169MOL0     C22189   4.988   5.514  10.798 -0.6983  0.0341  0.3108
  169MOL0     C22190   4.872   5.461  10.895  0.8356  0.0160 -0.1569
  169MOL0     C22191   4.740   5.448  10.828 -1.1084 -0.6694  0.1531
  169MOL0     C22192   4.632   5.389  10.913  0.4926 -0.6760  0.3449
  169MOL0     N22193   4.500   5.379  10.831 -0.8139  0.0635 -0.0510
  169MOL0     C22194   4.484   5.265  10.752 -0.4745  0.1418 -0.3815
  169MOL0     C22195   4.377   5.298  10.672 -0.0649 -0.8584 -0.1286
  169MOL0     C22196   4.308   5.200  10.588  0.9561  0.1086 -0.3508
  169MOL0     C22197   4.164   5.233  10.541 -0.8256  0.1175  0.7717
  169MOL0     C22198   4.106   5.139  10.428 -0.4125 -0.5734 -0.2582
  169MOL0     C22199   3.966   5.179  10.380  0.2983 -0.6955  0.9177
  169MOL0     O22200   3.854   5.120  10.445 -0.1918 -0.3344  0.0385
  169MOL0     C22201   3.731   5.159  10.403  0.3686 -0.1729  0.5146
  169MOL0     C22202   3.631   5.191  10.497 -0.3598 -0.5739 -1.0048
  169MOL0     C22203   3.506   5.243  10.468 -0.5189 -0.3553  0.0369
  169MOL0     C22204   3.474   5.267  10.336  0.4199 -0.9517 -0.4383
  169MOL0     C22205   3.337   5.304  10.297  0.9722 -0.1857  0.2635
  169MOL0     O22206   3.227   5.249  10.360 -0.4804  0.6641  0.5623
  169MOL0     C22207   3.107   5.273  10.294  0.3953  0.6867 -1.2317
  169MOL0     C22208   3.013   5.363  10.343  0.0281 -0.5894 -0.3309
  169MOL0     C22209   2.896   5.380  10.281  0.3718 -0.2838 -0.2633
  169MOL0     C22210   2.865   5.300  10.166 -0.0003  0.2338 -0.3807
  169MOL0     O22211   2.752   5.313  10.101  0.3363  0.6567 -0.5441
  169MOL0     C22212   2.624   5.312  10.172  0.8052  0.0792  0.0023
  169MOL0     C22213   2.572   5.175  10.171 -0.3131  0.5928 -1.7073
  169MOL0     C22214   2.419   5.186  10.167 -0.3645 -1.0105 -0.5274
  169MOL0     C22215   2.356   5.052  10.169  0.7449 -0.1309  0.2305
  169MOL0     C22216   2.208   5.059  10.143  0.0435 -0.2988  0.2781
  169MOL0     C22217   2.168   5.123  10.016  0.6606 -0.3597 -0.0228
  169MOL0     C22218   2.039   5.072   9.959  1.0086 -0.6054 -0.1760
  169MOL0     C22219   1.979   5.174   9.856  0.1758  1.0900  0.2270
  169MOL0    Cl22220   1.932   5.321   9.950  0.5020 -0.4441  0.1852
  169MOL0     C22221   2.956   5.199  10.123  0.3675 -1.1444 -0.0514
  169MOL0     C22222   3.082   5.190  10.185 -0.0346 -0.2303 -0.1099
  169MOL0     O22223   3.336   5.372  10.192 -0.0266  0.1148  0.5489
  169MOL0     C22224   3.569   5.239  10.234  0.9488  0.3989 -0.3485
  169MOL0     C22225   3.696   5.188  10.266 -0.1238  0.4637 -0.7843
  169MOL0     N22226   4.335   5.427  10.691  0.6487  0.0105  0.0480
  169MOL0     N22227   4.421   5.481  10.779  0.2232  0.0239  0.3460
  169MOL0     C22228   5.474   5.947  10.949 -0.0067  0.1388 -0.6220
  169MOL0     C22229   5.617   5.945  10.954 -0.3681 -0.3708 -0.4019
  169MOL0     C22230   6.044   6.043  10.898  0.2193 -0.1790  0.3859
  169MOL0     C22231   6.083   6.052  10.765  0.7713 -0.6033 -0.3947
  169MOL0     C22232   6.207   6.099  10.727 -0.1878  0.1301 -0.0322
  169MOL0     C22233   6.299   6.144  10.823 -0.7579  0.3040  0.0450
  169MOL0     O22234   6.413   6.194  10.775 -0.6463 -0.0538  0.5446
  169MOL0     C22235   6.508   6.232  10.873  0.2559 -0.6406  0.0768
  169MOL0     C22236   6.643   6.271  10.813 -0.2492 -0.5245 -0.2061
  169MOL0     C22237   6.647   6.370  10.696  0.2087 -0.5863  0.4055
  169MOL0     C22238   6.637   6.308  10.553  0.0481 -0.2016  1.2408
  169MOL0     C22239   6.519   6.330  10.476  0.3804  0.4754  0.4989
  169MOL0     C22240   6.432   6.355  10.397 -0.0679  0.3696  0.5782
  169MOL0     C22241   6.264   6.128  10.959 -0.0274 -0.1144  0.2250
  169MOL0     C22242   6.134   6.080  10.999 -0.6825  0.1365 -0.0333
  169MOL0     H22243   5.688   5.981  10.629  0.4948 -1.4298  0.1170
  169MOL0     H22244   5.452   5.974  10.617 -1.4111  4.1740  0.7250
  169MOL0     H22245   5.241   5.912  10.606  0.0578 -2.3278  1.3941
  169MOL0     H22246   5.189   6.064  10.692  0.9514  0.2022 -0.0181
  169MOL0     H22247   4.984   5.914  10.663  1.1906 -0.4235 -2.3642
  169MOL0     H22248   5.044   5.906  10.827 -0.4209  0.3795  0.0295
  169MOL0     H22249   5.176   5.680  10.748  0.4170 -0.3371 -0.2084
  169MOL0     H22250   5.081   5.701  10.600  0.8334 -0.8544 -0.0366
  169MOL0     H22251   4.958   5.709  10.872  2.3375  1.3060 -0.7436
  169MOL0     H22252   4.878   5.672  10.714  1.7449 -0.0373 -2.9893
  169MOL0     H22253   5.084   5.495  10.847 -0.7876  0.2789  0.5855
  169MOL0     H22254   4.976   5.460  10.704  0.8107 -0.9537  0.6510
  169MOL0     H22255   4.856   5.512  10.990  1.9664 -1.2194  0.7419
  169MOL0     H22256   4.911   5.361  10.915  0.1453  0.2065  2.4934
  169MOL0     H22257   4.701   5.542  10.788  3.3291  0.1673 -2.9760
  169MOL0     H22258   4.749   5.381  10.742 -0.4529  0.6238 -0.8274
  169MOL0     H22259   4.603   5.454  10.996 -2.8642 -2.0818  0.4145
  169MOL0     H22260   4.656   5.287  10.941 -1.6233 -1.6514 -1.1515
  169MOL0     H22261   4.551   5.180  10.750 -0.0577  0.4801 -1.8671
  169MOL0     H22262   4.309   5.106  10.645 -0.4503 -0.2557 -0.8767
  169MOL0     H22263   4.362   5.197  10.493 -1.0127 -1.9280 -1.5100
  169MOL0     H22264   4.166   5.335  10.502  0.9195 -0.4921 -0.9078
  169MOL0     H22265   4.088   5.233  10.619 -2.1699 -1.5116 -0.4607
  169MOL0     H22266   4.172   5.131  10.341  1.2814 -0.2523  0.9420
  169MOL0     H22267   4.100   5.036  10.466 -0.8275 -0.1310  0.9307
  169MOL0     H22268   3.969   5.161  10.272  1.0516  2.6830  0.2579
  169MOL0     H22269   3.969   5.287  10.398  2.4741 -1.1246  3.6977
  169MOL0     H22270   3.659   5.174  10.601  1.9181 -2.0131 -1.7618
  169MOL0     H22271   3.429   5.246  10.545 -1.1152 -1.5794 -0.4912
  169MOL0     H22272   3.029   5.435  10.423  0.5887  0.5243 -1.4058
  169MOL0     H22273   2.827   5.457  10.315  2.8888  2.1518 -0.3265
  169MOL0     H22274   2.553   5.373  10.116  0.1973 -2.4924 -2.2706
  169MOL0     H22275   2.628   5.349  10.275 -2.6644  1.7892 -0.3352
  169MOL0     H22276   2.599   5.122  10.263  0.5501 -0.6134 -2.6193
  169MOL0     H22277   2.619   5.124  10.086  0.2544 -0.2950 -0.8788
  169MOL0     H22278   2.393   5.253  10.084 -1.9995 -1.0984 -0.1181
  169MOL0     H22279   2.394   5.237  10.261 -0.3433  1.2430 -1.6579
  169MOL0     H22280   2.381   4.990  10.082 -0.3197 -0.3202  0.0360
  169MOL0     H22281   2.372   5.002  10.264  0.5170  0.8548  0.8034
  169MOL0     H22282   2.154   5.094  10.231  0.1671 -3.4987  1.7422
  169MOL0     H22283   2.182   4.953  10.138 -0.6529 -0.2347  2.0025
  169MOL0     H22284   2.249   5.111   9.943  0.5670  1.9059 -0.5688
  169MOL0     H22285   2.152   5.228  10.039 -1.2314 -0.5315 -0.4093
  169MOL0     H22286   2.067   4.978   9.911 -0.5190 -1.0456 -0.2594
  169MOL0     H22287   1.964   5.047  10.035  1.3862  0.0379  0.4201
  169MOL0     H22288   1.884   5.139   9.814 -0.0478  2.9951 -0.9544
  169MOL0     H22289   2.047   5.201   9.774 -3.4249  2.4806 -2.5663
  169MOL0     H22290   2.920   5.136  10.042  0.1068  0.1336 -0.9611
  169MOL0     H22291   3.159   5.114  10.183  0.9224  0.7115 -0.1200
  169MOL0     H22292   3.544   5.243  10.129  0.1051 -2.1535 -0.3075
  169MOL0     H22293   3.765   5.174  10.183  0.1385 -1.6133 -0.2797
  169MOL0     H22294   5.407   5.942  11.034 -2.1419 -0.0659 -2.2399
  169MOL0     H22295   5.661   5.931  11.052  0.6575  3.7048 -0.0686
  169MOL0     H22296   6.020   6.028  10.681  2.5454 -3.3707 -1.0726
  169MOL0     H22297   6.225   6.121  10.622 -0.1679  2.7527  0.4518
  169MOL0     H22298   6.527   6.153  10.946 -0.8659  0.6724  1.9039
  169MOL0     H22299   6.468   6.314  10.934  0.0602 -0.7793  0.1359
  169MOL0     H22300   6.704   6.308  10.896  2.5079 -1.0325 -1.8822
  169MOL0     H22301   6.694   6.179  10.782  3.4448  0.4857  2.2329
  169MOL0     H22302   6.744   6.419  10.699  1.3201 -2.5810 -0.5751
  169MOL0     H22303   6.571   6.447  10.712 -1.5027 -2.4086  1.5562
  169MOL0     H22304   6.712   6.348  10.483 -0.3556 -0.3433  0.7246
  169MOL0     H22305   6.672   6.205  10.549  0.9717  0.1303  0.2673
  169MOL0     H22306   6.353   6.383  10.330 -2.1118 -1.0389  2.2545
  169MOL0     H22307   6.336   6.145  11.038 -0.5315 -2.7421  1.3737
  169MOL0     H22308   6.125   6.050  11.103  2.2228 -2.1141 -0.2981
  170MOL0     O22309   7.617   3.533   6.045  0.1135  0.9408  0.5778
  170MOL0     C22310   7.642   3.571   6.156  0.8294  0.5099 -0.3479
  170MOL0     O22311   7.571   3.539   6.270  0.6484  0.0373 -0.8082
  170MOL0     C22312   7.481   3.437   6.260  0.2401 -1.2675 -0.0062
  170MOL0     C22313   7.501   3.349   6.366  0.8423 -0.0801 -0.3791
  170MOL0     C22314   7.432   3.234   6.387  0.0668  0.3576 -0.3481
  170MOL0     C22315   7.325   3.206   6.299  0.3593  0.1740 -0.2293
  170MOL0     O22316   7.251   3.090   6.320 -0.1529  0.1280  0.1817
  170MOL0     C22317   7.106   3.079   6.277 -0.7823  0.5309 -0.1887
  170MOL0     C22318   7.090   3.006   6.145  0.1551 -0.8684  0.0416
  170MOL0     C22319   6.949   2.969   6.100  0.4366  0.1863 -0.1464
  170MOL0     C22320   6.954   2.903   5.961  0.1901  0.6212  0.0127
  170MOL0     C22321   7.061   2.789   5.953  0.3558 -0.0072 -0.4357
  170MOL0     C22322   7.008   2.690   5.862 -0.0303  0.4406  1.2624
  170MOL0     C22323   7.096   2.568   5.835  0.8156  0.2347 -0.1572
  170MOL0     C22324   7.084   2.465   5.957  0.0015 -0.4773 -0.1699
  170MOL0     N22325   6.943   2.424   5.975 -0.9658 -0.8228 -0.7138
  170MOL0     C22326   6.875   2.335   5.896  0.8012  0.1040 -0.6900
  170MOL0     C22327   6.751   2.336   5.954 -0.6758 -0.7537  0.5780
  170MOL0     C22328   6.648   2.238   5.915  0.0351 -1.0979  0.3374
  170MOL0     C22329   6.647   2.100   5.989 -0.0675 -0.4301  0.2383
  170MOL0     C22330   6.650   2.109   6.143 -0.5080  0.1560 -0.6381
  170MOL0     C22331   6.671   1.972   6.221  0.0532  0.1173 -0.0464
  170MOL0     O22332   6.563   1.947   6.310  0.7123 -0.4437  0.7107
  170MOL0     C22333   6.439   1.945   6.252 -0.3067 -1.0373 -0.3311
  170MOL0     C22334   6.410   1.879   6.135 -0.6320 -0.7646 -0.7496
  170MOL0     C22335   6.285   1.901   6.080 -0.1346 -0.0128  0.0780
  170MOL0     C22336   6.186   1.969   6.139  0.5168  0.7033 -0.6484
  170MOL0     C22337   6.051   1.986   6.074 -0.1996  0.2278 -0.1403
  170MOL0     O22338   6.018   1.905   5.983  0.3640 -0.0429 -0.0288
  170MOL0     C22339   5.894   1.910   5.921  1.3535  0.6807  0.8034
  170MOL0     C22340   5.847   2.028   5.852  0.1290 -0.8979  0.5984
  170MOL0     C22341   5.724   2.021   5.788  0.4216  0.0829  0.5797
  170MOL0     C22342   5.644   1.896   5.776  0.6994  0.3581  0.0831
  170MOL0     O22343   5.525   1.879   5.702 -0.2183 -0.2765 -0.5445
  170MOL0     C22344   5.456   2.001   5.679 -0.2853 -0.5077  0.5019
  170MOL0     C22345   5.339   1.968   5.586  1.0956  0.9486  0.1555
  170MOL0     C22346   5.216   1.892   5.641 -0.6191 -0.3131 -0.4968
  170MOL0     C22347   5.107   1.901   5.539 -1.6356  0.0735 -0.2925
  170MOL0     C22348   4.974   1.849   5.600 -0.6135  0.3552  0.1035
  170MOL0     C22349   4.964   1.706   5.627 -0.0384  0.1684  0.1941
  170MOL0     C22350   4.978   1.616   5.506 -0.0670  0.3248 -0.2059
  170MOL0     C22351   4.914   1.482   5.524  0.4629  0.3749  0.5206
  170MOL0    Cl22352   4.936   1.387   5.383  0.1448 -0.2193 -0.1064
  170MOL0     C22353   5.701   1.783   5.827  1.4705  0.3610 -1.2201
  170MOL0     C22354   5.815   1.795   5.906  0.1728  0.0388 -0.4648
  170MOL0     O22355   5.974   2.065   6.126 -0.4340 -0.4275  0.2877
  170MOL0     C22356   6.217   2.030   6.263  0.9241 -0.2842  0.8989
  170MOL0     C22357   6.346   2.023   6.313  0.9138  0.0014  0.6118
  170MOL0     N22358   6.752   2.437   6.051  0.0024  0.9906 -0.3929
  170MOL0     N22359   6.870   2.488   6.072  0.2376 -0.1123 -0.3619
  170MOL0     C22360   7.285   3.302   6.207  0.3009 -0.0240 -0.4272
  170MOL0     C22361   7.363   3.418   6.188 -0.4506  0.4786  0.9421
  170MOL0     C22362   7.769   3.637   6.183  1.0481 -0.5849 -0.7870
  170MOL0     C22363   7.866   3.652   6.087  1.0132 -0.1759 -0.0537
  170MOL0     C22364   7.993   3.704   6.110 -0.7709 -0.5395 -0.3066
  170MOL0     C22365   8.032   3.726   6.238 -0.1097  0.0987 -0.9609
  170MOL0     O22366   8.162   3.778   6.240  0.0474  0.1121  0.1391
  170MOL0     C22367   8.202   3.804   6.377  0.2287  0.0178  0.5480
  170MOL0     C22368   8.349   3.853   6.386 -0.5801  0.5317 -0.5220
  170MOL0     C22369   8.454   3.743   6.363  0.0890  0.1535  0.4512
  170MOL0     C22370   8.585   3.811   6.321  0.4483 -1.2415  0.1773
  170MOL0     C22371   8.581   3.848   6.176  0.0926  0.2561  1.0975
  170MOL0     C22372   8.565   3.887   6.061 -0.1658 -0.5866  0.3113
  170MOL0     C22373   7.941   3.708   6.344  0.1651  0.4167  0.1453
  170MOL0     C22374   7.812   3.651   6.321 -0.2925 -0.0503  0.0793
  170MOL0     H22375   7.575   3.387   6.435 -0.2861  0.1631  0.7343
  170MOL0     H22376   7.458   3.162   6.464  2.5300 -0.2195 -1.5981
  170MOL0     H22377   7.050   3.173   6.275 -3.3168 -0.8852 -2.6906
  170MOL0     H22378   7.055   3.020   6.354 -2.8673  1.9982 -0.3504
  170MOL0     H22379   7.142   2.912   6.165 -0.5052 -0.8994  1.7991
  170MOL0     H22380   7.142   3.068   6.071  0.9201  0.6273  1.7460
  170MOL0     H22381   6.884   3.057   6.096 -2.9874 -2.2248 -2.4505
  170MOL0     H22382   6.898   2.908   6.175  0.8974  0.1281  0.1270
  170MOL0     H22383   6.850   2.875   5.940 -0.8761  2.7550  2.0490
  170MOL0     H22384   6.980   2.974   5.882 -1.4605  0.8455 -0.3742
  170MOL0     H22385   7.075   2.739   6.050  0.6654  0.1619 -0.3899
  170MOL0     H22386   7.157   2.835   5.928 -0.2188  0.6238 -1.5468
  170MOL0     H22387   7.006   2.728   5.759 -0.7090 -2.4653  0.1174
  170MOL0     H22388   6.903   2.665   5.877 -1.2173  2.6585 -2.0925
  170MOL0     H22389   7.055   2.514   5.749  0.3873 -0.5898  0.5467
  170MOL0     H22390   7.202   2.586   5.816  0.4735  0.7850 -1.6251
  170MOL0     H22391   7.122   2.506   6.051  2.7856 -0.8740 -1.0172
  170MOL0     H22392   7.150   2.380   5.940  3.8837  1.9634  1.3457
  170MOL0     H22393   6.915   2.263   5.825 -0.2818  0.1434 -1.3637
  170MOL0     H22394   6.658   2.227   5.807 -1.7134 -4.2616  0.3584
  170MOL0     H22395   6.547   2.282   5.920 -1.2868 -2.8974 -4.4861
  170MOL0     H22396   6.736   2.049   5.950 -1.5531 -1.6042 -1.8160
  170MOL0     H22397   6.553   2.052   5.961  0.8870 -0.3831 -3.6186
  170MOL0     H22398   6.721   2.182   6.183 -0.6381 -0.6108  1.0783
  170MOL0     H22399   6.552   2.152   6.168 -1.0843 -0.7235 -1.3127
  170MOL0     H22400   6.770   1.994   6.263  1.1678  4.3937 -4.1533
  170MOL0     H22401   6.694   1.895   6.146  1.5783  1.7943 -1.3714
  170MOL0     H22402   6.491   1.823   6.091 -0.5336  0.3587 -2.0679
  170MOL0     H22403   6.271   1.854   5.983 -2.6792 -1.1352  0.9213
  170MOL0     H22404   5.907   2.117   5.836  2.2283 -1.8431  2.5995
  170MOL0     H22405   5.683   2.113   5.748 -1.7282 -0.8190  0.5583
  170MOL0     H22406   5.531   2.060   5.624  0.3310 -0.9501  0.8558
  170MOL0     H22407   5.423   2.055   5.768 -0.8762  0.1186 -0.0879
  170MOL0     H22408   5.375   1.902   5.506  2.0496  2.8576 -1.0614
  170MOL0     H22409   5.320   2.068   5.547  3.0226  1.0519 -0.6494
  170MOL0     H22410   5.188   1.955   5.726  0.1711  1.6591 -1.6202
  170MOL0     H22411   5.236   1.788   5.669  2.2455  0.0427 -0.8596
  170MOL0     H22412   5.110   2.002   5.499 -0.7566 -0.0257 -0.4975
  170MOL0     H22413   5.135   1.845   5.449 -0.5296 -2.0496  1.2872
  170MOL0     H22414   4.896   1.893   5.537  0.0389  0.4841 -0.6122
  170MOL0     H22415   4.966   1.899   5.697 -1.6204  1.0141 -0.3059
  170MOL0     H22416   4.870   1.680   5.677 -0.0547 -0.1683 -0.0024
  170MOL0     H22417   5.045   1.678   5.695  0.3393 -2.2073 -1.1110
  170MOL0     H22418   4.942   1.670   5.418  2.2535 -0.8883 -2.0216
  170MOL0     H22419   5.086   1.604   5.488 -0.2990 -0.9126 -0.9238
  170MOL0     H22420   4.806   1.490   5.541  0.4020 -1.2391  0.9771
  170MOL0     H22421   4.963   1.428   5.605  1.2371 -0.0712 -0.2362
  170MOL0     H22422   5.638   1.694   5.826  1.0808  0.4088  2.6478
  170MOL0     H22423   5.836   1.716   5.977 -1.3198  0.9550  1.0740
  170MOL0     H22424   6.136   2.086   6.308 -2.0464 -1.6190 -2.3376
  170MOL0     H22425   6.368   2.067   6.410  1.7568 -0.9940  0.8919
  170MOL0     H22426   7.198   3.282   6.145 -1.3374  0.1149  1.6925
  170MOL0     H22427   7.336   3.483   6.105  1.3517 -1.6053 -1.4395
  170MOL0     H22428   7.851   3.637   5.981  4.2863  1.0173 -0.7881
  170MOL0     H22429   8.070   3.722   6.036  0.2919  1.5404  1.2114
  170MOL0     H22430   8.174   3.721   6.442 -0.3288 -0.1236  0.1355
  170MOL0     H22431   8.140   3.891   6.404  0.6219  1.4007 -2.5251
  170MOL0     H22432   8.366   3.934   6.315  1.1233  0.9316  0.2778
  170MOL0     H22433   8.362   3.895   6.486 -0.1364 -2.7227  0.9266
  170MOL0     H22434   8.417   3.666   6.295 -0.2267  0.4307  0.3073
  170MOL0     H22435   8.478   3.691   6.457  1.6968 -2.2940 -1.1723
  170MOL0     H22436   8.599   3.905   6.376  1.5037 -1.2038 -0.1344
  170MOL0     H22437   8.665   3.742   6.349  0.1661 -1.0403  1.5819
  170MOL0     H22438   8.575   3.914   5.958  1.7555  3.1548  1.2738
  170MOL0     H22439   7.976   3.731   6.445  1.2089 -0.2885 -0.0434
  170MOL0     H22440   7.740   3.642   6.402  0.1945  1.3957  0.7089
  171MOL0     O22441   8.991   4.561   7.575 -0.7794  0.1483 -0.0864
  171MOL0     C22442   8.979   4.666   7.651  0.1828  1.2657  1.0750
  171MOL0     O22443   8.869   4.751   7.653  0.0505  0.5573  0.0275
  171MOL0     C22444   8.781   4.734   7.552  0.4937 -0.6980  0.4741
  171MOL0     C22445   8.813   4.764   7.415 -0.5239 -0.3922  0.3447
  171MOL0     C22446   8.703   4.777   7.328 -0.3066  1.1023 -0.2085
  171MOL0     C22447   8.570   4.759   7.362 -0.1119 -0.6466  0.2502
  171MOL0     O22448   8.482   4.758   7.259 -0.7412  0.9810 -0.0267
  171MOL0     C22449   8.345   4.781   7.304 -0.5277  0.1886 -0.1415
  171MOL0     C22450   8.270   4.651   7.328  0.2836  0.7026 -0.0924
  171MOL0     C22451   8.121   4.665   7.292 -0.1289 -0.4274 -0.1356
  171MOL0     C22452   8.041   4.751   7.393  0.8476 -0.4165 -0.1160
  171MOL0     C22453   7.902   4.780   7.329 -0.2524  0.3982 -0.8199
  171MOL0     C22454   7.812   4.671   7.317  0.7029  0.8458  0.2138
  171MOL0     C22455   7.682   4.712   7.241  0.1358 -0.1402 -0.5371
  171MOL0     C22456   7.595   4.817   7.308 -0.0944  0.3037 -0.1071
  171MOL0     N22457   7.453   4.796   7.289 -0.3187  0.4061 -0.3351
  171MOL0     C22458   7.383   4.820   7.178  0.6125 -0.3282  0.5114
  171MOL0     C22459   7.255   4.829   7.220 -0.0614 -0.4860 -0.1314
  171MOL0     C22460   7.140   4.848   7.127  0.0117 -0.3370 -0.3156
  171MOL0     C22461   7.098   4.711   7.079 -0.0270  0.7257  0.2434
  171MOL0     C22462   6.984   4.650   7.167  0.3452  0.4738 -0.1465
  171MOL0     C22463   6.952   4.509   7.127 -0.7079  0.7576 -0.2613
  171MOL0     O22464   6.899   4.446   7.246  0.6902  0.3338  0.3838
  171MOL0     C22465   6.835   4.323   7.234 -0.7119  0.2621  0.0924
  171MOL0     C22466   6.758   4.288   7.343  0.5026  1.1633 -0.3718
  171MOL0     C22467   6.688   4.164   7.342  0.2784 -0.3059 -1.0294
  171MOL0     C22468   6.678   4.092   7.219  0.5265 -0.5802  0.7775
  171MOL0     C22469   6.581   3.981   7.206 -0.0757  0.7968  0.8112
  171MOL0     O22470   6.496   3.994   7.106 -0.2172  0.5224  0.6639
  171MOL0     C22471   6.420   3.896   7.049 -0.2157  0.0836 -0.4617
  171MOL0     C22472   6.425   3.761   7.072 -0.2835  0.1233 -0.5455
  171MOL0     C22473   6.356   3.665   6.997 -0.0273  0.5554  0.1202
  171MOL0     C22474   6.255   3.709   6.908  0.9162 -0.9416 -0.8266
  171MOL0     O22475   6.161   3.628   6.840  0.1001  0.8623  0.1529
  171MOL0     C22476   6.137   3.504   6.910 -0.1854 -0.3177  0.1246
  171MOL0     C22477   6.012   3.419   6.869 -0.8049 -1.0174  0.5602
  171MOL0     C22478   6.006   3.395   6.715  0.1609 -0.2185  0.3712
  171MOL0     C22479   5.885   3.318   6.653  0.4098  0.3125 -0.4316
  171MOL0     C22480   5.794   3.396   6.567 -0.2104  0.2419 -0.2716
  171MOL0     C22481   5.671   3.318   6.508 -1.0031  0.2351  0.6668
  171MOL0     C22482   5.570   3.274   6.610  0.1070  0.0732 -0.2667
  171MOL0     C22483   5.430   3.265   6.555 -0.4873 -0.7048 -1.0502
  171MOL0    Cl22484   5.420   3.149   6.413  0.0480 -0.2187  0.3797
  171MOL0     C22485   6.253   3.844   6.868  0.4594  0.5306  0.4108
  171MOL0     C22486   6.335   3.935   6.940 -0.8742 -0.2748 -0.1253
  171MOL0     O22487   6.595   3.882   7.274 -0.3900 -0.1157 -0.5426
  171MOL0     C22488   6.740   4.139   7.100  0.2780 -0.2429 -0.6412
  171MOL0     C22489   6.826   4.250   7.114  0.8067  0.7205 -0.2010
  171MOL0     N22490   7.244   4.827   7.354 -0.1049  0.3413  0.1405
  171MOL0     N22491   7.371   4.800   7.395  0.1225  0.3123 -0.7224
  171MOL0     C22492   8.546   4.732   7.498  1.1329  0.7627 -0.1921
  171MOL0     C22493   8.651   4.711   7.590 -0.7153 -0.3604 -0.3123
  171MOL0     C22494   9.080   4.693   7.752  0.3310 -0.2770  0.4226
  171MOL0     C22495   9.070   4.806   7.827  0.6676  0.2827 -0.7913
  171MOL0     C22496   9.174   4.845   7.912 -0.0474  0.4465 -0.0993
  171MOL0     C22497   9.285   4.762   7.922 -0.3710 -0.3501 -0.1008
  171MOL0     O22498   9.391   4.796   8.001 -0.2575  0.2692 -0.0263
  171MOL0     C22499   9.401   4.922   8.074  0.3528  0.0372 -0.1773
  171MOL0     C22500   9.310   4.908   8.209 -0.3213 -0.4422  0.2740
  171MOL0     C22501   9.267   5.040   8.275 -0.1621  0.2820  0.1228
  171MOL0     C22502   9.383   5.086   8.355 -0.8182 -1.0386 -0.1539
  171MOL0     C22503   9.341   5.229   8.384 -0.0026  0.0273 -0.1119
  171MOL0     C22504   9.312   5.347   8.409 -0.3478  0.5435 -0.3591
  171MOL0     C22505   9.302   4.649   7.842 -0.0248  0.3229 -0.2153
  171MOL0     C22506   9.195   4.617   7.753  0.2663  0.1867 -0.5509
  171MOL0     H22507   8.913   4.793   7.384 -0.7398 -0.0190 -0.0125
  171MOL0     H22508   8.727   4.808   7.227  1.5234  1.0605  0.1701
  171MOL0     H22509   8.291   4.836   7.226  0.3073 -3.5259 -3.6986
  171MOL0     H22510   8.330   4.844   7.392 -0.1955  0.2090 -0.0966
  171MOL0     H22511   8.272   4.607   7.428  5.6157 -4.1708 -1.7903
  171MOL0     H22512   8.321   4.582   7.260  4.1832  2.5158  0.7462
  171MOL0     H22513   8.089   4.561   7.309  0.0611 -0.2664  1.3834
  171MOL0     H22514   8.111   4.684   7.185  2.3075 -0.2766 -0.4111
  171MOL0     H22515   8.020   4.704   7.490 -0.9403 -0.3777 -0.4575
  171MOL0     H22516   8.094   4.846   7.402 -0.9352  0.7108 -0.8219
  171MOL0     H22517   7.918   4.826   7.231 -1.1504  2.0672 -0.2286
  171MOL0     H22518   7.861   4.856   7.397 -0.9236 -0.2836 -0.4460
  171MOL0     H22519   7.781   4.628   7.413 -0.7649 -0.9691 -0.9806
  171MOL0     H22520   7.863   4.590   7.264  1.2612  1.0018  0.5035
  171MOL0     H22521   7.713   4.746   7.141 -0.8071  0.2877 -0.6901
  171MOL0     H22522   7.624   4.620   7.229 -0.6022  0.1395  0.7509
  171MOL0     H22523   7.628   4.918   7.285  3.3755  0.1084  3.1120
  171MOL0     H22524   7.609   4.802   7.415 -0.4531  0.8446  0.0190
  171MOL0     H22525   7.417   4.828   7.075 -2.3678  3.5041 -0.3913
  171MOL0     H22526   7.183   4.902   7.041  1.2935 -0.8446 -0.0179
  171MOL0     H22527   7.055   4.902   7.169 -0.4021 -3.4657  3.3621
  171MOL0     H22528   7.192   4.656   7.071 -0.2838  0.4416 -0.9884
  171MOL0     H22529   7.064   4.719   6.975 -1.1696 -1.3695  0.4005
  171MOL0     H22530   7.013   4.654   7.273 -0.5221 -1.2735  0.1865
  171MOL0     H22531   6.889   4.701   7.148  0.2061 -0.5241 -2.4579
  171MOL0     H22532   7.043   4.455   7.099 -0.7140  0.2529  0.6357
  171MOL0     H22533   6.877   4.512   7.048 -0.4376 -1.1223 -0.6289
  171MOL0     H22534   6.743   4.353   7.428 -2.7823 -1.4043  1.2236
  171MOL0     H22535   6.644   4.134   7.437  0.7241 -0.9493 -1.0222
  171MOL0     H22536   6.485   3.711   7.147 -2.2832 -0.0907  1.0004
  171MOL0     H22537   6.362   3.561   7.029  1.6686  0.4254 -0.5415
  171MOL0     H22538   6.128   3.541   7.012  0.8353  1.4699 -0.3857
  171MOL0     H22539   6.221   3.434   6.905 -0.1426 -0.1775 -2.6983
  171MOL0     H22540   5.922   3.470   6.905 -1.4588 -1.8891  0.1966
  171MOL0     H22541   6.024   3.324   6.922  1.2500  0.0829  2.1823
  171MOL0     H22542   6.098   3.353   6.673  0.0473 -0.3579  0.2591
  171MOL0     H22543   6.002   3.497   6.676 -0.8241  1.2205  3.8358
  171MOL0     H22544   5.916   3.227   6.602  3.2871 -1.3139  3.6927
  171MOL0     H22545   5.831   3.273   6.737  0.2780 -0.1715 -0.7646
  171MOL0     H22546   5.849   3.429   6.478 -1.1004  0.1298 -0.8832
  171MOL0     H22547   5.768   3.491   6.615  2.1819  0.5929  0.4464
  171MOL0     H22548   5.705   3.239   6.441 -1.8936  0.7736 -0.4536
  171MOL0     H22549   5.621   3.394   6.448  1.1437  1.8266  0.7502
  171MOL0     H22550   5.597   3.176   6.650 -0.6759 -0.4632 -1.0134
  171MOL0     H22551   5.566   3.341   6.697  1.1763  0.0238 -0.1742
  171MOL0     H22552   5.383   3.363   6.546 -2.6061 -1.3301  1.7697
  171MOL0     H22553   5.379   3.207   6.633  0.5575  0.3394  0.4521
  171MOL0     H22554   6.189   3.859   6.782  0.4929 -0.6968  0.1647
  171MOL0     H22555   6.319   4.042   6.926 -0.4123  0.3195  3.1447
  171MOL0     H22556   6.705   4.092   7.009 -2.5163  1.8362 -0.7750
  171MOL0     H22557   6.864   4.292   7.021 -1.3614  3.9533  0.1678
  171MOL0     H22558   8.444   4.710   7.529  1.6893 -0.6804  0.7291
  171MOL0     H22559   8.631   4.716   7.697 -0.5500 -1.2631 -0.2326
  171MOL0     H22560   8.988   4.876   7.823 -0.6875 -1.2642 -1.5561
  171MOL0     H22561   9.162   4.942   7.959 -1.1050 -0.6011  1.9083
  171MOL0     H22562   9.362   5.008   8.019  0.9646  1.3954  1.4444
  171MOL0     H22563   9.502   4.944   8.108  0.0135  1.3678 -0.0053
  171MOL0     H22564   9.216   4.859   8.182 -0.2094 -0.3541 -0.2907
  171MOL0     H22565   9.359   4.841   8.280 -0.0712 -2.8400 -1.9963
  171MOL0     H22566   9.179   5.027   8.338 -0.5162 -1.1592 -0.6108
  171MOL0     H22567   9.230   5.102   8.193  1.0059 -0.9803 -1.4339
  171MOL0     H22568   9.386   5.031   8.450  3.4135 -0.8076  0.0359
  171MOL0     H22569   9.481   5.103   8.310 -0.8207  2.7101  0.8986
  171MOL0     H22570   9.276   5.445   8.432 -1.8524  0.1389 -0.8642
  171MOL0     H22571   9.381   4.574   7.838  0.4600  0.8581 -0.6784
  171MOL0     H22572   9.218   4.529   7.694 -2.9141 -0.9947 -0.2310
  172MOL0     O22573   3.922   0.035   3.541  0.2122  0.6453  0.0121
  172MOL0     C22574   3.989   0.121   3.486  0.7649 -0.0337  0.4150
  172MOL0     O22575   3.949   0.236   3.416 -0.6458 -0.3602  0.6740
  172MOL0     C22576   3.821   0.273   3.403 -0.4552 -0.0132  0.0401
  172MOL0     C22577   3.757   0.333   3.508  0.2129  0.2337 -0.1904
  172MOL0     C22578   3.618   0.356   3.505 -0.4472  0.5519  0.6075
  172MOL0     C22579   3.542   0.327   3.390  1.3534  0.5752  1.0651
  172MOL0     O22580   3.404   0.357   3.369 -0.4771  0.6975  0.8369
  172MOL0     C22581   3.347   0.457   3.457  0.6092 -0.5816  0.5112
  172MOL0     C22582   3.267   0.396   3.576 -0.5121 -0.0072 -0.7941
  172MOL0     C22583   3.167   0.295   3.530 -0.0222  0.1536  0.0503
  172MOL0     C22584   3.222   0.154   3.536 -0.5349  0.9062  0.3794
  172MOL0     C22585   3.121   0.046   3.486  0.7486 -0.9685  0.2715
  172MOL0     C22586   3.097   0.052   3.325 -0.6724 -0.1939  0.3375
  172MOL0     C22587   3.218   0.087   3.233 -0.0664 -0.1201 -0.2399
  172MOL0     C22588   3.179   0.059   3.092  1.0415 -0.5132  0.7480
  172MOL0     N22589   3.266   0.145   2.988  0.1187  0.2066  0.1703
  172MOL0     C22590   3.400   0.123   2.976  0.0398  0.7574 -0.2105
  172MOL0     C22591   3.446   0.232   2.917 -0.4219 -0.1303  0.7923
  172MOL0     C22592   3.595   0.259   2.893  0.4611 -0.2491 -0.6050
  172MOL0     C22593   3.660   0.140   2.849  0.3077  0.5524 -0.1748
  172MOL0     C22594   3.777   0.161   2.760 -0.5094  0.4007 -0.8782
  172MOL0     C22595   3.895   0.229   2.822 -0.0297 -0.2649  0.3316
  172MOL0     O22596   3.956   0.157   2.935  0.4092 -0.0624  0.2368
  172MOL0     C22597   4.083   0.196   2.963  0.2671  0.3056  0.4395
  172MOL0     C22598   4.133   0.325   2.986 -0.1699 -0.8463 -0.7320
  172MOL0     C22599   4.264   0.352   3.016  0.5416  0.2501  0.6362
  172MOL0     C22600   4.359   0.248   2.985  0.6718 -0.1831 -0.1410
  172MOL0     C22601   4.496   0.261   3.014 -2.3639  0.0744  0.6039
  172MOL0     O22602   4.593   0.152   3.000  0.2589 -0.2865 -0.1339
  172MOL0     C22603   4.727   0.167   3.039  0.2752 -0.4677  0.1594
  172MOL0     C22604   4.758   0.160   3.173 -0.8067 -1.0915 -1.1098
  172MOL0     C22605   4.888   0.173   3.228 -0.3749 -1.4451  0.7790
  172MOL0     C22606   4.987   0.209   3.140  0.2689 -0.4749 -0.1429
  172MOL0     O22607   5.124   0.217   3.172  1.0708 -0.4929 -0.0299
  172MOL0     C22608   5.183   0.171   3.300 -0.4754 -0.8871  1.3085
  172MOL0     C22609   5.333   0.180   3.304  0.1592 -0.0873  0.6482
  172MOL0     C22610   5.377   0.314   3.355 -0.3722 -1.4703  0.5945
  172MOL0     C22611   5.499   0.370   3.270 -0.1360 -1.2536 -0.5639
  172MOL0     C22612   5.528   0.521   3.295  0.1162  0.3496  0.8134
  172MOL0     C22613   5.665   0.570   3.250  0.2012 -0.6749  0.0310
  172MOL0     C22614   5.677   0.566   3.096 -0.0444 -0.0346 -1.3936
  172MOL0     C22615   5.805   0.623   3.053  0.0831 -0.3529 -0.4031
  172MOL0    Cl22616   5.814   0.656   2.869  0.4815  0.0031 -0.7644
  172MOL0     C22617   4.957   0.215   2.998  0.2893 -0.0229  0.1148
  172MOL0     C22618   4.823   0.199   2.950 -0.8548  0.4522  0.6956
  172MOL0     O22619   4.539   0.377   3.043 -0.1663 -0.6202  0.2608
  172MOL0     C22620   4.315   0.123   2.956  0.0469  0.0538  1.0715
  172MOL0     C22621   4.185   0.093   2.957  0.4844  0.3403 -1.0808
  172MOL0     N22622   3.342   0.315   2.881  0.7104 -0.0871  0.6521
  172MOL0     N22623   3.234   0.257   2.925 -0.1169 -0.6906  0.5537
  172MOL0     C22624   3.604   0.261   3.284 -0.3923 -0.8823 -0.4615
  172MOL0     C22625   3.741   0.239   3.289 -0.2019 -0.7131 -0.8923
  172MOL0     C22626   4.134   0.092   3.465 -0.0091 -0.2494  0.5331
  172MOL0     C22627   4.203   0.139   3.353 -0.0190  0.2177  0.9550
  172MOL0     C22628   4.345   0.109   3.348 -0.4456  0.3484 -0.5692
  172MOL0     C22629   4.414   0.039   3.450 -1.0764  0.0606  0.4388
  172MOL0     O22630   4.549   0.018   3.420 -0.1540  0.2194 -1.0787
  172MOL0     C22631   4.625  -0.071   3.499 -0.4416 -0.0416 -0.4660
  172MOL0     C22632   4.662  -0.003   3.625  0.4641  0.5430 -1.0207
  172MOL0     C22633   4.754   0.123   3.605  0.0552  0.6949 -0.0715
  172MOL0     C22634   4.777   0.201   3.730 -0.0304  0.6836 -0.0147
  172MOL0     C22635   4.649   0.241   3.787 -0.7981  0.3503 -0.7676
  172MOL0     C22636   4.540   0.265   3.838  0.0567 -0.6703 -0.2799
  172MOL0     C22637   4.332  -0.016   3.556  0.4963  0.8659  0.5170
  172MOL0     C22638   4.194   0.011   3.560 -0.4022  0.2039 -0.7856
  172MOL0     H22639   3.814   0.355   3.597  1.8960 -0.5197 -1.0519
  172MOL0     H22640   3.587   0.409   3.595 -0.8955  0.5667  0.4504
  172MOL0     H22641   3.277   0.512   3.393  1.0073  0.3427  0.8595
  172MOL0     H22642   3.427   0.525   3.487 -0.6993  1.5450 -0.5996
  172MOL0     H22643   3.211   0.482   3.612 -3.6872 -1.0718 -2.7932
  172MOL0     H22644   3.323   0.356   3.661 -0.3672  2.7000  0.4747
  172MOL0     H22645   3.130   0.316   3.429 -0.6379  1.0965  0.4556
  172MOL0     H22646   3.080   0.300   3.596  1.1877 -0.5995  1.7732
  172MOL0     H22647   3.308   0.148   3.469 -0.4202  0.4185  0.5712
  172MOL0     H22648   3.252   0.133   3.639  0.0361  0.3645  0.1100
  172MOL0     H22649   3.026   0.066   3.535  2.3820  0.3828  3.1226
  172MOL0     H22650   3.158  -0.053   3.515  1.7687 -0.2987  1.3519
  172MOL0     H22651   3.027   0.136   3.319  1.9513  2.2824  1.6102
  172MOL0     H22652   3.048  -0.039   3.292  0.3179 -0.7027  0.2244
  172MOL0     H22653   3.250   0.189   3.254  1.8786 -0.6322 -0.5451
  172MOL0     H22654   3.309   0.030   3.252 -0.1689 -0.8569 -1.8213
  172MOL0     H22655   3.079   0.089   3.060  2.2499  1.2402 -1.7069
  172MOL0     H22656   3.193  -0.047   3.070 -1.5437 -1.0006  1.2193
  172MOL0     H22657   3.462   0.036   2.996  1.2337  1.3083 -1.3603
  172MOL0     H22658   3.650   0.283   2.984  0.2395 -1.9357 -0.0059
  172MOL0     H22659   3.601   0.336   2.814  1.8470  0.1175 -0.1612
  172MOL0     H22660   3.591   0.092   2.779  0.5057  1.6989 -1.2069
  172MOL0     H22661   3.672   0.068   2.930 -1.6452 -2.7462 -2.5656
  172MOL0     H22662   3.808   0.066   2.718 -1.9079  0.0351 -1.1429
  172MOL0     H22663   3.741   0.227   2.680 -2.1850 -0.3704 -0.8018
  172MOL0     H22664   3.877   0.333   2.852  1.5461 -0.0773  0.7549
  172MOL0     H22665   3.966   0.239   2.740 -0.3698 -1.9656 -0.2137
  172MOL0     H22666   4.077   0.418   2.984  0.9544 -0.1331 -0.1770
  172MOL0     H22667   4.292   0.454   3.038 -3.1729  1.0465  2.3924
  172MOL0     H22668   4.673   0.143   3.238 -1.7836  1.4706 -1.6043
  172MOL0     H22669   4.918   0.158   3.332  0.2834 -0.1343  0.7983
  172MOL0     H22670   5.150   0.067   3.312 -1.4637 -0.6278  0.9374
  172MOL0     H22671   5.134   0.215   3.388  0.4619 -0.7455  1.7665
  172MOL0     H22672   5.376   0.156   3.206  0.8933  1.7751  0.4629
  172MOL0     H22673   5.366   0.096   3.365 -1.3943 -1.8423 -0.8128
  172MOL0     H22674   5.414   0.297   3.457  0.6214 -0.5562  0.4067
  172MOL0     H22675   5.297   0.389   3.353 -0.0815 -1.1665 -0.7702
  172MOL0     H22676   5.585   0.311   3.304 -2.6743 -2.5069  4.6954
  172MOL0     H22677   5.492   0.348   3.163  2.4574 -1.9393 -0.6781
  172MOL0     H22678   5.526   0.527   3.404  0.2769 -2.9212  1.0990
  172MOL0     H22679   5.448   0.585   3.257 -1.0297  0.0904  2.6724
  172MOL0     H22680   5.740   0.510   3.303 -1.2831 -1.4088  1.4031
  172MOL0     H22681   5.670   0.667   3.301  1.0688 -0.9019  0.4121
  172MOL0     H22682   5.671   0.464   3.059  4.8764 -3.7402  5.6859
  172MOL0     H22683   5.599   0.624   3.045  0.7467 -0.0346 -2.6609
  172MOL0     H22684   5.889   0.564   3.091 -1.2341 -3.0457 -1.3420
  172MOL0     H22685   5.809   0.723   3.097 -0.5843 -1.9778  3.7994
  172MOL0     H22686   5.035   0.219   2.923  3.4324 -3.1885  2.8349
  172MOL0     H22687   4.802   0.200   2.844 -0.7980  1.1866  0.6901
  172MOL0     H22688   4.379   0.042   2.923 -1.1923 -0.4917 -0.1060
  172MOL0     H22689   4.144  -0.007   2.962 -2.0530  1.3774  1.2279
  172MOL0     H22690   3.547   0.232   3.196 -0.5010 -1.2022 -0.2877
  172MOL0     H22691   3.791   0.187   3.208  2.1162 -0.5806  0.3444
  172MOL0     H22692   4.157   0.199   3.275  0.4056  0.7400  1.1037
  172MOL0     H22693   4.418   0.136   3.273  1.6899  1.5981  1.7730
  172MOL0     H22694   4.722  -0.094   3.454 -0.3721  2.7361 -1.9566
  172MOL0     H22695   4.571  -0.163   3.519  1.7577 -1.7956 -2.1217
  172MOL0     H22696   4.569   0.035   3.669  2.2691  4.6666 -0.3374
  172MOL0     H22697   4.709  -0.073   3.695  2.1509  0.1789 -2.4399
  172MOL0     H22698   4.716   0.186   3.524 -2.9380 -0.8766 -0.0276
  172MOL0     H22699   4.851   0.078   3.584 -0.6553 -2.4393  2.5221
  172MOL0     H22700   4.839   0.147   3.802  1.8745  0.0217 -2.0204
  172MOL0     H22701   4.831   0.291   3.699 -0.8039  1.7996  1.7274
  172MOL0     H22702   4.449   0.303   3.881  0.1010  0.8400 -1.4294
  172MOL0     H22703   4.377  -0.072   3.637 -2.0706 -1.1490  0.6566
  172MOL0     H22704   4.132  -0.042   3.631  0.0854  0.4147 -0.1887
  173MOL0     O22705   0.005   1.382   2.192  0.2814  0.2077 -0.7496
  173MOL0     C22706   0.112   1.363   2.253  0.6597 -0.4114  0.6133
  173MOL0     O22707   0.143   1.383   2.377  0.1980 -0.4477 -0.5188
  173MOL0     C22708   0.055   1.454   2.460  0.4067 -0.2683  0.0181
  173MOL0     C22709   0.080   1.585   2.500  0.0282 -0.5134 -0.2198
  173MOL0     C22710  -0.016   1.659   2.564 -0.1421  0.5085  0.0034
  173MOL0     C22711  -0.132   1.597   2.601  0.8455 -0.5995  0.8090
  173MOL0     O22712  -0.226   1.680   2.650  0.0410  0.0334 -0.1266
  173MOL0     C22713  -0.359   1.633   2.656  0.2025  0.4230  0.4841
  173MOL0     C22714  -0.466   1.745   2.681  0.3079 -0.5089 -0.3751
  173MOL0     C22715  -0.614   1.716   2.644 -0.2790  1.0876  0.3956
  173MOL0     C22716  -0.663   1.584   2.707 -0.7069 -0.2277  0.0776
  173MOL0     C22717  -0.808   1.530   2.655 -0.1181 -0.6267  0.1670
  173MOL0     C22718  -0.813   1.379   2.703  0.4481  0.2972  0.3152
  173MOL0     C22719  -0.933   1.300   2.666 -0.1352 -0.2550  0.2208
  173MOL0     C22720  -1.064   1.347   2.741  0.3753 -0.5196  0.0040
  173MOL0     N22721  -1.177   1.249   2.716 -0.1584 -0.0229  0.5335
  173MOL0     C22722  -1.179   1.116   2.742  0.0328 -0.1367  0.0162
  173MOL0     C22723  -1.309   1.070   2.719  0.0428  0.8212 -0.6954
  173MOL0     C22724  -1.353   0.918   2.734  0.6770 -0.9995 -1.3893
  173MOL0     C22725  -1.243   0.804   2.700  0.0343 -0.0733 -1.1143
  173MOL0     C22726  -1.286   0.668   2.715  0.5994  0.0230  0.7590
  173MOL0     C22727  -1.420   0.632   2.653 -0.1037 -0.0784  0.7090
  173MOL0     O22728  -1.419   0.667   2.515 -0.3489  0.7695 -0.0070
  173MOL0     C22729  -1.531   0.663   2.441  0.4760 -0.4913 -0.5282
  173MOL0     C22730  -1.662   0.631   2.491  0.1100 -0.1636  0.2711
  173MOL0     C22731  -1.770   0.641   2.406  0.5872 -1.5658  0.2825
  173MOL0     C22732  -1.757   0.681   2.268 -0.4004 -0.9803  0.3266
  173MOL0     C22733  -1.874   0.693   2.177  0.2470  0.5661 -0.1625
  173MOL0     O22734  -1.854   0.709   2.045 -0.7928 -0.4253  0.7910
  173MOL0     C22735  -1.964   0.715   1.976  0.5520 -0.1826 -0.4918
  173MOL0     C22736  -2.032   0.602   1.946  0.2541  0.1165  0.1137
  173MOL0     C22737  -2.160   0.603   1.889  0.5466 -1.4692  0.4094
  173MOL0     C22738  -2.218   0.730   1.862  0.3902  0.7074 -0.0170
  173MOL0     O22739  -2.350   0.748   1.817 -0.3947  0.6085  0.4519
  173MOL0     C22740  -2.435   0.631   1.795  0.3096  0.3348  0.2326
  173MOL0     C22741  -2.566   0.705   1.745  0.0938 -0.6365  0.2309
  173MOL0     C22742  -2.683   0.610   1.708 -0.6145  0.7954 -0.6675
  173MOL0     C22743  -2.817   0.676   1.739 -0.0065 -0.3544 -0.1122
  173MOL0     C22744  -2.925   0.575   1.758  0.2405  0.0404 -1.2190
  173MOL0     C22745  -3.074   0.635   1.743  0.5667 -0.6830 -0.1299
  173MOL0     C22746  -3.109   0.748   1.847  0.4642  0.2945  0.1753
  173MOL0     C22747  -3.255   0.773   1.840 -0.3366  0.7330 -0.2982
  173MOL0    Cl22748  -3.295   0.902   1.955 -0.1867 -0.3954 -0.3538
  173MOL0     C22749  -2.140   0.843   1.883  0.2261 -0.4543  0.9318
  173MOL0     C22750  -2.012   0.839   1.933 -0.3356  0.1671 -0.3382
  173MOL0     O22751  -1.979   0.673   2.229 -0.1926 -0.3648 -1.1025
  173MOL0     C22752  -1.633   0.721   2.224 -0.3185 -0.3222 -0.7631
  173MOL0     C22753  -1.519   0.713   2.310 -0.1069  0.3688  0.3444
  173MOL0     N22754  -1.371   1.184   2.674  0.5059  1.1674  1.3453
  173MOL0     N22755  -1.288   1.281   2.654  0.2613 -0.2808  0.1838
  173MOL0     C22756  -0.153   1.464   2.572  0.2494  0.0531 -0.6334
  173MOL0     C22757  -0.057   1.390   2.504  0.6848  0.3327 -0.6791
  173MOL0     C22758   0.219   1.313   2.171 -1.0153 -0.3159 -0.3937
  173MOL0     C22759   0.194   1.250   2.047 -0.6550 -0.0831  0.4880
  173MOL0     C22760   0.302   1.199   1.968 -0.6252  0.7379 -0.3640
  173MOL0     C22761   0.434   1.203   2.007  0.6379  0.1117 -0.3304
  173MOL0     O22762   0.527   1.148   1.923 -0.3554 -0.1911  0.4905
  173MOL0     C22763   0.660   1.168   1.957  0.1273  0.1319  1.0365
  173MOL0     C22764   0.751   1.106   1.844 -0.0396 -0.1980 -0.2590
  173MOL0     C22765   0.892   1.098   1.892 -0.6598 -0.2141  0.4408
  173MOL0     C22766   0.959   1.234   1.888 -0.0420 -0.4257 -0.3378
  173MOL0     C22767   1.091   1.236   1.939 -0.3387  0.5955 -0.7727
  173MOL0     C22768   1.208   1.225   1.975  0.1385 -0.7151  1.0559
  173MOL0     C22769   0.455   1.265   2.129  0.7703 -0.1927 -0.2909
  173MOL0     C22770   0.356   1.318   2.205 -0.9510  0.1618  1.0498
  173MOL0     H22771   0.177   1.629   2.481  1.2202 -3.1993 -0.8386
  173MOL0     H22772  -0.007   1.766   2.577 -0.9104  0.5221  0.5046
  173MOL0     H22773  -0.373   1.555   2.732 -0.0688  0.8012  0.8306
  173MOL0     H22774  -0.386   1.600   2.556  0.1760 -0.2958  0.7253
  173MOL0     H22775  -0.433   1.832   2.624  2.5747 -0.6162  0.6618
  173MOL0     H22776  -0.469   1.780   2.785 -1.9692  2.4991 -1.3234
  173MOL0     H22777  -0.617   1.694   2.537 -2.6980 -1.3442  0.8455
  173MOL0     H22778  -0.684   1.794   2.673 -0.3709  0.4629  1.9603
  173MOL0     H22779  -0.587   1.514   2.671  0.7578  1.6168 -0.5971
  173MOL0     H22780  -0.653   1.608   2.813 -1.8962  1.6898 -0.1922
  173MOL0     H22781  -0.814   1.518   2.546 -1.9703  3.9852 -0.4873
  173MOL0     H22782  -0.886   1.599   2.690 -0.9603 -1.5888  0.2247
  173MOL0     H22783  -0.806   1.378   2.812  1.4018  1.1940  0.2878
  173MOL0     H22784  -0.727   1.331   2.656 -0.1744  0.0853 -0.6353
  173MOL0     H22785  -0.952   1.299   2.558 -0.3264  2.1351  0.1892
  173MOL0     H22786  -0.915   1.196   2.695 -2.8611 -0.4075  1.6093
  173MOL0     H22787  -1.103   1.445   2.710 -1.0265 -0.3029  2.2351
  173MOL0     H22788  -1.051   1.356   2.849 -2.4939 -0.5996  0.4444
  173MOL0     H22789  -1.098   1.065   2.793  1.7950  1.7477 -0.7546
  173MOL0     H22790  -1.447   0.909   2.678 -0.3035  2.9463 -0.6544
  173MOL0     H22791  -1.375   0.900   2.840  0.1729 -1.8888 -1.6308
  173MOL0     H22792  -1.157   0.817   2.767  0.4796 -1.0576 -1.4903
  173MOL0     H22793  -1.198   0.838   2.606  1.5578  2.1377  0.3070
  173MOL0     H22794  -1.200   0.614   2.674 -1.4939 -2.1708 -1.0707
  173MOL0     H22795  -1.302   0.648   2.821 -1.7437  2.1543  0.9025
  173MOL0     H22796  -1.499   0.691   2.700 -0.9893 -0.4753 -0.2632
  173MOL0     H22797  -1.443   0.526   2.663  2.3990 -0.8064 -0.4630
  173MOL0     H22798  -1.682   0.594   2.591 -2.8493 -0.5450 -0.3360
  173MOL0     H22799  -1.869   0.612   2.440 -0.5374 -0.6487 -1.9506
  173MOL0     H22800  -1.984   0.511   1.980  2.2410  1.5697  1.4222
  173MOL0     H22801  -2.223   0.515   1.887  2.6992 -3.0896  0.6447
  173MOL0     H22802  -2.461   0.574   1.884  1.7185 -1.2133 -0.2979
  173MOL0     H22803  -2.406   0.566   1.712  0.2203  0.1914  0.3141
  173MOL0     H22804  -2.543   0.761   1.654 -2.3219  0.7967  0.4119
  173MOL0     H22805  -2.599   0.773   1.824 -2.7051  0.2613 -1.5552
  173MOL0     H22806  -2.675   0.516   1.765 -1.4615  0.5702 -0.9010
  173MOL0     H22807  -2.676   0.574   1.605 -2.1672  2.4656 -1.3898
  173MOL0     H22808  -2.810   0.724   1.837  1.1124  2.1413 -1.3427
  173MOL0     H22809  -2.843   0.760   1.673 -2.2389 -1.0022 -0.1608
  173MOL0     H22810  -2.910   0.534   1.859 -1.2137 -0.6205 -1.2487
  173MOL0     H22811  -2.908   0.493   1.687  2.3825 -0.6864  0.0199
  173MOL0     H22812  -3.153   0.561   1.760 -0.4951  0.3854 -0.3211
  173MOL0     H22813  -3.078   0.663   1.638 -0.3591 -1.5076 -0.3213
  173MOL0     H22814  -3.063   0.733   1.945  0.0346 -0.2417  0.3023
  173MOL0     H22815  -3.058   0.834   1.803  0.8192 -0.4515 -0.9036
  173MOL0     H22816  -3.311   0.684   1.871  0.4025  0.6478  0.8306
  173MOL0     H22817  -3.284   0.804   1.739  1.9699  1.1516 -0.8750
  173MOL0     H22818  -2.196   0.934   1.865 -0.8115 -1.4167 -1.0112
  173MOL0     H22819  -1.965   0.936   1.950  0.8907 -0.3799 -0.4548
  173MOL0     H22820  -1.622   0.759   2.123  0.4454 -0.7695 -0.8523
  173MOL0     H22821  -1.430   0.766   2.279  0.2176  0.5328  1.5205
  173MOL0     H22822  -0.238   1.404   2.603 -0.7580  0.8943 -1.6909
  173MOL0     H22823  -0.073   1.288   2.468  1.3047  1.0328 -3.1283
  173MOL0     H22824   0.096   1.234   2.004 -0.7599 -2.5776  1.4297
  173MOL0     H22825   0.267   1.151   1.877 -1.1899 -0.6203  0.5358
  173MOL0     H22826   0.673   1.122   2.055  1.1344 -1.4365  0.2004
  173MOL0     H22827   0.681   1.275   1.965 -0.2170  0.1428  2.0061
  173MOL0     H22828   0.712   1.006   1.822 -0.7495  0.4245 -1.9912
  173MOL0     H22829   0.746   1.162   1.751 -0.6427 -0.1628 -0.2124
  173MOL0     H22830   0.954   1.033   1.829  0.3999  0.1853  1.0414
  173MOL0     H22831   0.893   1.050   1.991 -1.2076 -0.6615  0.2331
  173MOL0     H22832   0.958   1.289   1.793 -1.8978  1.5297  0.6979
  173MOL0     H22833   0.905   1.286   1.969  0.9879 -2.3518  1.6914
  173MOL0     H22834   1.307   1.234   2.015  1.8046  3.4663 -3.0553
  173MOL0     H22835   0.559   1.277   2.157  0.9494  1.9615 -1.6446
  173MOL0     H22836   0.399   1.367   2.292  0.5667 -2.0477  1.6268
  174MOL0     O22837   7.511   3.793   5.725  0.3504  0.2687  0.5940
  174MOL0     C22838   7.558   3.832   5.835 -0.5764  0.5746  0.7772
  174MOL0     O22839   7.496   3.855   5.954  0.4689 -0.0809 -0.5412
  174MOL0     C22840   7.363   3.815   5.961  0.4389 -0.9182 -0.1339
  174MOL0     C22841   7.270   3.845   5.864  0.1851 -0.4738  0.3109
  174MOL0     C22842   7.125   3.818   5.875  0.3179 -0.4174 -0.1118
  174MOL0     C22843   7.089   3.750   5.994  0.3540  0.0370  0.0509
  174MOL0     O22844   6.966   3.707   6.021  1.1227  0.0656 -0.6160
  174MOL0     C22845   6.888   3.662   5.903  0.2864  0.0557 -0.1909
  174MOL0     C22846   6.879   3.516   5.893 -0.1545 -0.8111  0.6447
  174MOL0     C22847   7.005   3.450   5.831  0.0227  0.7331  0.2327
  174MOL0     C22848   7.008   3.296   5.851 -0.4871 -0.0670 -0.1183
  174MOL0     C22849   7.118   3.223   5.766  0.8662 -0.0935 -0.1701
  174MOL0     C22850   7.109   3.238   5.612  0.0227 -0.2325 -0.7037
  174MOL0     C22851   6.983   3.196   5.536  0.4611  0.4661 -0.1433
  174MOL0     C22852   7.009   3.203   5.386 -0.0810 -0.8068  0.2240
  174MOL0     N22853   6.884   3.220   5.322 -0.3678 -0.6426 -0.7040
  174MOL0     C22854   6.795   3.125   5.288 -0.4459  0.4467  0.2809
  174MOL0     C22855   6.691   3.190   5.230 -0.4710 -0.8275  0.1167
  174MOL0     C22856   6.574   3.132   5.157 -0.0143 -0.2154 -0.6836
  174MOL0     C22857   6.471   3.240   5.128  1.0221  0.4163  0.5099
  174MOL0     C22858   6.368   3.174   5.029  0.9374  0.1370 -0.2593
  174MOL0     C22859   6.239   3.259   5.024 -0.2621 -0.9517  1.1228
  174MOL0     O22860   6.143   3.201   4.929 -0.3532 -0.0715  0.3260
  174MOL0     C22861   6.019   3.230   4.959 -0.5082  0.0277  0.0606
  174MOL0     C22862   5.937   3.124   4.985  0.4887 -0.0056 -0.6697
  174MOL0     C22863   5.794   3.139   5.003 -0.0888  0.4739  0.0213
  174MOL0     C22864   5.745   3.267   4.993 -0.3440  0.3540  0.8824
  174MOL0     C22865   5.601   3.290   4.992 -0.2562  0.3221 -0.7192
  174MOL0     O22866   5.521   3.175   5.033  0.8597 -0.3238  0.9753
  174MOL0     C22867   5.384   3.192   5.024  0.8308 -0.5325 -0.3976
  174MOL0     C22868   5.322   3.259   5.131  0.4680  0.9988 -0.3898
  174MOL0     C22869   5.183   3.282   5.124 -0.0161 -0.7379 -0.1803
  174MOL0     C22870   5.103   3.236   5.020 -0.4856 -0.4182 -0.0535
  174MOL0     O22871   4.970   3.268   5.032 -0.2356 -0.5029 -0.0104
  174MOL0     C22872   4.883   3.223   4.931  0.8020 -0.2871  0.5576
  174MOL0     C22873   4.740   3.274   4.948  0.4779 -0.4218 -1.0305
  174MOL0     C22874   4.695   3.260   5.096  0.3407  0.2362  0.0041
  174MOL0     C22875   4.541   3.271   5.121  0.6081  0.3245  0.1822
  174MOL0     C22876   4.461   3.140   5.085 -0.2384 -0.3403 -0.3670
  174MOL0     C22877   4.335   3.133   5.162  0.0857  1.3037 -0.6444
  174MOL0     C22878   4.252   3.007   5.122 -0.2531  0.2509 -0.2948
  174MOL0     C22879   4.121   3.009   5.200 -0.5442 -0.4399 -0.2393
  174MOL0    Cl22880   4.147   3.019   5.373 -0.1623 -0.0230  0.2652
  174MOL0     C22881   5.166   3.170   4.916  0.2318 -0.2169 -0.8119
  174MOL0     C22882   5.309   3.141   4.918  0.4134  0.1035 -0.5173
  174MOL0     O22883   5.560   3.397   4.956 -0.7263 -0.4103  0.2179
  174MOL0     C22884   5.833   3.372   4.966  0.2637 -0.2024 -0.4703
  174MOL0     C22885   5.966   3.354   4.937 -0.6244 -0.1151  0.2460
  174MOL0     N22886   6.722   3.326   5.234  0.0227 -0.5663  0.1065
  174MOL0     N22887   6.843   3.341   5.285  0.4543 -0.2754  0.2466
  174MOL0     C22888   7.188   3.715   6.084  0.2672 -0.8361  0.7632
  174MOL0     C22889   7.320   3.749   6.069 -0.0719  0.6854 -0.4999
  174MOL0     C22890   7.701   3.858   5.836 -0.0725 -0.5644  1.0226
  174MOL0     C22891   7.757   3.948   5.929 -0.1199  0.1785 -1.1366
  174MOL0     C22892   7.884   3.995   5.914  0.1187 -0.8727  0.1508
  174MOL0     C22893   7.971   3.946   5.817  0.8085 -0.5753  0.6928
  174MOL0     O22894   8.100   4.007   5.807 -0.6980  0.2833  0.1414
  174MOL0     C22895   8.159   4.017   5.674  0.0313  0.0767 -0.2381
  174MOL0     C22896   8.295   4.075   5.690 -0.1797  0.0426 -0.1589
  174MOL0     C22897   8.282   4.223   5.702  0.7857  0.3330  1.4916
  174MOL0     C22898   8.332   4.296   5.574 -0.3381  0.2200  0.0596
  174MOL0     C22899   8.221   4.310   5.481  0.1145 -0.4080  0.3656
  174MOL0     C22900   8.135   4.335   5.394 -0.5015 -0.3173  0.1458
  174MOL0     C22901   7.923   3.851   5.731  0.8332  0.7809 -0.0544
  174MOL0     C22902   7.790   3.807   5.741  0.2264 -0.3228 -0.5828
  174MOL0     H22903   7.315   3.888   5.775 -0.6141 -1.3392 -0.5440
  174MOL0     H22904   7.056   3.856   5.800 -0.8463 -1.1310  0.5708
  174MOL0     H22905   6.913   3.709   5.807 -0.5808 -1.8601 -1.4259
  174MOL0     H22906   6.781   3.686   5.909 -0.2165 -2.0521 -0.1996
  174MOL0     H22907   6.790   3.477   5.844 -0.2057 -0.3685  0.3854
  174MOL0     H22908   6.868   3.490   5.999  0.5841  3.1130  1.8386
  174MOL0     H22909   7.095   3.488   5.881 -1.1721  3.0157  0.7833
  174MOL0     H22910   7.002   3.475   5.724 -0.3211  0.3475  0.1497
  174MOL0     H22911   7.044   3.280   5.953 -2.6966  0.8741  0.8630
  174MOL0     H22912   6.909   3.255   5.832 -0.8991 -0.8225  3.0670
  174MOL0     H22913   7.099   3.117   5.786 -2.3367  0.4080  0.0204
  174MOL0     H22914   7.219   3.256   5.792  0.9614 -0.2482 -0.3448
  174MOL0     H22915   7.187   3.177   5.566 -2.0746 -1.6786 -2.5792
  174MOL0     H22916   7.129   3.340   5.579 -0.1853  0.2587  0.6207
  174MOL0     H22917   6.945   3.100   5.571 -0.0632  0.7757  0.1541
  174MOL0     H22918   6.899   3.261   5.565 -0.7443 -0.0836 -2.1916
  174MOL0     H22919   7.043   3.106   5.348 -2.6755 -1.2028 -1.2960
  174MOL0     H22920   7.066   3.292   5.357 -3.6623  2.1405  1.4392
  174MOL0     H22921   6.800   3.020   5.315 -1.9257  0.0970 -0.7033
  174MOL0     H22922   6.533   3.049   5.215 -1.0385 -1.0595 -2.5532
  174MOL0     H22923   6.612   3.109   5.057 -0.5217 -0.1109 -0.9008
  174MOL0     H22924   6.519   3.329   5.086 -2.2678  1.2598 -1.8854
  174MOL0     H22925   6.421   3.278   5.218  1.5806  0.9713  0.5887
  174MOL0     H22926   6.400   3.177   4.924  0.4494  1.4777 -0.3974
  174MOL0     H22927   6.353   3.069   5.056  0.8098 -0.0884 -1.1570
  174MOL0     H22928   6.276   3.352   4.981 -1.8085 -0.7883  0.0621
  174MOL0     H22929   6.200   3.278   5.124  0.3534  0.1714  1.1614
  174MOL0     H22930   5.985   3.027   5.001  0.3795  0.1813  0.8942
  174MOL0     H22931   5.729   3.054   5.024  1.4780 -0.2451  2.3795
  174MOL0     H22932   5.378   3.303   5.213  1.4295 -1.8683  0.6267
  174MOL0     H22933   5.131   3.327   5.208 -1.7807 -0.0838 -1.5561
  174MOL0     H22934   4.888   3.113   4.934 -1.5287 -0.4297  0.9423
  174MOL0     H22935   4.914   3.248   4.829  2.1826  1.4573  1.3467
  174MOL0     H22936   4.675   3.210   4.888  2.0902  0.6591 -4.1323
  174MOL0     H22937   4.728   3.379   4.920 -0.2901  0.5080  2.2508
  174MOL0     H22938   4.738   3.340   5.158  0.1725 -0.3186  0.8606
  174MOL0     H22939   4.735   3.168   5.140  4.6005  2.0459  0.4370
  174MOL0     H22940   4.534   3.295   5.227  1.7058  1.2233  0.0634
  174MOL0     H22941   4.498   3.353   5.063  0.4175  0.9976  1.2551
  174MOL0     H22942   4.528   3.057   5.108 -1.5970 -1.6952 -1.0550
  174MOL0     H22943   4.435   3.149   4.979 -1.4669  1.2134  0.0226
  174MOL0     H22944   4.276   3.224   5.149 -0.7968  0.4446 -3.2754
  174MOL0     H22945   4.361   3.128   5.268  2.2146  0.5557 -1.1421
  174MOL0     H22946   4.225   2.988   5.018 -1.2494 -0.4726  0.0783
  174MOL0     H22947   4.303   2.915   5.153 -0.0174  0.1838 -0.8819
  174MOL0     H22948   4.059   2.921   5.180 -1.5799  0.6180 -1.9827
  174MOL0     H22949   4.068   3.094   5.156 -0.4586 -0.5245 -0.5072
  174MOL0     H22950   5.112   3.133   4.829 -0.7321 -0.4980 -0.1190
  174MOL0     H22951   5.361   3.082   4.843 -1.8886 -2.4419 -0.2922
  174MOL0     H22952   5.798   3.474   4.960  0.4272 -0.2194 -1.9783
  174MOL0     H22953   6.017   3.443   4.900 -0.8762 -0.4284 -0.8979
  174MOL0     H22954   7.168   3.648   6.167  2.5104 -0.4814  1.6483
  174MOL0     H22955   7.393   3.709   6.139 -0.5017 -0.2094 -0.5407
  174MOL0     H22956   7.693   3.988   6.007  2.8664  0.7767  1.2154
  174MOL0     H22957   7.913   4.077   5.980 -1.0164  0.5098 -0.9800
  174MOL0     H22958   8.101   4.071   5.600  0.1740  1.6615  0.7636
  174MOL0     H22959   8.179   3.912   5.649 -2.5523 -0.3735 -0.6851
  174MOL0     H22960   8.344   4.039   5.781  0.6415 -2.0541 -1.3472
  174MOL0     H22961   8.355   4.041   5.605  1.5905 -0.6766  1.2890
  174MOL0     H22962   8.355   4.241   5.781 -0.6492 -2.0359  3.5180
  174MOL0     H22963   8.183   4.266   5.722 -0.4790 -0.9206 -1.3688
  174MOL0     H22964   8.353   4.396   5.613 -1.8609  0.9452 -0.8615
  174MOL0     H22965   8.420   4.244   5.534 -0.9025 -1.5635  1.0219
  174MOL0     H22966   8.055   4.364   5.330  0.2194 -0.5890 -0.8944
  174MOL0     H22967   7.969   3.813   5.641 -2.5065  1.0808 -2.0571
  174MOL0     H22968   7.751   3.748   5.659  0.3048  0.9561 -1.5746
  175MOL0     O22969   0.923   1.966   7.294 -0.1050 -0.6385 -0.4020
  175MOL0     C22970   0.987   1.987   7.397 -0.2846 -0.0850 -0.4392
  175MOL0     O22971   0.966   1.942   7.525  0.1137 -0.0304  0.4168
  175MOL0     C22972   0.840   1.890   7.565 -0.3535 -0.2200 -0.5881
  175MOL0     C22973   0.741   1.833   7.482 -0.0997  0.3132 -0.4028
  175MOL0     C22974   0.625   1.781   7.546  0.5941 -0.2546 -0.6759
  175MOL0     C22975   0.600   1.769   7.678 -0.1818 -0.8330 -0.4409
  175MOL0     O22976   0.484   1.710   7.712  0.2019  0.0108  0.2118
  175MOL0     C22977   0.436   1.761   7.837  0.2979  0.4772  0.3806
  175MOL0     C22978   0.317   1.683   7.885  0.1281  0.2652 -0.2074
  175MOL0     C22979   0.341   1.572   7.987 -0.5272 -0.3283 -0.5803
  175MOL0     C22980   0.216   1.514   8.060 -0.6503  0.3063 -0.0310
  175MOL0     C22981   0.269   1.441   8.190 -0.1143 -0.2137  0.1457
  175MOL0     C22982   0.365   1.322   8.149  0.2151  0.3900 -0.0933
  175MOL0     C22983   0.340   1.207   8.250 -0.5949  0.2843  0.7156
  175MOL0     C22984   0.441   1.098   8.232  0.9443 -0.4794  0.6126
  175MOL0     N22985   0.401   0.982   8.320 -0.5226  0.2307 -0.5346
  175MOL0     C22986   0.410   0.992   8.460 -0.1436 -0.2061  0.3101
  175MOL0     C22987   0.370   0.875   8.499  0.5310  0.0356 -0.1952
  175MOL0     C22988   0.341   0.827   8.638  0.6162 -0.3684  0.4042
  175MOL0     C22989   0.197   0.843   8.689 -0.6100 -0.0783  0.6134
  175MOL0     C22990   0.150   0.981   8.644 -0.2949 -0.5092  0.1464
  175MOL0     C22991   0.018   1.007   8.697  0.8809 -0.2832 -0.7908
  175MOL0     O22992  -0.059   1.110   8.622 -0.2864  0.3841 -0.2334
  175MOL0     C22993  -0.191   1.120   8.645 -0.0829  0.0578  0.2864
  175MOL0     C22994  -0.284   1.072   8.560 -1.1635 -0.1240 -1.8126
  175MOL0     C22995  -0.423   1.091   8.580  0.7424  0.0729  0.5644
  175MOL0     C22996  -0.463   1.152   8.700  0.9553  0.1082  0.6223
  175MOL0     C22997  -0.608   1.175   8.729  0.1449 -0.3994 -0.6136
  175MOL0     O22998  -0.700   1.135   8.639  0.1672 -0.1730  0.0894
  175MOL0     C22999  -0.830   1.180   8.655 -0.4661 -0.1914  0.0994
  175MOL0     C23000  -0.880   1.297   8.598  0.5337  0.7101  0.8315
  175MOL0     C23001  -1.014   1.343   8.614  0.1203  0.0776 -0.0612
  175MOL0     C23002  -1.104   1.262   8.682 -0.4860  0.2514 -0.8344
  175MOL0     O23003  -1.238   1.291   8.683  0.1419 -0.6800  0.4127
  175MOL0     C23004  -1.304   1.282   8.813 -0.2258 -0.8335 -1.2633
  175MOL0     C23005  -1.453   1.245   8.784 -1.2457  0.1405 -0.1792
  175MOL0     C23006  -1.529   1.203   8.907  0.1267  0.1512  0.5405
  175MOL0     C23007  -1.666   1.172   8.866  0.4765 -0.2072 -0.3952
  175MOL0     C23008  -1.733   1.088   8.980 -0.5479  0.3001  0.0218
  175MOL0     C23009  -1.747   1.160   9.119  0.1293 -0.5906  0.0967
  175MOL0     C23010  -1.839   1.071   9.196  1.1943 -0.3932  0.3441
  175MOL0     C23011  -1.829   1.079   9.345  1.0570  0.1464 -0.0384
  175MOL0    Cl23012  -1.855   1.255   9.397  0.2320  0.3030  0.0226
  175MOL0     C23013  -1.050   1.149   8.746  0.0259  0.4160  0.4708
  175MOL0     C23014  -0.917   1.115   8.742 -0.3765 -0.0082  0.3366
  175MOL0     O23015  -0.635   1.232   8.834 -0.3346  0.4810  0.0929
  175MOL0     C23016  -0.364   1.192   8.796 -0.0189 -0.3209  0.8091
  175MOL0     C23017  -0.223   1.177   8.766  0.0489 -0.8499 -0.0806
  175MOL0     N23018   0.340   0.787   8.392 -0.3544  0.1369 -0.1836
  175MOL0     N23019   0.370   0.853   8.286 -0.5764  0.4175 -0.3359
  175MOL0     C23020   0.703   1.828   7.753  0.1538  1.6885 -0.0379
  175MOL0     C23021   0.823   1.882   7.705  0.1356 -0.3344 -0.3153
  175MOL0     C23022   1.116   2.054   7.370  0.5325  0.5126 -0.3875
  175MOL0     C23023   1.225   2.041   7.469  0.0618 -0.8746  0.2992
  175MOL0     C23024   1.353   2.088   7.445 -0.3579  0.9188  0.1603
  175MOL0     C23025   1.377   2.163   7.334 -0.7297 -0.0325  1.4310
  175MOL0     O23026   1.510   2.208   7.307 -0.2783 -0.5494 -0.7283
  175MOL0     C23027   1.544   2.305   7.207  0.1807 -0.3243  0.1577
  175MOL0     C23028   1.695   2.296   7.187  0.5807  0.3748 -0.2710
  175MOL0     C23029   1.742   2.421   7.112 -0.1387  0.2425 -0.8882
  175MOL0     C23030   1.885   2.411   7.065  0.9741 -0.0245 -0.7938
  175MOL0     C23031   1.968   2.479   7.162  0.2074 -0.2803 -0.4510
  175MOL0     C23032   2.040   2.513   7.250 -0.3775  0.8391 -0.7675
  175MOL0     C23033   1.276   2.178   7.234 -0.1820  0.4753 -0.2837
  175MOL0     C23034   1.149   2.122   7.251 -0.0086  0.6641 -0.8056
  175MOL0     H23035   0.751   1.815   7.376  1.5027 -0.0597 -0.2123
  175MOL0     H23036   0.546   1.748   7.479  1.3002 -0.3954 -1.4593
  175MOL0     H23037   0.403   1.861   7.809  1.0867  0.8787  0.8887
  175MOL0     H23038   0.509   1.773   7.917 -1.9321 -0.5778  2.7548
  175MOL0     H23039   0.259   1.647   7.799 -0.3666 -2.5218  1.1833
  175MOL0     H23040   0.246   1.741   7.944  1.1659  0.6505  0.6948
  175MOL0     H23041   0.406   1.610   8.066 -0.3638 -0.2293 -0.7626
  175MOL0     H23042   0.393   1.496   7.929 -0.0815 -1.4115  1.1580
  175MOL0     H23043   0.159   1.601   8.094 -0.2340  0.5657  0.0074
  175MOL0     H23044   0.152   1.444   8.005 -1.9199  0.2844  1.3965
  175MOL0     H23045   0.184   1.403   8.249  0.4939 -2.1674 -0.1487
  175MOL0     H23046   0.328   1.516   8.243 -2.1180  1.8310 -0.4063
  175MOL0     H23047   0.470   1.351   8.161  0.2043  1.0228 -1.4219
  175MOL0     H23048   0.339   1.290   8.048  2.3365  0.7558 -0.7986
  175MOL0     H23049   0.368   1.242   8.350  4.6043 -0.1094 -0.2834
  175MOL0     H23050   0.236   1.177   8.240 -0.6708  0.3836  1.2053
  175MOL0     H23051   0.540   1.139   8.255  1.1446 -1.1991  1.0837
  175MOL0     H23052   0.446   1.064   8.128 -0.6610  3.7883 -1.1079
  175MOL0     H23053   0.446   1.067   8.530  1.0985  0.1190 -0.6331
  175MOL0     H23054   0.400   0.882   8.711 -2.0479  1.3428  1.4156
  175MOL0     H23055   0.377   0.723   8.633  0.5094 -0.4065  0.4225
  175MOL0     H23056   0.191   0.839   8.798 -3.9370 -0.6604  0.5100
  175MOL0     H23057   0.123   0.773   8.649 -1.9293  0.9391  1.1766
  175MOL0     H23058   0.220   1.055   8.685  0.4081 -0.1417 -1.5968
  175MOL0     H23059   0.155   0.999   8.536 -0.7362 -0.0286  0.1998
  175MOL0     H23060   0.025   1.032   8.803  3.8359  0.3095 -1.0528
  175MOL0     H23061  -0.041   0.917   8.677 -1.1312  0.6211  0.7499
  175MOL0     H23062  -0.255   1.027   8.466 -3.0261 -0.4126 -2.2865
  175MOL0     H23063  -0.498   1.060   8.508  3.5416 -2.6338 -1.4939
  175MOL0     H23064  -0.811   1.343   8.528  0.1287  0.9114  0.5640
  175MOL0     H23065  -1.053   1.437   8.577  0.0949  0.8404  1.7753
  175MOL0     H23066  -1.301   1.367   8.883 -0.0485 -2.1048  0.3351
  175MOL0     H23067  -1.276   1.203   8.883  0.1794 -0.8025 -1.3912
  175MOL0     H23068  -1.449   1.167   8.707  1.1522  0.0960 -0.0809
  175MOL0     H23069  -1.500   1.331   8.736 -0.6123  1.5627  1.6422
  175MOL0     H23070  -1.513   1.270   8.992  0.5212 -1.2210  1.5808
  175MOL0     H23071  -1.483   1.115   8.952 -0.5214  1.3077  3.7286
  175MOL0     H23072  -1.711   1.270   8.846  2.4745  0.4816 -1.8393
  175MOL0     H23073  -1.665   1.112   8.775 -1.1750 -1.4395  0.3542
  175MOL0     H23074  -1.694   0.989   9.003 -1.7463 -0.0343  0.7175
  175MOL0     H23075  -1.840   1.079   8.956 -0.9649  2.7040  0.7312
  175MOL0     H23076  -1.779   1.263   9.104  0.5926 -0.5264 -0.5063
  175MOL0     H23077  -1.649   1.161   9.167 -0.1834 -0.6972  0.7443
  175MOL0     H23078  -1.941   1.103   9.171  0.9765 -2.3799 -1.5037
  175MOL0     H23079  -1.838   0.965   9.171 -3.1428 -0.4083 -0.6321
  175MOL0     H23080  -1.732   1.044   9.381  2.2507  4.0022  0.9320
  175MOL0     H23081  -1.902   1.020   9.402  1.3483  1.6846  2.0198
  175MOL0     H23082  -1.112   1.083   8.806  0.7822 -1.0879 -0.3565
  175MOL0     H23083  -0.895   1.014   8.776  0.7287 -0.3031 -1.1624
  175MOL0     H23084  -0.378   1.247   8.888  1.8729 -0.8951  1.4792
  175MOL0     H23085  -0.165   1.221   8.846  2.0461  1.8519 -2.7664
  175MOL0     H23086   0.702   1.811   7.861  1.9855 -0.2480 -0.2530
  175MOL0     H23087   0.900   1.914   7.775 -0.6475 -1.6118  1.1653
  175MOL0     H23088   1.196   1.992   7.561 -0.7237  0.4350  0.7649
  175MOL0     H23089   1.435   2.057   7.509  0.4688  2.0462 -0.3235
  175MOL0     H23090   1.504   2.403   7.232 -1.5475 -1.5741  2.6848
  175MOL0     H23091   1.497   2.273   7.114 -1.4095  0.8482  0.5089
  175MOL0     H23092   1.741   2.293   7.285  1.5230 -2.6330 -0.7090
  175MOL0     H23093   1.712   2.200   7.138 -2.8600 -1.9607  2.5725
  175MOL0     H23094   1.740   2.509   7.177  0.2697 -1.4351  1.5624
  175MOL0     H23095   1.677   2.437   7.026 -0.4702 -0.3385 -0.7483
  175MOL0     H23096   1.915   2.308   7.046  1.9452  0.5335 -2.5994
  175MOL0     H23097   1.896   2.464   6.970  1.5905  1.0549 -0.1463
  175MOL0     H23098   2.119   2.555   7.310 -2.7402  0.1682  3.2095
  175MOL0     H23099   1.299   2.238   7.146  1.4405  0.6416  0.2361
  175MOL0     H23100   1.077   2.138   7.171 -2.2022 -0.1870  0.8849
  176MOL0     O23101   8.141   5.573   1.613  0.4084 -0.2288 -0.5065
  176MOL0     C23102   8.126   5.566   1.493  0.2184 -0.4750  1.1631
  176MOL0     O23103   8.219   5.541   1.403  0.9681  0.0151  0.3181
  176MOL0     C23104   8.353   5.528   1.438 -0.0516 -0.8514  0.2935
  176MOL0     C23105   8.408   5.456   1.539 -0.2534  0.2851  0.6021
  176MOL0     C23106   8.547   5.430   1.544 -0.1536  0.6157 -0.3390
  176MOL0     C23107   8.632   5.495   1.459 -1.1388  0.2587  0.4908
  176MOL0     O23108   8.772   5.468   1.476  0.6115 -0.4875  0.4516
  176MOL0     C23109   8.853   5.543   1.385 -0.6193 -0.2373 -0.6500
  176MOL0     C23110   9.004   5.509   1.411  0.2275  0.0305  0.4973
  176MOL0     C23111   9.091   5.621   1.344  0.2991  0.1824 -0.1100
  176MOL0     C23112   9.237   5.600   1.396 -0.4124  0.7648  0.2536
  176MOL0     C23113   9.331   5.700   1.338 -0.5533 -0.2780  0.0013
  176MOL0     C23114   9.470   5.689   1.407 -0.6303  0.1953 -0.7126
  176MOL0     C23115   9.525   5.831   1.440  0.5088  0.0349 -1.3772
  176MOL0     C23116   9.604   5.911   1.334 -1.1554  0.1988  0.2396
  176MOL0     N23117   9.711   5.827   1.268 -0.8021  0.1812 -0.1028
  176MOL0     C23118   9.687   5.759   1.153 -0.4773  0.4857 -0.7335
  176MOL0     C23119   9.802   5.729   1.100 -0.1811  0.5240 -0.1266
  176MOL0     C23120   9.833   5.655   0.970  0.2366  0.7623 -0.5232
  176MOL0     C23121   9.830   5.502   1.001  0.1269 -0.3778  0.3445
  176MOL0     C23122   9.820   5.434   0.867 -0.0749 -0.2663 -0.0667
  176MOL0     C23123   9.686   5.434   0.790  0.1533  0.2149 -0.4003
  176MOL0     O23124   9.691   5.361   0.672  0.3001  0.1668  1.0626
  176MOL0     C23125   9.571   5.317   0.606 -0.9191 -0.5959  0.2243
  176MOL0     C23126   9.448   5.363   0.631 -0.1030  0.4899 -0.1191
  176MOL0     C23127   9.338   5.317   0.562  0.0104 -0.5588 -0.1122
  176MOL0     C23128   9.347   5.220   0.461 -0.4721 -1.0172  0.1171
  176MOL0     C23129   9.234   5.174   0.382  0.4848 -0.4035 -0.3260
  176MOL0     O23130   9.251   5.078   0.282  0.1312 -0.1274  0.1224
  176MOL0     C23131   9.149   4.993   0.244  0.0586 -0.9424 -0.3990
  176MOL0     C23132   9.145   4.935   0.117 -0.2269 -0.3127 -0.1746
  176MOL0     C23133   9.046   4.843   0.084 -0.7950 -0.1368  1.0653
  176MOL0     C23134   8.935   4.823   0.161  0.5433 -0.1557 -0.3769
  176MOL0     O23135   8.843   4.745   0.096  0.5086  0.7248  0.0795
  176MOL0     C23136   8.719   4.731   0.153 -0.3409  0.2090 -0.2479
  176MOL0     C23137   8.632   4.638   0.068 -0.3003 -0.3180 -0.3788
  176MOL0     C23138   8.499   4.620   0.143 -0.0637  0.2586 -0.3817
  176MOL0     C23139   8.382   4.567   0.065  0.0036 -0.9641 -0.4952
  176MOL0     C23140   8.277   4.481   0.140  0.7419 -1.2912  1.3326
  176MOL0     C23141   8.142   4.458   0.071  0.4670 -0.7461 -0.3966
  176MOL0     C23142   8.160   4.398  -0.064  0.3228 -0.7147 -0.7123
  176MOL0     C23143   8.028   4.391  -0.133 -0.5720 -0.1331  0.7105
  176MOL0    Cl23144   7.904   4.301  -0.032 -0.0366  0.1625  0.0525
  176MOL0     C23145   8.927   4.899   0.282 -0.0552  0.4295 -0.6554
  176MOL0     C23146   9.040   4.968   0.328  1.0108 -0.4302 -0.8231
  176MOL0     O23147   9.124   5.225   0.412 -0.0120  0.1400 -0.2122
  176MOL0     C23148   9.471   5.192   0.416  0.6823 -0.7931  0.7826
  176MOL0     C23149   9.580   5.233   0.497 -0.5099 -1.6107 -0.1937
  176MOL0     N23150   9.896   5.775   1.186 -0.0721 -1.1227  0.7879
  176MOL0     N23151   9.838   5.847   1.284 -0.1962  0.3161 -0.7666
  176MOL0     C23152   8.586   5.576   1.355 -0.2253  0.1858 -0.0154
  176MOL0     C23153   8.449   5.593   1.348  0.4696  0.1089  0.0710
  176MOL0     C23154   7.991   5.598   1.443 -0.7437 -0.2082 -0.1802
  176MOL0     C23155   7.874   5.593   1.515 -1.4429  0.1273 -0.8113
  176MOL0     C23156   7.754   5.613   1.453  0.6613  0.1033  0.2491
  176MOL0     C23157   7.745   5.646   1.316  0.1067  0.6364 -0.2775
  176MOL0     O23158   7.625   5.671   1.255 -0.6731 -0.0278 -0.3229
  176MOL0     C23159   7.505   5.656   1.328  0.7374 -0.0085  1.1422
  176MOL0     C23160   7.388   5.670   1.230 -0.1904  0.2554  0.1415
  176MOL0     C23161   7.256   5.721   1.297 -0.5236 -0.7231 -0.2570
  176MOL0     C23162   7.190   5.622   1.399 -0.1628  0.8514  0.2894
  176MOL0     C23163   7.257   5.609   1.525  0.4651  0.2012 -1.0557
  176MOL0     C23164   7.316   5.584   1.630 -0.1599  0.9282 -0.4691
  176MOL0     C23165   7.856   5.663   1.243 -0.7928  0.3652  1.0768
  176MOL0     C23166   7.980   5.648   1.303 -0.3340 -0.5571  0.3743
  176MOL0     H23167   8.336   5.407   1.604 -3.1957  0.9046 -1.9118
  176MOL0     H23168   8.581   5.364   1.623  3.5769 -0.6036 -2.7107
  176MOL0     H23169   8.837   5.648   1.410  1.9391 -0.2539  1.4981
  176MOL0     H23170   8.839   5.533   1.277  1.2160  0.1500 -0.9596
  176MOL0     H23171   9.027   5.406   1.380 -0.2794 -0.0816  0.4863
  176MOL0     H23172   9.016   5.529   1.518 -1.6544  3.8377  0.1536
  176MOL0     H23173   9.050   5.719   1.370  0.9639  1.1321 -2.4149
  176MOL0     H23174   9.080   5.612   1.236  0.6693  1.3752 -0.2543
  176MOL0     H23175   9.251   5.609   1.504 -0.3200  1.8718  0.1671
  176MOL0     H23176   9.267   5.501   1.362 -1.1705  0.2176  1.1224
  176MOL0     H23177   9.283   5.796   1.355 -1.8822 -1.0928  1.1221
  176MOL0     H23178   9.340   5.698   1.229  1.7224  2.1194  0.0479
  176MOL0     H23179   9.538   5.633   1.342  0.3779  0.0800  0.4138
  176MOL0     H23180   9.456   5.637   1.502 -3.8507  2.1255  0.0059
  176MOL0     H23181   9.447   5.898   1.477  0.9924 -1.1662  2.2248
  176MOL0     H23182   9.597   5.822   1.522  0.1451  3.4301 -0.5375
  176MOL0     H23183   9.648   6.000   1.380  1.2952 -1.2588  0.8303
  176MOL0     H23184   9.543   5.948   1.251  0.2855  0.0273 -0.9196
  176MOL0     H23185   9.593   5.742   1.101  0.4851  1.5159 -2.9680
  176MOL0     H23186   9.930   5.690   0.933  0.1475  1.0330 -0.4999
  176MOL0     H23187   9.758   5.686   0.897  0.2812 -1.4551 -1.5811
  176MOL0     H23188   9.744   5.460   1.052 -1.6610  0.6689 -1.6449
  176MOL0     H23189   9.922   5.473   1.053  0.1059 -0.8817  0.1058
  176MOL0     H23190   9.901   5.471   0.804  0.9486  0.1044  1.4288
  176MOL0     H23191   9.840   5.329   0.888  2.0195 -0.0701 -0.8212
  176MOL0     H23192   9.663   5.537   0.762  0.8217  0.8991  1.4239
  176MOL0     H23193   9.603   5.403   0.854  1.3205  0.7807  1.4541
  176MOL0     H23194   9.428   5.437   0.709 -4.6811  0.4516 -0.9354
  176MOL0     H23195   9.238   5.352   0.588 -0.6459 -0.5863 -2.3418
  176MOL0     H23196   9.226   4.961   0.049 -1.1564 -2.0259 -2.0302
  176MOL0     H23197   9.063   4.793  -0.011  1.6314 -1.2629  2.0016
  176MOL0     H23198   8.672   4.829   0.147 -0.1434  0.2078 -2.9205
  176MOL0     H23199   8.740   4.683   0.249  1.4353 -0.7346 -1.0442
  176MOL0     H23200   8.687   4.545   0.050  0.4306 -0.6064  2.6865
  176MOL0     H23201   8.615   4.684  -0.030  2.0051 -0.7954 -1.0574
  176MOL0     H23202   8.455   4.713   0.181 -0.3287 -1.0844  2.9692
  176MOL0     H23203   8.511   4.560   0.234 -0.6996 -0.5895 -0.8341
  176MOL0     H23204   8.344   4.657   0.017 -0.1183 -0.4814  0.4845
  176MOL0     H23205   8.420   4.508  -0.019  1.1236 -1.4557  0.3252
  176MOL0     H23206   8.261   4.533   0.235  2.5789  0.6822  0.6523
  176MOL0     H23207   8.312   4.380   0.161 -2.1551 -2.1097  2.6193
  176MOL0     H23208   8.078   4.546   0.066  1.3426 -0.1606 -2.0345
  176MOL0     H23209   8.088   4.388   0.135 -2.6954  0.5121 -1.5166
  176MOL0     H23210   8.218   4.460  -0.133 -0.4808 -1.8992 -2.5192
  176MOL0     H23211   8.206   4.299  -0.065  1.2958 -0.2824 -0.0642
  176MOL0     H23212   8.051   4.328  -0.219  2.1252  0.5960  0.8092
  176MOL0     H23213   7.989   4.489  -0.165 -0.3658 -0.4561 -0.5731
  176MOL0     H23214   8.843   4.884   0.349  0.6826  1.1893  0.4749
  176MOL0     H23215   9.027   5.001   0.430  0.4306  2.5685 -1.7902
  176MOL0     H23216   9.482   5.137   0.323 -0.3705  2.1676 -1.2700
  176MOL0     H23217   9.682   5.196   0.501 -0.7604 -2.2425  2.9616
  176MOL0     H23218   8.655   5.639   1.300  0.2379 -2.3717 -2.5863
  176MOL0     H23219   8.400   5.650   1.270 -2.2585 -2.1823 -0.0457
  176MOL0     H23220   7.882   5.563   1.619  3.2564  0.8360 -0.7504
  176MOL0     H23221   7.676   5.587   1.525  3.6294 -6.1526  1.8630
  176MOL0     H23222   7.503   5.738   1.401  1.4477 -0.2050  1.3939
  176MOL0     H23223   7.498   5.566   1.389  0.2795 -0.5908  0.2477
  176MOL0     H23224   7.425   5.735   1.150  2.2335  1.3306  2.0145
  176MOL0     H23225   7.382   5.577   1.173 -3.0481 -0.1291  0.9016
  176MOL0     H23226   7.187   5.753   1.218  0.7705  1.3049 -0.6560
  176MOL0     H23227   7.276   5.816   1.348  1.2995 -0.8596 -0.6374
  176MOL0     H23228   7.089   5.662   1.406  0.7999  3.4631  0.4248
  176MOL0     H23229   7.179   5.522   1.356 -1.4773  0.9582  0.3570
  176MOL0     H23230   7.356   5.589   1.729  0.4018 -1.1702 -0.5562
  176MOL0     H23231   7.845   5.716   1.149  1.4180  0.7173  0.9707
  176MOL0     H23232   8.072   5.686   1.259  0.7633 -1.8845  1.4509
  177MOL0     O23233   2.994   8.070   9.596 -0.1481 -0.3987  0.4338
  177MOL0     C23234   2.982   8.017   9.708  0.4388 -0.8133 -1.1407
  177MOL0     O23235   2.859   7.989   9.767  0.7832  0.0227  0.1990
  177MOL0     C23236   2.747   8.009   9.693 -0.1057  0.2327 -0.2153
  177MOL0     C23237   2.646   8.075   9.760  0.0591  0.8079  0.1341
  177MOL0     C23238   2.521   8.097   9.699 -0.7496 -0.8770 -0.7286
  177MOL0     C23239   2.499   8.043   9.572  0.3921 -1.0467  0.1226
  177MOL0     O23240   2.382   8.078   9.498  0.4706  0.1962 -0.4568
  177MOL0     C23241   2.272   8.146   9.564  0.7106 -0.7172  0.1195
  177MOL0     C23242   2.160   8.183   9.466  0.1454 -0.3672 -0.8690
  177MOL0     C23243   2.093   8.301   9.540  1.0340 -0.1542  0.6422
  177MOL0     C23244   2.002   8.377   9.442  0.1301  0.1926 -0.4655
  177MOL0     C23245   1.872   8.303   9.397  0.6444  0.2420  0.1729
  177MOL0     C23246   1.784   8.230   9.507 -0.1679  0.3901  0.4513
  177MOL0     C23247   1.674   8.126   9.452  0.2075 -0.3588 -0.1658
  177MOL0     C23248   1.575   8.190   9.358  0.6403 -0.0758 -1.0036
  177MOL0     N23249   1.555   8.120   9.238 -0.5286 -0.1337  0.6107
  177MOL0     C23250   1.435   8.062   9.198  0.1905  0.4362  0.7351
  177MOL0     C23251   1.446   8.041   9.068 -0.2735 -0.4352  0.1375
  177MOL0     C23252   1.338   7.976   8.986 -0.4360  0.0920 -0.0886
  177MOL0     C23253   1.239   8.077   8.924 -0.3045  0.0315 -0.1166
  177MOL0     C23254   1.307   8.183   8.835 -0.4985  0.1810 -0.0984
  177MOL0     C23255   1.213   8.246   8.735  0.0229 -0.5022 -0.3522
  177MOL0     O23256   1.106   8.318   8.807  0.0750 -0.1982  0.4697
  177MOL0     C23257   0.973   8.286   8.766 -0.8218 -0.3426  0.1395
  177MOL0     C23258   0.931   8.162   8.717 -0.0907 -0.5212 -0.4854
  177MOL0     C23259   0.803   8.136   8.699  0.6035 -0.2405 -0.0627
  177MOL0     C23260   0.699   8.225   8.728 -0.1334 -0.2032  0.4430
  177MOL0     C23261   0.561   8.177   8.723 -0.4777  0.5174  0.6659
  177MOL0     O23262   0.538   8.041   8.704 -0.6233  0.7139 -0.4892
  177MOL0     C23263   0.410   7.984   8.700 -0.2178  0.7032  1.2807
  177MOL0     C23264   0.419   7.844   8.681  0.0917 -0.3761  0.4238
  177MOL0     C23265   0.313   7.760   8.706  0.4381 -0.2012  0.7999
  177MOL0     C23266   0.184   7.809   8.717  0.0678 -0.6688  0.4810
  177MOL0     O23267   0.077   7.726   8.738  0.3223  0.6117  0.0274
  177MOL0     C23268  -0.044   7.767   8.672  0.2025 -0.1757 -0.6534
  177MOL0     C23269  -0.031   7.772   8.515 -0.5178  0.0667 -0.4063
  177MOL0     C23270  -0.152   7.840   8.447 -1.0578 -0.0122 -0.2154
  177MOL0     C23271  -0.268   7.756   8.469  0.8339  1.1486  0.7091
  177MOL0     C23272  -0.407   7.801   8.403 -0.0666 -0.1046 -0.6378
  177MOL0     C23273  -0.384   7.791   8.253  0.5928  0.1005 -0.6585
  177MOL0     C23274  -0.519   7.805   8.186  0.8109 -1.2669  0.0121
  177MOL0     C23275  -0.496   7.831   8.033 -0.6302  0.5678  0.3860
  177MOL0    Cl23276  -0.449   7.998   8.019  0.0758  0.0090 -0.3035
  177MOL0     C23277   0.178   7.952   8.709  0.1230 -0.1283  0.5559
  177MOL0     C23278   0.287   8.038   8.712  0.4564  0.5315 -0.3577
  177MOL0     O23279   0.475   8.262   8.722 -0.0522  0.1708  0.0506
  177MOL0     C23280   0.736   8.360   8.764 -0.3764 -0.1554 -0.4659
  177MOL0     C23281   0.870   8.390   8.773 -0.5321  0.0435  0.2088
  177MOL0     N23282   1.570   8.078   9.029 -0.5602  0.8398 -0.3192
  177MOL0     N23283   1.640   8.127   9.130  0.7249  0.2143 -0.3508
  177MOL0     C23284   2.599   7.974   9.509 -0.1941 -0.6201  0.6836
  177MOL0     C23285   2.719   7.951   9.567 -0.7785 -0.3238 -0.0675
  177MOL0     C23286   3.088   7.974   9.790 -0.2706 -0.0970  0.0057
  177MOL0     C23287   3.220   7.978   9.745  0.3412 -0.2085  0.4960
  177MOL0     C23288   3.326   7.926   9.814  0.5067 -0.2200  0.9568
  177MOL0     C23289   3.305   7.863   9.937  0.1223  0.3842  0.3690
  177MOL0     O23290   3.403   7.816  10.022 -0.1802 -0.4326 -0.2750
  177MOL0     C23291   3.540   7.812   9.990 -0.5246  0.7056 -0.6173
  177MOL0     C23292   3.571   7.683   9.926 -0.3632  2.0488  0.5120
  177MOL0     C23293   3.715   7.647   9.877 -0.3984 -0.2634  0.2883
  177MOL0     C23294   3.789   7.584   9.991  0.1313 -1.6828  0.9411
  177MOL0     C23295   3.930   7.578   9.952  0.1772  0.1174 -1.1217
  177MOL0     C23296   4.049   7.565   9.934  0.6867  0.0871  0.6353
  177MOL0     C23297   3.182   7.870   9.996 -0.2169 -0.3194  0.5483
  177MOL0     C23298   3.065   7.913   9.919  1.1229 -1.4616 -0.2418
  177MOL0     H23299   2.656   8.107   9.863 -2.1009  0.3032  0.5468
  177MOL0     H23300   2.447   8.142   9.764  1.6810 -0.0997  1.7078
  177MOL0     H23301   2.304   8.236   9.616 -2.3752 -0.8633  2.5184
  177MOL0     H23302   2.227   8.071   9.630 -0.0312 -0.5130 -0.1542
  177MOL0     H23303   2.095   8.097   9.449 -0.8899 -0.5187  2.9068
  177MOL0     H23304   2.197   8.200   9.365  0.8242 -3.8195 -1.3076
  177MOL0     H23305   2.169   8.369   9.581  0.2091 -1.4120  4.7386
  177MOL0     H23306   2.029   8.261   9.619 -0.0023  0.9182  0.3796
  177MOL0     H23307   1.976   8.472   9.488 -0.1413  0.5882 -1.4323
  177MOL0     H23308   2.059   8.415   9.357  1.0727 -0.7862 -0.2946
  177MOL0     H23309   1.909   8.218   9.339  0.5080 -2.3804  3.6184
  177MOL0     H23310   1.801   8.361   9.337  1.0425  0.0411 -0.4933
  177MOL0     H23311   1.728   8.301   9.568 -0.5965  0.6268 -0.2122
  177MOL0     H23312   1.851   8.170   9.570  1.9106  1.7674 -0.3493
  177MOL0     H23313   1.719   8.040   9.400 -1.1235 -1.6758  0.7782
  177MOL0     H23314   1.624   8.084   9.540 -0.5983  0.7722 -0.0765
  177MOL0     H23315   1.588   8.294   9.325 -0.7578  1.1265  1.9103
  177MOL0     H23316   1.483   8.170   9.413  1.5403 -0.7251  0.2982
  177MOL0     H23317   1.346   8.058   9.261  1.0296 -1.5984  1.9208
  177MOL0     H23318   1.292   7.899   9.048  0.4171 -1.2442 -1.0510
  177MOL0     H23319   1.376   7.924   8.897  0.1453  0.7865 -0.2626
  177MOL0     H23320   1.180   8.134   8.997  0.1269  2.0740 -1.2944
  177MOL0     H23321   1.164   8.022   8.866  0.4250  0.2850 -1.3184
  177MOL0     H23322   1.348   8.261   8.901  3.9159 -1.8445 -0.1204
  177MOL0     H23323   1.393   8.135   8.788 -1.7087 -0.4897 -1.6995
  177MOL0     H23324   1.185   8.175   8.656  3.2491  2.6253 -4.8623
  177MOL0     H23325   1.268   8.317   8.672  0.8167 -1.1506 -0.4011
  177MOL0     H23326   1.008   8.087   8.699 -2.9778 -3.7020 -0.5325
  177MOL0     H23327   0.774   8.042   8.652  1.1960  0.5400 -2.0939
  177MOL0     H23328   0.520   7.805   8.674 -0.1688 -1.3054  1.5813
  177MOL0     H23329   0.325   7.652   8.703 -1.4209 -0.4359 -1.6769
  177MOL0     H23330  -0.065   7.871   8.701 -0.6916 -0.2442 -1.0052
  177MOL0     H23331  -0.122   7.697   8.703  1.8752 -1.5308  0.6054
  177MOL0     H23332  -0.030   7.677   8.461 -1.1916 -0.1004 -0.1414
  177MOL0     H23333   0.050   7.842   8.494 -1.0190  1.6391  2.3287
  177MOL0     H23334  -0.135   7.849   8.340 -2.4223 -1.2493 -0.5605
  177MOL0     H23335  -0.176   7.937   8.491  2.5744 -0.0383  2.3054
  177MOL0     H23336  -0.257   7.649   8.449 -0.6865  0.8405  1.3922
  177MOL0     H23337  -0.285   7.766   8.576  0.8230 -0.7706  0.9145
  177MOL0     H23338  -0.432   7.902   8.438 -1.1807  0.6537 -3.3453
  177MOL0     H23339  -0.487   7.735   8.439  0.7748  0.6630  3.0064
  177MOL0     H23340  -0.329   7.700   8.226  0.1960 -0.5319  0.5880
  177MOL0     H23341  -0.320   7.876   8.229  0.3459  0.3722 -0.3525
  177MOL0     H23342  -0.576   7.713   8.203 -0.4293 -0.1409  2.4872
  177MOL0     H23343  -0.585   7.884   8.225  1.7484 -0.2743 -0.3790
  177MOL0     H23344  -0.583   7.800   7.975 -0.4828 -0.0950  0.5092
  177MOL0     H23345  -0.414   7.764   8.005  0.0145  1.7552 -0.6702
  177MOL0     H23346   0.083   8.001   8.723  0.5125  0.7307  0.2711
  177MOL0     H23347   0.274   8.146   8.712 -2.9323  0.2774 -2.5804
  177MOL0     H23348   0.656   8.432   8.774 -0.5358 -0.4697  0.6697
  177MOL0     H23349   0.887   8.496   8.790  0.2208 -0.0152 -0.1187
  177MOL0     H23350   2.573   7.927   9.415 -2.4023 -0.2700  1.0690
  177MOL0     H23351   2.774   7.871   9.518 -1.2505 -1.1884  0.7702
  177MOL0     H23352   3.243   8.027   9.651 -0.4937  1.4248  1.1059
  177MOL0     H23353   3.428   7.931   9.776 -0.4670  2.0936 -1.7367
  177MOL0     H23354   3.583   7.832  10.089 -2.0855  2.2460 -0.1904
  177MOL0     H23355   3.580   7.895   9.932  0.7659 -0.5077 -1.5453
  177MOL0     H23356   3.526   7.602   9.985  1.2538  0.2657 -0.5820
  177MOL0     H23357   3.507   7.671   9.838  0.8933  0.0526 -0.2185
  177MOL0     H23358   3.766   7.736   9.839  2.6451 -1.9020  0.1878
  177MOL0     H23359   3.690   7.582   9.793 -2.3572  0.0895  0.5485
  177MOL0     H23360   3.769   7.644  10.080 -1.1233  0.3774 -0.6414
  177MOL0     H23361   3.756   7.481  10.006  0.9784 -2.0599  0.3353
  177MOL0     H23362   4.151   7.559   9.903 -0.2914 -0.2798 -3.0134
  177MOL0     H23363   3.168   7.835  10.098  4.5799 -4.4848  0.2132
  177MOL0     H23364   2.972   7.894   9.972  1.6896 -1.5389  0.7514
  178MOL0     O23365  11.290   3.226  11.086  0.7432  0.0898 -1.0662
  178MOL0     C23366  11.303   3.108  11.050 -0.0055 -0.0011  1.0500
  178MOL0     O23367  11.195   3.039  10.988  0.3248  0.1978  0.3741
  178MOL0     C23368  11.081   3.114  10.943  0.5168  0.1326 -0.0892
  178MOL0     C23369  11.089   3.228  10.876  0.1158 -0.2965  0.5633
  178MOL0     C23370  10.984   3.298  10.815  0.1329  1.0380 -0.3390
  178MOL0     C23371  10.855   3.238  10.828  0.4559  0.3660 -0.1932
  178MOL0     O23372  10.738   3.286  10.769 -0.5017  0.3632 -0.1432
  178MOL0     C23373  10.737   3.402  10.689  0.8750  0.6769  0.9863
  178MOL0     C23374  10.598   3.422  10.615  0.6944  0.4871 -0.1052
  178MOL0     C23375  10.547   3.298  10.526 -0.0056 -0.4239 -0.8637
  178MOL0     C23376  10.423   3.333  10.442 -0.8435 -0.1304 -0.1327
  178MOL0     C23377  10.304   3.378  10.533  0.4837 -0.0968  0.7015
  178MOL0     C23378  10.171   3.391  10.454  0.7094 -0.9049  0.7405
  178MOL0     C23379  10.068   3.455  10.552  1.0158  0.0872  0.6277
  178MOL0     C23380   9.922   3.447  10.501  0.0517  0.0300 -0.1990
  178MOL0     N23381   9.872   3.311  10.520 -0.7057  0.9444 -0.0398
  178MOL0     C23382   9.850   3.209  10.422  0.2505 -0.1362  0.2484
  178MOL0     C23383   9.799   3.103  10.494 -0.5698  0.6376 -0.2876
  178MOL0     C23384   9.772   2.968  10.434  0.1233 -0.7701 -0.3358
  178MOL0     C23385   9.653   2.897  10.503 -0.9158 -0.3197 -0.1039
  178MOL0     C23386   9.520   2.938  10.447  0.3730  0.7765  0.2374
  178MOL0     C23387   9.416   2.836  10.499  0.9051  0.4640 -0.0906
  178MOL0     O23388   9.297   2.889  10.443  0.1506 -0.8021  0.1386
  178MOL0     C23389   9.174   2.824  10.454  0.6027 -0.3728  0.4809
  178MOL0     C23390   9.142   2.730  10.553 -0.2038  0.7637 -0.0018
  178MOL0     C23391   9.016   2.678  10.556 -0.4371 -0.6177  0.1885
  178MOL0     C23392   8.915   2.718  10.469  0.5298  0.0891  1.1386
  178MOL0     C23393   8.783   2.659  10.478 -0.8620 -0.1278  0.7829
  178MOL0     O23394   8.698   2.678  10.362 -0.5794  0.1287  0.2848
  178MOL0     C23395   8.573   2.621  10.374  1.3294  0.0969  0.5397
  178MOL0     C23396   8.547   2.481  10.382 -0.2119 -0.3916  0.5836
  178MOL0     C23397   8.417   2.440  10.408  1.1927  0.3731  0.5552
  178MOL0     C23398   8.305   2.527  10.388 -0.1333 -0.4218 -0.0431
  178MOL0     O23399   8.184   2.480  10.413  0.4546 -0.1981  0.1336
  178MOL0     C23400   8.129   2.530  10.532 -0.2811 -0.2057  0.3487
  178MOL0     C23401   8.020   2.430  10.580  0.5200 -0.4256 -0.0113
  178MOL0     C23402   7.891   2.453  10.503  0.2320  0.0879  0.2277
  178MOL0     C23403   7.792   2.342  10.547 -0.6698  0.0367  0.3773
  178MOL0     C23404   7.652   2.382  10.490  0.3308  0.8359 -0.2360
  178MOL0     C23405   7.572   2.250  10.492  0.2661  0.0275  0.5507
  178MOL0     C23406   7.429   2.288  10.447  0.6194 -0.5931  0.4525
  178MOL0     C23407   7.323   2.180  10.472  0.0209  0.0394  0.2351
  178MOL0    Cl23408   7.153   2.236  10.465  0.0290 -0.4871 -0.0534
  178MOL0     C23409   8.330   2.656  10.353 -0.4337 -0.0377  0.7295
  178MOL0     C23410   8.466   2.711  10.359 -0.2798  0.4212  0.2330
  178MOL0     O23411   8.751   2.599  10.583  0.3103  0.1482 -0.3189
  178MOL0     C23412   8.947   2.814  10.369 -1.2272  0.7467 -0.4774
  178MOL0     C23413   9.073   2.867  10.365 -0.8856  0.7713  0.1046
  178MOL0     N23414   9.799   3.138  10.627  0.7659 -0.3782  0.2802
  178MOL0     N23415   9.832   3.259  10.639 -0.3796 -0.1958 -1.0033
  178MOL0     C23416  10.846   3.121  10.908  1.4860  0.4864 -0.0385
  178MOL0     C23417  10.954   3.060  10.949  0.3140 -0.2709  0.0972
  178MOL0     C23418  11.429   3.035  11.067 -0.1160 -0.0892 -0.3245
  178MOL0     C23419  11.450   2.909  11.009  0.1446 -0.3810 -0.5397
  178MOL0     C23420  11.565   2.836  11.041 -0.1879 -0.2206  0.3855
  178MOL0     C23421  11.665   2.900  11.112 -0.1589  0.9923 -0.3063
  178MOL0     O23422  11.781   2.838  11.137 -0.9124  0.6512 -0.1766
  178MOL0     C23423  11.915   2.905  11.129 -0.7836  0.2786  0.3266
  178MOL0     C23424  11.989   2.836  11.247  0.3893  0.5443  0.8693
  178MOL0     C23425  12.143   2.856  11.240  0.0077 -0.3408  0.5063
  178MOL0     C23426  12.214   2.762  11.339 -0.2780  0.0188 -0.1547
  178MOL0     C23427  12.243   2.636  11.275 -0.6124 -0.4702 -1.2017
  178MOL0     C23428  12.273   2.526  11.227 -0.9665 -0.6727 -0.7712
  178MOL0     C23429  11.656   3.036  11.145  0.3094 -0.2346  0.0294
  178MOL0     C23430  11.535   3.100  11.138  0.1431 -0.2311  0.0536
  178MOL0     H23431  11.187   3.274  10.879 -0.5925  1.4329 -0.7859
  178MOL0     H23432  10.996   3.389  10.757  1.2551  0.4055 -1.1444
  178MOL0     H23433  10.813   3.370  10.617  1.2315 -0.4495  1.8333
  178MOL0     H23434  10.758   3.497  10.739 -3.5628  1.2688  2.1888
  178MOL0     H23435  10.617   3.503  10.544  0.8947 -1.0840 -1.8982
  178MOL0     H23436  10.524   3.458  10.688 -1.0260 -0.5059 -1.2782
  178MOL0     H23437  10.520   3.215  10.592  0.3085 -0.3902 -0.6925
  178MOL0     H23438  10.624   3.272  10.453  0.7744 -2.0851  0.4583
  178MOL0     H23439  10.458   3.411  10.374 -0.8311 -0.1304 -0.1270
  178MOL0     H23440  10.388   3.244  10.390 -2.0220 -0.6557  1.4773
  178MOL0     H23441  10.332   3.476  10.573  2.3565 -0.0385 -0.6558
  178MOL0     H23442  10.285   3.312  10.618 -1.0890  1.7101  1.8682
  178MOL0     H23443  10.120   3.300  10.421 -1.2484  0.4679 -0.1565
  178MOL0     H23444  10.194   3.455  10.369  1.3043 -1.5758  0.3820
  178MOL0     H23445  10.072   3.407  10.650 -3.5349 -2.1350 -0.0069
  178MOL0     H23446  10.093   3.560  10.571  2.8664  0.0900 -1.4520
  178MOL0     H23447   9.907   3.476  10.397 -3.7930  2.7780  0.8700
  178MOL0     H23448   9.850   3.507  10.557 -0.1593  0.8684 -1.3385
  178MOL0     H23449   9.868   3.213  10.315  4.1215  2.5976  0.7597
  178MOL0     H23450   9.856   2.899  10.447 -0.5030 -1.9198 -2.0152
  178MOL0     H23451   9.749   2.965  10.327 -2.5403  1.8597  0.0256
  178MOL0     H23452   9.653   2.920  10.610  0.4068 -1.2198  0.1083
  178MOL0     H23453   9.681   2.792  10.490  0.6205 -0.0314  0.6145
  178MOL0     H23454   9.485   3.030  10.496 -4.1022 -1.4862  1.8360
  178MOL0     H23455   9.518   2.949  10.339  1.5090 -0.2360  0.0924
  178MOL0     H23456   9.414   2.827  10.608 -1.1932  1.8371  0.0510
  178MOL0     H23457   9.429   2.738  10.452  0.4122  1.4599 -2.4611
  178MOL0     H23458   9.208   2.706  10.635  0.1769  1.9284  0.0475
  178MOL0     H23459   9.005   2.615  10.644 -0.6070 -0.1550  0.5049
  178MOL0     H23460   8.628   2.409  10.384  1.0395  0.8880 -0.9772
  178MOL0     H23461   8.398   2.336  10.431 -3.4268  1.0632  0.8950
  178MOL0     H23462   8.083   2.629  10.522 -1.8642 -0.8467  0.8468
  178MOL0     H23463   8.207   2.536  10.608 -1.0144 -2.0023  1.2883
  178MOL0     H23464   8.000   2.421  10.687 -0.3552  1.0408 -0.0258
  178MOL0     H23465   8.051   2.328  10.557 -0.6765 -0.7192 -0.4472
  178MOL0     H23466   7.901   2.457  10.394 -0.7243  0.9926  0.1533
  178MOL0     H23467   7.857   2.551  10.537  3.0867  1.6250 -1.0633
  178MOL0     H23468   7.825   2.244  10.512 -0.8583  0.2810 -0.5026
  178MOL0     H23469   7.783   2.332  10.655  1.7270 -0.8763  0.5519
  178MOL0     H23470   7.648   2.431  10.392 -2.0063  1.2230 -0.0066
  178MOL0     H23471   7.611   2.449  10.566  1.7587 -1.5417  2.8425
  178MOL0     H23472   7.577   2.204  10.591  0.0983  3.9837  2.6130
  178MOL0     H23473   7.604   2.177  10.417 -0.0629 -0.7090  1.1219
  178MOL0     H23474   7.393   2.379  10.496 -1.9841 -1.1145 -0.3443
  178MOL0     H23475   7.431   2.310  10.340  0.2297 -4.0743 -0.3770
  178MOL0     H23476   7.335   2.128  10.568  0.2932 -3.1433 -1.3897
  178MOL0     H23477   7.337   2.104  10.394 -0.9081 -0.2571  0.3412
  178MOL0     H23478   8.242   2.718  10.339 -2.0139 -2.5372 -1.5283
  178MOL0     H23479   8.503   2.813  10.354  1.0372 -0.1158 -2.8513
  178MOL0     H23480   8.879   2.836  10.287 -0.7458 -0.1049 -1.1166
  178MOL0     H23481   9.101   2.931  10.281  1.6768 -0.7980 -0.3483
  178MOL0     H23482  10.750   3.071  10.904  1.1104  1.2456 -2.5661
  178MOL0     H23483  10.949   2.956  10.981 -2.2503 -0.5348 -0.9780
  178MOL0     H23484  11.373   2.861  10.948 -2.3712 -0.6014  2.5135
  178MOL0     H23485  11.579   2.737  10.998  2.9294 -0.0076  0.6708
  178MOL0     H23486  11.930   3.013  11.136 -0.2972  0.2141  0.2784
  178MOL0     H23487  11.955   2.860  11.038 -2.0641 -2.1929  0.8811
  178MOL0     H23488  11.956   2.882  11.341 -3.0629 -1.3074  0.7383
  178MOL0     H23489  11.962   2.731  11.255  3.2846 -0.3820 -0.1392
  178MOL0     H23490  12.160   2.962  11.266 -0.9652  0.4377 -1.8034
  178MOL0     H23491  12.183   2.840  11.139 -0.4661  0.2931  0.2101
  178MOL0     H23492  12.292   2.826  11.380  0.0171  1.0182 -2.1494
  178MOL0     H23493  12.135   2.752  11.414  0.8197  1.2824  1.2098
  178MOL0     H23494  12.311   2.429  11.200  2.6058 -0.0035  1.2703
  178MOL0     H23495  11.745   3.088  11.178  1.3966 -2.3171  0.5575
  178MOL0     H23496  11.513   3.196  11.182 -0.5728  0.9267 -2.6462
  179MOL0     O23497  10.263   8.396   2.378 -0.4398 -0.7171  0.1717
  179MOL0     C23498  10.322   8.295   2.410  0.2755  0.2019  0.6373
  179MOL0     O23499  10.270   8.188   2.464 -0.2926  0.2952 -0.4284
  179MOL0     C23500  10.128   8.172   2.481  0.1689 -0.6610  0.8202
  179MOL0     C23501  10.052   8.235   2.577  0.8651 -1.0623  0.3052
  179MOL0     C23502   9.914   8.212   2.579 -0.2192 -0.6891 -0.2165
  179MOL0     C23503   9.844   8.135   2.483 -1.1271 -0.4152  0.7734
  179MOL0     O23504   9.713   8.118   2.464  0.4776 -0.6899 -0.0153
  179MOL0     C23505   9.628   8.186   2.570 -0.4597  0.4292 -0.3938
  179MOL0     C23506   9.481   8.138   2.555  0.3744  0.0293 -0.0947
  179MOL0     C23507   9.393   8.240   2.480 -0.5348 -0.0919  0.1896
  179MOL0     C23508   9.253   8.172   2.458 -0.0215  0.0935 -0.4077
  179MOL0     C23509   9.143   8.260   2.405  1.1534 -0.1341 -0.1931
  179MOL0     C23510   9.054   8.187   2.301  0.8698  0.6467  0.0957
  179MOL0     C23511   8.924   8.266   2.265 -0.0791 -0.0522  0.0298
  179MOL0     C23512   8.845   8.183   2.159  0.2655 -0.9274  0.5291
  179MOL0     N23513   8.735   8.265   2.111  1.0412 -0.8904  1.3435
  179MOL0     C23514   8.601   8.224   2.120  0.6411 -0.5990  0.6543
  179MOL0     C23515   8.532   8.332   2.066 -0.1091 -0.5972  0.5682
  179MOL0     C23516   8.387   8.349   2.063  0.7398  1.2806  0.2748
  179MOL0     C23517   8.315   8.246   1.970  0.0983 -0.4451  0.3986
  179MOL0     C23518   8.353   8.223   1.823  0.2553 -0.1352 -0.4533
  179MOL0     C23519   8.236   8.227   1.730  0.0717 -0.1185  0.5625
  179MOL0     O23520   8.173   8.352   1.755 -0.0232  0.8010 -0.1554
  179MOL0     C23521   8.040   8.371   1.720  0.6523  0.1316  0.1040
  179MOL0     C23522   7.951   8.449   1.805 -0.2445  0.3453 -0.7259
  179MOL0     C23523   7.818   8.463   1.773 -0.3639  0.7741 -0.0683
  179MOL0     C23524   7.756   8.398   1.664  0.7804 -0.6746 -0.4045
  179MOL0     C23525   7.613   8.423   1.620  0.5890 -0.2181 -0.6191
  179MOL0     O23526   7.578   8.356   1.509  1.4507  0.5196 -0.0849
  179MOL0     C23527   7.445   8.357   1.464 -0.2722  0.5611 -0.5273
  179MOL0     C23528   7.409   8.323   1.329  0.0533  0.3249 -0.5113
  179MOL0     C23529   7.281   8.289   1.285 -0.2458 -0.2654  0.0116
  179MOL0     C23530   7.177   8.302   1.376  0.8881  0.2924 -0.1739
  179MOL0     O23531   7.041   8.276   1.327 -0.4194  0.1425 -0.6424
  179MOL0     C23532   7.007   8.157   1.254  1.2483 -0.2130 -0.0476
  179MOL0     C23533   6.876   8.175   1.168  0.4603  0.0752 -0.0092
  179MOL0     C23534   6.897   8.148   1.019  0.3423 -0.6278  0.7438
  179MOL0     C23535   6.760   8.175   0.936 -0.2981 -1.1292 -0.4458
  179MOL0     C23536   6.674   8.056   0.928 -0.5165  0.8405 -1.5757
  179MOL0     C23537   6.712   7.972   0.805  0.1123 -0.0637 -0.5582
  179MOL0     C23538   6.629   7.845   0.786 -0.1303  0.6891  0.0482
  179MOL0     C23539   6.490   7.882   0.734  0.4794 -0.2968  0.5245
  179MOL0    Cl23540   6.412   7.732   0.686  0.2624 -0.4950  0.0736
  179MOL0     C23541   7.197   8.346   1.506  0.2828  0.5881 -0.2532
  179MOL0     C23542   7.326   8.365   1.552  0.0857  0.8108 -0.2571
  179MOL0     O23543   7.542   8.501   1.684  0.2315 -0.5557 -0.5995
  179MOL0     C23544   7.839   8.310   1.589 -0.4898  0.1705  0.0231
  179MOL0     C23545   7.983   8.303   1.607  0.1971 -0.7748 -0.2247
  179MOL0     N23546   8.620   8.423   2.009 -0.9930  0.3785  0.5647
  179MOL0     N23547   8.744   8.378   2.035 -0.3634 -0.6954  0.0689
  179MOL0     C23548   9.924   8.095   2.379 -1.2111  0.4422  0.7028
  179MOL0     C23549  10.067   8.112   2.375 -0.0425 -0.8936  0.0331
  179MOL0     C23550  10.476   8.298   2.409 -0.4242 -0.6556 -0.2908
  179MOL0     C23551  10.558   8.185   2.417 -0.2469  0.6858  0.5523
  179MOL0     C23552  10.702   8.186   2.429  1.1824  0.4664 -0.1861
  179MOL0     C23553  10.762   8.313   2.438  0.6575  0.9857  0.4921
  179MOL0     O23554  10.895   8.339   2.461  0.3555  0.2047  0.3105
  179MOL0     C23555  10.980   8.213   2.475  0.5752 -0.3025 -0.7211
  179MOL0     C23556  11.033   8.168   2.342  0.4995 -0.0261  0.3352
  179MOL0     C23557  11.111   8.040   2.359  0.4284  1.0438 -0.7323
  179MOL0     C23558  11.259   8.072   2.352 -0.4917  0.1558  0.3547
  179MOL0     C23559  11.312   8.159   2.451 -0.3136 -0.8604 -0.7865
  179MOL0     C23560  11.343   8.242   2.535  0.1696 -0.3449  0.6561
  179MOL0     C23561  10.677   8.430   2.426 -0.6467  0.7997  1.5775
  179MOL0     C23562  10.545   8.422   2.404  0.2083 -0.3011 -0.7688
  179MOL0     H23563  10.096   8.296   2.656 -3.7970  0.9221  1.7225
  179MOL0     H23564   9.848   8.263   2.649 -1.3967 -4.5106  1.7404
  179MOL0     H23565   9.632   8.294   2.559 -2.0388  0.5681  0.1690
  179MOL0     H23566   9.654   8.168   2.674  1.7108 -0.0247 -0.9786
  179MOL0     H23567   9.462   8.132   2.663  1.4811 -2.0645  0.0478
  179MOL0     H23568   9.479   8.034   2.520  3.3680  0.0802 -0.7426
  179MOL0     H23569   9.437   8.280   2.389 -1.4198 -1.0160 -0.6746
  179MOL0     H23570   9.372   8.322   2.550  2.3596 -1.1717  2.5558
  179MOL0     H23571   9.263   8.086   2.390 -2.5625  0.1116 -0.8767
  179MOL0     H23572   9.227   8.135   2.558  2.1934 -0.9426 -0.1472
  179MOL0     H23573   9.172   8.358   2.365 -0.6236  0.7741  0.6195
  179MOL0     H23574   9.078   8.286   2.489  3.5671 -0.8075  1.9835
  179MOL0     H23575   9.024   8.091   2.343 -1.1162  1.0701 -0.2715
  179MOL0     H23576   9.104   8.145   2.213 -1.0976 -1.5834 -0.0583
  179MOL0     H23577   8.862   8.287   2.352  0.8779 -0.1179  0.7388
  179MOL0     H23578   8.954   8.363   2.223 -2.3956  0.5160 -0.5000
  179MOL0     H23579   8.802   8.094   2.205 -1.8126 -0.2378  0.0004
  179MOL0     H23580   8.902   8.160   2.069 -1.8923  0.5737 -1.3243
  179MOL0     H23581   8.550   8.142   2.169 -2.3086  1.6598  1.6736
  179MOL0     H23582   8.358   8.447   2.025  0.0325  0.2502 -2.1072
  179MOL0     H23583   8.349   8.329   2.164  0.6792 -1.3508 -0.1913
  179MOL0     H23584   8.209   8.269   1.976  0.1283 -0.1614 -0.1147
  179MOL0     H23585   8.327   8.145   2.011  2.6330 -0.7633 -0.9324
  179MOL0     H23586   8.417   8.304   1.787 -2.0277  2.3673  0.8184
  179MOL0     H23587   8.422   8.137   1.820  0.5488 -0.1951  3.3252
  179MOL0     H23588   8.169   8.145   1.755 -1.1471  1.0970  1.4399
  179MOL0     H23589   8.275   8.210   1.630  0.9975 -2.3174  1.2352
  179MOL0     H23590   7.989   8.500   1.893 -1.5187  1.4154 -0.7603
  179MOL0     H23591   7.750   8.518   1.837  0.7785  0.5374  1.4196
  179MOL0     H23592   7.493   8.306   1.263 -0.6742 -0.5448 -1.2369
  179MOL0     H23593   7.266   8.261   1.181  0.9588  2.0478 -0.8545
  179MOL0     H23594   6.983   8.083   1.332 -0.2330  2.8802  2.6588
  179MOL0     H23595   7.081   8.121   1.182 -2.1396  1.2883 -4.7692
  179MOL0     H23596   6.829   8.272   1.190 -0.2885 -0.0200 -1.0913
  179MOL0     H23597   6.800   8.104   1.203  0.1372 -0.3964 -1.5904
  179MOL0     H23598   6.920   8.043   0.999  4.1557  0.2233 -0.1296
  179MOL0     H23599   6.971   8.217   0.978 -1.2107  1.3674  1.1226
  179MOL0     H23600   6.702   8.251   0.989  2.4235  0.1020  0.9397
  179MOL0     H23601   6.793   8.224   0.844 -0.4530 -0.8113 -0.3301
  179MOL0     H23602   6.572   8.092   0.912 -1.7131 -0.4569  2.1005
  179MOL0     H23603   6.677   8.005   1.025 -1.1796  1.6129 -1.1335
  179MOL0     H23604   6.813   7.938   0.828 -0.8066 -1.2087  2.3527
  179MOL0     H23605   6.705   8.042   0.722 -2.2736 -1.3276 -1.5389
  179MOL0     H23606   6.686   7.790   0.710  0.0748  1.8985 -0.7123
  179MOL0     H23607   6.637   7.783   0.875  0.6588  0.9032  0.1343
  179MOL0     H23608   6.486   7.942   0.642 -0.2272 -3.2412 -1.5208
  179MOL0     H23609   6.435   7.933   0.813  0.0044 -0.5971  0.3949
  179MOL0     H23610   7.110   8.349   1.571 -0.7025  0.7506 -1.5520
  179MOL0     H23611   7.334   8.397   1.655 -1.5363 -1.4942  0.6655
  179MOL0     H23612   7.794   8.251   1.509  0.2105  0.4573 -0.6008
  179MOL0     H23613   8.043   8.231   1.551  0.5674  0.7633 -1.8925
  179MOL0     H23614   9.878   8.040   2.297 -1.0088  1.7560 -0.3256
  179MOL0     H23615  10.133   8.059   2.307  0.5537 -1.4175  0.9977
  179MOL0     H23616  10.501   8.093   2.431 -4.3374  2.9276  0.3241
  179MOL0     H23617  10.746   8.087   2.430 -3.6710 -1.9952  0.2468
  179MOL0     H23618  10.932   8.134   2.534 -0.4890  1.4083  0.8286
  179MOL0     H23619  11.072   8.231   2.531  1.4355  1.1510 -2.5292
  179MOL0     H23620  10.944   8.150   2.281 -1.4370 -1.7506  3.4336
  179MOL0     H23621  11.099   8.247   2.305  2.2176  0.5076  4.0908
  179MOL0     H23622  11.085   7.971   2.278 -0.1530  1.5245 -0.9612
  179MOL0     H23623  11.094   7.989   2.454  1.0944  1.5008 -0.3624
  179MOL0     H23624  11.308   7.976   2.369 -0.1451 -0.4604 -3.3688
  179MOL0     H23625  11.275   8.102   2.248 -1.3228 -1.4508 -0.2825
  179MOL0     H23626  11.400   8.296   2.608  2.3049 -1.3172 -0.2166
  179MOL0     H23627  10.729   8.526   2.421  1.2507 -0.2663 -2.0358
  179MOL0     H23628  10.492   8.517   2.400  2.2051  0.8670 -0.8292
  180MOL0     O23629   1.759   1.203   2.436 -0.9710  0.3186 -0.6454
  180MOL0     C23630   1.795   1.087   2.405  0.0023 -0.6476 -0.4358
  180MOL0     O23631   1.709   0.982   2.422  0.1304 -0.5546  0.0905
  180MOL0     C23632   1.584   0.995   2.474  0.9412 -0.5937 -0.2741
  180MOL0     C23633   1.543   0.898   2.559 -0.5269 -0.2556  0.1803
  180MOL0     C23634   1.423   0.895   2.621 -0.0748 -0.4129 -0.0593
  180MOL0     C23635   1.326   0.988   2.581  0.3327 -0.8865 -0.8841
  180MOL0     O23636   1.199   0.968   2.616  0.0554 -0.6223  0.3577
  180MOL0     C23637   1.141   0.853   2.562 -0.2429 -0.2404  0.2532
  180MOL0     C23638   0.991   0.837   2.540  0.7610 -0.5468 -0.6819
  180MOL0     C23639   0.911   0.873   2.660  0.3222 -0.4069 -0.2035
  180MOL0     C23640   0.789   0.940   2.617 -0.2428  0.0844 -0.0300
  180MOL0     C23641   0.690   0.950   2.734 -0.1915 -0.4788 -0.4552
  180MOL0     C23642   0.622   0.812   2.748 -0.3388  0.6459 -1.5282
  180MOL0     C23643   0.496   0.825   2.830 -1.0506 -0.0776  0.6748
  180MOL0     C23644   0.405   0.701   2.826 -0.5534 -1.0679 -0.5026
  180MOL0     N23645   0.268   0.725   2.882  0.3822 -0.3145 -0.7352
  180MOL0     C23646   0.198   0.622   2.943  0.0896 -0.6867 -0.0355
  180MOL0     C23647   0.073   0.672   2.954  0.6662 -0.2162 -0.7080
  180MOL0     C23648  -0.048   0.610   3.008 -1.2013  0.0346 -0.5273
  180MOL0     C23649  -0.142   0.683   3.104  0.4571  0.2470 -0.0138
  180MOL0     C23650  -0.090   0.678   3.253 -0.7834  0.0133  0.7331
  180MOL0     C23651  -0.183   0.753   3.356 -0.8052 -0.2394  0.6535
  180MOL0     O23652  -0.314   0.725   3.322  0.0207 -0.3152  0.8375
  180MOL0     C23653  -0.416   0.776   3.400 -0.5666 -0.3667  0.1208
  180MOL0     C23654  -0.389   0.837   3.524 -0.4571 -0.2683 -0.7378
  180MOL0     C23655  -0.496   0.882   3.600 -0.0550 -0.7309  0.1199
  180MOL0     C23656  -0.631   0.864   3.562 -0.6389 -0.5551  0.4132
  180MOL0     C23657  -0.747   0.905   3.640 -0.3847 -0.4813  0.3294
  180MOL0     O23658  -0.870   0.869   3.589 -0.5032 -0.4203  0.2585
  180MOL0     C23659  -0.978   0.910   3.658  0.6287 -1.3343  0.0009
  180MOL0     C23660  -1.004   0.881   3.797  0.9101 -0.1836  1.1566
  180MOL0     C23661  -1.122   0.920   3.866  0.1980  0.4713  0.8353
  180MOL0     C23662  -1.224   0.978   3.796 -0.4864  1.0726  0.5973
  180MOL0     O23663  -1.341   1.018   3.857 -0.8042  0.5211 -0.4049
  180MOL0     C23664  -1.420   0.907   3.922 -0.6740  0.5134  0.2651
  180MOL0     C23665  -1.550   0.973   3.960 -1.0581  0.1765 -0.4883
  180MOL0     C23666  -1.628   1.028   3.844 -0.8917  0.2020 -0.0574
  180MOL0     C23667  -1.782   1.024   3.873  0.4320  0.6481 -0.0466
  180MOL0     C23668  -1.866   1.092   3.767 -0.6742 -0.0465 -0.5957
  180MOL0     C23669  -2.003   1.141   3.833 -0.6287  0.7014  0.4770
  180MOL0     C23670  -2.088   1.198   3.728  0.2454 -0.6369 -1.0009
  180MOL0     C23671  -2.223   1.251   3.800  0.9027 -0.1166  0.1482
  180MOL0    Cl23672  -2.190   1.418   3.871 -0.4063  0.1510  0.3910
  180MOL0     C23673  -1.208   1.010   3.657 -0.5998  0.3773  0.8803
  180MOL0     C23674  -1.082   0.978   3.588 -0.4343 -0.6982 -0.5601
  180MOL0     O23675  -0.728   0.984   3.731 -0.0100 -0.7207 -0.2087
  180MOL0     C23676  -0.657   0.801   3.434 -0.0716 -0.2466 -0.6995
  180MOL0     C23677  -0.548   0.760   3.358  0.1251 -0.5875 -0.4005
  180MOL0     N23678   0.074   0.812   2.917 -1.0469  0.2355  0.0087
  180MOL0     N23679   0.190   0.834   2.864 -0.3490  0.4656 -0.0047
  180MOL0     C23680   1.351   1.080   2.482  0.7127 -0.4016 -0.1561
  180MOL0     C23681   1.484   1.088   2.435  1.1945 -0.9103  0.0569
  180MOL0     C23682   1.926   1.065   2.339  0.2119 -0.7488 -0.1267
  180MOL0     C23683   1.982   0.938   2.326  0.2814 -0.2746  0.4729
  180MOL0     C23684   2.112   0.915   2.270  0.3963 -0.1075 -1.1045
  180MOL0     C23685   2.195   1.028   2.238  0.8406 -0.5061  0.1713
  180MOL0     O23686   2.317   1.027   2.175 -0.0928  0.4375  0.3787
  180MOL0     C23687   2.342   0.902   2.109  0.4593 -0.0906 -0.1198
  180MOL0     C23688   2.463   0.921   2.030  0.1748 -0.0684 -0.7496
  180MOL0     C23689   2.442   1.023   1.919 -0.9222  0.3792  0.5690
  180MOL0     C23690   2.571   1.067   1.846  0.4010  0.3944  0.3065
  180MOL0     C23691   2.565   1.210   1.828  0.2662  0.4740 -0.6749
  180MOL0     C23692   2.539   1.328   1.835  0.3845 -0.7265  0.1274
  180MOL0     C23693   2.134   1.156   2.248  0.3270  0.2974  0.8617
  180MOL0     C23694   2.003   1.172   2.307  0.4584  0.2404  0.4288
  180MOL0     H23695   1.605   0.812   2.580 -0.2102  0.3661  1.9583
  180MOL0     H23696   1.399   0.809   2.682 -0.4994  1.1425  2.0670
  180MOL0     H23697   1.166   0.768   2.626 -2.9464 -0.7476  0.7532
  180MOL0     H23698   1.185   0.827   2.465  0.2438 -0.9775  0.6685
  180MOL0     H23699   0.954   0.743   2.499 -0.7685  0.4000 -1.5637
  180MOL0     H23700   0.966   0.909   2.462  1.8428 -1.2265 -1.6907
  180MOL0     H23701   0.964   0.947   2.721 -1.1461  1.5843 -1.2401
  180MOL0     H23702   0.884   0.788   2.724 -0.4776  0.6751  0.9402
  180MOL0     H23703   0.804   1.043   2.583  1.2449 -0.1889 -0.2647
  180MOL0     H23704   0.746   0.878   2.538 -0.3649 -1.5850  1.3024
  180MOL0     H23705   0.616   1.029   2.715  2.3227  2.1690  0.0026
  180MOL0     H23706   0.737   0.980   2.828 -0.5535 -0.1152 -0.3842
  180MOL0     H23707   0.689   0.751   2.809 -2.3801 -0.2176 -0.0294
  180MOL0     H23708   0.608   0.755   2.655 -2.5363  1.7081 -1.9135
  180MOL0     H23709   0.524   0.853   2.932  0.1883  1.5397 -0.0647
  180MOL0     H23710   0.446   0.915   2.792  1.0317  1.6022  1.7238
  180MOL0     H23711   0.460   0.621   2.876  1.9398 -0.2380 -1.7442
  180MOL0     H23712   0.394   0.667   2.723  0.1526 -1.7272 -0.3630
  180MOL0     H23713   0.236   0.524   2.968  3.1802  0.5876  0.7661
  180MOL0     H23714  -0.037   0.505   3.037 -2.8894 -0.2248 -0.6851
  180MOL0     H23715  -0.116   0.615   2.923 -2.6693  2.6975  0.6667
  180MOL0     H23716  -0.234   0.625   3.097  1.1747 -0.7073 -3.1653
  180MOL0     H23717  -0.164   0.789   3.084 -0.0439  0.3495  1.0175
  180MOL0     H23718  -0.097   0.573   3.285 -5.5808 -0.4522 -1.0869
  180MOL0     H23719   0.014   0.713   3.257 -0.5966 -0.4203 -0.0299
  180MOL0     H23720  -0.160   0.859   3.344 -2.1275 -0.1122 -1.2451
  180MOL0     H23721  -0.161   0.719   3.458 -0.2582  1.3050  1.0805
  180MOL0     H23722  -0.289   0.858   3.562  0.3646 -2.3477 -1.5834
  180MOL0     H23723  -0.477   0.927   3.697 -1.6748 -0.3646  0.3009
  180MOL0     H23724  -0.923   0.837   3.855  0.3073 -2.2492  0.5249
  180MOL0     H23725  -1.137   0.915   3.973  0.3594  0.3686  0.8535
  180MOL0     H23726  -1.381   0.850   4.007 -3.5898 -0.7184  0.9249
  180MOL0     H23727  -1.439   0.821   3.856 -0.9823  0.3474  0.5615
  180MOL0     H23728  -1.516   1.054   4.025  1.9305  0.1227 -1.8393
  180MOL0     H23729  -1.603   0.895   4.016  2.3312 -0.6402  1.8817
  180MOL0     H23730  -1.600   0.963   3.760  0.5914  0.3944  0.2668
  180MOL0     H23731  -1.608   1.131   3.815  1.3195 -0.0827  0.3095
  180MOL0     H23732  -1.826   0.924   3.871  1.6765  0.0657  0.2344
  180MOL0     H23733  -1.807   1.060   3.973 -2.6687 -0.1719 -0.4196
  180MOL0     H23734  -1.882   1.027   3.681  0.4206  1.1557 -1.7484
  180MOL0     H23735  -1.812   1.181   3.734  1.1328 -1.0349 -0.4885
  180MOL0     H23736  -2.002   1.218   3.912 -1.6781 -0.1455  1.3581
  180MOL0     H23737  -2.057   1.054   3.871 -1.6081 -0.7296 -3.6885
  180MOL0     H23738  -2.033   1.279   3.678  1.4911  0.5706  2.0891
  180MOL0     H23739  -2.106   1.115   3.659  2.4213 -0.6658 -1.6398
  180MOL0     H23740  -2.268   1.184   3.874  1.9779 -0.2623  0.6932
  180MOL0     H23741  -2.293   1.271   3.719  3.3225  2.3807 -1.5097
  180MOL0     H23742  -1.277   1.080   3.611  0.0098  2.1395  2.5030
  180MOL0     H23743  -1.045   1.022   3.496  1.3972 -0.0260  0.4352
  180MOL0     H23744  -0.754   0.818   3.387  0.4537  0.4279 -1.5794
  180MOL0     H23745  -0.558   0.717   3.258  4.0645 -0.5570 -0.9668
  180MOL0     H23746   1.274   1.154   2.460 -1.5901 -2.5463  0.2210
  180MOL0     H23747   1.503   1.176   2.374  0.3994  2.8513  4.7032
  180MOL0     H23748   1.943   0.846   2.366 -1.6085  0.6555  0.8914
  180MOL0     H23749   2.152   0.814   2.266  1.7260  0.3411  0.0846
  180MOL0     H23750   2.262   0.875   2.040  2.5830  3.3636 -4.4252
  180MOL0     H23751   2.365   0.831   2.190  3.2190  2.2114  1.2823
  180MOL0     H23752   2.548   0.948   2.093 -1.2915  2.3277  0.3340
  180MOL0     H23753   2.477   0.824   1.983 -2.7650 -1.5198  1.0692
  180MOL0     H23754   2.403   1.115   1.962  0.0051  0.7685  0.6140
  180MOL0     H23755   2.370   0.977   1.851  1.7887 -3.2136 -0.1990
  180MOL0     H23756   2.662   1.035   1.897 -0.8140 -0.8611  1.8334
  180MOL0     H23757   2.592   1.015   1.752 -0.8436 -1.1668  0.8503
  180MOL0     H23758   2.524   1.434   1.830 -2.1703 -1.0899 -1.7726
  180MOL0     H23759   2.193   1.241   2.214  5.6775 -1.9013  3.3515
  180MOL0     H23760   1.961   1.272   2.301 -1.2259 -0.5082 -1.3778
  181MOL0     O23761   7.086  11.076   0.237  0.2284 -0.4805  0.3569
  181MOL0     C23762   7.145  11.141   0.150 -0.6890 -0.4989 -0.6423
  181MOL0     O23763   7.094  11.208   0.045  0.4018 -1.3434 -0.0495
  181MOL0     C23764   6.969  11.165   0.005  0.6813  0.4012 -0.9293
  181MOL0     C23765   6.858  11.233   0.063 -0.2344 -0.1494  1.3109
  181MOL0     C23766   6.729  11.221   0.021 -0.2793 -0.6270  0.9894
  181MOL0     C23767   6.700  11.130  -0.076  0.7775 -0.4104 -0.1148
  181MOL0     O23768   6.574  11.113  -0.129  0.0616 -0.2792  0.6168
  181MOL0     C23769   6.471  11.103  -0.027  0.4047 -0.1023  0.2187
  181MOL0     C23770   6.339  11.064  -0.088 -0.3922 -0.1609  0.1767
  181MOL0     C23771   6.226  11.084   0.018 -0.1546 -0.0351 -0.1329
  181MOL0     C23772   6.099  11.029  -0.042 -0.2052  0.3293  0.1589
  181MOL0     C23773   5.975  11.081   0.032  0.8335  0.0387  0.0404
  181MOL0     C23774   5.972  11.071   0.179  0.3366  0.4751  0.0430
  181MOL0     C23775   5.835  11.068   0.254 -0.2756  0.7990 -0.5655
  181MOL0     C23776   5.849  11.000   0.385 -0.1826 -0.0197 -0.5818
  181MOL0     N23777   5.925  11.082   0.483 -0.2301  1.1106 -0.1109
  181MOL0     C23778   5.886  11.198   0.545 -0.2976  0.0292  0.9320
  181MOL0     C23779   5.992  11.232   0.630  0.4546 -0.4776 -0.1467
  181MOL0     C23780   5.996  11.348   0.730 -0.2844 -0.4346 -0.1867
  181MOL0     C23781   5.855  11.374   0.781 -0.9605  0.0065 -0.0772
  181MOL0     C23782   5.782  11.485   0.705  0.9784  0.0219 -0.0520
  181MOL0     C23783   5.641  11.502   0.759 -0.1361 -0.1383 -0.7862
  181MOL0     O23784   5.562  11.394   0.712 -0.0711  0.4555 -0.1518
  181MOL0     C23785   5.432  11.388   0.753 -0.7825  0.2139  0.0165
  181MOL0     C23786   5.364  11.274   0.712 -0.4450 -0.9185 -0.5002
  181MOL0     C23787   5.227  11.259   0.733  0.5666 -0.3192 -0.1562
  181MOL0     C23788   5.165  11.342   0.826  0.8980 -0.3130  0.9225
  181MOL0     C23789   5.020  11.316   0.863 -0.7810 -0.3822  1.0106
  181MOL0     O23790   4.957  11.226   0.772 -0.4494  0.7185 -1.2155
  181MOL0     C23791   4.827  11.197   0.811 -0.0414 -1.1237 -0.0051
  181MOL0     C23792   4.729  11.302   0.829 -0.3642  0.9333  0.0611
  181MOL0     C23793   4.593  11.266   0.848  0.7394  0.8622  0.5711
  181MOL0     C23794   4.548  11.137   0.851  0.1696 -0.0885  0.2202
  181MOL0     O23795   4.415  11.105   0.854  0.0490  0.5127 -0.2346
  181MOL0     C23796   4.320  11.162   0.939  0.0385 -0.1637 -0.7132
  181MOL0     C23797   4.194  11.080   0.958 -0.3659 -0.5493  1.4229
  181MOL0     C23798   4.109  11.061   0.826  0.2899 -0.8420 -0.0782
  181MOL0     C23799   4.010  10.947   0.845  0.7600 -0.3078  0.1521
  181MOL0     C23800   3.878  10.979   0.913 -0.6364 -0.1407 -0.8521
  181MOL0     C23801   3.768  11.061   0.833  0.4264 -0.0706  0.9036
  181MOL0     C23802   3.620  11.018   0.858 -0.3540 -0.3743 -0.0985
  181MOL0     C23803   3.530  11.046   0.737 -0.6382 -0.9881  0.4027
  181MOL0    Cl23804   3.503  11.220   0.707 -0.2482  0.0304 -0.2896
  181MOL0     C23805   4.647  11.039   0.842  0.5152  0.5822 -0.1876
  181MOL0     C23806   4.785  11.062   0.823 -0.3446 -0.0961  0.3716
  181MOL0     O23807   4.971  11.362   0.966 -0.2511 -0.3095  0.1643
  181MOL0     C23808   5.229  11.461   0.878  0.0372  0.4003  0.7131
  181MOL0     C23809   5.361  11.480   0.832  0.7999 -0.1777 -0.6572
  181MOL0     N23810   6.095  11.149   0.599 -0.1076 -0.1882  0.0145
  181MOL0     N23811   6.060  11.058   0.513  0.7789 -1.1525 -0.0666
  181MOL0     C23812   6.799  11.043  -0.122  0.0277 -0.0034 -1.2932
  181MOL0     C23813   6.934  11.064  -0.089 -0.1078 -0.2460 -0.0780
  181MOL0     C23814   7.289  11.158   0.163 -0.7912  0.1623 -0.8150
  181MOL0     C23815   7.377  11.156   0.055  0.5869  0.7353  0.0471
  181MOL0     C23816   7.515  11.152   0.072 -0.5889  0.0475 -0.4215
  181MOL0     C23817   7.570  11.169   0.202  0.1971 -0.4480  0.0772
  181MOL0     O23818   7.710  11.184   0.218 -0.1124 -0.1446  1.0967
  181MOL0     C23819   7.767  11.161   0.347  0.2017 -0.8585  0.4637
  181MOL0     C23820   7.920  11.172   0.335 -0.6639 -0.1261  0.4598
  181MOL0     C23821   7.998  11.170   0.475 -0.5210 -0.3763  0.3518
  181MOL0     C23822   7.966  11.303   0.557 -0.3349  0.5649  0.1462
  181MOL0     C23823   8.066  11.305   0.669  0.3802 -0.5222  0.4725
  181MOL0     C23824   8.163  11.301   0.741  0.1405 -0.2979  0.3966
  181MOL0     C23825   7.491  11.160   0.313 -0.2329 -0.3754 -0.4271
  181MOL0     C23826   7.352  11.149   0.295 -0.5908  0.2652 -0.0449
  181MOL0     H23827   6.884  11.310   0.134 -1.5061  1.3232  0.2480
  181MOL0     H23828   6.648  11.281   0.062 -1.1015 -0.3243 -0.9409
  181MOL0     H23829   6.455  11.200   0.020  2.2537  0.7414 -0.7933
  181MOL0     H23830   6.501  11.030   0.048  2.1378  0.4808  0.1396
  181MOL0     H23831   6.342  10.960  -0.120 -0.6849  0.4470 -1.9681
  181MOL0     H23832   6.332  11.137  -0.169 -1.0390 -0.3003  0.0971
  181MOL0     H23833   6.203  11.188   0.041  1.1142  0.5264 -1.2998
  181MOL0     H23834   6.257  11.040   0.113 -0.3122  1.3550  0.5849
  181MOL0     H23835   6.096  11.059  -0.147 -1.1759  2.3031  0.7215
  181MOL0     H23836   6.106  10.923  -0.015 -2.3624  1.0929  4.8263
  181MOL0     H23837   5.885  11.028   0.000  1.3764 -0.4120 -0.7881
  181MOL0     H23838   5.961  11.184  -0.001  1.9132 -0.1727 -1.1364
  181MOL0     H23839   6.028  11.158   0.217  1.3132 -0.7740  1.6066
  181MOL0     H23840   6.028  10.984   0.213  0.6635  0.6387 -0.0695
  181MOL0     H23841   5.796  11.168   0.273  0.7608  0.8302  1.8189
  181MOL0     H23842   5.769  11.005   0.193 -0.1158  0.2861 -0.2181
  181MOL0     H23843   5.918  10.916   0.374  0.9446  0.5291  1.5916
  181MOL0     H23844   5.745  10.982   0.413 -0.0409 -2.9597 -1.6334
  181MOL0     H23845   5.788  11.244   0.538 -0.3880 -0.4274 -1.6511
  181MOL0     H23846   6.033  11.436   0.677 -0.7842  0.3900  0.8013
  181MOL0     H23847   6.065  11.317   0.809 -0.7499 -0.9567  0.0170
  181MOL0     H23848   5.878  11.379   0.888  1.0398 -2.6812 -0.2988
  181MOL0     H23849   5.796  11.282   0.772  0.8560 -1.3285  0.9503
  181MOL0     H23850   5.840  11.577   0.720  0.7598 -0.1204  1.9037
  181MOL0     H23851   5.776  11.469   0.597 -0.6672 -2.7474  0.3702
  181MOL0     H23852   5.593  11.598   0.736  0.4256  0.6494  1.0702
  181MOL0     H23853   5.654  11.509   0.868 -0.7106  0.6793 -0.7616
  181MOL0     H23854   5.414  11.202   0.648  1.2287 -1.3807  1.2191
  181MOL0     H23855   5.175  11.176   0.687 -0.9578  1.0424 -0.9881
  181MOL0     H23856   4.744  11.408   0.817 -1.8866  1.0280 -1.3189
  181MOL0     H23857   4.502  11.325   0.839 -0.6499 -1.0556  1.1636
  181MOL0     H23858   4.298  11.267   0.914  0.3769  0.0029 -0.3338
  181MOL0     H23859   4.366  11.168   1.038 -2.3231  0.4924  0.4273
  181MOL0     H23860   4.123  11.116   1.032 -2.0008 -3.2498  1.2983
  181MOL0     H23861   4.214  10.979   0.995  1.0382 -1.3238 -1.1317
  181MOL0     H23862   4.172  11.046   0.738 -0.8699  0.5390 -1.2120
  181MOL0     H23863   4.050  11.151   0.805  3.3542  1.9245  2.1991
  181MOL0     H23864   3.982  10.909   0.746  0.1621  1.6425 -0.4956
  181MOL0     H23865   4.054  10.866   0.903 -2.3358 -1.7387  0.7062
  181MOL0     H23866   3.902  11.014   1.014 -0.8755 -2.5150  0.0855
  181MOL0     H23867   3.827  10.884   0.928 -0.1653 -0.3711 -0.6936
  181MOL0     H23868   3.786  11.033   0.729 -1.3752  2.7858 -0.2912
  181MOL0     H23869   3.778  11.170   0.829 -0.6555 -0.0013 -0.8423
  181MOL0     H23870   3.596  10.914   0.881  0.3413 -0.0772  2.3064
  181MOL0     H23871   3.582  11.074   0.944 -1.8784  1.4668 -1.8693
  181MOL0     H23872   3.433  11.000   0.755 -1.0685  0.2505  1.3694
  181MOL0     H23873   3.585  11.007   0.650  3.9997 -2.8498  3.7510
  181MOL0     H23874   4.593  10.948   0.820  0.5228 -0.1822  2.6004
  181MOL0     H23875   4.856  10.985   0.795 -1.0596 -1.1109  1.2617
  181MOL0     H23876   5.188  11.532   0.948 -1.3849 -0.9385  1.2943
  181MOL0     H23877   5.411  11.570   0.865  0.4727 -0.1647 -0.1861
  181MOL0     H23878   6.780  10.962  -0.192  0.4725 -0.9301 -0.3700
  181MOL0     H23879   7.014  11.012  -0.141 -1.3654  1.1925 -3.7717
  181MOL0     H23880   7.336  11.159  -0.045 -1.3730  0.0652  0.7837
  181MOL0     H23881   7.582  11.152  -0.013 -2.4076 -1.5282 -1.9707
  181MOL0     H23882   7.729  11.066   0.386 -0.7297 -0.7929 -0.2328
  181MOL0     H23883   7.743  11.238   0.421  2.8408 -0.1901  0.7211
  181MOL0     H23884   7.954  11.087   0.275  0.9624 -0.0882  1.2565
  181MOL0     H23885   7.939  11.265   0.280  1.1321 -0.6635  0.0806
  181MOL0     H23886   8.107  11.173   0.464 -0.7000 -0.7905 -2.1096
  181MOL0     H23887   7.977  11.074   0.521  0.8242 -0.3687  1.0243
  181MOL0     H23888   7.977  11.397   0.502  1.4696 -1.3497 -3.1240
  181MOL0     H23889   7.861  11.300   0.585 -0.5891 -1.5768 -0.8623
  181MOL0     H23890   8.246  11.311   0.808  0.1067 -2.2439  0.8033
  181MOL0     H23891   7.530  11.164   0.414 -0.2875  0.0500 -0.4213
  181MOL0     H23892   7.286  11.127   0.378 -1.1243 -1.3550 -0.8617
  182MOL0     O23893   9.729   8.101   5.135  0.0824 -0.6505 -0.1919
  182MOL0     C23894   9.823   8.037   5.100 -0.3677  0.2248  0.4308
  182MOL0     O23895   9.811   7.898   5.090 -0.1317  0.0893 -0.2066
  182MOL0     C23896   9.687   7.837   5.102 -0.6390  0.2752  0.1091
  182MOL0     C23897   9.646   7.773   5.225  0.1269 -0.9662 -0.1686
  182MOL0     C23898   9.519   7.729   5.244  0.1126 -0.4240 -0.1889
  182MOL0     C23899   9.419   7.737   5.139 -0.2173 -0.4014 -0.5775
  182MOL0     O23900   9.305   7.671   5.171 -0.1328  0.1723 -0.5360
  182MOL0     C23901   9.218   7.641   5.064  0.3307 -0.8518 -0.0449
  182MOL0     C23902   9.091   7.577   5.120 -0.3575 -0.0937  0.0342
  182MOL0     C23903   9.038   7.662   5.244  0.3509  0.2748  1.0126
  182MOL0     C23904   8.914   7.596   5.306  0.7862 -0.5694 -0.0066
  182MOL0     C23905   8.835   7.693   5.402 -0.4517  0.3286  0.6475
  182MOL0     C23906   8.904   7.709   5.542  0.3127  0.1585 -0.7747
  182MOL0     C23907   8.833   7.829   5.608 -0.4570 -0.2395 -0.0918
  182MOL0     C23908   8.867   7.854   5.760 -0.0977  0.3682 -0.2405
  182MOL0     N23909   8.804   7.755   5.843 -0.2027  0.1495 -0.6693
  182MOL0     C23910   8.669   7.765   5.879  0.1730 -0.2074 -0.3771
  182MOL0     C23911   8.650   7.667   5.978  0.4094 -0.5331 -0.4906
  182MOL0     C23912   8.525   7.653   6.063 -0.4073 -0.2183 -0.3041
  182MOL0     C23913   8.452   7.785   6.078  0.2364  0.2231  0.2465
  182MOL0     C23914   8.343   7.786   6.187  0.8829  0.0282  0.3208
  182MOL0     C23915   8.298   7.926   6.230 -1.4649 -0.0514  1.1787
  182MOL0     O23916   8.212   7.930   6.346  0.6806 -0.3109  0.2103
  182MOL0     C23917   8.077   7.890   6.348 -0.6949  0.9730 -0.5825
  182MOL0     C23918   8.000   7.851   6.231 -0.3016  0.7969 -0.3321
  182MOL0     C23919   7.866   7.830   6.235  0.2671 -0.8467  0.5320
  182MOL0     C23920   7.796   7.847   6.359  0.0224 -0.1428 -0.4923
  182MOL0     C23921   7.649   7.815   6.365  0.5608 -1.0168 -0.4844
  182MOL0     O23922   7.566   7.837   6.262 -0.2508 -0.2085  0.7953
  182MOL0     C23923   7.427   7.822   6.256 -0.0146  0.5927  0.5508
  182MOL0     C23924   7.355   7.890   6.161 -0.3698 -0.4063 -0.5003
  182MOL0     C23925   7.220   7.884   6.140  0.0207  0.5482  0.0263
  182MOL0     C23926   7.152   7.794   6.220  0.0341  0.1664  0.2261
  182MOL0     O23927   7.016   7.767   6.213  0.1411 -0.1336 -0.1420
  182MOL0     C23928   6.940   7.882   6.179  0.0084  0.2018 -1.0812
  182MOL0     C23929   6.821   7.826   6.105 -0.0995  0.5311 -0.7652
  182MOL0     C23930   6.710   7.927   6.106  0.9458 -0.5031 -0.5540
  182MOL0     C23931   6.646   7.958   6.245 -1.3607  0.2331 -0.8298
  182MOL0     C23932   6.501   8.008   6.229  0.2101 -0.1557  0.1445
  182MOL0     C23933   6.399   7.896   6.248 -0.4219 -0.3637 -0.4335
  182MOL0     C23934   6.253   7.942   6.213 -0.7807  0.3448 -0.6590
  182MOL0     C23935   6.158   7.822   6.247 -0.1103 -0.3146 -0.0945
  182MOL0    Cl23936   5.995   7.859   6.239 -0.3953 -0.0963  0.0814
  182MOL0     C23937   7.227   7.713   6.302 -1.0683 -0.3439  0.1240
  182MOL0     C23938   7.359   7.725   6.330 -0.4791  0.8636  1.2963
  182MOL0     O23939   7.606   7.772   6.472  1.1980 -0.0621 -0.2197
  182MOL0     C23940   7.876   7.889   6.469  0.4882 -0.7252  0.3573
  182MOL0     C23941   8.011   7.915   6.464 -0.0396 -0.5520 -0.5563
  182MOL0     N23942   8.776   7.609   5.990 -0.1697  0.0801  0.2657
  182MOL0     N23943   8.856   7.651   5.902  0.7125  0.4130  0.2531
  182MOL0     C23944   9.464   7.788   5.018  0.3529 -0.0132 -0.3758
  182MOL0     C23945   9.597   7.842   5.004  0.2822  0.5848 -0.8162
  182MOL0     C23946   9.944   8.095   5.056 -0.7017  0.6767  0.6608
  182MOL0     C23947   9.936   8.222   4.994 -0.3632 -0.2447  0.7721
  182MOL0     C23948  10.050   8.290   4.941  0.0940  0.1776  0.1261
  182MOL0     C23949  10.177   8.229   4.968  0.0150  0.6647 -0.0163
  182MOL0     O23950  10.293   8.274   4.919  0.1169  0.5081 -0.1383
  182MOL0     C23951  10.286   8.407   4.846 -0.2159  0.1778  0.4649
  182MOL0     C23952  10.430   8.455   4.820 -1.1415  0.6188 -0.9584
  182MOL0     C23953  10.428   8.595   4.761 -0.9108  0.6874  0.3165
  182MOL0     C23954  10.537   8.616   4.657  0.7847  0.8563  0.9457
  182MOL0     C23955  10.666   8.632   4.725 -0.3802  0.2779  0.7481
  182MOL0     C23956  10.768   8.636   4.780 -0.1045  0.3648 -0.3664
  182MOL0     C23957  10.186   8.105   5.032 -0.3307 -0.1212  0.6854
  182MOL0     C23958  10.068   8.039   5.075 -0.9353  0.3857 -0.7910
  182MOL0     H23959   9.713   7.744   5.304  0.5958  0.0286 -0.1840
  182MOL0     H23960   9.499   7.669   5.332 -2.5678 -2.8389 -2.2347
  182MOL0     H23961   9.273   7.566   5.005  0.4637 -0.4647 -0.4188
  182MOL0     H23962   9.199   7.723   4.994  2.0871 -2.3993 -2.4946
  182MOL0     H23963   9.117   7.477   5.158  1.6406 -0.0693 -1.1396
  182MOL0     H23964   9.013   7.560   5.045  0.8919  0.8514 -1.5369
  182MOL0     H23965   9.013   7.760   5.201  1.9537 -1.1108 -3.6680
  182MOL0     H23966   9.116   7.670   5.320  1.6866 -0.0199 -0.2884
  182MOL0     H23967   8.847   7.560   5.228  0.6267 -0.1108 -0.0836
  182MOL0     H23968   8.949   7.519   5.376  1.7566  1.1267  1.4740
  182MOL0     H23969   8.735   7.654   5.417 -0.6274  0.0234 -1.0688
  182MOL0     H23970   8.817   7.793   5.359 -2.5549 -0.3484 -0.1716
  182MOL0     H23971   9.009   7.737   5.535  0.4785 -0.0189  0.6816
  182MOL0     H23972   8.888   7.619   5.603 -1.5014  1.4338  0.7439
  182MOL0     H23973   8.864   7.912   5.544 -0.3720  0.5462  0.9527
  182MOL0     H23974   8.727   7.803   5.599 -0.1809 -1.1787 -0.8345
  182MOL0     H23975   8.828   7.955   5.774 -0.0732  0.4422 -0.6941
  182MOL0     H23976   8.976   7.850   5.765 -0.1754 -3.6896  2.0619
  182MOL0     H23977   8.588   7.826   5.838  0.1966  0.4245  0.4894
  182MOL0     H23978   8.544   7.615   6.164 -1.7674 -0.7906 -0.2443
  182MOL0     H23979   8.458   7.579   6.019  1.3290 -1.6892 -0.6013
  182MOL0     H23980   8.416   7.793   5.975  0.3431 -1.1220  0.0960
  182MOL0     H23981   8.521   7.865   6.109 -2.1261  2.2547  0.5592
  182MOL0     H23982   8.268   7.720   6.142  1.2621  0.1590 -0.5307
  182MOL0     H23983   8.366   7.726   6.275 -0.6456 -3.4233 -1.4139
  182MOL0     H23984   8.252   7.987   6.152  0.0621  0.5593  0.7145
  182MOL0     H23985   8.392   7.980   6.249  0.0318 -2.3023  0.6080
  182MOL0     H23986   8.055   7.826   6.140  1.1294  2.0969  0.1314
  182MOL0     H23987   7.827   7.795   6.140  1.8303 -1.6908  0.1728
  182MOL0     H23988   7.423   7.952   6.104  3.8477 -1.9182  2.3995
  182MOL0     H23989   7.182   7.946   6.059  0.5448  0.3190 -0.4029
  182MOL0     H23990   6.990   7.950   6.109  3.5464 -0.8308  0.2147
  182MOL0     H23991   6.918   7.940   6.269  0.3781  1.2347 -1.6454
  182MOL0     H23992   6.784   7.735   6.152  1.7426 -1.3877 -2.7999
  182MOL0     H23993   6.850   7.807   6.001  0.7732 -1.4853 -0.1952
  182MOL0     H23994   6.635   7.887   6.038 -0.3352  1.0315 -0.0874
  182MOL0     H23995   6.750   8.021   6.069 -0.4107  1.1999  2.0267
  182MOL0     H23996   6.644   7.864   6.301 -1.4926  1.5750  1.5615
  182MOL0     H23997   6.707   8.022   6.309  0.9776 -4.1710  1.8252
  182MOL0     H23998   6.483   8.047   6.129  1.3689 -0.8031 -0.3383
  182MOL0     H23999   6.483   8.088   6.301 -3.8212 -1.5933  1.0154
  182MOL0     H24000   6.401   7.856   6.350 -0.7159  3.3076  1.1590
  182MOL0     H24001   6.433   7.814   6.184  0.9041 -0.2497  0.0776
  182MOL0     H24002   6.231   8.028   6.276  4.0045  1.4071 -0.0887
  182MOL0     H24003   6.240   7.977   6.110 -0.0498  5.7425  0.7994
  182MOL0     H24004   6.168   7.783   6.349 -0.4267 -2.9130 -0.9797
  182MOL0     H24005   6.179   7.739   6.180  0.8053 -0.5462  0.4643
  182MOL0     H24006   7.168   7.644   6.361 -2.1086  1.6912  1.5887
  182MOL0     H24007   7.412   7.664   6.402  1.6054 -0.8074 -1.4802
  182MOL0     H24008   7.826   7.914   6.562  1.5455 -0.5160  0.8894
  182MOL0     H24009   8.054   7.969   6.547  0.3461  0.0188 -1.1113
  182MOL0     H24010   9.397   7.794   4.933  1.6901 -1.4263 -1.5912
  182MOL0     H24011   9.627   7.873   4.904 -1.7175  0.4471 -1.5150
  182MOL0     H24012   9.845   8.280   4.986 -0.6821 -0.7701  0.4454
  182MOL0     H24013  10.043   8.391   4.901  2.4050 -0.0267 -0.9747
  182MOL0     H24014  10.231   8.485   4.900  0.5301  2.3870 -1.7997
  182MOL0     H24015  10.238   8.387   4.751 -0.6539  1.3790  0.4157
  182MOL0     H24016  10.484   8.467   4.914 -0.9416 -0.9942 -0.8378
  182MOL0     H24017  10.486   8.389   4.752 -1.6554  1.1081 -1.8788
  182MOL0     H24018  10.446   8.668   4.841 -0.7548  1.5311 -0.4669
  182MOL0     H24019  10.329   8.614   4.716 -1.1300 -1.1466 -0.0395
  182MOL0     H24020  10.536   8.537   4.582  1.0345  1.3858  0.3796
  182MOL0     H24021  10.540   8.708   4.597  1.3556 -1.6170 -3.1569
  182MOL0     H24022  10.855   8.624   4.841 -0.3665  2.1305  0.4308
  182MOL0     H24023  10.284   8.059   5.042 -0.9452 -1.3703  1.0336
  182MOL0     H24024  10.065   7.942   5.123  0.2273 -0.6471 -2.6916
  183MOL0     O24025   6.735   7.841   6.612 -0.2832 -0.5046 -0.1793
  183MOL0     C24026   6.748   7.788   6.725 -0.7213 -1.2521 -0.1745
  183MOL0     O24027   6.649   7.776   6.816  0.1229  0.2941 -1.0209
  183MOL0     C24028   6.522   7.801   6.774 -0.3302 -0.1278 -0.3270
  183MOL0     C24029   6.469   7.744   6.656 -0.4610  0.2476  0.6200
  183MOL0     C24030   6.339   7.774   6.624  0.6030  0.6689  0.1297
  183MOL0     C24031   6.253   7.831   6.705  0.1778  0.7162 -0.5697
  183MOL0     O24032   6.116   7.836   6.675 -0.6393 -0.5210 -0.7159
  183MOL0     C24033   6.041   7.956   6.711 -1.4752  0.3012  0.5538
  183MOL0     C24034   5.963   7.994   6.589  0.6547 -0.1892  0.7332
  183MOL0     C24035   5.808   7.976   6.601 -0.5861  0.4259  0.5560
  183MOL0     C24036   5.747   7.972   6.457  0.4314 -0.1798 -0.2406
  183MOL0     C24037   5.596   7.985   6.477 -0.4634  0.3600  0.3684
  183MOL0     C24038   5.526   7.966   6.347  1.3708 -0.6800 -0.2408
  183MOL0     C24039   5.503   7.824   6.293 -0.0553  0.8384 -0.7898
  183MOL0     C24040   5.436   7.825   6.149  0.1532 -0.1806  0.3037
  183MOL0     N24041   5.325   7.926   6.135  0.5961  0.1488  0.9339
  183MOL0     C24042   5.209   7.941   6.203 -0.3213 -0.3056 -1.1683
  183MOL0     C24043   5.153   8.061   6.168 -0.0827 -0.1301 -0.2665
  183MOL0     C24044   5.012   8.102   6.187 -0.2480 -0.2041 -0.1079
  183MOL0     C24045   4.921   8.022   6.096  0.4916  0.0299  0.6660
  183MOL0     C24046   4.774   8.055   6.112  0.5714  0.4580 -0.0492
  183MOL0     C24047   4.686   8.027   5.997  0.5263 -0.1491  1.2766
  183MOL0     O24048   4.693   7.894   5.957  0.4015 -0.1986 -0.3768
  183MOL0     C24049   4.580   7.835   5.918  0.0291 -0.0236 -0.1435
  183MOL0     C24050   4.546   7.702   5.958  0.9330 -0.7885 -0.9218
  183MOL0     C24051   4.431   7.640   5.931 -0.0292 -0.9783  0.1548
  183MOL0     C24052   4.338   7.709   5.857  0.0665  0.6432  0.0871
  183MOL0     C24053   4.215   7.649   5.835  0.9397  0.0536 -0.7762
  183MOL0     O24054   4.184   7.525   5.878 -0.1356  0.2483  0.5696
  183MOL0     C24055   4.062   7.484   5.856  0.6654  0.2036 -0.9027
  183MOL0     C24056   3.991   7.447   5.966 -0.7212 -0.2431 -0.1115
  183MOL0     C24057   3.861   7.392   5.957  0.1524 -1.2902 -0.6894
  183MOL0     C24058   3.794   7.377   5.837  0.3656 -0.6774 -0.1482
  183MOL0     O24059   3.663   7.323   5.828  0.3381 -0.0721 -0.2838
  183MOL0     C24060   3.567   7.421   5.852 -0.3980 -0.8870  0.3931
  183MOL0     C24061   3.431   7.357   5.854 -0.7967  0.3451 -0.3108
  183MOL0     C24062   3.398   7.272   5.978  0.4631  1.1327 -0.5348
  183MOL0     C24063   3.268   7.193   5.986  0.1529 -0.0938 -0.2805
  183MOL0     C24064   3.258   7.096   6.093 -0.5072  0.0142  0.0095
  183MOL0     C24065   3.126   7.018   6.082  0.4923  0.1523 -0.1804
  183MOL0     C24066   3.100   6.962   6.216  0.1093  0.4596 -0.3444
  183MOL0     C24067   3.029   7.056   6.315 -0.4047 -0.1890 -0.2560
  183MOL0    Cl24068   2.869   7.087   6.253 -0.2533  0.0095  0.1896
  183MOL0     C24069   3.861   7.425   5.719 -0.2460 -0.4405 -0.1941
  183MOL0     C24070   4.003   7.470   5.725  0.4463 -0.3233 -0.3624
  183MOL0     O24071   4.145   7.730   5.763  0.0033 -0.2841 -0.1379
  183MOL0     C24072   4.379   7.830   5.791  0.3084 -0.1694 -0.1457
  183MOL0     C24073   4.499   7.894   5.825 -0.0315 -0.1617  0.0191
  183MOL0     N24074   5.242   8.114   6.076 -0.3235 -0.0001  0.3694
  183MOL0     N24075   5.341   8.043   6.064 -0.4417  0.8592  0.4101
  183MOL0     C24076   6.299   7.868   6.829  0.0362 -1.0713  0.0441
  183MOL0     C24077   6.429   7.868   6.862  0.1084 -0.0204  0.2790
  183MOL0     C24078   6.887   7.757   6.764  0.5806 -0.4949 -0.1608
  183MOL0     C24079   6.985   7.732   6.667 -0.0120  0.4582 -0.4197
  183MOL0     C24080   7.117   7.712   6.697  0.3850  0.8892 -0.6872
  183MOL0     C24081   7.165   7.721   6.830  0.2620 -0.2708 -0.8392
  183MOL0     O24082   7.293   7.712   6.871 -0.1883  0.2791  0.0852
  183MOL0     C24083   7.402   7.683   6.785 -0.8110  0.0448  0.1865
  183MOL0     C24084   7.544   7.664   6.859  0.8917  0.0450 -0.3585
  183MOL0     C24085   7.541   7.556   6.965 -0.0948 -0.0827  0.7031
  183MOL0     C24086   7.667   7.568   7.056  0.0305 -0.1393 -0.6426
  183MOL0     C24087   7.651   7.476   7.169 -0.4645  0.4162  0.2356
  183MOL0     C24088   7.629   7.413   7.272 -0.1394  0.0084 -0.2207
  183MOL0     C24089   7.066   7.751   6.927  0.0729  0.3370 -0.2362
  183MOL0     C24090   6.930   7.771   6.899  0.1505  0.5485  0.1849
  183MOL0     H24091   6.536   7.692   6.588 -0.7237  0.7279 -0.0226
  183MOL0     H24092   6.285   7.736   6.537  1.3640 -2.7915  1.0266
  183MOL0     H24093   6.121   8.027   6.736  1.5052 -1.4201 -3.0541
  183MOL0     H24094   5.975   7.943   6.797  0.9621 -0.1310  2.4648
  183MOL0     H24095   5.999   7.944   6.499  1.1677  2.9694 -0.9814
  183MOL0     H24096   5.977   8.102   6.576  1.6157 -0.5726 -1.9874
  183MOL0     H24097   5.772   8.063   6.657 -0.9716 -0.8812  2.4454
  183MOL0     H24098   5.790   7.881   6.652 -0.4000  0.3868  0.5464
  183MOL0     H24099   5.782   8.051   6.390 -1.2372  1.3151  0.5618
  183MOL0     H24100   5.761   7.870   6.419  1.9136 -1.5400  3.5474
  183MOL0     H24101   5.562   8.077   6.526 -2.0153 -0.1250  0.2547
  183MOL0     H24102   5.566   7.906   6.547 -1.9725 -0.8851 -1.5900
  183MOL0     H24103   5.578   8.023   6.269  1.6150 -0.7503 -0.1302
  183MOL0     H24104   5.428   8.011   6.369  1.2060 -0.8858 -0.5503
  183MOL0     H24105   5.599   7.774   6.289 -1.2538 -2.0216  1.9991
  183MOL0     H24106   5.435   7.760   6.351  2.0183 -3.8974 -3.0618
  183MOL0     H24107   5.409   7.723   6.120 -1.1836 -0.3608  1.9946
  183MOL0     H24108   5.512   7.865   6.080 -2.6440  0.9802 -2.3054
  183MOL0     H24109   5.168   7.863   6.267  1.8502 -0.9560 -0.4899
  183MOL0     H24110   5.002   8.210   6.179  0.2645 -0.2923 -2.6116
  183MOL0     H24111   4.987   8.074   6.290 -0.2527 -0.6189 -0.2201
  183MOL0     H24112   4.930   7.915   6.114  2.3226 -0.4309 -2.3219
  183MOL0     H24113   4.951   8.040   5.993  3.0273  2.3623  1.6941
  183MOL0     H24114   4.742   7.994   6.198 -2.8002 -0.6724 -1.8884
  183MOL0     H24115   4.772   8.162   6.135  2.2300  0.4467  0.2670
  183MOL0     H24116   4.706   8.088   5.908 -1.6338 -0.1066  0.7556
  183MOL0     H24117   4.582   8.054   6.018  0.2582  2.7795 -2.7437
  183MOL0     H24118   4.624   7.656   6.016  0.7013 -2.1171 -1.6257
  183MOL0     H24119   4.398   7.543   5.967 -3.1959 -0.3872 -0.7496
  183MOL0     H24120   4.045   7.448   6.061 -0.4589 -0.7476 -0.2506
  183MOL0     H24121   3.809   7.363   6.048  0.6276 -2.5228 -0.7995
  183MOL0     H24122   3.570   7.498   5.775 -4.8382  0.0028  0.8508
  183MOL0     H24123   3.591   7.460   5.951 -0.3492  1.4288 -0.4589
  183MOL0     H24124   3.427   7.289   5.768  1.0953 -2.5946  1.7188
  183MOL0     H24125   3.360   7.438   5.835 -1.5967 -0.5456 -1.2985
  183MOL0     H24126   3.393   7.341   6.062 -1.7528  1.6925 -1.0396
  183MOL0     H24127   3.489   7.211   5.979  0.3874  1.0291  0.0536
  183MOL0     H24128   3.187   7.265   6.001 -0.7335 -0.5261 -2.6162
  183MOL0     H24129   3.260   7.142   5.890 -1.0052 -2.8249  1.1699
  183MOL0     H24130   3.250   7.159   6.182  0.5862  0.5922 -0.2745
  183MOL0     H24131   3.351   7.039   6.102 -1.0636 -1.6305 -3.1295
  183MOL0     H24132   3.150   6.943   6.006  1.1458  2.0417 -1.9116
  183MOL0     H24133   3.049   7.084   6.041 -0.3871 -2.2250 -2.6662
  183MOL0     H24134   3.026   6.884   6.199 -1.2669  0.6139  3.7691
  183MOL0     H24135   3.182   6.914   6.270 -1.6001 -1.7485  0.4659
  183MOL0     H24136   3.080   7.153   6.317 -1.8542  0.6747  3.8059
  183MOL0     H24137   3.026   7.011   6.414  1.7577 -0.2576 -0.1739
  183MOL0     H24138   3.796   7.417   5.633 -2.1473 -1.5512  1.2587
  183MOL0     H24139   4.055   7.502   5.635 -1.1720 -0.5210 -1.4178
  183MOL0     H24140   4.328   7.886   5.714  1.8164  1.2808 -0.1375
  183MOL0     H24141   4.522   7.995   5.793  0.2163  0.4641  2.0387
  183MOL0     H24142   6.231   7.903   6.906  0.3115 -1.5936  0.5336
  183MOL0     H24143   6.461   7.906   6.958 -0.8529 -1.9045  1.3901
  183MOL0     H24144   6.958   7.719   6.562 -0.3981 -0.5720 -0.2074
  183MOL0     H24145   7.188   7.691   6.618  0.9789 -0.8265  0.2450
  183MOL0     H24146   7.420   7.760   6.709 -1.1302 -4.2713 -4.8280
  183MOL0     H24147   7.372   7.591   6.733 -2.6102 -0.9097  2.7259
  183MOL0     H24148   7.621   7.631   6.788 -0.3467 -0.1196 -1.6889
  183MOL0     H24149   7.579   7.757   6.903  1.1692  0.0628 -0.6137
  183MOL0     H24150   7.538   7.455   6.923  2.5348  0.1688 -0.2925
  183MOL0     H24151   7.453   7.574   7.027 -0.9477 -0.3292 -0.4038
  183MOL0     H24152   7.752   7.543   6.992 -0.8114 -0.9034 -1.4972
  183MOL0     H24153   7.668   7.672   7.089  1.1060  0.2964 -1.9930
  183MOL0     H24154   7.607   7.363   7.365  0.7347  1.3271  0.7243
  183MOL0     H24155   7.095   7.761   7.031 -0.7517  1.6102 -0.0950
  183MOL0     H24156   6.857   7.796   6.975 -0.1913 -2.9179  1.1767
  184MOL0     O24157   8.043  10.277   1.121 -0.1684  0.2023  0.2125
  184MOL0     C24158   8.055  10.352   1.029 -0.5422 -1.0363  0.3079
  184MOL0     O24159   7.958  10.415   0.958  0.0551 -0.6033 -0.7426
  184MOL0     C24160   7.829  10.357   0.955  0.6129 -0.1000  0.8818
  184MOL0     C24161   7.759  10.357   0.827 -0.3016  0.1107 -0.2066
  184MOL0     C24162   7.630  10.302   0.817 -0.2447  0.2283 -0.0888
  184MOL0     C24163   7.564  10.243   0.926 -0.1517  0.3312 -0.0898
  184MOL0     O24164   7.447  10.172   0.917  0.1992 -0.3815  0.4869
  184MOL0     C24165   7.385  10.171   0.783 -0.6209 -0.6135 -0.0599
  184MOL0     C24166   7.242  10.123   0.791 -1.0187 -0.3221  0.4044
  184MOL0     C24167   7.148  10.169   0.669 -0.3682 -0.6805 -0.5409
  184MOL0     C24168   7.005  10.114   0.690  0.4992 -0.7880 -0.3277
  184MOL0     C24169   6.953  10.077   0.552 -0.1335  0.8307  0.2216
  184MOL0     C24170   6.806  10.019   0.553  0.3863 -0.2910 -0.8321
  184MOL0     C24171   6.769   9.997   0.410  0.1160 -0.2836  0.6099
  184MOL0     C24172   6.634   9.931   0.405 -0.0477  0.2565 -0.4631
  184MOL0     N24173   6.515  10.021   0.422 -0.6380 -0.0742 -0.3931
  184MOL0     C24174   6.439  10.017   0.539  0.1300 -0.5227 -0.4186
  184MOL0     C24175   6.353  10.124   0.519 -0.7007 -0.2320  0.1403
  184MOL0     C24176   6.238  10.167   0.606 -0.7531  0.2772 -0.2616
  184MOL0     C24177   6.106  10.097   0.567 -0.0896  0.3242 -0.0898
  184MOL0     C24178   6.060  10.113   0.423 -0.0244 -0.3729  0.2780
  184MOL0     C24179   5.909  10.073   0.413  0.4189 -0.7177  0.0628
  184MOL0     O24180   5.826  10.176   0.473  0.3342 -0.1450  0.3324
  184MOL0     C24181   5.691  10.163   0.465  0.3600  0.3660 -0.0420
  184MOL0     C24182   5.614  10.115   0.571 -0.8217 -0.0606 -0.0752
  184MOL0     C24183   5.481  10.094   0.553 -0.8213 -0.4815  0.3269
  184MOL0     C24184   5.414  10.129   0.425  0.9168 -0.4343 -0.7943
  184MOL0     C24185   5.264  10.110   0.428 -0.2683 -0.2124  0.7887
  184MOL0     O24186   5.218  10.014   0.520 -0.5883 -0.0666  0.5209
  184MOL0     C24187   5.094   9.958   0.536  0.1951  0.3455  0.2539
  184MOL0     C24188   5.086   9.828   0.582 -0.0514 -0.3146 -0.0271
  184MOL0     C24189   4.955   9.766   0.597 -0.6704 -0.3679  0.4566
  184MOL0     C24190   4.837   9.845   0.588  0.0089 -0.4216 -1.3373
  184MOL0     O24191   4.716   9.792   0.611  0.1759  0.3690 -0.0848
  184MOL0     C24192   4.609   9.806   0.519  0.5429  0.5263 -0.1542
  184MOL0     C24193   4.494   9.863   0.611 -0.6611 -0.1075 -0.0487
  184MOL0     C24194   4.348   9.836   0.560  0.3486 -0.2434  0.1316
  184MOL0     C24195   4.247   9.939   0.626  0.4081 -0.2349  0.7740
  184MOL0     C24196   4.100   9.888   0.585 -0.7568 -0.1173  0.1551
  184MOL0     C24197   4.053   9.925   0.441 -0.0835  0.2544 -0.7878
  184MOL0     C24198   4.094  10.071   0.404  0.9087 -0.1196  0.0368
  184MOL0     C24199   4.063  10.188   0.507 -0.0642  0.7103  0.0252
  184MOL0    Cl24200   3.895  10.219   0.508  0.1499  0.0864 -0.3374
  184MOL0     C24201   4.857   9.980   0.563  0.0244 -1.4336 -0.1038
  184MOL0     C24202   4.978  10.036   0.533  0.2758  0.1308 -0.1914
  184MOL0     O24203   5.195  10.164   0.340 -0.8950  0.9396 -0.5148
  184MOL0     C24204   5.490  10.187   0.325 -0.2698  0.3671 -0.6591
  184MOL0     C24205   5.630  10.208   0.342 -0.0733  0.3256 -0.1294
  184MOL0     N24206   6.392  10.195   0.407 -0.4615  0.9044  0.4252
  184MOL0     N24207   6.489  10.135   0.348 -0.5980  0.0341  0.1220
  184MOL0     C24208   7.631  10.249   1.051 -0.1379  0.4807  0.6998
  184MOL0     C24209   7.755  10.314   1.064 -0.3606 -0.1647 -0.0809
  184MOL0     C24210   8.191  10.419   1.014 -0.3749 -0.4378  1.2003
  184MOL0     C24211   8.275  10.412   1.123 -0.3151  0.4502  0.0478
  184MOL0     C24212   8.393  10.469   1.113 -0.3321 -0.4805  0.6460
  184MOL0     C24213   8.443  10.532   0.999 -1.1460 -0.1914  0.1802
  184MOL0     O24214   8.572  10.583   0.999  0.0917  0.2157  0.5554
  184MOL0     C24215   8.625  10.630   0.882  0.2896  1.2261  0.3352
  184MOL0     C24216   8.765  10.670   0.927 -0.2827  1.2512 -0.4198
  184MOL0     C24217   8.752  10.779   1.044 -0.8725 -1.3852  0.0455
  184MOL0     C24218   8.882  10.863   1.042  0.2496  0.0665  0.2361
  184MOL0     C24219   8.998  10.787   1.093 -0.3850 -0.2033  0.6810
  184MOL0     C24220   9.079  10.711   1.137 -0.0393 -0.1401 -0.2672
  184MOL0     C24221   8.357  10.543   0.887 -0.9247 -0.4997 -0.3964
  184MOL0     C24222   8.220  10.492   0.895 -0.8565  0.7901  0.3980
  184MOL0     H24223   7.811  10.402   0.743  0.4166  2.9328  1.6206
  184MOL0     H24224   7.582  10.296   0.720 -0.1821 -0.5639 -0.0753
  184MOL0     H24225   7.447  10.100   0.728  0.8131  0.6408 -0.1339
  184MOL0     H24226   7.370  10.271   0.741  0.4625  1.3559  3.7405
  184MOL0     H24227   7.197  10.169   0.879  0.9212  0.7688  0.8932
  184MOL0     H24228   7.245  10.014   0.805  0.9597 -0.1746  1.4822
  184MOL0     H24229   7.195  10.134   0.577  0.1719  1.1949 -1.0205
  184MOL0     H24230   7.133  10.276   0.651 -1.7911 -0.5069  1.4013
  184MOL0     H24231   6.992  10.029   0.758  0.7987 -0.1300  0.5639
  184MOL0     H24232   6.938  10.190   0.732  2.2580  0.7199 -0.1401
  184MOL0     H24233   7.021   9.998   0.521 -1.3120  0.0177 -0.3652
  184MOL0     H24234   6.961  10.163   0.484  1.0355  0.4367 -0.1566
  184MOL0     H24235   6.748  10.101   0.595  1.1527  1.1168 -2.4015
  184MOL0     H24236   6.794   9.927   0.612 -0.3691  0.1612 -0.2671
  184MOL0     H24237   6.767  10.085   0.345  0.3986 -1.1742 -0.6373
  184MOL0     H24238   6.841   9.932   0.359  0.1092  0.4387 -0.3527
  184MOL0     H24239   6.631   9.841   0.467  0.8337  0.8385  0.4690
  184MOL0     H24240   6.623   9.888   0.305 -1.5473 -1.4499  0.3720
  184MOL0     H24241   6.425   9.941   0.615  1.7114  2.2790  2.9766
  184MOL0     H24242   6.229  10.274   0.585 -2.0896  0.2412  0.0615
  184MOL0     H24243   6.271  10.153   0.710  2.1272 -0.7552 -1.2191
  184MOL0     H24244   6.035  10.135   0.641  0.1535 -0.6202  0.6609
  184MOL0     H24245   6.119   9.990   0.591 -2.7978  0.4629  2.5656
  184MOL0     H24246   6.062  10.220   0.399 -2.6997  0.1940  2.1424
  184MOL0     H24247   6.124  10.065   0.348 -2.0712  1.7016 -3.0682
  184MOL0     H24248   5.897   9.981   0.470 -2.1042 -0.9618 -0.7732
  184MOL0     H24249   5.878  10.051   0.311  0.9938 -1.5069  0.0496
  184MOL0     H24250   5.667  10.102   0.664 -2.2690 -3.0378  0.4356
  184MOL0     H24251   5.429  10.067   0.644 -1.8145  0.8060  0.1594
  184MOL0     H24252   5.184   9.782   0.591  0.5284  0.5797 -1.4852
  184MOL0     H24253   4.952   9.663   0.630  0.1058 -0.4016  0.4334
  184MOL0     H24254   4.589   9.704   0.485  0.1228  0.1035  1.2831
  184MOL0     H24255   4.643   9.875   0.442  1.8080  0.9775  0.7673
  184MOL0     H24256   4.500   9.972   0.625 -1.3872  0.0039 -0.5483
  184MOL0     H24257   4.509   9.828   0.714  0.1595 -0.5369 -0.3075
  184MOL0     H24258   4.330   9.736   0.602 -0.1246  0.7906  2.5689
  184MOL0     H24259   4.341   9.835   0.451 -0.5641 -2.3195  0.1472
  184MOL0     H24260   4.258   9.929   0.734 -3.7314  4.1127  1.9188
  184MOL0     H24261   4.274  10.043   0.608 -0.4984 -0.0650  0.3449
  184MOL0     H24262   4.025   9.929   0.654 -1.5140 -1.0169 -0.1134
  184MOL0     H24263   4.095   9.779   0.587  0.0524 -0.2032 -1.2580
  184MOL0     H24264   3.947   9.915   0.415 -0.8633  2.4516  1.1612
  184MOL0     H24265   4.106   9.856   0.375  0.3335  1.0936 -1.3586
  184MOL0     H24266   4.201  10.067   0.384  0.7731 -2.1482 -0.5408
  184MOL0     H24267   4.045  10.095   0.309  0.7303  1.1616  0.4335
  184MOL0     H24268   4.119  10.281   0.494  1.0027  0.2499  1.1230
  184MOL0     H24269   4.100  10.166   0.607 -1.1638  2.0393  0.7524
  184MOL0     H24270   4.768  10.041   0.568  0.8162 -0.3287  2.3376
  184MOL0     H24271   4.993  10.140   0.506  3.9107 -0.2513 -0.1704
  184MOL0     H24272   5.451  10.213   0.226 -1.3496  0.3165 -0.2600
  184MOL0     H24273   5.687  10.249   0.259  0.6924 -0.4786 -0.0119
  184MOL0     H24274   7.581  10.202   1.135  0.2441 -0.0882  0.6117
  184MOL0     H24275   7.804  10.316   1.161 -0.2615 -2.6166 -0.0228
  184MOL0     H24276   8.248  10.366   1.217 -2.3276  1.1174 -0.1368
  184MOL0     H24277   8.455  10.468   1.202  2.6993 -0.1800 -1.3224
  184MOL0     H24278   8.574  10.718   0.842 -0.9567  0.6128  0.5422
  184MOL0     H24279   8.640  10.555   0.803  0.3207 -0.1381  1.5998
  184MOL0     H24280   8.814  10.582   0.968 -1.3602  1.5724  1.7173
  184MOL0     H24281   8.829  10.691   0.840 -0.4078 -1.5669 -1.2622
  184MOL0     H24282   8.739  10.734   1.143 -1.4658  2.7957  2.0914
  184MOL0     H24283   8.668  10.844   1.021  0.9012  0.3578 -1.7983
  184MOL0     H24284   8.907  10.899   0.942 -0.8486 -2.8188 -1.1743
  184MOL0     H24285   8.882  10.942   1.119  0.3994 -0.1439  0.4519
  184MOL0     H24286   9.143  10.639   1.184 -1.3787  0.3873  2.5801
  184MOL0     H24287   8.381  10.603   0.800  0.4524 -2.9022 -1.7733
  184MOL0     H24288   8.147  10.480   0.816  0.1821 -1.6382 -0.2788
  185MOL0     O24289   5.241   0.497   9.448 -0.1995 -0.2016 -0.3214
  185MOL0     C24290   5.207   0.383   9.412 -0.1958 -0.0801  0.1397
  185MOL0     O24291   5.081   0.327   9.406  0.3274 -0.1155 -0.3246
  185MOL0     C24292   4.976   0.407   9.439 -0.0012 -0.7028  0.1828
  185MOL0     C24293   4.902   0.377   9.558 -0.5791 -0.3807 -0.1380
  185MOL0     C24294   4.788   0.463   9.580 -0.1370  0.5317 -1.0908
  185MOL0     C24295   4.746   0.561   9.493 -0.8693  0.6527 -0.4538
  185MOL0     O24296   4.629   0.629   9.534 -0.7988  0.3416 -0.0044
  185MOL0     C24297   4.613   0.764   9.469 -0.3258 -0.8308 -0.3030
  185MOL0     C24298   4.490   0.832   9.521 -0.3713  0.3715  0.5094
  185MOL0     C24299   4.456   0.942   9.429  0.5842 -0.9586  0.3068
  185MOL0     C24300   4.312   0.995   9.483 -0.9419 -0.3065 -0.0626
  185MOL0     C24301   4.267   1.105   9.399 -0.8204  0.0037 -0.1126
  185MOL0     C24302   4.136   1.154   9.459  0.3701 -0.9065  0.3948
  185MOL0     C24303   4.063   1.264   9.372 -0.4451 -0.2939 -1.0627
  185MOL0     C24304   4.128   1.408   9.370  0.2511  0.4080  0.1548
  185MOL0     N24305   4.019   1.509   9.349 -0.3237  0.2633  0.5077
  185MOL0     C24306   3.943   1.572   9.440 -0.7491 -0.5292  1.0464
  185MOL0     C24307   3.846   1.630   9.371 -0.1140  0.6962  0.6841
  185MOL0     C24308   3.730   1.714   9.419 -0.3687 -0.3827  0.0156
  185MOL0     C24309   3.613   1.630   9.446  0.1394 -0.1875  0.7452
  185MOL0     C24310   3.501   1.707   9.520 -0.6924  0.1678  0.5790
  185MOL0     C24311   3.368   1.692   9.457 -0.2605 -0.6334  0.3148
  185MOL0     O24312   3.273   1.796   9.493 -0.0613  0.2644  0.0907
  185MOL0     C24313   3.140   1.760   9.471  0.2138 -0.4837 -0.0876
  185MOL0     C24314   3.042   1.804   9.561 -0.1069  0.2958 -0.4842
  185MOL0     C24315   2.907   1.756   9.555 -0.0185 -0.3039 -0.0264
  185MOL0     C24316   2.865   1.685   9.444  0.0312  0.6963  0.6014
  185MOL0     C24317   2.717   1.652   9.425 -0.4110 -1.0624 -0.0498
  185MOL0     O24318   2.640   1.713   9.522  0.2868  0.1880  0.2652
  185MOL0     C24319   2.502   1.711   9.523 -0.6984 -0.0273 -0.0913
  185MOL0     C24320   2.415   1.718   9.413  0.3951 -0.8595  0.2239
  185MOL0     C24321   2.274   1.726   9.426 -0.5250  0.1722 -0.4761
  185MOL0     C24322   2.220   1.731   9.552  0.5323  0.1705 -0.2711
  185MOL0     O24323   2.091   1.735   9.584 -0.1844  0.3570  0.1908
  185MOL0     C24324   2.013   1.805   9.487  0.1204 -0.7319  0.0490
  185MOL0     C24325   1.865   1.829   9.536 -0.0913  0.2046 -0.4350
  185MOL0     C24326   1.823   1.973   9.511  0.6699  0.3737  0.0084
  185MOL0     C24327   1.704   2.004   9.605  0.0152 -0.6792 -0.3987
  185MOL0     C24328   1.684   2.151   9.638  0.3970 -0.2511 -0.0113
  185MOL0     C24329   1.658   2.251   9.519 -0.4042  0.1664 -0.7017
  185MOL0     C24330   1.528   2.220   9.446  0.7510 -0.7401 -0.0747
  185MOL0     C24331   1.525   2.277   9.305  0.4319  1.0831 -0.1520
  185MOL0    Cl24332   1.666   2.230   9.203 -0.0129  0.0106  0.1716
  185MOL0     C24333   2.303   1.723   9.664  0.3798 -0.4935 -0.0470
  185MOL0     C24334   2.444   1.723   9.649 -0.0804  0.2935  0.0369
  185MOL0     O24335   2.688   1.572   9.342 -0.3913  0.4976 -0.1193
  185MOL0     C24336   2.961   1.639   9.356  0.3078 -0.8277  0.2044
  185MOL0     C24337   3.097   1.672   9.369  0.8257 -0.0979 -0.3708
  185MOL0     N24338   3.855   1.588   9.235  0.3177  0.4311  1.1282
  185MOL0     N24339   3.965   1.528   9.225 -0.4230 -0.5276  0.3847
  185MOL0     C24340   4.823   0.591   9.383 -0.8523 -0.0620 -0.2589
  185MOL0     C24341   4.941   0.510   9.357  0.0052  0.8772  0.8242
  185MOL0     C24342   5.318   0.294   9.358  0.3349  0.4491  0.2003
  185MOL0     C24343   5.319   0.153   9.369  0.4900  1.4782  0.2666
  185MOL0     C24344   5.420   0.070   9.307 -0.0035  0.1618 -0.0370
  185MOL0     C24345   5.521   0.133   9.230 -0.4673  0.2099 -1.2477
  185MOL0     O24346   5.616   0.040   9.186  0.1488 -0.0126  0.2108
  185MOL0     C24347   5.715   0.078   9.090 -0.0466  0.7262 -0.6805
  185MOL0     C24348   5.656   0.099   8.950 -0.3920 -0.8449 -0.2976
  185MOL0     C24349   5.534   0.021   8.906  0.4635 -1.4301 -0.4678
  185MOL0     C24350   5.502   0.040   8.764 -0.1805  0.0895 -0.4481
  185MOL0     C24351   5.365   0.003   8.741 -0.4980  0.5584 -0.8463
  185MOL0     C24352   5.252  -0.019   8.736  0.0974 -0.3604  0.0490
  185MOL0     C24353   5.518   0.271   9.219  0.3023  0.0941  0.5012
  185MOL0     C24354   5.426   0.352   9.281  0.4277 -0.2073 -1.4828
  185MOL0     H24355   4.929   0.305   9.634  1.4057 -0.1847 -0.6055
  185MOL0     H24356   4.717   0.443   9.659  0.7554 -0.4513 -0.5216
  185MOL0     H24357   4.607   0.768   9.360 -2.3289  2.4668 -0.2178
  185MOL0     H24358   4.705   0.823   9.471 -2.4961  2.9821 -2.1507
  185MOL0     H24359   4.516   0.875   9.618  0.8841 -2.9553  1.7862
  185MOL0     H24360   4.404   0.765   9.529 -1.7566  2.2084  1.8584
  185MOL0     H24361   4.447   0.909   9.326 -0.9948  1.6164 -0.4794
  185MOL0     H24362   4.529   1.024   9.436  0.1663 -0.7234  3.2240
  185MOL0     H24363   4.241   0.912   9.479 -1.6225  0.2721 -0.1650
  185MOL0     H24364   4.322   1.027   9.587  1.3325  0.6828 -0.5337
  185MOL0     H24365   4.250   1.072   9.296  0.9883  0.8823 -0.7169
  185MOL0     H24366   4.347   1.178   9.408  0.3104 -1.4183  2.7248
  185MOL0     H24367   4.150   1.190   9.562  2.7747 -2.4973  0.7055
  185MOL0     H24368   4.068   1.069   9.472  0.2424 -0.7947  0.4620
  185MOL0     H24369   4.036   1.238   9.269 -0.1901  1.8332 -1.7346
  185MOL0     H24370   3.972   1.278   9.430 -0.6877 -3.1715 -0.6052
  185MOL0     H24371   4.204   1.434   9.296  1.0803 -0.3020  0.7474
  185MOL0     H24372   4.165   1.416   9.473 -0.5388 -1.7570  0.6519
  185MOL0     H24373   3.960   1.581   9.547 -0.9372  1.5170  0.9471
  185MOL0     H24374   3.692   1.790   9.351  0.3592  0.2636  0.3207
  185MOL0     H24375   3.767   1.766   9.508  0.9856 -0.3862 -0.5234
  185MOL0     H24376   3.636   1.545   9.510  0.4618  0.7648  1.9369
  185MOL0     H24377   3.589   1.581   9.352  1.7562 -1.4375  0.9263
  185MOL0     H24378   3.502   1.677   9.625 -1.3447  1.6819  1.0422
  185MOL0     H24379   3.521   1.815   9.516 -0.0712  0.0551 -2.8446
  185MOL0     H24380   3.323   1.594   9.473 -0.9113 -0.7317 -1.7860
  185MOL0     H24381   3.387   1.694   9.349  1.8630 -1.4809  0.6217
  185MOL0     H24382   3.061   1.869   9.646 -1.3505  1.9565 -1.4018
  185MOL0     H24383   2.832   1.787   9.627  1.4238  0.0965  1.3576
  185MOL0     H24384   2.454   1.702   9.313 -1.4788  0.4135 -0.7781
  185MOL0     H24385   2.222   1.719   9.332 -1.0481  2.0011 -0.3559
  185MOL0     H24386   2.003   1.755   9.390 -0.6747  0.0029 -0.2646
  185MOL0     H24387   2.062   1.899   9.459 -0.1826 -0.1847  1.3047
  185MOL0     H24388   1.871   1.802   9.642  0.7272 -1.7477 -0.9311
  185MOL0     H24389   1.797   1.758   9.488  0.7532 -0.8832 -0.0727
  185MOL0     H24390   1.781   1.978   9.411  0.0762 -0.2062  0.2268
  185MOL0     H24391   1.904   2.044   9.531  0.9269  0.4087 -1.1143
  185MOL0     H24392   1.608   1.970   9.565  1.4656 -3.2027 -2.0390
  185MOL0     H24393   1.716   1.952   9.701 -2.0204 -1.5800 -0.5744
  185MOL0     H24394   1.773   2.184   9.693 -1.5994  5.2839  0.5260
  185MOL0     H24395   1.594   2.148   9.699 -0.1122  1.3767 -0.6200
  185MOL0     H24396   1.746   2.265   9.456 -0.0431 -1.3567 -0.5623
  185MOL0     H24397   1.638   2.353   9.555 -1.8283 -0.8916  1.7506
  185MOL0     H24398   1.507   2.112   9.438  2.6866 -0.9968 -3.8467
  185MOL0     H24399   1.445   2.268   9.498  0.5872  0.8414 -1.6835
  185MOL0     H24400   1.528   2.386   9.303 -0.1638  1.1013 -1.3676
  185MOL0     H24401   1.433   2.245   9.254  0.4627 -1.4541  1.2111
  185MOL0     H24402   2.261   1.729   9.763  0.9887 -0.4763  0.2136
  185MOL0     H24403   2.506   1.732   9.737  0.8828  3.1258 -0.8209
  185MOL0     H24404   2.922   1.588   9.269 -1.4597  0.8628 -0.0689
  185MOL0     H24405   3.167   1.631   9.297  1.3412  0.1397 -0.0184
  185MOL0     H24406   4.799   0.664   9.307 -1.0069 -0.3070 -0.4465
  185MOL0     H24407   4.999   0.531   9.268  2.2795  1.8460  2.4181
  185MOL0     H24408   5.238   0.103   9.420 -0.2317  0.4298 -1.7817
  185MOL0     H24409   5.423  -0.037   9.326 -2.5700  0.1035  0.3798
  185MOL0     H24410   5.772  -0.015   9.081 -3.0427 -1.6232  2.1220
  185MOL0     H24411   5.781   0.160   9.119  2.0468 -1.2416  0.5212
  185MOL0     H24412   5.611   0.199   8.953 -0.1055 -0.6312 -2.0364
  185MOL0     H24413   5.732   0.093   8.871 -1.5187  1.3756 -1.6846
  185MOL0     H24414   5.450   0.048   8.971  2.1776 -2.0510  2.1587
  185MOL0     H24415   5.560  -0.084   8.921  0.8953 -1.3112 -0.3658
  185MOL0     H24416   5.508   0.145   8.737 -1.4871  0.5116  0.7827
  185MOL0     H24417   5.575  -0.014   8.703 -0.4245 -2.1820  1.1435
  185MOL0     H24418   5.145  -0.024   8.731  0.1591 -3.4064 -0.2485
  185MOL0     H24419   5.586   0.307   9.143  0.5536 -0.1748  0.5979
  185MOL0     H24420   5.427   0.460   9.266  1.8219  0.2884  1.4399
  186MOL0     O24421   7.165   3.498   1.370 -0.1369  0.3984 -0.2524
  186MOL0     C24422   7.117   3.525   1.478  1.2433 -0.5840  0.7174
  186MOL0     O24423   6.985   3.525   1.522 -0.0929 -0.8261 -0.5275
  186MOL0     C24424   6.876   3.470   1.462  0.1071  0.4950  0.1210
  186MOL0     C24425   6.773   3.552   1.412 -0.6790  0.2041 -0.0217
  186MOL0     C24426   6.677   3.494   1.336  0.1756 -0.0458  0.3192
  186MOL0     C24427   6.677   3.361   1.286  0.0814 -0.2185  0.1756
  186MOL0     O24428   6.581   3.311   1.206 -0.1566  0.5267  0.1977
  186MOL0     C24429   6.605   3.190   1.141  0.6433  0.1951  0.1645
  186MOL0     C24430   6.494   3.137   1.051  0.0586 -0.1690  0.8619
  186MOL0     C24431   6.485   2.984   1.039  0.4291  0.6412 -0.0513
  186MOL0     C24432   6.370   2.941   0.946 -0.4197  0.5298 -0.0053
  186MOL0     C24433   6.388   2.792   0.916  0.2966 -0.3287  0.0793
  186MOL0     C24434   6.268   2.743   0.828 -0.2126  1.0975 -0.8811
  186MOL0     C24435   6.282   2.604   0.760  0.5641  0.7508  0.4410
  186MOL0     C24436   6.156   2.577   0.667  0.0361 -0.3257  0.1068
  186MOL0     N24437   6.028   2.573   0.738  0.5829  0.3597  0.1960
  186MOL0     C24438   6.002   2.476   0.833 -0.1296 -0.0421 -0.8048
  186MOL0     C24439   5.868   2.491   0.855  0.0973  0.8120 -0.7829
  186MOL0     C24440   5.792   2.378   0.932  0.0506  0.3438 -0.4768
  186MOL0     C24441   5.858   2.349   1.066  0.1648 -1.6024 -0.1690
  186MOL0     C24442   5.840   2.466   1.169 -0.2533  0.6664  0.3079
  186MOL0     C24443   5.694   2.476   1.228 -0.7306  0.1833 -0.2183
  186MOL0     O24444   5.686   2.565   1.335  0.1152 -0.0981 -0.4756
  186MOL0     C24445   5.571   2.609   1.392  0.6197  0.3346  0.0284
  186MOL0     C24446   5.448   2.539   1.386  0.1257  0.2341  0.4030
  186MOL0     C24447   5.330   2.581   1.457 -0.3509 -0.0256  0.5200
  186MOL0     C24448   5.342   2.699   1.545  0.1915 -0.3309  0.2375
  186MOL0     C24449   5.229   2.748   1.625 -1.0361  0.1849 -0.1208
  186MOL0     O24450   5.110   2.688   1.601  0.3755  0.2099  0.4517
  186MOL0     C24451   4.986   2.742   1.631  0.1814  0.1489  0.9726
  186MOL0     C24452   4.956   2.869   1.699 -0.8097  0.2547  0.6025
  186MOL0     C24453   4.829   2.905   1.738 -0.3921 -0.6964  0.3724
  186MOL0     C24454   4.723   2.815   1.712  0.8020  0.1246  0.4906
  186MOL0     O24455   4.590   2.867   1.740  0.2468  0.3452 -0.2909
  186MOL0     C24456   4.491   2.804   1.650  0.2587 -0.7435 -0.0587
  186MOL0     C24457   4.359   2.888   1.671 -1.0064 -0.2544  0.4265
  186MOL0     C24458   4.262   2.830   1.768  0.2736  0.5883  0.6782
  186MOL0     C24459   4.125   2.905   1.758 -0.3144  0.1684 -0.8114
  186MOL0     C24460   4.018   2.849   1.846 -0.2719  0.2051  0.6843
  186MOL0     C24461   4.040   2.882   1.995 -0.7727  0.3047  0.2683
  186MOL0     C24462   3.954   2.793   2.083  0.3780  0.1453 -0.5089
  186MOL0     C24463   3.906   2.861   2.209  0.1721 -0.0211  0.8165
  186MOL0    Cl24464   4.038   2.880   2.325 -0.2776  0.0456 -0.5158
  186MOL0     C24465   4.754   2.693   1.644  0.6890 -0.4095 -0.2194
  186MOL0     C24466   4.878   2.657   1.607 -0.0835  0.5574 -0.1877
  186MOL0     O24467   5.244   2.841   1.700 -0.1166 -0.4639 -0.0798
  186MOL0     C24468   5.465   2.770   1.552  0.6672 -0.0728 -0.3973
  186MOL0     C24469   5.577   2.714   1.479  0.6165 -0.5821 -0.4688
  186MOL0     N24470   5.815   2.599   0.789 -0.6607  0.4776  1.0102
  186MOL0     N24471   5.907   2.644   0.711  0.2070 -0.7044 -0.8941
  186MOL0     C24472   6.789   3.280   1.326  0.3068 -0.1772  0.4307
  186MOL0     C24473   6.889   3.344   1.407  0.2377 -0.9752  0.9077
  186MOL0     C24474   7.217   3.548   1.585 -0.5836 -0.5793  0.0825
  186MOL0     C24475   7.186   3.639   1.680  0.2464  0.0484  0.8498
  186MOL0     C24476   7.276   3.679   1.782 -0.1786 -0.5955  0.5442
  186MOL0     C24477   7.407   3.625   1.780 -0.4767 -0.2753 -0.2111
  186MOL0     O24478   7.495   3.659   1.873  0.2809  0.4307  0.1688
  186MOL0     C24479   7.602   3.721   1.809  0.3267  0.2740 -0.0615
  186MOL0     C24480   7.707   3.782   1.909 -1.2081  0.1175 -0.0735
  186MOL0     C24481   7.793   3.661   1.974  1.2136  0.1935  0.4918
  186MOL0     C24482   7.884   3.717   2.084  0.5899  0.1927  0.3746
  186MOL0     C24483   8.000   3.807   2.053 -0.5318 -0.5421 -0.1299
  186MOL0     C24484   8.074   3.889   2.022 -0.2255 -0.7688  0.4807
  186MOL0     C24485   7.431   3.539   1.677 -0.2596  0.7857 -0.0769
  186MOL0     C24486   7.343   3.492   1.581  0.1362 -0.0559 -0.8028
  186MOL0     H24487   6.763   3.651   1.457  0.4276  0.6323 -0.6877
  186MOL0     H24488   6.583   3.544   1.315  1.4820  2.6590  0.3700
  186MOL0     H24489   6.617   3.116   1.220  1.4002 -0.7792 -0.8369
  186MOL0     H24490   6.694   3.202   1.080 -0.3838  2.1118 -1.0626
  186MOL0     H24491   6.500   3.196   0.959 -3.5246  1.0686  1.2564
  186MOL0     H24492   6.399   3.168   1.096  0.2469  1.2142  0.3394
  186MOL0     H24493   6.466   2.938   1.137  0.2939  2.2785  0.7336
  186MOL0     H24494   6.584   2.951   1.007  0.5135  1.5334 -0.7682
  186MOL0     H24495   6.278   2.952   1.004 -0.1049  1.6200  0.3016
  186MOL0     H24496   6.359   2.987   0.847 -2.1299 -1.7729 -0.9747
  186MOL0     H24497   6.410   2.731   1.004  1.5341  0.4001  0.2954
  186MOL0     H24498   6.478   2.782   0.854  0.7410  1.9433  0.2643
  186MOL0     H24499   6.239   2.820   0.756 -5.0427  0.8242  0.3904
  186MOL0     H24500   6.178   2.737   0.891  1.8953 -0.9345  2.2035
  186MOL0     H24501   6.372   2.609   0.697 -1.6566  1.9420 -2.8843
  186MOL0     H24502   6.293   2.523   0.833  0.5171 -0.6849 -1.0885
  186MOL0     H24503   6.177   2.473   0.640 -0.2288 -0.3027 -0.1960
  186MOL0     H24504   6.148   2.653   0.588 -0.9449 -2.7273 -2.2722
  186MOL0     H24505   6.069   2.397   0.866  1.4490  2.2780  2.1029
  186MOL0     H24506   5.787   2.288   0.870 -0.1038  0.7652 -1.0884
  186MOL0     H24507   5.689   2.410   0.946  0.4943  1.0331  1.6037
  186MOL0     H24508   5.967   2.343   1.055  0.3434  2.1401 -2.0745
  186MOL0     H24509   5.818   2.258   1.110 -1.9475 -0.9222 -0.5626
  186MOL0     H24510   5.909   2.463   1.253 -0.7582  2.3012  0.8199
  186MOL0     H24511   5.861   2.558   1.113  1.5930 -0.6156 -1.2166
  186MOL0     H24512   5.662   2.380   1.269  0.3119  0.5579  1.5599
  186MOL0     H24513   5.624   2.491   1.145 -0.9276 -0.1075 -0.1069
  186MOL0     H24514   5.442   2.450   1.324 -0.8449  2.1711 -2.5233
  186MOL0     H24515   5.238   2.528   1.436 -0.1613 -0.0719 -0.1984
  186MOL0     H24516   5.028   2.947   1.722 -0.5535  1.2024 -2.8883
  186MOL0     H24517   4.798   2.995   1.790 -0.5867  0.5183 -1.7268
  186MOL0     H24518   4.483   2.697   1.671 -1.2619 -0.3912  1.4096
  186MOL0     H24519   4.528   2.824   1.549  2.8579 -0.1883  0.9209
  186MOL0     H24520   4.307   2.889   1.574 -0.8264  1.7611  0.3004
  186MOL0     H24521   4.381   2.994   1.690  0.3207 -0.3739 -0.3067
  186MOL0     H24522   4.301   2.845   1.869  1.3170 -2.2145  0.7669
  186MOL0     H24523   4.240   2.726   1.744 -0.6021  0.8392  0.3154
  186MOL0     H24524   4.150   3.009   1.781  3.4217 -1.2739  2.8410
  186MOL0     H24525   4.082   2.914   1.658  0.4288 -0.8438 -1.2311
  186MOL0     H24526   4.003   2.741   1.839 -0.7878 -0.1141  4.3106
  186MOL0     H24527   3.925   2.895   1.812  0.1567  0.6279  0.0639
  186MOL0     H24528   4.007   2.986   2.002 -2.4899 -0.2758  1.4894
  186MOL0     H24529   4.139   2.883   2.042  0.1875  1.7314 -1.6658
  186MOL0     H24530   3.860   2.766   2.033  0.0116  2.4313 -1.1982
  186MOL0     H24531   3.996   2.696   2.110 -1.4648 -0.6415 -0.3478
  186MOL0     H24532   3.817   2.817   2.256 -0.9803  0.9452 -0.3919
  186MOL0     H24533   3.851   2.948   2.173 -2.4303 -3.0752 -3.6159
  186MOL0     H24534   4.671   2.629   1.615  1.0797 -2.6732  3.0996
  186MOL0     H24535   4.888   2.564   1.553 -3.9600  0.5581 -1.2027
  186MOL0     H24536   5.479   2.857   1.615 -3.0974  0.8645 -0.6541
  186MOL0     H24537   5.674   2.763   1.489  0.0784  0.6200 -0.9082
  186MOL0     H24538   6.813   3.180   1.291  3.4048  1.3969 -2.4431
  186MOL0     H24539   6.977   3.282   1.422  0.7209 -0.2471  1.1251
  186MOL0     H24540   7.092   3.691   1.668 -0.6357 -1.4447  1.0447
  186MOL0     H24541   7.250   3.753   1.857 -0.5109 -0.3438  0.1822
  186MOL0     H24542   7.560   3.804   1.751  0.3265  2.4643  2.8610
  186MOL0     H24543   7.659   3.657   1.740  0.0031 -0.2294  0.1351
  186MOL0     H24544   7.771   3.848   1.850 -1.0213  1.2786  1.3852
  186MOL0     H24545   7.658   3.845   1.984 -1.6253  2.2509 -2.0245
  186MOL0     H24546   7.826   3.600   1.890  0.6981 -1.2440  1.2820
  186MOL0     H24547   7.729   3.590   2.028  1.8448 -0.7633 -0.0119
  186MOL0     H24548   7.820   3.773   2.153  2.4396  3.4946 -0.3716
  186MOL0     H24549   7.927   3.638   2.147  2.2849  0.0531 -0.8585
  186MOL0     H24550   8.152   3.957   1.995 -1.7509  0.6890 -0.4452
  186MOL0     H24551   7.530   3.496   1.692  0.2518  2.2060  0.8228
  186MOL0     H24552   7.373   3.424   1.502 -0.0246  1.0714 -1.8722
  187MOL0     O24553   5.325   4.592   7.269 -0.9984 -0.4194  0.0544
  187MOL0     C24554   5.415   4.559   7.343  0.5730 -0.5535 -0.1667
  187MOL0     O24555   5.400   4.446   7.429 -0.6232  0.5159  0.8009
  187MOL0     C24556   5.290   4.361   7.425  0.4582  0.6860  0.6026
  187MOL0     C24557   5.248   4.320   7.549 -0.0679  0.2447  0.8202
  187MOL0     C24558   5.141   4.241   7.555  0.2696 -0.5588  0.3065
  187MOL0     C24559   5.063   4.202   7.443 -0.7491  0.2705 -0.4472
  187MOL0     O24560   4.951   4.131   7.477  0.2041 -0.6169  0.4132
  187MOL0     C24561   4.857   4.094   7.373  0.3649  0.7575 -0.4658
  187MOL0     C24562   4.736   4.009   7.424  0.8707 -0.2845 -0.1178
  187MOL0     C24563   4.633   4.095   7.497  0.5245  0.5137 -0.2416
  187MOL0     C24564   4.521   4.015   7.544  0.1090  0.5421  0.3208
  187MOL0     C24565   4.414   4.115   7.597 -0.9384 -0.2161 -0.8687
  187MOL0     C24566   4.334   4.196   7.495  0.2158  0.7898 -0.9226
  187MOL0     C24567   4.285   4.120   7.371  0.4309  0.4529  0.8598
  187MOL0     C24568   4.187   4.005   7.383 -0.1264  0.8949 -1.1929
  187MOL0     N24569   4.190   3.905   7.269 -0.0246  0.0116 -0.2845
  187MOL0     C24570   4.101   3.913   7.164  0.5195  0.4134 -0.0742
  187MOL0     C24571   4.128   3.802   7.093 -0.2002  0.7863  0.0942
  187MOL0     C24572   4.079   3.777   6.950  0.2575  0.6709  0.0101
  187MOL0     C24573   4.067   3.621   6.929 -0.0394 -0.5813 -0.9827
  187MOL0     C24574   4.017   3.601   6.778  1.0219 -0.1735  0.3457
  187MOL0     C24575   3.949   3.463   6.755 -0.6461 -0.4664  0.3261
  187MOL0     O24576   3.813   3.488   6.785  0.4650 -0.3770 -0.4063
  187MOL0     C24577   3.715   3.399   6.747  0.3984 -0.3849  0.2357
  187MOL0     C24578   3.604   3.400   6.827  0.7661 -0.4918 -0.1953
  187MOL0     C24579   3.489   3.320   6.789 -0.2638 -1.0055 -1.1175
  187MOL0     C24580   3.485   3.257   6.665 -0.5108 -0.0692  1.2202
  187MOL0     C24581   3.367   3.171   6.630 -0.8998  0.1973 -0.2531
  187MOL0     O24582   3.270   3.179   6.721 -0.4755 -0.0651 -1.0741
  187MOL0     C24583   3.140   3.140   6.700  0.3291  0.3544  0.2940
  187MOL0     C24584   3.097   3.041   6.607  0.4156  0.0938  0.4604
  187MOL0     C24585   2.962   2.998   6.593  0.3250  0.2609  0.1984
  187MOL0     C24586   2.870   3.057   6.682 -0.0146  0.6261 -1.3600
  187MOL0     O24587   2.745   3.006   6.675  0.4091 -0.1586 -0.1154
  187MOL0     C24588   2.737   2.870   6.748  0.3970 -0.3894 -0.1733
  187MOL0     C24589   2.601   2.872   6.804  0.2828  0.3879 -0.4607
  187MOL0     C24590   2.576   2.773   6.916 -0.9034 -0.2544  0.1113
  187MOL0     C24591   2.455   2.815   7.003  0.6804 -0.5022  0.4015
  187MOL0     C24592   2.412   2.710   7.105  0.2462 -0.4935 -0.2651
  187MOL0     C24593   2.347   2.590   7.031  0.9691 -0.0560  0.2536
  187MOL0     C24594   2.427   2.460   7.060 -0.3241  0.2283  0.6696
  187MOL0     C24595   2.422   2.346   6.945 -0.3193 -0.9687 -0.1616
  187MOL0    Cl24596   2.256   2.298   6.912 -0.0787  0.3762 -0.0753
  187MOL0     C24597   2.897   3.157   6.771 -0.4948 -0.2972  0.4519
  187MOL0     C24598   3.034   3.193   6.780  0.3939 -0.7655  0.8268
  187MOL0     O24599   3.371   3.101   6.523  0.3376  0.4101 -0.1086
  187MOL0     C24600   3.596   3.244   6.590 -0.0683 -0.5834 -1.0572
  187MOL0     C24601   3.709   3.317   6.635 -0.2529 -0.6142 -0.3509
  187MOL0     N24602   4.219   3.711   7.158  1.5680  0.3107  0.3151
  187MOL0     N24603   4.252   3.779   7.269  0.0183 -0.5260 -0.4519
  187MOL0     C24604   5.103   4.245   7.319 -0.1604 -0.1527 -0.0580
  187MOL0     C24605   5.215   4.321   7.304  0.1305  0.7836  0.8590
  187MOL0     C24606   5.532   4.645   7.384 -0.3875 -0.2646  0.3138
  187MOL0     C24607   5.547   4.773   7.337 -0.3993 -0.0174 -0.0033
  187MOL0     C24608   5.667   4.844   7.372  0.1407  0.2494 -0.2587
  187MOL0     C24609   5.774   4.788   7.435  0.1719 -0.8678  0.0083
  187MOL0     O24610   5.881   4.854   7.478 -1.2837 -0.4250  0.0747
  187MOL0     C24611   5.985   4.890   7.374 -0.4507  0.6495 -0.1244
  187MOL0     C24612   6.008   5.037   7.377 -0.2013 -1.2176 -0.4399
  187MOL0     C24613   6.084   5.106   7.267  0.6566  0.6621  0.6725
  187MOL0     C24614   6.116   5.249   7.310  0.8260 -0.0901  0.6982
  187MOL0     C24615   6.174   5.313   7.183 -0.1203  0.3328 -0.0742
  187MOL0     C24616   6.231   5.344   7.083 -0.4095  0.4039  0.7663
  187MOL0     C24617   5.758   4.656   7.486  0.5975 -0.2930  0.2722
  187MOL0     C24618   5.633   4.589   7.467 -0.0029  0.0300  0.6542
  187MOL0     H24619   5.291   4.352   7.643  1.5222  3.2974 -0.7590
  187MOL0     H24620   5.102   4.211   7.652  1.5606 -0.8384  0.7542
  187MOL0     H24621   4.900   4.031   7.294 -2.9450 -0.5237 -1.4145
  187MOL0     H24622   4.818   4.188   7.335  4.5128  3.3248  0.9396
  187MOL0     H24623   4.767   3.925   7.487 -1.1054 -0.8030  0.2180
  187MOL0     H24624   4.694   3.969   7.332  4.3268  0.4138 -2.1987
  187MOL0     H24625   4.597   4.182   7.440 -3.0507 -0.4937  0.2506
  187MOL0     H24626   4.688   4.131   7.584  1.1804 -1.9975  0.4493
  187MOL0     H24627   4.483   3.946   7.469 -2.0416  1.5042  0.4302
  187MOL0     H24628   4.541   3.946   7.626 -0.4646 -1.8269 -1.4304
  187MOL0     H24629   4.460   4.181   7.671 -1.5882  3.2444 -3.2806
  187MOL0     H24630   4.337   4.056   7.647 -0.7061 -0.2652 -0.5650
  187MOL0     H24631   4.402   4.269   7.450 -0.2526  1.2713 -0.8582
  187MOL0     H24632   4.250   4.246   7.545 -0.7782  0.1731 -1.9072
  187MOL0     H24633   4.237   4.189   7.301  2.7057  0.4793 -0.7989
  187MOL0     H24634   4.373   4.085   7.316 -0.0428  0.1493  0.2784
  187MOL0     H24635   4.090   4.056   7.383 -1.3813 -1.1306  1.9466
  187MOL0     H24636   4.185   3.954   7.480  0.3906 -0.1832 -1.7246
  187MOL0     H24637   4.026   3.989   7.150 -2.3421 -1.8172  2.0022
  187MOL0     H24638   4.146   3.817   6.873  0.0447  1.7870  0.3902
  187MOL0     H24639   3.984   3.830   6.951  0.4786  1.0616  0.7129
  187MOL0     H24640   4.002   3.580   7.007  1.4007 -3.7974 -1.3215
  187MOL0     H24641   4.167   3.577   6.935  0.0591 -0.4917 -1.9293
  187MOL0     H24642   3.949   3.677   6.737  0.5526 -1.1385 -0.7018
  187MOL0     H24643   4.101   3.617   6.710  1.4338  3.1207  1.4231
  187MOL0     H24644   3.978   3.383   6.824  1.2509  1.1338  1.4924
  187MOL0     H24645   3.956   3.434   6.650 -2.1296 -2.9555  0.8562
  187MOL0     H24646   3.601   3.468   6.911  3.9719  0.6753 -0.9071
  187MOL0     H24647   3.399   3.316   6.850 -1.1797  0.2819 -2.3029
  187MOL0     H24648   3.170   2.989   6.546  0.1931 -1.6472  1.6082
  187MOL0     H24649   2.930   2.915   6.531  0.2892 -2.3936  3.4940
  187MOL0     H24650   2.810   2.850   6.827  1.0401 -0.7640 -0.8445
  187MOL0     H24651   2.743   2.794   6.669  1.8708 -0.8789  0.3802
  187MOL0     H24652   2.529   2.856   6.723  0.9865 -1.8412 -0.7276
  187MOL0     H24653   2.577   2.967   6.852  2.1036  0.2113  0.8996
  187MOL0     H24654   2.665   2.761   6.977  0.3084 -1.3212 -1.7488
  187MOL0     H24655   2.575   2.674   6.869  0.2696 -0.6911  0.9685
  187MOL0     H24656   2.472   2.913   7.049 -1.6665  0.6668 -1.0041
  187MOL0     H24657   2.367   2.840   6.943  3.0406  1.6377 -2.4439
  187MOL0     H24658   2.341   2.757   7.174 -1.2116  0.9592 -2.6167
  187MOL0     H24659   2.496   2.671   7.162 -0.9884 -2.3873  0.3519
  187MOL0     H24660   2.332   2.619   6.927 -1.0002  0.2858  0.5837
  187MOL0     H24661   2.241   2.576   7.055  0.7357  0.9134 -0.1673
  187MOL0     H24662   2.528   2.484   7.092 -0.3327 -2.3409  3.0124
  187MOL0     H24663   2.385   2.406   7.146 -2.0125 -1.2788 -1.0015
  187MOL0     H24664   2.487   2.263   6.971  0.3057 -0.0119  1.4521
  187MOL0     H24665   2.469   2.391   6.856  1.0398 -1.2875  0.3753
  187MOL0     H24666   2.825   3.220   6.822  0.6220  2.0950 -0.7238
  187MOL0     H24667   3.064   3.271   6.848 -0.4364  0.5497 -0.2643
  187MOL0     H24668   3.599   3.170   6.510 -1.9559 -2.1584  0.2331
  187MOL0     H24669   3.799   3.294   6.579  0.8109  0.4351  0.8839
  187MOL0     H24670   5.054   4.222   7.224  0.1570 -1.8133  0.1505
  187MOL0     H24671   5.240   4.359   7.205 -0.7670  1.5972  0.9325
  187MOL0     H24672   5.467   4.822   7.284 -1.1135 -2.6823 -1.5812
  187MOL0     H24673   5.679   4.945   7.334 -0.4677  0.8247  0.9876
  187MOL0     H24674   5.941   4.855   7.280 -2.8459  2.0877  0.3752
  187MOL0     H24675   6.076   4.835   7.401  1.3045  1.9850 -2.9135
  187MOL0     H24676   5.910   5.086   7.382  0.4376  0.2240 -1.2962
  187MOL0     H24677   6.052   5.064   7.474  0.7531  1.3112 -1.5055
  187MOL0     H24678   6.026   5.105   7.175  2.3371  0.9242 -0.4355
  187MOL0     H24679   6.175   5.053   7.238 -0.2830  0.5842 -2.4261
  187MOL0     H24680   6.027   5.304   7.340  0.6510  0.5672 -0.9055
  187MOL0     H24681   6.182   5.261   7.396 -0.4173  4.1634  1.3074
  187MOL0     H24682   6.278   5.375   6.992 -2.3035 -1.0670 -0.7852
  187MOL0     H24683   5.838   4.615   7.546 -0.1520 -0.2557  1.3181
  187MOL0     H24684   5.629   4.486   7.503 -0.5133 -0.8598 -1.7663
  188MOL0     O24685   2.497   3.188   2.951  0.4230 -0.6011 -0.1781
  188MOL0     C24686   2.508   3.202   3.069  0.3580  0.0533  0.1746
  188MOL0     O24687   2.615   3.191   3.142  0.2590  0.2836 -0.1440
  188MOL0     C24688   2.740   3.159   3.102  0.1865  0.2364 -0.4598
  188MOL0     C24689   2.817   3.133   3.214  0.8272  0.3926  0.2047
  188MOL0     C24690   2.948   3.087   3.206  0.4585 -0.6388  0.1093
  188MOL0     C24691   3.011   3.081   3.082  0.4211 -0.3118 -0.6057
  188MOL0     O24692   3.138   3.027   3.080 -0.5074 -0.1495 -0.5590
  188MOL0     C24693   3.177   2.953   2.963  0.5363 -0.2159 -0.2879
  188MOL0     C24694   3.322   2.898   2.966  0.1647  0.3333  0.9561
  188MOL0     C24695   3.345   2.786   3.065 -0.0163  0.8249  0.1497
  188MOL0     C24696   3.300   2.808   3.214  0.3145 -0.3190  1.2328
  188MOL0     C24697   3.364   2.700   3.304 -0.1235  0.2643  0.4418
  188MOL0     C24698   3.267   2.606   3.384 -0.1393 -0.7952  0.2407
  188MOL0     C24699   3.232   2.635   3.531 -0.4097 -0.3381  0.2299
  188MOL0     C24700   3.126   2.742   3.556  0.5079 -0.2048 -0.6760
  188MOL0     N24701   2.980   2.707   3.531 -0.7913  0.1149 -0.8387
  188MOL0     C24702   2.926   2.585   3.559  0.5821  0.6057  0.8242
  188MOL0     C24703   2.799   2.579   3.503 -0.1261  0.3731 -0.5690
  188MOL0     C24704   2.707   2.472   3.495  0.3191 -0.3820 -0.5430
  188MOL0     C24705   2.650   2.440   3.361  0.2237  0.2847 -0.5693
  188MOL0     C24706   2.554   2.326   3.355  0.1872 -0.5213 -0.4807
  188MOL0     C24707   2.410   2.380   3.346  0.0350 -0.6668  0.9197
  188MOL0     O24708   2.371   2.442   3.470  0.3674 -0.1784  0.0022
  188MOL0     C24709   2.235   2.450   3.485  0.2333  0.0522 -0.0440
  188MOL0     C24710   2.150   2.337   3.488 -0.1351  0.1138  0.9729
  188MOL0     C24711   2.008   2.340   3.512  0.1362 -0.2049  1.6300
  188MOL0     C24712   1.948   2.465   3.550  0.4485  0.1204  0.5044
  188MOL0     C24713   1.808   2.446   3.601 -0.0539  0.2784  0.2716
  188MOL0     O24714   1.729   2.334   3.577 -0.1134  0.5335  0.1617
  188MOL0     C24715   1.601   2.346   3.612  0.8302  0.2507 -0.2637
  188MOL0     C24716   1.499   2.342   3.519 -0.3385  0.5989  0.4492
  188MOL0     C24717   1.367   2.340   3.551 -0.8583 -0.0384  0.1408
  188MOL0     C24718   1.334   2.334   3.684 -0.2515 -0.1494  0.5596
  188MOL0     O24719   1.202   2.342   3.719  0.2969  0.1790 -0.3418
  188MOL0     C24720   1.116   2.235   3.669 -0.1903 -0.4844  0.8709
  188MOL0     C24721   0.972   2.253   3.712 -0.1155  0.3664 -0.4129
  188MOL0     C24722   0.910   2.375   3.652 -0.1619 -0.1547  0.0495
  188MOL0     C24723   0.753   2.387   3.672  0.2510  0.5183 -0.8484
  188MOL0     C24724   0.719   2.377   3.825 -1.0443 -0.2995  0.2784
  188MOL0     C24725   0.576   2.386   3.860  0.7021 -0.4250 -0.3479
  188MOL0     C24726   0.491   2.491   3.794 -0.3272 -0.7712 -0.4948
  188MOL0     C24727   0.363   2.520   3.878 -0.0728 -0.7781  0.4533
  188MOL0    Cl24728   0.271   2.373   3.927 -0.1880 -0.0028 -0.0761
  188MOL0     C24729   1.428   2.336   3.787 -0.3823  1.6998  0.4706
  188MOL0     C24730   1.560   2.340   3.749 -0.7157 -0.2256  0.6711
  188MOL0     O24731   1.765   2.547   3.663  0.1963 -0.8794  0.5729
  188MOL0     C24732   2.032   2.578   3.564  0.5974  0.5929 -0.7627
  188MOL0     C24733   2.167   2.568   3.535 -0.0670  0.0434  0.5932
  188MOL0     N24734   2.785   2.708   3.453  0.3418 -0.6173  0.1291
  188MOL0     N24735   2.895   2.782   3.459  0.0233  0.9289  0.5157
  188MOL0     C24736   2.937   3.120   2.960 -0.1976  0.5567  0.0023
  188MOL0     C24737   2.807   3.161   2.976  1.3332 -0.0981 -0.2024
  188MOL0     C24738   2.378   3.243   3.133 -0.1937 -0.0116 -0.8104
  188MOL0     C24739   2.266   3.290   3.051  1.6210  0.7182  0.2997
  188MOL0     C24740   2.165   3.365   3.126 -0.3035 -0.2276 -0.5073
  188MOL0     C24741   2.171   3.372   3.267  0.4102  0.4189  0.2624
  188MOL0     O24742   2.086   3.446   3.342 -0.0907  0.0217 -0.0479
  188MOL0     C24743   1.985   3.528   3.275  0.5004 -0.6031 -0.5280
  188MOL0     C24744   1.928   3.642   3.366  0.7706  0.4385 -0.0833
  188MOL0     C24745   1.835   3.586   3.468  0.1051 -0.5392 -0.0554
  188MOL0     C24746   1.756   3.705   3.536 -0.3488  0.1437 -0.8923
  188MOL0     C24747   1.679   3.643   3.644 -0.2876 -1.1027  0.2250
  188MOL0     C24748   1.608   3.589   3.726  0.1232  0.2906 -0.7553
  188MOL0     C24749   2.273   3.316   3.345 -0.7471  0.2705 -0.1995
  188MOL0     C24750   2.375   3.258   3.270  0.2044  0.2450 -0.0573
  188MOL0     H24751   2.772   3.125   3.312 -1.0908 -2.0949 -0.7594
  188MOL0     H24752   3.001   3.051   3.293  0.4555 -0.1272  0.3242
  188MOL0     H24753   3.188   3.026   2.883 -3.8836  0.1368 -0.8207
  188MOL0     H24754   3.105   2.874   2.942  1.4356 -2.1314  3.1423
  188MOL0     H24755   3.394   2.978   2.985  0.7193  0.4626 -1.3552
  188MOL0     H24756   3.363   2.870   2.868  3.7861  2.6310  1.6552
  188MOL0     H24757   3.454   2.784   3.063  0.0362 -2.0551  1.1033
  188MOL0     H24758   3.303   2.693   3.027  4.9732 -1.4550 -0.5465
  188MOL0     H24759   3.331   2.909   3.243 -2.0832  0.4023  1.4476
  188MOL0     H24760   3.191   2.812   3.217  0.3710  1.5972  2.5154
  188MOL0     H24761   3.425   2.754   3.377 -1.1837 -0.2829  1.7676
  188MOL0     H24762   3.426   2.638   3.239  0.3672 -0.2434  1.3730
  188MOL0     H24763   3.325   2.513   3.384 -3.1260 -2.7624  0.0050
  188MOL0     H24764   3.173   2.589   3.332 -0.5196  0.8727  0.3361
  188MOL0     H24765   3.209   2.542   3.583 -1.6989  0.1420  0.5579
  188MOL0     H24766   3.323   2.675   3.576  2.1901 -3.2303 -2.0374
  188MOL0     H24767   3.155   2.836   3.509  0.8146  1.8015  3.1807
  188MOL0     H24768   3.123   2.775   3.660  0.9033  2.7180 -1.5198
  188MOL0     H24769   2.969   2.503   3.617  1.8365  1.2046  0.7771
  188MOL0     H24770   2.627   2.484   3.569 -0.6540  1.1436 -1.7932
  188MOL0     H24771   2.767   2.386   3.527 -0.0444 -0.0746  1.0381
  188MOL0     H24772   2.730   2.423   3.289  0.7416 -2.6627  0.5597
  188MOL0     H24773   2.591   2.527   3.329 -1.0771 -1.2035 -2.5165
  188MOL0     H24774   2.584   2.264   3.270  0.1700 -0.0307 -0.8527
  188MOL0     H24775   2.555   2.261   3.442 -1.5392 -0.3782 -0.3118
  188MOL0     H24776   2.354   2.290   3.318 -0.1989  0.3938 -2.4450
  188MOL0     H24777   2.405   2.451   3.263 -1.8724 -0.5355  1.0862
  188MOL0     H24778   2.198   2.242   3.470  0.3136  0.0186  2.5404
  188MOL0     H24779   1.958   2.244   3.515  1.1382 -0.9838 -2.0458
  188MOL0     H24780   1.524   2.325   3.415  0.6374  0.7770  0.6509
  188MOL0     H24781   1.295   2.364   3.473  1.4260  2.8743 -1.2886
  188MOL0     H24782   1.166   2.139   3.687  2.9037 -0.6062 -5.5691
  188MOL0     H24783   1.118   2.238   3.560 -1.1129 -4.3298  0.5872
  188MOL0     H24784   0.969   2.271   3.820 -1.2920  3.0139 -0.8051
  188MOL0     H24785   0.916   2.164   3.685  1.1358 -0.6020  0.0817
  188MOL0     H24786   0.920   2.371   3.544  0.1144  0.6507  0.0411
  188MOL0     H24787   0.968   2.463   3.683 -0.7246 -0.3269  1.7083
  188MOL0     H24788   0.718   2.489   3.656  1.2845  1.1209  0.4512
  188MOL0     H24789   0.698   2.312   3.615  1.7912 -0.5059 -1.0724
  188MOL0     H24790   0.768   2.459   3.878 -1.6182 -1.6139  3.0176
  188MOL0     H24791   0.763   2.287   3.869 -0.6272  0.5526  1.6768
  188MOL0     H24792   0.563   2.396   3.968 -3.5883 -0.6006 -0.6897
  188MOL0     H24793   0.534   2.290   3.828  0.8716  0.1844 -2.5913
  188MOL0     H24794   0.554   2.580   3.779 -0.6529 -0.4100  0.2316
  188MOL0     H24795   0.461   2.456   3.695  0.4071 -2.3946 -0.1735
  188MOL0     H24796   0.308   2.583   3.807  2.8771 -2.2359 -3.5225
  188MOL0     H24797   0.389   2.575   3.969 -1.0455 -0.0488  0.3075
  188MOL0     H24798   1.397   2.329   3.891 -1.5862  1.5158  0.1149
  188MOL0     H24799   1.633   2.338   3.829 -0.5770  0.5410  0.5759
  188MOL0     H24800   2.001   2.676   3.598  0.4465  0.3884 -0.2837
  188MOL0     H24801   2.233   2.651   3.555  2.2078 -1.8376  1.3487
  188MOL0     H24802   2.992   3.125   2.867 -0.2796  1.4563 -0.0036
  188MOL0     H24803   2.751   3.206   2.895 -1.2194 -6.1355 -2.3394
  188MOL0     H24804   2.264   3.285   2.942  0.6022  0.7218  0.3083
  188MOL0     H24805   2.084   3.404   3.066 -1.2728 -0.8702  0.3544
  188MOL0     H24806   1.907   3.464   3.232 -0.5822  1.1169 -1.2354
  188MOL0     H24807   2.038   3.588   3.201  0.3960 -0.3790 -0.4207
  188MOL0     H24808   2.008   3.701   3.412  1.9704  2.6506 -4.4860
  188MOL0     H24809   1.862   3.706   3.307  0.3626  0.4416  0.3728
  188MOL0     H24810   1.901   3.529   3.534  0.6509 -0.5546 -0.6034
  188MOL0     H24811   1.772   3.520   3.408  0.3529 -0.6719 -0.1742
  188MOL0     H24812   1.823   3.770   3.592 -2.8232  0.4923  1.9226
  188MOL0     H24813   1.690   3.772   3.479  3.2269  2.4159 -2.7340
  188MOL0     H24814   1.546   3.522   3.782 -1.0921  0.9537 -1.2853
  188MOL0     H24815   2.264   3.334   3.452 -0.6403 -1.2811  0.1021
  188MOL0     H24816   2.455   3.219   3.333  0.1153  1.5173  0.8753
  189MOL0     O24817   6.079  11.238   7.501 -0.9479 -0.4883 -0.4523
  189MOL0     C24818   6.139  11.283   7.405  0.1404  0.4599 -0.3184
  189MOL0     O24819   6.076  11.352   7.302  0.0055 -0.1822  0.3058
  189MOL0     C24820   5.943  11.342   7.284  1.4270  0.2233  0.1026
  189MOL0     C24821   5.876  11.216   7.272 -0.2893 -0.2743  0.1907
  189MOL0     C24822   5.742  11.215   7.245 -0.1429  0.0135 -0.5295
  189MOL0     C24823   5.664  11.325   7.244  0.3384  0.0506  0.2140
  189MOL0     O24824   5.529  11.304   7.227 -0.2318 -0.4700 -0.0048
  189MOL0     C24825   5.448  11.420   7.258 -0.5510 -0.0027  0.0462
  189MOL0     C24826   5.296  11.391   7.247 -0.1862 -0.2407  0.2512
  189MOL0     C24827   5.230  11.510   7.305 -0.0257 -0.2106 -0.2890
  189MOL0     C24828   5.076  11.502   7.287  0.6977  0.4800  0.8340
  189MOL0     C24829   5.006  11.630   7.335  0.2653  0.5999 -0.1523
  189MOL0     C24830   4.869  11.589   7.390  0.3195 -0.8633 -0.3871
  189MOL0     C24831   4.776  11.718   7.403  0.7258  0.1262  0.7237
  189MOL0     C24832   4.647  11.699   7.493  0.3858  0.3229  0.2074
  189MOL0     N24833   4.541  11.621   7.419 -0.1196  0.8944  0.1908
  189MOL0     C24834   4.433  11.679   7.363  0.6598  0.5296 -0.9545
  189MOL0     C24835   4.381  11.590   7.281 -0.2021  0.1990 -0.5973
  189MOL0     C24836   4.250  11.623   7.214  0.0427  0.4035 -0.6520
  189MOL0     C24837   4.154  11.502   7.243 -0.0207 -0.6330 -0.1756
  189MOL0     C24838   4.110  11.504   7.390  0.7945  0.7016 -0.1506
  189MOL0     C24839   4.005  11.395   7.412  0.4562  0.5722 -0.5982
  189MOL0     O24840   3.874  11.446   7.383  0.0520  0.4774 -0.0152
  189MOL0     C24841   3.773  11.354   7.386 -0.1685 -0.1598  0.3831
  189MOL0     C24842   3.655  11.380   7.316 -0.8869 -1.1031 -0.3392
  189MOL0     C24843   3.549  11.289   7.321  0.3702 -1.3358 -0.2177
  189MOL0     C24844   3.558  11.157   7.381  0.0141 -0.3899 -0.0566
  189MOL0     C24845   3.447  11.060   7.379  0.5862 -0.7357  0.5628
  189MOL0     O24846   3.356  11.083   7.288 -0.8240  0.3700 -0.1721
  189MOL0     C24847   3.249  10.997   7.257 -0.0069 -1.0273 -0.2183
  189MOL0     C24848   3.249  10.857   7.249  0.2449 -1.0995  0.6960
  189MOL0     C24849   3.135  10.788   7.207  0.4593 -0.2958  0.6569
  189MOL0     C24850   3.013  10.846   7.172  0.3032 -0.6538  0.1073
  189MOL0     O24851   2.899  10.780   7.122  0.3831  0.2099  0.2510
  189MOL0     C24852   2.851  10.650   7.170  0.1316 -0.9217  0.1079
  189MOL0     C24853   2.697  10.657   7.206 -0.5055  0.3035 -0.1907
  189MOL0     C24854   2.667  10.520   7.268  0.2901  0.2544  0.3722
  189MOL0     C24855   2.511  10.496   7.289 -0.1654 -0.7071  0.6181
  189MOL0     C24856   2.492  10.387   7.386  0.3668  0.0924 -0.2044
  189MOL0     C24857   2.537  10.414   7.535 -0.2221  0.4937  0.8872
  189MOL0     C24858   2.473  10.308   7.625 -0.1282  0.7902  0.5854
  189MOL0     C24859   2.520  10.351   7.762 -0.5686  1.2332  0.3806
  189MOL0    Cl24860   2.441  10.240   7.871  0.0087 -0.1884 -0.1156
  189MOL0     C24861   2.999  10.987   7.191  0.4547  0.7177  0.5281
  189MOL0     C24862   3.117  11.057   7.231 -0.3870  0.5617  0.3030
  189MOL0     O24863   3.441  10.966   7.462  0.2309  0.5637 -0.1113
  189MOL0     C24864   3.684  11.126   7.437  0.6092  0.6998  0.2405
  189MOL0     C24865   3.783  11.224   7.452 -0.4682  0.0648 -0.1187
  189MOL0     N24866   4.457  11.475   7.284  0.1538  0.4204  0.2957
  189MOL0     N24867   4.560  11.497   7.357  0.0560 -0.4816  0.0512
  189MOL0     C24868   5.728  11.446   7.255 -0.1900  0.1583  0.0885
  189MOL0     C24869   5.865  11.457   7.266  0.0807  0.4977 -0.3004
  189MOL0     C24870   6.285  11.305   7.403  0.1211 -0.0781 -0.4175
  189MOL0     C24871   6.359  11.292   7.516 -0.8298 -0.4287 -0.7016
  189MOL0     C24872   6.496  11.337   7.512 -0.6716  0.5691  1.2702
  189MOL0     C24873   6.563  11.373   7.393 -0.0890 -0.0453 -0.1291
  189MOL0     O24874   6.694  11.400   7.412  0.3406  0.2494 -0.1164
  189MOL0     C24875   6.767  11.427   7.295  0.3948 -0.2802 -0.4014
  189MOL0     C24876   6.917  11.443   7.317  0.7326 -0.4395 -0.5630
  189MOL0     C24877   6.978  11.301   7.319 -0.4791 -0.4839 -0.4741
  189MOL0     C24878   7.009  11.259   7.460  1.2355 -0.8517 -0.2398
  189MOL0     C24879   7.085  11.135   7.472 -0.0615  0.2065  1.2193
  189MOL0     C24880   7.151  11.034   7.481 -0.3826 -0.8987 -0.2928
  189MOL0     C24881   6.490  11.390   7.275 -0.7706  0.4426 -0.6363
  189MOL0     C24882   6.352  11.368   7.290 -0.9915 -0.5211  0.6305
  189MOL0     H24883   5.930  11.122   7.270 -0.0847 -0.1445 -0.3045
  189MOL0     H24884   5.688  11.122   7.228 -0.9465  0.6519 -1.5545
  189MOL0     H24885   5.470  11.501   7.188 -1.2620  2.4889  2.5307
  189MOL0     H24886   5.473  11.450   7.360  2.7239 -1.1435 -0.2846
  189MOL0     H24887   5.266  11.297   7.295  1.0562 -1.1870 -0.7334
  189MOL0     H24888   5.272  11.379   7.142  1.3909  0.6834 -0.2562
  189MOL0     H24889   5.280  11.601   7.272 -2.9810  1.0185 -1.7096
  189MOL0     H24890   5.244  11.503   7.413 -0.6419 -3.5372 -0.3051
  189MOL0     H24891   5.050  11.474   7.184 -1.2306 -0.0407  1.4262
  189MOL0     H24892   5.051  11.419   7.354  0.4841 -0.7184 -0.6635
  189MOL0     H24893   4.999  11.710   7.261 -0.8831  1.8310  1.2010
  189MOL0     H24894   5.069  11.670   7.415  1.5960 -2.0923  0.2706
  189MOL0     H24895   4.888  11.553   7.491 -1.8866  0.5953  0.6098
  189MOL0     H24896   4.818  11.504   7.343  0.6662 -1.3001  0.0172
  189MOL0     H24897   4.835  11.788   7.464  0.6117  0.8499  0.0236
  189MOL0     H24898   4.742  11.766   7.311  0.1863 -2.3056 -0.4010
  189MOL0     H24899   4.610  11.795   7.531  1.1113  0.4598  0.5871
  189MOL0     H24900   4.676  11.637   7.578 -2.4633 -2.1745 -0.4730
  189MOL0     H24901   4.384  11.774   7.383  1.6704  0.8167  0.2747
  189MOL0     H24902   4.267  11.644   7.108  0.0636 -2.1594 -1.2229
  189MOL0     H24903   4.201  11.714   7.250  2.3604  2.3468 -2.0960
  189MOL0     H24904   4.195  11.403   7.220  3.8282  0.1174  2.5817
  189MOL0     H24905   4.071  11.508   7.171 -0.7776  0.7020  0.7551
  189MOL0     H24906   4.183  11.471   7.464 -0.7899 -1.0474  0.7178
  189MOL0     H24907   4.065  11.603   7.404 -1.3531  0.3042 -3.2607
  189MOL0     H24908   4.003  11.364   7.517  2.0617  0.1175 -0.6720
  189MOL0     H24909   4.039  11.309   7.355  0.2026 -1.0370  1.5257
  189MOL0     H24910   3.653  11.476   7.265 -1.2507 -3.1479 -4.6544
  189MOL0     H24911   3.463  11.321   7.263 -0.3770 -1.7039  0.6549
  189MOL0     H24912   3.343  10.803   7.261  1.0805  0.6932  3.0989
  189MOL0     H24913   3.135  10.681   7.189 -2.5802 -0.2529 -0.2117
  189MOL0     H24914   2.912  10.631   7.259  0.4990 -0.9854 -0.1500
  189MOL0     H24915   2.886  10.581   7.093 -1.6143 -0.0494 -1.5563
  189MOL0     H24916   2.640  10.676   7.114  0.2485  1.6221 -0.4051
  189MOL0     H24917   2.682  10.729   7.287 -1.6967  0.2328 -0.3252
  189MOL0     H24918   2.725  10.522   7.360 -1.8450 -0.5211  1.8110
  189MOL0     H24919   2.701  10.435   7.207  0.6840  1.0701 -0.5632
  189MOL0     H24920   2.456  10.579   7.334 -1.2608 -1.2998  0.4033
  189MOL0     H24921   2.467  10.470   7.192  1.2648  2.0626 -0.8907
  189MOL0     H24922   2.549  10.301   7.349 -1.5250 -1.9784  1.3776
  189MOL0     H24923   2.387  10.357   7.379  1.0799 -3.7587  2.5338
  189MOL0     H24924   2.523  10.519   7.559 -0.2014  0.8019 -0.3505
  189MOL0     H24925   2.645  10.396   7.533 -0.3226 -0.2603 -1.6347
  189MOL0     H24926   2.366  10.328   7.618  0.2539  2.9689  0.2295
  189MOL0     H24927   2.500  10.206   7.596  0.4580  1.5181 -1.6609
  189MOL0     H24928   2.479  10.450   7.783  0.1934  1.2366  2.0885
  189MOL0     H24929   2.628  10.336   7.774 -1.0292 -1.7002  1.7115
  189MOL0     H24930   2.911  11.048   7.177  1.2982  1.3797 -2.6131
  189MOL0     H24931   3.117  11.165   7.231  3.3239  0.7351 -1.8983
  189MOL0     H24932   3.688  11.033   7.493 -0.5517 -1.3790 -2.8632
  189MOL0     H24933   3.873  11.183   7.497 -0.5207 -1.2704 -1.1998
  189MOL0     H24934   5.663  11.533   7.254  0.8444  0.9646 -1.5633
  189MOL0     H24935   5.913  11.554   7.270 -0.3146  0.7241 -0.9201
  189MOL0     H24936   6.312  11.256   7.607  0.3134 -1.7653 -0.5936
  189MOL0     H24937   6.563  11.312   7.594  0.2809 -1.3637 -0.0217
  189MOL0     H24938   6.729  11.519   7.249  1.7134  0.2617 -0.4310
  189MOL0     H24939   6.751  11.347   7.221  0.1873 -0.2630 -0.3766
  189MOL0     H24940   6.969  11.501   7.240  2.0679  1.2157  1.4624
  189MOL0     H24941   6.951  11.499   7.405  1.5389 -0.1211 -1.0615
  189MOL0     H24942   7.070  11.304   7.259 -0.6359  3.0605 -0.7580
  189MOL0     H24943   6.914  11.224   7.275  1.2250 -0.5535 -3.0010
  189MOL0     H24944   7.069  11.336   7.510  0.9246 -0.3793 -0.5805
  189MOL0     H24945   6.915  11.265   7.516  0.8025  0.5360 -1.0514
  189MOL0     H24946   7.224  10.958   7.500  1.7518 -0.4186 -5.1526
  189MOL0     H24947   6.544  11.425   7.188  3.6390 -1.6427  0.9427
  189MOL0     H24948   6.300  11.408   7.203 -0.4825  0.1860  0.6477
  190MOL0     O24949   6.283   9.798   7.449 -0.2662  0.4721  0.7012
  190MOL0     C24950   6.264   9.884   7.529 -0.9241  0.2983  0.6135
  190MOL0     O24951   6.349   9.985   7.563 -0.1672 -0.3684 -0.0265
  190MOL0     C24952   6.470   9.992   7.492 -0.1741  0.3669  1.4399
  190MOL0     C24953   6.561   9.889   7.507  0.2268 -0.4297 -0.5612
  190MOL0     C24954   6.688   9.892   7.452 -0.5642 -0.8876 -1.3255
  190MOL0     C24955   6.717   9.997   7.361 -0.8405 -0.1953  0.6117
  190MOL0     O24956   6.837  10.019   7.295  0.5874 -0.6306  0.3437
  190MOL0     C24957   6.946   9.926   7.301 -0.2674 -0.4284 -0.8663
  190MOL0     C24958   7.065   9.978   7.207 -0.3174 -0.1210  0.0955
  190MOL0     C24959   7.183   9.875   7.186 -0.0138 -0.0013  0.0730
  190MOL0     C24960   7.308   9.946   7.121 -0.8146  0.7330  0.7393
  190MOL0     C24961   7.409   9.836   7.081 -0.4388 -0.7591  0.2266
  190MOL0     C24962   7.535   9.898   7.027 -0.3506  0.1027  0.3928
  190MOL0     C24963   7.599   9.792   6.942 -0.0388  0.0060 -0.1958
  190MOL0     C24964   7.728   9.863   6.884 -0.1546  0.2387 -0.0480
  190MOL0     N24965   7.859   9.837   6.946  0.3048  0.2953 -0.1065
  190MOL0     C24966   7.906   9.708   6.965 -0.4576 -0.0958 -0.6467
  190MOL0     C24967   8.021   9.728   7.039  0.2126 -0.5707 -0.9523
  190MOL0     C24968   8.105   9.622   7.100 -0.0584  0.9410  0.8030
  190MOL0     C24969   8.231   9.648   7.181 -0.6239 -0.9011 -0.8727
  190MOL0     C24970   8.210   9.712   7.312  0.3400  0.2978  0.0071
  190MOL0     C24971   8.087   9.670   7.395 -1.1494  0.1077 -0.4006
  190MOL0     O24972   7.980   9.762   7.378  0.1490 -0.0131  0.0227
  190MOL0     C24973   7.853   9.732   7.423 -0.3108  0.5875  0.7836
  190MOL0     C24974   7.759   9.826   7.385  0.4881  0.5524  1.4377
  190MOL0     C24975   7.633   9.819   7.451 -0.7298  0.1421 -0.7551
  190MOL0     C24976   7.605   9.718   7.549 -0.7568  0.1290  0.7210
  190MOL0     C24977   7.470   9.710   7.622  0.9212 -0.2196  0.1790
  190MOL0     O24978   7.361   9.774   7.565 -0.1100 -0.1908  0.1150
  190MOL0     C24979   7.236   9.753   7.627 -0.2019  0.2410  0.5815
  190MOL0     C24980   7.155   9.861   7.661 -0.5042  0.4723 -0.1069
  190MOL0     C24981   7.026   9.841   7.713 -0.2030 -0.3331 -0.2815
  190MOL0     C24982   6.974   9.710   7.733  0.2106 -0.1483 -0.7081
  190MOL0     O24983   6.845   9.686   7.776  0.0063 -0.1045  0.7025
  190MOL0     C24984   6.765   9.793   7.822 -0.7949 -0.4343 -0.0824
  190MOL0     C24985   6.666   9.745   7.933  0.0529 -0.0495 -0.0101
  190MOL0     C24986   6.557   9.850   7.967 -0.8505 -0.3469  0.1275
  190MOL0     C24987   6.430   9.782   8.038 -0.6346  0.2448 -0.5036
  190MOL0     C24988   6.344   9.883   8.115 -0.3635  0.7623  1.0738
  190MOL0     C24989   6.217   9.816   8.161 -0.1410  0.9025  0.1551
  190MOL0     C24990   6.111   9.775   8.048  0.0512 -0.1165 -0.2745
  190MOL0     C24991   5.961   9.788   8.096 -0.6741  1.5951 -0.9409
  190MOL0    Cl24992   5.951   9.692   8.256  0.3303  0.1775  0.5169
  190MOL0     C24993   7.050   9.597   7.698 -0.8006  0.4936 -0.1923
  190MOL0     C24994   7.182   9.626   7.654  0.2593  0.2898  1.4089
  190MOL0     O24995   7.468   9.645   7.725  0.0200  0.6664 -0.5191
  190MOL0     C24996   7.702   9.618   7.572 -0.2888 -0.7926  0.4420
  190MOL0     C24997   7.817   9.617   7.504 -0.1096 -0.8738  0.1817
  190MOL0     N24998   8.054   9.865   7.032 -0.1207 -0.0938  0.6315
  190MOL0     N24999   7.953   9.925   6.978 -0.0253 -0.7506 -0.0635
  190MOL0     C25000   6.618  10.087   7.332 -0.1279 -0.0474 -0.1811
  190MOL0     C25001   6.495  10.093   7.393  0.0288  0.3945 -0.0032
  190MOL0     C25002   6.127   9.886   7.582  0.0410 -0.0429 -0.3477
  190MOL0     C25003   6.108   9.973   7.688  0.4849  0.3863  0.7869
  190MOL0     C25004   5.982   9.977   7.747  0.0424  0.5080  0.0120
  190MOL0     C25005   5.869   9.888   7.709 -0.4896  0.0479 -0.6545
  190MOL0     O25006   5.755   9.863   7.787  0.2783 -0.3653  0.7256
  190MOL0     C25007   5.709   9.969   7.878  0.6214  0.2112 -0.4061
  190MOL0     C25008   5.579   9.901   7.931 -1.4161  0.5951  0.1971
  190MOL0     C25009   5.511  10.002   8.018 -0.9520 -0.3636  0.1144
  190MOL0     C25010   5.375  10.058   7.964 -1.0447  0.3092 -0.5084
  190MOL0     C25011   5.311  10.168   8.042  0.0906 -0.5467 -0.1869
  190MOL0     C25012   5.261  10.267   8.088 -0.5771 -0.4658  0.1955
  190MOL0     C25013   5.899   9.802   7.602 -0.0464  1.1755  0.0179
  190MOL0     C25014   6.026   9.798   7.540  0.5025 -0.3040 -0.0490
  190MOL0     H25015   6.517   9.816   7.574 -2.2742  3.0037  1.8491
  190MOL0     H25016   6.754   9.811   7.479  1.0786  1.0540  0.9294
  190MOL0     H25017   6.919   9.823   7.276  0.2139 -0.6732 -0.3881
  190MOL0     H25018   6.984   9.925   7.403  2.0916 -1.7930 -1.6913
  190MOL0     H25019   7.104  10.072   7.248 -2.1260  0.7610 -0.1091
  190MOL0     H25020   7.008   9.996   7.115 -1.5902 -3.0318  0.2227
  190MOL0     H25021   7.145   9.790   7.128 -1.1470  0.7140 -0.2471
  190MOL0     H25022   7.212   9.849   7.289  2.9710  0.5060 -0.5467
  190MOL0     H25023   7.269   9.980   7.025 -1.6731  1.1503  1.2321
  190MOL0     H25024   7.338  10.024   7.191  0.7105  1.7386 -0.9436
  190MOL0     H25025   7.368   9.770   7.003 -1.5413  0.0674  0.0874
  190MOL0     H25026   7.438   9.778   7.169  1.2997  0.3166  0.4147
  190MOL0     H25027   7.587   9.926   7.119 -3.6969  1.2238  2.0859
  190MOL0     H25028   7.511   9.977   6.956  1.2257 -0.9756 -1.4460
  190MOL0     H25029   7.619   9.693   6.985 -1.8000  0.1157  0.9597
  190MOL0     H25030   7.535   9.765   6.858  0.9839 -3.7878  0.0358
  190MOL0     H25031   7.720   9.970   6.867  0.8079  0.1590 -1.1521
  190MOL0     H25032   7.736   9.805   6.792 -1.1429  0.9295 -0.5740
  190MOL0     H25033   7.865   9.608   6.953  1.1394 -1.0425  1.3101
  190MOL0     H25034   8.144   9.563   7.016 -2.0216  0.7849 -0.0682
  190MOL0     H25035   8.036   9.556   7.154  1.3773 -0.8457  0.5695
  190MOL0     H25036   8.304   9.704   7.122  1.9261 -2.3731  0.6609
  190MOL0     H25037   8.293   9.560   7.201  2.8638  1.4944 -0.2227
  190MOL0     H25038   8.297   9.686   7.374 -0.8665  0.8695  2.0215
  190MOL0     H25039   8.204   9.821   7.306  0.5390  0.3282  0.3369
  190MOL0     H25040   8.112   9.651   7.499 -1.4675 -1.9379 -0.6552
  190MOL0     H25041   8.052   9.572   7.362  0.6050 -0.8462  0.4408
  190MOL0     H25042   7.758   9.900   7.306 -3.5816 -0.6322  0.1207
  190MOL0     H25043   7.554   9.889   7.427  0.5910  1.4739 -1.3268
  190MOL0     H25044   7.200   9.959   7.643  0.0284 -0.0208 -1.5661
  190MOL0     H25045   6.979   9.934   7.745 -1.5638 -1.5512  1.4318
  190MOL0     H25046   6.695   9.832   7.747  0.6576  1.6845 -0.4336
  190MOL0     H25047   6.826   9.877   7.854 -0.8765 -0.0909 -0.8046
  190MOL0     H25048   6.720   9.711   8.022  1.3493 -1.9286 -1.4241
  190MOL0     H25049   6.615   9.663   7.881 -0.6163  0.4361 -0.1320
  190MOL0     H25050   6.528   9.892   7.870 -0.1719  0.8206  0.4060
  190MOL0     H25051   6.598   9.934   8.024 -1.1155  0.6926 -1.1456
  190MOL0     H25052   6.370   9.727   7.965 -1.7451 -0.0715  0.6198
  190MOL0     H25053   6.463   9.700   8.103 -4.7139 -0.0186  1.5593
  190MOL0     H25054   6.327   9.970   8.051 -1.8380 -0.9671 -1.0496
  190MOL0     H25055   6.397   9.924   8.201 -1.5628  1.8396  1.3346
  190MOL0     H25056   6.172   9.883   8.235  2.2360  0.7618  1.8777
  190MOL0     H25057   6.243   9.730   8.223  3.8544  0.0498 -2.3446
  190MOL0     H25058   6.129   9.833   7.957 -0.1787  0.6797  0.1713
  190MOL0     H25059   6.137   9.673   8.018  0.7298  0.0092 -0.1125
  190MOL0     H25060   5.885   9.748   8.028 -2.7499 -0.2523  2.1745
  190MOL0     H25061   5.950   9.894   8.120 -0.5568  1.1904  1.0998
  190MOL0     H25062   7.025   9.496   7.729  2.2455  0.1949  1.7683
  190MOL0     H25063   7.245   9.544   7.620  1.8891  1.6267  1.1129
  190MOL0     H25064   7.680   9.542   7.647 -1.9947  1.7924  2.7469
  190MOL0     H25065   7.898   9.546   7.519  2.1300  1.8292  1.9845
  190MOL0     H25066   6.652  10.155   7.255  1.5578 -2.0482 -1.3028
  190MOL0     H25067   6.420  10.169   7.377 -1.3927 -0.8558  0.4061
  190MOL0     H25068   6.181  10.041   7.730 -1.7463  1.3821  3.2904
  190MOL0     H25069   5.968  10.042   7.833 -0.8883  1.5531 -0.9091
  190MOL0     H25070   5.685  10.060   7.822 -1.3033 -0.8475 -1.4085
  190MOL0     H25071   5.774   9.995   7.961  2.3665 -0.3256 -1.5517
  190MOL0     H25072   5.513   9.882   7.846 -1.3899  0.5253  0.1929
  190MOL0     H25073   5.606   9.803   7.971  0.3923  1.8477  2.3551
  190MOL0     H25074   5.570  10.092   8.041 -2.9765  0.4953  2.4115
  190MOL0     H25075   5.502   9.947   8.112 -0.7028 -0.3202  0.1636
  190MOL0     H25076   5.385  10.104   7.866  0.0576  1.4333  0.1077
  190MOL0     H25077   5.310   9.970   7.958  1.9390 -2.1822  0.8563
  190MOL0     H25078   5.216  10.348   8.141 -0.3950 -0.5729  0.5171
  190MOL0     H25079   5.847   9.709   7.581  1.6769 -0.0377  0.8732
  190MOL0     H25080   6.035   9.728   7.457  1.6117 -1.5027  1.0474
  191MOL0     O25081   1.275   0.997  10.693  0.1210 -0.9447  0.1601
  191MOL0     C25082   1.167   1.045  10.717  0.6370  0.1126  0.2056
  191MOL0     O25083   1.046   1.012  10.663 -0.5650  0.2029  0.0979
  191MOL0     C25084   1.028   0.927  10.558  0.1900  0.3814  0.2917
  191MOL0     C25085   1.123   0.905  10.456 -0.2354  0.5800  0.2954
  191MOL0     C25086   1.077   0.833  10.337  0.9667  0.5346  0.8620
  191MOL0     C25087   0.949   0.780  10.327 -0.0186  0.1259  0.1008
  191MOL0     O25088   0.924   0.717  10.208  0.1970  0.4466  0.6289
  191MOL0     C25089   0.783   0.683  10.177 -0.2383 -0.7188  0.5688
  191MOL0     C25090   0.701   0.800  10.135 -0.5135  0.1526 -0.4598
  191MOL0     C25091   0.551   0.762  10.127  0.1500  0.0880  0.7097
  191MOL0     C25092   0.517   0.665  10.018 -0.1567 -0.5791 -0.9023
  191MOL0     C25093   0.368   0.622  10.032 -0.1947 -0.2881 -0.2395
  191MOL0     C25094   0.330   0.517   9.920  0.1997 -0.0728  0.2225
  191MOL0     C25095   0.185   0.476   9.929 -0.2392  0.1389 -0.7016
  191MOL0     C25096   0.147   0.374   9.828  0.2225 -0.3252 -0.0179
  191MOL0     N25097   0.006   0.341   9.830 -0.4751 -0.6028 -0.4682
  191MOL0     C25098  -0.058   0.261   9.929  0.5612 -1.2650  0.8189
  191MOL0     C25099  -0.165   0.210   9.870  0.2933 -0.2315 -0.9517
  191MOL0     C25100  -0.255   0.129   9.951  0.3067  0.4519  0.1147
  191MOL0     C25101  -0.383   0.201  10.008 -0.1840  0.2499  0.4130
  191MOL0     C25102  -0.481   0.246   9.901 -0.1777 -0.2818  1.1737
  191MOL0     C25103  -0.566   0.126   9.848 -0.9113 -0.9652  0.4625
  191MOL0     O25104  -0.654   0.066   9.944 -0.0640 -0.0753 -0.2597
  191MOL0     C25105  -0.769   0.006   9.908 -0.0175  1.3336  0.1733
  191MOL0     C25106  -0.795  -0.052   9.784 -0.3662 -0.3869 -0.4516
  191MOL0     C25107  -0.907  -0.134   9.758  0.1230 -0.0797  0.5820
  191MOL0     C25108  -0.996  -0.168   9.868 -0.7060  0.4054  0.2485
  191MOL0     C25109  -1.119  -0.243   9.841  0.1690 -1.2799  1.1636
  191MOL0     O25110  -1.146  -0.273   9.711  0.2931  0.5094 -0.2931
  191MOL0     C25111  -1.270  -0.310   9.677 -0.1318  0.3010  0.7022
  191MOL0     C25112  -1.297  -0.431   9.610 -0.1624 -0.2702  0.1581
  191MOL0     C25113  -1.423  -0.458   9.558  0.0930 -0.4631  0.1065
  191MOL0     C25114  -1.534  -0.379   9.589 -0.4728  0.2004  0.4957
  191MOL0     O25115  -1.659  -0.394   9.528 -0.0127 -0.3316  0.0592
  191MOL0     C25116  -1.708  -0.526   9.503  0.3026  0.3421 -0.0109
  191MOL0     C25117  -1.734  -0.606   9.636 -0.2053 -0.7428 -0.2156
  191MOL0     C25118  -1.806  -0.538   9.755  0.2879  0.2536 -0.4619
  191MOL0     C25119  -1.938  -0.469   9.728  0.4707  0.2064  0.2968
  191MOL0     C25120  -1.974  -0.395   9.860 -0.7165  0.7135  0.1190
  191MOL0     C25121  -1.894  -0.270   9.881  0.0605 -0.6228 -0.5949
  191MOL0     C25122  -1.870  -0.257  10.030  0.4945  0.3351 -0.8404
  191MOL0     C25123  -1.843  -0.105  10.068  0.1235  0.3110 -0.0847
  191MOL0    Cl25124  -1.673  -0.065  10.030 -0.1220  0.4620  0.0147
  191MOL0     C25125  -1.512  -0.265   9.661 -0.6642 -0.6038  0.2826
  191MOL0     C25126  -1.382  -0.232   9.705  0.8907  0.1467 -0.2658
  191MOL0     O25127  -1.180  -0.276   9.942 -0.3654  0.1349  0.5220
  191MOL0     C25128  -0.960  -0.126   9.994  0.3487  0.5354  0.3420
  191MOL0     C25129  -0.849  -0.043  10.012  0.2129 -0.8405  0.2024
  191MOL0     N25130  -0.177   0.273   9.751 -0.0963 -0.2486  0.8475
  191MOL0     N25131  -0.081   0.357   9.726 -0.1660 -0.0426  0.0576
  191MOL0     C25132   0.859   0.791  10.441 -0.6339 -1.0299  0.6410
  191MOL0     C25133   0.902   0.871  10.548  0.2122 -0.4425  0.1721
  191MOL0     C25134   1.165   1.144  10.829 -0.1106  1.6612  0.1221
  191MOL0     C25135   1.082   1.255  10.814  0.5339  0.0958  0.1661
  191MOL0     C25136   1.094   1.344  10.915  0.8887  0.1467 -0.3304
  191MOL0     C25137   1.175   1.332  11.035  0.0878  0.3414  0.3015
  191MOL0     O25138   1.190   1.418  11.144  0.2532  0.1878  0.2935
  191MOL0     C25139   1.104   1.535  11.150  0.5433  0.1682 -0.8636
  191MOL0     C25140   1.148   1.647  11.057 -0.1495  0.1916 -0.1089
  191MOL0     C25141   1.049   1.760  11.061  0.3513  0.7311 -0.3526
  191MOL0     C25142   1.066   1.855  10.938  0.0449 -0.1289  0.4352
  191MOL0     C25143   0.958   1.951  10.913 -0.6662 -0.0325 -0.3446
  191MOL0     C25144   0.879   2.040  10.881 -0.3632  0.0241  0.0286
  191MOL0     C25145   1.251   1.214  11.049 -0.1984 -0.2760 -0.0911
  191MOL0     C25146   1.246   1.123  10.938 -0.1745 -0.3394  0.0913
  191MOL0     H25147   1.211   0.969  10.451  0.1264  0.0216 -3.3545
  191MOL0     H25148   1.147   0.815  10.257 -1.9867 -1.7330 -1.4154
  191MOL0     H25149   0.748   0.628  10.265 -0.6606 -1.4344 -0.0329
  191MOL0     H25150   0.777   0.610  10.095  0.4571 -2.6541  2.1696
  191MOL0     H25151   0.735   0.840  10.039  0.3992 -1.9332 -1.0797
  191MOL0     H25152   0.722   0.879  10.207  2.6146  0.8361 -1.9436
  191MOL0     H25153   0.490   0.852  10.111 -1.5181 -1.1065  0.1345
  191MOL0     H25154   0.520   0.725  10.225 -1.8564 -0.1987  0.0125
  191MOL0     H25155   0.534   0.710   9.919 -2.7121  3.9643  0.4284
  191MOL0     H25156   0.575   0.575  10.042  1.6814  0.9714  0.7572
  191MOL0     H25157   0.314   0.716  10.023 -0.8388 -0.5651  0.5728
  191MOL0     H25158   0.356   0.582  10.134 -1.7939  0.8901  0.0731
  191MOL0     H25159   0.400   0.433   9.924  1.6688  1.1598  2.3022
  191MOL0     H25160   0.342   0.570   9.826 -1.5656  3.5778  1.8750
  191MOL0     H25161   0.163   0.439  10.030 -2.2888  1.1150 -0.7248
  191MOL0     H25162   0.119   0.562   9.914  0.1123  0.2026 -1.9526
  191MOL0     H25163   0.202   0.281   9.849 -3.0447 -2.1585  1.0904
  191MOL0     H25164   0.185   0.406   9.731  1.0777 -0.5408  0.2312
  191MOL0     H25165  -0.024   0.225  10.025  0.4264  0.1695  1.4325
  191MOL0     H25166  -0.187   0.105  10.033  1.4079  1.9736 -0.3021
  191MOL0     H25167  -0.284   0.046   9.886 -0.9429  1.2802 -0.4351
  191MOL0     H25168  -0.340   0.289  10.057 -1.3781  0.8495  0.4082
  191MOL0     H25169  -0.434   0.142  10.085  1.0309 -1.2852  0.1201
  191MOL0     H25170  -0.553   0.319   9.938 -2.2872 -0.5569 -1.9804
  191MOL0     H25171  -0.426   0.283   9.814 -0.8536  1.6203  1.5038
  191MOL0     H25172  -0.506   0.043   9.809 -1.4142 -0.3496 -1.7541
  191MOL0     H25173  -0.611   0.152   9.752  2.5745  1.1043 -0.7894
  191MOL0     H25174  -0.717  -0.025   9.713  0.3563 -1.9631 -0.2996
  191MOL0     H25175  -0.918  -0.172   9.657  1.0864  1.8471 -0.2858
  191MOL0     H25176  -1.206  -0.490   9.601 -0.8511 -1.3000 -0.1610
  191MOL0     H25177  -1.428  -0.546   9.494  0.2057 -0.5168  0.1714
  191MOL0     H25178  -1.659  -0.576   9.418 -0.9799  0.1802 -0.6775
  191MOL0     H25179  -1.804  -0.511   9.453 -0.2772  2.5519  1.6524
  191MOL0     H25180  -1.645  -0.656   9.675  0.2832  1.8315  2.3894
  191MOL0     H25181  -1.799  -0.688   9.606  1.4040 -2.0436 -0.2524
  191MOL0     H25182  -1.727  -0.469   9.787 -0.0926  0.5159 -0.0741
  191MOL0     H25183  -1.825  -0.614   9.832 -2.4189  3.9793  2.9671
  191MOL0     H25184  -1.942  -0.397   9.646  2.7690  1.9063  1.5566
  191MOL0     H25185  -2.004  -0.554   9.709  0.7537  0.0312  0.0888
  191MOL0     H25186  -1.966  -0.460   9.948  1.0956  0.0362 -0.4901
  191MOL0     H25187  -2.079  -0.367   9.850 -0.9427  0.2448  1.0523
  191MOL0     H25188  -1.947  -0.180   9.846  1.5062  0.0618 -1.1314
  191MOL0     H25189  -1.796  -0.271   9.832  1.1671 -1.5632  1.5213
  191MOL0     H25190  -1.949  -0.305  10.088  1.5314 -0.6298 -0.1714
  191MOL0     H25191  -1.785  -0.319  10.060 -0.6893 -1.3302 -0.8600
  191MOL0     H25192  -1.851  -0.093  10.177  2.6770  3.5220 -0.1040
  191MOL0     H25193  -1.911  -0.032  10.023 -0.1486 -1.6465 -3.1353
  191MOL0     H25194  -1.596  -0.201   9.686 -1.0164 -0.7117 -0.5942
  191MOL0     H25195  -1.375  -0.143   9.766  0.9006  0.7686 -1.1505
  191MOL0     H25196  -1.016  -0.158  10.082  1.2088 -2.2236 -0.0079
  191MOL0     H25197  -0.830  -0.014  10.114 -0.5702  0.0276  0.1219
  191MOL0     H25198   0.760   0.747  10.445 -1.8758  1.5952  0.7269
  191MOL0     H25199   0.835   0.891  10.630  0.2038 -2.8424  0.8077
  191MOL0     H25200   1.022   1.274  10.725  1.9025  2.7787 -0.3063
  191MOL0     H25201   1.027   1.429  10.914  2.2271  1.2399 -1.0140
  191MOL0     H25202   1.103   1.567  11.255  0.5456  0.3096 -0.9058
  191MOL0     H25203   1.006   1.497  11.119  0.0966  0.9263 -0.4106
  191MOL0     H25204   1.245   1.681  11.096 -0.0328  3.9731 -3.0778
  191MOL0     H25205   1.169   1.617  10.954  0.8115 -1.6123  0.5663
  191MOL0     H25206   1.053   1.808  11.160  0.0245 -3.8221  2.1257
  191MOL0     H25207   0.949   1.717  11.050  1.3893 -1.3341 -2.4364
  191MOL0     H25208   1.163   1.906  10.945  1.2357 -2.4253  1.9502
  191MOL0     H25209   1.062   1.787  10.852  1.7353  0.3279 -0.0327
  191MOL0     H25210   0.824   2.132  10.876 -0.7150 -0.2610 -2.3173
  191MOL0     H25211   1.321   1.186  11.126 -2.8295  2.3851  3.6392
  191MOL0     H25212   1.305   1.031  10.938  0.5436  0.0300  3.0947
  192MOL0     O25213   0.708   1.305   3.629  0.0069  0.1858 -0.0601
  192MOL0     C25214   0.701   1.301   3.503 -0.3154  1.3701 -0.0803
  192MOL0     O25215   0.612   1.357   3.421  0.4610  0.3360 -0.1203
  192MOL0     C25216   0.516   1.430   3.484 -0.0701 -1.2217  0.2905
  192MOL0     C25217   0.394   1.376   3.522  0.6429  1.3978  0.3811
  192MOL0     C25218   0.294   1.459   3.573 -0.6107  0.5080 -0.4328
  192MOL0     C25219   0.320   1.585   3.608  0.9813  0.5352  0.6068
  192MOL0     O25220   0.224   1.664   3.658  0.0175  0.1842  0.0242
  192MOL0     C25221   0.099   1.683   3.584 -0.1581 -1.0788  0.2546
  192MOL0     C25222   0.066   1.825   3.597  0.8277 -0.4934  0.2068
  192MOL0     C25223  -0.058   1.866   3.517 -0.1897 -0.5713 -0.2133
  192MOL0     C25224  -0.172   1.767   3.508  0.5919  0.9576 -0.2492
  192MOL0     C25225  -0.226   1.736   3.650  0.4692  0.4606 -0.8405
  192MOL0     C25226  -0.309   1.616   3.653  0.5997  0.2475 -0.1297
  192MOL0     C25227  -0.415   1.593   3.546  0.0148 -0.4728  0.5353
  192MOL0     C25228  -0.528   1.702   3.552  0.1616 -0.0264  0.3299
  192MOL0     N25229  -0.568   1.713   3.691 -0.3362  0.4148  0.2098
  192MOL0     C25230  -0.657   1.617   3.750 -0.2337 -0.3510 -0.1908
  192MOL0     C25231  -0.693   1.679   3.862  0.1002  0.7562 -0.5168
  192MOL0     C25232  -0.778   1.608   3.966 -0.1904 -0.1246  0.1852
  192MOL0     C25233  -0.928   1.636   3.930  0.9070 -0.7152  0.2789
  192MOL0     C25234  -0.978   1.783   3.952 -0.2645 -0.1717  0.1628
  192MOL0     C25235  -0.964   1.814   4.106 -0.9820  0.2875 -0.4347
  192MOL0     O25236  -1.030   1.938   4.139  0.7963 -0.4439 -0.0323
  192MOL0     C25237  -1.161   1.940   4.165 -0.0708  0.4627 -0.4340
  192MOL0     C25238  -1.256   1.839   4.140 -0.0653  0.1644  0.2706
  192MOL0     C25239  -1.394   1.846   4.152  1.1758 -1.3401  0.4253
  192MOL0     C25240  -1.448   1.968   4.196 -0.8193  0.4752 -0.4533
  192MOL0     C25241  -1.592   1.990   4.208 -0.8683  0.0336  1.0157
  192MOL0     O25242  -1.642   2.051   4.319  1.0174 -0.3358  0.1441
  192MOL0     C25243  -1.779   2.070   4.326 -0.1350  0.7535 -0.4735
  192MOL0     C25244  -1.841   2.177   4.257  0.1080  1.2387 -0.3617
  192MOL0     C25245  -1.976   2.215   4.283  0.0357 -0.2003  0.5578
  192MOL0     C25246  -2.043   2.149   4.381  0.2807  0.4949 -0.4376
  192MOL0     O25247  -2.174   2.174   4.413  0.3007 -0.7069 -0.3357
  192MOL0     C25248  -2.250   2.272   4.336  0.2591 -0.5313  0.0182
  192MOL0     C25249  -2.388   2.301   4.404  0.6903 -0.2679  0.0351
  192MOL0     C25250  -2.485   2.186   4.437 -1.0322 -0.1092 -1.2176
  192MOL0     C25251  -2.621   2.236   4.459 -0.8231  0.3809 -0.7670
  192MOL0     C25252  -2.708   2.122   4.502  0.2774  0.2931 -0.2678
  192MOL0     C25253  -2.853   2.157   4.517  0.1302 -0.3635  0.1885
  192MOL0     C25254  -2.933   2.026   4.551 -0.0461  0.1402  0.2229
  192MOL0     C25255  -3.085   2.049   4.590 -0.0749  0.7532 -0.4299
  192MOL0    Cl25256  -3.189   2.083   4.438 -0.0180  0.1837  0.1233
  192MOL0     C25257  -1.990   2.041   4.454 -0.3062  0.3145 -0.0671
  192MOL0     C25258  -1.863   2.003   4.424 -0.1441 -0.5885  0.5128
  192MOL0     O25259  -1.664   1.927   4.130  0.2330  0.2613  0.8202
  192MOL0     C25260  -1.359   2.068   4.238 -0.4181  0.0936 -0.1501
  192MOL0     C25261  -1.227   2.052   4.222 -0.7162  0.0406  0.6676
  192MOL0     N25262  -0.627   1.799   3.876 -0.5601 -0.4724 -0.6046
  192MOL0     N25263  -0.547   1.816   3.777  0.5116 -0.2510 -0.5429
  192MOL0     C25264   0.440   1.639   3.561  0.2465 -0.5300 -0.1445
  192MOL0     C25265   0.539   1.563   3.499  0.1818 -0.9746  0.2662
  192MOL0     C25266   0.832   1.238   3.453 -0.5209 -0.4211  0.3125
  192MOL0     C25267   0.934   1.164   3.529  1.1620  0.2040  0.3118
  192MOL0     C25268   1.061   1.128   3.486  0.1628  0.4461  0.6888
  192MOL0     C25269   1.089   1.148   3.353 -0.4787 -0.4029 -0.1970
  192MOL0     O25270   1.213   1.106   3.309 -0.3556 -0.2171 -0.5279
  192MOL0     C25271   1.236   1.060   3.174 -0.1897  0.2299  0.2963
  192MOL0     C25272   1.375   0.994   3.158  0.4256 -0.6193 -0.2167
  192MOL0     C25273   1.389   0.929   3.027 -0.1960  0.0874 -0.1635
  192MOL0     C25274   1.525   0.878   3.003 -0.8779  0.3256  0.2837
  192MOL0     C25275   1.544   0.764   3.085 -0.8934  0.0780  0.2275
  192MOL0     C25276   1.558   0.672   3.160  0.3277 -0.0281 -0.3852
  192MOL0     C25277   0.997   1.201   3.270  0.4656 -1.6097 -0.2155
  192MOL0     C25278   0.868   1.246   3.314  0.0583 -0.3978 -0.7706
  192MOL0     H25279   0.375   1.269   3.512 -2.7625  1.6596  2.5345
  192MOL0     H25280   0.190   1.428   3.582 -0.6307  0.5282 -0.5980
  192MOL0     H25281   0.018   1.624   3.627 -0.8763  0.6694  1.4229
  192MOL0     H25282   0.104   1.656   3.478 -1.7280 -1.6989  0.3034
  192MOL0     H25283   0.148   1.885   3.557  0.9708 -0.7681  0.0822
  192MOL0     H25284   0.049   1.837   3.704 -1.3002  0.1686 -0.1615
  192MOL0     H25285  -0.029   1.878   3.412  0.7761  0.4329  0.1651
  192MOL0     H25286  -0.097   1.960   3.557 -0.8577 -0.1063 -1.8746
  192MOL0     H25287  -0.254   1.802   3.445 -0.7583 -2.6798 -0.7641
  192MOL0     H25288  -0.130   1.679   3.458  2.4462  0.4703  1.9727
  192MOL0     H25289  -0.283   1.819   3.693  0.0376  0.2481 -0.9985
  192MOL0     H25290  -0.154   1.707   3.727 -1.0375 -4.0118 -0.8442
  192MOL0     H25291  -0.341   1.608   3.757  0.0999  0.5150 -0.2598
  192MOL0     H25292  -0.250   1.524   3.652 -0.2326 -0.3682  1.7541
  192MOL0     H25293  -0.372   1.594   3.445  0.1128  2.3482  0.5079
  192MOL0     H25294  -0.454   1.491   3.558  1.2996 -1.0992 -0.4470
  192MOL0     H25295  -0.610   1.656   3.496 -0.1475 -0.5084  1.1585
  192MOL0     H25296  -0.500   1.794   3.500 -2.7725  1.8502  1.8007
  192MOL0     H25297  -0.699   1.521   3.719 -1.0522 -0.5701  1.4912
  192MOL0     H25298  -0.749   1.642   4.066 -0.5257 -0.6015  0.4482
  192MOL0     H25299  -0.756   1.501   3.966 -0.1388 -0.1277 -1.1019
  192MOL0     H25300  -1.004   1.579   3.983 -2.9330  0.8081 -3.1168
  192MOL0     H25301  -0.948   1.602   3.828 -2.2354 -1.7529  1.1288
  192MOL0     H25302  -0.916   1.856   3.899 -1.3823  0.2119 -0.6538
  192MOL0     H25303  -1.085   1.791   3.931 -0.3594  1.3229  1.0118
  192MOL0     H25304  -0.857   1.822   4.127 -1.1192  0.0393  0.4009
  192MOL0     H25305  -1.012   1.736   4.166 -0.0661  1.0971  1.4534
  192MOL0     H25306  -1.225   1.745   4.096  2.5097  1.1085 -0.1201
  192MOL0     H25307  -1.457   1.764   4.120  1.8118 -1.2111 -1.2759
  192MOL0     H25308  -1.796   2.241   4.182 -1.9335  3.3830  0.1109
  192MOL0     H25309  -2.016   2.293   4.219  0.9247  1.2279  1.6934
  192MOL0     H25310  -2.268   2.247   4.232 -1.6822 -0.9531  0.4230
  192MOL0     H25311  -2.196   2.367   4.339  0.6905 -0.7373 -0.9753
  192MOL0     H25312  -2.440   2.369   4.335  1.9462  0.1750 -0.4995
  192MOL0     H25313  -2.367   2.375   4.483  1.4936 -0.1171 -0.3139
  192MOL0     H25314  -2.460   2.134   4.530  1.5163  0.0089 -1.7634
  192MOL0     H25315  -2.470   2.113   4.356  1.1651  0.2210 -1.1548
  192MOL0     H25316  -2.612   2.302   4.546  0.1752 -1.6931  0.7961
  192MOL0     H25317  -2.667   2.301   4.384 -1.2567 -0.0127 -0.8514
  192MOL0     H25318  -2.663   2.075   4.589 -0.1762  2.0275  0.9447
  192MOL0     H25319  -2.702   2.052   4.418  1.3348  1.1433 -0.9147
  192MOL0     H25320  -2.888   2.212   4.430  1.5786 -1.8714 -1.4155
  192MOL0     H25321  -2.860   2.220   4.607  1.5219 -0.4262  0.3564
  192MOL0     H25322  -2.923   1.956   4.468  0.4385  2.9543 -2.2410
  192MOL0     H25323  -2.877   1.983   4.634  0.3030 -0.6818 -0.4246
  192MOL0     H25324  -3.092   2.132   4.662 -1.3580  0.2988  0.0069
  192MOL0     H25325  -3.128   1.960   4.637 -2.5519 -0.5905 -4.6769
  192MOL0     H25326  -2.050   1.987   4.527 -1.8459 -3.1558 -3.5312
  192MOL0     H25327  -1.808   1.932   4.486  0.1451  0.2586  1.2460
  192MOL0     H25328  -1.407   2.150   4.291 -1.3698 -1.2683  1.1548
  192MOL0     H25329  -1.172   2.142   4.247 -1.6705  0.0768  2.9235
  192MOL0     H25330   0.454   1.746   3.570 -0.5755 -0.3749 -0.5752
  192MOL0     H25331   0.632   1.603   3.461 -0.2512  0.4452  0.6545
  192MOL0     H25332   0.892   1.136   3.625 -0.4736  0.1525 -0.3810
  192MOL0     H25333   1.130   1.069   3.547  0.6285  3.1118  2.9552
  192MOL0     H25334   1.232   1.149   3.110  1.9040 -1.1267 -1.8898
  192MOL0     H25335   1.164   0.986   3.138 -0.1173  1.1929 -2.0060
  192MOL0     H25336   1.453   1.071   3.164  2.0829 -1.9804 -2.5385
  192MOL0     H25337   1.387   0.925   3.242  0.5348 -1.0429 -0.5756
  192MOL0     H25338   1.380   1.010   2.954  0.7298  1.6542  1.3818
  192MOL0     H25339   1.324   0.842   3.015 -0.4480 -0.0837  2.0580
  192MOL0     H25340   1.537   0.852   2.897  0.1626  0.5063  0.3458
  192MOL0     H25341   1.597   0.957   3.024  0.0478 -0.8039  1.5352
  192MOL0     H25342   1.545   0.588   3.226 -0.5778  0.7321  0.4395
  192MOL0     H25343   1.018   1.235   3.169 -1.6301  2.7642  0.5814
  192MOL0     H25344   0.790   1.284   3.249 -1.6793 -0.3166  1.2468
  193MOL0     O25345   1.941   1.087   6.566  0.0195 -0.4184 -0.3616
  193MOL0     C25346   1.920   1.185   6.628  0.4404 -0.2159  1.0568
  193MOL0     O25347   2.011   1.270   6.671 -0.5178  0.6096  0.0303
  193MOL0     C25348   2.142   1.282   6.638 -0.0081 -0.2304 -0.5867
  193MOL0     C25349   2.219   1.183   6.584 -0.2049  0.4225  0.0688
  193MOL0     C25350   2.356   1.210   6.552 -0.1014 -0.3655 -0.5629
  193MOL0     C25351   2.404   1.342   6.582  0.2924 -0.1656 -0.0733
  193MOL0     O25352   2.535   1.363   6.560 -0.5796  0.1879 -0.0513
  193MOL0     C25353   2.601   1.494   6.590 -0.4098  0.4870 -0.0489
  193MOL0     C25354   2.587   1.594   6.483 -0.3519  0.5682 -0.0990
  193MOL0     C25355   2.598   1.730   6.513  0.4683 -0.5477 -0.4997
  193MOL0     C25356   2.611   1.831   6.408  0.0061 -0.5284  0.7604
  193MOL0     C25357   2.661   1.963   6.465 -0.3693  0.1573 -0.6189
  193MOL0     C25358   2.588   2.084   6.417 -1.0296 -0.4411 -0.3295
  193MOL0     C25359   2.586   2.108   6.263  0.7440 -0.0648 -1.0918
  193MOL0     C25360   2.529   2.244   6.233  0.2022 -0.6653 -0.5160
  193MOL0     N25361   2.405   2.273   6.315  0.4266  0.6304  0.0227
  193MOL0     C25362   2.270   2.253   6.275 -1.0682 -0.0750 -0.1448
  193MOL0     C25363   2.198   2.332   6.348  0.3983 -0.5382  0.1967
  193MOL0     C25364   2.045   2.346   6.347 -0.1397 -0.2230 -0.1067
  193MOL0     C25365   1.953   2.292   6.458 -0.1220 -0.3642  0.8908
  193MOL0     C25366   1.993   2.348   6.594 -0.0154 -0.3855  0.5900
  193MOL0     C25367   1.900   2.304   6.709 -0.0574 -0.7835 -0.7903
  193MOL0     O25368   1.771   2.366   6.688  0.4019 -0.4951 -0.1651
  193MOL0     C25369   1.658   2.316   6.738 -0.0692 -0.6390  0.1178
  193MOL0     C25370   1.535   2.345   6.670  0.5355  0.4942  0.1503
  193MOL0     C25371   1.423   2.267   6.701  0.1021 -0.1826  1.1539
  193MOL0     C25372   1.422   2.170   6.805 -0.0671  0.9775  0.8378
  193MOL0     C25373   1.294   2.102   6.839 -0.5783  1.4932 -0.7237
  193MOL0     O25374   1.182   2.122   6.761  0.0404 -0.8710  0.5586
  193MOL0     C25375   1.099   2.017   6.788 -0.3442 -0.0840 -0.0089
  193MOL0     C25376   1.097   1.896   6.712  0.6224 -0.3323 -0.5052
  193MOL0     C25377   1.026   1.785   6.761 -0.2461 -0.2729 -0.8309
  193MOL0     C25378   0.943   1.792   6.870 -0.3459  0.4492  0.7365
  193MOL0     O25379   0.871   1.674   6.896 -0.0526  0.0107 -0.3693
  193MOL0     C25380   0.773   1.667   6.999 -0.5403  0.5353 -0.0847
  193MOL0     C25381   0.737   1.520   7.021  0.0834  0.0795 -0.7517
  193MOL0     C25382   0.618   1.504   7.115  0.5537 -0.7081 -0.0873
  193MOL0     C25383   0.557   1.365   7.108  0.5863  0.0139  0.1338
  193MOL0     C25384   0.459   1.335   7.224 -0.1482 -0.8881 -0.1798
  193MOL0     C25385   0.394   1.452   7.286 -0.4555 -1.1663  0.4096
  193MOL0     C25386   0.295   1.410   7.394 -0.4676 -0.7766  0.2202
  193MOL0     C25387   0.362   1.428   7.534 -0.8857  0.3971  0.0940
  193MOL0    Cl25388   0.236   1.399   7.662  0.1719 -0.1624 -0.2163
  193MOL0     C25389   0.941   1.910   6.944 -0.3639 -0.7783  0.6579
  193MOL0     C25390   1.019   2.015   6.904  0.5625 -0.0624 -0.2811
  193MOL0     O25391   1.301   2.017   6.936 -0.0735  0.2610  0.0308
  193MOL0     C25392   1.542   2.162   6.883  0.4695  0.4866  0.4916
  193MOL0     C25393   1.654   2.235   6.848 -0.7749  0.8226 -0.2866
  193MOL0     N25394   2.278   2.386   6.443  0.2120  0.3138  0.1570
  193MOL0     N25395   2.396   2.351   6.423 -0.3204 -0.1679 -0.9012
  193MOL0     C25396   2.328   1.435   6.647  0.6243 -0.7022  0.2448
  193MOL0     C25397   2.198   1.406   6.672 -0.0901  0.8505  0.6271
  193MOL0     C25398   1.782   1.181   6.689  0.3473  0.6152  0.2430
  193MOL0     C25399   1.690   1.074   6.655  0.4878  0.1745 -0.3262
  193MOL0     C25400   1.567   1.061   6.722 -0.4493 -0.0298 -0.2776
  193MOL0     C25401   1.528   1.150   6.822 -0.2233  0.7887  0.9720
  193MOL0     O25402   1.409   1.125   6.871  0.3892  0.5930  0.0759
  193MOL0     C25403   1.360   1.204   6.979  0.2864 -1.1173 -0.6137
  193MOL0     C25404   1.304   1.324   6.913  0.0994 -0.9181  0.4070
  193MOL0     C25405   1.281   1.439   7.023 -1.5634 -0.6700 -0.0841
  193MOL0     C25406   1.184   1.547   6.977  0.7283 -1.1374 -0.1867
  193MOL0     C25407   1.195   1.659   7.075 -0.5000 -0.2274  0.8588
  193MOL0     C25408   1.215   1.768   7.125 -0.1322  1.3970 -0.0146
  193MOL0     C25409   1.617   1.247   6.860 -0.8470 -0.9413 -0.8365
  193MOL0     C25410   1.751   1.257   6.803  0.5571 -0.1714 -0.2507
  193MOL0     H25411   2.181   1.083   6.567  0.0655  0.7417 -2.8769
  193MOL0     H25412   2.419   1.130   6.514 -0.7073  0.3476 -3.2704
  193MOL0     H25413   2.705   1.461   6.598 -0.9400 -1.0856  0.6801
  193MOL0     H25414   2.585   1.531   6.691 -1.1057 -1.0666  0.4456
  193MOL0     H25415   2.491   1.577   6.433  0.8486 -0.4739 -2.2080
  193MOL0     H25416   2.665   1.575   6.408  0.1644  2.6822 -0.1636
  193MOL0     H25417   2.692   1.729   6.570  1.9953 -5.1441 -2.6118
  193MOL0     H25418   2.517   1.757   6.581  2.1244 -0.7890  1.6955
  193MOL0     H25419   2.682   1.808   6.328  0.6540 -0.6425  1.3587
  193MOL0     H25420   2.514   1.844   6.360 -0.0777  1.1828  1.3326
  193MOL0     H25421   2.767   1.962   6.438  0.4661 -5.1416  1.6408
  193MOL0     H25422   2.662   1.968   6.574  0.8321  0.3357 -0.6250
  193MOL0     H25423   2.647   2.168   6.456  0.7927 -0.5880 -2.5817
  193MOL0     H25424   2.484   2.089   6.452 -1.7817 -0.5253 -2.3815
  193MOL0     H25425   2.686   2.095   6.220  1.0577  1.3396 -0.8459
  193MOL0     H25426   2.520   2.028   6.230 -1.9864  0.9093  1.5921
  193MOL0     H25427   2.511   2.257   6.126 -0.2368  1.2246 -0.2637
  193MOL0     H25428   2.603   2.320   6.262 -0.0403 -1.7696  3.6367
  193MOL0     H25429   2.234   2.197   6.190 -1.9066  1.6450 -0.9719
  193MOL0     H25430   2.020   2.294   6.254  1.0469 -0.7619 -0.1445
  193MOL0     H25431   2.030   2.451   6.320 -2.6043 -0.3915  0.4259
  193MOL0     H25432   1.962   2.184   6.456  2.8054 -0.2185  2.0389
  193MOL0     H25433   1.852   2.334   6.451  1.3742  4.5365  3.4619
  193MOL0     H25434   2.098   2.320   6.606 -0.2602 -1.7705 -0.3087
  193MOL0     H25435   1.984   2.457   6.590 -1.0384 -0.4774 -2.3872
  193MOL0     H25436   1.935   2.330   6.809 -1.5383 -1.4020 -0.0839
  193MOL0     H25437   1.883   2.197   6.696  0.8558 -0.7363 -2.7826
  193MOL0     H25438   1.551   2.390   6.572 -0.2267 -1.0138 -0.7146
  193MOL0     H25439   1.338   2.282   6.635  3.2219  2.9798 -2.6482
  193MOL0     H25440   1.160   1.890   6.624  2.3202 -0.8551  0.6928
  193MOL0     H25441   1.017   1.697   6.699  1.3867  0.3054 -1.9422
  193MOL0     H25442   0.692   1.732   6.964  1.6135  3.0464 -0.7650
  193MOL0     H25443   0.817   1.717   7.086 -0.1639  4.3377 -2.2163
  193MOL0     H25444   0.820   1.464   7.063 -0.2190  0.7835  0.8365
  193MOL0     H25445   0.723   1.476   6.921 -1.4906  1.8989 -1.4093
  193MOL0     H25446   0.539   1.579   7.102  0.6972 -0.5642 -0.1244
  193MOL0     H25447   0.665   1.515   7.213  1.4621 -0.2878 -0.5608
  193MOL0     H25448   0.495   1.366   7.018  0.5624  2.0253  0.1392
  193MOL0     H25449   0.639   1.292   7.100  1.2266  0.9001 -2.1366
  193MOL0     H25450   0.526   1.286   7.295  3.1742 -0.9549 -3.1162
  193MOL0     H25451   0.382   1.269   7.185 -0.8946  0.2021 -0.6131
  193MOL0     H25452   0.341   1.514   7.212 -0.7493 -0.5611  1.1201
  193MOL0     H25453   0.472   1.516   7.328  0.6126 -2.7255  0.8732
  193MOL0     H25454   0.202   1.467   7.389 -1.1635 -1.6449  2.1226
  193MOL0     H25455   0.264   1.307   7.375  0.6758 -1.1023  0.0252
  193MOL0     H25456   0.399   1.531   7.540 -0.5941  0.2647  0.6235
  193MOL0     H25457   0.450   1.364   7.539 -1.6664 -0.6926  0.1534
  193MOL0     H25458   0.874   1.934   7.026 -0.7347  0.4844  0.0133
  193MOL0     H25459   1.006   2.109   6.957 -1.3698 -0.6908  0.4425
  193MOL0     H25460   1.553   2.106   6.975  3.9897  0.9224  0.4471
  193MOL0     H25461   1.739   2.209   6.911 -0.3453  1.5816 -0.5508
  193MOL0     H25462   2.355   1.534   6.683 -3.9704  0.4228  1.2536
  193MOL0     H25463   2.137   1.476   6.728 -1.2740 -0.7112  1.3474
  193MOL0     H25464   1.720   1.007   6.575 -0.3892  0.8583 -1.2522
  193MOL0     H25465   1.498   0.981   6.698  0.0592 -1.4011  2.4411
  193MOL0     H25466   1.438   1.234   7.049 -0.6398  2.9531 -1.0868
  193MOL0     H25467   1.281   1.156   7.037  0.8333  0.7153  1.7951
  193MOL0     H25468   1.369   1.362   6.834  0.2565 -0.1405  0.9038
  193MOL0     H25469   1.204   1.300   6.877  0.2719 -1.6282  0.3899
  193MOL0     H25470   1.380   1.480   7.047 -2.4924  0.6208  1.7944
  193MOL0     H25471   1.248   1.385   7.113  0.3846  0.2200  1.2449
  193MOL0     H25472   1.216   1.584   6.880  4.6912  0.0169  1.3770
  193MOL0     H25473   1.088   1.495   6.976  0.7521 -1.1746 -0.4701
  193MOL0     H25474   1.223   1.862   7.177 -2.1439  0.6674  1.7659
  193MOL0     H25475   1.600   1.319   6.940  2.1339  1.7696 -2.3893
  193MOL0     H25476   1.823   1.330   6.840  0.9162  0.2763 -1.7490
  194MOL0     O25477   8.971   9.363   0.987 -0.1162 -0.4500 -0.1471
  194MOL0     C25478   8.939   9.243   1.017 -0.8689 -0.0369  0.1399
  194MOL0     O25479   9.026   9.142   1.040 -0.9344 -0.3112 -0.0199
  194MOL0     C25480   9.157   9.175   1.034  0.4129  1.3505  0.5595
  194MOL0     C25481   9.227   9.142   0.908  0.3847  0.5954  0.4088
  194MOL0     C25482   9.359   9.181   0.888  0.0479  0.8641 -0.1013
  194MOL0     C25483   9.424   9.241   0.995 -1.1070 -0.5357  0.2404
  194MOL0     O25484   9.552   9.296   0.996  0.4882 -0.5664 -1.1887
  194MOL0     C25485   9.626   9.286   0.876  0.3091 -0.7848  0.1903
  194MOL0     C25486   9.757   9.375   0.890  0.7991 -0.3517  0.9522
  194MOL0     C25487   9.874   9.293   0.929  0.0572 -0.5145  0.0418
  194MOL0     C25488  10.003   9.374   0.907 -0.0851  0.6170  0.0304
  194MOL0     C25489  10.023   9.411   0.761 -1.1112 -0.8160 -0.3137
  194MOL0     C25490  10.013   9.561   0.721  0.8996 -0.0517  0.7163
  194MOL0     C25491  10.043   9.584   0.569  0.2663 -0.0971  0.1110
  194MOL0     C25492  10.176   9.525   0.517  0.2956  0.0173  0.1368
  194MOL0     N25493  10.286   9.582   0.606 -0.1858  0.4627  0.4411
  194MOL0     C25494  10.310   9.719   0.636  0.0857  0.1067  0.3640
  194MOL0     C25495  10.428   9.708   0.717 -0.0617  0.0621  0.6448
  194MOL0     C25496  10.491   9.807   0.816  0.7502  0.1436  0.3222
  194MOL0     C25497  10.466   9.771   0.961 -0.4384  0.0349 -0.4237
  194MOL0     C25498  10.321   9.765   0.996  0.3605 -0.1297  0.0599
  194MOL0     C25499  10.290   9.771   1.143 -0.4764 -0.1568 -0.1590
  194MOL0     O25500  10.271   9.644   1.197 -0.0301  0.0729 -0.1883
  194MOL0     C25501  10.150   9.601   1.241 -0.0342  0.3318 -0.2533
  194MOL0     C25502  10.026   9.642   1.189 -0.9275 -0.3774 -0.1081
  194MOL0     C25503   9.901   9.603   1.242 -0.0722 -0.2713  0.5236
  194MOL0     C25504   9.896   9.518   1.350  0.5029 -0.4371 -0.1844
  194MOL0     C25505   9.775   9.499   1.427  1.3940  0.0411 -0.3399
  194MOL0     O25506   9.677   9.591   1.426 -0.4138 -0.1692 -0.4480
  194MOL0     C25507   9.565   9.589   1.501 -1.3674  0.2473  0.8547
  194MOL0     C25508   9.459   9.656   1.450  0.0333  0.5159 -0.3815
  194MOL0     C25509   9.342   9.671   1.530  0.0330 -0.5189 -0.2430
  194MOL0     C25510   9.328   9.609   1.654 -0.2060  0.2231 -1.1745
  194MOL0     O25511   9.206   9.618   1.724 -0.2846  0.7919 -1.2544
  194MOL0     C25512   9.134   9.746   1.708  0.8100 -0.3723 -0.5914
  194MOL0     C25513   9.024   9.751   1.820 -0.5294 -0.2483  0.0932
  194MOL0     C25514   8.949   9.883   1.818 -0.0256  1.1033 -0.5358
  194MOL0     C25515   8.832   9.869   1.917  0.1674 -0.4507 -0.1594
  194MOL0     C25516   8.743   9.980   1.883  0.3980 -0.7550 -0.0378
  194MOL0     C25517   8.626   9.985   1.985 -0.2538  0.0271 -0.5898
  194MOL0     C25518   8.530  10.112   1.961  1.2488 -0.0556  0.8168
  194MOL0     C25519   8.436  10.115   1.843  0.5946  0.5399  0.2442
  194MOL0    Cl25520   8.308   9.989   1.859  0.0659 -0.4401  0.0625
  194MOL0     C25521   9.440   9.552   1.715 -0.6497 -0.4217  0.9325
  194MOL0     C25522   9.556   9.541   1.630  0.1346  1.0368 -0.0608
  194MOL0     O25523   9.772   9.392   1.489 -0.4089  0.4362 -0.4745
  194MOL0     C25524  10.011   9.473   1.400 -0.2676 -0.0487 -0.7342
  194MOL0     C25525  10.139   9.509   1.348 -0.2465 -0.3666  0.2515
  194MOL0     N25526  10.463   9.576   0.722 -0.6214 -0.1071 -0.8133
  194MOL0     N25527  10.384   9.505   0.654 -0.2919  0.7633  0.5498
  194MOL0     C25528   9.354   9.262   1.119 -0.0003  0.2629  0.3189
  194MOL0     C25529   9.221   9.230   1.142  0.6731  0.8100  0.9526
  194MOL0     C25530   8.794   9.214   1.032  0.0732 -1.5927 -0.2371
  194MOL0     C25531   8.741   9.095   1.075  0.2763  0.5887 -0.1812
  194MOL0     C25532   8.609   9.081   1.117 -0.1540 -0.2603 -0.6349
  194MOL0     C25533   8.520   9.182   1.083 -0.4028 -0.5201  0.6904
  194MOL0     O25534   8.384   9.163   1.076  0.0862 -0.7069  0.6099
  194MOL0     C25535   8.313   9.061   1.150 -0.2717  0.9846  0.0144
  194MOL0     C25536   8.168   9.086   1.169  0.1141 -0.4278  0.1973
  194MOL0     C25537   8.103   8.984   1.267 -0.1827 -0.2361  0.5444
  194MOL0     C25538   7.955   9.012   1.270  0.3358  0.3372  0.1940
  194MOL0     C25539   7.925   9.078   1.400  0.4174  0.9062 -0.0913
  194MOL0     C25540   7.899   9.142   1.499 -0.0635 -0.2151  0.4193
  194MOL0     C25541   8.569   9.298   1.027 -0.4094 -0.5462 -0.8606
  194MOL0     C25542   8.706   9.319   1.010 -0.2515  0.1597 -0.5990
  194MOL0     H25543   9.165   9.089   0.837  2.0389  1.0075 -1.4006
  194MOL0     H25544   9.411   9.167   0.794 -0.4266  0.9555 -0.3834
  194MOL0     H25545   9.566   9.338   0.801 -0.8772  0.4740  1.9329
  194MOL0     H25546   9.650   9.180   0.862  2.0192 -0.2098 -1.7720
  194MOL0     H25547   9.745   9.454   0.966 -0.6220 -0.1199  0.5218
  194MOL0     H25548   9.777   9.415   0.790 -2.5270 -2.7281 -0.8410
  194MOL0     H25549   9.879   9.199   0.873 -1.2077 -0.7312  0.2659
  194MOL0     H25550   9.858   9.260   1.032 -1.7902 -2.2597 -0.7363
  194MOL0     H25551   9.994   9.468   0.961 -3.0594  0.5010 -0.1446
  194MOL0     H25552  10.081   9.303   0.938 -0.7759  0.0240  0.4397
  194MOL0     H25553   9.970   9.350   0.688  2.3538 -0.1727 -3.6916
  194MOL0     H25554  10.128   9.390   0.740 -0.0236 -1.9173  4.7439
  194MOL0     H25555  10.075   9.620   0.789 -1.3350  1.7443  1.3247
  194MOL0     H25556   9.909   9.595   0.730  0.3569 -0.3538 -2.9020
  194MOL0     H25557   9.962   9.539   0.511  0.8013 -0.8152 -0.0951
  194MOL0     H25558  10.047   9.689   0.542  2.5256 -0.4312 -1.1289
  194MOL0     H25559  10.186   9.553   0.412 -1.2308 -0.1704 -0.0791
  194MOL0     H25560  10.170   9.416   0.526  0.7844 -0.0106  0.1721
  194MOL0     H25561  10.238   9.800   0.635 -0.4800 -0.3346 -1.9421
  194MOL0     H25562  10.454   9.906   0.788 -1.0784 -0.9105 -1.2855
  194MOL0     H25563  10.596   9.820   0.791  0.2138  0.1727 -2.1836
  194MOL0     H25564  10.521   9.844   1.022  2.3406 -1.7889 -0.5711
  194MOL0     H25565  10.512   9.674   0.981 -1.4769 -0.8647 -2.1406
  194MOL0     H25566  10.273   9.851   0.947  1.8611  0.9615  0.4349
  194MOL0     H25567  10.281   9.674   0.949 -1.1674 -0.1458  1.3062
  194MOL0     H25568  10.201   9.834   1.152 -3.0730 -3.4801 -0.1459
  194MOL0     H25569  10.381   9.812   1.187  0.6134 -1.6279 -0.9530
  194MOL0     H25570  10.025   9.717   1.111 -1.5907 -0.1261  0.1338
  194MOL0     H25571   9.810   9.636   1.191 -0.4562 -1.6707  0.2735
  194MOL0     H25572   9.462   9.708   1.354 -1.9727 -0.4836 -1.0260
  194MOL0     H25573   9.260   9.726   1.485  1.3354  0.7912 -1.1281
  194MOL0     H25574   9.095   9.753   1.606  2.3473 -2.9622 -1.4296
  194MOL0     H25575   9.200   9.831   1.731 -0.6643  0.1742  2.0884
  194MOL0     H25576   9.082   9.746   1.913 -0.1795  0.6485 -0.0717
  194MOL0     H25577   8.959   9.664   1.820 -1.9766  0.7925 -0.3337
  194MOL0     H25578   8.903   9.882   1.719 -2.1702  1.2071  0.3987
  194MOL0     H25579   9.006   9.976   1.827  0.8089  0.5445  0.2246
  194MOL0     H25580   8.772   9.778   1.906  0.8237 -1.1184  1.5051
  194MOL0     H25581   8.870   9.883   2.018 -1.4362  2.1005  0.1908
  194MOL0     H25582   8.693   9.974   1.785 -0.5770  0.7606  0.3333
  194MOL0     H25583   8.803  10.071   1.885 -2.7362  1.4676  0.4296
  194MOL0     H25584   8.673   9.999   2.083  0.2433  1.7878 -1.0433
  194MOL0     H25585   8.560   9.899   1.997  0.9863 -0.6019  2.5984
  194MOL0     H25586   8.476  10.126   2.055  2.4860 -1.1402  1.7161
  194MOL0     H25587   8.602  10.193   1.960  2.8605 -1.3839  2.4956
  194MOL0     H25588   8.484  10.099   1.745  0.7803  1.4529  0.1764
  194MOL0     H25589   8.387  10.212   1.833 -0.8382 -0.2970 -1.4154
  194MOL0     H25590   9.454   9.517   1.816  1.0292  0.3201  0.9856
  194MOL0     H25591   9.638   9.497   1.684 -0.8287  1.6904  2.0457
  194MOL0     H25592  10.007   9.407   1.486  2.1451 -1.5662 -1.6925
  194MOL0     H25593  10.229   9.487   1.404 -1.3966  1.1582  2.8774
  194MOL0     H25594   9.404   9.312   1.201  0.4170 -1.4320  1.1303
  194MOL0     H25595   9.171   9.249   1.236 -0.6280  1.9011  0.0882
  194MOL0     H25596   8.802   9.006   1.093  0.9791  1.3747  1.5637
  194MOL0     H25597   8.587   8.982   1.157 -2.8163  0.5785  0.1649
  194MOL0     H25598   8.366   9.021   1.237 -1.5839 -0.3764  0.2049
  194MOL0     H25599   8.317   8.974   1.085 -1.0961 -0.9624  2.4190
  194MOL0     H25600   8.156   9.180   1.224 -1.3066 -0.7219  0.4250
  194MOL0     H25601   8.112   9.090   1.075 -1.5004  1.2219  1.1505
  194MOL0     H25602   8.147   8.999   1.366 -1.2369  1.3666  0.8168
  194MOL0     H25603   8.119   8.887   1.219 -2.5390 -0.7413  0.6757
  194MOL0     H25604   7.924   9.071   1.183  0.5982 -1.3323 -1.0915
  194MOL0     H25605   7.904   8.916   1.259 -0.1806  0.4860  1.1610
  194MOL0     H25606   7.890   9.195   1.592  3.9580  0.3736  0.6623
  194MOL0     H25607   8.518   9.389   0.998  0.7941  0.3383 -0.3093
  194MOL0     H25608   8.748   9.410   0.970  0.3308  0.9076  1.5666
  195MOL0     O25609   0.413   5.780  10.687 -0.2081 -0.8816 -0.1433
  195MOL0     C25610   0.394   5.664  10.650 -0.2662 -0.2117  0.0097
  195MOL0     O25611   0.273   5.623  10.603 -1.0640  0.2448  0.5643
  195MOL0     C25612   0.164   5.704  10.613 -0.8402 -0.3300 -0.9683
  195MOL0     C25613   0.092   5.737  10.501  0.1538  1.0529 -0.0919
  195MOL0     C25614  -0.006   5.835  10.505 -0.0976 -0.3621  0.1233
  195MOL0     C25615  -0.048   5.881  10.628 -0.4439 -0.2386  0.3710
  195MOL0     O25616  -0.160   5.958  10.616  0.6100  0.6779 -0.6126
  195MOL0     C25617  -0.148   6.082  10.689  0.2229  0.4821  0.0682
  195MOL0     C25618  -0.282   6.154  10.673 -0.1525  0.4299  0.2843
  195MOL0     C25619  -0.274   6.302  10.698  0.5324  0.7388  0.6222
  195MOL0     C25620  -0.397   6.386  10.645 -0.1179 -0.5061  1.0434
  195MOL0     C25621  -0.523   6.357  10.722  0.0677  0.0595  0.3498
  195MOL0     C25622  -0.643   6.420  10.653 -0.0851 -0.5105  0.0071
  195MOL0     C25623  -0.782   6.342  10.680  0.0777 -0.1516  0.0201
  195MOL0     C25624  -0.894   6.401  10.585  0.3687  0.3739 -0.1037
  195MOL0     N25625  -0.961   6.520  10.647  0.2681  0.8832 -0.0459
  195MOL0     C25626  -0.932   6.654  10.624  0.0776  0.0174  0.1361
  195MOL0     C25627  -1.033   6.717  10.698  0.7512 -0.8751 -0.0164
  195MOL0     C25628  -1.056   6.866  10.720 -0.4950  0.3302  0.5952
  195MOL0     C25629  -1.184   6.918  10.645 -0.2423 -0.4278  0.0872
  195MOL0     C25630  -1.311   6.860  10.711  0.5731  0.0023  0.2024
  195MOL0     C25631  -1.376   6.772  10.599  0.2415  0.2505  0.0234
  195MOL0     O25632  -1.435   6.871  10.506 -0.0937  0.3439 -1.0212
  195MOL0     C25633  -1.573   6.904  10.511  0.6762  1.1230  0.1916
  195MOL0     C25634  -1.663   6.856  10.604  0.0748  0.0841  0.0653
  195MOL0     C25635  -1.786   6.921  10.617  0.1329  1.0054 -0.6253
  195MOL0     C25636  -1.836   6.994  10.519  0.0055  0.5240  0.5477
  195MOL0     C25637  -1.973   7.034  10.522  0.3961 -0.0293 -0.0743
  195MOL0     O25638  -2.044   6.985  10.625 -0.8130 -0.7711 -0.1459
  195MOL0     C25639  -2.164   7.040  10.651  0.4864  0.6989 -0.6730
  195MOL0     C25640  -2.180   7.143  10.738  0.0231  0.0997  0.1330
  195MOL0     C25641  -2.303   7.182  10.786 -0.9324  1.1410  0.1440
  195MOL0     C25642  -2.416   7.118  10.735 -0.2203  0.6670 -0.0558
  195MOL0     O25643  -2.532   7.174  10.778 -0.3753  0.0511 -0.4752
  195MOL0     C25644  -2.656   7.116  10.787 -0.1327  1.1360  0.4999
  195MOL0     C25645  -2.699   7.123  10.939  0.0712 -0.9729 -0.0737
  195MOL0     C25646  -2.845   7.084  10.943  0.7079  0.2878 -0.0994
  195MOL0     C25647  -2.896   7.046  11.078 -0.8516  0.5322  0.1913
  195MOL0     C25648  -3.052   7.030  11.085 -0.2045  0.6322  0.5439
  195MOL0     C25649  -3.123   7.153  11.020 -0.2465  0.5632  0.1132
  195MOL0     C25650  -3.266   7.144  11.051  0.5576  0.2197 -1.0346
  195MOL0     C25651  -3.326   7.279  11.000 -0.1211  1.0666 -0.5500
  195MOL0    Cl25652  -3.494   7.271  11.052  0.1814 -0.4904 -0.0409
  195MOL0     C25653  -2.405   7.012  10.645  0.3487 -0.0030  0.7514
  195MOL0     C25654  -2.279   6.973  10.603  0.1580  0.0907 -1.1427
  195MOL0     O25655  -2.019   7.097  10.427 -0.3721 -0.3279  0.3034
  195MOL0     C25656  -1.751   7.027  10.410  0.4349 -0.0551 -0.2598
  195MOL0     C25657  -1.616   6.994  10.420  0.3692 -0.7475  0.0217
  195MOL0     N25658  -1.106   6.627  10.770  0.2947 -0.1341 -1.1395
  195MOL0     N25659  -1.071   6.508  10.732 -0.9980 -0.5476  0.2013
  195MOL0     C25660   0.014   5.843  10.750  0.1279 -0.0080  0.5079
  195MOL0     C25661   0.118   5.757  10.744 -0.1206  0.0937  0.5545
  195MOL0     C25662   0.511   5.574  10.647  0.0833 -0.2550  0.2424
  195MOL0     C25663   0.503   5.445  10.592  0.4177  0.2550  0.0504
  195MOL0     C25664   0.610   5.356  10.604 -0.6579  0.5591 -0.0623
  195MOL0     C25665   0.740   5.401  10.644 -0.0940  0.0837  0.2971
  195MOL0     O25666   0.856   5.331  10.659 -0.3967 -0.3455 -0.1888
  195MOL0     C25667   0.854   5.194  10.610  0.3741 -0.2938 -1.0232
  195MOL0     C25668   0.982   5.135  10.655  0.6722  0.5804 -0.4153
  195MOL0     C25669   1.110   5.167  10.578 -1.2121  0.4855 -0.5830
  195MOL0     C25670   1.172   5.303  10.614 -0.2333  0.8515  0.5665
  195MOL0     C25671   1.238   5.310  10.745 -1.1086 -0.2919  0.4217
  195MOL0     C25672   1.282   5.321  10.853 -0.1766  0.7436 -0.7366
  195MOL0     C25673   0.752   5.533  10.692  0.3309 -0.1280  0.1406
  195MOL0     C25674   0.638   5.615  10.697  0.4316 -0.2838  0.5822
  195MOL0     H25675   0.123   5.682  10.413 -0.4422  0.6782 -0.0725
  195MOL0     H25676  -0.054   5.867  10.413  0.0874  2.4569  0.9224
  195MOL0     H25677  -0.068   6.132  10.633  1.3979 -1.6959 -0.3305
  195MOL0     H25678  -0.120   6.074  10.795  0.2651  2.9390  0.2811
  195MOL0     H25679  -0.355   6.107  10.740 -1.5987  0.9568 -0.8717
  195MOL0     H25680  -0.314   6.141  10.569 -3.5074  2.9606  0.8164
  195MOL0     H25681  -0.182   6.348  10.660  0.6806  0.6920  0.9217
  195MOL0     H25682  -0.268   6.315  10.807  4.2999 -0.6073  0.7090
  195MOL0     H25683  -0.377   6.492  10.663  4.0161 -1.1426  1.1411
  195MOL0     H25684  -0.394   6.370  10.537  2.4785  2.7310  0.4750
  195MOL0     H25685  -0.513   6.391  10.826 -1.0506  0.7898  0.2420
  195MOL0     H25686  -0.543   6.250  10.727 -1.5643  0.3947  2.8902
  195MOL0     H25687  -0.631   6.430  10.544  0.7057  0.6576  0.1862
  195MOL0     H25688  -0.652   6.525  10.683 -3.9722 -0.3497 -1.0942
  195MOL0     H25689  -0.757   6.237  10.661 -0.2142 -0.3150  0.5080
  195MOL0     H25690  -0.804   6.350  10.787  0.2594 -0.6084  0.0917
  195MOL0     H25691  -0.974   6.328  10.570  0.1118  0.6543 -0.1161
  195MOL0     H25692  -0.863   6.425  10.483 -1.0726  0.5780 -0.5285
  195MOL0     H25693  -0.854   6.697  10.562  0.6949 -2.0894 -0.6241
  195MOL0     H25694  -0.966   6.915  10.682  0.3755 -2.1267 -0.7465
  195MOL0     H25695  -1.063   6.893  10.826  1.4451 -2.2233  1.4781
  195MOL0     H25696  -1.183   6.891  10.539 -1.6782  0.5706 -0.2188
  195MOL0     H25697  -1.182   7.027  10.641  2.0242 -0.4907 -2.5450
  195MOL0     H25698  -1.299   6.789  10.793  0.5277 -1.0664 -0.6874
  195MOL0     H25699  -1.386   6.932  10.745 -0.1184 -1.6275  2.3843
  195MOL0     H25700  -1.463   6.720  10.640 -2.3059  3.1168 -1.3383
  195MOL0     H25701  -1.306   6.694  10.569 -1.1810 -0.1917 -2.3375
  195MOL0     H25702  -1.646   6.776  10.676 -0.0628 -1.0445 -1.1151
  195MOL0     H25703  -1.844   6.899  10.706  0.1385 -0.2600 -0.9256
  195MOL0     H25704  -2.091   7.193  10.777  0.5628 -0.1102 -0.7884
  195MOL0     H25705  -2.304   7.263  10.858 -0.1464  1.6371 -0.3872
  195MOL0     H25706  -2.656   7.012  10.752 -1.3122  0.7420  1.5791
  195MOL0     H25707  -2.725   7.166  10.719  0.6472 -1.1454 -2.1627
  195MOL0     H25708  -2.682   7.223  10.981 -0.6567 -1.8269  2.4819
  195MOL0     H25709  -2.639   7.062  11.006 -2.7660 -2.7153  1.0749
  195MOL0     H25710  -2.864   7.000  10.875 -0.8461  0.6945 -0.2035
  195MOL0     H25711  -2.889   7.174  10.899  0.6624 -0.2740 -1.2323
  195MOL0     H25712  -2.843   6.956  11.110  1.2034  0.2869 -3.3433
  195MOL0     H25713  -2.876   7.122  11.154 -1.7780 -1.4589  2.5423
  195MOL0     H25714  -3.085   7.012  11.187  1.3803 -4.0402  0.5125
  195MOL0     H25715  -3.076   6.939  11.027  0.8789  1.3775 -1.1688
  195MOL0     H25716  -3.122   7.146  10.911 -2.6409 -1.2187  0.1251
  195MOL0     H25717  -3.081   7.247  11.056 -2.9409  1.4044  1.3226
  195MOL0     H25718  -3.302   7.050  11.009 -2.5453  1.1153 -0.5957
  195MOL0     H25719  -3.282   7.146  11.160 -2.3025 -2.0687 -1.3046
  195MOL0     H25720  -3.335   7.291  10.892 -0.8907 -0.7505 -0.7109
  195MOL0     H25721  -3.282   7.372  11.039  1.3989 -0.5238  1.8160
  195MOL0     H25722  -2.492   6.965  10.601  0.4331  2.4938 -2.4539
  195MOL0     H25723  -2.261   6.901  10.523  2.2353 -1.1660  0.3615
  195MOL0     H25724  -1.792   7.087  10.330  0.2668 -0.1065 -0.2121
  195MOL0     H25725  -1.566   7.025  10.329 -2.1481  2.0502 -0.5499
  195MOL0     H25726  -0.032   5.873  10.843 -0.7677  2.4017 -0.6344
  195MOL0     H25727   0.168   5.710  10.828  0.1639 -0.8776 -0.1344
  195MOL0     H25728   0.422   5.382  10.555  0.5700 -0.5680  1.0801
  195MOL0     H25729   0.594   5.253  10.572  1.2410  0.9433 -2.5622
  195MOL0     H25730   0.846   5.193  10.501  3.0807  1.3978 -1.3159
  195MOL0     H25731   0.775   5.135  10.657  1.2720 -1.0607 -0.4316
  195MOL0     H25732   0.995   5.158  10.761 -0.8356 -0.3788  0.0087
  195MOL0     H25733   0.972   5.026  10.652  0.5769  0.5382  0.8168
  195MOL0     H25734   1.081   5.172  10.473  0.6758  2.4175 -1.0805
  195MOL0     H25735   1.193   5.095  10.581 -0.1447  1.5624 -2.5727
  195MOL0     H25736   1.248   5.327  10.539  1.3872  2.2795  2.5768
  195MOL0     H25737   1.094   5.380  10.611  0.1461  1.2375 -2.2748
  195MOL0     H25738   1.334   5.347  10.943 -0.1909 -0.3295 -0.3956
  195MOL0     H25739   0.847   5.580  10.718  1.2989 -0.7612 -1.9789
  195MOL0     H25740   0.647   5.718  10.732  0.0020 -1.0342  3.1191
  196MOL0     O25741   3.068   1.952   8.078 -0.1133  0.4033 -0.2506
  196MOL0     C25742   2.972   1.941   8.006  1.2956 -0.0491  0.1678
  196MOL0     O25743   2.957   1.972   7.873  0.3588  0.5555  0.6781
  196MOL0     C25744   3.065   1.971   7.796  0.0564 -0.0253  0.2083
  196MOL0     C25745   3.044   2.025   7.666 -0.4654  0.0480 -0.9788
  196MOL0     C25746   3.150   2.030   7.575 -0.2149 -0.7279  0.7273
  196MOL0     C25747   3.273   1.971   7.605 -0.2897 -0.4499 -0.0159
  196MOL0     O25748   3.385   1.960   7.525  0.0310  0.3161 -0.1214
  196MOL0     C25749   3.409   2.059   7.423  0.1567  0.8742  0.6430
  196MOL0     C25750   3.379   1.997   7.287 -0.2873  0.0343 -0.4548
  196MOL0     C25751   3.419   1.856   7.259 -1.2072 -0.0622 -0.7940
  196MOL0     C25752   3.568   1.826   7.268  0.3396 -0.5001  0.0410
  196MOL0     C25753   3.641   1.867   7.137 -0.1871 -0.8150 -0.7178
  196MOL0     C25754   3.787   1.841   7.144 -0.1901 -0.1361 -0.9118
  196MOL0     C25755   3.854   1.873   7.016  0.0608  0.4937 -0.5096
  196MOL0     C25756   4.002   1.824   7.019  0.3934  0.0686 -0.2342
  196MOL0     N25757   4.071   1.858   6.893 -0.0775  0.1296 -0.4826
  196MOL0     C25758   4.102   1.989   6.868 -0.1481  0.3748 -0.0057
  196MOL0     C25759   4.207   1.983   6.781  0.2830  0.6423  0.1062
  196MOL0     C25760   4.291   2.093   6.731  0.6950  0.6406 -0.1014
  196MOL0     C25761   4.396   2.135   6.831  0.4759  0.2892 -0.6778
  196MOL0     C25762   4.517   2.057   6.811  0.1264  0.1067 -0.4955
  196MOL0     C25763   4.608   2.083   6.927  0.4229  0.0589  0.4335
  196MOL0     O25764   4.744   2.049   6.903  0.2572 -0.6039 -0.9891
  196MOL0     C25765   4.840   2.150   6.926  0.5569  0.0475  0.6062
  196MOL0     C25766   4.963   2.135   6.867 -0.9040 -0.5484 -0.3567
  196MOL0     C25767   5.064   2.219   6.897 -0.2418 -0.3202  0.2476
  196MOL0     C25768   5.058   2.327   6.989  0.5584  0.9230  0.9074
  196MOL0     C25769   5.170   2.417   7.017 -0.2294 -0.1029 -0.5860
  196MOL0     O25770   5.252   2.446   6.911  0.3016  0.2938  0.5279
  196MOL0     C25771   5.380   2.489   6.933  0.5268  0.3034  0.1352
  196MOL0     C25772   5.482   2.403   6.897  0.1499 -0.0323 -0.3199
  196MOL0     C25773   5.619   2.445   6.894 -0.7219  0.0324 -0.0485
  196MOL0     C25774   5.654   2.569   6.931  0.1996 -0.8834 -0.8945
  196MOL0     O25775   5.788   2.604   6.931  0.4523 -0.0426  0.4718
  196MOL0     C25776   5.862   2.605   7.045 -0.1553 -0.1707  0.2002
  196MOL0     C25777   5.997   2.657   6.997  0.0491  0.3122 -0.2018
  196MOL0     C25778   6.084   2.691   7.120 -0.4847  0.7861 -0.7162
  196MOL0     C25779   6.223   2.745   7.078  0.8445 -0.3169 -0.2182
  196MOL0     C25780   6.276   2.818   7.201 -1.4163 -0.8984 -0.2130
  196MOL0     C25781   6.426   2.868   7.179 -0.7969 -0.0144 -0.8303
  196MOL0     C25782   6.480   2.942   7.309 -0.4361  0.3775 -0.2230
  196MOL0     C25783   6.627   2.968   7.296 -0.4789 -0.1633 -0.2399
  196MOL0    Cl25784   6.713   3.011   7.450  0.0646 -0.0682 -0.4127
  196MOL0     C25785   5.551   2.656   6.971 -0.7457  0.6106  0.3055
  196MOL0     C25786   5.417   2.610   6.975  0.0037  0.2539 -0.5809
  196MOL0     O25787   5.195   2.455   7.129 -0.3812 -0.2403 -0.1783
  196MOL0     C25788   4.935   2.346   7.048 -0.0237 -0.8463 -0.2700
  196MOL0     C25789   4.828   2.257   7.022  0.0676 -0.0981  0.9830
  196MOL0     N25790   4.228   1.854   6.750  1.0062 -0.8041 -0.0965
  196MOL0     N25791   4.153   1.783   6.811  0.5230 -0.0250  0.0099
  196MOL0     C25792   3.295   1.915   7.729  0.0520 -0.0331  0.4544
  196MOL0     C25793   3.191   1.921   7.821  0.6144  0.0953 -1.3431
  196MOL0     C25794   2.837   1.906   8.068 -0.3818 -0.1221 -0.4111
  196MOL0     C25795   2.786   1.985   8.172  0.0653  0.6551  0.5354
  196MOL0     C25796   2.658   1.960   8.217  0.8217  0.4720  0.3309
  196MOL0     C25797   2.582   1.851   8.172  0.1131 -0.6014  0.2328
  196MOL0     O25798   2.468   1.828   8.242  0.4772 -0.0578 -0.4726
  196MOL0     C25799   2.389   1.707   8.203 -0.0771  0.2419 -0.3582
  196MOL0     C25800   2.271   1.746   8.104 -0.3672 -0.4104  0.1076
  196MOL0     C25801   2.162   1.830   8.173 -0.0591  0.0931 -0.7293
  196MOL0     C25802   2.067   1.898   8.080 -0.1184  0.2654 -0.7464
  196MOL0     C25803   1.988   1.790   8.007  0.2927  0.2143 -0.8010
  196MOL0     C25804   1.929   1.692   7.962  1.3108  1.2489  0.3481
  196MOL0     C25805   2.631   1.772   8.061  0.2745 -0.5348 -0.5370
  196MOL0     C25806   2.753   1.805   8.013 -0.5247  0.1700 -0.9875
  196MOL0     H25807   2.948   2.059   7.629  0.5975  0.3948 -3.5897
  196MOL0     H25808   3.122   2.091   7.489 -0.0331 -1.0627  0.4241
  196MOL0     H25809   3.513   2.093   7.423  0.2582  0.6321 -0.8266
  196MOL0     H25810   3.342   2.144   7.437  0.5932  0.9691  2.3193
  196MOL0     H25811   3.427   2.066   7.215 -1.2180  2.8851  1.4737
  196MOL0     H25812   3.272   2.001   7.268 -0.4629  0.3705  0.5636
  196MOL0     H25813   3.388   1.834   7.156 -2.4141  1.3950 -0.7837
  196MOL0     H25814   3.380   1.787   7.335 -1.5867 -0.5013 -1.3744
  196MOL0     H25815   3.613   1.871   7.358  0.6160  1.1731 -0.8848
  196MOL0     H25816   3.587   1.720   7.285  2.4505 -0.2436 -0.4005
  196MOL0     H25817   3.636   1.976   7.129  1.8326 -0.6418 -0.1840
  196MOL0     H25818   3.594   1.829   7.045  0.5649  0.5190 -1.6963
  196MOL0     H25819   3.815   1.736   7.160  3.6756  0.5008 -2.4381
  196MOL0     H25820   3.834   1.910   7.215  1.9058 -1.7465 -0.6564
  196MOL0     H25821   3.800   1.821   6.936  1.1046  3.4343 -3.3839
  196MOL0     H25822   3.846   1.982   7.002 -1.9568  0.5128  0.4825
  196MOL0     H25823   4.004   1.716   7.036 -0.0738  0.1078  0.0894
  196MOL0     H25824   4.053   1.867   7.106  0.5990 -4.3153  2.0555
  196MOL0     H25825   4.070   2.080   6.916 -2.4214  1.1133 -2.6245
  196MOL0     H25826   4.229   2.176   6.696 -0.2326 -1.2260 -3.3534
  196MOL0     H25827   4.341   2.062   6.639 -0.1493 -0.9903 -0.0589
  196MOL0     H25828   4.356   2.146   6.933  2.1277  1.4103 -0.1073
  196MOL0     H25829   4.406   2.238   6.795 -2.8016  0.4410 -1.5386
  196MOL0     H25830   4.493   1.951   6.814 -1.7410  0.5162  1.0855
  196MOL0     H25831   4.553   2.092   6.714 -0.6672  3.2455  0.2128
  196MOL0     H25832   4.570   2.030   7.015 -1.6195  1.1932  0.3049
  196MOL0     H25833   4.591   2.189   6.944  2.2341  0.8320 -2.0417
  196MOL0     H25834   4.994   2.056   6.799  2.0234  0.1348  0.0321
  196MOL0     H25835   5.157   2.191   6.849 -0.4905 -1.9439  0.6392
  196MOL0     H25836   5.462   2.300   6.868  0.7805  0.5319 -3.1200
  196MOL0     H25837   5.691   2.372   6.858  1.7499  1.6757  1.2647
  196MOL0     H25838   5.880   2.506   7.086 -1.0884  0.3875  2.0445
  196MOL0     H25839   5.815   2.668   7.121 -0.4854 -1.1276  0.7976
  196MOL0     H25840   5.980   2.754   6.948 -1.6079  0.6615  0.9805
  196MOL0     H25841   6.052   2.588   6.932  0.6398 -0.2317  0.8398
  196MOL0     H25842   6.097   2.599   7.179  0.0522 -0.4860 -2.7155
  196MOL0     H25843   6.034   2.771   7.176 -4.1191  0.0024 -2.5525
  196MOL0     H25844   6.299   2.675   7.042  1.4680  0.4464 -0.4205
  196MOL0     H25845   6.213   2.818   6.997  0.3727 -1.8003 -1.5357
  196MOL0     H25846   6.279   2.750   7.287 -1.3873 -1.8180 -0.9182
  196MOL0     H25847   6.217   2.908   7.219  2.6571  1.6637  1.6407
  196MOL0     H25848   6.433   2.943   7.100 -1.6648  1.8690  0.7962
  196MOL0     H25849   6.483   2.779   7.151 -0.4153  0.6746 -2.3278
  196MOL0     H25850   6.437   3.042   7.314  2.5719  1.7331  1.0168
  196MOL0     H25851   6.454   2.885   7.399 -2.0930  0.1723 -0.7936
  196MOL0     H25852   6.631   3.052   7.225  1.1472 -0.0829 -0.0892
  196MOL0     H25853   6.679   2.887   7.245 -1.7500 -1.0264 -0.1941
  196MOL0     H25854   5.576   2.756   7.007  1.1691 -0.6500  2.7814
  196MOL0     H25855   5.349   2.688   7.006  3.0768  1.6655  3.5347
  196MOL0     H25856   4.924   2.419   7.129 -0.3952  0.3905 -1.4039
  196MOL0     H25857   4.736   2.276   7.077  0.1030  2.2768  0.3247
  196MOL0     H25858   3.392   1.870   7.748  0.2422  0.3013  0.2894
  196MOL0     H25859   3.202   1.868   7.915 -1.9580  0.3864 -0.8016
  196MOL0     H25860   2.842   2.067   8.216 -0.8141  1.0804  0.8936
  196MOL0     H25861   2.614   2.010   8.303 -1.8411 -3.2870  1.4020
  196MOL0     H25862   2.347   1.671   8.298 -0.2836  2.2144  0.3454
  196MOL0     H25863   2.454   1.626   8.169 -0.7345 -0.7357  0.6257
  196MOL0     H25864   2.314   1.803   8.021  1.1387 -1.9571 -0.2408
  196MOL0     H25865   2.219   1.657   8.069  0.5048 -0.0007 -2.4389
  196MOL0     H25866   2.212   1.909   8.230 -0.4246  2.0583 -2.9500
  196MOL0     H25867   2.104   1.761   8.235 -1.2929  1.2796 -0.5051
  196MOL0     H25868   1.997   1.964   8.132 -0.8370  1.7855 -3.4634
  196MOL0     H25869   2.110   1.964   8.004  2.0454 -0.2774 -0.0674
  196MOL0     H25870   1.855   1.622   7.929  2.5705 -0.2059  0.5094
  196MOL0     H25871   2.566   1.698   8.015 -1.0694 -0.2736  0.8455
  196MOL0     H25872   2.794   1.757   7.924  0.6050  2.0233 -1.5141
  197MOL0     O25873  10.675  10.463   3.389  0.3997  0.1139  0.7669
  197MOL0     C25874  10.692  10.491   3.499  0.2029  0.0114 -0.1760
  197MOL0     O25875  10.598  10.538   3.579 -0.3275  1.0576  0.7261
  197MOL0     C25876  10.476  10.467   3.580 -0.1792  0.1389  0.5690
  197MOL0     C25877  10.363  10.540   3.520  0.2561  0.7214  0.2973
  197MOL0     C25878  10.243  10.470   3.507 -0.4066  0.7348  0.2274
  197MOL0     C25879  10.243  10.335   3.538  0.8243  0.3214 -0.3389
  197MOL0     O25880  10.131  10.255   3.521  0.0745 -0.3020  0.0405
  197MOL0     C25881  10.006  10.310   3.486 -0.5024  0.0707  0.0801
  197MOL0     C25882   9.912  10.185   3.447  0.3490 -1.5235  0.2014
  197MOL0     C25883   9.763  10.224   3.456  0.4847 -0.4806 -0.0850
  197MOL0     C25884   9.669  10.110   3.426 -0.1210  0.5877 -0.2304
  197MOL0     C25885   9.523  10.148   3.436 -0.1155  0.0355  0.7698
  197MOL0     C25886   9.444  10.022   3.407 -0.1835  0.1998 -0.4462
  197MOL0     C25887   9.291  10.051   3.408 -0.3039 -0.5667  0.1517
  197MOL0     C25888   9.213   9.914   3.401 -0.2639  0.6765 -0.5306
  197MOL0     N25889   9.076   9.951   3.414 -0.0774  0.0065 -0.6333
  197MOL0     C25890   8.985   9.870   3.481 -0.6683 -0.4189  0.6158
  197MOL0     C25891   8.868   9.921   3.442 -0.4201  0.5922 -0.3111
  197MOL0     C25892   8.726   9.869   3.493 -0.5282  0.0369 -0.2295
  197MOL0     C25893   8.734   9.811   3.633  0.4972 -0.7946 -0.4877
  197MOL0     C25894   8.759   9.922   3.735 -0.7406 -0.4526 -0.0949
  197MOL0     C25895   8.805   9.863   3.867 -0.8334 -0.4589 -0.5435
  197MOL0     O25896   8.926   9.796   3.867  0.4297  0.0522  0.1124
  197MOL0     C25897   9.044   9.865   3.864  0.1958  0.2614  0.3296
  197MOL0     C25898   9.155   9.790   3.841  0.6462 -0.3782 -0.0569
  197MOL0     C25899   9.281   9.838   3.838 -0.2483 -0.9273 -0.6945
  197MOL0     C25900   9.305   9.973   3.857  0.6487 -0.2710 -0.4194
  197MOL0     C25901   9.447  10.018   3.864 -0.7823 -0.1436  1.0359
  197MOL0     O25902   9.477  10.145   3.822  0.7790  0.2744 -0.6058
  197MOL0     C25903   9.605  10.194   3.854  0.0389  0.0410  0.2943
  197MOL0     C25904   9.630  10.297   3.944 -0.6386  0.1591  0.5744
  197MOL0     C25905   9.761  10.341   3.952 -0.4616  0.1845 -1.0197
  197MOL0     C25906   9.867  10.270   3.890 -0.0042 -0.2240 -1.0751
  197MOL0     O25907  10.003  10.297   3.903  0.5477  0.0677  0.1188
  197MOL0     C25908  10.051  10.391   4.002 -0.0420 -0.7757 -0.3365
  197MOL0     C25909  10.200  10.428   3.989 -0.2387  0.8212  0.3115
  197MOL0     C25910  10.287  10.302   3.982  0.5965 -0.2030 -0.1738
  197MOL0     C25911  10.435  10.356   3.988  0.1402 -0.1387 -0.1572
  197MOL0     C25912  10.549  10.250   4.000 -0.2246  0.7955  1.6969
  197MOL0     C25913  10.680  10.315   3.975  0.2068 -0.7328  0.2312
  197MOL0     C25914  10.798  10.225   4.002  0.0628  0.3589 -0.1752
  197MOL0     C25915  10.920  10.289   3.946  0.3151  0.7949 -0.1555
  197MOL0    Cl25916  11.051  10.177   3.990  0.0923 -0.5467 -0.2903
  197MOL0     C25917   9.834  10.168   3.804 -1.3784  0.0788 -0.8250
  197MOL0     C25918   9.709  10.127   3.783 -0.7183 -0.7724  0.5414
  197MOL0     O25919   9.524   9.935   3.913 -0.4728 -0.5929 -0.2239
  197MOL0     C25920   9.195  10.059   3.869 -0.2337 -0.1998 -0.2454
  197MOL0     C25921   9.066  10.003   3.877  0.3813  0.4598 -0.9835
  197MOL0     N25922   8.890  10.022   3.352  0.1918 -0.3122  0.1119
  197MOL0     N25923   9.017  10.041   3.333  0.6080  0.1307  0.1352
  197MOL0     C25924  10.354  10.264   3.594 -0.3282 -0.6649 -0.5284
  197MOL0     C25925  10.475  10.333   3.614  1.1710 -0.1134  0.5295
  197MOL0     C25926  10.831  10.501   3.553 -0.6757  0.6201 -0.1202
  197MOL0     C25927  10.920  10.398   3.522 -1.1223 -0.1015  0.4949
  197MOL0     C25928  11.050  10.414   3.566  0.1911 -0.3983 -0.0614
  197MOL0     C25929  11.088  10.524   3.642  0.2641 -0.2849  0.2167
  197MOL0     O25930  11.214  10.552   3.687 -0.4247 -0.4818 -0.0258
  197MOL0     C25931  11.318  10.454   3.663  0.3865 -0.7831  0.7001
  197MOL0     C25932  11.418  10.466   3.779  0.3898  0.7074 -0.4741
  197MOL0     C25933  11.359  10.461   3.922  0.0270  1.2397  1.0154
  197MOL0     C25934  11.462  10.486   4.046 -0.5584 -0.1571 -0.0125
  197MOL0     C25935  11.576  10.390   4.039  0.9849  0.2323 -0.4006
  197MOL0     C25936  11.674  10.318   4.055  0.0405  0.1730  0.0575
  197MOL0     C25937  10.995  10.620   3.683  0.4822 -0.5503 -0.5454
  197MOL0     C25938  10.865  10.609   3.633 -0.3679  0.0000 -1.0098
  197MOL0     H25939  10.363  10.641   3.481 -2.2611  0.9777  0.7758
  197MOL0     H25940  10.152  10.517   3.473 -1.1985 -0.7868  0.2003
  197MOL0     H25941  10.015  10.366   3.393 -1.7563  0.7206  0.3250
  197MOL0     H25942   9.965  10.372   3.566  0.9556  0.9914  0.1490
  197MOL0     H25943   9.926  10.096   3.509  1.1118 -0.8316  1.0508
  197MOL0     H25944   9.944  10.154   3.347  3.5832  1.0800  0.2776
  197MOL0     H25945   9.747  10.300   3.380  0.6247  0.4481  0.7949
  197MOL0     H25946   9.736  10.264   3.554 -0.3653 -0.4471 -0.3219
  197MOL0     H25947   9.690  10.072   3.326 -0.6485 -0.6980  0.1307
  197MOL0     H25948   9.696  10.028   3.493  0.4227  1.1596  0.2755
  197MOL0     H25949   9.504  10.223   3.358 -2.1516 -1.6360 -0.4584
  197MOL0     H25950   9.493  10.191   3.532 -4.7698  2.0904 -1.2958
  197MOL0     H25951   9.467   9.957   3.492  0.7026  1.7043  0.5172
  197MOL0     H25952   9.475   9.970   3.316  1.7839  1.0077 -0.2976
  197MOL0     H25953   9.261  10.108   3.496 -1.9327 -1.9913  0.5801
  197MOL0     H25954   9.262  10.113   3.323 -0.9597  1.4907  1.7906
  197MOL0     H25955   9.244   9.854   3.487 -1.1794 -1.0604 -1.3680
  197MOL0     H25956   9.229   9.873   3.301 -0.5353 -1.4424  0.2353
  197MOL0     H25957   9.008   9.788   3.548  1.9109 -1.4569 -1.3505
  197MOL0     H25958   8.703   9.786   3.426 -2.3078  0.8212 -0.6477
  197MOL0     H25959   8.649   9.945   3.475  0.1157  0.4015 -1.5971
  197MOL0     H25960   8.812   9.735   3.642  3.0931  1.7189 -0.3014
  197MOL0     H25961   8.642   9.761   3.664  1.6981 -1.3797  2.5039
  197MOL0     H25962   8.833   9.994   3.699 -0.4561 -0.3190  0.7342
  197MOL0     H25963   8.667   9.979   3.747  1.6147  3.5552  1.0941
  197MOL0     H25964   8.728   9.798   3.909 -0.1700  0.5763  2.5181
  197MOL0     H25965   8.808   9.935   3.949  0.8766 -1.1310  0.0193
  197MOL0     H25966   9.139   9.682   3.838  1.1327 -0.4416 -1.9470
  197MOL0     H25967   9.356   9.761   3.823  1.0550 -0.1323  1.2738
  197MOL0     H25968   9.555  10.358   3.993 -1.1730 -0.8800  1.0625
  197MOL0     H25969   9.771  10.425   4.019 -2.4308 -0.3202 -0.0271
  197MOL0     H25970  10.034  10.345   4.100  0.7640 -0.7381 -0.1789
  197MOL0     H25971   9.993  10.484   3.991  0.2833  0.1451  4.0279
  197MOL0     H25972  10.230  10.492   4.073 -4.9632  4.1170 -0.0885
  197MOL0     H25973  10.218  10.478   3.894  1.1407  0.2353  0.2382
  197MOL0     H25974  10.261  10.239   3.897 -2.0748 -0.1746  0.5346
  197MOL0     H25975  10.265  10.243   4.072 -1.1610  0.4470 -0.1308
  197MOL0     H25976  10.457  10.415   3.898  3.3556 -3.5963 -1.9532
  197MOL0     H25977  10.425  10.421   4.075 -3.1355 -1.1383  0.3360
  197MOL0     H25978  10.538  10.169   3.927  0.8909  1.2759  0.9669
  197MOL0     H25979  10.541  10.199   4.097  0.3939 -1.5347  0.5994
  197MOL0     H25980  10.692  10.408   4.032 -2.4878 -0.4154  0.4029
  197MOL0     H25981  10.690  10.341   3.870 -0.4676  3.5078  1.0133
  197MOL0     H25982  10.816  10.193   4.105  0.7672 -3.2937 -1.2937
  197MOL0     H25983  10.782  10.143   3.932  1.5055  1.7241 -2.1954
  197MOL0     H25984  10.939  10.386   3.992 -1.2329  0.4055  1.3832
  197MOL0     H25985  10.913  10.290   3.837 -1.0049 -1.9299 -0.1877
  197MOL0     H25986   9.906  10.109   3.748 -0.2010 -0.5633  1.2612
  197MOL0     H25987   9.694  10.038   3.723 -0.1866 -0.9989  0.7401
  197MOL0     H25988   9.200  10.166   3.884 -2.6787 -0.0611  0.0180
  197MOL0     H25989   8.984  10.070   3.901  0.4342  1.2222 -2.7294
  197MOL0     H25990  10.341  10.159   3.615  2.3577 -1.5138 -2.6278
  197MOL0     H25991  10.555  10.267   3.647 -3.6072 -6.1152  1.8445
  197MOL0     H25992  10.888  10.330   3.444  0.8322 -1.6619  0.9764
  197MOL0     H25993  11.115  10.336   3.526 -2.1806 -0.6937 -3.7994
  197MOL0     H25994  11.355  10.477   3.563 -1.3071  2.5735  0.7016
  197MOL0     H25995  11.263  10.360   3.667 -4.8357  1.9059 -0.1444
  197MOL0     H25996  11.494  10.390   3.760 -0.4780 -0.4972  0.6744
  197MOL0     H25997  11.472  10.560   3.767 -0.2520  1.3071  0.9964
  197MOL0     H25998  11.312  10.362   3.931 -0.9925  1.5622 -0.4569
  197MOL0     H25999  11.277  10.533   3.917 -0.5474  0.5177 -2.8230
  197MOL0     H26000  11.499  10.589   4.051  2.7744 -1.2573  0.8146
  197MOL0     H26001  11.406  10.478   4.140  0.7275 -0.0385  0.8009
  197MOL0     H26002  11.750  10.243   4.048  0.7662  1.0319 -2.8184
  197MOL0     H26003  11.033  10.706   3.737 -2.1353  0.0828  0.4245
  197MOL0     H26004  10.799  10.682   3.678  1.7615  1.3316  0.0881
  198MOL0     O26005   0.214   6.029   8.231 -0.0210  0.3286  0.4473
  198MOL0     C26006   0.257   6.032   8.349  0.0366  0.3120 -0.8082
  198MOL0     O26007   0.192   6.083   8.466 -0.3574  0.2154  0.5561
  198MOL0     C26008   0.048   6.083   8.467  0.2421  0.2785 -0.9811
  198MOL0     C26009  -0.005   6.149   8.579  0.3149 -0.1755  0.0356
  198MOL0     C26010  -0.142   6.140   8.595 -0.4115 -0.5917  0.5578
  198MOL0     C26011  -0.229   6.070   8.514  0.6087 -0.6421  0.1280
  198MOL0     O26012  -0.364   6.067   8.544 -0.6552  0.9235  0.7486
  198MOL0     C26013  -0.452   6.084   8.425 -0.4457 -0.9877  0.1152
  198MOL0     C26014  -0.565   6.173   8.483  0.0460 -0.2876 -0.0333
  198MOL0     C26015  -0.685   6.174   8.400  0.3837 -0.0483 -0.9806
  198MOL0     C26016  -0.815   6.216   8.478 -0.4771 -0.2367  0.9089
  198MOL0     C26017  -0.927   6.239   8.377  0.3669  0.5119  0.0856
  198MOL0     C26018  -1.063   6.237   8.451 -0.6118 -0.1261 -0.0799
  198MOL0     C26019  -1.178   6.217   8.353 -0.9667 -0.4115 -0.4279
  198MOL0     C26020  -1.196   6.340   8.263  0.7860  0.3032 -0.8897
  198MOL0     N26021  -1.331   6.331   8.192  0.1824  0.4271  0.0255
  198MOL0     C26022  -1.356   6.276   8.064 -0.2910 -0.7689  0.2973
  198MOL0     C26023  -1.487   6.280   8.041 -0.4914 -1.2379  0.1140
  198MOL0     C26024  -1.553   6.237   7.914 -0.7167  0.3145 -1.0872
  198MOL0     C26025  -1.469   6.280   7.791  1.0121 -0.6029 -0.3480
  198MOL0     C26026  -1.547   6.295   7.659 -0.2880 -0.4162  0.8652
  198MOL0     C26027  -1.671   6.385   7.666  0.5718  0.4235 -0.2143
  198MOL0     O26028  -1.786   6.305   7.689 -0.6211  0.6490  0.4397
  198MOL0     C26029  -1.920   6.347   7.667  0.5963  1.1764  0.1820
  198MOL0     C26030  -2.027   6.253   7.691 -0.7204 -0.4333  0.1153
  198MOL0     C26031  -2.164   6.292   7.680 -0.9274 -0.2214  0.9032
  198MOL0     C26032  -2.203   6.418   7.635 -0.5627  0.5658  0.0515
  198MOL0     C26033  -2.350   6.453   7.624 -0.4550 -0.1601 -0.2187
  198MOL0     O26034  -2.373   6.572   7.557 -0.1735 -0.1156  0.2810
  198MOL0     C26035  -2.502   6.618   7.559  0.7012  0.5406 -0.5498
  198MOL0     C26036  -2.523   6.740   7.621  0.2203 -0.2546 -0.9056
  198MOL0     C26037  -2.655   6.788   7.639  1.4710  0.0333  0.0316
  198MOL0     C26038  -2.770   6.720   7.589 -0.7580  0.2382 -0.3299
  198MOL0     O26039  -2.898   6.746   7.623  0.1445  0.6411 -0.4999
  198MOL0     C26040  -2.941   6.878   7.605 -0.2582 -0.3604  0.3050
  198MOL0     C26041  -3.088   6.900   7.645 -1.0863 -0.4326  0.2188
  198MOL0     C26042  -3.204   6.881   7.537  0.4573  0.4178 -0.8604
  198MOL0     C26043  -3.195   6.744   7.486  0.5760 -0.6774 -0.5201
  198MOL0     C26044  -3.297   6.725   7.380  0.0937 -0.3600  1.4051
  198MOL0     C26045  -3.338   6.573   7.367  0.1453  1.0161  0.0277
  198MOL0     C26046  -3.228   6.483   7.299 -0.1395 -0.1551  0.3470
  198MOL0     C26047  -3.128   6.441   7.409 -0.2179 -0.2847 -0.1316
  198MOL0    Cl26048  -3.199   6.339   7.541 -0.3713  0.0697 -0.1145
  198MOL0     C26049  -2.747   6.607   7.510  0.7664 -0.8011 -0.5148
  198MOL0     C26050  -2.616   6.553   7.502  0.7473  0.0530  0.7979
  198MOL0     O26051  -2.433   6.381   7.673  0.3341 -0.6203 -0.1399
  198MOL0     C26052  -2.103   6.506   7.601  0.2599 -0.8427 -0.2013
  198MOL0     C26053  -1.964   6.470   7.619 -0.5592 -0.0502 -0.0667
  198MOL0     N26054  -1.545   6.338   8.156  0.5393 -0.4867 -0.2362
  198MOL0     N26055  -1.450   6.378   8.233 -0.7627 -0.5640  0.0498
  198MOL0     C26056  -0.169   6.009   8.408 -0.2599  0.0936  0.3168
  198MOL0     C26057  -0.036   6.011   8.387  0.6163 -0.0963 -0.5347
  198MOL0     C26058   0.390   5.970   8.373 -0.0880  0.3871  0.7389
  198MOL0     C26059   0.404   5.871   8.470  0.4005 -0.1586 -0.1774
  198MOL0     C26060   0.532   5.824   8.492 -0.0636  0.1456  0.1273
  198MOL0     C26061   0.641   5.881   8.425  0.3517 -0.2669  0.2007
  198MOL0     O26062   0.763   5.828   8.445 -0.4323 -0.4781  1.2160
  198MOL0     C26063   0.834   5.856   8.561  0.4097  0.1245  0.4865
  198MOL0     C26064   0.904   5.989   8.547 -0.2536  0.1650 -0.6592
  198MOL0     C26065   0.986   6.025   8.672 -0.0904 -0.8656  0.2992
  198MOL0     C26066   0.915   6.029   8.803  0.7990 -0.2291 -0.1833
  198MOL0     C26067   1.000   6.079   8.913 -0.4285  1.0192 -0.3312
  198MOL0     C26068   1.073   6.119   9.004  0.7870  0.0807 -0.6830
  198MOL0     C26069   0.627   5.974   8.327 -1.1414  0.5167  0.2270
  198MOL0     C26070   0.499   6.004   8.285  0.2465 -0.8198 -0.2226
  198MOL0     H26071   0.052   6.193   8.659 -0.2474  1.2375 -0.3150
  198MOL0     H26072  -0.187   6.186   8.682 -0.7058 -0.3867  0.3008
  198MOL0     H26073  -0.490   5.988   8.386 -0.2696 -0.7738 -0.6048
  198MOL0     H26074  -0.399   6.127   8.339  0.0865 -1.9862 -0.0758
  198MOL0     H26075  -0.521   6.271   8.503  1.6677 -1.4371  2.5705
  198MOL0     H26076  -0.589   6.122   8.576 -0.1713 -2.0340 -1.0093
  198MOL0     H26077  -0.692   6.071   8.365  4.8039 -0.6003 -0.8301
  198MOL0     H26078  -0.666   6.237   8.313 -1.8985  4.8930  1.6270
  198MOL0     H26079  -0.839   6.133   8.545  2.6946 -1.1126  1.1351
  198MOL0     H26080  -0.802   6.303   8.543  0.0015  1.2894 -1.1128
  198MOL0     H26081  -0.917   6.165   8.297 -0.7791  1.1414 -0.6641
  198MOL0     H26082  -0.910   6.336   8.330 -2.3200 -1.0980 -4.9867
  198MOL0     H26083  -1.083   6.328   8.508 -4.1325 -0.7295 -0.1466
  198MOL0     H26084  -1.060   6.156   8.524 -1.0513  0.4027  0.5392
  198MOL0     H26085  -1.164   6.127   8.293 -2.7010 -0.6235 -0.5651
  198MOL0     H26086  -1.271   6.202   8.408  0.9493  2.2562  4.0817
  198MOL0     H26087  -1.110   6.333   8.197 -0.5223  0.1662 -2.6650
  198MOL0     H26088  -1.189   6.430   8.326 -0.3750  0.5689 -1.1161
  198MOL0     H26089  -1.275   6.244   8.000  0.8579  3.2278 -0.4972
  198MOL0     H26090  -1.655   6.275   7.916 -0.9936 -0.4379 -0.5618
  198MOL0     H26091  -1.573   6.129   7.909 -0.5977  0.2562 -0.4384
  198MOL0     H26092  -1.392   6.205   7.773  1.3235 -0.6299  0.9781
  198MOL0     H26093  -1.410   6.366   7.823  0.8951 -0.8932  0.6758
  198MOL0     H26094  -1.483   6.337   7.581  0.3020 -1.0721  0.9868
  198MOL0     H26095  -1.560   6.195   7.617  1.3918 -0.3640  0.1231
  198MOL0     H26096  -1.687   6.441   7.573 -0.0700  1.0904  0.2845
  198MOL0     H26097  -1.656   6.457   7.747  1.6304  1.7950 -1.5699
  198MOL0     H26098  -2.000   6.153   7.721  0.3608  0.2132  1.4169
  198MOL0     H26099  -2.248   6.227   7.702 -1.3826 -0.6866 -1.9403
  198MOL0     H26100  -2.433   6.792   7.651 -0.4707 -0.2934  1.3888
  198MOL0     H26101  -2.687   6.873   7.699  0.9356 -0.5415  0.5834
  198MOL0     H26102  -2.936   6.898   7.498 -0.0380 -0.5580  0.2768
  198MOL0     H26103  -2.870   6.949   7.650  3.1796 -3.9810  1.1242
  198MOL0     H26104  -3.092   7.003   7.680  4.2922  0.0491  0.2680
  198MOL0     H26105  -3.110   6.833   7.729  0.6916 -0.8046  0.4355
  198MOL0     H26106  -3.192   6.955   7.458 -0.7926  0.2647 -1.2046
  198MOL0     H26107  -3.293   6.908   7.594  1.6666  0.8316  0.9400
  198MOL0     H26108  -3.103   6.724   7.431  0.7722 -0.7760 -0.1577
  198MOL0     H26109  -3.211   6.678   7.571  1.9649  1.5383  1.6202
  198MOL0     H26110  -3.261   6.779   7.292 -3.0420  1.5622  1.1298
  198MOL0     H26111  -3.393   6.774   7.401  0.5154  0.7614  0.8076
  198MOL0     H26112  -3.426   6.559   7.304 -0.8432 -0.6179  1.6496
  198MOL0     H26113  -3.367   6.525   7.462  3.6682  2.2156  1.8740
  198MOL0     H26114  -3.262   6.392   7.249 -1.1275  0.4471 -0.0984
  198MOL0     H26115  -3.177   6.546   7.226 -2.3529  0.0117 -1.1298
  198MOL0     H26116  -3.083   6.527   7.460  1.8793 -1.8779  0.8235
  198MOL0     H26117  -3.044   6.402   7.352  2.9423  4.5509  0.6593
  198MOL0     H26118  -2.819   6.547   7.456 -1.5057  1.6536 -0.4287
  198MOL0     H26119  -2.607   6.456   7.454 -0.2474  0.5531 -0.4389
  198MOL0     H26120  -2.127   6.608   7.573  0.0497 -0.8968 -0.2197
  198MOL0     H26121  -1.898   6.553   7.596 -0.5563  0.0297  0.2222
  198MOL0     H26122  -0.227   5.942   8.346 -0.4240  2.9587 -2.8743
  198MOL0     H26123  -0.006   5.961   8.295  5.0746  1.8489 -0.4303
  198MOL0     H26124   0.323   5.834   8.532 -1.3754  0.7840 -1.8301
  198MOL0     H26125   0.555   5.753   8.570 -0.8440 -3.6366 -2.8079
  198MOL0     H26126   0.906   5.775   8.580  1.6350  0.5863 -1.7580
  198MOL0     H26127   0.772   5.856   8.651  2.4001 -2.4981  2.0170
  198MOL0     H26128   0.964   5.979   8.457  2.4661  3.5558  0.5525
  198MOL0     H26129   0.818   6.054   8.531 -1.8559 -1.9759 -1.1328
  198MOL0     H26130   1.031   6.125   8.666 -0.3825 -0.3178  4.3431
  198MOL0     H26131   1.070   5.957   8.686  2.1619  1.3961 -1.2826
  198MOL0     H26132   0.816   6.075   8.795  0.7341 -0.1606  0.8287
  198MOL0     H26133   0.893   5.926   8.833 -0.6341  0.0192 -0.3099
  198MOL0     H26134   1.135   6.159   9.082 -0.3930 -0.6305  0.6580
  198MOL0     H26135   0.708   6.024   8.277  0.6135 -0.8316  1.5688
  198MOL0     H26136   0.481   6.068   8.198  0.6483  0.6364  0.7287
  199MOL0     O26137   9.825  10.752   8.456 -0.4624 -0.7269 -0.8528
  199MOL0     C26138   9.903  10.795   8.540 -0.1687 -0.2806  0.0677
  199MOL0     O26139   9.876  10.858   8.657 -0.0725 -0.3326 -0.5844
  199MOL0     C26140   9.753  10.873   8.712 -0.3979  0.1252 -0.6494
  199MOL0     C26141   9.748  10.933   8.840 -0.7727  0.9911 -1.1150
  199MOL0     C26142   9.633  10.948   8.916  0.1263  0.0276 -1.6490
  199MOL0     C26143   9.520  10.897   8.876  0.4162 -0.1805 -0.3400
  199MOL0     O26144   9.406  10.908   8.956 -0.0103 -0.0340  1.2810
  199MOL0     C26145   9.270  10.894   8.913  0.6394  0.4639 -1.1001
  199MOL0     C26146   9.175  10.922   9.038 -0.1205 -0.3809  0.2692
  199MOL0     C26147   9.042  10.863   8.996  0.2793 -1.0788 -1.0758
  199MOL0     C26148   8.941  10.897   9.110  0.0628  0.3083 -0.1714
  199MOL0     C26149   8.961  10.822   9.238  0.6106 -0.8087 -1.4840
  199MOL0     C26150   8.869  10.860   9.354 -0.0457 -0.9624  0.0101
  199MOL0     C26151   8.890  11.013   9.405 -0.6431  1.7545  1.3019
  199MOL0     C26152   8.816  11.039   9.531  1.0719 -0.5101 -0.1374
  199MOL0     N26153   8.681  11.090   9.498 -0.0014 -0.5574 -0.5606
  199MOL0     C26154   8.630  11.209   9.454 -0.0216 -0.0552  0.4026
  199MOL0     C26155   8.499  11.187   9.424  0.4880  0.4299  0.3698
  199MOL0     C26156   8.401  11.281   9.383 -0.1117 -0.9339  0.3795
  199MOL0     C26157   8.382  11.264   9.231 -0.0952  0.1090  0.0067
  199MOL0     C26158   8.336  11.124   9.186  0.1617 -0.8135 -0.0215
  199MOL0     C26159   8.200  11.079   9.253 -0.7941  0.4829 -0.1346
  199MOL0     O26160   8.084  11.160   9.212 -0.6220 -1.4051  0.3626
  199MOL0     C26161   7.961  11.102   9.236 -0.5540 -0.1429 -0.1174
  199MOL0     C26162   7.934  10.994   9.317 -0.1855  0.1679 -0.4094
  199MOL0     C26163   7.812  10.942   9.336  0.2886 -0.5885 -0.7829
  199MOL0     C26164   7.696  10.998   9.281  0.6822  0.8737  0.3938
  199MOL0     C26165   7.556  10.941   9.296 -0.6819  0.1132 -0.1638
  199MOL0     O26166   7.446  11.010   9.242  0.1564 -0.3098  0.6115
  199MOL0     C26167   7.316  10.986   9.278  0.4185  0.0759 -1.1159
  199MOL0     C26168   7.239  11.097   9.311 -0.1627 -0.2639  0.7617
  199MOL0     C26169   7.104  11.095   9.340 -0.1967  0.3507 -0.7852
  199MOL0     C26170   7.044  10.969   9.368  0.0258 -0.2287 -0.4731
  199MOL0     O26171   6.919  10.979   9.423  0.3131  0.1173  0.9878
  199MOL0     C26172   6.919  10.904   9.546 -0.3449  0.0907 -0.6211
  199MOL0     C26173   6.803  10.970   9.633  0.2356  0.5833  0.1036
  199MOL0     C26174   6.770  10.888   9.759 -0.0943 -0.0380  0.2459
  199MOL0     C26175   6.629  10.931   9.820  0.0939 -0.3771 -0.5356
  199MOL0     C26176   6.615  11.081   9.837 -0.1619  0.5231  0.0340
  199MOL0     C26177   6.494  11.122   9.928 -0.2439  0.6891 -0.1511
  199MOL0     C26178   6.356  11.077   9.877  0.4141  0.3882  0.3273
  199MOL0     C26179   6.240  11.094   9.974 -0.8430 -0.5033 -0.4645
  199MOL0    Cl26180   6.186  11.265   9.952 -0.0981 -0.4065  0.6169
  199MOL0     C26181   7.125  10.856   9.349  0.5977 -0.4925  0.3055
  199MOL0     C26182   7.254  10.862   9.306 -0.0171 -0.4448  0.0902
  199MOL0     O26183   7.545  10.845   9.366  0.2113  0.0728 -0.0579
  199MOL0     C26184   7.715  11.117   9.209  0.1373  0.2105  0.8976
  199MOL0     C26185   7.845  11.172   9.192 -0.0081 -0.5143  1.2530
  199MOL0     N26186   8.464  11.058   9.469 -0.2198  0.5182  0.0464
  199MOL0     N26187   8.572  11.007   9.518 -0.2634  0.6254  1.0587
  199MOL0     C26188   9.514  10.825   8.753 -0.1135 -1.1616  0.1158
  199MOL0     C26189   9.629  10.816   8.674  0.3626  0.3759  1.4090
  199MOL0     C26190  10.050  10.792   8.497  0.6324  0.4476 -0.3926
  199MOL0     C26191  10.080  10.796   8.365 -0.8207  0.5319  0.9575
  199MOL0     C26192  10.212  10.835   8.327  0.4421 -0.1814 -0.0208
  199MOL0     C26193  10.307  10.857   8.417  0.0623  1.5640 -0.5120
  199MOL0     O26194  10.425  10.898   8.369  0.5072  0.3021 -0.4150
  199MOL0     C26195  10.539  10.892   8.454  0.5551  0.2873  0.6590
  199MOL0     C26196  10.677  10.916   8.381  0.9287 -0.1706 -0.3205
  199MOL0     C26197  10.795  10.877   8.476 -0.9102  0.9297  0.0025
  199MOL0     C26198  10.931  10.893   8.410 -0.4747 -0.1635 -0.4494
  199MOL0     C26199  10.945  11.022   8.352 -0.1864 -0.1238 -0.1402
  199MOL0     C26200  10.963  11.111   8.273 -0.2725 -0.0288  0.2494
  199MOL0     C26201  10.280  10.841   8.549 -0.0202  0.2682 -0.9325
  199MOL0     C26202  10.149  10.814   8.592 -0.4182  0.1258  0.0692
  199MOL0     H26203   9.841  10.945   8.895 -1.5323  4.8823 -0.3763
  199MOL0     H26204   9.656  10.989   9.014 -0.4230 -0.3793 -1.3485
  199MOL0     H26205   9.255  10.789   8.887  2.4380  0.3063 -1.6733
  199MOL0     H26206   9.262  10.968   8.833  0.9128  1.6550 -0.0550
  199MOL0     H26207   9.172  11.026   9.073 -0.2101 -0.1071 -0.5235
  199MOL0     H26208   9.212  10.874   9.129  0.9236  1.6687  1.0034
  199MOL0     H26209   9.054  10.756   8.978 -2.2745 -1.8056  1.0530
  199MOL0     H26210   9.007  10.916   8.907 -0.4308  1.8000  0.7761
  199MOL0     H26211   8.956  11.003   9.132 -2.2249  0.9365 -1.3003
  199MOL0     H26212   8.834  10.894   9.087  0.4821  1.5092 -2.7536
  199MOL0     H26213   9.063  10.846   9.272 -0.2007  2.7977 -1.1032
  199MOL0     H26214   8.945  10.716   9.219 -0.6952 -1.1326  1.0339
  199MOL0     H26215   8.881  10.797   9.443 -3.5735 -0.9240  0.6667
  199MOL0     H26216   8.764  10.845   9.325 -0.6098 -1.1063  1.9627
  199MOL0     H26217   8.996  11.017   9.428 -0.6470 -0.2708  1.8666
  199MOL0     H26218   8.851  11.079   9.326 -4.5762 -0.6976  0.9311
  199MOL0     H26219   8.866  11.115   9.592 -1.6727  0.7481  0.7083
  199MOL0     H26220   8.804  10.949   9.591  0.7756  1.1529  2.4437
  199MOL0     H26221   8.676  11.306   9.435 -3.1978  2.4311  3.7485
  199MOL0     H26222   8.421  11.387   9.399 -0.0756 -1.2976  3.3433
  199MOL0     H26223   8.305  11.269   9.435 -0.5576  4.8289  1.5715
  199MOL0     H26224   8.474  11.279   9.174  0.5723 -0.9625  0.7679
  199MOL0     H26225   8.313  11.345   9.203  3.0905  2.3443 -2.0727
  199MOL0     H26226   8.321  11.125   9.078  0.4383  3.3406 -0.1801
  199MOL0     H26227   8.415  11.051   9.206  0.3860 -1.8963 -4.0002
  199MOL0     H26228   8.204  11.073   9.362 -1.1973 -2.1443 -0.1944
  199MOL0     H26229   8.176  10.980   9.214 -0.4188 -0.0462  0.9444
  199MOL0     H26230   8.013  10.941   9.370 -0.6181  0.7784  0.8877
  199MOL0     H26231   7.812  10.855   9.399 -0.5359  3.2480  5.3173
  199MOL0     H26232   7.287  11.193   9.296  2.0784 -0.9927  2.6592
  199MOL0     H26233   7.056  11.192   9.344  0.2353  0.5441 -0.0461
  199MOL0     H26234   7.017  10.903   9.594 -1.7221 -0.9162  2.4408
  199MOL0     H26235   6.881  10.806   9.516 -0.2706  0.0554 -0.5993
  199MOL0     H26236   6.715  10.966   9.569 -0.8659 -1.1856  1.6343
  199MOL0     H26237   6.823  11.072   9.668 -0.1108 -0.5977  4.3007
  199MOL0     H26238   6.848  10.895   9.835  2.4640 -0.3386 -2.1895
  199MOL0     H26239   6.764  10.783   9.727 -0.4475  0.2639 -0.7400
  199MOL0     H26240   6.556  10.908   9.743  0.5814  0.4524 -1.2650
  199MOL0     H26241   6.609  10.882   9.916  0.4791  1.4533  0.5327
  199MOL0     H26242   6.616  11.129   9.738 -0.4714 -2.3053 -1.4342
  199MOL0     H26243   6.704  11.111   9.893  1.0386 -2.1916 -0.2631
  199MOL0     H26244   6.490  11.231   9.939 -1.0243  0.4910  2.0660
  199MOL0     H26245   6.507  11.083  10.029  2.0579  3.2370  0.6700
  199MOL0     H26246   6.330  11.137   9.789 -1.6621  1.1994  1.4220
  199MOL0     H26247   6.366  10.971   9.852 -3.9829 -0.1687  0.0885
  199MOL0     H26248   6.269  11.068  10.076  1.3818 -2.1503 -1.4406
  199MOL0     H26249   6.153  11.035   9.945 -1.7065  0.9608 -0.9569
  199MOL0     H26250   7.083  10.758   9.369  2.1213 -1.2276  0.0055
  199MOL0     H26251   7.308  10.769   9.290 -0.1987 -0.6242  0.5350
  199MOL0     H26252   7.628  11.179   9.191 -1.3262 -1.4735  1.8548
  199MOL0     H26253   7.850  11.269   9.142 -2.2685  0.1818  2.2424
  199MOL0     H26254   9.417  10.796   8.713 -1.0048  2.3754 -0.6431
  199MOL0     H26255   9.616  10.762   8.581  1.2919 -0.8296  1.9383
  199MOL0     H26256  10.002  10.794   8.290 -0.9933  2.4484  1.0382
  199MOL0     H26257  10.234  10.867   8.226 -3.6195  2.1237 -0.3811
  199MOL0     H26258  10.544  10.785   8.477  0.5863  0.1242 -0.1056
  199MOL0     H26259  10.543  10.965   8.536  1.0262  1.4842 -0.3894
  199MOL0     H26260  10.672  10.848   8.296  0.8710 -1.1403  0.4342
  199MOL0     H26261  10.693  11.017   8.342 -0.8601 -0.6422 -2.5162
  199MOL0     H26262  10.779  10.777   8.516 -1.2544  0.4803 -1.2178
  199MOL0     H26263  10.791  10.950   8.558  1.8192 -0.1965  1.2698
  199MOL0     H26264  11.008  10.886   8.487 -2.6995  1.9593  2.1496
  199MOL0     H26265  10.943  10.821   8.328  0.8431 -1.1208  0.5292
  199MOL0     H26266  10.971  11.179   8.191  0.5233 -0.6546 -0.2115
  199MOL0     H26267  10.352  10.863   8.628 -2.2556  2.5249  0.6282
  199MOL0     H26268  10.123  10.795   8.695 -2.4027  0.7133 -0.2814
  200MOL0     O26269   5.260   6.543   6.453  0.4377 -0.2784 -0.1676
  200MOL0     C26270   5.314   6.598   6.360 -0.3273 -0.1647 -0.1024
  200MOL0     O26271   5.250   6.682   6.267  0.1322  0.8751 -0.2942
  200MOL0     C26272   5.109   6.689   6.266 -0.5808  0.5192 -0.5292
  200MOL0     C26273   5.060   6.787   6.183  0.5108  1.3818 -0.6329
  200MOL0     C26274   4.921   6.803   6.154 -0.9194  0.1274 -0.6123
  200MOL0     C26275   4.837   6.707   6.194 -0.0969  0.0309 -0.3261
  200MOL0     O26276   4.700   6.720   6.168 -0.0323  0.0832 -0.2002
  200MOL0     C26277   4.639   6.853   6.185  0.2376  0.8454  0.0370
  200MOL0     C26278   4.524   6.852   6.270  0.0458 -0.1806 -0.7013
  200MOL0     C26279   4.402   6.773   6.228  0.2720  0.4341  0.9793
  200MOL0     C26280   4.312   6.775   6.352  0.0602 -0.5815  0.4775
  200MOL0     C26281   4.217   6.651   6.352  0.8688 -0.2670 -0.7323
  200MOL0     C26282   4.107   6.663   6.464 -1.0695 -0.0981  0.0045
  200MOL0     C26283   3.998   6.561   6.429 -0.0592 -0.3783 -0.6913
  200MOL0     C26284   3.892   6.593   6.325  0.1674 -0.0471  0.6592
  200MOL0     N26285   3.798   6.697   6.356 -0.1373  0.8211 -0.1313
  200MOL0     C26286   3.769   6.809   6.279 -0.0131  0.3572 -0.9388
  200MOL0     C26287   3.671   6.876   6.351 -0.9083  0.4667 -0.7709
  200MOL0     C26288   3.591   6.993   6.312 -0.8710  0.7140  1.0274
  200MOL0     C26289   3.547   7.088   6.432 -0.0378 -0.6942 -0.2876
  200MOL0     C26290   3.450   7.009   6.531  1.1797 -0.4719  0.4067
  200MOL0     C26291   3.373   7.121   6.606  0.2166  0.0946  0.0823
  200MOL0     O26292   3.264   7.071   6.691  0.4138 -0.0672 -0.0065
  200MOL0     C26293   3.133   7.100   6.667  0.0472 -0.6694 -0.5044
  200MOL0     C26294   3.086   7.231   6.635 -0.5583  0.1651  0.2453
  200MOL0     C26295   2.949   7.247   6.613 -0.0150 -0.1773 -1.3399
  200MOL0     C26296   2.853   7.146   6.631  0.4229 -0.2844  0.8777
  200MOL0     C26297   2.709   7.182   6.627  0.6527 -0.0652  0.3730
  200MOL0     O26298   2.620   7.099   6.706 -0.2655  0.8347  0.2011
  200MOL0     C26299   2.488   7.136   6.721 -1.1521 -0.2871  0.2026
  200MOL0     C26300   2.410   7.021   6.747  1.2802  0.6187 -0.3169
  200MOL0     C26301   2.264   7.035   6.738  0.6052 -0.2853  1.0460
  200MOL0     C26302   2.211   7.165   6.718 -0.1464 -0.5202 -0.2544
  200MOL0     O26303   2.078   7.171   6.701 -0.6201 -0.0783 -0.1162
  200MOL0     C26304   2.007   7.296   6.739  0.8451  0.7176 -0.0924
  200MOL0     C26305   1.863   7.256   6.731  0.1217  0.6636 -0.0755
  200MOL0     C26306   1.840   7.143   6.821 -0.0624  0.2337 -0.5146
  200MOL0     C26307   1.696   7.104   6.797  0.1867 -0.3652  0.0519
  200MOL0     C26308   1.635   7.066   6.937  0.5564  0.1886 -0.2570
  200MOL0     C26309   1.530   6.946   6.913  0.1951  0.2460 -0.4530
  200MOL0     C26310   1.472   6.922   7.044 -0.2557 -0.1832 -0.5969
  200MOL0     C26311   1.356   6.825   7.051 -0.2975  0.5794 -0.6616
  200MOL0    Cl26312   1.425   6.665   7.001  0.2527  0.0587  0.1312
  200MOL0     C26313   2.294   7.279   6.711  0.4112 -1.0847  0.0169
  200MOL0     C26314   2.431   7.266   6.698  0.6219  0.2441  0.2324
  200MOL0     O26315   2.677   7.280   6.563  0.1159 -0.2493  0.3145
  200MOL0     C26316   2.900   7.020   6.658 -0.4163  0.1606 -0.5684
  200MOL0     C26317   3.040   6.990   6.674  0.2339  0.5088 -0.1299
  200MOL0     N26318   3.653   6.802   6.460 -0.2204 -0.1808 -1.5671
  200MOL0     N26319   3.716   6.695   6.465  0.4797  0.1171  0.1415
  200MOL0     C26320   4.886   6.601   6.278  0.4809 -0.3981  0.7270
  200MOL0     C26321   5.023   6.588   6.308  0.9064  0.1005  0.4384
  200MOL0     C26322   5.451   6.558   6.330 -0.1019  0.3372 -0.3558
  200MOL0     C26323   5.524   6.482   6.420 -0.2804 -0.1263  0.6142
  200MOL0     C26324   5.653   6.451   6.394 -0.2222  0.4321  0.1215
  200MOL0     C26325   5.711   6.484   6.264  0.1710  0.8090 -0.4464
  200MOL0     O26326   5.844   6.458   6.240  0.3004 -0.5292  0.0614
  200MOL0     C26327   5.910   6.341   6.289  0.2268  0.3487  0.5588
  200MOL0     C26328   6.019   6.386   6.386  0.5208  0.2473  0.1947
  200MOL0     C26329   6.135   6.464   6.320  0.9701 -0.5544  0.0304
  200MOL0     C26330   6.210   6.408   6.197  0.2282 -0.3438 -0.8921
  200MOL0     C26331   6.243   6.266   6.223 -0.1919 -0.3011 -0.3537
  200MOL0     C26332   6.272   6.149   6.246  0.6192  0.1321 -0.8340
  200MOL0     C26333   5.644   6.544   6.168 -0.3769  0.4614  1.0395
  200MOL0     C26334   5.513   6.589   6.203  0.6806  0.7258 -0.0664
  200MOL0     H26335   5.138   6.845   6.135  0.3603  1.2233 -1.0744
  200MOL0     H26336   4.892   6.881   6.084  1.7369  1.4743 -0.3365
  200MOL0     H26337   4.606   6.889   6.086  0.9424 -0.2916 -0.6285
  200MOL0     H26338   4.700   6.930   6.233 -0.7823 -0.2716  3.3406
  200MOL0     H26339   4.482   6.951   6.288 -0.5578 -0.2233 -1.8036
  200MOL0     H26340   4.559   6.819   6.369 -2.2612 -0.6638  0.0269
  200MOL0     H26341   4.414   6.668   6.201 -1.8154  0.5041 -0.4025
  200MOL0     H26342   4.349   6.823   6.147  0.3306  0.2784  0.8447
  200MOL0     H26343   4.373   6.768   6.443  2.2079  0.1536 -0.8290
  200MOL0     H26344   4.260   6.872   6.347  2.1543  0.6129  0.6671
  200MOL0     H26345   4.274   6.560   6.366 -0.8092 -1.0913  1.2714
  200MOL0     H26346   4.164   6.646   6.256 -2.6932  1.1610  0.9499
  200MOL0     H26347   4.061   6.761   6.448  0.5604  0.2942 -2.9957
  200MOL0     H26348   4.146   6.653   6.566  0.0516 -3.1886 -0.6219
  200MOL0     H26349   4.042   6.465   6.400 -3.0509 -1.3157 -2.5558
  200MOL0     H26350   3.939   6.545   6.520  0.1928 -0.3650 -0.5240
  200MOL0     H26351   3.829   6.504   6.330 -0.6125  0.5547  2.8004
  200MOL0     H26352   3.942   6.615   6.230 -0.3293 -0.0960  0.3858
  200MOL0     H26353   3.807   6.827   6.179  0.2909  1.1770 -0.6889
  200MOL0     H26354   3.510   6.947   6.255 -1.0006  1.8031  0.2980
  200MOL0     H26355   3.658   7.059   6.255 -1.1007  0.5770  0.5928
  200MOL0     H26356   3.506   7.183   6.395 -3.0775 -2.2375 -1.1997
  200MOL0     H26357   3.641   7.111   6.483 -0.2688 -0.7984  0.1956
  200MOL0     H26358   3.380   6.954   6.468 -2.1130  1.9191  1.6925
  200MOL0     H26359   3.503   6.941   6.599  0.9210  1.0666  2.2269
  200MOL0     H26360   3.328   7.183   6.528 -0.1303 -1.3258 -0.8958
  200MOL0     H26361   3.433   7.195   6.659 -1.7297  0.7254  1.5462
  200MOL0     H26362   3.148   7.321   6.633  1.1798 -0.9940  0.2033
  200MOL0     H26363   2.913   7.341   6.573  0.8061  1.6414  1.8153
  200MOL0     H26364   2.463   6.929   6.767  1.2332  0.8498  0.9936
  200MOL0     H26365   2.192   6.955   6.752  2.4816 -3.2919 -3.8215
  200MOL0     H26366   2.031   7.386   6.682 -0.1814  2.9530  2.8132
  200MOL0     H26367   2.034   7.325   6.841 -1.3758  1.6786  0.2746
  200MOL0     H26368   1.843   7.222   6.629  1.6939 -0.9575  0.1066
  200MOL0     H26369   1.796   7.339   6.755  0.2899  0.6869  0.3256
  200MOL0     H26370   1.861   7.173   6.925 -1.6346 -0.0525 -0.0851
  200MOL0     H26371   1.896   7.054   6.793 -0.4595 -0.0405 -0.4554
  200MOL0     H26372   1.640   7.184   6.747  1.4294  0.0178 -0.7763
  200MOL0     H26373   1.682   7.025   6.722  0.0376  0.3484 -0.6911
  200MOL0     H26374   1.580   7.146   6.986 -0.4090 -0.4394 -0.2961
  200MOL0     H26375   1.705   7.034   7.015 -0.9721  0.5737  1.3179
  200MOL0     H26376   1.574   6.859   6.864  0.5913  0.2956 -0.1936
  200MOL0     H26377   1.446   6.991   6.859  1.3478  4.0553  0.6264
  200MOL0     H26378   1.545   6.887   7.118 -0.4386 -2.0366 -1.2332
  200MOL0     H26379   1.421   7.015   7.073 -0.7060 -0.6375  0.1198
  200MOL0     H26380   1.269   6.838   6.985 -0.2277 -1.7387 -1.2981
  200MOL0     H26381   1.317   6.815   7.153  1.0795 -1.9241 -0.2977
  200MOL0     H26382   2.244   7.376   6.707  1.5428 -0.3255  2.4518
  200MOL0     H26383   2.482   7.361   6.708  1.7395 -0.3035 -0.0877
  200MOL0     H26384   2.828   6.942   6.680  1.3880 -1.4330 -0.0466
  200MOL0     H26385   3.064   6.885   6.684 -0.2067  0.1550 -2.3640
  200MOL0     H26386   4.827   6.516   6.311  1.3723 -1.4877 -0.3930
  200MOL0     H26387   5.057   6.497   6.356  2.1996 -0.6444 -1.7834
  200MOL0     H26388   5.483   6.463   6.519  0.0101 -1.2130  0.5367
  200MOL0     H26389   5.724   6.422   6.470 -0.5823 -1.0392 -0.0707
  200MOL0     H26390   5.949   6.300   6.195 -0.1669  2.5334 -0.6440
  200MOL0     H26391   5.837   6.269   6.326  2.1233 -0.8029  2.2584
  200MOL0     H26392   5.972   6.453   6.459  0.0091 -0.7443  0.7966
  200MOL0     H26393   6.053   6.307   6.455  2.2030  1.9212  1.4077
  200MOL0     H26394   6.201   6.482   6.405  1.5024 -3.5765  0.3449
  200MOL0     H26395   6.096   6.559   6.280  1.6995 -0.0392  0.5098
  200MOL0     H26396   6.149   6.416   6.106  1.5353 -0.0497 -1.7729
  200MOL0     H26397   6.298   6.470   6.179 -0.5481  0.5589 -1.7618
  200MOL0     H26398   6.301   6.048   6.268 -0.9458 -0.3870 -1.0222
  200MOL0     H26399   5.684   6.577   6.073  3.8998  2.4954  3.2750
  200MOL0     H26400   5.461   6.643   6.124  0.8341  0.9383 -0.0235
  201MOL0     O26401   9.071   8.575   3.448  0.1457  0.2881  0.9515
  201MOL0     C26402   9.114   8.524   3.554  0.1277  0.9281  0.6404
  201MOL0     O26403   9.065   8.410   3.609 -0.1105  0.3599 -0.2419
  201MOL0     C26404   8.969   8.321   3.555 -0.4294 -0.9301  0.2402
  201MOL0     C26405   8.895   8.246   3.649 -0.7314  0.7334  0.6072
  201MOL0     C26406   8.788   8.171   3.607 -0.0274  0.5898  0.3321
  201MOL0     C26407   8.751   8.159   3.472  0.5587  0.2790  0.2252
  201MOL0     O26408   8.647   8.074   3.419 -0.3279  0.0433  0.2693
  201MOL0     C26409   8.597   7.963   3.493  0.1025  0.4332  0.6671
  201MOL0     C26410   8.474   8.012   3.581 -0.4808  0.1648  0.5024
  201MOL0     C26411   8.351   8.048   3.499  0.7196 -0.2175  0.6775
  201MOL0     C26412   8.224   8.047   3.576  0.8505 -0.6806 -0.1504
  201MOL0     C26413   8.109   8.119   3.501 -0.0299  0.8216 -0.2707
  201MOL0     C26414   7.976   8.061   3.544  0.4682 -0.0329  0.3850
  201MOL0     C26415   7.958   7.915   3.495  0.0668  0.0413  0.7822
  201MOL0     C26416   7.814   7.887   3.468 -0.4088  0.5347  0.3440
  201MOL0     N26417   7.789   7.758   3.417  0.2220  0.3640 -0.8034
  201MOL0     C26418   7.759   7.640   3.497 -0.2961 -0.3819  0.4366
  201MOL0     C26419   7.684   7.560   3.423  0.3031  0.5902  0.1233
  201MOL0     C26420   7.611   7.432   3.468 -0.5040  0.3508  0.0886
  201MOL0     C26421   7.461   7.465   3.439 -0.1741  1.0558 -0.0395
  201MOL0     C26422   7.392   7.561   3.534 -0.2890 -0.4844 -0.3041
  201MOL0     C26423   7.243   7.539   3.559  0.1569  0.5943 -0.2228
  201MOL0     O26424   7.186   7.574   3.437  0.3598 -0.8344  0.7206
  201MOL0     C26425   7.054   7.543   3.421  0.8618 -0.5450 -0.8973
  201MOL0     C26426   7.002   7.573   3.304  1.3313 -0.4476  0.6393
  201MOL0     C26427   6.878   7.530   3.265  0.5183 -0.6335 -0.2056
  201MOL0     C26428   6.784   7.479   3.358  0.2770  0.1508  0.1021
  201MOL0     C26429   6.651   7.442   3.323  0.7040  0.3693  0.3925
  201MOL0     O26430   6.615   7.454   3.193 -0.2234  0.3078 -0.8385
  201MOL0     C26431   6.487   7.403   3.165 -0.2619 -0.2292  0.0385
  201MOL0     C26432   6.466   7.266   3.158 -0.8290  0.1287  0.1577
  201MOL0     C26433   6.344   7.219   3.113  0.8524 -1.0314 -0.2904
  201MOL0     C26434   6.239   7.307   3.092 -0.5640 -0.6290  0.0884
  201MOL0     O26435   6.116   7.245   3.068 -0.2083 -0.2709 -0.5083
  201MOL0     C26436   5.998   7.315   3.120  0.4987  0.0547  0.1011
  201MOL0     C26437   5.863   7.226   3.111 -0.5479 -0.2314 -0.4849
  201MOL0     C26438   5.744   7.298   3.169  0.4162  0.3500  0.2393
  201MOL0     C26439   5.598   7.237   3.147 -0.4414  0.4066 -0.5459
  201MOL0     C26440   5.557   7.166   3.276  0.6223  0.0298  0.2817
  201MOL0     C26441   5.413   7.096   3.241  0.2975 -0.8740  0.5125
  201MOL0     C26442   5.373   7.057   3.382 -0.1728  0.3934  0.6464
  201MOL0     C26443   5.227   7.084   3.412  0.2852 -0.8331  0.3235
  201MOL0    Cl26444   5.132   6.998   3.302 -0.4067  0.4280  0.1966
  201MOL0     C26445   6.257   7.441   3.110 -0.6414 -0.7462  0.8723
  201MOL0     C26446   6.381   7.500   3.150  0.8373 -0.8673  1.5630
  201MOL0     O26447   6.575   7.410   3.419  0.2363 -0.5172  0.4168
  201MOL0     C26448   6.836   7.446   3.488 -0.3560  0.2850  1.0178
  201MOL0     C26449   6.974   7.470   3.514 -0.1877  0.0205 -0.5477
  201MOL0     N26450   7.669   7.611   3.300 -0.4509  0.8193 -0.3560
  201MOL0     N26451   7.729   7.733   3.297  0.0414  0.1267  0.4602
  201MOL0     C26452   8.830   8.233   3.380  0.4208  0.4232 -0.1334
  201MOL0     C26453   8.945   8.305   3.421  0.2683  0.7539  0.1423
  201MOL0     C26454   9.241   8.569   3.613  0.2802  0.6752 -0.1464
  201MOL0     C26455   9.288   8.705   3.594  0.0472  0.6633  0.1422
  201MOL0     C26456   9.410   8.742   3.645 -0.4394 -0.5694  0.3500
  201MOL0     C26457   9.484   8.650   3.727 -0.1623  0.7030  0.6454
  201MOL0     O26458   9.610   8.688   3.763 -0.4076  0.1234  0.4326
  201MOL0     C26459   9.715   8.589   3.734 -0.2532 -0.2035  0.6697
  201MOL0     C26460   9.842   8.663   3.720  0.1344 -0.2377 -0.3045
  201MOL0     C26461   9.895   8.719   3.853 -0.1608 -0.4376 -0.2198
  201MOL0     C26462  10.041   8.740   3.839 -0.4691  0.3048  0.8368
  201MOL0     C26463  10.122   8.628   3.884 -1.6624 -0.5075  0.3139
  201MOL0     C26464  10.185   8.532   3.923 -0.0860 -0.0889  0.1392
  201MOL0     C26465   9.433   8.525   3.753 -0.9132  0.3845 -0.2831
  201MOL0     C26466   9.315   8.487   3.701  0.0740  0.0899  0.4742
  201MOL0     H26467   8.923   8.252   3.754 -1.7444  1.1499  0.8659
  201MOL0     H26468   8.734   8.117   3.684  1.6413  0.2017  1.2736
  201MOL0     H26469   8.678   7.923   3.555  0.3094 -0.5666 -0.2137
  201MOL0     H26470   8.561   7.881   3.430 -1.7439  0.3513  1.7484
  201MOL0     H26471   8.505   8.107   3.627  1.6568  0.6732 -1.7688
  201MOL0     H26472   8.442   7.935   3.651  0.6940  0.1642  1.0524
  201MOL0     H26473   8.346   7.975   3.418  2.6254 -0.3098  0.5780
  201MOL0     H26474   8.353   8.150   3.458 -1.7237  0.0390  1.0719
  201MOL0     H26475   8.215   7.940   3.597  1.7558 -0.7861 -0.2286
  201MOL0     H26476   8.228   8.105   3.668 -2.7077  1.2723 -1.0394
  201MOL0     H26477   8.119   8.108   3.393  1.0218  1.4874 -0.2502
  201MOL0     H26478   8.103   8.227   3.517  0.3974  0.8338 -0.1696
  201MOL0     H26479   7.896   8.121   3.501  0.1457 -1.7878 -1.6733
  201MOL0     H26480   7.967   8.069   3.652 -2.3916 -4.3148  0.7192
  201MOL0     H26481   8.001   7.910   3.395  0.7683  3.7457  0.7544
  201MOL0     H26482   8.006   7.841   3.560  0.9638 -0.3869 -0.3284
  201MOL0     H26483   7.768   7.952   3.392  0.6614 -0.0412 -0.8409
  201MOL0     H26484   7.763   7.912   3.561 -2.6403  4.0128 -1.5630
  201MOL0     H26485   7.784   7.626   3.602  1.1504  2.1670  0.5159
  201MOL0     H26486   7.628   7.393   3.569 -0.1347 -1.5362 -0.6710
  201MOL0     H26487   7.655   7.358   3.401 -0.9581  0.9604 -0.9108
  201MOL0     H26488   7.408   7.369   3.452  2.5116 -0.9131 -2.3123
  201MOL0     H26489   7.456   7.496   3.334 -0.7784  2.4340  0.3836
  201MOL0     H26490   7.440   7.557   3.632 -1.6447 -0.2211  0.3947
  201MOL0     H26491   7.407   7.660   3.490 -0.3801 -1.0046 -1.5402
  201MOL0     H26492   7.215   7.606   3.641 -2.2172 -0.2864 -0.2404
  201MOL0     H26493   7.218   7.437   3.591 -2.2149  1.8499  2.3483
  201MOL0     H26494   7.068   7.625   3.235 -2.6598  2.2225 -1.5832
  201MOL0     H26495   6.854   7.540   3.159  2.5179 -2.8333 -0.9625
  201MOL0     H26496   6.541   7.192   3.183 -0.4213  0.7546  0.8467
  201MOL0     H26497   6.322   7.113   3.106  2.4423 -1.2817 -2.9434
  201MOL0     H26498   5.978   7.400   3.054 -3.1920  0.3065  1.2839
  201MOL0     H26499   6.010   7.353   3.222  1.5500  1.1674 -0.4045
  201MOL0     H26500   5.890   7.139   3.171  1.1924 -1.4449 -2.8281
  201MOL0     H26501   5.843   7.203   3.006  0.5796  0.6171 -0.9133
  201MOL0     H26502   5.744   7.397   3.122 -1.4381  0.2872  0.0340
  201MOL0     H26503   5.754   7.330   3.273  1.3516  1.6644 -0.2349
  201MOL0     H26504   5.534   7.320   3.117  1.4383  1.5544 -1.5437
  201MOL0     H26505   5.602   7.167   3.063 -1.2100  0.5435 -0.7034
  201MOL0     H26506   5.549   7.254   3.340 -0.0069  0.4502 -0.3609
  201MOL0     H26507   5.623   7.088   3.315 -0.7012 -0.9749  0.6035
  201MOL0     H26508   5.430   7.011   3.175 -3.8088 -1.2787 -0.2682
  201MOL0     H26509   5.339   7.162   3.195  0.6418 -1.0973 -0.3666
  201MOL0     H26510   5.389   6.950   3.396  0.2136 -0.0235 -2.3087
  201MOL0     H26511   5.430   7.114   3.457  1.4426  1.8616 -1.5401
  201MOL0     H26512   5.214   7.192   3.403  1.2134 -0.6981  0.4506
  201MOL0     H26513   5.197   7.054   3.513  0.0614  0.3819  0.6275
  201MOL0     H26514   6.181   7.516   3.091  1.6378  1.5452  0.2142
  201MOL0     H26515   6.402   7.606   3.152  1.9078 -0.9770 -0.7515
  201MOL0     H26516   6.777   7.386   3.556  0.6691 -1.2033  0.6619
  201MOL0     H26517   7.017   7.429   3.605 -1.5693  2.9977  1.6455
  201MOL0     H26518   8.815   8.226   3.272 -0.5913  1.6303 -0.1005
  201MOL0     H26519   9.010   8.363   3.356  2.3759  1.8453  2.9900
  201MOL0     H26520   9.241   8.775   3.525 -2.0043 -0.2724  0.5214
  201MOL0     H26521   9.449   8.842   3.627 -0.2557 -0.6331  0.3892
  201MOL0     H26522   9.690   8.531   3.644 -0.0134  2.2023 -1.0695
  201MOL0     H26523   9.728   8.510   3.808  1.4861 -0.9911 -0.4093
  201MOL0     H26524   9.919   8.601   3.675  0.0712  0.4677 -1.4261
  201MOL0     H26525   9.829   8.747   3.650  1.7404 -1.3336 -2.0143
  201MOL0     H26526   9.868   8.667   3.946 -0.9472  0.5879  0.1544
  201MOL0     H26527   9.845   8.816   3.866  0.0619 -0.4938  1.2123
  201MOL0     H26528  10.062   8.764   3.734 -2.6028 -2.3359 -0.3068
  201MOL0     H26529  10.067   8.827   3.901  0.3544  0.1070  0.7809
  201MOL0     H26530  10.243   8.448   3.954  1.3572  0.3474 -1.2320
  201MOL0     H26531   9.486   8.458   3.820 -1.6408 -0.5978 -0.6468
  201MOL0     H26532   9.276   8.389   3.726 -0.6629  0.1253 -0.4398
  202MOL0     O26533   0.101  10.057   4.616  0.2212 -0.4529  0.5152
  202MOL0     C26534   0.206  10.027   4.565  0.5399  0.4542  0.7532
  202MOL0     O26535   0.213   9.988   4.431  0.6471  0.9182  0.1814
  202MOL0     C26536   0.097   9.966   4.360  0.3426  0.9616  0.0374
  202MOL0     C26537   0.078  10.012   4.233  0.1825 -0.1276 -0.2494
  202MOL0     C26538  -0.042   9.989   4.159 -1.0987  0.3916 -0.3856
  202MOL0     C26539  -0.130   9.890   4.217 -0.5869  0.5713 -0.3077
  202MOL0     O26540  -0.239   9.878   4.134  0.4912  0.8724 -0.1837
  202MOL0     C26541  -0.358   9.815   4.186  0.4117  0.6384  0.2625
  202MOL0     C26542  -0.462   9.809   4.076  1.0022 -0.5866  0.1826
  202MOL0     C26543  -0.569   9.705   4.096 -0.4916  0.4730 -0.2937
  202MOL0     C26544  -0.666   9.695   3.972  0.3535  1.0510 -0.0930
  202MOL0     C26545  -0.763   9.807   3.978 -0.5684  1.2731  0.1360
  202MOL0     C26546  -0.865   9.795   3.867 -0.0761  0.1619  0.0631
  202MOL0     C26547  -0.948   9.920   3.845  0.4225 -0.1913 -0.1641
  202MOL0     C26548  -1.059   9.953   3.951  0.0380 -0.2986  1.1413
  202MOL0     N26549  -1.159   9.855   3.974 -0.6585  0.6293 -0.8482
  202MOL0     C26550  -1.268   9.829   3.899  0.8316  0.4051  0.5046
  202MOL0     C26551  -1.300   9.701   3.931 -0.0247  1.1841 -0.2157
  202MOL0     C26552  -1.424   9.637   3.885  0.8651  0.3050 -0.1763
  202MOL0     C26553  -1.561   9.678   3.945  0.4350 -1.2901  0.5633
  202MOL0     C26554  -1.597   9.604   4.071  0.7730  0.2220  0.5805
  202MOL0     C26555  -1.712   9.511   4.055  1.4695  0.0707 -0.0433
  202MOL0     O26556  -1.841   9.575   4.026 -0.7921  0.1755 -0.2825
  202MOL0     C26557  -1.953   9.496   4.047  0.4063 -0.3146 -0.0910
  202MOL0     C26558  -1.979   9.391   3.959  0.1402 -0.0248 -0.1392
  202MOL0     C26559  -2.083   9.303   3.991 -0.5294  0.0278 -0.5487
  202MOL0     C26560  -2.172   9.334   4.100 -0.2056 -0.5700 -0.2187
  202MOL0     C26561  -2.282   9.236   4.124  0.3008 -0.3175  0.7393
  202MOL0     O26562  -2.319   9.152   4.023  0.9801 -0.6844 -0.3236
  202MOL0     C26563  -2.419   9.056   4.057 -0.2456 -0.8173  0.3043
  202MOL0     C26564  -2.554   9.088   4.036  0.0404 -0.3742  0.3948
  202MOL0     C26565  -2.649   8.998   4.083 -0.5800  0.1279  1.0956
  202MOL0     C26566  -2.622   8.875   4.135  0.0042  0.6498  0.4003
  202MOL0     O26567  -2.721   8.784   4.164  0.0620 -0.1951  0.7776
  202MOL0     C26568  -2.692   8.644   4.173 -0.8410  0.5122  0.0422
  202MOL0     C26569  -2.631   8.603   4.317  0.1412  0.3320 -0.3462
  202MOL0     C26570  -2.736   8.579   4.422  0.2815 -0.4876 -0.1858
  202MOL0     C26571  -2.661   8.512   4.532  0.3434 -1.2678 -0.5322
  202MOL0     C26572  -2.762   8.453   4.635 -0.4075 -0.0792 -0.3497
  202MOL0     C26573  -2.683   8.427   4.763 -0.0218  0.1260 -0.5640
  202MOL0     C26574  -2.758   8.348   4.873  0.1981  0.1319  0.1580
  202MOL0     C26575  -2.665   8.308   4.986  0.4564 -0.4280  0.3615
  202MOL0    Cl26576  -2.719   8.378   5.146  0.2236 -0.6810  0.3886
  202MOL0     C26577  -2.479   8.850   4.149  0.4839  0.5256 -0.2589
  202MOL0     C26578  -2.381   8.939   4.114  0.0852  0.8284 -0.4503
  202MOL0     O26579  -2.342   9.240   4.228  0.1761 -0.4315 -0.5856
  202MOL0     C26580  -2.147   9.450   4.182  1.0158  0.4693 -0.1247
  202MOL0     C26581  -2.037   9.526   4.158 -0.1995  0.6313  0.0180
  202MOL0     N26582  -1.220   9.657   4.038 -0.0841  0.6294  0.0067
  202MOL0     N26583  -1.134   9.749   4.051 -0.5667 -0.2172 -0.1465
  202MOL0     C26584  -0.094   9.833   4.337 -0.0256 -0.5796  0.5473
  202MOL0     C26585   0.012   9.872   4.412 -0.1754 -0.3535  0.1770
  202MOL0     C26586   0.334  10.041   4.645  0.4974  0.4905  0.6940
  202MOL0     C26587   0.465  10.003   4.592 -0.0415 -0.2751  0.8400
  202MOL0     C26588   0.572  10.007   4.682  0.2790 -0.6765  0.7041
  202MOL0     C26589   0.554  10.032   4.819  0.1702 -0.1413 -0.3934
  202MOL0     O26590   0.665  10.015   4.899 -0.3570  0.0813 -0.1478
  202MOL0     C26591   0.715  10.128   4.966  0.8098  0.7961  0.1598
  202MOL0     C26592   0.756  10.242   4.868 -0.4513 -0.4853  0.1290
  202MOL0     C26593   0.866  10.331   4.930  0.5938  0.5956  0.5910
  202MOL0     C26594   0.912  10.443   4.825 -0.2400  0.5742  0.5376
  202MOL0     C26595   0.812  10.518   4.746 -0.6691 -0.5072  0.3052
  202MOL0     C26596   0.734  10.590   4.688  0.0390 -1.0366 -0.3688
  202MOL0     C26597   0.431  10.073   4.864 -0.2487 -0.3823 -0.4664
  202MOL0     C26598   0.320  10.077   4.779 -0.3419 -1.5140 -0.7996
  202MOL0     H26599   0.144  10.090   4.195 -0.0030  1.3440  2.2265
  202MOL0     H26600  -0.062  10.049   4.071  1.8558  2.2927  0.1113
  202MOL0     H26601  -0.397   9.870   4.272  0.5777  0.1332  0.6681
  202MOL0     H26602  -0.341   9.709   4.211 -1.0779  0.4914  0.7562
  202MOL0     H26603  -0.423   9.794   3.975 -1.2151 -1.2472 -0.6386
  202MOL0     H26604  -0.505   9.910   4.074  1.2184 -0.4915  0.3701
  202MOL0     H26605  -0.630   9.714   4.187  2.4815 -0.4403  1.9496
  202MOL0     H26606  -0.521   9.607   4.089  1.8917  1.6768 -2.0667
  202MOL0     H26607  -0.609   9.692   3.879  0.3345 -0.0212 -0.0790
  202MOL0     H26608  -0.725   9.603   3.977  1.2542  0.3302 -1.8574
  202MOL0     H26609  -0.714   9.901   3.952 -1.2142  1.7374  0.5732
  202MOL0     H26610  -0.802   9.809   4.081 -0.7836  1.0671  0.0586
  202MOL0     H26611  -0.932   9.711   3.889  1.3243 -1.2302 -0.6865
  202MOL0     H26612  -0.809   9.776   3.774  1.7928  1.5747  0.8505
  202MOL0     H26613  -0.886  10.008   3.826 -2.2339  1.9240  0.3801
  202MOL0     H26614  -0.999   9.919   3.748  0.2121  5.1626 -0.4184
  202MOL0     H26615  -1.128  10.019   3.899 -1.6307 -2.2191  0.7774
  202MOL0     H26616  -1.005   9.991   4.039  0.4602 -2.0140  1.6692
  202MOL0     H26617  -1.340   9.889   3.844 -1.2304 -0.2572  2.3315
  202MOL0     H26618  -1.419   9.529   3.898  0.0697  0.2224 -0.5274
  202MOL0     H26619  -1.435   9.654   3.777  1.1733  0.6875 -0.1510
  202MOL0     H26620  -1.641   9.672   3.871  1.1096 -3.2279 -0.0793
  202MOL0     H26621  -1.558   9.780   3.983 -1.3054 -1.0624  0.1508
  202MOL0     H26622  -1.507   9.572   4.125 -0.1730 -0.2440  1.9560
  202MOL0     H26623  -1.641   9.685   4.129 -0.0661  1.4720 -1.6928
  202MOL0     H26624  -1.722   9.456   4.149 -0.4892 -0.6819 -0.6432
  202MOL0     H26625  -1.683   9.445   3.972  1.3412  0.1465 -0.1499
  202MOL0     H26626  -1.908   9.381   3.877  2.3356 -1.0484  1.7665
  202MOL0     H26627  -2.100   9.228   3.915  2.0331 -0.3782 -0.8208
  202MOL0     H26628  -2.587   9.187   4.008  0.6065  0.3779  2.2437
  202MOL0     H26629  -2.750   9.030   4.062 -0.3822  0.9027  1.2826
  202MOL0     H26630  -2.629   8.606   4.093  2.2042 -1.4367  3.0773
  202MOL0     H26631  -2.784   8.587   4.160 -1.0194  0.5588  1.0305
  202MOL0     H26632  -2.564   8.677   4.362 -1.7839  0.3762  2.7444
  202MOL0     H26633  -2.568   8.516   4.295  0.7217  1.4100 -3.5728
  202MOL0     H26634  -2.819   8.521   4.380 -0.3976  2.4688 -3.3910
  202MOL0     H26635  -2.781   8.674   4.451 -0.5426 -0.4498 -1.4572
  202MOL0     H26636  -2.608   8.423   4.496  1.1896 -1.4658  1.1277
  202MOL0     H26637  -2.592   8.579   4.585 -0.3403 -0.3857 -0.7354
  202MOL0     H26638  -2.805   8.365   4.586 -0.2515 -0.7114  0.6180
  202MOL0     H26639  -2.837   8.526   4.667  0.3998 -1.1811  4.9314
  202MOL0     H26640  -2.645   8.523   4.799  2.2229 -1.4442  1.5557
  202MOL0     H26641  -2.587   8.382   4.736  0.8324  1.7832 -0.3819
  202MOL0     H26642  -2.847   8.401   4.909 -0.1279  1.6906 -2.6884
  202MOL0     H26643  -2.798   8.260   4.822 -0.2506  1.5386 -2.0719
  202MOL0     H26644  -2.563   8.326   4.952 -0.3154 -1.3819 -2.9042
  202MOL0     H26645  -2.669   8.199   4.996 -1.3983 -0.6729 -1.9282
  202MOL0     H26646  -2.448   8.753   4.187 -0.2574  0.4057  0.0577
  202MOL0     H26647  -2.279   8.921   4.145 -1.4614 -1.1334  4.4512
  202MOL0     H26648  -2.222   9.471   4.258 -2.8806 -0.9419 -3.2300
  202MOL0     H26649  -2.005   9.606   4.225  2.6389 -1.3583  1.2780
  202MOL0     H26650  -0.171   9.764   4.368 -1.2476 -0.8063 -2.5460
  202MOL0     H26651   0.026   9.820   4.506  0.8916 -0.2390  0.0956
  202MOL0     H26652   0.462   9.966   4.490 -0.6708 -3.4461  1.8885
  202MOL0     H26653   0.668   9.988   4.634  0.6856  2.2232  0.2312
  202MOL0     H26654   0.802  10.093   5.023 -0.7062 -0.9648  1.5523
  202MOL0     H26655   0.640  10.164   5.038  1.3073 -0.3253  1.2863
  202MOL0     H26656   0.787  10.206   4.770 -5.5117 -0.2717 -1.8688
  202MOL0     H26657   0.673  10.309   4.843  0.4598  0.6301  0.0195
  202MOL0     H26658   0.957  10.276   4.956  3.2381  1.5485 -4.9450
  202MOL0     H26659   0.827  10.366   5.026  1.0810 -0.8820  1.3630
  202MOL0     H26660   0.969  10.521   4.876 -0.5448  0.9792  0.2703
  202MOL0     H26661   0.983  10.404   4.751  1.3233  4.3172 -0.1410
  202MOL0     H26662   0.652  10.636   4.638 -0.4415 -0.3404  1.0078
  202MOL0     H26663   0.422  10.090   4.971  1.4093  2.9520 -0.7339
  202MOL0     H26664   0.223  10.083   4.826  0.1172  1.4094  0.0057
  203MOL0     O26665   9.389  10.490   4.102 -0.2148 -0.3069 -0.0500
  203MOL0     C26666   9.382  10.431   4.207 -0.2465 -0.0235 -0.7977
  203MOL0     O26667   9.486  10.410   4.296 -0.8577  0.3196  1.0512
  203MOL0     C26668   9.611  10.475   4.271 -0.4011  0.3306  0.9921
  203MOL0     C26669   9.723  10.415   4.313 -0.6522 -1.1429 -0.5660
  203MOL0     C26670   9.851  10.469   4.289 -0.2324 -1.0739  0.3741
  203MOL0     C26671   9.861  10.603   4.244 -0.1032  0.0691  0.2558
  203MOL0     O26672   9.984  10.665   4.236 -0.1919  0.2821  1.0037
  203MOL0     C26673   9.997  10.797   4.180 -0.4279  0.4854  0.3352
  203MOL0     C26674  10.136  10.846   4.202 -0.2815  0.1922 -0.2575
  203MOL0     C26675  10.147  10.996   4.140  0.2372  0.1363  0.2095
  203MOL0     C26676  10.297  11.023   4.114  0.4217 -0.5332  0.1366
  203MOL0     C26677  10.327  11.162   4.165 -0.3324 -0.1973 -0.7456
  203MOL0     C26678  10.484  11.186   4.173  0.3079 -0.5528  0.4075
  203MOL0     C26679  10.525  11.326   4.187  0.4726  0.9037 -0.3367
  203MOL0     C26680  10.675  11.337   4.172 -0.5300  0.3272  0.2020
  203MOL0     N26681  10.721  11.481   4.199  0.6502  0.9012  0.8969
  203MOL0     C26682  10.710  11.560   4.318  0.5052  0.1679 -0.2290
  203MOL0     C26683  10.779  11.673   4.278  0.3639 -0.1811 -0.9277
  203MOL0     C26684  10.799  11.797   4.364  0.0368 -0.1493  0.0501
  203MOL0     C26685  10.695  11.913   4.334  0.0089 -0.3744 -0.3095
  203MOL0     C26686  10.561  11.888   4.409  0.8096 -0.6827  0.3059
  203MOL0     C26687  10.451  11.975   4.351 -1.4526 -0.2811 -0.0505
  203MOL0     O26688  10.337  11.942   4.429  0.1222  0.1279 -0.7449
  203MOL0     C26689  10.229  12.024   4.412  0.4533 -0.0648 -0.3595
  203MOL0     C26690  10.219  12.103   4.296  0.3149 -0.3255  0.0677
  203MOL0     C26691  10.113  12.187   4.276  1.4780  0.0726 -0.2850
  203MOL0     C26692  10.002  12.182   4.371  0.3954  1.1298 -0.2907
  203MOL0     C26693   9.875  12.260   4.347 -0.0748  0.0867 -1.1536
  203MOL0     O26694   9.775  12.238   4.438  0.0654 -0.6842  0.5433
  203MOL0     C26695   9.672  12.330   4.435  0.0683 -0.1926  0.4064
  203MOL0     C26696   9.654  12.420   4.544  0.3034 -0.1211  0.3940
  203MOL0     C26697   9.536  12.508   4.541 -0.3449  0.2658 -0.2358
  203MOL0     C26698   9.442  12.502   4.431 -0.7446  0.1367 -0.0643
  203MOL0     O26699   9.325  12.561   4.408  0.6245  0.6565 -0.1171
  203MOL0     C26700   9.262  12.634   4.514 -0.1254 -1.2662 -0.8190
  203MOL0     C26701   9.126  12.581   4.544 -0.0752 -0.5188 -0.3271
  203MOL0     C26702   9.128  12.430   4.589 -0.4356  0.3101  0.2377
  203MOL0     C26703   8.978  12.397   4.632 -0.3641 -0.3781  0.6652
  203MOL0     C26704   8.872  12.386   4.516 -0.5890  0.2721  0.4801
  203MOL0     C26705   8.919  12.278   4.411 -0.0848  0.6001 -1.0153
  203MOL0     C26706   8.811  12.279   4.301  0.0083  0.6793 -0.1258
  203MOL0     C26707   8.837  12.157   4.208 -0.4391  0.2997 -0.3287
  203MOL0    Cl26708   8.769  12.009   4.273 -0.4097 -0.1958 -0.6433
  203MOL0     C26709   9.476  12.421   4.323 -0.6136  0.4530 -0.1660
  203MOL0     C26710   9.583  12.328   4.326  0.7081  0.2454 -0.6831
  203MOL0     O26711   9.873  12.351   4.264  0.4390 -0.7318 -0.3861
  203MOL0     C26712  10.013  12.084   4.477 -0.0266 -0.7381  0.3160
  203MOL0     C26713  10.121  12.003   4.497 -0.5979 -0.8051  0.5368
  203MOL0     N26714  10.831  11.661   4.153  0.7407  0.3563 -0.1094
  203MOL0     N26715  10.799  11.547   4.104  0.0222 -0.7771 -1.0881
  203MOL0     C26716   9.745  10.676   4.211 -0.6875  0.2902  1.0077
  203MOL0     C26717   9.627  10.607   4.219  0.6729  0.0150  0.8596
  203MOL0     C26718   9.255  10.370   4.249  0.3343 -0.5578 -0.8107
  203MOL0     C26719   9.150  10.358   4.158 -0.0927 -0.3824  0.0775
  203MOL0     C26720   9.028  10.306   4.202 -0.1190 -0.7748  0.6237
  203MOL0     C26721   9.001  10.264   4.330 -0.5545  0.8907 -0.6045
  203MOL0     O26722   8.877  10.215   4.353  0.1201  0.2754  0.4555
  203MOL0     C26723   8.842  10.186   4.488  0.4023 -0.4598  0.3816
  203MOL0     C26724   8.695  10.142   4.489 -0.2345 -0.6679 -1.0238
  203MOL0     C26725   8.661  10.027   4.389 -0.8067 -1.1552 -0.5339
  203MOL0     C26726   8.530   9.950   4.421  0.0991  0.4146  0.8455
  203MOL0     C26727   8.417  10.020   4.371  0.0552  0.2158 -0.2242
  203MOL0     C26728   8.315  10.069   4.328 -1.1164 -0.4325  0.2508
  203MOL0     C26729   9.103  10.276   4.423 -0.3505 -0.7031  0.0556
  203MOL0     C26730   9.235  10.329   4.384 -0.2546  0.9646 -0.0821
  203MOL0     H26731   9.714  10.321   4.366  1.2741 -0.7314  0.5839
  203MOL0     H26732   9.945  10.424   4.320  1.0828  0.9042 -0.4859
  203MOL0     H26733   9.922  10.868   4.216 -2.0968 -1.7094  1.4345
  203MOL0     H26734   9.977  10.800   4.072  1.0885 -0.5582  0.0006
  203MOL0     H26735  10.189  10.775   4.139 -4.7680 -0.3125 -3.9934
  203MOL0     H26736  10.159  10.848   4.309 -1.2174  1.1732 -0.0477
  203MOL0     H26737  10.100  11.064   4.212 -3.2362  0.4952 -2.1317
  203MOL0     H26738  10.093  11.015   4.047 -2.7141  0.8693  1.9282
  203MOL0     H26739  10.357  10.948   4.167  0.0022 -1.0547 -0.1208
  203MOL0     H26740  10.319  11.010   4.008  2.9007 -1.9997  0.7319
  203MOL0     H26741  10.285  11.183   4.263 -0.7659 -0.5459 -0.8536
  203MOL0     H26742  10.276  11.230   4.097 -0.9837 -0.3105 -0.3716
  203MOL0     H26743  10.526  11.142   4.082 -0.2365  0.0794 -0.1605
  203MOL0     H26744  10.522  11.131   4.260  2.0048  0.8775  0.6192
  203MOL0     H26745  10.486  11.390   4.107 -2.4502  2.0616  1.8223
  203MOL0     H26746  10.489  11.380   4.275 -0.4015 -0.9794  0.5166
  203MOL0     H26747  10.693  11.313   4.067 -2.0528 -0.5144  0.1187
  203MOL0     H26748  10.729  11.268   4.239  1.3592 -0.8963 -2.3994
  203MOL0     H26749  10.668  11.548   4.417  0.4971 -0.8214 -0.3500
  203MOL0     H26750  10.904  11.821   4.350  0.2683 -0.7617  0.6730
  203MOL0     H26751  10.796  11.766   4.469 -3.7585 -1.9075 -0.4110
  203MOL0     H26752  10.672  11.933   4.229 -1.4038 -3.5501 -0.7134
  203MOL0     H26753  10.737  12.005   4.377  1.9084 -0.5435 -1.6849
  203MOL0     H26754  10.552  11.781   4.389  0.2721  0.0504 -4.5638
  203MOL0     H26755  10.563  11.904   4.518 -0.7664  3.1448 -0.0590
  203MOL0     H26756  10.445  11.947   4.246 -0.1175  0.7770 -0.4370
  203MOL0     H26757  10.475  12.081   4.365 -3.0904 -0.1676  2.6884
  203MOL0     H26758  10.299  12.111   4.223  0.6292 -0.5063  0.3866
  203MOL0     H26759  10.113  12.250   4.188  2.5842 -0.2019 -0.4973
  203MOL0     H26760   9.733  12.432   4.617 -1.7861 -0.1119  2.8301
  203MOL0     H26761   9.525  12.570   4.629 -0.4474 -0.4169  0.2368
  203MOL0     H26762   9.263  12.736   4.475 -2.9398 -0.7067  0.3400
  203MOL0     H26763   9.323  12.639   4.605 -2.4489  1.4291  0.7410
  203MOL0     H26764   9.078  12.578   4.445  0.4960  1.4149 -0.7002
  203MOL0     H26765   9.078  12.642   4.621 -0.4592 -2.9037  1.4428
  203MOL0     H26766   9.195  12.403   4.671  1.2397  0.2567 -1.0816
  203MOL0     H26767   9.165  12.365   4.509 -3.1571  1.7868 -2.4430
  203MOL0     H26768   8.975  12.296   4.674 -0.9096  0.1359  1.9352
  203MOL0     H26769   8.948  12.475   4.704  1.3452  1.5345 -0.6019
  203MOL0     H26770   8.866  12.482   4.465  0.3378  1.2515  2.1350
  203MOL0     H26771   8.775  12.370   4.564  0.2048  1.8987  2.7860
  203MOL0     H26772   8.919  12.179   4.456 -4.1061  1.2266  0.7094
  203MOL0     H26773   9.021  12.291   4.372 -0.0109 -2.5501 -2.1346
  203MOL0     H26774   8.709  12.262   4.336 -1.3590  0.6660 -3.7085
  203MOL0     H26775   8.812  12.368   4.238 -1.0127  0.0959 -0.9910
  203MOL0     H26776   8.942  12.133   4.185 -0.1190  3.0936 -2.2374
  203MOL0     H26777   8.789  12.167   4.111 -1.2840 -0.0563  0.0479
  203MOL0     H26778   9.425  12.426   4.227 -0.3249 -0.0790 -0.3514
  203MOL0     H26779   9.600  12.257   4.246  2.5393  2.2630 -2.1882
  203MOL0     H26780   9.932  12.082   4.549 -0.1482 -1.2421  0.1641
  203MOL0     H26781  10.114  11.930   4.578 -0.7820  0.5799  1.8200
  203MOL0     H26782   9.743  10.780   4.181  2.4383  0.3382  0.6125
  203MOL0     H26783   9.540  10.665   4.190  2.1962  0.7861 -2.6081
  203MOL0     H26784   9.173  10.383   4.055  0.3653 -2.9905 -0.5380
  203MOL0     H26785   8.941  10.290   4.140 -0.6278  3.1544  0.0568
  203MOL0     H26786   8.846  10.269   4.560  1.3853 -0.6154  0.5263
  203MOL0     H26787   8.904  10.109   4.534 -1.9120 -1.0063  2.7944
  203MOL0     H26788   8.663  10.117   4.590  0.8437  1.1441 -0.1800
  203MOL0     H26789   8.632  10.230   4.466  0.7236  0.2087 -0.3639
  203MOL0     H26790   8.749   9.963   4.374  2.4301  2.1371  2.4902
  203MOL0     H26791   8.641  10.087   4.300 -0.3457  2.3470  1.5318
  203MOL0     H26792   8.532   9.848   4.383 -0.8639  1.4244 -2.1880
  203MOL0     H26793   8.520   9.935   4.529 -2.0394  0.4978  0.7096
  203MOL0     H26794   8.216  10.104   4.306 -1.4617 -3.2549 -3.7164
  203MOL0     H26795   9.100  10.250   4.528  0.1363 -1.3280 -0.0762
  203MOL0     H26796   9.317  10.342   4.453  0.9263  1.6683 -1.5544
  204MOL0     O26797   5.415   0.668   1.970  0.3843  1.0013 -0.4998
  204MOL0     C26798   5.478   0.601   1.886 -0.1205 -0.3181 -0.6632
  204MOL0     O26799   5.423   0.517   1.789 -0.7638  1.0812 -0.7565
  204MOL0     C26800   5.294   0.519   1.776  0.3574  0.3318  0.1432
  204MOL0     C26801   5.214   0.424   1.830  0.4546 -0.5738  0.2324
  204MOL0     C26802   5.079   0.413   1.785 -0.7761 -0.3336  0.9139
  204MOL0     C26803   5.029   0.495   1.681  0.2041 -0.0436  0.2752
  204MOL0     O26804   4.900   0.462   1.647 -0.0219  0.4593  0.0810
  204MOL0     C26805   4.800   0.546   1.711  0.0458 -0.5009 -0.3515
  204MOL0     C26806   4.710   0.617   1.617 -0.6112 -0.5428  0.1554
  204MOL0     C26807   4.579   0.555   1.609  0.1183  0.3940 -0.5440
  204MOL0     C26808   4.499   0.574   1.735  0.1482 -0.1605 -0.6438
  204MOL0     C26809   4.345   0.545   1.712 -0.7275  0.3676  0.3499
  204MOL0     C26810   4.263   0.544   1.847  0.7813  0.6369  1.0370
  204MOL0     C26811   4.118   0.522   1.807 -0.3836  0.2309 -0.1383
  204MOL0     C26812   4.090   0.372   1.773  0.0261  0.1093 -0.2845
  204MOL0     N26813   3.954   0.307   1.803 -0.1507 -0.2180  0.6796
  204MOL0     C26814   3.833   0.325   1.746  0.6485  0.9269 -0.4534
  204MOL0     C26815   3.766   0.204   1.778 -0.0307  0.3443 -0.4620
  204MOL0     C26816   3.629   0.171   1.733  0.1717 -1.0071 -0.5764
  204MOL0     C26817   3.527   0.275   1.703  0.4268  0.4352 -0.2038
  204MOL0     C26818   3.429   0.226   1.590  0.0115 -0.5445  0.6126
  204MOL0     C26819   3.337   0.334   1.543  0.3701 -0.0097 -1.0273
  204MOL0     O26820   3.296   0.312   1.412 -0.6942  0.0801  0.0734
  204MOL0     C26821   3.188   0.380   1.380 -0.4939 -0.0720 -0.3896
  204MOL0     C26822   3.133   0.501   1.428 -0.5816  0.0303  1.0042
  204MOL0     C26823   3.019   0.551   1.373  1.0013  1.3365  0.9584
  204MOL0     C26824   2.949   0.490   1.266  0.3945 -0.6963  1.7544
  204MOL0     C26825   2.829   0.561   1.209  0.2418 -0.2141  0.3471
  204MOL0     O26826   2.750   0.483   1.130  0.2937 -0.5257  0.5668
  204MOL0     C26827   2.651   0.549   1.056 -1.0827  0.5316 -0.0211
  204MOL0     C26828   2.525   0.550   1.092 -0.0490 -0.0275  0.4315
  204MOL0     C26829   2.421   0.629   1.023  0.0280  0.4232 -0.3749
  204MOL0     C26830   2.465   0.710   0.913 -0.3302  0.8321 -1.4855
  204MOL0     O26831   2.378   0.793   0.856  0.3623 -0.1315  0.2752
  204MOL0     C26832   2.391   0.788   0.710 -0.3593 -0.2193 -0.2756
  204MOL0     C26833   2.435   0.921   0.654  0.0638  0.2920 -0.0250
  204MOL0     C26834   2.474   0.901   0.506  0.0116  0.4040 -0.9009
  204MOL0     C26835   2.480   1.047   0.444 -0.5032 -0.2150  0.2855
  204MOL0     C26836   2.509   1.031   0.288  0.8704  0.1424 -0.2613
  204MOL0     C26837   2.407   1.128   0.205 -0.6136  0.3109 -0.3767
  204MOL0     C26838   2.439   1.144   0.061 -0.1263  0.3442  0.3684
  204MOL0     C26839   2.333   1.208  -0.027  0.5939  0.0972 -0.4772
  204MOL0    Cl26840   2.275   1.376   0.029  0.3625 -0.2624  0.1483
  204MOL0     C26841   2.606   0.703   0.883  0.0743  1.1081  0.4392
  204MOL0     C26842   2.696   0.622   0.948 -0.5274 -0.3272 -1.1152
  204MOL0     O26843   2.817   0.679   1.233 -0.4495 -0.3257 -0.5206
  204MOL0     C26844   2.997   0.368   1.217  0.5121  0.2047 -0.5349
  204MOL0     C26845   3.117   0.322   1.273 -0.3237  0.0506 -0.1712
  204MOL0     N26846   3.849   0.125   1.858 -0.0402 -0.0018  0.3893
  204MOL0     N26847   3.956   0.185   1.867 -0.5462 -0.9908 -0.3998
  204MOL0     C26848   5.112   0.597   1.629  0.8251 -0.7957  0.5117
  204MOL0     C26849   5.244   0.610   1.677 -0.4986  0.0495 -0.1921
  204MOL0     C26850   5.625   0.596   1.897  0.1101 -0.2965  0.2792
  204MOL0     C26851   5.700   0.484   1.860 -0.9933  0.0816  0.9487
  204MOL0     C26852   5.839   0.489   1.883 -0.6933  0.0914 -0.4780
  204MOL0     C26853   5.905   0.602   1.948 -0.5706  0.4551  0.7755
  204MOL0     O26854   6.045   0.626   1.962 -0.2007 -0.4514  0.0998
  204MOL0     C26855   6.135   0.514   1.922  0.3553  0.0441  1.2386
  204MOL0     C26856   6.289   0.546   1.932  0.6673 -0.3402  0.0417
  204MOL0     C26857   6.319   0.590   2.075  0.3110  0.2109 -0.0332
  204MOL0     C26858   6.472   0.593   2.109  0.3104  0.7929 -0.2259
  204MOL0     C26859   6.495   0.459   2.166  0.1610  0.2436 -1.0525
  204MOL0     C26860   6.521   0.355   2.219 -1.3784  0.0618  0.0141
  204MOL0     C26861   5.821   0.706   1.975  0.5068 -0.0892  0.3562
  204MOL0     C26862   5.685   0.700   1.951  0.2095  0.4154 -0.4221
  204MOL0     H26863   5.263   0.359   1.902  0.1433 -1.8021 -0.6306
  204MOL0     H26864   5.028   0.322   1.815  1.1813 -1.2085  1.8580
  204MOL0     H26865   4.855   0.616   1.775 -1.1911  0.0327  0.1475
  204MOL0     H26866   4.749   0.482   1.784 -2.7598  0.5778 -1.2411
  204MOL0     H26867   4.747   0.629   1.515 -1.2079  0.0910  0.0047
  204MOL0     H26868   4.702   0.716   1.663  3.5290  0.7015 -1.2886
  204MOL0     H26869   4.594   0.448   1.590  2.0709  0.6098 -0.3770
  204MOL0     H26870   4.527   0.594   1.521 -2.4646  0.8285  1.0690
  204MOL0     H26871   4.528   0.508   1.817 -0.4266 -0.8962 -1.0225
  204MOL0     H26872   4.512   0.676   1.774  1.8349 -0.6721  0.2288
  204MOL0     H26873   4.336   0.451   1.656 -3.0113  2.2869 -2.8404
  204MOL0     H26874   4.306   0.618   1.640  0.2769 -0.3963 -1.0265
  204MOL0     H26875   4.267   0.643   1.894  4.8314  2.5949 -2.7813
  204MOL0     H26876   4.296   0.465   1.915  0.1763  1.1267  1.9202
  204MOL0     H26877   4.041   0.544   1.882  1.4636  1.0909  1.5675
  204MOL0     H26878   4.089   0.574   1.714  1.6867 -0.4591 -1.2288
  204MOL0     H26879   4.154   0.306   1.832 -2.4802 -2.4506 -0.2751
  204MOL0     H26880   4.113   0.350   1.668  1.6774 -1.1211  0.2931
  204MOL0     H26881   3.800   0.403   1.678  2.4551 -0.4424 -3.0972
  204MOL0     H26882   3.598   0.106   1.816  0.3163  1.1264  1.2651
  204MOL0     H26883   3.639   0.107   1.645 -1.3546  0.9517 -2.2618
  204MOL0     H26884   3.570   0.371   1.673  0.5798  0.2540 -0.5715
  204MOL0     H26885   3.470   0.301   1.793  3.4069  0.8943  1.6716
  204MOL0     H26886   3.486   0.175   1.511 -1.9531 -3.4319  0.8920
  204MOL0     H26887   3.369   0.145   1.632  0.2182 -0.5261  0.9527
  204MOL0     H26888   3.394   0.427   1.548 -2.2203  1.6339  1.7540
  204MOL0     H26889   3.256   0.337   1.617 -1.6357 -1.5586 -3.0095
  204MOL0     H26890   3.175   0.543   1.519 -1.6056 -1.9753  2.4485
  204MOL0     H26891   2.971   0.640   1.412  0.2676  1.0775  0.6691
  204MOL0     H26892   2.511   0.485   1.179 -0.9744  0.1975  0.4663
  204MOL0     H26893   2.315   0.625   1.047  0.3065  0.1013  0.8927
  204MOL0     H26894   2.287   0.773   0.678 -1.9344  1.5065  3.3599
  204MOL0     H26895   2.455   0.709   0.670  2.9412  2.4931 -0.8050
  204MOL0     H26896   2.523   0.961   0.704  1.8309 -2.3124 -0.7991
  204MOL0     H26897   2.359   0.998   0.670  1.2554  1.1379  1.9071
  204MOL0     H26898   2.385   0.851   0.467 -2.3802  2.3661  1.6501
  204MOL0     H26899   2.565   0.844   0.483 -1.5465 -2.7727  0.1762
  204MOL0     H26900   2.388   1.104   0.457 -0.3665  0.1861 -0.4484
  204MOL0     H26901   2.564   1.106   0.482  1.7845 -3.0356 -0.0076
  204MOL0     H26902   2.489   0.931   0.248 -0.6652  0.5676 -0.5969
  204MOL0     H26903   2.615   1.051   0.270  1.0979 -2.3498 -2.2996
  204MOL0     H26904   2.423   1.223   0.258  2.7108 -1.2643  1.8227
  204MOL0     H26905   2.307   1.086   0.211  0.2004 -2.0007 -1.7650
  204MOL0     H26906   2.539   1.186   0.046  0.4373  0.0496  2.8622
  204MOL0     H26907   2.448   1.043   0.019 -1.2482  0.0169  0.8701
  204MOL0     H26908   2.234   1.161  -0.028 -0.1229  1.4947  0.6468
  204MOL0     H26909   2.379   1.205  -0.126 -0.9346 -4.5494 -1.2926
  204MOL0     H26910   2.651   0.770   0.810 -2.4904  0.2711 -2.1015
  204MOL0     H26911   2.804   0.632   0.936 -0.3850  1.7833  1.1403
  204MOL0     H26912   2.946   0.313   1.139  0.6391  0.7479 -1.0075
  204MOL0     H26913   3.148   0.229   1.226 -3.6825 -0.6143 -1.4295
  204MOL0     H26914   5.065   0.649   1.546 -0.4162  2.3831  2.9543
  204MOL0     H26915   5.311   0.690   1.645 -0.4466  0.0531 -0.0764
  204MOL0     H26916   5.658   0.390   1.824 -0.1080  0.4287 -1.0913
  204MOL0     H26917   5.888   0.394   1.865  0.0646  0.2096  0.8510
  204MOL0     H26918   6.117   0.496   1.816  0.2772 -1.1564  1.4442
  204MOL0     H26919   6.102   0.425   1.976 -1.1855  0.0739  0.4195
  204MOL0     H26920   6.353   0.462   1.905 -0.1354 -0.4787 -1.6333
  204MOL0     H26921   6.308   0.623   1.856  1.1790 -2.7457 -2.4646
  204MOL0     H26922   6.259   0.526   2.140 -1.2961 -0.3739 -1.9863
  204MOL0     H26923   6.274   0.689   2.089 -0.3800 -0.0438 -0.4289
  204MOL0     H26924   6.526   0.602   2.015 -0.8851  0.5334 -0.9561
  204MOL0     H26925   6.507   0.675   2.172  0.3562 -0.2826  1.1974
  204MOL0     H26926   6.546   0.271   2.281  2.4588 -0.1240 -1.5332
  204MOL0     H26927   5.872   0.785   2.031 -0.6737  0.6660  0.3931
  204MOL0     H26928   5.613   0.767   1.996  1.3778  0.0579  2.1955
  205MOL0     O26929   7.572   3.551   8.264 -0.2432 -0.2735 -0.0468
  205MOL0     C26930   7.598   3.577   8.382 -0.9689  0.8062  0.4778
  205MOL0     O26931   7.505   3.630   8.466  0.4672 -0.3498  0.4879
  205MOL0     C26932   7.373   3.632   8.425  0.3902  0.3580  0.5585
  205MOL0     C26933   7.314   3.753   8.402  0.2654 -0.0179  1.1157
  205MOL0     C26934   7.174   3.753   8.383 -0.3498 -0.4882 -1.0628
  205MOL0     C26935   7.106   3.637   8.406 -0.7816  0.4598  0.0473
  205MOL0     O26936   6.969   3.655   8.399  0.1247  0.3134  0.0986
  205MOL0     C26937   6.897   3.563   8.319 -0.0583  0.4751  0.4459
  205MOL0     C26938   6.780   3.504   8.396 -0.1363 -0.2819 -0.5113
  205MOL0     C26939   6.728   3.362   8.354  0.3916  0.4322 -0.3612
  205MOL0     C26940   6.613   3.304   8.444 -0.5523 -0.3829  0.2970
  205MOL0     C26941   6.494   3.402   8.468 -0.0921 -0.3806  1.2349
  205MOL0     C26942   6.405   3.366   8.593 -0.2145 -0.0412 -0.0567
  205MOL0     C26943   6.310   3.476   8.631  0.1706  0.4453 -0.1381
  205MOL0     C26944   6.194   3.425   8.732  0.3367 -0.0700 -0.6156
  205MOL0     N26945   6.087   3.530   8.747 -0.4506  0.0343  0.2621
  205MOL0     C26946   5.977   3.514   8.827  0.0636 -0.1756  0.7774
  205MOL0     C26947   5.915   3.641   8.827 -0.5578  0.8067  0.9508
  205MOL0     C26948   5.794   3.683   8.896  0.0689  0.3539 -0.6914
  205MOL0     C26949   5.671   3.703   8.807 -0.0904  1.1525 -0.2414
  205MOL0     C26950   5.685   3.783   8.680  0.0312 -0.6318 -0.0240
  205MOL0     C26951   5.577   3.794   8.581 -0.0011  0.5576 -0.4530
  205MOL0     O26952   5.516   3.661   8.557  0.0309 -0.0385  0.1327
  205MOL0     C26953   5.541   3.578   8.457  0.4910  0.0404  0.0909
  205MOL0     C26954   5.641   3.600   8.357  0.4812  0.1836  0.4923
  205MOL0     C26955   5.659   3.520   8.246 -0.0618  0.0755  0.1080
  205MOL0     C26956   5.580   3.401   8.240 -0.3096  0.7216  0.2077
  205MOL0     C26957   5.604   3.303   8.133 -0.3164 -0.3250  0.9556
  205MOL0     O26958   5.590   3.172   8.156  0.3915 -0.7463  0.3633
  205MOL0     C26959   5.634   3.074   8.064  1.0468 -0.6563  0.7151
  205MOL0     C26960   5.758   3.011   8.076 -0.2640 -0.2535 -0.0764
  205MOL0     C26961   5.791   2.890   8.014 -0.1216  0.5317 -0.1027
  205MOL0     C26962   5.700   2.820   7.936  0.0294 -0.4551 -0.0991
  205MOL0     O26963   5.734   2.699   7.874  0.0368 -0.1178  0.1108
  205MOL0     C26964   5.694   2.686   7.736 -0.0233  0.2429 -0.3140
  205MOL0     C26965   5.783   2.761   7.640  0.5613  0.4641 -0.3925
  205MOL0     C26966   5.918   2.689   7.607  0.4324  0.3974 -0.2942
  205MOL0     C26967   6.021   2.781   7.548  0.2164 -0.4689 -0.3217
  205MOL0     C26968   6.046   2.908   7.643  0.3824 -0.1354  0.9341
  205MOL0     C26969   6.191   2.950   7.627  1.0748 -0.3418 -0.0906
  205MOL0     C26970   6.226   3.082   7.702  0.1949 -0.5287  1.2341
  205MOL0     C26971   6.367   3.138   7.681 -0.0944  0.4685 -0.4922
  205MOL0    Cl26972   6.384   3.297   7.784 -0.0136  0.6102 -0.0513
  205MOL0     C26973   5.574   2.869   7.937  0.2805  0.0439  0.6247
  205MOL0     C26974   5.539   2.997   7.992  0.2584  0.3343 -0.1292
  205MOL0     O26975   5.669   3.343   8.034  0.0870  0.1469  0.3395
  205MOL0     C26976   5.480   3.379   8.340  0.3177  0.3493  0.9342
  205MOL0     C26977   5.453   3.473   8.440  0.7043 -0.0023  0.3976
  205MOL0     N26978   6.012   3.732   8.783  0.5140 -0.6125  0.3410
  205MOL0     N26979   6.112   3.663   8.731  0.1103 -0.4286 -0.7948
  205MOL0     C26980   7.165   3.514   8.429 -0.6997  0.6466  0.7473
  205MOL0     C26981   7.306   3.513   8.433  0.0633 -0.1017  0.1434
  205MOL0     C26982   7.731   3.548   8.438 -0.7649  0.2785 -0.1055
  205MOL0     C26983   7.767   3.535   8.572  1.3414  0.4893 -0.7318
  205MOL0     C26984   7.895   3.508   8.617 -0.1993  0.0923 -0.2865
  205MOL0     C26985   8.003   3.499   8.524 -0.2916  0.1637 -1.3260
  205MOL0     O26986   8.132   3.493   8.579  0.0798 -0.0345  0.1369
  205MOL0     C26987   8.238   3.465   8.485  1.0037 -0.1822  0.1740
  205MOL0     C26988   8.373   3.475   8.558  0.0842 -0.5495  0.4658
  205MOL0     C26989   8.404   3.359   8.643  0.0865  0.3104  0.5274
  205MOL0     C26990   8.491   3.262   8.572 -0.9438  0.5590  0.3307
  205MOL0     C26991   8.639   3.267   8.605 -0.3242 -0.4439  0.7071
  205MOL0     C26992   8.763   3.269   8.615 -0.2921  0.2046 -0.5738
  205MOL0     C26993   7.973   3.499   8.391 -0.4880  0.5968 -0.5140
  205MOL0     C26994   7.842   3.517   8.348 -0.2508 -0.3736  0.1394
  205MOL0     H26995   7.374   3.843   8.395 -2.0434  1.5266 -0.1036
  205MOL0     H26996   7.123   3.845   8.357  0.3448 -1.1639 -5.6003
  205MOL0     H26997   6.960   3.477   8.294  1.0415  0.9251  1.5958
  205MOL0     H26998   6.860   3.610   8.227 -0.0503 -0.2229  0.0783
  205MOL0     H26999   6.698   3.576   8.393  1.1419  1.2277 -0.8039
  205MOL0     H27000   6.822   3.509   8.497 -2.6767 -2.3562  0.7650
  205MOL0     H27001   6.809   3.287   8.350  1.1992  1.2700 -0.0520
  205MOL0     H27002   6.688   3.371   8.253  0.8890 -0.9068 -0.7013
  205MOL0     H27003   6.581   3.208   8.402 -2.3756  0.5275 -0.4859
  205MOL0     H27004   6.651   3.267   8.540  2.3682  1.3351 -0.0772
  205MOL0     H27005   6.431   3.418   8.380  1.2122  1.0447  0.5043
  205MOL0     H27006   6.536   3.502   8.485 -0.1717 -0.5536  2.5900
  205MOL0     H27007   6.474   3.338   8.674  2.1289 -3.1894 -2.8215
  205MOL0     H27008   6.342   3.278   8.580 -3.1498  1.1885  3.9436
  205MOL0     H27009   6.361   3.565   8.669  2.4481  0.2571 -2.4620
  205MOL0     H27010   6.267   3.504   8.534  0.8435 -4.4971 -2.1880
  205MOL0     H27011   6.256   3.390   8.816  2.5854 -2.3303 -3.0283
  205MOL0     H27012   6.151   3.337   8.684 -2.2845 -1.5431  3.8604
  205MOL0     H27013   5.929   3.419   8.845 -0.0501 -1.4267 -4.5128
  205MOL0     H27014   5.805   3.780   8.944 -3.0543  0.9995 -1.0537
  205MOL0     H27015   5.772   3.605   8.969 -1.0938  0.6781 -0.6854
  205MOL0     H27016   5.592   3.738   8.874 -0.5111 -1.7810  0.9601
  205MOL0     H27017   5.637   3.604   8.774 -0.8159  0.4769  2.2924
  205MOL0     H27018   5.716   3.882   8.716 -3.3145 -0.1140  1.9388
  205MOL0     H27019   5.771   3.738   8.631  0.4984  0.7647 -0.5490
  205MOL0     H27020   5.613   3.844   8.490 -0.0686  2.6192  0.5829
  205MOL0     H27021   5.498   3.853   8.627  0.1901  0.0969  0.4878
  205MOL0     H27022   5.695   3.694   8.361  0.6420  0.0662  1.2009
  205MOL0     H27023   5.735   3.533   8.170  2.0407 -2.0648  1.7256
  205MOL0     H27024   5.833   3.058   8.138  0.2961 -1.6872  0.3919
  205MOL0     H27025   5.893   2.855   8.030  0.1735  2.1345  2.0106
  205MOL0     H27026   5.591   2.721   7.733  0.7110  2.9969  1.7435
  205MOL0     H27027   5.685   2.579   7.718  0.7050  0.0970  0.1171
  205MOL0     H27028   5.803   2.860   7.682 -2.1265  1.6118 -1.5766
  205MOL0     H27029   5.738   2.780   7.542 -1.1802 -1.3888 -0.0226
  205MOL0     H27030   5.894   2.605   7.541  1.1341  0.8518 -1.1526
  205MOL0     H27031   5.961   2.663   7.705 -0.6530  1.6807  0.5459
  205MOL0     H27032   6.116   2.728   7.536  0.0952 -0.8194  0.2359
  205MOL0     H27033   6.001   2.811   7.445  1.4181  1.1055 -0.1243
  205MOL0     H27034   6.034   2.878   7.748  3.2278 -2.5833  0.7078
  205MOL0     H27035   5.982   2.987   7.605 -0.0875 -1.2285 -0.6276
  205MOL0     H27036   6.200   2.969   7.520 -0.1006  1.3420  0.0696
  205MOL0     H27037   6.259   2.877   7.671  1.2702 -0.6776 -0.9317
  205MOL0     H27038   6.157   3.158   7.665  3.6326  1.8464 -0.9970
  205MOL0     H27039   6.222   3.070   7.811 -0.5858 -0.6766  1.1958
  205MOL0     H27040   6.392   3.143   7.575  1.0027 -1.1479 -0.3409
  205MOL0     H27041   6.435   3.062   7.720 -1.6758 -0.8526 -0.2050
  205MOL0     H27042   5.488   2.811   7.905  1.0716  0.0709 -1.6830
  205MOL0     H27043   5.437   3.035   7.989  0.3855  0.6511 -0.6314
  205MOL0     H27044   5.409   3.296   8.345 -1.4888  1.9189  3.4901
  205MOL0     H27045   5.382   3.452   8.519  1.4638 -0.1983  1.0429
  205MOL0     H27046   7.106   3.424   8.445  1.4149 -0.5311  2.5260
  205MOL0     H27047   7.357   3.417   8.440  1.7457  0.7975  0.6153
  205MOL0     H27048   7.683   3.543   8.641  0.2371 -0.8124 -1.8710
  205MOL0     H27049   7.916   3.515   8.723 -0.7130  2.9963 -0.3100
  205MOL0     H27050   8.245   3.537   8.403  3.4015  0.9255  1.2719
  205MOL0     H27051   8.236   3.364   8.442  5.2008 -1.6262  2.7840
  205MOL0     H27052   8.440   3.477   8.471  0.8997 -3.5491  0.9286
  205MOL0     H27053   8.382   3.564   8.621 -3.5647  0.4203 -0.1643
  205MOL0     H27054   8.321   3.292   8.666 -0.7111  1.6082  1.5711
  205MOL0     H27055   8.464   3.406   8.722  0.2527  2.7102 -0.9224
  205MOL0     H27056   8.469   3.162   8.611 -1.9489 -1.1460 -3.9508
  205MOL0     H27057   8.466   3.236   8.468  0.6802 -0.0602  0.0602
  205MOL0     H27058   8.870   3.273   8.623 -0.1314  2.3506 -2.6525
  205MOL0     H27059   8.050   3.501   8.315  2.9715  0.0522  2.6783
  205MOL0     H27060   7.814   3.537   8.246 -1.2173  2.0444  0.8190
  206MOL0     O27061   8.242  10.842   0.555 -0.2595 -0.0572 -0.4410
  206MOL0     C27062   8.321  10.750   0.552 -0.4877 -0.1440 -0.4897
  206MOL0     O27063   8.294  10.616   0.537  0.9437  0.5382  0.4889
  206MOL0     C27064   8.160  10.585   0.515  0.4592  0.1902  0.4963
  206MOL0     C27065   8.052  10.613   0.602  0.4761  0.1334 -0.2901
  206MOL0     C27066   7.920  10.557   0.578 -0.5145 -0.6621  0.2203
  206MOL0     C27067   7.903  10.475   0.457  0.1696  0.4991 -0.0532
  206MOL0     O27068   7.789  10.419   0.409 -0.3710 -0.2515  0.3866
  206MOL0     C27069   7.668  10.502   0.419 -0.4326 -0.4261 -0.0179
  206MOL0     C27070   7.644  10.607   0.312  0.1509 -0.5129 -0.4642
  206MOL0     C27071   7.762  10.691   0.279  0.3644  0.2570 -0.5736
  206MOL0     C27072   7.738  10.803   0.176 -0.6817 -0.2193  0.5552
  206MOL0     C27073   7.711  10.749   0.032  1.0299 -0.5727  0.6061
  206MOL0     C27074   7.626  10.851  -0.054  0.4710  0.1251 -0.2125
  206MOL0     C27075   7.477  10.832  -0.032  0.0456  0.0095 -0.6265
  206MOL0     C27076   7.416  10.688  -0.048 -0.9034 -0.4612  0.3469
  206MOL0     N27077   7.269  10.689  -0.036 -0.1938 -0.8638  0.6673
  206MOL0     C27078   7.210  10.709   0.081 -0.4078 -0.4945 -1.1224
  206MOL0     C27079   7.080  10.739   0.046 -0.1537 -0.2589  0.2198
  206MOL0     C27080   6.964  10.745   0.141  0.4186 -0.0815 -0.0714
  206MOL0     C27081   6.822  10.730   0.089 -0.3290  0.0163  1.2481
  206MOL0     C27082   6.796  10.607  -0.005 -0.1928  1.0550 -0.5115
  206MOL0     C27083   6.641  10.579  -0.024  0.4406  0.7342 -0.0914
  206MOL0     O27084   6.597  10.678  -0.117  0.1398  0.0960  1.1290
  206MOL0     C27085   6.466  10.675  -0.144 -0.2775  0.1749 -0.7613
  206MOL0     C27086   6.441  10.756  -0.253  0.4584 -0.0486 -0.3721
  206MOL0     C27087   6.305  10.764  -0.296  0.8710 -0.1895  0.5373
  206MOL0     C27088   6.204  10.695  -0.234  0.9352  1.2148  0.3062
  206MOL0     C27089   6.060  10.709  -0.290  1.2188  0.1364  0.1820
  206MOL0     O27090   6.044  10.761  -0.422  0.3497 -0.0545 -0.2643
  206MOL0     C27091   5.925  10.813  -0.475  0.2104 -0.4599 -0.7815
  206MOL0     C27092   5.927  10.819  -0.613 -0.0868  0.4449 -0.6432
  206MOL0     C27093   5.812  10.866  -0.668 -0.6273 -0.0250  0.5814
  206MOL0     C27094   5.690  10.885  -0.601  0.0759  0.1797 -0.3607
  206MOL0     O27095   5.584  10.926  -0.683  0.0147  0.0729 -0.0486
  206MOL0     C27096   5.458  10.919  -0.621 -0.2128 -0.0122 -0.3609
  206MOL0     C27097   5.352  10.911  -0.731  0.2133  0.1268 -0.7201
  206MOL0     C27098   5.218  10.962  -0.679  0.8666  0.1003  0.7634
  206MOL0     C27099   5.107  10.930  -0.781 -0.2792  0.1892 -0.5360
  206MOL0     C27100   4.973  10.991  -0.732  0.0386  0.7308 -0.2946
  206MOL0     C27101   4.865  10.983  -0.833 -0.1474 -0.0100  0.2391
  206MOL0     C27102   4.728  10.971  -0.762 -0.1505 -0.7652  0.0431
  206MOL0     C27103   4.611  10.991  -0.862  0.0434  0.2164  0.3983
  206MOL0    Cl27104   4.471  10.889  -0.831  0.1934  0.0018  0.0424
  206MOL0     C27105   5.692  10.891  -0.458 -0.1730  0.3856 -0.7959
  206MOL0     C27106   5.814  10.851  -0.393  0.0370 -0.3040  0.4728
  206MOL0     O27107   5.970  10.682  -0.206 -0.2855  0.6517  0.0912
  206MOL0     C27108   6.240  10.608  -0.125  0.1373 -0.5533  0.1566
  206MOL0     C27109   6.371  10.591  -0.081 -0.0447  0.1822 -1.3396
  206MOL0     N27110   7.074  10.739  -0.096  0.0315  0.0482  0.0091
  206MOL0     N27111   7.193  10.716  -0.142 -0.1007  0.0253  0.8647
  206MOL0     C27112   8.013  10.447   0.374  0.0278  0.8689 -0.7951
  206MOL0     C27113   8.137  10.517   0.396  0.0111 -0.2312  0.1212
  206MOL0     C27114   8.469  10.786   0.560 -0.4355  0.4309 -0.8138
  206MOL0     C27115   8.564  10.684   0.534  0.3191  0.0651  0.2608
  206MOL0     C27116   8.697  10.717   0.539  0.3676 -0.7830  1.2860
  206MOL0     C27117   8.750  10.833   0.588 -0.4122 -0.4652  0.3935
  206MOL0     O27118   8.883  10.838   0.591  0.0105 -0.0227  0.4505
  206MOL0     C27119   8.954  10.953   0.549  0.0978 -0.4510 -0.4383
  206MOL0     C27120   9.101  10.914   0.541  0.5129 -0.3389 -0.1061
  206MOL0     C27121   9.156  10.871   0.675  0.2142 -0.3359  0.9953
  206MOL0     C27122   9.234  10.740   0.677  1.5359  1.2908  0.0698
  206MOL0     C27123   9.142  10.623   0.678  0.0668 -0.4483 -0.0967
  206MOL0     C27124   9.051  10.542   0.663 -0.1258 -0.1334 -0.6425
  206MOL0     C27125   8.661  10.934   0.626 -0.1199 -0.2553  0.6947
  206MOL0     C27126   8.523  10.903   0.617  0.0392 -0.4259  0.1005
  206MOL0     H27127   8.071  10.674   0.690  0.2671 -1.0369  0.5916
  206MOL0     H27128   7.838  10.572   0.647  3.0982  3.3110  4.3687
  206MOL0     H27129   7.663  10.556   0.514  0.0157 -1.3400  0.5390
  206MOL0     H27130   7.581  10.437   0.405 -0.3792 -0.0714 -2.3102
  206MOL0     H27131   7.572  10.674   0.359  2.7631 -0.0466  3.3436
  206MOL0     H27132   7.602  10.560   0.222  0.9083  0.3769 -1.3025
  206MOL0     H27133   7.845  10.630   0.242 -1.8813 -3.3816 -0.0774
  206MOL0     H27134   7.798  10.738   0.372 -0.9396 -0.7662  0.4772
  206MOL0     H27135   7.654  10.864   0.211 -1.7853 -0.4797 -1.4585
  206MOL0     H27136   7.822  10.871   0.162 -1.5350  0.4124 -1.9576
  206MOL0     H27137   7.660  10.652   0.041 -0.3668  0.2271  1.8627
  206MOL0     H27138   7.803  10.733  -0.024  0.0787 -0.7464 -0.9746
  206MOL0     H27139   7.667  10.837  -0.155  3.2006  0.5117  0.7800
  206MOL0     H27140   7.641  10.955  -0.027 -0.8748 -0.4198  3.0524
  206MOL0     H27141   7.449  10.871   0.066  1.9531  1.1527 -0.5027
  206MOL0     H27142   7.432  10.894  -0.110 -0.1636  0.0557 -0.4705
  206MOL0     H27143   7.458  10.618   0.025 -0.8512 -1.6097 -0.7597
  206MOL0     H27144   7.448  10.660  -0.149  2.3323 -1.2383  1.4631
  206MOL0     H27145   7.245  10.699   0.183  0.0747  3.3123 -0.7543
  206MOL0     H27146   6.971  10.842   0.190 -1.3128  1.3825 -2.4862
  206MOL0     H27147   6.990  10.674   0.220  3.0684  0.9848  0.1287
  206MOL0     H27148   6.793  10.827   0.046  2.6925  1.2243  1.6880
  206MOL0     H27149   6.767  10.710   0.181 -1.8601  0.0468  0.3721
  206MOL0     H27150   6.848  10.631  -0.098 -1.5623  0.1115 -1.5655
  206MOL0     H27151   6.856  10.527   0.038  0.9745  1.8502 -0.6129
  206MOL0     H27152   6.584  10.595   0.069 -0.5418  0.6796 -0.6644
  206MOL0     H27153   6.616  10.481  -0.067  1.1355 -0.2186  1.5523
  206MOL0     H27154   6.515  10.804  -0.315  0.3372 -1.4400 -1.6426
  206MOL0     H27155   6.297  10.820  -0.388 -0.7430  0.4983  1.0691
  206MOL0     H27156   6.009  10.797  -0.681 -1.2325 -1.3111 -1.5590
  206MOL0     H27157   5.807  10.858  -0.776 -0.0625 -1.3150  0.6345
  206MOL0     H27158   5.437  11.011  -0.566  0.5364 -0.3015  0.4386
  206MOL0     H27159   5.441  10.830  -0.559 -1.9473 -0.2678 -1.1449
  206MOL0     H27160   5.339  10.808  -0.764  0.2535 -0.0066 -0.3200
  206MOL0     H27161   5.394  10.968  -0.815  3.1231  1.0637  1.2139
  206MOL0     H27162   5.216  11.070  -0.661  0.0471 -0.2940  3.5723
  206MOL0     H27163   5.199  10.913  -0.582 -0.9710 -4.5401 -1.6027
  206MOL0     H27164   5.124  10.979  -0.877  0.0474  2.2246  0.5091
  206MOL0     H27165   5.098  10.823  -0.802 -0.6207 -0.4308  2.3857
  206MOL0     H27166   4.980  11.098  -0.710 -3.4221  0.4984  2.7882
  206MOL0     H27167   4.956  10.951  -0.632  1.5884 -5.0878 -1.9552
  206MOL0     H27168   4.886  10.901  -0.902  0.8514 -1.0863  1.7714
  206MOL0     H27169   4.878  11.081  -0.881  1.3112  0.8606  2.2455
  206MOL0     H27170   4.714  10.871  -0.721 -1.0940 -2.3372 -3.6852
  206MOL0     H27171   4.724  11.038  -0.676  1.2929 -1.4088  0.6419
  206MOL0     H27172   4.639  10.974  -0.967  1.3510 -2.7829  1.1571
  206MOL0     H27173   4.586  11.097  -0.847 -0.5575  0.0490  0.5846
  206MOL0     H27174   5.610  10.923  -0.395  0.3548 -1.2502  0.8406
  206MOL0     H27175   5.814  10.849  -0.285 -3.9645 -2.8293  0.6034
  206MOL0     H27176   6.154  10.556  -0.083 -0.3032  0.8461  1.0369
  206MOL0     H27177   6.378  10.528   0.006 -0.9966 -1.7791 -2.6029
  206MOL0     H27178   7.984  10.384   0.290  0.9284 -0.1214 -0.3846
  206MOL0     H27179   8.212  10.500   0.320  0.4944 -1.5763  0.8610
  206MOL0     H27180   8.543  10.587   0.491  3.5399 -1.2966  1.4264
  206MOL0     H27181   8.750  10.624   0.516 -0.0713 -1.1236  1.6218
  206MOL0     H27182   8.942  11.033   0.623 -2.6341 -1.1124 -0.0456
  206MOL0     H27183   8.916  10.988   0.452 -0.9545  1.3376  0.5627
  206MOL0     H27184   9.118  10.836   0.467 -2.5849 -1.0230 -0.2567
  206MOL0     H27185   9.151  11.007   0.511  1.3511 -0.2313  1.5394
  206MOL0     H27186   9.079  10.857   0.751  1.0912  1.4753  2.3014
  206MOL0     H27187   9.211  10.958   0.713  1.6706 -1.0940  0.7306
  206MOL0     H27188   9.305  10.744   0.594  0.4540  1.1961 -0.8802
  206MOL0     H27189   9.285  10.731   0.774 -0.0793 -3.0868  0.7463
  206MOL0     H27190   8.983  10.465   0.633 -0.7764  0.5371 -0.9512
  206MOL0     H27191   8.704  11.028   0.660 -2.5166  1.4854 -0.8114
  206MOL0     H27192   8.448  10.973   0.652  0.9739  0.3731  0.5469
  207MOL0     O27193   3.070   8.709   4.161 -0.1406  0.6043  0.9841
  207MOL0     C27194   3.152   8.702   4.070 -0.4517 -1.2741 -1.3648
  207MOL0     O27195   3.125   8.704   3.941 -0.3518  0.3318  0.3903
  207MOL0     C27196   2.988   8.703   3.897 -0.6269  0.4646 -0.0507
  207MOL0     C27197   2.972   8.791   3.788  0.8609 -0.8112 -0.3986
  207MOL0     C27198   2.848   8.798   3.733 -0.0244 -0.6601 -0.5705
  207MOL0     C27199   2.744   8.713   3.791  0.3395 -1.0948 -0.0411
  207MOL0     O27200   2.621   8.732   3.730  0.2214  0.1471  1.2661
  207MOL0     C27201   2.508   8.647   3.747  0.6218 -0.3475  0.2711
  207MOL0     C27202   2.427   8.660   3.617  0.1271 -0.0130 -0.4494
  207MOL0     C27203   2.294   8.594   3.619 -0.4927  0.1679  0.0916
  207MOL0     C27204   2.224   8.619   3.485  0.3107 -0.1183 -0.1491
  207MOL0     C27205   2.078   8.583   3.498 -0.0851 -0.2310  0.9234
  207MOL0     C27206   2.010   8.591   3.361  1.0987  0.2107 -0.2898
  207MOL0     C27207   1.856   8.575   3.369 -0.2049  0.6915  1.1184
  207MOL0     C27208   1.814   8.503   3.234 -0.0523 -0.7473 -0.5406
  207MOL0     N27209   1.667   8.478   3.244  0.7580  0.3195  0.2472
  207MOL0     C27210   1.595   8.365   3.264 -0.5170  0.5098  0.2567
  207MOL0     C27211   1.463   8.397   3.288  0.3149  0.1972  1.6191
  207MOL0     C27212   1.336   8.318   3.280 -0.4708 -0.0949  0.3494
  207MOL0     C27213   1.318   8.233   3.166 -0.4458  0.0440  0.2369
  207MOL0     C27214   1.195   8.148   3.185 -0.9804  1.1278 -0.1837
  207MOL0     C27215   1.055   8.199   3.171 -0.1048  0.0562  1.0783
  207MOL0     O27216   0.976   8.085   3.176 -0.3918 -0.0485 -1.1376
  207MOL0     C27217   0.841   8.093   3.160 -0.3242  1.4602  0.4167
  207MOL0     C27218   0.771   7.969   3.169  0.3109 -0.1191  0.0653
  207MOL0     C27219   0.631   7.958   3.154 -0.8143  0.8779 -0.5613
  207MOL0     C27220   0.556   8.078   3.136 -0.5732  0.0026 -0.6921
  207MOL0     C27221   0.405   8.063   3.148  0.4538 -0.2870  0.5570
  207MOL0     O27222   0.351   7.944   3.179  0.1989 -0.1555 -0.1529
  207MOL0     C27223   0.212   7.932   3.187  0.4658 -0.6131 -0.1951
  207MOL0     C27224   0.152   7.818   3.134  0.5897 -0.8213 -0.6561
  207MOL0     C27225   0.009   7.812   3.121 -0.0826  0.4284 -0.0767
  207MOL0     C27226  -0.069   7.915   3.171  0.6809  0.0420  0.0720
  207MOL0     O27227  -0.207   7.910   3.166 -0.3581 -0.3354 -0.6701
  207MOL0     C27228  -0.286   7.962   3.277 -1.2625 -0.4991 -0.3020
  207MOL0     C27229  -0.428   7.898   3.302 -0.0216 -0.2138  1.3072
  207MOL0     C27230  -0.420   7.752   3.315 -0.2622  0.6773  0.1563
  207MOL0     C27231  -0.539   7.667   3.368 -0.6997 -0.7899 -0.3185
  207MOL0     C27232  -0.671   7.695   3.298 -1.0897 -0.4588 -0.0384
  207MOL0     C27233  -0.778   7.605   3.357 -0.4810 -0.3414  0.0496
  207MOL0     C27234  -0.895   7.588   3.258  0.7791  0.3002 -0.0206
  207MOL0     C27235  -1.013   7.500   3.310  0.2733 -1.1286  0.5621
  207MOL0    Cl27236  -1.134   7.596   3.401 -0.2434 -0.4754  0.1308
  207MOL0     C27237  -0.006   8.020   3.229 -0.3621  0.6460 -0.8331
  207MOL0     C27238   0.133   8.035   3.238 -1.3924  0.6686 -0.4177
  207MOL0     O27239   0.344   8.156   3.101 -0.5425 -0.1870 -0.2225
  207MOL0     C27240   0.621   8.201   3.134 -0.2953 -0.7246  0.8742
  207MOL0     C27241   0.763   8.207   3.132  0.0024 -0.2445  0.1970
  207MOL0     N27242   1.465   8.535   3.304  0.5348 -0.0030  0.1245
  207MOL0     N27243   1.582   8.577   3.269 -0.9913 -0.2065  0.5550
  207MOL0     C27244   2.761   8.635   3.901 -0.0738  0.3896 -0.0858
  207MOL0     C27245   2.888   8.625   3.956  0.8992 -0.0491 -0.5035
  207MOL0     C27246   3.300   8.697   4.108 -0.1472  0.1629 -0.1080
  207MOL0     C27247   3.338   8.696   4.241 -0.2796  0.3469  0.3968
  207MOL0     C27248   3.475   8.712   4.277 -0.7065 -0.6220  0.6013
  207MOL0     C27249   3.580   8.699   4.180 -0.1016  0.6831 -0.6445
  207MOL0     O27250   3.703   8.698   4.238 -0.2208 -0.1546  0.4776
  207MOL0     C27251   3.808   8.759   4.170  0.1402 -0.1132 -0.3847
  207MOL0     C27252   3.927   8.753   4.264  0.0023  0.0188  0.4594
  207MOL0     C27253   4.038   8.658   4.210 -1.0927 -0.5204  0.2024
  207MOL0     C27254   4.146   8.605   4.299  0.1983 -0.5944 -0.5586
  207MOL0     C27255   4.217   8.724   4.348 -0.7258  0.4062  0.6595
  207MOL0     C27256   4.272   8.830   4.378 -0.0168  0.5189  0.1055
  207MOL0     C27257   3.539   8.686   4.049  0.5116  0.0357 -0.3122
  207MOL0     C27258   3.407   8.693   4.013 -0.1153  0.8685  0.5974
  207MOL0     H27259   3.052   8.857   3.755 -0.6369  0.5757 -1.4233
  207MOL0     H27260   2.830   8.875   3.659 -1.7820  2.8686  3.1590
  207MOL0     H27261   2.441   8.680   3.827 -1.1489  1.9166 -1.9826
  207MOL0     H27262   2.542   8.545   3.769  2.4229 -0.2833 -1.7697
  207MOL0     H27263   2.473   8.605   3.533 -0.7050 -0.9865 -0.2890
  207MOL0     H27264   2.424   8.763   3.580  0.1769 -0.3090 -1.3234
  207MOL0     H27265   2.232   8.628   3.703 -0.8983 -4.6692  2.0787
  207MOL0     H27266   2.311   8.488   3.638  0.8536  0.4042  0.3466
  207MOL0     H27267   2.222   8.726   3.463 -0.9929 -0.3365 -1.2382
  207MOL0     H27268   2.275   8.567   3.403  1.3515 -0.1588  0.5073
  207MOL0     H27269   2.027   8.651   3.568 -0.8911  0.2053 -0.0689
  207MOL0     H27270   2.063   8.480   3.531  2.1337 -0.4738  1.3360
  207MOL0     H27271   2.065   8.536   3.284  1.1859 -2.2089  1.4061
  207MOL0     H27272   2.028   8.695   3.333 -0.6373  0.5754 -0.1675
  207MOL0     H27273   1.820   8.515   3.453 -0.0606  0.7334  1.2089
  207MOL0     H27274   1.796   8.667   3.364 -0.8593  0.4077  3.0362
  207MOL0     H27275   1.868   8.413   3.205 -1.7061 -2.5808  1.7127
  207MOL0     H27276   1.829   8.566   3.145 -1.5589 -0.5434 -0.6774
  207MOL0     H27277   1.619   8.266   3.226  0.6592  0.7388  0.3628
  207MOL0     H27278   1.255   8.388   3.302 -0.9082 -0.3248 -0.5107
  207MOL0     H27279   1.345   8.241   3.357 -0.6497 -0.9371 -0.4516
  207MOL0     H27280   1.406   8.169   3.155  0.1519  0.5533  1.7696
  207MOL0     H27281   1.305   8.288   3.071 -0.7965  2.3052  1.5168
  207MOL0     H27282   1.209   8.084   3.097  4.5530  2.7463 -0.8668
  207MOL0     H27283   1.212   8.083   3.272 -3.0321 -0.4724 -0.8844
  207MOL0     H27284   1.049   8.232   3.067  2.3739 -3.1276 -0.2142
  207MOL0     H27285   1.042   8.275   3.249  0.8223  1.2732  0.0793
  207MOL0     H27286   0.823   7.875   3.183 -0.5816 -0.3630  1.9597
  207MOL0     H27287   0.586   7.859   3.163  1.1070  0.1032  1.6007
  207MOL0     H27288   0.210   7.737   3.091 -0.8844 -1.9969 -0.4945
  207MOL0     H27289  -0.022   7.713   3.089 -0.2480  1.1883 -2.4899
  207MOL0     H27290  -0.292   8.067   3.248  3.5782  0.1954  0.4031
  207MOL0     H27291  -0.229   7.964   3.371 -2.4582 -0.5147  0.4497
  207MOL0     H27292  -0.491   7.920   3.215 -0.4768 -0.3645  1.5933
  207MOL0     H27293  -0.487   7.944   3.383 -2.5976 -1.3836  0.2276
  207MOL0     H27294  -0.328   7.713   3.361 -0.1976  1.1654  0.4422
  207MOL0     H27295  -0.410   7.722   3.210 -1.4804  3.7915 -0.9549
  207MOL0     H27296  -0.515   7.561   3.355  0.1047 -0.9798  2.1467
  207MOL0     H27297  -0.544   7.683   3.477 -0.9905 -2.0931 -0.1260
  207MOL0     H27298  -0.652   7.655   3.198  0.7609  0.0271  0.0739
  207MOL0     H27299  -0.702   7.800   3.293  0.6646  0.0179 -3.0306
  207MOL0     H27300  -0.827   7.650   3.444 -2.1512 -0.6390 -0.7124
  207MOL0     H27301  -0.736   7.512   3.397  2.6461  1.7330  2.0419
  207MOL0     H27302  -0.942   7.685   3.239  0.3862  0.3930  1.3400
  207MOL0     H27303  -0.855   7.535   3.171  0.6741  0.9527 -0.4725
  207MOL0     H27304  -0.979   7.417   3.373  0.0203 -1.9315 -0.3248
  207MOL0     H27305  -1.059   7.466   3.216  0.3599  1.4754 -0.5164
  207MOL0     H27306  -0.064   8.109   3.253  0.5798  1.7365 -2.4071
  207MOL0     H27307   0.174   8.125   3.282  1.4636  0.1243 -1.7139
  207MOL0     H27308   0.577   8.300   3.130  2.2929  0.5304 -4.0707
  207MOL0     H27309   0.808   8.306   3.125 -1.3163  0.6830  3.0810
  207MOL0     H27310   2.681   8.582   3.952  1.2394 -1.6780 -0.0484
  207MOL0     H27311   2.907   8.557   4.038 -1.3158 -0.1599 -0.0128
  207MOL0     H27312   3.256   8.717   4.309 -2.3334  2.0527 -2.4189
  207MOL0     H27313   3.505   8.735   4.378  0.2312  3.8510 -0.4338
  207MOL0     H27314   3.806   8.865   4.144  0.8725  0.1755  0.6431
  207MOL0     H27315   3.827   8.708   4.075  1.6226  0.5735 -0.4800
  207MOL0     H27316   3.979   8.848   4.281 -0.6419  0.9567 -2.2328
  207MOL0     H27317   3.884   8.718   4.358 -1.5539 -0.4498 -0.3781
  207MOL0     H27318   4.082   8.726   4.137 -2.0233  0.5218  0.5787
  207MOL0     H27319   3.997   8.577   4.150  0.4253 -1.2073  0.0461
  207MOL0     H27320   4.105   8.534   4.371 -2.1824 -0.3566 -1.5527
  207MOL0     H27321   4.219   8.550   4.239  1.8139 -2.3636  2.7588
  207MOL0     H27322   4.310   8.930   4.373 -2.6157  1.5561 -1.5824
  207MOL0     H27323   3.619   8.698   3.977  1.3276 -1.3155  0.3328
  207MOL0     H27324   3.385   8.719   3.909 -0.0204 -1.2422  0.0166
  208MOL0     O27325   2.635   6.485   1.709  0.3670 -0.0446  0.0489
  208MOL0     C27326   2.688   6.561   1.793  0.5966  1.0072 -0.3233
  208MOL0     O27327   2.630   6.599   1.908  0.6577  0.2720  0.1998
  208MOL0     C27328   2.501   6.545   1.927 -0.2226 -0.4669 -0.4923
  208MOL0     C27329   2.466   6.474   2.039  0.7470  0.6099 -0.8952
  208MOL0     C27330   2.331   6.450   2.074 -0.6288  0.5891  0.0862
  208MOL0     C27331   2.225   6.489   1.995 -0.5296  0.5548 -0.6395
  208MOL0     O27332   2.104   6.452   2.035  0.9134 -0.3474 -0.0375
  208MOL0     C27333   1.989   6.505   1.967  0.5208 -0.1577  0.5072
  208MOL0     C27334   1.859   6.432   2.008  0.1334  0.2546 -0.4515
  208MOL0     C27335   1.861   6.276   1.993 -0.1546  0.2030 -0.0650
  208MOL0     C27336   1.709   6.225   2.012 -0.3229 -0.4118 -0.5098
  208MOL0     C27337   1.697   6.070   2.007 -0.8415 -1.2498  0.2844
  208MOL0     C27338   1.755   6.008   1.883  0.5259  0.0546 -0.1537
  208MOL0     C27339   1.711   6.067   1.755  0.1405  1.0485 -0.1709
  208MOL0     C27340   1.554   6.075   1.742  0.1013 -0.6045  0.1125
  208MOL0     N27341   1.511   6.120   1.607  0.6127 -0.3450  0.0587
  208MOL0     C27342   1.381   6.149   1.575 -0.3578 -0.5772 -1.2443
  208MOL0     C27343   1.370   6.157   1.438 -0.0291 -0.1051  0.1143
  208MOL0     C27344   1.248   6.186   1.351  0.1689 -0.3725  0.9300
  208MOL0     C27345   1.138   6.083   1.360 -0.6633  0.5725 -0.3335
  208MOL0     C27346   1.003   6.126   1.298  0.2034 -0.7340  0.8580
  208MOL0     C27347   0.894   6.026   1.324 -0.0073  0.7071 -0.5628
  208MOL0     O27348   0.871   6.028   1.472  0.3148 -0.5363 -0.4389
  208MOL0     C27349   0.750   5.994   1.518  0.9305 -0.0658  0.3991
  208MOL0     C27350   0.726   6.011   1.652  0.2824 -0.1800  0.2858
  208MOL0     C27351   0.610   5.958   1.715  0.1650 -0.6705  0.7885
  208MOL0     C27352   0.503   5.894   1.630  0.4578  0.1745 -0.5545
  208MOL0     C27353   0.370   5.872   1.695 -0.3121  0.2496  0.8801
  208MOL0     O27354   0.290   5.809   1.605 -0.1201 -0.5039  0.0325
  208MOL0     C27355   0.161   5.779   1.630  0.5205 -0.0862  0.2843
  208MOL0     C27356   0.058   5.796   1.535  0.0286  0.1649  0.2332
  208MOL0     C27357  -0.086   5.779   1.556  0.0030 -0.3403 -0.5447
  208MOL0     C27358  -0.125   5.727   1.676 -0.0847  0.6484 -0.2359
  208MOL0     O27359  -0.259   5.690   1.698 -0.3107 -0.5305 -0.3376
  208MOL0     C27360  -0.300   5.592   1.796  0.8836 -0.1598  0.2389
  208MOL0     C27361  -0.273   5.451   1.745  0.5908 -0.7801  0.3894
  208MOL0     C27362  -0.413   5.404   1.688  1.2412 -0.0676  0.6793
  208MOL0     C27363  -0.442   5.484   1.555  0.1146  0.0259 -0.0027
  208MOL0     C27364  -0.557   5.416   1.475 -0.0070  0.0796 -0.1228
  208MOL0     C27365  -0.618   5.498   1.366 -0.4671  0.4326  0.2299
  208MOL0     C27366  -0.513   5.560   1.273  0.0341 -0.0259  0.5492
  208MOL0     C27367  -0.493   5.709   1.302 -0.5705 -0.7751  0.3616
  208MOL0    Cl27368  -0.390   5.760   1.157 -0.5555  0.0003 -0.1552
  208MOL0     C27369  -0.022   5.697   1.776 -0.1433 -0.8898  0.3974
  208MOL0     C27370   0.113   5.720   1.756 -0.1377  0.1189  0.2522
  208MOL0     O27371   0.349   5.889   1.811  0.6855 -0.3083 -0.5137
  208MOL0     C27372   0.524   5.888   1.489  0.5152  0.0902  0.5645
  208MOL0     C27373   0.647   5.927   1.436 -0.5889 -0.6001  0.1481
  208MOL0     N27374   1.501   6.139   1.385  1.4416 -0.1254 -0.4981
  208MOL0     N27375   1.574   6.125   1.488 -1.0694 -0.1967 -0.2575
  208MOL0     C27376   2.264   6.558   1.879 -0.1078  0.2257  0.7482
  208MOL0     C27377   2.396   6.589   1.851  0.1740 -0.0193 -0.1967
  208MOL0     C27378   2.824   6.596   1.772 -0.2822 -0.5705  0.8763
  208MOL0     C27379   2.902   6.663   1.868  0.0756 -0.5729  0.6815
  208MOL0     C27380   3.038   6.695   1.844  0.0016 -0.1142  0.7618
  208MOL0     C27381   3.095   6.682   1.708  0.4154 -0.0716 -1.1827
  208MOL0     O27382   3.224   6.717   1.677 -0.1578 -0.1174 -0.1100
  208MOL0     C27383   3.311   6.778   1.777  0.9505  0.3919 -0.7652
  208MOL0     C27384   3.423   6.859   1.722 -0.2677  0.7575  0.7278
  208MOL0     C27385   3.536   6.778   1.671 -0.5904  0.6464  0.5634
  208MOL0     C27386   3.632   6.876   1.611  0.7308  0.4031  0.1285
  208MOL0     C27387   3.758   6.813   1.566  0.6386 -0.4555  0.7345
  208MOL0     C27388   3.858   6.748   1.532  0.3351 -0.5237  0.2420
  208MOL0     C27389   3.011   6.624   1.611  0.1433 -0.3457  0.5519
  208MOL0     C27390   2.884   6.584   1.645 -1.0608 -0.0584  0.1928
  208MOL0     H27391   2.542   6.429   2.101  0.5554  1.7664  0.2098
  208MOL0     H27392   2.302   6.397   2.164 -0.1907 -2.6223 -1.5429
  208MOL0     H27393   2.004   6.494   1.859  3.5602 -1.2517  0.9412
  208MOL0     H27394   1.973   6.611   1.989  0.5638 -0.0396 -0.0050
  208MOL0     H27395   1.778   6.473   1.947  0.9506 -0.1384 -1.8371
  208MOL0     H27396   1.832   6.452   2.113 -1.0650  1.8540 -1.0132
  208MOL0     H27397   1.918   6.228   2.073 -0.0510  0.6346  0.1210
  208MOL0     H27398   1.904   6.249   1.896 -0.9254 -2.6212  0.2893
  208MOL0     H27399   1.674   6.267   2.107  2.1064  0.9863 -0.1203
  208MOL0     H27400   1.645   6.276   1.939 -0.7888  3.7742  2.4672
  208MOL0     H27401   1.591   6.054   2.028 -0.5697 -0.5579  2.4548
  208MOL0     H27402   1.752   6.026   2.090  2.9089  0.5780 -1.0113
  208MOL0     H27403   1.727   5.903   1.898  0.6319  0.0766  0.2093
  208MOL0     H27404   1.863   6.021   1.895  0.6985 -1.8000  0.7567
  208MOL0     H27405   1.752   6.168   1.746  1.2540  0.7205  0.8538
  208MOL0     H27406   1.746   6.013   1.667 -2.5656 -1.4836  0.1588
  208MOL0     H27407   1.523   6.153   1.811 -0.2029 -0.2725 -0.3949
  208MOL0     H27408   1.496   5.987   1.773  0.8867 -1.4970 -0.8571
  208MOL0     H27409   1.300   6.155   1.647 -0.3201 -0.5549 -1.2038
  208MOL0     H27410   1.279   6.201   1.247 -1.8277 -1.3502  0.1460
  208MOL0     H27411   1.203   6.273   1.401  1.8827  0.5673  0.9127
  208MOL0     H27412   1.122   6.066   1.467 -4.5633 -0.9198 -0.9842
  208MOL0     H27413   1.184   5.995   1.314  1.3969  1.1568  0.5046
  208MOL0     H27414   0.978   6.220   1.347 -1.1948 -1.3915  1.4686
  208MOL0     H27415   1.020   6.142   1.191 -0.1431  3.9561  1.2897
  208MOL0     H27416   0.932   5.928   1.295 -0.0984 -0.2367  2.2497
  208MOL0     H27417   0.806   6.054   1.265  0.3995 -0.9513 -2.0326
  208MOL0     H27418   0.801   6.048   1.721  0.7905 -4.6749  2.5135
  208MOL0     H27419   0.600   5.963   1.823 -1.3585 -2.0695  0.7533
  208MOL0     H27420   0.079   5.827   1.433  0.7738 -2.9422 -0.6645
  208MOL0     H27421  -0.154   5.801   1.475 -1.2600 -0.8305  0.3444
  208MOL0     H27422  -0.407   5.612   1.801  0.4642 -1.6902 -1.6462
  208MOL0     H27423  -0.265   5.613   1.898  0.2813  2.4136 -0.0375
  208MOL0     H27424  -0.253   5.388   1.832  1.5708 -0.1942  0.6004
  208MOL0     H27425  -0.187   5.464   1.679 -0.1396  4.8606  0.0574
  208MOL0     H27426  -0.493   5.411   1.763  0.1610  1.4446 -0.5521
  208MOL0     H27427  -0.406   5.298   1.662 -0.0863 -0.0583  0.1963
  208MOL0     H27428  -0.488   5.577   1.589 -0.8604  0.3065 -1.9720
  208MOL0     H27429  -0.351   5.507   1.500 -0.3510  2.2903  0.0989
  208MOL0     H27430  -0.641   5.383   1.537 -0.1015 -0.0379 -0.3099
  208MOL0     H27431  -0.523   5.322   1.430  1.0525  1.0115 -1.3289
  208MOL0     H27432  -0.684   5.574   1.410  0.8299 -0.0641  3.2768
  208MOL0     H27433  -0.686   5.427   1.318 -2.3211 -0.2689  3.5906
  208MOL0     H27434  -0.418   5.506   1.271 -0.2241 -0.4882 -1.4383
  208MOL0     H27435  -0.560   5.550   1.175 -3.0790 -0.8404  1.9990
  208MOL0     H27436  -0.433   5.728   1.392 -0.0773 -4.2147  0.9091
  208MOL0     H27437  -0.587   5.764   1.310 -1.1057 -1.7046  0.5799
  208MOL0     H27438  -0.044   5.639   1.865 -2.5821 -5.4514 -2.7493
  208MOL0     H27439   0.188   5.699   1.831  0.7115  0.3219 -0.5181
  208MOL0     H27440   0.445   5.847   1.426 -0.0058 -0.8134  1.7644
  208MOL0     H27441   0.652   5.908   1.330  2.0971  0.3746  0.0219
  208MOL0     H27442   2.183   6.598   1.820  0.9476  0.9400 -0.2593
  208MOL0     H27443   2.403   6.650   1.761 -0.5110 -0.8514 -0.8216
  208MOL0     H27444   2.864   6.688   1.966 -0.4195  3.7352 -0.4055
  208MOL0     H27445   3.093   6.726   1.932 -0.0303  1.0263  0.4062
  208MOL0     H27446   3.349   6.706   1.851 -2.9173 -0.0266  1.0905
  208MOL0     H27447   3.256   6.855   1.831  0.1622 -1.6389  1.5230
  208MOL0     H27448   3.381   6.929   1.649  0.5640 -0.3680 -0.8810
  208MOL0     H27449   3.458   6.918   1.807 -1.3613 -0.2465  1.9251
  208MOL0     H27450   3.499   6.710   1.594 -1.0848  1.1919  0.3161
  208MOL0     H27451   3.581   6.720   1.752 -0.5950  0.4882  0.4519
  208MOL0     H27452   3.583   6.924   1.527 -0.5483 -1.7368 -0.4251
  208MOL0     H27453   3.651   6.960   1.678 -3.2543  1.7214 -0.1415
  208MOL0     H27454   3.942   6.695   1.492 -0.4055  0.1850 -2.4083
  208MOL0     H27455   3.055   6.618   1.512  0.1630  1.7207  0.3907
  208MOL0     H27456   2.832   6.536   1.562  0.0010 -3.2337  1.1864
  209MOL0     O27457   4.359   4.496   4.586  0.3501  0.3932 -0.0011
  209MOL0     C27458   4.428   4.394   4.581 -0.2477  0.0636  0.0525
  209MOL0     O27459   4.388   4.270   4.535 -0.9176 -0.6541  0.0099
  209MOL0     C27460   4.262   4.230   4.497  0.1842 -1.7571  0.2777
  209MOL0     C27461   4.143   4.305   4.525  0.1482 -0.3392 -0.0555
  209MOL0     C27462   4.020   4.264   4.480 -0.0325  0.1536 -0.3978
  209MOL0     C27463   4.007   4.146   4.407  0.4080 -0.1159  1.2457
  209MOL0     O27464   3.884   4.080   4.371 -0.3157 -0.0149  0.0105
  209MOL0     C27465   3.776   4.105   4.456 -0.5875 -0.2589 -0.0515
  209MOL0     C27466   3.653   4.039   4.392 -0.0808 -0.1052 -0.5871
  209MOL0     C27467   3.645   3.890   4.419  0.1815  0.3932  0.0913
  209MOL0     C27468   3.504   3.832   4.403  0.4653  0.9517 -0.1854
  209MOL0     C27469   3.502   3.682   4.432  0.5874  0.3524 -0.1232
  209MOL0     C27470   3.362   3.646   4.481  0.2391 -0.4607  0.8451
  209MOL0     C27471   3.356   3.505   4.532  0.4300  0.2397  0.4802
  209MOL0     C27472   3.206   3.470   4.587 -0.5767  0.2816 -0.1265
  209MOL0     N27473   3.177   3.549   4.705  0.6589  1.0145 -0.2249
  209MOL0     C27474   3.098   3.654   4.718 -0.7280 -0.9727  0.1303
  209MOL0     C27475   3.109   3.693   4.847  0.7072  0.8520 -0.5215
  209MOL0     C27476   3.045   3.820   4.896 -0.5355  0.5264 -0.6148
  209MOL0     C27477   3.149   3.906   4.958 -0.6432  0.4209 -0.8676
  209MOL0     C27478   3.081   4.000   5.062  0.6173 -0.0059 -0.0138
  209MOL0     C27479   2.987   4.090   4.989  0.2881 -0.1912 -0.1982
  209MOL0     O27480   2.904   4.165   5.074 -0.1202  0.0873 -0.8423
  209MOL0     C27481   2.791   4.116   5.136  0.3418  0.9438 -0.2569
  209MOL0     C27482   2.702   4.214   5.187 -0.6096 -0.5926 -0.3934
  209MOL0     C27483   2.580   4.181   5.249  1.0673 -0.0824  0.7777
  209MOL0     C27484   2.538   4.043   5.252 -0.0762  0.8661 -0.3846
  209MOL0     C27485   2.414   3.998   5.321 -0.0100 -0.1406 -0.1278
  209MOL0     O27486   2.370   3.877   5.281 -0.3814 -0.3522  0.1731
  209MOL0     C27487   2.265   3.820   5.341  0.3417  0.0783 -1.1250
  209MOL0     C27488   2.282   3.691   5.397 -0.2588 -0.3627 -0.1783
  209MOL0     C27489   2.171   3.630   5.470 -0.3386 -0.8901  0.4412
  209MOL0     C27490   2.045   3.682   5.480 -0.1315  0.8648  0.2861
  209MOL0     O27491   1.953   3.626   5.561 -1.4005  0.6361  0.0546
  209MOL0     C27492   1.847   3.576   5.488  0.0127  0.7495  0.8582
  209MOL0     C27493   1.766   3.472   5.559  0.5070 -0.2320 -0.7333
  209MOL0     C27494   1.631   3.445   5.495 -0.0786 -0.5059  0.1601
  209MOL0     C27495   1.552   3.327   5.562  0.6536 -0.0665  0.2528
  209MOL0     C27496   1.406   3.322   5.508  0.4412 -0.4199  0.0422
  209MOL0     C27497   1.322   3.227   5.603  0.5465  0.7983  0.2136
  209MOL0     C27498   1.170   3.209   5.572  0.0609  0.3240 -0.0141
  209MOL0     C27499   1.102   3.086   5.641  0.2745  0.8581 -0.2487
  209MOL0    Cl27500   1.208   2.948   5.622  0.4566  0.4777  0.3652
  209MOL0     C27501   2.028   3.810   5.425 -0.0281 -0.1692 -0.4797
  209MOL0     C27502   2.133   3.876   5.359  0.4178 -0.1513  0.9350
  209MOL0     O27503   2.362   4.076   5.403 -0.4619 -0.4024 -0.1596
  209MOL0     C27504   2.627   3.943   5.206 -0.6498  0.2138 -0.3678
  209MOL0     C27505   2.752   3.983   5.146 -0.6098  1.1085 -0.4880
  209MOL0     N27506   3.199   3.609   4.914 -0.3867 -0.7145  0.6782
  209MOL0     N27507   3.246   3.528   4.824 -0.0750  0.0614  0.6651
  209MOL0     C27508   4.123   4.069   4.370  0.5440 -0.9673  0.6050
  209MOL0     C27509   4.251   4.115   4.409  0.2263  0.2195  0.3984
  209MOL0     C27510   4.569   4.394   4.623 -0.5494 -0.5209 -0.3778
  209MOL0     C27511   4.627   4.515   4.667  0.3552  0.3383  0.8698
  209MOL0     C27512   4.760   4.532   4.706 -0.0726 -0.2236  0.8940
  209MOL0     C27513   4.846   4.426   4.690 -0.6304 -0.2282  0.4987
  209MOL0     O27514   4.975   4.447   4.718 -0.7622  0.3682  0.5344
  209MOL0     C27515   5.069   4.345   4.748 -0.3044  0.1207  0.6957
  209MOL0     C27516   5.207   4.405   4.735 -0.5537 -0.6232 -0.1441
  209MOL0     C27517   5.228   4.541   4.811 -0.5967 -0.1880 -0.1486
  209MOL0     C27518   5.358   4.603   4.785 -0.3031  0.0196  0.5342
  209MOL0     C27519   5.355   4.745   4.825 -0.0340  0.3175  0.7010
  209MOL0     C27520   5.389   4.861   4.858  0.7357  0.0635  0.0762
  209MOL0     C27521   4.802   4.302   4.635  0.7476  0.0538 -0.0398
  209MOL0     C27522   4.659   4.288   4.615 -1.6381  0.5296 -0.2494
  209MOL0     H27523   4.148   4.394   4.587 -1.2108 -0.8514  0.8127
  209MOL0     H27524   3.940   4.328   4.514 -0.8971  0.1156 -2.2422
  209MOL0     H27525   3.764   4.213   4.474  1.0890 -0.2007  0.9256
  209MOL0     H27526   3.807   4.065   4.553 -0.8504 -0.8389 -0.2040
  209MOL0     H27527   3.648   4.065   4.286 -0.2894  2.1947 -0.0591
  209MOL0     H27528   3.557   4.082   4.422 -0.3414  0.0986 -1.6471
  209MOL0     H27529   3.678   3.882   4.522  0.1750  0.7238  0.1216
  209MOL0     H27530   3.718   3.832   4.362 -1.0897 -1.7860  0.5734
  209MOL0     H27531   3.431   3.895   4.455 -1.0745  0.1340 -1.2868
  209MOL0     H27532   3.479   3.840   4.297  0.5682  0.2541 -0.2661
  209MOL0     H27533   3.574   3.652   4.509 -0.7989 -1.3728  0.5688
  209MOL0     H27534   3.521   3.630   4.338 -0.7008  3.4498 -2.2453
  209MOL0     H27535   3.291   3.664   4.400  2.5140 -1.1156 -1.3992
  209MOL0     H27536   3.339   3.716   4.562  0.4271 -0.6312  1.0467
  209MOL0     H27537   3.379   3.452   4.439 -0.8092  1.1601 -0.3770
  209MOL0     H27538   3.431   3.485   4.609  0.2867  1.3383  0.9231
  209MOL0     H27539   3.185   3.370   4.623 -1.8555  1.4200  2.5578
  209MOL0     H27540   3.125   3.494   4.517  1.1206  1.0499 -1.9633
  209MOL0     H27541   3.049   3.710   4.639  3.4678  2.1857 -0.5907
  209MOL0     H27542   2.977   3.786   4.975 -0.1083 -1.5457 -1.0661
  209MOL0     H27543   2.989   3.877   4.821  0.8164  2.5023 -0.2019
  209MOL0     H27544   3.202   3.971   4.888  1.1008  4.0451  3.3606
  209MOL0     H27545   3.216   3.844   5.019 -1.0315  1.8273  1.0805
  209MOL0     H27546   3.017   3.945   5.132 -0.9035  0.8607 -0.6684
  209MOL0     H27547   3.155   4.057   5.118  2.3604 -1.1074 -1.1008
  209MOL0     H27548   2.925   4.040   4.914 -2.2283  2.6835 -0.2512
  209MOL0     H27549   3.036   4.168   4.930 -1.8915  2.1508  0.8840
  209MOL0     H27550   2.733   4.318   5.185 -0.6917 -0.5767 -1.2771
  209MOL0     H27551   2.518   4.262   5.287  0.4203  0.9980 -2.2619
  209MOL0     H27552   2.371   3.630   5.389  0.4928  0.8647 -1.7818
  209MOL0     H27553   2.172   3.536   5.523 -0.9119 -1.0160  0.2395
  209MOL0     H27554   1.879   3.522   5.399  1.7506 -1.5633  2.7549
  209MOL0     H27555   1.783   3.658   5.452 -2.2967 -1.9114 -1.5233
  209MOL0     H27556   1.740   3.511   5.658  0.0288  1.7633 -1.5901
  209MOL0     H27557   1.810   3.374   5.578 -0.6250 -0.9473 -1.6414
  209MOL0     H27558   1.638   3.419   5.389 -0.5108  2.7150 -0.7745
  209MOL0     H27559   1.573   3.538   5.503 -1.8823 -1.6669  1.9298
  209MOL0     H27560   1.602   3.236   5.528 -1.8086 -0.5196 -2.5527
  209MOL0     H27561   1.557   3.338   5.671 -1.4170  1.1217  0.2766
  209MOL0     H27562   1.391   3.287   5.406 -0.2719 -2.2234  0.7245
  209MOL0     H27563   1.374   3.426   5.520 -0.6086 -0.8448  1.1453
  209MOL0     H27564   1.310   3.252   5.709 -3.9227  0.0260  0.0993
  209MOL0     H27565   1.377   3.132   5.596  1.6861  1.5012 -0.6628
  209MOL0     H27566   1.110   3.299   5.588 -0.2952  0.1814 -0.5166
  209MOL0     H27567   1.169   3.180   5.466  0.2636 -0.8543  0.2914
  209MOL0     H27568   1.007   3.064   5.594  1.1614 -0.2201 -1.6158
  209MOL0     H27569   1.085   3.103   5.748  0.7848 -1.1920  0.2046
  209MOL0     H27570   1.942   3.871   5.447  0.2551  0.6493 -1.5957
  209MOL0     H27571   2.124   3.974   5.313  0.8594 -1.3947 -2.0275
  209MOL0     H27572   2.583   3.845   5.192 -1.1148  0.5607 -1.5649
  209MOL0     H27573   2.814   3.908   5.097 -0.6861  0.3124  0.5981
  209MOL0     H27574   4.108   3.989   4.298 -2.7155 -1.2520  1.4158
  209MOL0     H27575   4.338   4.053   4.393  0.2025  0.3626 -0.3179
  209MOL0     H27576   4.565   4.604   4.682  1.1011  0.5885  2.7641
  209MOL0     H27577   4.801   4.617   4.760 -2.4551  0.3806  1.8356
  209MOL0     H27578   5.061   4.253   4.689  3.0080  0.6551 -0.8229
  209MOL0     H27579   5.064   4.321   4.855 -0.6755  0.7731  0.8278
  209MOL0     H27580   5.280   4.344   4.789  0.1039  1.5932  1.6563
  209MOL0     H27581   5.235   4.420   4.630  1.2075 -0.5122  0.3059
  209MOL0     H27582   5.209   4.534   4.919 -1.2860 -0.2775 -0.2699
  209MOL0     H27583   5.153   4.614   4.779 -0.2267  0.4068  0.3157
  209MOL0     H27584   5.427   4.553   4.854 -0.8442  1.4846  2.2081
  209MOL0     H27585   5.384   4.591   4.679  2.5502  1.1387  0.9995
  209MOL0     H27586   5.408   4.962   4.887  0.6321 -0.8838  3.9780
  209MOL0     H27587   4.846   4.204   4.619  2.9594  1.1734 -1.2962
  209MOL0     H27588   4.617   4.194   4.579  0.8998 -0.0311 -1.9987
  210MOL0     O27589   7.457   0.370   2.663 -0.1771  1.2425 -0.2918
  210MOL0     C27590   7.431   0.480   2.701  0.0581 -0.6368 -0.8980
  210MOL0     O27591   7.303   0.517   2.745 -0.5021 -0.1272 -0.2743
  210MOL0     C27592   7.196   0.431   2.715 -0.4736 -0.4762 -0.6632
  210MOL0     C27593   7.173   0.403   2.581  0.6776  0.1230 -0.5095
  210MOL0     C27594   7.074   0.311   2.556  0.3433 -0.6783  0.4696
  210MOL0     C27595   6.981   0.265   2.651  0.0734  0.3936  0.0680
  210MOL0     O27596   6.883   0.173   2.625 -0.4766  0.7111  0.6114
  210MOL0     C27597   6.821   0.162   2.493  0.3449 -0.5981 -0.3859
  210MOL0     C27598   6.668   0.182   2.506  0.7647  0.3148  0.7272
  210MOL0     C27599   6.610   0.081   2.609  0.5175  0.4181  0.6369
  210MOL0     C27600   6.461   0.078   2.612  0.4259 -0.6774  0.0825
  210MOL0     C27601   6.414  -0.041   2.697 -1.3599 -0.2812  0.5113
  210MOL0     C27602   6.461  -0.027   2.843 -1.2367  0.0574 -0.6401
  210MOL0     C27603   6.380  -0.113   2.946  0.7756  1.0755 -0.0571
  210MOL0     C27604   6.246  -0.038   2.971 -0.1849 -0.0820  0.1215
  210MOL0     N27605   6.159  -0.136   3.037  0.2220  0.4698  1.0722
  210MOL0     C27606   6.034  -0.175   2.996 -0.7920 -0.7146  1.6231
  210MOL0     C27607   5.991  -0.269   3.081  0.5766 -0.5425 -0.3038
  210MOL0     C27608   5.851  -0.338   3.112 -0.4547 -0.5521  0.0426
  210MOL0     C27609   5.875  -0.487   3.141 -0.0584 -0.4464 -0.2506
  210MOL0     C27610   5.764  -0.574   3.092  0.5235 -0.0554  0.6024
  210MOL0     C27611   5.631  -0.555   3.158  0.2470 -0.9220 -0.5246
  210MOL0     O27612   5.548  -0.653   3.097 -0.1468  0.3633  0.2979
  210MOL0     C27613   5.414  -0.644   3.102  0.5212 -0.1113  0.4206
  210MOL0     C27614   5.344  -0.713   3.009 -0.7826  0.5624  0.4440
  210MOL0     C27615   5.201  -0.723   3.010 -0.5658  0.6067 -0.1729
  210MOL0     C27616   5.130  -0.647   3.105  0.1009 -0.1866 -0.3893
  210MOL0     C27617   4.981  -0.635   3.091  0.3881 -0.2680  0.2643
  210MOL0     O27618   4.917  -0.709   2.992  0.4794 -0.3953  0.3213
  210MOL0     C27619   4.780  -0.708   2.970  0.1036  0.2778  0.0612
  210MOL0     C27620   4.696  -0.730   3.080  0.2273  1.2132 -0.7731
  210MOL0     C27621   4.560  -0.752   3.059  0.2923 -0.8588  0.1933
  210MOL0     C27622   4.506  -0.741   2.926  0.2118 -0.1438 -0.2791
  210MOL0     O27623   4.371  -0.762   2.903 -0.1209  0.8345  0.0825
  210MOL0     C27624   4.288  -0.800   3.016  0.0529 -0.4537  0.2134
  210MOL0     C27625   4.145  -0.818   2.983  0.2952 -0.2301  0.1036
  210MOL0     C27626   4.062  -0.691   2.985 -0.2611 -0.7412 -0.1944
  210MOL0     C27627   3.918  -0.740   2.954 -0.6181 -0.0259  0.3767
  210MOL0     C27628   3.823  -0.620   2.964  0.2494  0.4597  0.1110
  210MOL0     C27629   3.668  -0.658   2.941 -0.4045  1.0297  0.6376
  210MOL0     C27630   3.580  -0.576   3.030  0.1196  1.0897 -1.0502
  210MOL0     C27631   3.446  -0.637   3.038  1.3217 -0.3300 -1.3080
  210MOL0    Cl27632   3.364  -0.621   2.887 -0.5805 -0.4090  0.0542
  210MOL0     C27633   4.585  -0.719   2.816 -0.0151  0.4048 -0.3812
  210MOL0     C27634   4.726  -0.709   2.841  0.1820 -0.2342 -0.5976
  210MOL0     O27635   4.928  -0.564   3.168 -0.0494 -0.4963 -0.5576
  210MOL0     C27636   5.198  -0.577   3.201 -0.7651 -0.4840  0.4077
  210MOL0     C27637   5.343  -0.574   3.200 -0.3215  0.6876  1.0408
  210MOL0     N27638   6.086  -0.279   3.179  0.0080 -0.4999  0.7377
  210MOL0     N27639   6.189  -0.212   3.142  0.7172  0.6734  0.1456
  210MOL0     C27640   7.004   0.308   2.788 -0.6742  0.0271  0.8395
  210MOL0     C27641   7.113   0.384   2.820  0.3459  0.0341  0.3815
  210MOL0     C27642   7.532   0.583   2.722 -0.5116  0.4970  0.8502
  210MOL0     C27643   7.523   0.680   2.819 -0.0101 -0.4881 -0.1929
  210MOL0     C27644   7.613   0.791   2.812 -0.6166 -0.2654  0.8014
  210MOL0     C27645   7.723   0.791   2.725 -0.6998  0.2369 -1.1511
  210MOL0     O27646   7.813   0.893   2.731  0.1962 -0.0924  0.2949
  210MOL0     C27647   7.954   0.864   2.709  0.5225 -0.9926 -0.4558
  210MOL0     C27648   8.033   0.990   2.759  0.9010  0.1930 -0.4701
  210MOL0     C27649   8.177   0.985   2.733  0.0989  0.2612 -0.3087
  210MOL0     C27650   8.239   1.115   2.789 -0.0703  0.7326 -0.0278
  210MOL0     C27651   8.387   1.100   2.794  0.8792  0.2898 -0.6308
  210MOL0     C27652   8.503   1.075   2.805  0.0258 -0.1605  0.7268
  210MOL0     C27653   7.734   0.684   2.635  0.0450  0.4377 -0.0194
  210MOL0     C27654   7.636   0.586   2.632  0.0997  0.8362  0.3827
  210MOL0     H27655   7.222   0.432   2.489  1.0948 -0.5053 -0.4917
  210MOL0     H27656   7.069   0.259   2.461 -0.1731 -1.0414  0.6961
  210MOL0     H27657   6.850   0.071   2.440  3.3844  0.3384 -0.5404
  210MOL0     H27658   6.862   0.235   2.422 -0.3683  1.1457  0.9421
  210MOL0     H27659   6.620   0.157   2.411  0.8084 -1.1726  1.0691
  210MOL0     H27660   6.648   0.283   2.544  1.3199 -0.1197  2.2326
  210MOL0     H27661   6.652   0.110   2.706  2.5891 -0.1279 -0.0406
  210MOL0     H27662   6.650  -0.015   2.576  0.8746  0.8187 -0.1324
  210MOL0     H27663   6.420   0.166   2.662  0.0139 -0.8765  0.1078
  210MOL0     H27664   6.410   0.072   2.515  1.9616 -0.6027 -0.7642
  210MOL0     H27665   6.456  -0.134   2.658  3.7312  2.4522 -1.6174
  210MOL0     H27666   6.306  -0.051   2.688 -1.2238 -0.0081 -2.4939
  210MOL0     H27667   6.462   0.075   2.881  1.7898 -0.9651  2.5251
  210MOL0     H27668   6.567  -0.056   2.845 -1.2129  0.1628 -0.2732
  210MOL0     H27669   6.368  -0.212   2.902  1.1003  1.0766 -0.1555
  210MOL0     H27670   6.414  -0.130   3.048 -1.9969 -3.6656  0.3434
  210MOL0     H27671   6.200  -0.003   2.878  0.5261  3.1376  0.8581
  210MOL0     H27672   6.268   0.046   3.037 -2.1582  0.6925 -0.1319
  210MOL0     H27673   5.976  -0.133   2.914  0.1757  0.1847  1.3791
  210MOL0     H27674   5.795  -0.332   3.018 -0.2213 -3.0175 -0.3284
  210MOL0     H27675   5.802  -0.283   3.192  1.3813  0.5593  0.4725
  210MOL0     H27676   5.885  -0.492   3.249 -0.9401  1.9510  0.0057
  210MOL0     H27677   5.968  -0.529   3.101 -0.2400 -0.3759 -0.7615
  210MOL0     H27678   5.757  -0.573   2.983 -0.6962  0.3028  0.6618
  210MOL0     H27679   5.797  -0.675   3.118 -2.1867 -2.3462 -3.6802
  210MOL0     H27680   5.601  -0.452   3.140  0.4733 -0.2297  2.4484
  210MOL0     H27681   5.642  -0.569   3.266  3.0638 -0.1432 -0.6377
  210MOL0     H27682   5.405  -0.769   2.939  0.7953  1.8797  0.7117
  210MOL0     H27683   5.155  -0.779   2.929  1.0677 -1.0313 -0.0379
  210MOL0     H27684   4.739  -0.730   3.179 -1.3715  1.2289 -0.0511
  210MOL0     H27685   4.513  -0.776   3.154 -0.0378 -2.5373 -0.3680
  210MOL0     H27686   4.302  -0.728   3.097  0.0798 -0.3669  0.1317
  210MOL0     H27687   4.329  -0.897   3.046  3.8563  0.3057 -1.8354
  210MOL0     H27688   4.108  -0.881   3.065  3.0711 -1.2128  0.7130
  210MOL0     H27689   4.127  -0.870   2.888 -0.1161 -0.3581  0.2489
  210MOL0     H27690   4.100  -0.632   2.901 -1.3442 -1.4758 -1.2370
  210MOL0     H27691   4.071  -0.635   3.079 -0.5667 -0.3973 -0.3662
  210MOL0     H27692   3.908  -0.774   2.851 -1.3783  3.5784 -0.9032
  210MOL0     H27693   3.889  -0.821   3.021 -2.5257  1.0875  0.9893
  210MOL0     H27694   3.847  -0.548   2.885 -0.6994  0.3653 -0.2751
  210MOL0     H27695   3.840  -0.573   3.061  1.1607  0.0681  0.1425
  210MOL0     H27696   3.644  -0.758   2.979  2.8366  0.9682  2.8396
  210MOL0     H27697   3.625  -0.647   2.841  1.7689  0.8213 -0.3560
  210MOL0     H27698   3.625  -0.582   3.129 -1.7846 -4.3998 -0.2019
  210MOL0     H27699   3.567  -0.473   2.995 -0.1058  1.6032  0.4405
  210MOL0     H27700   3.386  -0.573   3.102  0.1208 -2.7440  0.1467
  210MOL0     H27701   3.445  -0.740   3.077 -0.8840 -0.0620 -0.5405
  210MOL0     H27702   4.534  -0.732   2.721 -0.6239  0.5075 -0.0735
  210MOL0     H27703   4.804  -0.697   2.766  0.7080  3.0900  0.3153
  210MOL0     H27704   5.161  -0.494   3.260  0.1125  1.7177 -1.9572
  210MOL0     H27705   5.399  -0.521   3.276  0.3491 -1.9113  2.5163
  210MOL0     H27706   6.950   0.264   2.871 -0.4251 -2.7408 -0.3752
  210MOL0     H27707   7.138   0.402   2.924  3.2103  2.5513 -0.5781
  210MOL0     H27708   7.457   0.679   2.904 -0.7461 -0.2465 -0.7531
  210MOL0     H27709   7.598   0.870   2.885  1.7041  2.1169 -1.1063
  210MOL0     H27710   7.979   0.842   2.604  2.0522 -0.6529 -0.1880
  210MOL0     H27711   7.977   0.772   2.763 -1.1896 -0.8420  0.5722
  210MOL0     H27712   7.979   1.079   2.725 -0.3460 -0.9258 -1.5351
  210MOL0     H27713   8.007   0.977   2.865 -2.1103 -3.1375 -1.4026
  210MOL0     H27714   8.195   0.968   2.627  3.0431  1.9323 -0.1779
  210MOL0     H27715   8.217   0.897   2.785 -0.8226  0.4042  0.6860
  210MOL0     H27716   8.211   1.197   2.722 -1.5211 -1.0815 -1.7635
  210MOL0     H27717   8.194   1.128   2.888 -0.7425  0.0498 -0.2317
  210MOL0     H27718   8.603   1.038   2.816 -0.4125 -1.0072  2.0139
  210MOL0     H27719   7.816   0.703   2.567  0.3756 -0.3988  0.1377
  210MOL0     H27720   7.634   0.531   2.538 -0.0173  0.6970  0.4646
  211MOL0     O27721   0.238   0.802   6.374  0.9460  0.4096 -0.5080
  211MOL0     C27722   0.172   0.812   6.270  0.0362 -0.8176  0.7833
  211MOL0     O27723   0.229   0.837   6.149  0.4248  0.0867  0.2342
  211MOL0     C27724   0.366   0.864   6.145  0.9773 -0.1489  0.4897
  211MOL0     C27725   0.451   0.767   6.087 -0.1456  0.0855 -0.4419
  211MOL0     C27726   0.583   0.796   6.078  0.1850  0.2591 -0.4892
  211MOL0     C27727   0.642   0.916   6.124 -0.4045  0.2123  0.1140
  211MOL0     O27728   0.771   0.946   6.097  0.0119  0.5849  0.5502
  211MOL0     C27729   0.822   1.076   6.146 -0.0230  0.3219 -0.0789
  211MOL0     C27730   0.980   1.073   6.150  0.0834 -0.0973 -0.2290
  211MOL0     C27731   1.035   1.191   6.226 -1.0970  1.2774 -0.0997
  211MOL0     C27732   1.179   1.149   6.246 -0.4712  0.5103 -0.7762
  211MOL0     C27733   1.248   1.287   6.279  0.0202  0.4998 -1.0425
  211MOL0     C27734   1.389   1.274   6.325 -0.0306  0.2472 -0.6196
  211MOL0     C27735   1.450   1.409   6.363 -1.0472  0.7202  0.3684
  211MOL0     C27736   1.609   1.399   6.388  0.0055  0.4447 -0.1859
  211MOL0     N27737   1.681   1.356   6.272  0.1207 -0.6102 -0.7812
  211MOL0     C27738   1.653   1.394   6.147 -0.3428  0.7285 -0.2558
  211MOL0     C27739   1.729   1.316   6.070 -0.4893  0.3502  0.2244
  211MOL0     C27740   1.731   1.320   5.922  0.4818 -0.4649  0.4814
  211MOL0     C27741   1.670   1.193   5.857  0.8312 -0.1729  0.0729
  211MOL0     C27742   1.733   1.174   5.720 -0.2464 -0.4451 -0.4981
  211MOL0     C27743   1.691   1.282   5.613 -0.9685 -0.4162 -0.1754
  211MOL0     O27744   1.553   1.291   5.584  0.3666 -0.7456 -0.2292
  211MOL0     C27745   1.504   1.247   5.464  0.5548  0.9867 -0.0317
  211MOL0     C27746   1.579   1.239   5.343  0.4629 -0.2781  0.3418
  211MOL0     C27747   1.516   1.196   5.225 -0.0557  0.6261  0.3926
  211MOL0     C27748   1.377   1.165   5.232 -0.7306 -0.3113  0.6065
  211MOL0     C27749   1.307   1.104   5.116  1.0483  0.3434  0.9050
  211MOL0     O27750   1.178   1.077   5.141 -0.8084  0.2468 -0.0998
  211MOL0     C27751   1.106   1.009   5.039  0.3117 -1.1868 -1.1504
  211MOL0     C27752   0.972   1.047   5.010  0.3261 -0.1752  0.1607
  211MOL0     C27753   0.895   0.976   4.917  0.6708 -0.0769 -0.2440
  211MOL0     C27754   0.948   0.869   4.849  0.6001  0.1374 -0.2315
  211MOL0     O27755   0.874   0.798   4.759  0.6667 -0.7249  0.0245
  211MOL0     C27756   0.943   0.718   4.664  0.7149  0.3733 -0.2193
  211MOL0     C27757   0.856   0.688   4.541  0.6383  0.2696 -0.6074
  211MOL0     C27758   0.731   0.597   4.566 -0.3569  0.2371  0.2510
  211MOL0     C27759   0.779   0.458   4.604  0.0740  0.4785  0.5885
  211MOL0     C27760   0.663   0.361   4.575 -0.1199 -0.3431  0.2993
  211MOL0     C27761   0.544   0.380   4.668 -0.5276 -0.1941  0.0206
  211MOL0     C27762   0.433   0.297   4.609 -0.0393  0.9879  0.6212
  211MOL0     C27763   0.314   0.294   4.703  0.5450  0.2867  0.0470
  211MOL0    Cl27764   0.181   0.192   4.625 -0.4609 -0.1462 -0.4323
  211MOL0     C27765   1.074   0.822   4.889  0.0248  0.7844  1.1809
  211MOL0     C27766   1.151   0.892   4.980  0.2357  0.7211 -0.2232
  211MOL0     O27767   1.378   1.072   5.018  0.0349 -0.3171  0.5773
  211MOL0     C27768   1.311   1.182   5.353 -0.3283  0.1491  0.8893
  211MOL0     C27769   1.370   1.210   5.468 -0.0624  0.1341  0.3644
  211MOL0     N27770   1.777   1.211   6.149 -0.6043  0.1798 -0.0905
  211MOL0     N27771   1.746   1.238   6.272 -0.8044  0.8998 -0.3064
  211MOL0     C27772   0.557   1.000   6.192  0.5639  0.1955 -0.2959
  211MOL0     C27773   0.418   0.979   6.192 -0.5075 -0.6706  0.4664
  211MOL0     C27774   0.032   0.772   6.281 -0.0791  0.9243 -0.2259
  211MOL0     C27775  -0.069   0.803   6.180  0.3407 -0.0540 -0.5802
  211MOL0     C27776  -0.197   0.784   6.207  0.2747 -0.7335 -0.1669
  211MOL0     C27777  -0.246   0.723   6.320 -1.1938  0.4774  0.2905
  211MOL0     O27778  -0.371   0.716   6.355  0.7741 -0.3378 -0.4862
  211MOL0     C27779  -0.482   0.738   6.269  0.1451  0.9418 -0.3401
  211MOL0     C27780  -0.525   0.879   6.246 -0.0298  0.6678  0.1861
  211MOL0     C27781  -0.645   0.893   6.160  0.3154  0.0416  0.0158
  211MOL0     C27782  -0.659   1.033   6.104 -0.5909 -0.1466  0.0836
  211MOL0     C27783  -0.786   1.042   6.030 -0.2077 -0.0508 -0.6151
  211MOL0     C27784  -0.878   1.060   5.963 -0.2666  0.4631 -0.1837
  211MOL0     C27785  -0.153   0.691   6.417  0.1265 -0.0321  0.3595
  211MOL0     C27786  -0.020   0.719   6.400  0.2591  0.6548  0.3534
  211MOL0     H27787   0.405   0.676   6.051  2.3441 -0.7092 -1.9166
  211MOL0     H27788   0.636   0.714   6.032 -1.8047 -1.1460 -0.3662
  211MOL0     H27789   0.790   1.089   6.250  4.1978  0.7442  1.3612
  211MOL0     H27790   0.786   1.162   6.089  1.2714  0.4760 -0.6931
  211MOL0     H27791   1.021   1.083   6.048  1.9982  2.5997  0.6750
  211MOL0     H27792   1.019   0.983   6.198 -2.9442 -0.5275  1.6438
  211MOL0     H27793   0.982   1.208   6.320 -2.9162 -1.7359 -0.4749
  211MOL0     H27794   1.028   1.275   6.156 -0.8799  1.8828  0.5918
  211MOL0     H27795   1.186   1.072   6.323 -2.5343 -1.8366 -2.7562
  211MOL0     H27796   1.229   1.118   6.154  0.0211  0.3789 -0.4670
  211MOL0     H27797   1.191   1.354   6.344  1.7902  0.7999  0.3045
  211MOL0     H27798   1.248   1.336   6.181 -0.7624  0.5559 -1.0167
  211MOL0     H27799   1.445   1.216   6.251  0.3446  0.2594 -0.3495
  211MOL0     H27800   1.397   1.213   6.415  2.3306 -0.2532 -1.1158
  211MOL0     H27801   1.422   1.477   6.282 -4.6134  1.1016  1.7393
  211MOL0     H27802   1.408   1.446   6.457  0.3464 -0.1269  1.3599
  211MOL0     H27803   1.639   1.332   6.469 -0.8821 -0.1732 -0.3393
  211MOL0     H27804   1.650   1.498   6.406 -0.3997  0.7010 -0.6509
  211MOL0     H27805   1.593   1.481   6.122 -0.7802  0.2487 -0.9454
  211MOL0     H27806   1.833   1.321   5.885  0.1400  1.1422 -0.4996
  211MOL0     H27807   1.676   1.403   5.876 -0.7664 -1.6873 -0.3369
  211MOL0     H27808   1.562   1.188   5.841  0.5299  1.4354  1.3160
  211MOL0     H27809   1.696   1.105   5.916 -0.0660 -0.1738  0.4718
  211MOL0     H27810   1.839   1.149   5.711 -0.0285  1.0791 -3.2547
  211MOL0     H27811   1.692   1.079   5.684  0.1239 -0.3702 -1.1169
  211MOL0     H27812   1.752   1.256   5.527  0.1784  0.2265  0.4222
  211MOL0     H27813   1.737   1.373   5.651 -0.2114 -0.4248 -1.0402
  211MOL0     H27814   1.685   1.261   5.339 -0.0901  2.5007 -1.8811
  211MOL0     H27815   1.573   1.181   5.134  0.0225  0.8797  0.3988
  211MOL0     H27816   0.932   1.133   5.063  0.1184  0.9417 -1.7125
  211MOL0     H27817   0.791   1.006   4.911  0.6897  0.3314  1.2297
  211MOL0     H27818   0.968   0.628   4.721  1.1222  1.7757  1.9020
  211MOL0     H27819   1.032   0.768   4.626  1.1865 -0.6249 -0.4543
  211MOL0     H27820   0.912   0.663   4.451  1.7887 -0.7715  0.3724
  211MOL0     H27821   0.818   0.788   4.518  1.3922  0.3671 -1.4495
  211MOL0     H27822   0.664   0.610   4.480  1.6079  1.0656 -1.2167
  211MOL0     H27823   0.674   0.639   4.650  1.0470  0.5959  1.0622
  211MOL0     H27824   0.863   0.434   4.539 -0.6702  0.3903 -0.3725
  211MOL0     H27825   0.823   0.454   4.704  0.4219  0.3789  0.4326
  211MOL0     H27826   0.682   0.253   4.568 -0.6004 -0.3412 -1.7135
  211MOL0     H27827   0.627   0.390   4.476 -1.7941  2.6410  1.6737
  211MOL0     H27828   0.518   0.486   4.671  1.6104  0.4160 -0.8184
  211MOL0     H27829   0.579   0.361   4.769  2.0964 -0.4494 -0.8588
  211MOL0     H27830   0.390   0.328   4.513  1.2771 -2.7404 -1.3699
  211MOL0     H27831   0.484   0.201   4.594 -1.8433  0.1571 -0.6126
  211MOL0     H27832   0.275   0.394   4.725 -0.7138 -0.2589  0.3970
  211MOL0     H27833   0.328   0.246   4.800 -0.6345 -1.8849 -0.7959
  211MOL0     H27834   1.104   0.724   4.853 -2.1536  0.0778  1.1597
  211MOL0     H27835   1.245   0.849   5.011  0.4025  3.1461  3.2943
  211MOL0     H27836   1.206   1.156   5.359 -1.8888  5.0265 -0.2058
  211MOL0     H27837   1.303   1.200   5.552 -2.7364 -1.9010 -1.8337
  211MOL0     H27838   0.575   1.097   6.236 -1.9699  0.4449  0.3792
  211MOL0     H27839   0.351   1.057   6.226  0.4026  0.4876 -0.3095
  211MOL0     H27840  -0.051   0.850   6.083 -2.5883 -0.8474 -1.6143
  211MOL0     H27841  -0.264   0.828   6.133 -0.0013  0.2150  0.6239
  211MOL0     H27842  -0.569   0.680   6.301  0.4352  1.0890  0.7256
  211MOL0     H27843  -0.451   0.695   6.172  1.4841  0.1198  0.4158
  211MOL0     H27844  -0.550   0.919   6.345 -1.6610  1.5692 -0.5368
  211MOL0     H27845  -0.447   0.937   6.195 -1.1394  1.1410 -1.0421
  211MOL0     H27846  -0.725   0.858   6.225  0.0439  0.4962 -0.0617
  211MOL0     H27847  -0.624   0.827   6.075  0.0588 -1.7630  1.3122
  211MOL0     H27848  -0.647   1.101   6.188  1.7494 -1.3899  0.8357
  211MOL0     H27849  -0.578   1.057   6.034 -1.7829  0.4924 -1.1262
  211MOL0     H27850  -0.965   1.080   5.903  0.5796 -0.6546 -1.8399
  211MOL0     H27851  -0.183   0.639   6.508  1.7247 -1.2935  0.2165
  211MOL0     H27852   0.056   0.698   6.474  0.3497  0.0657  0.0956
  212MOL0     O27853   3.514   8.220   1.133  0.4376  0.5050 -0.5051
  212MOL0     C27854   3.503   8.102   1.098  0.2905 -0.0280  0.2411
  212MOL0     O27855   3.390   8.017   1.101  0.5384 -0.4380 -0.5345
  212MOL0     C27856   3.282   8.054   1.185 -0.0530 -1.4498  0.9520
  212MOL0     C27857   3.181   8.146   1.145 -0.6042  0.4056 -0.7120
  212MOL0     C27858   3.090   8.199   1.235  0.1767  0.1253  0.0634
  212MOL0     C27859   3.072   8.139   1.363 -0.3429  0.3427 -0.6821
  212MOL0     O27860   2.970   8.164   1.451 -0.2882 -0.1489 -0.5048
  212MOL0     C27861   2.894   8.279   1.424 -0.1138 -0.7210  0.1168
  212MOL0     C27862   2.792   8.286   1.534 -0.3177 -0.5231  0.1313
  212MOL0     C27863   2.672   8.198   1.505  0.0457  0.3559  0.1859
  212MOL0     C27864   2.549   8.236   1.588  0.5923  0.0633 -0.7345
  212MOL0     C27865   2.421   8.172   1.537 -0.4445 -0.3931 -0.3028
  212MOL0     C27866   2.313   8.188   1.648  0.0112  0.1577  0.2337
  212MOL0     C27867   2.272   8.058   1.723  0.3797  0.1238 -0.0059
  212MOL0     C27868   2.201   7.950   1.639  0.1312 -0.2311  0.5981
  212MOL0     N27869   2.090   7.995   1.560  0.5871 -0.5888  0.4222
  212MOL0     C27870   1.983   8.078   1.601  0.0951  0.8434 -0.5905
  212MOL0     C27871   1.899   8.089   1.493  0.5173 -0.7734  0.5954
  212MOL0     C27872   1.767   8.154   1.487 -0.1277  0.2524  0.3909
  212MOL0     C27873   1.767   8.311   1.482  0.1306  0.0488 -0.9483
  212MOL0     C27874   1.640   8.379   1.541 -0.0245  0.4921 -0.4360
  212MOL0     C27875   1.539   8.407   1.429  0.0379 -0.1691  0.1525
  212MOL0     O27876   1.430   8.471   1.495 -0.2103 -0.4776  0.4831
  212MOL0     C27877   1.312   8.513   1.424  0.5175 -0.8822 -0.2542
  212MOL0     C27878   1.220   8.594   1.503 -0.0856  0.6591  0.4313
  212MOL0     C27879   1.103   8.636   1.441  0.5193 -0.3071  0.5428
  212MOL0     C27880   1.070   8.598   1.308 -0.2575  0.1858 -0.6857
  212MOL0     C27881   0.938   8.629   1.246 -0.5072  0.2973 -0.3208
  212MOL0     O27882   0.854   8.705   1.313 -0.4492  1.0249  0.4075
  212MOL0     C27883   0.720   8.729   1.279  0.8702 -0.1010 -1.1682
  212MOL0     C27884   0.677   8.858   1.300 -0.1278 -0.6584 -0.0293
  212MOL0     C27885   0.536   8.881   1.282  0.3536  0.0325  0.0760
  212MOL0     C27886   0.454   8.777   1.237 -0.2930 -0.9139  0.2441
  212MOL0     O27887   0.323   8.804   1.219  1.0373  0.4243 -0.0460
  212MOL0     C27888   0.259   8.908   1.300  0.4789 -0.5618 -0.3577
  212MOL0     C27889   0.116   8.873   1.330  0.6714  0.0717 -0.1183
  212MOL0     C27890   0.028   8.877   1.199 -1.0139 -0.2330 -0.3492
  212MOL0     C27891  -0.105   8.816   1.215  0.4604  0.3085  0.5794
  212MOL0     C27892  -0.196   8.836   1.091  0.3810 -0.0564  0.3785
  212MOL0     C27893  -0.339   8.781   1.123 -0.3164 -0.2317 -0.4684
  212MOL0     C27894  -0.435   8.793   1.009 -0.5533  0.6640 -0.5038
  212MOL0     C27895  -0.582   8.770   1.039  0.6970  0.2813 -0.4696
  212MOL0    Cl27896  -0.691   8.825   0.899 -0.0210 -0.2462  0.1166
  212MOL0     C27897   0.497   8.648   1.215 -0.7553 -0.5761 -0.7008
  212MOL0     C27898   0.629   8.630   1.243 -0.5013  0.0700  0.1349
  212MOL0     O27899   0.918   8.577   1.139  0.0456 -0.2166 -0.0548
  212MOL0     C27900   1.168   8.538   1.229 -0.0409 -0.2063 -0.5396
  212MOL0     C27901   1.285   8.492   1.287  0.3801 -0.3260 -0.1039
  212MOL0     N27902   1.969   8.031   1.382  0.5645 -0.5364  0.4806
  212MOL0     N27903   2.072   7.967   1.423 -0.3580 -0.0883 -0.1060
  212MOL0     C27904   3.177   8.043   1.402  0.4804 -0.5172  0.7313
  212MOL0     C27905   3.283   8.007   1.312 -0.2380 -0.6151  0.7167
  212MOL0     C27906   3.624   8.050   1.036 -0.1566 -0.2838 -0.3729
  212MOL0     C27907   3.730   8.134   1.007 -0.1805 -0.0941  0.7305
  212MOL0     C27908   3.850   8.076   0.967  0.5716  0.3320  0.1320
  212MOL0     C27909   3.869   7.939   0.959 -0.1453 -0.5451  0.0914
  212MOL0     O27910   3.994   7.896   0.944 -0.3989  0.4356  0.0824
  212MOL0     C27911   4.062   7.809   1.032 -1.5742  0.5864  0.4676
  212MOL0     C27912   4.209   7.798   0.973  0.7911  0.1152  0.1513
  212MOL0     C27913   4.314   7.741   1.064  0.0259  0.2624  0.5368
  212MOL0     C27914   4.455   7.723   0.990 -0.0433 -0.1865  0.3084
  212MOL0     C27915   4.452   7.604   0.904  0.4621  0.7666 -0.7112
  212MOL0     C27916   4.422   7.505   0.831 -0.0875  0.0524  0.1222
  212MOL0     C27917   3.769   7.857   0.999  0.2479 -0.4239 -0.6008
  212MOL0     C27918   3.646   7.909   1.040  0.3827 -0.8006 -0.3247
  212MOL0     H27919   3.183   8.171   1.040 -2.9902  1.3761 -0.5977
  212MOL0     H27920   3.030   8.280   1.194  1.2978  1.5414  1.0912
  212MOL0     H27921   2.858   8.276   1.320  3.8017 -2.3073 -1.3871
  212MOL0     H27922   2.974   8.353   1.430  1.8839 -2.8761  1.3717
  212MOL0     H27923   2.738   8.382   1.536 -1.6607 -1.2733  0.9626
  212MOL0     H27924   2.850   8.274   1.626  1.0154 -0.4439 -0.6859
  212MOL0     H27925   2.693   8.091   1.515  1.9753  0.5835 -0.9424
  212MOL0     H27926   2.652   8.207   1.398 -0.7370  0.4896  0.3344
  212MOL0     H27927   2.571   8.218   1.694  1.7188  1.9501 -0.6037
  212MOL0     H27928   2.530   8.343   1.577 -0.4599  0.0651  0.7456
  212MOL0     H27929   2.437   8.065   1.529 -1.7676 -0.6111 -0.2090
  212MOL0     H27930   2.401   8.215   1.439  3.3787  1.5442 -0.4271
  212MOL0     H27931   2.224   8.221   1.594 -0.4909 -2.9132 -1.0292
  212MOL0     H27932   2.330   8.267   1.722 -1.5563 -0.0778  0.8933
  212MOL0     H27933   2.365   8.013   1.761  1.5721  0.5555 -2.2195
  212MOL0     H27934   2.202   8.079   1.804  1.4198 -2.3297  1.6421
  212MOL0     H27935   2.168   7.881   1.717 -1.0511  0.1378  0.4343
  212MOL0     H27936   2.266   7.896   1.570  1.5800  0.2394  1.5237
  212MOL0     H27937   1.978   8.111   1.704  0.6052  0.6947 -0.5148
  212MOL0     H27938   1.711   8.126   1.577 -1.4302  4.1276  0.9479
  212MOL0     H27939   1.716   8.108   1.402  0.2661  1.9826 -0.8330
  212MOL0     H27940   1.784   8.336   1.377  0.1062  1.2066 -0.6814
  212MOL0     H27941   1.854   8.344   1.540 -0.6097  1.7356 -0.7454
  212MOL0     H27942   1.596   8.318   1.620 -0.4332  0.3689 -0.7548
  212MOL0     H27943   1.670   8.480   1.573 -0.3307  0.2651  0.5853
  212MOL0     H27944   1.503   8.312   1.390 -1.0978 -0.0267  0.8020
  212MOL0     H27945   1.598   8.467   1.358  1.1378 -1.2969  0.0836
  212MOL0     H27946   1.239   8.594   1.609 -1.8330 -3.5352  0.9426
  212MOL0     H27947   1.029   8.683   1.505 -2.0605 -0.1963 -2.2946
  212MOL0     H27948   0.736   8.925   1.362 -1.2792 -1.0512  1.5610
  212MOL0     H27949   0.498   8.982   1.298 -1.5661 -0.8572  1.4549
  212MOL0     H27950   0.255   8.996   1.235  0.7009  1.8347  2.5932
  212MOL0     H27951   0.319   8.934   1.388 -1.4438  0.9310  0.5935
  212MOL0     H27952   0.073   8.935   1.409  1.4759  0.8010 -0.2368
  212MOL0     H27953   0.111   8.769   1.361  1.9884  0.4255  1.4170
  212MOL0     H27954   0.095   8.821   1.133  2.5693  1.3090  1.6887
  212MOL0     H27955   0.015   8.979   1.161 -0.1338 -1.0841 -3.1652
  212MOL0     H27956  -0.097   8.709   1.231 -1.6532  0.1850  1.1267
  212MOL0     H27957  -0.160   8.854   1.301 -2.4231  0.2582 -1.1082
  212MOL0     H27958  -0.160   8.782   1.003  1.0342  1.5734 -0.3802
  212MOL0     H27959  -0.205   8.940   1.059  1.0720 -0.3239 -0.7405
  212MOL0     H27960  -0.377   8.817   1.219 -0.6319 -1.8196  0.0439
  212MOL0     H27961  -0.330   8.674   1.146  0.3928  0.1854  1.4446
  212MOL0     H27962  -0.424   8.898   0.979 -3.1017  0.9166 -0.7183
  212MOL0     H27963  -0.403   8.724   0.931  1.3967 -1.9832  2.3641
  212MOL0     H27964  -0.596   8.842   1.120  1.9591 -1.1497  1.0693
  212MOL0     H27965  -0.605   8.669   1.074  0.4577  1.2038  2.2391
  212MOL0     H27966   0.434   8.565   1.184  0.3185 -1.7237  0.0923
  212MOL0     H27967   0.672   8.533   1.217  1.6615  0.9952  0.0965
  212MOL0     H27968   1.162   8.518   1.122  1.8982 -1.2930 -0.4985
  212MOL0     H27969   1.356   8.440   1.223  0.4101  1.3391 -1.5084
  212MOL0     H27970   3.171   7.996   1.499 -4.5950  0.0622  0.9663
  212MOL0     H27971   3.364   7.944   1.347  2.4160  1.6354 -0.9703
  212MOL0     H27972   3.728   8.242   0.995 -0.8957 -0.2035 -0.2508
  212MOL0     H27973   3.932   8.128   0.919 -0.5845  2.2381  0.1084
  212MOL0     H27974   4.018   7.709   1.039  2.9760 -1.7817 -0.3055
  212MOL0     H27975   4.069   7.851   1.133  2.4263 -0.6982  0.8930
  212MOL0     H27976   4.190   7.727   0.892 -0.4402 -0.6412  1.0607
  212MOL0     H27977   4.251   7.897   0.950  1.4465 -0.4082 -1.0294
  212MOL0     H27978   4.273   7.647   1.101 -3.1258  0.8599 -1.1898
  212MOL0     H27979   4.316   7.802   1.155 -2.3585 -3.2741  3.2710
  212MOL0     H27980   4.476   7.812   0.929  1.7284  0.2425  1.4704
  212MOL0     H27981   4.530   7.720   1.070  1.6639  2.8505 -0.9760
  212MOL0     H27982   4.390   7.435   0.756 -2.3310  1.5912 -0.4383
  212MOL0     H27983   3.800   7.753   1.004  1.8779  0.0621  0.2375
  212MOL0     H27984   3.573   7.836   1.074  2.2833 -3.1968 -1.0639
  213MOL0     O27985   6.063   8.532   8.978  0.2065 -0.8110  0.2156
  213MOL0     C27986   6.006   8.451   9.054  0.4181 -0.1811  0.3957
  213MOL0     O27987   6.066   8.362   9.120  0.2814  0.4702 -0.0708
  213MOL0     C27988   6.194   8.377   9.150 -0.4774  0.4491 -0.3945
  213MOL0     C27989   6.229   8.446   9.269 -0.2053 -0.1125  0.7070
  213MOL0     C27990   6.362   8.446   9.312  0.0540 -0.0503 -0.0426
  213MOL0     C27991   6.462   8.372   9.244  0.0019 -0.2623  0.3306
  213MOL0     O27992   6.588   8.365   9.297 -0.3537 -0.2675  0.0109
  213MOL0     C27993   6.692   8.372   9.205  0.0397  0.6494  0.5873
  213MOL0     C27994   6.828   8.368   9.262 -0.7206 -0.8068 -0.0567
  213MOL0     C27995   6.867   8.496   9.342 -0.3828 -0.3696 -0.3134
  213MOL0     C27996   6.860   8.638   9.274  0.9421 -0.8986 -0.4644
  213MOL0     C27997   6.809   8.736   9.387 -0.4835  1.0970  0.8932
  213MOL0     C27998   6.782   8.873   9.331  0.4019 -0.5345  0.1684
  213MOL0     C27999   6.710   8.960   9.433 -0.0266 -0.6388  0.4077
  213MOL0     C28000   6.729   9.114   9.404  0.6128 -0.5208  0.1322
  213MOL0     N28001   6.686   9.155   9.270  0.0479  0.2602  0.1331
  213MOL0     C28002   6.562   9.210   9.232  0.7795 -0.5741 -1.5561
  213MOL0     C28003   6.581   9.253   9.109  0.0835 -0.5195  0.4416
  213MOL0     C28004   6.467   9.311   9.016 -0.4680 -0.3747 -1.4676
  213MOL0     C28005   6.326   9.260   9.033 -0.1605  0.4969  0.0435
  213MOL0     C28006   6.233   9.320   8.931 -0.3751  0.3602  0.0302
  213MOL0     C28007   6.093   9.269   8.934  0.6718 -0.5509  0.5211
  213MOL0     O28008   6.029   9.257   9.062  0.5737  0.1730  0.0310
  213MOL0     C28009   5.891   9.222   9.074 -0.6787 -0.2222  0.0643
  213MOL0     C28010   5.842   9.232   9.202 -0.7518  1.1457 -0.1343
  213MOL0     C28011   5.706   9.201   9.233  0.1232  1.1335 -0.3018
  213MOL0     C28012   5.623   9.157   9.126 -0.4031 -0.8394  0.1325
  213MOL0     C28013   5.488   9.139   9.147  1.0403  0.6203  0.7042
  213MOL0     O28014   5.427   9.204   9.247  0.1175 -0.2667  0.1253
  213MOL0     C28015   5.290   9.195   9.265  0.1370  0.0267  1.0298
  213MOL0     C28016   5.200   9.234   9.165  0.6384 -0.2448 -0.0670
  213MOL0     C28017   5.060   9.225   9.187 -0.0120 -0.2488 -0.7658
  213MOL0     C28018   5.009   9.198   9.318 -0.2888  1.2853 -0.1232
  213MOL0     O28019   4.875   9.201   9.333  0.3627 -0.0708 -0.5323
  213MOL0     C28020   4.813   9.117   9.425 -1.0620 -0.5099 -0.3020
  213MOL0     C28021   4.672   9.100   9.380 -0.0953 -0.2169 -0.4730
  213MOL0     C28022   4.597   9.000   9.467  0.1340 -0.4719 -1.1560
  213MOL0     C28023   4.453   9.012   9.478  0.7836 -0.7824  0.4103
  213MOL0     C28024   4.382   8.887   9.532  0.4551 -0.7283  0.5913
  213MOL0     C28025   4.416   8.857   9.671 -0.3173 -0.1165  0.0918
  213MOL0     C28026   4.342   8.730   9.729  0.2922  0.0059 -0.5009
  213MOL0     C28027   4.198   8.774   9.757 -0.5083  0.3890 -0.4692
  213MOL0    Cl28028   4.085   8.716   9.623 -0.0082 -0.3509 -0.0006
  213MOL0     C28029   5.104   9.155   9.416 -0.0953 -0.0262  0.4219
  213MOL0     C28030   5.243   9.165   9.395 -0.3439  0.3230  0.4867
  213MOL0     O28031   5.434   9.074   9.054 -0.3874 -0.1677 -0.5659
  213MOL0     C28032   5.685   9.155   8.997 -0.1086  0.4340 -0.3957
  213MOL0     C28033   5.816   9.187   8.970 -0.0521  0.0610 -0.7607
  213MOL0     N28034   6.704   9.219   9.065 -0.6027 -0.4142  0.4172
  213MOL0     N28035   6.765   9.151   9.154  0.2422  0.5333  0.7006
  213MOL0     C28036   6.429   8.319   9.123 -0.0811  1.0494  0.4178
  213MOL0     C28037   6.298   8.322   9.076  0.5937  0.9257 -0.2261
  213MOL0     C28038   5.864   8.473   9.076 -0.2042  1.0031 -0.0342
  213MOL0     C28039   5.792   8.563   9.001  0.1440 -0.8394  0.0090
  213MOL0     C28040   5.651   8.571   9.022 -0.2396 -0.4056 -0.2307
  213MOL0     C28041   5.584   8.507   9.132  0.1157  0.5507  0.4516
  213MOL0     O28042   5.447   8.514   9.144  0.4712 -0.2343  0.7385
  213MOL0     C28043   5.380   8.460   9.030  0.6972 -0.0935  0.4370
  213MOL0     C28044   5.285   8.562   8.953 -0.2116 -0.5157  0.0711
  213MOL0     C28045   5.188   8.649   9.047 -0.9700  0.1401  0.1936
  213MOL0     C28046   5.111   8.755   8.969 -0.3016  1.1427 -0.3629
  213MOL0     C28047   5.020   8.820   9.068  0.4343  0.0701  0.3841
  213MOL0     C28048   4.941   8.880   9.139 -0.5457  0.2310  0.1399
  213MOL0     C28049   5.664   8.424   9.210 -0.3910  0.7930  0.1226
  213MOL0     C28050   5.798   8.401   9.178 -0.1390  0.0373 -0.4327
  213MOL0     H28051   6.146   8.488   9.325 -1.5706  0.0729 -1.3328
  213MOL0     H28052   6.398   8.480   9.409  1.6235 -2.5355  0.3181
  213MOL0     H28053   6.687   8.457   9.135  1.6763 -0.5241 -1.0420
  213MOL0     H28054   6.692   8.277   9.151 -1.5245  1.1079 -0.2914
  213MOL0     H28055   6.890   8.345   9.175 -0.4519  0.3180 -0.1789
  213MOL0     H28056   6.842   8.286   9.333  1.9184  0.8876  1.5612
  213MOL0     H28057   6.972   8.493   9.372 -0.5306  1.9477  0.6196
  213MOL0     H28058   6.808   8.497   9.434 -2.8596 -4.2952 -1.5778
  213MOL0     H28059   6.959   8.663   9.236  1.6011 -2.5355  0.0481
  213MOL0     H28060   6.793   8.638   9.188  0.4696  2.0628 -0.1807
  213MOL0     H28061   6.884   8.752   9.465 -0.0322  2.0317  0.2835
  213MOL0     H28062   6.715   8.686   9.414 -0.1826 -1.4945 -2.2414
  213MOL0     H28063   6.721   8.874   9.240  0.9925  0.3002 -0.2324
  213MOL0     H28064   6.878   8.914   9.298  0.2375 -0.1540  0.1580
  213MOL0     H28065   6.603   8.944   9.421 -0.2639  1.6982 -1.1020
  213MOL0     H28066   6.737   8.934   9.536  1.3197 -1.4463 -0.1306
  213MOL0     H28067   6.834   9.144   9.410  0.2596  0.6061  0.9770
  213MOL0     H28068   6.671   9.172   9.476  3.0512  1.4143  0.6588
  213MOL0     H28069   6.470   9.231   9.286  0.1668 -1.3454 -2.2769
  213MOL0     H28070   6.494   9.305   8.910  0.2020  4.2027 -1.7687
  213MOL0     H28071   6.468   9.420   9.031  0.6033 -0.4432 -0.9342
  213MOL0     H28072   6.275   9.280   9.127 -0.6367 -2.3207  0.4649
  213MOL0     H28073   6.325   9.151   9.023  0.5221  0.3083  1.7886
  213MOL0     H28074   6.231   9.429   8.941 -0.9441  0.2769  0.9660
  213MOL0     H28075   6.274   9.312   8.830  1.3735  0.4928  0.6957
  213MOL0     H28076   6.099   9.165   8.901  1.5578 -0.6678  1.0117
  213MOL0     H28077   6.034   9.321   8.858  3.9296  4.1519  0.7952
  213MOL0     H28078   5.910   9.269   9.278  1.7753 -2.7884 -0.1772
  213MOL0     H28079   5.664   9.195   9.333  0.0470 -2.7552 -0.4287
  213MOL0     H28080   5.230   9.265   9.065  0.4034  0.3912  0.0560
  213MOL0     H28081   4.995   9.247   9.103  0.5332  0.8175 -0.9259
  213MOL0     H28082   4.811   9.155   9.527 -1.8560 -1.0197 -0.1171
  213MOL0     H28083   4.847   9.013   9.429  0.2688 -0.0561  1.2272
  213MOL0     H28084   4.676   9.065   9.276  1.5341  0.8644 -0.8123
  213MOL0     H28085   4.628   9.200   9.373  1.2661  0.3683 -0.9384
  213MOL0     H28086   4.643   9.007   9.566 -0.9522 -1.1673 -0.5812
  213MOL0     H28087   4.607   8.898   9.427  0.5002 -0.3466 -1.3929
  213MOL0     H28088   4.430   9.088   9.553  0.4553  0.6284 -1.0715
  213MOL0     H28089   4.400   9.026   9.384  1.0346  0.4141  0.4271
  213MOL0     H28090   4.400   8.803   9.464 -2.0809 -1.1589  0.3563
  213MOL0     H28091   4.274   8.905   9.536  0.3963 -1.2065  1.3538
  213MOL0     H28092   4.398   8.942   9.738 -4.6515 -0.2850 -0.5421
  213MOL0     H28093   4.524   8.842   9.672 -0.1933  0.7473  1.2545
  213MOL0     H28094   4.352   8.655   9.650 -0.6872 -0.1230 -0.5210
  213MOL0     H28095   4.391   8.683   9.815 -0.3939  0.2466  0.0309
  213MOL0     H28096   4.183   8.883   9.763  2.0307  0.7629  0.4514
  213MOL0     H28097   4.167   8.717   9.844 -0.2370  0.2536 -0.4598
  213MOL0     H28098   5.075   9.121   9.515 -0.6543  1.3766  0.7640
  213MOL0     H28099   5.305   9.135   9.478 -0.8520 -0.9986  0.4041
  213MOL0     H28100   5.620   9.145   8.911 -2.8361  3.3736  1.1231
  213MOL0     H28101   5.843   9.193   8.865 -0.6663 -0.5285 -0.9642
  213MOL0     H28102   6.498   8.262   9.062 -0.5408 -1.2932  1.9693
  213MOL0     H28103   6.279   8.278   8.978 -3.6985  0.3383  0.6584
  213MOL0     H28104   5.842   8.618   8.922 -1.6138  0.0778 -0.5378
  213MOL0     H28105   5.609   8.649   8.960  2.4577  2.4598  1.2500
  213MOL0     H28106   5.304   8.392   9.069 -0.0904  2.0721  2.9045
  213MOL0     H28107   5.453   8.413   8.963  4.8894  4.2323  1.4195
  213MOL0     H28108   5.338   8.613   8.872  0.5404 -1.6340 -0.1592
  213MOL0     H28109   5.224   8.494   8.893  1.4705  0.4860 -2.9974
  213MOL0     H28110   5.243   8.700   9.126 -0.4121 -2.8499  1.9029
  213MOL0     H28111   5.114   8.589   9.101 -0.3181  1.7288  3.0558
  213MOL0     H28112   5.184   8.828   8.934  1.9773 -1.1325 -0.6014
  213MOL0     H28113   5.056   8.712   8.884 -1.6441 -2.1087  1.9212
  213MOL0     H28114   4.872   8.922   9.210 -0.5354 -3.2706  2.4788
  213MOL0     H28115   5.616   8.389   9.301  1.1129 -3.0536 -0.3520
  213MOL0     H28116   5.859   8.342   9.246 -0.9513 -0.5226 -0.1810
  214MOL0     O28117   3.954   2.126   3.618  0.3987  0.8416 -0.3005
  214MOL0     C28118   3.992   2.237   3.637 -0.1304 -0.0159 -0.3005
  214MOL0     O28119   3.912   2.346   3.647  0.6888 -0.0022  1.0253
  214MOL0     C28120   3.773   2.333   3.636  0.1927 -0.9037 -0.2602
  214MOL0     C28121   3.701   2.418   3.557 -0.7837 -0.1360  0.4770
  214MOL0     C28122   3.558   2.403   3.548 -0.2720  0.4111 -0.7070
  214MOL0     C28123   3.493   2.303   3.622 -0.8678 -0.6147  0.5144
  214MOL0     O28124   3.363   2.307   3.613  0.5662  0.1901  0.4845
  214MOL0     C28125   3.311   2.191   3.551  0.3034 -0.6229  0.7606
  214MOL0     C28126   3.167   2.216   3.496  0.2033 -0.7792 -0.6034
  214MOL0     C28127   3.115   2.096   3.422  0.4424  0.5541 -0.4292
  214MOL0     C28128   2.962   2.100   3.410  0.5634 -0.4186 -0.2882
  214MOL0     C28129   2.911   1.981   3.328  0.0368 -0.1414  0.2295
  214MOL0     C28130   2.770   1.952   3.377 -0.2976  0.6017  0.5962
  214MOL0     C28131   2.776   1.862   3.497 -0.7332 -0.1084  0.2777
  214MOL0     C28132   2.641   1.810   3.539  0.5790  0.3134  0.2470
  214MOL0     N28133   2.554   1.922   3.552  0.2974 -0.0917  0.3041
  214MOL0     C28134   2.549   1.996   3.664  0.2751  0.1351 -0.5178
  214MOL0     C28135   2.455   2.091   3.638  0.0190 -0.0668  0.2109
  214MOL0     C28136   2.387   2.196   3.728 -0.2572 -0.6254  0.2728
  214MOL0     C28137   2.309   2.141   3.848  0.0715  0.3669  0.6682
  214MOL0     C28138   2.162   2.095   3.806  0.2085  0.7470  0.2996
  214MOL0     C28139   2.066   2.199   3.870  0.2258 -0.2590 -0.0385
  214MOL0     O28140   1.934   2.165   3.830  0.4137  0.2189  0.2694
  214MOL0     C28141   1.858   2.064   3.891 -0.4360 -0.0827 -0.0520
  214MOL0     C28142   1.753   2.017   3.830 -0.5722 -0.6182  0.6571
  214MOL0     C28143   1.682   1.912   3.891 -0.8886 -0.3722  0.0109
  214MOL0     C28144   1.720   1.858   4.019  0.1096 -0.5065  0.4066
  214MOL0     C28145   1.634   1.756   4.080 -0.3694 -1.0072  0.2292
  214MOL0     O28146   1.657   1.728   4.220 -0.5788  0.1175 -0.9274
  214MOL0     C28147   1.585   1.643   4.300  0.5826  0.6934 -0.3858
  214MOL0     C28148   1.647   1.623   4.423 -0.6133  0.2275  0.5313
  214MOL0     C28149   1.594   1.534   4.515  0.0244  0.0581  0.5806
  214MOL0     C28150   1.459   1.485   4.491 -0.6632 -0.3868  0.0760
  214MOL0     O28151   1.393   1.406   4.585  0.4430  0.5135  0.0282
  214MOL0     C28152   1.458   1.381   4.711  0.2778 -0.3453 -0.5131
  214MOL0     C28153   1.359   1.353   4.812  0.0960  0.6822 -1.3644
  214MOL0     C28154   1.284   1.485   4.849  0.4431 -0.3794 -0.5478
  214MOL0     C28155   1.190   1.446   4.955 -0.1100  0.4037 -0.0359
  214MOL0     C28156   1.079   1.554   4.976 -0.3020 -0.9082  0.4234
  214MOL0     C28157   1.025   1.555   5.123 -0.4408 -0.3284  0.5034
  214MOL0     C28158   0.917   1.456   5.155 -1.3925 -0.4782  0.0985
  214MOL0     C28159   0.928   1.391   5.291 -0.3058  0.0119 -0.6107
  214MOL0    Cl28160   0.837   1.231   5.297  0.1514 -0.3551  0.2470
  214MOL0     C28161   1.389   1.521   4.374  0.0179  0.5526  0.1294
  214MOL0     C28162   1.450   1.597   4.279  0.0915 -0.3266  0.2015
  214MOL0     O28163   1.541   1.715   4.017 -0.1985 -0.2179 -0.2504
  214MOL0     C28164   1.828   1.922   4.088  1.2319  0.3546  1.0927
  214MOL0     C28165   1.896   2.021   4.020  0.1541  0.2784  0.1025
  214MOL0     N28166   2.403   2.074   3.507  0.2666 -1.0492 -0.7877
  214MOL0     N28167   2.455   1.965   3.465 -0.3225 -0.6270 -0.3121
  214MOL0     C28168   3.571   2.217   3.707  0.5388 -0.2474 -0.4740
  214MOL0     C28169   3.708   2.235   3.706  0.3158  0.8693 -0.6121
  214MOL0     C28170   4.138   2.246   3.652 -0.2529 -0.2636  0.1287
  214MOL0     C28171   4.216   2.137   3.693  0.3448 -0.0164  0.1413
  214MOL0     C28172   4.348   2.151   3.733 -1.0403  0.1455  0.6125
  214MOL0     C28173   4.415   2.281   3.726 -0.2376  0.4559  0.2558
  214MOL0     O28174   4.541   2.289   3.783 -0.3569 -0.2704 -0.5507
  214MOL0     C28175   4.585   2.412   3.828  0.3416 -0.6056 -0.4007
  214MOL0     C28176   4.738   2.395   3.846 -0.0876 -0.7831 -0.4938
  214MOL0     C28177   4.785   2.335   3.978  0.9237  1.9241 -0.0947
  214MOL0     C28178   4.909   2.249   3.981 -0.6197 -0.0115 -0.1367
  214MOL0     C28179   4.923   2.160   4.091  1.0383  0.1590 -0.6002
  214MOL0     C28180   4.938   2.093   4.194 -0.1933 -0.2939 -1.0355
  214MOL0     C28181   4.341   2.387   3.665 -0.6924  1.1630 -0.4132
  214MOL0     C28182   4.204   2.368   3.633 -0.6906  0.0438 -0.9001
  214MOL0     H28183   3.749   2.505   3.514  1.9961 -0.9172  1.8007
  214MOL0     H28184   3.511   2.473   3.480 -1.3361  0.0914 -0.3206
  214MOL0     H28185   3.313   2.108   3.622 -0.3905 -0.7829  0.5960
  214MOL0     H28186   3.372   2.174   3.462  0.3674  0.5894  0.5515
  214MOL0     H28187   3.171   2.294   3.420  0.8574 -2.1851 -2.0642
  214MOL0     H28188   3.101   2.246   3.579  2.9602  0.1740  1.3926
  214MOL0     H28189   3.135   2.004   3.478 -2.2748 -1.0278 -1.8426
  214MOL0     H28190   3.161   2.083   3.324 -1.5069  1.3187 -1.5060
  214MOL0     H28191   2.928   2.089   3.514  0.7640  0.6351 -0.1012
  214MOL0     H28192   2.938   2.197   3.367  3.4099 -0.6958 -2.8348
  214MOL0     H28193   2.983   1.899   3.329  1.8851  1.3461 -1.0921
  214MOL0     H28194   2.894   2.009   3.223 -4.3209 -1.7443  0.3010
  214MOL0     H28195   2.720   1.907   3.290  0.3659  0.7168  0.1480
  214MOL0     H28196   2.723   2.044   3.411 -1.6925 -0.2844  1.1645
  214MOL0     H28197   2.847   1.780   3.478  2.0884  2.3888 -0.7662
  214MOL0     H28198   2.832   1.910   3.578 -0.9349  3.5749 -1.5662
  214MOL0     H28199   2.642   1.763   3.637 -0.4769  0.5926  0.4074
  214MOL0     H28200   2.592   1.741   3.468 -1.1475  2.6086 -0.9364
  214MOL0     H28201   2.603   1.984   3.757  2.4104  1.8061 -1.4556
  214MOL0     H28202   2.316   2.259   3.673  1.1419 -1.3518 -2.5520
  214MOL0     H28203   2.470   2.259   3.762  1.7616  0.3716 -5.4691
  214MOL0     H28204   2.326   2.216   3.926  1.1642  1.3305 -0.4485
  214MOL0     H28205   2.358   2.057   3.898 -1.1159  0.0090  1.2888
  214MOL0     H28206   2.148   2.093   3.698 -1.0434  0.8424  0.4494
  214MOL0     H28207   2.159   1.992   3.841  3.1547  0.7790  0.9741
  214MOL0     H28208   2.087   2.300   3.833 -0.7519 -1.0294 -2.9750
  214MOL0     H28209   2.074   2.211   3.979 -0.5379  0.3184 -0.0356
  214MOL0     H28210   1.714   2.035   3.730  1.2655  0.2726  0.0704
  214MOL0     H28211   1.601   1.860   3.841 -1.5801  1.3171 -0.7086
  214MOL0     H28212   1.738   1.682   4.435  1.1558 -1.9818 -0.9999
  214MOL0     H28213   1.652   1.506   4.602  0.7413 -4.7591 -1.1754
  214MOL0     H28214   1.505   1.475   4.740 -3.6603  2.6220 -2.8080
  214MOL0     H28215   1.525   1.295   4.699  0.5998  0.0011 -1.3164
  214MOL0     H28216   1.400   1.321   4.909 -0.9758 -1.7341 -1.6437
  214MOL0     H28217   1.293   1.269   4.788  0.0165 -0.5335  2.3865
  214MOL0     H28218   1.228   1.507   4.757  1.1624 -0.3819 -0.9975
  214MOL0     H28219   1.341   1.569   4.889 -2.0153  1.8658 -1.4120
  214MOL0     H28220   1.138   1.354   4.925  0.3456  0.7510 -2.0577
  214MOL0     H28221   1.256   1.434   5.041  0.4156 -0.1048 -0.4975
  214MOL0     H28222   0.998   1.556   4.902  1.1224  3.9529 -1.4022
  214MOL0     H28223   1.124   1.651   4.954 -1.3761 -0.7193 -1.1919
  214MOL0     H28224   0.989   1.653   5.155 -0.4843 -0.6980  1.6268
  214MOL0     H28225   1.101   1.542   5.201 -0.5142  0.1532  0.6552
  214MOL0     H28226   0.830   1.520   5.140  0.5624  2.2125 -0.5142
  214MOL0     H28227   0.912   1.377   5.080  0.0983 -0.1261 -0.4023
  214MOL0     H28228   0.887   1.451   5.373 -1.9905 -5.4287  2.9959
  214MOL0     H28229   1.033   1.366   5.306 -0.3406  0.2035 -0.0425
  214MOL0     H28230   1.289   1.481   4.365 -0.3789  1.5032  0.2722
  214MOL0     H28231   1.407   1.623   4.182  2.8841  3.2533 -0.2770
  214MOL0     H28232   1.852   1.883   4.187  0.0338  0.7350  1.5462
  214MOL0     H28233   1.985   2.059   4.069  0.2155  2.0773 -1.3102
  214MOL0     H28234   3.515   2.136   3.753 -0.4132 -0.1367 -1.3802
  214MOL0     H28235   3.776   2.177   3.768  3.1887  3.8792 -0.6620
  214MOL0     H28236   4.172   2.038   3.691 -1.5727  0.7150  1.8764
  214MOL0     H28237   4.411   2.072   3.774 -1.6770  0.5517  2.4382
  214MOL0     H28238   4.518   2.442   3.909 -1.1150 -2.9643 -0.6366
  214MOL0     H28239   4.571   2.484   3.747  2.7819 -0.3738 -0.7172
  214MOL0     H28240   4.793   2.349   3.763  1.9308 -0.1752  0.4445
  214MOL0     H28241   4.781   2.496   3.854 -1.2052 -0.2039 -1.5090
  214MOL0     H28242   4.703   2.270   4.010 -0.7176  1.9145 -3.7194
  214MOL0     H28243   4.802   2.414   4.052  0.2162  2.7929 -0.8329
  214MOL0     H28244   4.914   2.197   3.885 -0.1959  4.9473 -3.1408
  214MOL0     H28245   4.998   2.312   3.980 -1.9888  2.2807  3.1151
  214MOL0     H28246   4.953   2.044   4.288 -1.9003  1.7052  0.3416
  214MOL0     H28247   4.386   2.483   3.642 -0.4777  0.6559 -2.2569
  214MOL0     H28248   4.144   2.453   3.602 -2.2856 -1.2906 -1.6318
  215MOL0     O28249   7.904   2.791   7.823  0.0629  0.2673 -0.8631
  215MOL0     C28250   7.927   2.711   7.911 -0.3259  0.5325 -0.4161
  215MOL0     O28251   8.030   2.634   7.924  0.3356 -0.6640  0.7147
  215MOL0     C28252   8.141   2.654   7.845 -0.1872  0.1614 -0.6953
  215MOL0     C28253   8.180   2.550   7.763 -0.2459  0.5039  0.1985
  215MOL0     C28254   8.297   2.560   7.687  0.0347  0.0629  0.4955
  215MOL0     C28255   8.386   2.673   7.699 -0.8210  0.5107 -0.3877
  215MOL0     O28256   8.496   2.686   7.617 -0.4859 -0.6645 -0.3737
  215MOL0     C28257   8.534   2.578   7.535  0.7366  0.1899 -0.6910
  215MOL0     C28258   8.653   2.604   7.446 -0.5452 -0.2215 -0.5811
  215MOL0     C28259   8.777   2.609   7.539 -0.0265  0.9866 -0.3482
  215MOL0     C28260   8.916   2.568   7.486  0.3792 -0.4969 -0.1942
  215MOL0     C28261   8.940   2.657   7.366  0.0992  0.3156  0.9991
  215MOL0     C28262   8.983   2.800   7.384 -0.1734 -0.4088  0.2061
  215MOL0     C28263   9.134   2.829   7.391 -0.2344 -0.0092  0.6814
  215MOL0     C28264   9.223   2.794   7.273  0.0251 -0.7856  0.0160
  215MOL0     N28265   9.202   2.883   7.160 -0.2208  0.3303 -0.0141
  215MOL0     C28266   9.233   3.017   7.165  0.0473  0.5001  0.2352
  215MOL0     C28267   9.220   3.051   7.035  0.6860  0.3887 -0.2720
  215MOL0     C28268   9.216   3.183   6.977  0.0919 -0.3473 -0.4338
  215MOL0     C28269   9.362   3.225   6.955  0.5712 -0.5746  0.3194
  215MOL0     C28270   9.369   3.372   6.912  0.7743 -0.0648 -0.1613
  215MOL0     C28271   9.497   3.436   6.916  0.7176  0.5003  0.2876
  215MOL0     O28272   9.565   3.380   6.809  0.7796  0.0174 -0.5085
  215MOL0     C28273   9.699   3.393   6.808  0.2044 -0.3727  0.6846
  215MOL0     C28274   9.774   3.297   6.743 -0.2014 -0.8682 -0.6641
  215MOL0     C28275   9.914   3.302   6.739 -0.1287 -0.6451 -0.6505
  215MOL0     C28276   9.978   3.418   6.774  0.5313  0.3783  0.4311
  215MOL0     C28277  10.119   3.438   6.751 -0.5172  0.0533 -0.0683
  215MOL0     O28278  10.171   3.367   6.642 -0.3649  0.4517  0.1826
  215MOL0     C28279  10.301   3.353   6.607 -0.1047 -0.7072  0.9221
  215MOL0     C28280  10.415   3.420   6.658  0.4272  0.2399  0.8266
  215MOL0     C28281  10.543   3.401   6.601 -0.1447  0.0977 -0.3181
  215MOL0     C28282  10.565   3.317   6.495 -0.0002  0.1461  0.3081
  215MOL0     O28283  10.697   3.308   6.441  0.3845 -0.0359  0.1916
  215MOL0     C28284  10.730   3.198   6.358  0.0949  0.0950 -0.5471
  215MOL0     C28285  10.876   3.205   6.308 -0.7208 -0.1089  0.3543
  215MOL0     C28286  10.975   3.174   6.420  0.0819 -0.1542  0.0347
  215MOL0     C28287  11.112   3.171   6.363  0.0565 -0.0302  0.5605
  215MOL0     C28288  11.215   3.148   6.471  0.0401  0.0168 -0.3085
  215MOL0     C28289  11.339   3.103   6.409  0.4210 -0.5006  0.0942
  215MOL0     C28290  11.456   3.110   6.498 -0.8071  0.4530  0.6307
  215MOL0     C28291  11.583   3.066   6.418 -0.0640  0.0705 -0.7004
  215MOL0    Cl28292  11.573   2.900   6.360 -0.4254  0.4521  0.1058
  215MOL0     C28293  10.460   3.260   6.431  0.4448  0.3580 -0.2236
  215MOL0     C28294  10.332   3.270   6.495 -0.2082  0.0884  0.4904
  215MOL0     O28295  10.184   3.518   6.821 -0.4983 -0.0915  0.1268
  215MOL0     C28296   9.904   3.517   6.841 -0.5738 -0.0839  0.1633
  215MOL0     C28297   9.765   3.502   6.851  0.2791  0.1552  0.6819
  215MOL0     N28298   9.176   2.937   6.963 -0.3861  0.3376 -0.0372
  215MOL0     N28299   9.177   2.836   7.036 -0.2646  0.3605  0.6083
  215MOL0     C28300   8.344   2.770   7.789  0.5120  0.1855 -0.2330
  215MOL0     C28301   8.230   2.758   7.870  0.1898 -0.3146 -0.0780
  215MOL0     C28302   7.820   2.693   8.010 -0.5449  0.4948 -0.6299
  215MOL0     C28303   7.836   2.639   8.139 -0.2228 -0.3893  0.6074
  215MOL0     C28304   7.732   2.604   8.224 -0.0815 -0.1651  0.2485
  215MOL0     C28305   7.600   2.630   8.185  0.6872  0.7529  0.6795
  215MOL0     O28306   7.500   2.583   8.267  0.4896  0.5980  0.5281
  215MOL0     C28307   7.365   2.619   8.233  1.1603 -0.0008  0.8509
  215MOL0     C28308   7.261   2.575   8.339 -0.7314  0.0783 -0.3212
  215MOL0     C28309   7.117   2.622   8.311 -0.0761  0.3555 -0.2559
  215MOL0     C28310   7.042   2.527   8.222 -0.1851 -0.5563  0.1557
  215MOL0     C28311   6.908   2.590   8.189 -0.6488 -1.0023  0.1113
  215MOL0     C28312   6.797   2.624   8.164  0.1163 -0.5640  0.8598
  215MOL0     C28313   7.581   2.694   8.058 -0.3984  1.1555 -0.8034
  215MOL0     C28314   7.689   2.720   7.977 -0.0207 -0.5667  0.0805
  215MOL0     H28315   8.122   2.461   7.742  0.6941 -0.2946  0.8844
  215MOL0     H28316   8.315   2.475   7.623 -1.1976  0.7210 -0.7851
  215MOL0     H28317   8.456   2.555   7.462  0.5769  1.6194 -0.9871
  215MOL0     H28318   8.555   2.487   7.591  0.5497  0.4283 -0.2355
  215MOL0     H28319   8.638   2.698   7.391  2.3432 -0.8518 -2.6711
  215MOL0     H28320   8.661   2.521   7.375 -0.3743 -1.7129  1.1269
  215MOL0     H28321   8.763   2.550   7.630  1.9404  2.5374  1.0707
  215MOL0     H28322   8.774   2.709   7.585  0.1334 -0.6694  3.7482
  215MOL0     H28323   8.996   2.580   7.560 -2.1190 -4.2326  3.5152
  215MOL0     H28324   8.907   2.465   7.450  0.3086 -0.8895  0.9108
  215MOL0     H28325   8.845   2.665   7.312 -1.8087  1.5388  4.2294
  215MOL0     H28326   9.006   2.600   7.299 -2.9244  0.4693 -2.4573
  215MOL0     H28327   8.936   2.826   7.479  1.7957 -2.2229  1.7947
  215MOL0     H28328   8.936   2.873   7.319 -1.0722  0.1853  1.4742
  215MOL0     H28329   9.154   2.933   7.417  1.0346 -0.6785  2.5528
  215MOL0     H28330   9.161   2.784   7.487 -3.6033 -1.0306  1.2965
  215MOL0     H28331   9.205   2.693   7.235 -1.8542 -0.4242 -0.1583
  215MOL0     H28332   9.329   2.791   7.299  0.4867  3.1067 -0.7157
  215MOL0     H28333   9.265   3.075   7.252  0.5795 -0.7041  0.8665
  215MOL0     H28334   9.183   3.261   7.046 -0.0092 -0.2107 -0.6348
  215MOL0     H28335   9.152   3.189   6.888 -2.4994  0.0655  1.3494
  215MOL0     H28336   9.389   3.156   6.874 -1.0594 -3.0976  1.7901
  215MOL0     H28337   9.417   3.216   7.049  0.5384  0.7524  0.4888
  215MOL0     H28338   9.334   3.391   6.810 -1.7039 -1.0557  0.4246
  215MOL0     H28339   9.306   3.434   6.977  1.0076  1.7447 -1.5730
  215MOL0     H28340   9.548   3.403   7.007 -1.0119 -3.0937  0.0986
  215MOL0     H28341   9.494   3.545   6.929  0.4790  0.5400 -0.0870
  215MOL0     H28342   9.735   3.203   6.707 -2.2093 -1.1641  1.9969
  215MOL0     H28343   9.967   3.225   6.684  0.7106  0.5296 -1.5439
  215MOL0     H28344  10.407   3.491   6.740  2.1546 -0.4305  1.6312
  215MOL0     H28345  10.633   3.443   6.646 -0.0168 -0.2235 -0.2749
  215MOL0     H28346  10.667   3.207   6.269 -2.7649  1.1683  1.4458
  215MOL0     H28347  10.706   3.105   6.411 -0.9198  2.4441  3.5252
  215MOL0     H28348  10.880   3.308   6.272 -1.8495  0.1941  1.0156
  215MOL0     H28349  10.893   3.136   6.225  1.2340  0.8285 -0.0722
  215MOL0     H28350  10.950   3.078   6.467 -1.1078  0.0756 -0.1014
  215MOL0     H28351  10.966   3.251   6.498 -1.4710 -2.6241  2.5148
  215MOL0     H28352  11.117   3.088   6.292  0.5397 -0.5381  1.1740
  215MOL0     H28353  11.137   3.266   6.316  1.1400  0.7388  2.5758
  215MOL0     H28354  11.188   3.080   6.552  0.4127 -0.1531 -0.3245
  215MOL0     H28355  11.225   3.245   6.520 -2.2496  0.3052 -0.3040
  215MOL0     H28356  11.359   3.158   6.317 -0.5360  1.3020  0.9085
  215MOL0     H28357  11.311   3.002   6.378 -0.7644 -0.0599 -0.3244
  215MOL0     H28358  11.473   3.211   6.536 -0.7428 -0.2695  2.6101
  215MOL0     H28359  11.442   3.045   6.585  0.9023 -1.1189 -0.1999
  215MOL0     H28360  11.675   3.067   6.477 -0.7252 -2.7260  0.5576
  215MOL0     H28361  11.596   3.126   6.327 -0.1466 -0.6319 -1.1840
  215MOL0     H28362  10.465   3.188   6.350  0.7514 -1.8972  1.6869
  215MOL0     H28363  10.248   3.219   6.449 -0.1783 -0.4096  0.9740
  215MOL0     H28364   9.946   3.608   6.882 -0.6514  0.4687 -0.9480
  215MOL0     H28365   9.709   3.591   6.874 -1.4362  0.1420 -2.8228
  215MOL0     H28366   8.418   2.848   7.806  0.0062  0.7519 -0.5993
  215MOL0     H28367   8.194   2.834   7.939 -0.2969  1.8251 -2.5295
  215MOL0     H28368   7.937   2.606   8.160 -0.2789 -0.4415  0.8045
  215MOL0     H28369   7.758   2.564   8.322  1.7083 -0.1783 -0.2141
  215MOL0     H28370   7.337   2.579   8.135  2.2674  1.3882 -0.0782
  215MOL0     H28371   7.357   2.728   8.232 -2.3836 -0.1111 -1.3882
  215MOL0     H28372   7.272   2.466   8.346  0.4615  0.0307 -2.1429
  215MOL0     H28373   7.291   2.612   8.437 -1.1916 -1.6978  0.5281
  215MOL0     H28374   7.119   2.725   8.276 -0.2893  0.5082  0.1759
  215MOL0     H28375   7.071   2.616   8.410  0.2498 -0.4100 -0.1350
  215MOL0     H28376   7.094   2.522   8.127  0.2747  2.0428  0.2038
  215MOL0     H28377   7.038   2.429   8.271  0.1295 -0.9107 -0.5144
  215MOL0     H28378   6.703   2.668   8.134  0.6766 -1.1065 -1.9386
  215MOL0     H28379   7.479   2.715   8.026 -1.0946 -0.5743  0.1070
  215MOL0     H28380   7.678   2.757   7.875  1.6951 -3.5046 -1.3137
  216MOL0     O28381  10.965   1.242   4.174 -0.0001 -0.9254 -0.7801
  216MOL0     C28382  11.005   1.355   4.149  0.2030  1.3955  0.3873
  216MOL0     O28383  10.966   1.465   4.206  0.4645 -0.6709 -0.9810
  216MOL0     C28384  10.856   1.472   4.296  0.0176  0.2711  0.5446
  216MOL0     C28385  10.859   1.415   4.425  0.0370  1.1486 -0.1076
  216MOL0     C28386  10.744   1.443   4.504 -0.0660  0.0855  0.0334
  216MOL0     C28387  10.634   1.518   4.466 -0.3806 -0.3884  0.2482
  216MOL0     O28388  10.540   1.553   4.568 -0.0962  0.3352  0.1008
  216MOL0     C28389  10.462   1.676   4.548 -0.4067  0.1831  0.2308
  216MOL0     C28390  10.339   1.655   4.460  1.3941 -0.5548  0.1493
  216MOL0     C28391  10.235   1.749   4.511 -0.7174  0.0175  0.5360
  216MOL0     C28392  10.105   1.697   4.473  0.7284 -0.5627  0.1169
  216MOL0     C28393   9.993   1.778   4.532  0.4290  0.2278  0.0700
  216MOL0     C28394   9.849   1.713   4.517  0.0208  0.7860 -0.4036
  216MOL0     C28395   9.838   1.577   4.573  0.2312  0.8984  0.5233
  216MOL0     C28396   9.699   1.516   4.577 -0.3245 -0.3595 -0.0248
  216MOL0     N28397   9.615   1.559   4.688  0.4486  0.4135 -0.3986
  216MOL0     C28398   9.542   1.677   4.708  0.4641  0.3954 -0.9172
  216MOL0     C28399   9.500   1.682   4.836  0.2361  0.2438  0.4197
  216MOL0     C28400   9.417   1.785   4.917  0.4126 -0.3419 -0.2260
  216MOL0     C28401   9.300   1.836   4.832 -0.3401 -0.1515  1.2798
  216MOL0     C28402   9.207   1.729   4.791 -0.7241 -0.3170  0.6362
  216MOL0     C28403   9.094   1.793   4.699 -0.1910  0.3149 -0.8733
  216MOL0     O28404   8.996   1.699   4.676 -0.2552  0.7280 -0.4505
  216MOL0     C28405   8.877   1.709   4.747  0.1135  0.0123 -0.5494
  216MOL0     C28406   8.771   1.657   4.677 -0.1456 -0.7328 -0.4823
  216MOL0     C28407   8.643   1.680   4.725 -0.1257 -0.0604 -0.1327
  216MOL0     C28408   8.615   1.747   4.848 -1.2851  0.3650  0.6367
  216MOL0     C28409   8.479   1.768   4.894  0.8088 -0.2235  0.4393
  216MOL0     O28410   8.474   1.837   5.005  0.0425  0.6089 -0.3471
  216MOL0     C28411   8.353   1.891   5.043  0.2879  0.0906 -0.3744
  216MOL0     C28412   8.274   1.965   4.943 -0.2517 -0.2304  0.3639
  216MOL0     C28413   8.150   2.011   4.985 -0.0771 -0.5683 -0.1776
  216MOL0     C28414   8.103   1.988   5.119  0.5390  0.1905 -0.2967
  216MOL0     O28415   7.989   2.043   5.164  0.7682  0.2474 -0.0551
  216MOL0     C28416   7.886   1.964   5.206  0.7840  0.5400 -0.1786
  216MOL0     C28417   7.757   2.047   5.239 -1.1591  0.0349  0.0648
  216MOL0     C28418   7.643   1.967   5.292 -0.6574  0.0528  0.5772
  216MOL0     C28419   7.532   2.075   5.341 -0.1966 -0.0285  0.4019
  216MOL0     C28420   7.398   2.012   5.384 -0.0233  0.4015  0.3310
  216MOL0     C28421   7.302   2.121   5.447  0.1071  1.2783  0.5348
  216MOL0     C28422   7.169   2.061   5.491 -0.2853 -0.0353  0.5725
  216MOL0     C28423   7.060   2.179   5.501 -0.6474  0.4946  0.4892
  216MOL0    Cl28424   7.088   2.256   5.657 -0.0298 -0.2546 -0.0053
  216MOL0     C28425   8.189   1.928   5.207 -1.1855 -0.4025  0.1341
  216MOL0     C28426   8.309   1.877   5.175 -0.8938 -0.7525  1.1398
  216MOL0     O28427   8.376   1.721   4.837 -0.0101  0.5992 -0.2258
  216MOL0     C28428   8.729   1.789   4.915  0.0990  0.1428  0.1325
  216MOL0     C28429   8.859   1.772   4.872 -0.0083  0.0629  0.2909
  216MOL0     N28430   9.534   1.556   4.889 -0.2781  0.0295 -0.8701
  216MOL0     N28431   9.594   1.489   4.799 -1.1536  0.1169  0.1818
  216MOL0     C28432  10.642   1.574   4.335  0.2366 -1.1544 -0.5566
  216MOL0     C28433  10.748   1.546   4.245  0.1370  0.1633 -0.3129
  216MOL0     C28434  11.132   1.360   4.074 -0.5281  0.3451 -0.0158
  216MOL0     C28435  11.204   1.250   4.032 -0.9026 -1.2445  0.5190
  216MOL0     C28436  11.330   1.266   3.977  0.1732  0.0979  0.6422
  216MOL0     C28437  11.377   1.394   3.942 -0.4411 -0.4737  0.0026
  216MOL0     O28438  11.490   1.424   3.878  0.4967  0.4810 -0.3107
  216MOL0     C28439  11.607   1.362   3.929  0.3427 -0.2527 -0.3712
  216MOL0     C28440  11.719   1.463   3.958  0.1527  0.4777  0.5929
  216MOL0     C28441  11.857   1.401   3.936  0.6949  0.9584 -0.4609
  216MOL0     C28442  11.955   1.495   4.005 -0.0414  0.5810 -0.5897
  216MOL0     C28443  12.082   1.440   4.037 -0.0212  1.4190 -0.2020
  216MOL0     C28444  12.189   1.392   4.082  0.6858 -0.3349  0.1021
  216MOL0     C28445  11.305   1.507   3.972  0.2542 -0.1847 -0.9624
  216MOL0     C28446  11.184   1.487   4.046  0.8573 -0.0831 -0.1446
  216MOL0     H28447  10.944   1.357   4.460  0.6361  1.6373 -0.7230
  216MOL0     H28448  10.751   1.405   4.606 -0.1260  0.8698  0.3383
  216MOL0     H28449  10.513   1.758   4.495  0.5364  0.1450  1.0430
  216MOL0     H28450  10.429   1.707   4.648 -0.7165 -0.1076  0.2221
  216MOL0     H28451  10.315   1.549   4.472  1.9001 -0.5695  1.1715
  216MOL0     H28452  10.367   1.668   4.355  0.4630  0.7463  0.0383
  216MOL0     H28453  10.244   1.850   4.468 -1.4121  0.3841  1.2229
  216MOL0     H28454  10.233   1.749   4.620  0.1391 -2.2637  0.5970
  216MOL0     H28455  10.094   1.697   4.364 -1.3746  2.3308  0.2175
  216MOL0     H28456  10.084   1.594   4.504  0.5312 -0.7115 -0.4902
  216MOL0     H28457   9.989   1.877   4.485  1.7730  0.5421  0.5756
  216MOL0     H28458  10.009   1.798   4.638  0.8144 -1.3259  0.3226
  216MOL0     H28459   9.824   1.715   4.411 -0.7001  2.2275 -0.2262
  216MOL0     H28460   9.777   1.782   4.561 -0.0078 -0.2383  1.2320
  216MOL0     H28461   9.901   1.517   4.506 -1.1310  0.2331 -0.1907
  216MOL0     H28462   9.877   1.578   4.675  1.2840  0.2284  0.1484
  216MOL0     H28463   9.710   1.407   4.583 -5.1754 -1.1896 -1.6793
  216MOL0     H28464   9.660   1.540   4.478 -2.4112  0.0371  0.8452
  216MOL0     H28465   9.537   1.759   4.637  3.9404  0.7755 -0.9034
  216MOL0     H28466   9.470   1.874   4.953 -0.6693 -1.2375  4.2194
  216MOL0     H28467   9.385   1.737   5.010 -2.1891  0.1335 -0.8057
  216MOL0     H28468   9.335   1.880   4.738 -2.9425  0.0199  0.3317
  216MOL0     H28469   9.250   1.917   4.886  1.6139 -0.5748  3.9530
  216MOL0     H28470   9.253   1.642   4.742  1.9516 -0.0778  2.4741
  216MOL0     H28471   9.156   1.689   4.879  0.6136 -2.1241  0.6409
  216MOL0     H28472   9.132   1.831   4.603  1.2780 -0.0432 -0.4575
  216MOL0     H28473   9.049   1.880   4.748 -0.4738 -0.5794  0.4799
  216MOL0     H28474   8.792   1.597   4.589  0.2422 -0.9048 -0.2717
  216MOL0     H28475   8.557   1.635   4.677 -0.8595  2.1430 -1.0495
  216MOL0     H28476   8.320   1.984   4.847  0.3727  1.1151  0.9078
  216MOL0     H28477   8.080   2.070   4.928 -0.8330 -0.6561  0.6402
  216MOL0     H28478   7.922   1.896   5.283  2.8792  0.4794 -1.1583
  216MOL0     H28479   7.853   1.903   5.121  0.8735 -0.6684  0.6310
  216MOL0     H28480   7.723   2.113   5.159 -1.3208 -3.2135 -2.7839
  216MOL0     H28481   7.791   2.117   5.316  0.7046  0.9651 -1.5138
  216MOL0     H28482   7.682   1.911   5.377 -1.3997 -2.9176 -0.8826
  216MOL0     H28483   7.613   1.888   5.223  0.7170 -0.1070  0.1292
  216MOL0     H28484   7.568   2.149   5.413 -2.5283  2.3684 -0.7580
  216MOL0     H28485   7.501   2.142   5.261  3.4651  0.9104 -0.4102
  216MOL0     H28486   7.412   1.931   5.456  0.6799  0.4683  0.2784
  216MOL0     H28487   7.346   1.965   5.300 -2.0991 -2.1998  2.8817
  216MOL0     H28488   7.283   2.197   5.371 -2.2751 -0.0480 -0.2710
  216MOL0     H28489   7.357   2.170   5.528  3.2280  3.7118 -2.7299
  216MOL0     H28490   7.139   1.994   5.410 -1.2457  0.7301  0.2710
  216MOL0     H28491   7.172   2.008   5.587 -0.9761  0.1827  0.7230
  216MOL0     H28492   6.956   2.147   5.491 -0.2590 -0.8130  0.5203
  216MOL0     H28493   7.067   2.250   5.418 -0.4850  1.8584  1.6192
  216MOL0     H28494   8.166   1.929   5.313  0.4455 -4.5361  0.7263
  216MOL0     H28495   8.382   1.854   5.252  0.2802  1.3918  0.7660
  216MOL0     H28496   8.724   1.828   5.017 -1.8326 -1.8644  0.8792
  216MOL0     H28497   8.942   1.807   4.932  1.0418  1.0022 -1.6217
  216MOL0     H28498  10.577   1.650   4.292  0.8989 -1.7882 -2.7785
  216MOL0     H28499  10.759   1.589   4.146  3.8209 -1.0656 -0.5994
  216MOL0     H28500  11.168   1.154   4.069 -1.3421 -1.6274 -0.8273
  216MOL0     H28501  11.396   1.180   3.962  0.8591 -0.0596  3.8374
  216MOL0     H28502  11.645   1.302   3.845  0.8767  1.5519 -1.4719
  216MOL0     H28503  11.591   1.298   4.016  1.7562  0.4399  0.4339
  216MOL0     H28504  11.713   1.553   3.897 -0.2872 -1.1771 -1.9290
  216MOL0     H28505  11.708   1.488   4.064  1.1325  2.7496  0.2087
  216MOL0     H28506  11.887   1.384   3.832  4.8045 -0.2857  0.7330
  216MOL0     H28507  11.866   1.300   3.979  1.3554  0.0009 -2.7091
  216MOL0     H28508  11.967   1.582   3.938  0.5106  1.2718  0.3842
  216MOL0     H28509  11.911   1.526   4.100  1.9215 -3.1725  1.7470
  216MOL0     H28510  12.277   1.348   4.122  1.7017  0.3896 -1.2351
  216MOL0     H28511  11.360   1.595   3.942 -0.7976  0.3981 -1.2498
  216MOL0     H28512  11.134   1.579   4.074  0.3389 -0.1878 -0.6922
  217MOL0     O28513   8.153   9.660   3.216 -0.2533  0.0244 -0.1884
  217MOL0     C28514   8.219   9.758   3.246 -0.4470 -0.0836  0.4023
  217MOL0     O28515   8.174   9.882   3.262  0.3220  0.4078 -0.5045
  217MOL0     C28516   8.039   9.899   3.237  0.0773  1.3291  0.0895
  217MOL0     C28517   7.942   9.884   3.338  0.1574  0.5714  0.3058
  217MOL0     C28518   7.808   9.887   3.308  0.5215  0.7330  0.5961
  217MOL0     C28519   7.766   9.905   3.174  0.5586 -0.0476  0.9711
  217MOL0     O28520   7.640   9.901   3.119  0.4565  0.5751  0.4227
  217MOL0     C28521   7.533   9.855   3.206  0.1243  0.2363  0.1705
  217MOL0     C28522   7.406   9.912   3.147 -0.0118  0.9709  0.3251
  217MOL0     C28523   7.294   9.909   3.239  0.3111 -0.5797 -0.2356
  217MOL0     C28524   7.315   9.996   3.365 -0.0837  1.2048  0.4371
  217MOL0     C28525   7.187  10.000   3.440 -0.5526  1.2880  0.9568
  217MOL0     C28526   7.140  10.131   3.494  0.4500 -0.1945 -0.9210
  217MOL0     C28527   7.005  10.134   3.576 -0.0564  0.2310  0.5196
  217MOL0     C28528   6.969  10.281   3.579 -0.2195 -0.3574 -0.4098
  217MOL0     N28529   6.822  10.293   3.606 -0.8790 -0.1657 -0.5360
  217MOL0     C28530   6.716  10.315   3.519 -0.7111  0.1465  0.1777
  217MOL0     C28531   6.603  10.302   3.592  0.5970  0.0504 -0.1554
  217MOL0     C28532   6.458  10.308   3.538  0.3968 -0.2250  0.4405
  217MOL0     C28533   6.381  10.425   3.601 -0.0157  0.3929 -0.0886
  217MOL0     C28534   6.329  10.404   3.742 -0.8844 -0.5939 -0.0258
  217MOL0     C28535   6.205  10.311   3.763 -0.6599  0.2353 -0.2621
  217MOL0     O28536   6.086  10.366   3.718 -0.8616 -0.5608 -0.3191
  217MOL0     C28537   5.970  10.309   3.770  0.2382 -0.8890 -0.1785
  217MOL0     C28538   5.952  10.211   3.868  0.0845 -0.0801  0.4446
  217MOL0     C28539   5.826  10.187   3.935 -0.5102 -0.0326  0.2114
  217MOL0     C28540   5.716  10.262   3.889  0.2253 -0.0945 -0.3254
  217MOL0     C28541   5.582  10.262   3.954  0.0737  0.4227 -0.9012
  217MOL0     O28542   5.582  10.252   4.097  0.4696  0.9148  0.5061
  217MOL0     C28543   5.460  10.274   4.154  0.2005 -0.3885  0.9328
  217MOL0     C28544   5.390  10.398   4.142  0.6546 -0.8904  0.2061
  217MOL0     C28545   5.281  10.439   4.216 -0.0155 -0.0930 -0.2833
  217MOL0     C28546   5.239  10.347   4.310  0.1208 -0.0271 -0.5339
  217MOL0     O28547   5.129  10.368   4.389  0.0716 -0.6784  0.2885
  217MOL0     C28548   5.071  10.501   4.384 -0.0427 -0.5925 -0.2065
  217MOL0     C28549   4.950  10.501   4.482 -0.9508 -0.7867 -0.0018
  217MOL0     C28550   4.822  10.458   4.415  0.2357  0.9775 -0.0319
  217MOL0     C28551   4.697  10.481   4.499 -0.6630  0.7638  0.1431
  217MOL0     C28552   4.583  10.394   4.424 -0.1586 -0.6240 -0.4008
  217MOL0     C28553   4.452  10.376   4.507  0.9373 -0.5466  0.1507
  217MOL0     C28554   4.432  10.499   4.600  0.2969  0.1091  0.6768
  217MOL0     C28555   4.285  10.507   4.643  0.2518  0.2391 -0.8231
  217MOL0    Cl28556   4.191  10.354   4.693 -0.1801  0.0906  0.5794
  217MOL0     C28557   5.301  10.223   4.324  0.6821 -0.2846 -0.1703
  217MOL0     C28558   5.409  10.181   4.243  0.5293 -0.2768 -0.0903
  217MOL0     O28559   5.482  10.276   3.888 -0.4933  0.3625 -0.3515
  217MOL0     C28560   5.727  10.344   3.778 -0.6120 -0.4441  0.5828
  217MOL0     C28561   5.857  10.369   3.722 -0.7521  0.1335 -0.2867
  217MOL0     N28562   6.647  10.272   3.720 -0.5368 -0.5266  0.1069
  217MOL0     N28563   6.778  10.267   3.728  0.3513  0.5032  0.4578
  217MOL0     C28564   7.865   9.919   3.073  0.4451  0.5786 -0.1204
  217MOL0     C28565   7.998   9.925   3.108 -1.5683 -0.0867  0.1179
  217MOL0     C28566   8.367   9.740   3.219 -0.7005  0.3658  0.3368
  217MOL0     C28567   8.453   9.849   3.215 -0.3408 -0.0134  0.7308
  217MOL0     C28568   8.584   9.834   3.179  0.0961 -0.3973 -0.3773
  217MOL0     C28569   8.630   9.705   3.125  1.2564 -0.3421 -1.3774
  217MOL0     O28570   8.759   9.677   3.094  1.0911  0.1049  0.3295
  217MOL0     C28571   8.848   9.791   3.076 -0.0724 -0.6609 -0.1509
  217MOL0     C28572   8.981   9.747   3.020  1.1592 -0.1892  0.5057
  217MOL0     C28573   9.080   9.861   2.994 -0.4799  0.1164  0.4660
  217MOL0     C28574   9.217   9.807   3.016 -1.2951  0.2453 -0.8286
  217MOL0     C28575   9.321   9.911   3.008  0.2396 -0.2754  0.5425
  217MOL0     C28576   9.407   9.994   3.007 -0.7207  0.3913 -0.0544
  217MOL0     C28577   8.542   9.600   3.137  1.5160 -0.5536  0.6136
  217MOL0     C28578   8.416   9.614   3.189  0.5649 -0.2260  0.0979
  217MOL0     H28579   7.963   9.869   3.444 -1.3690 -1.2610  0.3964
  217MOL0     H28580   7.735   9.876   3.388  0.7501 -0.5748  0.6450
  217MOL0     H28581   7.551   9.896   3.306 -1.1596  0.7327  0.2151
  217MOL0     H28582   7.520   9.747   3.200 -1.0966  0.4382 -4.0148
  217MOL0     H28583   7.391   9.863   3.051 -2.3080  0.8366  0.7067
  217MOL0     H28584   7.420  10.017   3.118 -1.6000  0.7430 -1.4845
  217MOL0     H28585   7.280   9.806   3.274 -2.9210 -0.6284 -1.3275
  217MOL0     H28586   7.205   9.946   3.188  0.2169  1.5417  1.3240
  217MOL0     H28587   7.394   9.953   3.427  0.2529 -0.6063 -1.1527
  217MOL0     H28588   7.338  10.096   3.326  0.7599  1.0319  0.4800
  217MOL0     H28589   7.207   9.921   3.514  2.5236 -0.7980 -1.8002
  217MOL0     H28590   7.109   9.958   3.375  0.8068  1.2386 -0.6982
  217MOL0     H28591   7.114  10.190   3.405  0.4650  1.2152 -0.0280
  217MOL0     H28592   7.221  10.175   3.554  1.6462 -2.0181 -1.1295
  217MOL0     H28593   6.933  10.078   3.516  0.7891 -2.7478  2.1106
  217MOL0     H28594   7.008  10.078   3.670 -0.1500  0.2744  0.5488
  217MOL0     H28595   6.980  10.326   3.479  0.1727 -1.2440 -0.7818
  217MOL0     H28596   7.026  10.335   3.656 -1.6605 -1.7577  1.7262
  217MOL0     H28597   6.724  10.326   3.412  0.4121 -1.0067  0.1229
  217MOL0     H28598   6.406  10.213   3.555 -0.2442  0.2564  1.2760
  217MOL0     H28599   6.473  10.316   3.430  1.4074 -1.6744  0.4377
  217MOL0     H28600   6.302  10.458   3.533  0.8307  1.5305 -0.5595
  217MOL0     H28601   6.446  10.512   3.615  4.1083 -2.8230  3.6925
  217MOL0     H28602   6.412  10.374   3.807  0.6984  2.0806 -0.6316
  217MOL0     H28603   6.304  10.502   3.784  0.0023  0.1710 -1.2383
  217MOL0     H28604   6.202  10.276   3.866 -0.4340  2.4407  0.5516
  217MOL0     H28605   6.238  10.221   3.711 -0.0430  0.6744 -0.6397
  217MOL0     H28606   6.039  10.157   3.904  0.7491 -0.1843 -1.2330
  217MOL0     H28607   5.825  10.117   4.018  2.5776  0.4945  0.8136
  217MOL0     H28608   5.429  10.470   4.071  2.1644  1.3841  3.0847
  217MOL0     H28609   5.238  10.536   4.194  1.1782  0.0986 -1.9569
  217MOL0     H28610   5.057  10.547   4.286 -0.1668 -1.1214 -0.4398
  217MOL0     H28611   5.140  10.568   4.437 -1.0548  1.9489 -1.9190
  217MOL0     H28612   4.934  10.602   4.520  1.5542 -0.4830  0.4542
  217MOL0     H28613   4.970  10.439   4.570 -0.7400  0.3978  0.8098
  217MOL0     H28614   4.841  10.353   4.389  6.4039  1.4362  1.0095
  217MOL0     H28615   4.806  10.505   4.318  1.0197 -0.3320 -0.8425
  217MOL0     H28616   4.726  10.455   4.601 -0.0675  1.4852  0.1710
  217MOL0     H28617   4.677  10.588   4.505 -0.8272  0.8582 -1.5280
  217MOL0     H28618   4.618  10.293   4.402 -0.4553 -0.8214  0.0130
  217MOL0     H28619   4.573  10.444   4.328  0.3143  0.6960  0.2183
  217MOL0     H28620   4.447  10.280   4.558  2.6249 -1.4988 -1.3786
  217MOL0     H28621   4.362  10.382   4.445 -1.6759  0.9381  3.7556
  217MOL0     H28622   4.501  10.502   4.685  0.4320 -0.7654  0.6066
  217MOL0     H28623   4.460  10.585   4.539 -0.4755 -0.3149 -0.2968
  217MOL0     H28624   4.224  10.548   4.563  1.2466 -0.3059 -1.8902
  217MOL0     H28625   4.282  10.573   4.730 -1.4012  0.8161 -1.2880
  217MOL0     H28626   5.266  10.153   4.400 -0.9125  0.8016  0.1485
  217MOL0     H28627   5.467  10.091   4.257  1.2228  0.1036 -0.4293
  217MOL0     H28628   5.649  10.409   3.738 -1.0930 -1.8230 -0.8175
  217MOL0     H28629   5.868  10.446   3.647 -1.2906  0.9398  0.4440
  217MOL0     H28630   7.834   9.937   2.970  1.0091  0.3465 -0.3334
  217MOL0     H28631   8.071   9.956   3.034 -1.0931 -1.3536  0.0413
  217MOL0     H28632   8.427   9.953   3.233  2.8017  0.9338  0.3830
  217MOL0     H28633   8.660   9.911   3.181 -1.4462  1.2975 -2.2168
  217MOL0     H28634   8.863   9.844   3.171 -4.2719  1.3402 -0.3756
  217MOL0     H28635   8.796   9.854   3.003  2.1458  1.1663 -0.2698
  217MOL0     H28636   9.017   9.673   3.093  0.9971  1.9786  2.9251
  217MOL0     H28637   8.971   9.695   2.925 -0.7439  0.7200  0.1466
  217MOL0     H28638   9.065   9.946   3.061  1.2890  0.7047  0.1761
  217MOL0     H28639   9.063   9.899   2.893  1.2529  2.7926  1.0812
  217MOL0     H28640   9.215   9.760   3.114  0.6888  0.1200 -0.8125
  217MOL0     H28641   9.235   9.731   2.939 -1.4708 -3.5169  2.5285
  217MOL0     H28642   9.490  10.060   2.998 -1.4657  1.2453 -0.8719
  217MOL0     H28643   8.576   9.501   3.106 -0.4599 -1.2222  0.4937
  217MOL0     H28644   8.360   9.521   3.196  0.5098 -0.1989  0.0164
  218MOL0     O28645   2.709   2.572   9.906 -0.5035 -0.1140 -0.4298
  218MOL0     C28646   2.763   2.490   9.981  1.2561 -0.0540  0.5282
  218MOL0     O28647   2.692   2.406  10.067  1.1203 -0.2488  0.1349
  218MOL0     C28648   2.569   2.448  10.115  0.2195 -0.8433 -0.3760
  218MOL0     C28649   2.564   2.544  10.217 -0.1597 -0.0053  0.0024
  218MOL0     C28650   2.444   2.604  10.253 -0.1947 -0.3032 -0.2891
  218MOL0     C28651   2.321   2.554  10.212 -0.0074 -0.5220  0.1025
  218MOL0     O28652   2.202   2.611  10.249  0.3232 -0.7482  1.2780
  218MOL0     C28653   2.120   2.650  10.139 -0.3684  0.4750  0.5551
  218MOL0     C28654   2.011   2.740  10.190  1.0049  0.1254 -0.0362
  218MOL0     C28655   1.913   2.670  10.286  0.6364  0.4905  0.1650
  218MOL0     C28656   1.822   2.780  10.333  0.3246 -0.5038 -0.3759
  218MOL0     C28657   1.732   2.740  10.451  0.3057  0.5223  0.3713
  218MOL0     C28658   1.600   2.809  10.437 -0.0946  0.0347 -0.6076
  218MOL0     C28659   1.593   2.960  10.443  1.0565 -0.7613 -0.4782
  218MOL0     C28660   1.450   3.010  10.463 -0.5999 -0.0700 -1.0669
  218MOL0     N28661   1.350   2.953  10.377  0.1355 -0.2058 -0.5519
  218MOL0     C28662   1.258   2.866  10.420  1.1607  0.2869  0.4706
  218MOL0     C28663   1.215   2.792  10.315 -0.0378  0.4266  0.8303
  218MOL0     C28664   1.128   2.675  10.320  0.3138  0.4495 -0.9392
  218MOL0     C28665   1.193   2.554  10.396 -0.3407  0.0672  0.4540
  218MOL0     C28666   1.308   2.494  10.321 -0.2409  0.4402 -0.4588
  218MOL0     C28667   1.359   2.373  10.386  0.3788  0.0518  0.3018
  218MOL0     O28668   1.458   2.313  10.303 -0.5656 -1.0780 -0.4473
  218MOL0     C28669   1.521   2.204  10.350  0.3348 -0.2329 -0.8999
  218MOL0     C28670   1.487   2.148  10.474  0.2049  1.1072  0.4206
  218MOL0     C28671   1.540   2.019  10.499 -0.2383 -0.2537 -0.3008
  218MOL0     C28672   1.624   1.954  10.404 -0.5810 -1.1280 -0.3652
  218MOL0     C28673   1.661   1.815  10.426  0.3242 -0.2795  0.3881
  218MOL0     O28674   1.703   1.745  10.315  0.1537  0.5190  0.5179
  218MOL0     C28675   1.734   1.606  10.339  0.5809 -0.0377 -0.2869
  218MOL0     C28676   1.625   1.516  10.334 -0.1107 -0.4437 -0.3145
  218MOL0     C28677   1.650   1.381  10.364  0.1798 -0.5672 -0.5422
  218MOL0     C28678   1.780   1.324  10.372 -0.1490 -0.6166 -0.2520
  218MOL0     O28679   1.794   1.185  10.383 -0.2296  0.9844  0.2003
  218MOL0     C28680   1.930   1.145  10.386 -0.4026  0.3240 -0.6205
  218MOL0     C28681   1.940   0.987  10.407  0.0678 -0.3085 -0.4115
  218MOL0     C28682   2.073   0.917  10.372  0.6249  0.1090 -0.2732
  218MOL0     C28683   2.121   0.936  10.226  0.1563 -0.2093 -0.7885
  218MOL0     C28684   2.014   0.892  10.123 -0.6977  0.2710  1.0932
  218MOL0     C28685   1.958   0.748  10.142  0.2908  0.6586 -1.0519
  218MOL0     C28686   1.839   0.738  10.047 -0.7820  1.1246 -0.6809
  218MOL0     C28687   1.798   0.591  10.032 -0.7746  0.4503  0.0156
  218MOL0    Cl28688   1.797   0.513  10.190 -0.1829  0.1780  0.1102
  218MOL0     C28689   1.884   1.411  10.377  0.9573 -0.3159 -0.7145
  218MOL0     C28690   1.855   1.550  10.353  0.3683  1.4439 -0.8338
  218MOL0     O28691   1.644   1.755  10.539 -0.2232  0.3851  0.3360
  218MOL0     C28692   1.667   2.032  10.291 -0.2609 -0.5394  0.4231
  218MOL0     C28693   1.610   2.154  10.260  0.2431 -0.0831  0.5335
  218MOL0     N28694   1.286   2.832  10.205 -0.1706 -0.4013 -0.5731
  218MOL0     N28695   1.365   2.931  10.241  0.3348  0.1714  0.4972
  218MOL0     C28696   2.327   2.450  10.113 -0.8307 -0.5711 -0.5341
  218MOL0     C28697   2.448   2.402  10.072 -0.0779  0.4358 -0.5218
  218MOL0     C28698   2.909   2.455   9.958  0.3812  0.1264  0.5695
  218MOL0     C28699   2.978   2.395  10.068  0.3896  0.1031  0.1967
  218MOL0     C28700   3.112   2.351  10.062  0.4431  0.1195  0.8800
  218MOL0     C28701   3.179   2.370   9.943 -0.3968 -0.0282  0.1190
  218MOL0     O28702   3.314   2.352   9.916 -0.4847 -0.8724  0.1757
  218MOL0     C28703   3.403   2.346  10.031 -0.9780  0.7516  0.1441
  218MOL0     C28704   3.534   2.274   9.993  0.7779  0.0160  0.2081
  218MOL0     C28705   3.599   2.319   9.856  0.6336  0.8943  0.5753
  218MOL0     C28706   3.683   2.439   9.875 -0.7148 -0.2282 -0.1264
  218MOL0     C28707   3.803   2.377   9.940  0.0050  0.2016 -0.1732
  218MOL0     C28708   3.886   2.305   9.990 -0.7147 -0.8950  0.0088
  218MOL0     C28709   3.107   2.404   9.825  0.3915  0.5670  0.8099
  218MOL0     C28710   2.971   2.451   9.832 -0.9405 -0.4078  0.0569
  218MOL0     H28711   2.654   2.587  10.260 -0.5183  0.4821  0.2850
  218MOL0     H28712   2.438   2.695  10.312 -3.1200 -1.8936  2.1465
  218MOL0     H28713   2.076   2.558  10.099 -0.7803 -0.1761  2.3897
  218MOL0     H28714   2.183   2.708  10.072  0.6925  0.4799  1.5124
  218MOL0     H28715   1.943   2.784  10.117 -0.9957  0.7076  2.0498
  218MOL0     H28716   2.055   2.823  10.247 -0.5085 -1.1265  3.2356
  218MOL0     H28717   1.958   2.634  10.379  0.4808 -1.2042 -0.3847
  218MOL0     H28718   1.853   2.590  10.241  0.3268 -1.0226  3.0343
  218MOL0     H28719   1.876   2.869  10.365  0.5338 -1.0448  0.8339
  218MOL0     H28720   1.753   2.807  10.252  1.7771 -1.7910 -2.1348
  218MOL0     H28721   1.790   2.761  10.541  2.0016 -0.8008 -0.3793
  218MOL0     H28722   1.724   2.631  10.454  0.2235  0.5399  2.5417
  218MOL0     H28723   1.542   2.757  10.513  1.7617 -0.8858  0.2476
  218MOL0     H28724   1.549   2.774  10.347 -2.4610 -0.5391  0.8687
  218MOL0     H28725   1.663   2.996  10.518  2.5992  0.0842 -2.2320
  218MOL0     H28726   1.624   2.989  10.342 -0.3245 -0.2667 -0.7847
  218MOL0     H28727   1.451   3.119  10.454  0.5527  0.0135 -0.1693
  218MOL0     H28728   1.425   2.990  10.567  1.5723  0.8951 -0.3066
  218MOL0     H28729   1.219   2.863  10.522  1.5400  0.8361  0.6416
  218MOL0     H28730   1.081   2.660  10.222  0.9760  2.3247 -1.5917
  218MOL0     H28731   1.043   2.709  10.380  1.6034  2.4656 -0.1570
  218MOL0     H28732   1.120   2.477  10.420  0.7111 -1.1917 -0.2707
  218MOL0     H28733   1.227   2.594  10.493 -0.5770  0.9041  0.1993
  218MOL0     H28734   1.271   2.463  10.222 -0.0376  1.3836 -0.8366
  218MOL0     H28735   1.381   2.575  10.316 -1.4224  1.4884 -1.6910
  218MOL0     H28736   1.272   2.306  10.386 -0.1409  0.6715 -1.1995
  218MOL0     H28737   1.396   2.392  10.487  1.2390  0.7782 -0.1426
  218MOL0     H28738   1.408   2.181  10.540  0.0189  2.1481 -0.2966
  218MOL0     H28739   1.497   1.968  10.584  0.9574 -0.1966  0.3593
  218MOL0     H28740   1.524   1.552  10.321 -0.9687 -1.3905  2.7657
  218MOL0     H28741   1.556   1.329  10.381 -1.4743  2.1528 -0.6742
  218MOL0     H28742   1.983   1.193  10.469  0.8661 -1.8734 -0.0910
  218MOL0     H28743   1.980   1.157  10.290  1.9511 -0.6440  0.4036
  218MOL0     H28744   1.864   0.939  10.345  0.9319  0.5004 -2.1753
  218MOL0     H28745   1.917   0.966  10.512 -1.3245 -2.6241 -1.1153
  218MOL0     H28746   2.064   0.809  10.385  0.8115 -0.5640 -4.4334
  218MOL0     H28747   2.159   0.951  10.430  0.2435 -0.7813  0.8513
  218MOL0     H28748   2.152   1.036  10.196 -3.1912  0.5880 -2.0478
  218MOL0     H28749   2.204   0.867  10.209 -0.2784 -1.0003  0.1955
  218MOL0     H28750   2.057   0.884  10.023 -1.0906 -2.4826  1.0741
  218MOL0     H28751   1.930   0.961  10.122 -0.9187  0.0064  1.2310
  218MOL0     H28752   1.926   0.743  10.246  1.7702 -0.3650 -0.6111
  218MOL0     H28753   2.038   0.676  10.122 -0.9429 -0.5832 -1.6635
  218MOL0     H28754   1.761   0.808  10.078 -0.4672  1.5164 -0.7703
  218MOL0     H28755   1.866   0.766   9.944 -0.5647  3.6958  0.0167
  218MOL0     H28756   1.870   0.536   9.972 -1.4395 -2.0561  1.3828
  218MOL0     H28757   1.697   0.584   9.992 -1.9197  0.4200  2.6697
  218MOL0     H28758   1.990   1.396  10.390  0.8935 -0.1273  0.0432
  218MOL0     H28759   1.947   1.606  10.341  1.1486  0.2891 -0.3615
  218MOL0     H28760   1.747   1.989  10.231 -1.3368 -0.7044 -0.9396
  218MOL0     H28761   1.638   2.196  10.164  0.5320 -1.4358 -0.0008
  218MOL0     H28762   2.236   2.419  10.063  1.2288 -3.0296 -3.0842
  218MOL0     H28763   2.445   2.314  10.009 -0.5776 -2.2940  2.9319
  218MOL0     H28764   2.923   2.381  10.160 -0.1149  3.0944  0.4551
  218MOL0     H28765   3.154   2.324  10.158 -0.2847 -0.1061  1.1473
  218MOL0     H28766   3.356   2.282  10.106  0.2598  0.6313  0.8411
  218MOL0     H28767   3.417   2.443  10.080 -1.1062  1.7895 -1.7777
  218MOL0     H28768   3.602   2.293  10.077  1.5205 -1.8998  0.0862
  218MOL0     H28769   3.518   2.168   9.974  0.8800  0.5124 -3.3821
  218MOL0     H28770   3.526   2.341   9.777 -0.2188 -0.3120  0.9951
  218MOL0     H28771   3.657   2.233   9.821 -1.3716 -0.6662  0.8263
  218MOL0     H28772   3.709   2.475   9.775  1.1639 -1.3869 -0.1118
  218MOL0     H28773   3.638   2.519   9.935  0.1133 -0.3708  0.7077
  218MOL0     H28774   3.959   2.243  10.037 -0.8795 -0.5079  0.7946
  218MOL0     H28775   3.145   2.421   9.725 -0.5941  2.8267  0.7576
  218MOL0     H28776   2.924   2.462   9.735  0.0170  0.6397 -0.3059
  219MOL0     O28777   0.576   6.857   7.579 -0.8032 -0.1735 -0.2014
  219MOL0     C28778   0.667   6.942   7.572  0.7058  0.0562 -0.9664
  219MOL0     O28779   0.649   7.075   7.558  0.2549 -0.5687 -0.1321
  219MOL0     C28780   0.523   7.131   7.551  0.2494  0.2114 -0.4630
  219MOL0     C28781   0.429   7.110   7.646 -0.3158 -0.2074  0.3994
  219MOL0     C28782   0.301   7.181   7.636  0.4878 -0.6157  0.2699
  219MOL0     C28783   0.274   7.268   7.530 -0.7861  0.6161  0.1896
  219MOL0     O28784   0.166   7.347   7.510 -0.8481  0.8792  0.1794
  219MOL0     C28785   0.045   7.317   7.576  0.6620 -0.5993  0.0473
  219MOL0     C28786  -0.075   7.405   7.521  0.3624 -0.3373  0.1083
  219MOL0     C28787  -0.095   7.380   7.368  0.6256 -0.1264  0.6729
  219MOL0     C28788  -0.204   7.468   7.299  0.5768 -0.6060  0.2797
  219MOL0     C28789  -0.351   7.441   7.340  0.4581  0.4250  1.2062
  219MOL0     C28790  -0.432   7.557   7.290 -0.3721 -0.4594  0.2247
  219MOL0     C28791  -0.580   7.558   7.340  0.3580  0.2060  0.7535
  219MOL0     C28792  -0.666   7.659   7.262 -0.1629  0.6458 -0.3783
  219MOL0     N28793  -0.789   7.584   7.237  0.3860 -0.7740  0.0086
  219MOL0     C28794  -0.823   7.526   7.123  0.3355  0.5931  0.9417
  219MOL0     C28795  -0.949   7.473   7.150  0.0459  0.5747  0.8007
  219MOL0     C28796  -1.038   7.397   7.051 -0.1568 -1.0421 -0.3910
  219MOL0     C28797  -1.089   7.274   7.119 -0.4088 -0.1789 -1.1058
  219MOL0     C28798  -1.206   7.207   7.049  0.2009  0.6883  0.3690
  219MOL0     C28799  -1.334   7.287   7.047 -0.4885 -0.9274 -0.3855
  219MOL0     O28800  -1.383   7.315   7.182 -0.9387 -0.4013  0.2680
  219MOL0     C28801  -1.519   7.352   7.187  0.4225 -0.2024 -0.0939
  219MOL0     C28802  -1.596   7.401   7.075  0.4465  0.6518 -0.5885
  219MOL0     C28803  -1.731   7.439   7.096  0.6815 -0.4763  0.3749
  219MOL0     C28804  -1.787   7.434   7.227 -0.3487  0.0889 -0.4689
  219MOL0     C28805  -1.930   7.472   7.266 -0.2016  0.2433 -0.0048
  219MOL0     O28806  -1.980   7.458   7.396 -0.3967  0.1713  0.3143
  219MOL0     C28807  -2.099   7.515   7.422  0.2411 -0.9316  0.5064
  219MOL0     C28808  -2.189   7.444   7.498 -0.3960 -0.5146 -0.9562
  219MOL0     C28809  -2.322   7.491   7.516 -0.5381  1.3412  0.0730
  219MOL0     C28810  -2.357   7.619   7.459  0.1402  0.9315 -0.0231
  219MOL0     O28811  -2.488   7.659   7.478 -1.0050 -0.4071 -1.0153
  219MOL0     C28812  -2.538   7.784   7.438  1.8103 -0.4998  0.2924
  219MOL0     C28813  -2.679   7.822   7.495  0.5508  0.3473 -1.1272
  219MOL0     C28814  -2.760   7.698   7.535 -0.2690  0.2925  0.8560
  219MOL0     C28815  -2.858   7.749   7.640 -0.3437 -0.1248  0.6891
  219MOL0     C28816  -2.963   7.642   7.667  0.7996 -0.6634  0.2072
  219MOL0     C28817  -3.061   7.695   7.773 -0.0441 -0.5417 -0.5438
  219MOL0     C28818  -3.189   7.620   7.790  1.0233  0.7602 -0.2586
  219MOL0     C28819  -3.285   7.676   7.895 -0.6058 -0.1892 -0.2659
  219MOL0    Cl28820  -3.369   7.833   7.845 -0.2290  0.0548  0.0945
  219MOL0     C28821  -2.262   7.693   7.391 -0.7721  0.8664  0.3736
  219MOL0     C28822  -2.132   7.644   7.371 -0.4986  0.1971 -0.4112
  219MOL0     O28823  -1.983   7.523   7.172 -0.1227 -0.4072 -0.0006
  219MOL0     C28824  -1.707   7.395   7.335 -0.0828 -0.1854  1.0562
  219MOL0     C28825  -1.574   7.352   7.317  0.9141 -0.1661  0.0479
  219MOL0     N28826  -0.978   7.500   7.274  0.8336 -0.1066 -0.5080
  219MOL0     N28827  -0.883   7.566   7.333 -0.6383 -0.6124  0.9372
  219MOL0     C28828   0.381   7.283   7.437  0.7795 -0.0160 -0.7220
  219MOL0     C28829   0.495   7.219   7.442  0.2148 -0.6764  0.2451
  219MOL0     C28830   0.804   6.888   7.568  0.2963 -0.2128  0.6637
  219MOL0     C28831   0.815   6.743   7.560 -0.8327  0.7672 -0.1411
  219MOL0     C28832   0.943   6.688   7.552  0.7352  0.1217 -0.1307
  219MOL0     C28833   1.056   6.762   7.539 -0.2217 -0.3993 -0.4798
  219MOL0     O28834   1.176   6.697   7.519  0.7173  0.6861  0.5661
  219MOL0     C28835   1.193   6.674   7.381 -0.3074 -0.6910 -0.4582
  219MOL0     C28836   1.315   6.589   7.364 -0.0220 -0.5237 -0.2489
  219MOL0     C28837   1.447   6.651   7.406  0.5416  0.1154 -0.2064
  219MOL0     C28838   1.566   6.563   7.381  0.5441  0.4621  0.0957
  219MOL0     C28839   1.689   6.629   7.424  0.2827  0.1660  0.3991
  219MOL0     C28840   1.792   6.678   7.477  0.3839 -0.0050  0.0254
  219MOL0     C28841   1.044   6.908   7.530 -0.5985 -0.0454 -0.1931
  219MOL0     C28842   0.917   6.964   7.553 -0.0026 -0.3346 -0.6908
  219MOL0     H28843   0.464   7.055   7.732 -1.7722  0.0710  1.2082
  219MOL0     H28844   0.231   7.155   7.715 -0.2547 -0.0696 -0.1874
  219MOL0     H28845   0.043   7.336   7.683  1.3086  0.8429 -0.1804
  219MOL0     H28846   0.018   7.212   7.556  0.1879 -0.5960  0.6428
  219MOL0     H28847  -0.073   7.507   7.560  0.0741 -0.9445  1.7933
  219MOL0     H28848  -0.160   7.353   7.565  1.4280 -2.5898 -0.3608
  219MOL0     H28849  -0.110   7.272   7.357  2.2220 -0.3057 -0.1149
  219MOL0     H28850  -0.008   7.415   7.312 -0.1685  0.2221 -0.3769
  219MOL0     H28851  -0.181   7.575   7.306  0.7456 -0.7457  3.6602
  219MOL0     H28852  -0.198   7.443   7.193  0.0220 -0.2943  0.1711
  219MOL0     H28853  -0.376   7.425   7.446 -2.3675  1.6333  0.8075
  219MOL0     H28854  -0.386   7.354   7.286 -4.4980  3.7343 -1.6888
  219MOL0     H28855  -0.420   7.555   7.182  0.1947  2.1398  0.1822
  219MOL0     H28856  -0.386   7.646   7.334  0.1822 -1.5441  1.9754
  219MOL0     H28857  -0.621   7.458   7.323  1.7088  0.2157 -4.3076
  219MOL0     H28858  -0.565   7.572   7.447  1.1138  0.0163  0.6826
  219MOL0     H28859  -0.614   7.688   7.170  0.4658 -1.9406 -0.8964
  219MOL0     H28860  -0.694   7.740   7.330 -1.0674 -0.3037  0.4233
  219MOL0     H28861  -0.770   7.517   7.029 -2.1869 -1.8928 -0.3882
  219MOL0     H28862  -0.981   7.373   6.961  0.5878  2.3220 -0.9669
  219MOL0     H28863  -1.123   7.462   7.028  0.0709 -0.3146  0.7218
  219MOL0     H28864  -1.115   7.297   7.222 -0.9293  1.4037 -1.5648
  219MOL0     H28865  -1.007   7.202   7.127 -2.2194 -2.0990  1.8623
  219MOL0     H28866  -1.179   7.174   6.948  0.8773  0.6460  0.5559
  219MOL0     H28867  -1.240   7.121   7.108 -2.4688  2.1757  1.1318
  219MOL0     H28868  -1.404   7.228   6.987 -2.5084  1.6489 -0.7375
  219MOL0     H28869  -1.311   7.376   6.987 -1.1518 -1.6161 -1.6956
  219MOL0     H28870  -1.561   7.399   6.972  0.5220  1.8892 -0.6036
  219MOL0     H28871  -1.787   7.469   7.008  0.1985 -2.0453  0.1048
  219MOL0     H28872  -2.164   7.345   7.535  2.4003  1.4600  3.3174
  219MOL0     H28873  -2.386   7.431   7.579  1.1991  2.3617  3.0244
  219MOL0     H28874  -2.554   7.778   7.330 -1.3285  2.6827  0.3798
  219MOL0     H28875  -2.473   7.869   7.463  4.5807 -2.7985  1.3736
  219MOL0     H28876  -2.742   7.887   7.433 -1.1496 -0.8645 -0.7620
  219MOL0     H28877  -2.660   7.883   7.583 -0.3792 -0.8316 -0.0648
  219MOL0     H28878  -2.712   7.603   7.561 -1.4150 -0.2988  0.9253
  219MOL0     H28879  -2.809   7.673   7.440  0.6073  0.3997  0.3752
  219MOL0     H28880  -2.798   7.759   7.731  0.5755 -0.1624  0.0981
  219MOL0     H28881  -2.907   7.842   7.611  1.4090 -0.1207 -2.7426
  219MOL0     H28882  -2.926   7.542   7.694  0.8976 -1.1210 -1.4756
  219MOL0     H28883  -3.008   7.633   7.567  3.4958 -0.6701 -1.0946
  219MOL0     H28884  -3.082   7.803   7.770  3.5944  0.5366  3.1990
  219MOL0     H28885  -3.008   7.680   7.867  3.3570  3.1137 -1.5812
  219MOL0     H28886  -3.244   7.609   7.696  2.1281 -1.0837 -0.7317
  219MOL0     H28887  -3.172   7.515   7.815 -0.9055  1.0216  2.6391
  219MOL0     H28888  -3.238   7.686   7.994 -0.4797  0.3011 -0.3726
  219MOL0     H28889  -3.361   7.601   7.922 -1.7104  1.1821  0.5430
  219MOL0     H28890  -2.288   7.794   7.359 -0.8812  0.8067  0.2729
  219MOL0     H28891  -2.052   7.700   7.325 -0.5187  2.1941  1.7919
  219MOL0     H28892  -1.744   7.405   7.437 -1.6263 -0.1072  0.5198
  219MOL0     H28893  -1.529   7.347   7.416 -0.5014  2.4954  0.9179
  219MOL0     H28894   0.363   7.352   7.355 -2.4587  0.4920  0.2631
  219MOL0     H28895   0.565   7.242   7.363  1.0410 -0.7210  0.9439
  219MOL0     H28896   0.739   6.667   7.574 -0.3590  0.0980 -1.1285
  219MOL0     H28897   0.965   6.582   7.556 -0.5704 -0.1555  2.6717
  219MOL0     H28898   1.193   6.773   7.335 -1.2071 -0.1900  0.5867
  219MOL0     H28899   1.106   6.621   7.340  0.5494 -1.0788 -1.8604
  219MOL0     H28900   1.307   6.496   7.420  1.5686  1.1268  2.9462
  219MOL0     H28901   1.326   6.562   7.258  1.9475  0.3706 -0.3065
  219MOL0     H28902   1.431   6.673   7.512  0.7912 -1.4817  0.1842
  219MOL0     H28903   1.461   6.750   7.360  1.5249  0.2597  0.3753
  219MOL0     H28904   1.552   6.469   7.435 -1.6354 -0.2227 -1.5173
  219MOL0     H28905   1.580   6.540   7.275 -1.8767 -0.3460 -0.1159
  219MOL0     H28906   1.892   6.709   7.499  1.6115 -2.4809 -1.5754
  219MOL0     H28907   1.127   6.962   7.484 -1.3910  1.3984 -0.0074
  219MOL0     H28908   0.895   7.069   7.532  1.0666  0.0369 -0.0118
  220MOL0     O28909   7.152   8.793   3.125 -0.3822  0.3478 -0.1546
  220MOL0     C28910   7.178   8.674   3.088  0.1462  0.9067  0.1090
  220MOL0     O28911   7.088   8.571   3.073  0.1720  0.9131  0.3672
  220MOL0     C28912   6.953   8.591   3.095  0.5961  0.2696  0.3977
  220MOL0     C28913   6.857   8.535   3.013 -0.4927 -0.3562  0.0840
  220MOL0     C28914   6.725   8.540   3.041  0.1705 -0.4465  0.2356
  220MOL0     C28915   6.676   8.616   3.151  1.7205 -0.0937  0.0546
  220MOL0     O28916   6.538   8.641   3.172 -0.1371 -0.3697  0.6489
  220MOL0     C28917   6.442   8.607   3.074  0.8952 -0.3876  0.3442
  220MOL0     C28918   6.314   8.665   3.119  0.9130 -0.5696 -0.6661
  220MOL0     C28919   6.308   8.822   3.120  0.1618  0.5944 -0.1604
  220MOL0     C28920   6.167   8.870   3.149  0.6669  1.3380  0.6900
  220MOL0     C28921   6.141   9.024   3.177  0.4497 -0.8740  0.1324
  220MOL0     C28922   5.994   9.048   3.207 -0.0093  0.1458  0.0585
  220MOL0     C28923   5.971   9.205   3.224 -0.1965  0.3040 -0.0758
  220MOL0     C28924   5.813   9.218   3.251 -0.5755 -0.3980 -0.2219
  220MOL0     N28925   5.758   9.330   3.174  0.1557 -0.3117 -0.4651
  220MOL0     C28926   5.642   9.393   3.222  0.3591  0.8356 -0.0672
  220MOL0     C28927   5.594   9.465   3.118 -0.0050  0.0520  0.3646
  220MOL0     C28928   5.471   9.551   3.098 -0.6064  0.4469 -0.3134
  220MOL0     C28929   5.341   9.468   3.069 -0.2048 -1.2264 -0.2957
  220MOL0     C28930   5.340   9.386   2.941 -1.0673 -0.0173  0.1084
  220MOL0     C28931   5.220   9.294   2.925  0.3066 -0.3392 -0.1689
  220MOL0     O28932   5.100   9.366   2.922  0.0535 -0.6244 -0.0922
  220MOL0     C28933   4.980   9.300   2.920 -0.5851 -0.2851  0.1821
  220MOL0     C28934   4.949   9.162   2.921  0.0146 -1.7595  0.1322
  220MOL0     C28935   4.824   9.120   2.941  0.9348 -0.0496  0.2738
  220MOL0     C28936   4.713   9.206   2.934  0.2705 -0.0412 -0.6070
  220MOL0     C28937   4.578   9.145   2.962 -0.1736 -1.5045 -0.4704
  220MOL0     O28938   4.469   9.237   2.982 -0.1244 -0.2375  0.1590
  220MOL0     C28939   4.338   9.203   3.005 -0.3616 -0.0115  0.8250
  220MOL0     C28940   4.238   9.295   2.964  0.2376 -0.9507 -0.3011
  220MOL0     C28941   4.104   9.252   2.970  0.3940 -0.3655  0.9640
  220MOL0     C28942   4.069   9.117   3.002  0.3472  0.0434  0.6678
  220MOL0     O28943   3.940   9.085   2.998  0.3507  0.7375 -0.2690
  220MOL0     C28944   3.911   9.032   2.872 -0.7342  0.7573  0.1962
  220MOL0     C28945   3.765   9.050   2.851  0.0142  0.0589  0.1816
  220MOL0     C28946   3.664   8.978   2.940  0.7605 -0.2302  0.4931
  220MOL0     C28947   3.684   8.828   2.960  0.3192  0.4250 -0.6728
  220MOL0     C28948   3.560   8.767   3.036 -1.3700 -0.6188  0.3600
  220MOL0     C28949   3.573   8.621   3.053 -0.4205 -0.2881  0.1169
  220MOL0     C28950   3.561   8.551   2.922  0.3464  0.0950  0.1477
  220MOL0     C28951   3.539   8.403   2.955  0.5020  0.1281 -0.0586
  220MOL0    Cl28952   3.501   8.299   2.806 -0.8549  0.1183 -0.0051
  220MOL0     C28953   4.166   9.033   3.053  0.7666 -1.2896  0.1574
  220MOL0     C28954   4.296   9.078   3.062 -0.2509 -0.4007  0.0932
  220MOL0     O28955   4.566   9.023   2.966  0.0434  0.2361 -0.2272
  220MOL0     C28956   4.740   9.346   2.917 -0.5498  0.1291  0.0988
  220MOL0     C28957   4.874   9.388   2.918  0.8890 -0.2405 -0.2121
  220MOL0     N28958   5.675   9.441   3.007  0.6043 -0.1498  0.0303
  220MOL0     N28959   5.766   9.354   3.042  0.9084 -0.5968 -0.3690
  220MOL0     C28960   6.767   8.678   3.235 -0.0333 -0.9728  0.7165
  220MOL0     C28961   6.904   8.672   3.200  0.7951 -0.0055 -0.1114
  220MOL0     C28962   7.321   8.644   3.072  0.4533 -0.1996 -1.2986
  220MOL0     C28963   7.364   8.513   3.046 -0.1043  0.0042 -0.2895
  220MOL0     C28964   7.497   8.488   3.034  0.0636  0.7218 -0.6411
  220MOL0     C28965   7.598   8.582   3.046  0.2237  0.1918 -0.1880
  220MOL0     O28966   7.725   8.532   3.038 -0.0308  0.5175  0.0800
  220MOL0     C28967   7.849   8.613   3.078  0.0381 -0.3427  0.3107
  220MOL0     C28968   7.891   8.597   3.225 -0.4112  0.0883  0.2882
  220MOL0     C28969   8.028   8.657   3.243 -0.3931  0.9560  0.1403
  220MOL0     C28970   8.104   8.629   3.387  0.3057 -0.7964 -0.2234
  220MOL0     C28971   8.018   8.692   3.489  0.0149  1.2130 -0.3040
  220MOL0     C28972   7.956   8.725   3.584  1.0553 -0.4967 -0.4662
  220MOL0     C28973   7.559   8.710   3.071  0.6349 -0.0174  0.2573
  220MOL0     C28974   7.423   8.749   3.079 -0.1086 -0.7188 -0.3935
  220MOL0     H28975   6.894   8.485   2.924 -0.2291 -0.2633  0.1398
  220MOL0     H28976   6.655   8.495   2.971  1.2579  1.4584 -2.2386
  220MOL0     H28977   6.440   8.498   3.071  0.0506 -0.3592 -1.9617
  220MOL0     H28978   6.459   8.643   2.972 -1.7982 -0.9686 -0.3832
  220MOL0     H28979   6.292   8.628   3.220 -2.8711  1.1800 -0.6633
  220MOL0     H28980   6.233   8.621   3.061  0.5692  1.6740 -1.9956
  220MOL0     H28981   6.340   8.855   3.021  1.0852  1.1443  0.3166
  220MOL0     H28982   6.376   8.852   3.200  1.8310 -1.1717 -0.8231
  220MOL0     H28983   6.099   8.848   3.066 -1.8228 -0.6312  3.0135
  220MOL0     H28984   6.124   8.812   3.232 -0.6040 -2.3999 -2.2822
  220MOL0     H28985   6.177   9.087   3.095  1.4667  2.3647  2.8379
  220MOL0     H28986   6.207   9.046   3.261  3.6445 -2.2725 -1.8282
  220MOL0     H28987   5.981   8.995   3.301  1.3411  2.2532  1.5364
  220MOL0     H28988   5.922   9.003   3.138 -1.0679 -2.3705  2.6241
  220MOL0     H28989   6.022   9.245   3.312  1.5687  0.6173 -1.1991
  220MOL0     H28990   6.011   9.268   3.144 -0.7342 -2.5005 -2.7311
  220MOL0     H28991   5.799   9.237   3.358  3.2215 -1.8978  0.7122
  220MOL0     H28992   5.765   9.128   3.211 -0.5594 -0.2081 -0.6756
  220MOL0     H28993   5.594   9.392   3.319  0.1630  1.6320 -0.1472
  220MOL0     H28994   5.483   9.627   3.020  0.8893 -1.8411 -2.4827
  220MOL0     H28995   5.454   9.600   3.194  0.4165 -1.2148  0.7801
  220MOL0     H28996   5.256   9.536   3.057  1.4788  1.6644  2.8071
  220MOL0     H28997   5.316   9.398   3.149 -1.9656  0.4679  0.7311
  220MOL0     H28998   5.346   9.461   2.861 -1.7222 -3.3072 -3.2932
  220MOL0     H28999   5.434   9.331   2.940 -1.3634 -0.7001 -2.9196
  220MOL0     H29000   5.233   9.233   3.015  2.6947  1.1085  0.5578
  220MOL0     H29001   5.240   9.232   2.837  2.8308  2.5915 -1.8619
  220MOL0     H29002   5.038   9.099   2.921  1.9925  0.8707  0.5743
  220MOL0     H29003   4.824   9.013   2.959  4.8936 -0.5002 -1.1874
  220MOL0     H29004   4.265   9.392   2.924 -1.8610  0.2805  1.0360
  220MOL0     H29005   4.019   9.312   2.941 -0.7942 -2.0108  0.8715
  220MOL0     H29006   3.942   8.927   2.873 -1.2008  0.6182  0.1301
  220MOL0     H29007   3.965   9.085   2.792  1.9692 -2.7995 -0.5805
  220MOL0     H29008   3.738   9.022   2.749 -1.0986 -1.2154  0.7949
  220MOL0     H29009   3.742   9.156   2.862  0.3471  0.0055  1.6330
  220MOL0     H29010   3.566   8.992   2.892  1.4277  0.6622 -0.6787
  220MOL0     H29011   3.669   9.021   3.040  2.7954 -2.7056  1.5351
  220MOL0     H29012   3.698   8.776   2.864 -0.3261  0.1715 -0.6338
  220MOL0     H29013   3.773   8.808   3.020 -0.8703  1.3825  1.4891
  220MOL0     H29014   3.468   8.793   2.983  0.5687  0.8751 -2.5841
  220MOL0     H29015   3.560   8.808   3.137 -1.0937 -1.4377  0.6937
  220MOL0     H29016   3.489   8.596   3.119 -0.9273  1.0495 -0.0050
  220MOL0     H29017   3.669   8.595   3.099 -0.0779  2.0374  0.8679
  220MOL0     H29018   3.464   8.578   2.877 -0.3647  2.9405  3.0933
  220MOL0     H29019   3.642   8.569   2.851  0.7704  0.5469  0.7416
  220MOL0     H29020   3.452   8.391   3.021  2.1382 -1.2035  2.0163
  220MOL0     H29021   3.626   8.356   3.002  0.5739 -0.0489 -0.3657
  220MOL0     H29022   4.141   8.936   3.096  0.5165 -1.8786 -1.2765
  220MOL0     H29023   4.364   8.999   3.090  0.7816  0.6270  0.5262
  220MOL0     H29024   4.661   9.420   2.918 -0.1021  0.7986 -3.1589
  220MOL0     H29025   4.894   9.495   2.914  0.1207 -0.0088  1.3284
  220MOL0     H29026   6.735   8.751   3.308 -0.2390 -0.7917  0.4493
  220MOL0     H29027   6.972   8.728   3.263  1.1159 -1.5955  1.0279
  220MOL0     H29028   7.299   8.427   3.033  1.2749 -0.7232 -2.9669
  220MOL0     H29029   7.530   8.386   3.022 -2.4738 -0.2810  0.1998
  220MOL0     H29030   7.823   8.719   3.063 -0.1005 -0.0752  2.2083
  220MOL0     H29031   7.923   8.568   3.012 -1.5715  0.7431 -2.3921
  220MOL0     H29032   7.821   8.658   3.283 -0.9971  1.3779 -1.6492
  220MOL0     H29033   7.896   8.492   3.254  0.7449  0.2084  0.5422
  220MOL0     H29034   8.033   8.766   3.231 -0.2187  0.9656  0.2941
  220MOL0     H29035   8.087   8.611   3.164 -0.8078 -0.8047  0.8190
  220MOL0     H29036   8.128   8.523   3.404 -1.9334 -1.5682 -1.4469
  220MOL0     H29037   8.202   8.678   3.386  1.0784 -2.2792  0.0043
  220MOL0     H29038   7.908   8.750   3.677  2.4508  3.4588 -0.6024
  220MOL0     H29039   7.628   8.794   3.069  0.6989 -0.0319  1.4090
  220MOL0     H29040   7.414   8.856   3.093 -0.0874 -0.4874 -1.9649
  221MOL0     O29041   1.907   9.815   6.128  0.4378 -0.2546  0.5069
  221MOL0     C29042   1.957   9.725   6.060 -0.1215  0.4257 -1.1894
  221MOL0     O29043   1.900   9.675   5.942 -1.1624  0.3288  0.2271
  221MOL0     C29044   1.768   9.662   5.936  0.4056  0.3957  0.2073
  221MOL0     C29045   1.699   9.693   5.822 -1.3035  0.6041 -0.6017
  221MOL0     C29046   1.563   9.654   5.807 -0.8754  0.4627  0.2301
  221MOL0     C29047   1.497   9.589   5.913 -0.0884  0.3808 -0.3809
  221MOL0     O29048   1.364   9.554   5.901 -0.0878 -0.6095 -0.1908
  221MOL0     C29049   1.274   9.639   5.822 -0.7250  0.1212  0.1851
  221MOL0     C29050   1.141   9.665   5.899 -0.7883 -1.1710  0.2626
  221MOL0     C29051   1.160   9.756   6.022 -0.1559 -0.3140 -0.0016
  221MOL0     C29052   1.036   9.775   6.105 -0.3039 -0.7378 -0.4432
  221MOL0     C29053   0.986   9.669   6.206 -1.1843 -0.7296  0.1787
  221MOL0     C29054   1.082   9.645   6.327 -0.5490  0.1460 -0.0867
  221MOL0     C29055   1.059   9.515   6.388  1.0123  0.1041 -0.1802
  221MOL0     C29056   0.905   9.458   6.396 -0.4338 -0.1139 -0.0767
  221MOL0     N29057   0.901   9.345   6.480  1.5112 -0.0069 -0.1762
  221MOL0     C29058   0.938   9.222   6.439 -0.7179 -0.0080  0.7939
  221MOL0     C29059   0.879   9.145   6.530 -0.0620 -0.0305  1.1466
  221MOL0     C29060   0.883   9.000   6.508  0.3453 -0.4387  0.0899
  221MOL0     C29061   0.766   8.952   6.420 -0.5396 -1.1793  0.2543
  221MOL0     C29062   0.627   8.970   6.476  0.7816 -0.9224 -0.2433
  221MOL0     C29063   0.510   8.971   6.371  0.3887 -1.0613  0.1812
  221MOL0     O29064   0.489   9.093   6.302 -0.7034 -0.0897 -0.7733
  221MOL0     C29065   0.375   9.116   6.225  0.9374  0.1914 -0.5125
  221MOL0     C29066   0.378   9.241   6.156  1.2374  0.3359  0.8269
  221MOL0     C29067   0.273   9.278   6.069 -0.0973 -0.0976  0.2678
  221MOL0     C29068   0.160   9.203   6.056 -0.6626  0.9699  0.2917
  221MOL0     C29069   0.039   9.249   5.976  0.5199  0.9746 -0.6923
  221MOL0     O29070  -0.072   9.171   5.966  0.3214  0.7174  0.4094
  221MOL0     C29071  -0.187   9.223   5.898 -1.2902  0.7195 -0.3255
  221MOL0     C29072  -0.288   9.130   5.870  0.0149 -0.7874 -0.0632
  221MOL0     C29073  -0.401   9.161   5.798 -0.2459 -0.3191  0.2087
  221MOL0     C29074  -0.427   9.294   5.750 -0.7374 -0.9326 -1.7023
  221MOL0     O29075  -0.541   9.333   5.682 -0.3666 -0.1612 -0.5220
  221MOL0     C29076  -0.530   9.422   5.571 -0.2442  0.4321 -0.5102
  221MOL0     C29077  -0.605   9.372   5.449  0.2628  0.4646  0.2883
  221MOL0     C29078  -0.756   9.391   5.462  0.3083  0.5850 -0.1243
  221MOL0     C29079  -0.817   9.353   5.329  1.0972 -0.2364  0.2368
  221MOL0     C29080  -0.972   9.341   5.331 -0.3697  0.1864 -0.7357
  221MOL0     C29081  -1.009   9.310   5.185  0.4762  0.2600 -0.0254
  221MOL0     C29082  -1.158   9.273   5.176 -0.2384 -0.2933  0.3587
  221MOL0     C29083  -1.234   9.408   5.199 -0.0526  0.3606  0.1472
  221MOL0    Cl29084  -1.202   9.532   5.068 -0.0738 -0.4871  0.6920
  221MOL0     C29085  -0.330   9.389   5.798  0.7779  0.8044  0.5678
  221MOL0     C29086  -0.215   9.355   5.869  0.5368  0.1731 -0.0058
  221MOL0     O29087   0.059   9.351   5.911 -0.1280  0.1291  0.0808
  221MOL0     C29088   0.151   9.083   6.131 -0.9293  0.7202 -0.9190
  221MOL0     C29089   0.262   9.038   6.212 -0.1365 -0.2315 -0.1520
  221MOL0     N29090   0.825   9.216   6.635 -0.5009  0.5353  0.1583
  221MOL0     N29091   0.823   9.339   6.592 -0.7982  0.3138 -0.6245
  221MOL0     C29092   1.559   9.566   6.038  0.1547  0.3535 -0.4325
  221MOL0     C29093   1.691   9.603   6.050 -0.6051  0.4423  0.2509
  221MOL0     C29094   2.095   9.685   6.092  0.6075 -0.8858 -0.6688
  221MOL0     C29095   2.160   9.747   6.206 -0.4792  0.8898  0.3619
  221MOL0     C29096   2.277   9.682   6.248  0.8518 -0.4112  0.4598
  221MOL0     C29097   2.342   9.588   6.177 -0.6385  0.4049 -0.0106
  221MOL0     O29098   2.459   9.542   6.236 -0.4575 -0.5635 -0.4115
  221MOL0     C29099   2.476   9.403   6.218 -0.1199  0.7744 -0.5573
  221MOL0     C29100   2.588   9.351   6.306 -0.5344 -0.9378  1.2540
  221MOL0     C29101   2.589   9.415   6.446 -0.1660  0.0524  0.1059
  221MOL0     C29102   2.710   9.383   6.524  0.2597 -0.3077  0.3018
  221MOL0     C29103   2.821   9.464   6.474  0.0300 -0.3406 -0.6386
  221MOL0     C29104   2.919   9.516   6.427  0.4693 -0.6221  0.5897
  221MOL0     C29105   2.292   9.542   6.050  0.2592 -0.2040  1.1761
  221MOL0     C29106   2.159   9.587   6.014  0.8696 -0.4881  0.1832
  221MOL0     H29107   1.749   9.710   5.727  1.3874 -3.5487 -0.1699
  221MOL0     H29108   1.511   9.669   5.713 -1.0820 -0.2797  0.2157
  221MOL0     H29109   1.249   9.604   5.722  0.2454 -2.8814  0.8785
  221MOL0     H29110   1.330   9.732   5.810  0.5360 -0.6508 -0.1303
  221MOL0     H29111   1.095   9.572   5.934 -1.1877 -0.7431  0.8928
  221MOL0     H29112   1.071   9.706   5.825  0.5941  3.0206  1.0190
  221MOL0     H29113   1.196   9.857   6.004 -1.4515  0.5652  2.0282
  221MOL0     H29114   1.236   9.705   6.082  1.5435  1.6435 -0.3748
  221MOL0     H29115   1.070   9.859   6.166 -1.9101  1.6335 -2.6011
  221MOL0     H29116   0.950   9.813   6.048 -0.4587  3.1229  1.9501
  221MOL0     H29117   0.967   9.574   6.155 -3.3336 -1.1186  1.5980
  221MOL0     H29118   0.895   9.706   6.254 -0.6012  0.9207  0.0836
  221MOL0     H29119   1.078   9.730   6.397 -0.9782 -0.1473  0.2522
  221MOL0     H29120   1.184   9.641   6.289  0.1075 -0.7321  1.6491
  221MOL0     H29121   1.103   9.436   6.327 -0.0149  0.2181 -1.0885
  221MOL0     H29122   1.090   9.515   6.493 -2.4798  2.2313  1.0084
  221MOL0     H29123   0.876   9.431   6.294 -1.7427  2.4739 -0.4723
  221MOL0     H29124   0.834   9.535   6.427 -2.0760 -0.3075 -3.0260
  221MOL0     H29125   0.997   9.202   6.351 -0.8080  2.2434  0.1524
  221MOL0     H29126   0.866   8.952   6.605  0.2646 -0.9882 -0.1958
  221MOL0     H29127   0.981   8.968   6.473 -0.7969 -2.8990 -1.0571
  221MOL0     H29128   0.774   8.846   6.391  1.6480 -0.6786 -1.2949
  221MOL0     H29129   0.769   9.006   6.325 -0.7908 -2.9924 -0.8397
  221MOL0     H29130   0.611   8.901   6.559  1.0586 -0.1760  0.4496
  221MOL0     H29131   0.624   9.071   6.518 -1.6475 -1.5620  1.3303
  221MOL0     H29132   0.427   8.947   6.439 -0.5643 -2.8381 -1.5212
  221MOL0     H29133   0.510   8.888   6.300 -2.3952 -1.7202  0.8158
  221MOL0     H29134   0.467   9.303   6.151  0.8027  0.8626 -1.4328
  221MOL0     H29135   0.276   9.375   6.021  3.1808 -0.3475 -0.2439
  221MOL0     H29136  -0.273   9.029   5.905  0.8546  0.6019  4.1380
  221MOL0     H29137  -0.470   9.081   5.774 -0.7019 -0.4330  1.7381
  221MOL0     H29138  -0.425   9.441   5.548 -0.1420 -2.2392 -2.7240
  221MOL0     H29139  -0.558   9.518   5.616  0.2810  0.1436  0.4609
  221MOL0     H29140  -0.586   9.266   5.431 -3.1731  0.2092 -2.8929
  221MOL0     H29141  -0.570   9.424   5.360 -3.8788  2.9654 -0.1305
  221MOL0     H29142  -0.769   9.496   5.490  2.6862  1.0303 -0.4607
  221MOL0     H29143  -0.795   9.328   5.541 -2.3817 -1.6612 -2.9933
  221MOL0     H29144  -0.782   9.431   5.260 -0.0664  0.1425  0.0422
  221MOL0     H29145  -0.770   9.260   5.298  0.6120 -0.4754  0.2013
  221MOL0     H29146  -1.017   9.435   5.365  0.3001 -0.5053  2.3452
  221MOL0     H29147  -1.018   9.267   5.398 -0.8505  1.2907  0.1863
  221MOL0     H29148  -0.961   9.215   5.161 -2.7378 -1.2939 -0.7454
  221MOL0     H29149  -0.966   9.385   5.117 -0.4204  1.0981  0.3129
  221MOL0     H29150  -1.188   9.227   5.082 -1.4652 -0.7634  0.9584
  221MOL0     H29151  -1.183   9.200   5.254  0.4835 -0.2407  0.6436
  221MOL0     H29152  -1.215   9.448   5.299 -3.1893  3.0960 -0.2024
  221MOL0     H29153  -1.339   9.387   5.180 -0.0970  1.3211 -0.7450
  221MOL0     H29154  -0.350   9.491   5.767  0.4821  0.3062 -0.9489
  221MOL0     H29155  -0.159   9.440   5.905 -0.1608  0.2343  0.9919
  221MOL0     H29156   0.059   9.026   6.133 -0.7083  0.1460 -3.2836
  221MOL0     H29157   0.250   8.952   6.278 -0.6136 -0.1035 -0.0671
  221MOL0     H29158   1.495   9.514   6.109  0.9538 -0.8258 -0.5477
  221MOL0     H29159   1.738   9.570   6.142 -1.6960  0.5503  0.8691
  221MOL0     H29160   2.121   9.820   6.275 -0.9401  0.2856  0.7528
  221MOL0     H29161   2.321   9.702   6.345 -1.0282 -3.0459  1.9571
  221MOL0     H29162   2.503   9.375   6.115 -0.8289 -0.2328 -0.4838
  221MOL0     H29163   2.384   9.357   6.256  0.2303  2.6793  3.0472
  221MOL0     H29164   2.595   9.243   6.317 -0.5284 -0.7283  4.1791
  221MOL0     H29165   2.671   9.395   6.248 -1.2291  0.0357  0.9752
  221MOL0     H29166   2.499   9.378   6.496 -0.5641 -2.5686 -2.3104
  221MOL0     H29167   2.579   9.524   6.441 -1.4757 -0.0247  0.7237
  221MOL0     H29168   2.684   9.401   6.629 -1.5239  0.6994 -0.2710
  221MOL0     H29169   2.737   9.278   6.511  1.9722  0.0256  0.9029
  221MOL0     H29170   2.999   9.563   6.374  1.5900 -1.2068  1.7121
  221MOL0     H29171   2.347   9.478   5.982 -0.8360  0.7191 -0.6688
  221MOL0     H29172   2.107   9.548   5.927 -0.8085  0.7379  0.6004
  222MOL0     O29173   6.257   6.539   5.431 -0.0957 -0.3734  0.2292
  222MOL0     C29174   6.202   6.605   5.519  0.4720 -0.1575  0.5713
  222MOL0     O29175   6.265   6.654   5.627 -0.0542  0.7594 -0.0336
  222MOL0     C29176   6.383   6.603   5.674  0.6354  0.7862  0.4878
  222MOL0     C29177   6.501   6.663   5.638 -0.2304 -0.5918 -0.1159
  222MOL0     C29178   6.629   6.612   5.661 -0.6271 -0.2531  0.0862
  222MOL0     C29179   6.633   6.497   5.741  0.8908  0.1661 -0.4438
  222MOL0     O29180   6.747   6.443   5.786 -0.1946  0.0315  0.5906
  222MOL0     C29181   6.871   6.517   5.785  0.6567  0.5225 -0.0958
  222MOL0     C29182   6.956   6.469   5.900  0.6802 -1.0783 -0.5217
  222MOL0     C29183   7.028   6.336   5.863 -0.5302 -0.5163 -0.0730
  222MOL0     C29184   7.110   6.284   5.975  0.5826 -0.6855  0.9933
  222MOL0     C29185   7.230   6.214   5.917 -0.9387 -0.3430 -0.3117
  222MOL0     C29186   7.328   6.195   6.029 -0.7162  0.3288  0.6886
  222MOL0     C29187   7.440   6.096   5.997 -0.1579  0.1003  0.2949
  222MOL0     C29188   7.553   6.146   5.896  0.1749 -0.2534 -0.6049
  222MOL0     N29189   7.551   6.276   5.842  0.5190 -0.3103  0.0266
  222MOL0     C29190   7.547   6.395   5.906 -0.2097  0.2505  0.6712
  222MOL0     C29191   7.531   6.489   5.812  0.8969 -0.6541  0.2031
  222MOL0     C29192   7.501   6.634   5.831 -0.1623 -0.4018 -0.1220
  222MOL0     C29193   7.355   6.653   5.784  0.0705 -0.0873 -0.0881
  222MOL0     C29194   7.299   6.793   5.819  0.1193  0.3566  0.6707
  222MOL0     C29195   7.160   6.813   5.768 -0.1835  0.2112 -0.3354
  222MOL0     O29196   7.110   6.907   5.850 -0.3292 -0.3480 -0.1933
  222MOL0     C29197   6.990   6.962   5.838 -0.3524 -0.0321  0.5082
  222MOL0     C29198   6.942   7.043   5.932  0.2037  0.7380  0.0955
  222MOL0     C29199   6.816   7.105   5.927 -0.2415  0.6507 -0.5697
  222MOL0     C29200   6.745   7.080   5.808  0.7026 -0.1898  0.5427
  222MOL0     C29201   6.618   7.149   5.795  0.5298 -1.2165  0.0730
  222MOL0     O29202   6.530   7.105   5.700  0.6833 -0.1738  0.3079
  222MOL0     C29203   6.395   7.121   5.705  0.7947 -0.1270 -0.0662
  222MOL0     C29204   6.322   7.080   5.592  0.6524 -0.8508 -0.0149
  222MOL0     C29205   6.181   7.078   5.592  0.2611  0.7383  0.0828
  222MOL0     C29206   6.109   7.129   5.697  0.1719  0.9279 -0.1402
  222MOL0     O29207   5.972   7.139   5.705 -0.9389 -0.3296  0.6717
  222MOL0     C29208   5.910   7.140   5.573  0.3508 -0.8382  0.1175
  222MOL0     C29209   5.758   7.139   5.602 -0.5792  0.0155  0.3926
  222MOL0     C29210   5.677   7.110   5.469 -0.1575 -0.4505 -0.6802
  222MOL0     C29211   5.672   7.209   5.352 -0.4814 -0.0337  0.7457
  222MOL0     C29212   5.649   7.141   5.215  0.0582 -0.0456  0.0343
  222MOL0     C29213   5.750   7.051   5.148 -0.0038 -0.3740  0.6090
  222MOL0     C29214   5.898   7.105   5.155 -0.2947  0.9760  0.0550
  222MOL0     C29215   5.987   6.996   5.104 -0.0581  0.2067  0.3681
  222MOL0    Cl29216   6.153   7.015   5.185 -0.0242 -0.1865 -0.0910
  222MOL0     C29217   6.179   7.182   5.802 -0.5400 -0.0465 -1.0711
  222MOL0     C29218   6.319   7.168   5.814  0.1850 -0.7413  0.6673
  222MOL0     O29219   6.600   7.252   5.873  0.2714 -0.2686 -0.2213
  222MOL0     C29220   6.790   6.990   5.713  0.6918  0.6640 -0.2157
  222MOL0     C29221   6.912   6.935   5.726  0.0354  0.0315 -0.7897
  222MOL0     N29222   7.530   6.429   5.681 -0.5543  0.0644  0.0075
  222MOL0     N29223   7.555   6.302   5.705  0.5376 -0.7537  0.6676
  222MOL0     C29224   6.519   6.433   5.778  0.6042  0.7435  0.4321
  222MOL0     C29225   6.389   6.487   5.751 -0.6726  1.5609 -1.0198
  222MOL0     C29226   6.067   6.644   5.483  0.6128 -0.0115 -0.2611
  222MOL0     C29227   5.991   6.731   5.562 -0.4824  0.2452  0.3726
  222MOL0     C29228   5.863   6.766   5.525 -0.0201 -0.5766 -0.0137
  222MOL0     C29229   5.797   6.698   5.418  0.0874 -0.4155  0.0563
  222MOL0     O29230   5.668   6.732   5.387 -0.8052 -0.2963 -0.3004
  222MOL0     C29231   5.607   6.682   5.265  0.4006 -0.5127 -0.7799
  222MOL0     C29232   5.457   6.727   5.256 -0.1052 -0.0623 -0.0163
  222MOL0     C29233   5.378   6.668   5.131  0.6539  0.6588  0.2451
  222MOL0     C29234   5.418   6.723   4.996 -0.0664  0.1915  1.2650
  222MOL0     C29235   5.405   6.866   4.992  0.2584  0.1518  0.0851
  222MOL0     C29236   5.383   6.985   4.991 -0.3840  0.1614  0.0933
  222MOL0     C29237   5.873   6.608   5.338 -0.5813 -0.2277  0.1764
  222MOL0     C29238   6.005   6.577   5.379  0.4819 -0.0983  1.3973
  222MOL0     H29239   6.492   6.752   5.577  2.6759 -1.3241 -1.8089
  222MOL0     H29240   6.718   6.667   5.632 -0.5402 -0.1053  0.6176
  222MOL0     H29241   6.848   6.624   5.795 -3.2687 -0.0686 -1.0129
  222MOL0     H29242   6.935   6.499   5.698  0.1894 -0.6587 -0.2164
  222MOL0     H29243   6.892   6.442   5.984 -0.6078 -2.3652 -1.8611
  222MOL0     H29244   7.035   6.540   5.929 -1.1072  0.6701  0.3024
  222MOL0     H29245   7.083   6.357   5.771 -1.7905  2.2418 -0.2986
  222MOL0     H29246   6.964   6.253   5.831 -0.0162 -0.3468 -1.6083
  222MOL0     H29247   7.147   6.363   6.040 -1.3137 -0.5388  1.9614
  222MOL0     H29248   7.045   6.218   6.034 -2.7617 -0.7760 -2.3783
  222MOL0     H29249   7.279   6.272   5.838 -0.9332  0.8985  0.5832
  222MOL0     H29250   7.200   6.120   5.868 -2.6539  0.3423 -0.6475
  222MOL0     H29251   7.275   6.149   6.113  1.7120 -4.3898 -0.0193
  222MOL0     H29252   7.370   6.289   6.063 -2.2935  0.8619  1.2246
  222MOL0     H29253   7.485   6.082   6.096  0.8070  2.8342  0.3182
  222MOL0     H29254   7.401   5.996   5.975  1.5894 -0.4412 -0.5293
  222MOL0     H29255   7.548   6.083   5.806  0.7058  0.8533 -1.4432
  222MOL0     H29256   7.649   6.130   5.946 -0.6789 -2.1554  0.5535
  222MOL0     H29257   7.545   6.409   6.014 -2.3556  1.2694  0.5534
  222MOL0     H29258   7.573   6.697   5.778 -2.3176  0.7032 -1.8615
  222MOL0     H29259   7.516   6.655   5.938 -0.1761 -0.2150 -0.1566
  222MOL0     H29260   7.295   6.590   5.851  2.2678  1.0386  3.1744
  222MOL0     H29261   7.334   6.636   5.678  0.4089 -1.8501  0.0914
  222MOL0     H29262   7.297   6.798   5.929 -1.6936  2.7320  0.6096
  222MOL0     H29263   7.372   6.860   5.774 -0.8405 -0.3209 -2.0689
  222MOL0     H29264   7.103   6.719   5.771 -1.1944  0.8005 -0.3594
  222MOL0     H29265   7.168   6.840   5.662  3.4835 -0.8533 -0.4562
  222MOL0     H29266   6.997   7.061   6.024  0.8321  0.3017 -0.1891
  222MOL0     H29267   6.788   7.172   6.008  2.2708  0.0392  0.9122
  222MOL0     H29268   6.371   7.051   5.500 -3.7682 -1.9188 -2.3384
  222MOL0     H29269   6.137   7.037   5.502  0.2052 -0.7817  0.7678
  222MOL0     H29270   5.933   7.045   5.522  1.6330 -1.2258  1.3357
  222MOL0     H29271   5.940   7.227   5.514  0.7009 -0.5440  0.7260
  222MOL0     H29272   5.729   7.229   5.657  2.1010  0.7841  0.6927
  222MOL0     H29273   5.728   7.058   5.669 -0.7558  0.2752  0.6307
  222MOL0     H29274   5.574   7.085   5.497  1.0119 -4.0829  1.0100
  222MOL0     H29275   5.722   7.018   5.431 -0.2129 -1.6379  1.9020
  222MOL0     H29276   5.594   7.285   5.362 -1.7440 -0.9695 -1.3205
  222MOL0     H29277   5.766   7.264   5.337  0.0411 -1.2268 -0.6256
  222MOL0     H29278   5.647   7.227   5.148  0.3690  1.3159  1.6873
  222MOL0     H29279   5.547   7.102   5.207 -0.1793  0.8339 -1.8461
  222MOL0     H29280   5.726   7.032   5.043  0.2360  1.8604  0.1059
  222MOL0     H29281   5.764   6.955   5.199  4.8558  0.6735  1.7617
  222MOL0     H29282   5.916   7.204   5.113 -1.4382 -0.1399 -3.3874
  222MOL0     H29283   5.920   7.110   5.262 -1.2611  0.7331  0.2726
  222MOL0     H29284   5.988   6.998   4.995  1.7647 -1.6592  0.3018
  222MOL0     H29285   5.944   6.898   5.126  0.0487 -0.5276 -2.3733
  222MOL0     H29286   6.123   7.232   5.881  1.3319  2.1569 -1.0233
  222MOL0     H29287   6.369   7.206   5.903 -1.7568  1.6726  0.8300
  222MOL0     H29288   6.743   6.976   5.617 -2.1606 -0.2181  1.1897
  222MOL0     H29289   6.943   6.875   5.640 -2.1602 -1.2401 -0.7934
  222MOL0     H29290   6.530   6.342   5.837  2.5139 -0.4458 -1.6058
  222MOL0     H29291   6.298   6.447   5.793 -1.5635  0.9028 -3.4034
  222MOL0     H29292   6.039   6.778   5.647 -3.1923 -0.0756  2.1924
  222MOL0     H29293   5.790   6.827   5.577 -0.5659 -0.6543 -0.6615
  222MOL0     H29294   5.620   6.574   5.276  5.2276  0.0111  0.9778
  222MOL0     H29295   5.665   6.706   5.175  3.2144 -3.9678 -0.0785
  222MOL0     H29296   5.395   6.689   5.338 -0.7645 -0.8003 -0.8220
  222MOL0     H29297   5.466   6.836   5.253 -1.7648  0.1144  0.2925
  222MOL0     H29298   5.271   6.684   5.139  0.6042 -0.3545  2.8642
  222MOL0     H29299   5.397   6.560   5.121  0.6243  0.6374  0.4094
  222MOL0     H29300   5.523   6.696   4.982 -0.5428 -1.5917  0.8707
  222MOL0     H29301   5.356   6.680   4.916  0.2665  1.1419  0.4660
  222MOL0     H29302   5.383   7.091   4.978  1.1192  0.2829  0.7387
  222MOL0     H29303   5.833   6.568   5.245  0.0900 -0.9784  0.1994
  222MOL0     H29304   6.053   6.505   5.314  1.9666  2.9915 -1.2344
  223MOL0     O29305   8.269   5.863  10.554 -0.1755 -0.3436 -0.5633
  223MOL0     C29306   8.257   5.791  10.649 -0.2559 -0.5733 -0.5666
  223MOL0     O29307   8.140   5.779  10.717  0.8435 -0.0604  0.2564
  223MOL0     C29308   8.012   5.778  10.659  0.8872 -0.2709 -0.4609
  223MOL0     C29309   7.949   5.891  10.619  0.5398  0.4025  0.4519
  223MOL0     C29310   7.831   5.903  10.557 -0.2867 -0.7609  0.4054
  223MOL0     C29311   7.760   5.791  10.524 -0.8590 -0.9912  0.5578
  223MOL0     O29312   7.636   5.804  10.475  0.9429  0.2477  0.1716
  223MOL0     C29313   7.575   5.702  10.402 -0.1021 -0.1563 -0.3906
  223MOL0     C29314   7.463   5.649  10.500  0.7550  0.1810  0.7402
  223MOL0     C29315   7.357   5.745  10.509  0.0036 -0.3489  0.0763
  223MOL0     C29316   7.270   5.723  10.631  0.4842 -0.6697 -0.2143
  223MOL0     C29317   7.141   5.808  10.630  0.3313 -0.2248  0.4863
  223MOL0     C29318   7.046   5.756  10.745  0.2698 -0.3188  0.5521
  223MOL0     C29319   6.979   5.623  10.713  0.9143  0.8185 -0.0899
  223MOL0     C29320   6.875   5.580  10.821  0.8697 -0.1407  0.1176
  223MOL0     N29321   6.751   5.670  10.804 -0.6409  1.0033  0.5083
  223MOL0     C29322   6.670   5.676  10.689 -0.3345  0.5635  0.6362
  223MOL0     C29323   6.583   5.774  10.713 -0.7552 -0.3714  0.4133
  223MOL0     C29324   6.479   5.824  10.618 -0.2405  0.1715 -0.3310
  223MOL0     C29325   6.537   5.887  10.492  0.2745 -0.9616 -0.4099
  223MOL0     C29326   6.430   5.975  10.427  0.9981 -0.1247  0.4318
  223MOL0     C29327   6.325   5.903  10.355 -0.3346  0.3078 -0.8470
  223MOL0     O29328   6.200   5.974  10.337  0.1546 -0.7864 -0.5200
  223MOL0     C29329   6.112   5.910  10.246 -0.1187 -0.1045 -0.9267
  223MOL0     C29330   6.131   5.786  10.181  0.2139  0.5359  0.5599
  223MOL0     C29331   6.028   5.719  10.121 -0.0582  0.0233 -0.1083
  223MOL0     C29332   5.897   5.777  10.107 -0.1290  0.1814  0.1316
  223MOL0     C29333   5.789   5.703  10.038  0.6985 -0.1551  0.1820
  223MOL0     O29334   5.666   5.773  10.017  0.1043 -0.1224 -0.7016
  223MOL0     C29335   5.562   5.704   9.958 -0.2178  0.7807  0.8040
  223MOL0     C29336   5.544   5.692   9.819  0.3164 -0.1937  0.1864
  223MOL0     C29337   5.436   5.628   9.765 -0.9771  0.4075 -0.0047
  223MOL0     C29338   5.330   5.585   9.846  0.7078 -0.2734 -0.0075
  223MOL0     O29339   5.226   5.519   9.783  1.5259 -0.0018  0.2590
  223MOL0     C29340   5.112   5.620   9.767  0.2806  0.2373  0.5971
  223MOL0     C29341   5.142   5.748   9.678 -0.4995 -0.5132 -0.2633
  223MOL0     C29342   5.016   5.806   9.613  0.0896 -0.4339 -0.6306
  223MOL0     C29343   5.036   5.926   9.525 -0.1807  0.2542 -0.2392
  223MOL0     C29344   4.894   5.975   9.495 -0.3208 -0.1998 -0.1420
  223MOL0     C29345   4.773   5.880   9.444  0.1089 -1.0719 -0.5701
  223MOL0     C29346   4.661   5.947   9.363  0.2219  0.0162  0.4667
  223MOL0     C29347   4.572   5.833   9.324  0.6791  0.4055  0.1203
  223MOL0    Cl29348   4.430   5.896   9.207 -0.0668 -0.1646 -0.5952
  223MOL0     C29349   5.341   5.601   9.982  0.0568 -0.0705  0.6218
  223MOL0     C29350   5.454   5.662  10.036 -0.0324 -0.3962 -0.4564
  223MOL0     O29351   5.819   5.587  10.004 -0.1653  0.5366  0.2403
  223MOL0     C29352   5.883   5.912  10.155 -0.0301  0.3812 -0.3559
  223MOL0     C29353   5.995   5.972  10.225 -0.0195 -0.1417  0.8421
  223MOL0     N29354   6.596   5.804  10.847  0.1920 -0.2418  0.0222
  223MOL0     N29355   6.709   5.761  10.891  0.2871 -0.0957  0.3853
  223MOL0     C29356   7.814   5.667  10.562 -0.4206 -0.0175 -0.8241
  223MOL0     C29357   7.939   5.658  10.630 -0.1430  0.3874 -0.7864
  223MOL0     C29358   8.380   5.719  10.695 -0.0624 -0.0950  0.6027
  223MOL0     C29359   8.507   5.744  10.632  0.4336  0.2434  0.4021
  223MOL0     C29360   8.619   5.668  10.671  0.0594  0.8162 -0.3243
  223MOL0     C29361   8.609   5.571  10.778 -0.4387 -0.1089  0.1839
  223MOL0     O29362   8.727   5.519  10.815 -0.6199  0.3556  0.0943
  223MOL0     C29363   8.739   5.397  10.893  0.1342  0.4671 -0.9002
  223MOL0     C29364   8.742   5.261  10.823  0.0661 -0.2886 -0.0980
  223MOL0     C29365   8.877   5.251  10.747 -1.2462  0.3301 -0.0238
  223MOL0     C29366   8.872   5.308  10.609 -0.0706  0.1789  0.1019
  223MOL0     C29367   8.988   5.279  10.522  0.8134  0.1528  0.8088
  223MOL0     C29368   9.086   5.285  10.453 -0.3983 -0.1236  0.1649
  223MOL0     C29369   8.485   5.558  10.836 -0.1466  1.0317 -0.0251
  223MOL0     C29370   8.370   5.630  10.807  0.2889 -0.0617  0.2167
  223MOL0     H29371   8.001   5.983  10.647 -1.5646  2.0016 -0.5501
  223MOL0     H29372   7.797   6.001  10.525 -1.3824 -1.1618  0.2985
  223MOL0     H29373   7.646   5.619  10.394  0.7103  0.2519  1.8471
  223MOL0     H29374   7.536   5.725  10.302  0.6353 -0.5046 -0.7689
  223MOL0     H29375   7.486   5.617  10.603 -1.4616 -1.8555  0.6918
  223MOL0     H29376   7.426   5.557  10.454 -3.6466  2.1136 -0.0848
  223MOL0     H29377   7.291   5.731  10.422 -1.3688 -0.6712  1.1386
  223MOL0     H29378   7.386   5.850  10.518  0.8974 -0.5697 -0.1212
  223MOL0     H29379   7.251   5.615  10.632  3.6003 -1.3300 -0.7749
  223MOL0     H29380   7.324   5.747  10.723 -0.4490 -1.0951  0.4595
  223MOL0     H29381   7.091   5.807  10.533  0.7495  1.9799  0.1869
  223MOL0     H29382   7.168   5.913  10.643  2.3572 -0.5956 -0.4023
  223MOL0     H29383   6.960   5.823  10.735 -0.9548 -2.2118 -2.8316
  223MOL0     H29384   7.090   5.770  10.845  1.7784  3.5297 -0.4709
  223MOL0     H29385   6.922   5.629  10.619  0.3179  3.6260  0.3466
  223MOL0     H29386   7.050   5.541  10.705 -0.8469 -0.9760  1.4982
  223MOL0     H29387   6.917   5.581  10.922 -0.0559 -0.9027  0.5272
  223MOL0     H29388   6.834   5.481  10.799 -2.5789  1.4197 -1.1100
  223MOL0     H29389   6.688   5.611  10.603  2.0834 -0.2129  1.6378
  223MOL0     H29390   6.414   5.887  10.680 -2.5934 -0.9175 -1.5916
  223MOL0     H29391   6.412   5.743  10.588  0.1105 -0.1816 -0.1622
  223MOL0     H29392   6.594   5.832  10.416  1.6696 -0.8311  0.4914
  223MOL0     H29393   6.607   5.954  10.543 -1.5367 -0.0800  1.0414
  223MOL0     H29394   6.379   6.030  10.506 -0.8731  0.1403 -0.8927
  223MOL0     H29395   6.464   6.059  10.365 -0.4626 -0.0687 -0.3320
  223MOL0     H29396   6.301   5.811  10.408 -2.3550  0.7582 -0.8622
  223MOL0     H29397   6.366   5.861  10.263  0.3296 -2.0431  0.4639
  223MOL0     H29398   6.220   5.724  10.183  0.1376  0.4366  0.8301
  223MOL0     H29399   6.038   5.614  10.096 -1.7032  0.1283 -1.3711
  223MOL0     H29400   5.613   5.732   9.745  0.4131 -0.5247  0.0946
  223MOL0     H29401   5.446   5.609   9.659  0.4638 -0.4958  0.2663
  223MOL0     H29402   5.080   5.652   9.867  0.5417  2.8122 -0.0717
  223MOL0     H29403   5.035   5.568   9.709  2.7871 -0.6609 -2.2093
  223MOL0     H29404   5.197   5.717   9.589 -2.3863  1.5493 -2.2962
  223MOL0     H29405   5.208   5.816   9.731  0.6339 -1.3697 -0.5449
  223MOL0     H29406   4.952   5.839   9.695  0.9098 -1.6832  0.5604
  223MOL0     H29407   4.970   5.730   9.550  2.9118 -1.0994 -2.0634
  223MOL0     H29408   5.083   6.010   9.576 -1.8808  0.0042  1.8815
  223MOL0     H29409   5.087   5.892   9.434  1.7256  2.3313 -0.0318
  223MOL0     H29410   4.921   6.041   9.412 -0.2727 -0.7377 -0.5656
  223MOL0     H29411   4.856   6.037   9.577 -1.0048 -0.2580 -0.4004
  223MOL0     H29412   4.721   5.825   9.523  0.0633 -0.2500 -0.0107
  223MOL0     H29413   4.819   5.798   9.388  0.6882 -2.3539  1.6381
  223MOL0     H29414   4.615   6.032   9.414  0.5252  2.0775 -2.4612
  223MOL0     H29415   4.705   5.984   9.270 -2.8212  1.7648 -0.4179
  223MOL0     H29416   4.527   5.791   9.415  0.3640 -0.1626 -0.2941
  223MOL0     H29417   4.632   5.754   9.277 -1.8686 -0.2784 -2.2223
  223MOL0     H29418   5.277   5.557  10.057  1.8216 -0.6254  1.8721
  223MOL0     H29419   5.451   5.675  10.144 -0.2497 -0.5786 -0.4407
  223MOL0     H29420   5.794   5.975  10.153  1.7782  3.1002 -0.1870
  223MOL0     H29421   5.986   6.073  10.264  1.4941  1.9077 -3.5252
  223MOL0     H29422   7.770   5.571  10.537  2.4749 -1.9106  0.7209
  223MOL0     H29423   7.977   5.560  10.659 -2.0485  0.2175  1.3388
  223MOL0     H29424   8.514   5.797  10.537 -3.3888  0.5673  0.1534
  223MOL0     H29425   8.717   5.676  10.625  0.2358 -1.4545 -0.4519
  223MOL0     H29426   8.661   5.391  10.970 -0.4083 -0.3962 -1.5017
  223MOL0     H29427   8.831   5.399  10.951 -0.4024  1.7897 -0.0428
  223MOL0     H29428   8.753   5.194  10.909  0.5659 -0.0411  0.0349
  223MOL0     H29429   8.661   5.233  10.756 -0.7325  1.9107 -0.1172
  223MOL0     H29430   8.916   5.149  10.742  2.9054  1.5944  1.8461
  223MOL0     H29431   8.964   5.290  10.801 -0.0649 -0.2815 -1.3870
  223MOL0     H29432   8.775   5.281  10.564 -1.2126  1.4163  1.7059
  223MOL0     H29433   8.867   5.416  10.620 -2.3093  0.0875  0.5601
  223MOL0     H29434   9.179   5.277  10.400 -0.9956  0.8689 -1.1009
  223MOL0     H29435   8.481   5.485  10.916  0.1073 -1.3320 -2.0365
  223MOL0     H29436   8.280   5.617  10.867  1.9120  0.1975  2.8602
  224MOL0     O29437  11.081   3.945   1.448 -0.1387  0.1764  0.6717
  224MOL0     C29438  11.009   3.964   1.541 -0.2419  0.3218 -0.4057
  224MOL0     O29439  11.052   3.988   1.666 -0.4471  0.9148 -0.2352
  224MOL0     C29440  11.178   3.957   1.697 -0.7239  0.2600  0.3719
  224MOL0     C29441  11.279   4.057   1.682  0.5343 -0.4148  0.5058
  224MOL0     C29442  11.416   4.030   1.707 -0.4501  0.3246  0.0161
  224MOL0     C29443  11.461   3.909   1.768  0.2822 -0.6131 -0.0397
  224MOL0     O29444  11.583   3.875   1.808 -0.2153 -0.3386  0.8576
  224MOL0     C29445  11.696   3.942   1.757  0.0211 -0.3764 -0.5688
  224MOL0     C29446  11.822   3.881   1.825 -0.1728 -0.4852 -0.6563
  224MOL0     C29447  11.952   3.928   1.755  0.6478  0.0507 -0.2864
  224MOL0     C29448  12.072   3.864   1.811  0.0535 -0.0855 -0.0669
  224MOL0     C29449  12.198   3.926   1.746  0.2727 -0.0745  0.2321
  224MOL0     C29450  12.321   3.915   1.845  0.0649 -0.2578  0.1985
  224MOL0     C29451  12.382   3.776   1.866  0.1965 -0.4130  0.2127
  224MOL0     C29452  12.427   3.713   1.736 -0.1911  0.2548  0.1790
  224MOL0     N29453  12.509   3.591   1.754  0.4296 -0.0735  0.7177
  224MOL0     C29454  12.606   3.570   1.839 -0.3717  0.9822 -0.1468
  224MOL0     C29455  12.663   3.454   1.810 -0.2406  0.6049  0.1698
  224MOL0     C29456  12.768   3.385   1.877  0.6043  0.9002 -0.3644
  224MOL0     C29457  12.898   3.390   1.803 -0.1791 -0.3342 -0.1970
  224MOL0     C29458  13.003   3.285   1.846 -0.4618  0.4820 -0.2661
  224MOL0     C29459  13.149   3.323   1.822  0.3345 -0.2525 -0.4384
  224MOL0     O29460  13.164   3.340   1.685 -0.9227 -0.1839  0.0386
  224MOL0     C29461  13.292   3.344   1.635  0.2344  0.7991  0.6278
  224MOL0     C29462  13.314   3.315   1.503  0.1862  0.6373  0.7520
  224MOL0     C29463  13.437   3.311   1.437  1.1028  0.1647  0.0499
  224MOL0     C29464  13.546   3.335   1.514 -0.0589 -0.5849 -0.0710
  224MOL0     C29465  13.685   3.334   1.441  0.0684  1.0678  0.2470
  224MOL0     O29466  13.682   3.318   1.301 -0.7233  0.1839  0.2190
  224MOL0     C29467  13.799   3.308   1.227 -0.1482  0.0368 -0.3520
  224MOL0     C29468  13.914   3.238   1.271  0.0996  0.4716 -0.3840
  224MOL0     C29469  14.031   3.230   1.199 -0.6739  0.6799 -0.9393
  224MOL0     C29470  14.033   3.290   1.070  0.4884  0.0750  0.4652
  224MOL0     O29471  14.138   3.284   0.985  0.5356 -0.1453  0.3174
  224MOL0     C29472  14.267   3.342   1.024 -0.4252  0.2815 -0.5285
  224MOL0     C29473  14.266   3.493   0.989 -0.0789 -0.4143  0.0571
  224MOL0     C29474  14.390   3.574   1.037  0.4629  0.7683  0.6778
  224MOL0     C29475  14.406   3.683   0.933 -0.3759 -0.2979  0.4295
  224MOL0     C29476  14.560   3.711   0.915 -0.1520  0.0725 -0.8458
  224MOL0     C29477  14.644   3.601   0.844 -0.0388 -0.3279 -0.9659
  224MOL0     C29478  14.794   3.632   0.867 -0.0165  0.1693 -0.3518
  224MOL0     C29479  14.878   3.565   0.760 -0.7078  0.6054  0.1621
  224MOL0    Cl29480  15.042   3.627   0.737  0.5066 -0.6133  0.3234
  224MOL0     C29481  13.922   3.362   1.028 -0.5118 -0.1870  0.1792
  224MOL0     C29482  13.804   3.373   1.104 -0.1114 -0.3332 -0.5757
  224MOL0     O29483  13.787   3.349   1.510  0.4635 -0.0429  0.6541
  224MOL0     C29484  13.547   3.353   1.653  0.5751  0.0607  0.2877
  224MOL0     C29485  13.420   3.367   1.709  0.3838 -0.0958  0.1850
  224MOL0     N29486  12.601   3.391   1.699 -0.3579 -0.0856 -0.0267
  224MOL0     N29487  12.502   3.476   1.672 -0.0015  0.8679  0.4677
  224MOL0     C29488  11.364   3.810   1.783  0.7200  0.8935 -0.5367
  224MOL0     C29489  11.222   3.834   1.750  0.7654 -0.8205  1.1447
  224MOL0     C29490  10.867   4.000   1.517 -0.6117  0.1612  0.2375
  224MOL0     C29491  10.798   4.058   1.629  0.6499 -0.2780  0.0963
  224MOL0     C29492  10.661   4.096   1.598  0.4297 -0.1178  0.3935
  224MOL0     C29493  10.603   4.077   1.472 -0.0575 -0.7326 -0.5616
  224MOL0     O29494  10.478   4.134   1.450  0.0014  0.1170  0.6586
  224MOL0     C29495  10.396   4.098   1.329 -0.1900  0.1888  0.7056
  224MOL0     C29496  10.253   4.126   1.367 -0.2854 -0.1954  0.2364
  224MOL0     C29497  10.144   4.051   1.301  0.0340 -1.1809 -0.0626
  224MOL0     C29498  10.004   4.117   1.293  0.5269 -0.1449 -0.5930
  224MOL0     C29499   9.898   4.018   1.255 -0.0513  0.4487 -0.3137
  224MOL0     C29500   9.802   3.953   1.213 -0.7256  0.0079 -0.4162
  224MOL0     C29501  10.679   4.015   1.372  0.2547  0.0489 -0.2409
  224MOL0     C29502  10.814   3.981   1.394  0.1301  0.1425  0.2651
  224MOL0     H29503  11.256   4.158   1.649  3.9094 -0.5285 -2.9252
  224MOL0     H29504  11.488   4.110   1.688  1.7605 -0.6955  3.1261
  224MOL0     H29505  11.687   4.047   1.787 -1.7808 -0.4659 -0.6803
  224MOL0     H29506  11.699   3.936   1.648  0.1496  1.7433 -0.7193
  224MOL0     H29507  11.814   3.772   1.834 -1.1417 -0.3524  0.2213
  224MOL0     H29508  11.828   3.918   1.928 -1.1428 -0.3760 -0.6315
  224MOL0     H29509  11.966   4.035   1.768 -1.0781  0.2556  0.1870
  224MOL0     H29510  11.944   3.899   1.650  0.4508 -0.7139 -0.0681
  224MOL0     H29511  12.060   3.868   1.920 -0.9706 -3.4954  0.0566
  224MOL0     H29512  12.075   3.758   1.787  0.8282 -0.7061  2.4465
  224MOL0     H29513  12.176   4.032   1.730  2.2783  0.4065  0.3919
  224MOL0     H29514  12.220   3.880   1.649  0.8587 -1.8321  1.1469
  224MOL0     H29515  12.299   3.963   1.941 -2.3241 -0.4252 -0.2100
  224MOL0     H29516  12.406   3.973   1.807 -0.7021  0.0872 -1.0260
  224MOL0     H29517  12.459   3.781   1.943  1.1410  0.7575 -0.7586
  224MOL0     H29518  12.306   3.713   1.911  1.8654 -2.0739  0.8501
  224MOL0     H29519  12.489   3.780   1.676  1.4196 -2.9245 -1.9835
  224MOL0     H29520  12.341   3.671   1.683 -1.5910  3.6236 -0.4433
  224MOL0     H29521  12.625   3.636   1.923 -2.0716 -0.0364  1.0956
  224MOL0     H29522  12.740   3.283   1.905  4.3563 -0.8849 -2.2884
  224MOL0     H29523  12.777   3.434   1.975  2.5102 -3.1608  1.7320
  224MOL0     H29524  12.939   3.490   1.817 -3.3727  0.6834  3.2469
  224MOL0     H29525  12.871   3.380   1.697 -2.7464  2.5051  0.0562
  224MOL0     H29526  12.999   3.282   1.956 -0.8700  0.7837 -0.2752
  224MOL0     H29527  12.987   3.184   1.806 -3.0064 -0.3156  2.3770
  224MOL0     H29528  13.206   3.245   1.873 -0.5804 -2.1322 -2.1525
  224MOL0     H29529  13.164   3.417   1.875 -1.9545  1.1185 -2.0222
  224MOL0     H29530  13.230   3.301   1.436  0.5973  2.2272 -0.1492
  224MOL0     H29531  13.443   3.279   1.333 -3.7791  0.6949 -0.6340
  224MOL0     H29532  13.915   3.179   1.362  0.7048 -0.3051 -0.8748
  224MOL0     H29533  14.110   3.161   1.228 -0.6184  0.1710 -2.2656
  224MOL0     H29534  14.346   3.293   0.966 -0.6217  0.0124 -0.5681
  224MOL0     H29535  14.288   3.330   1.131 -0.6596  1.7668 -0.2885
  224MOL0     H29536  14.167   3.534   1.013 -0.7188 -0.5910 -2.0114
  224MOL0     H29537  14.263   3.486   0.879  2.9765 -0.0259 -0.1326
  224MOL0     H29538  14.479   3.510   1.031  0.6891  1.2172 -2.8084
  224MOL0     H29539  14.392   3.597   1.144 -1.0430 -5.2259  2.4049
  224MOL0     H29540  14.374   3.671   0.829  2.1565  4.9904 -1.3347
  224MOL0     H29541  14.357   3.775   0.965 -0.3732  0.3607 -1.3392
  224MOL0     H29542  14.585   3.735   1.018 -1.2070  3.2690 -1.1905
  224MOL0     H29543  14.574   3.801   0.854 -1.6589  0.5810 -0.5019
  224MOL0     H29544  14.621   3.598   0.737  0.1347  1.4066 -1.0783
  224MOL0     H29545  14.609   3.501   0.874 -0.7362 -0.3304 -1.7619
  224MOL0     H29546  14.816   3.739   0.871 -1.8570  0.5634  1.2092
  224MOL0     H29547  14.825   3.601   0.967 -1.3594  0.5107  0.1949
  224MOL0     H29548  14.815   3.573   0.670 -1.0955 -1.9878  0.1165
  224MOL0     H29549  14.894   3.460   0.786 -0.0324  1.4675  3.5927
  224MOL0     H29550  13.938   3.410   0.933  0.6111 -2.7816 -1.0433
  224MOL0     H29551  13.709   3.412   1.072  1.2846  3.3178 -0.6833
  224MOL0     H29552  13.618   3.363   1.734 -1.3656  2.4933  1.8394
  224MOL0     H29553  13.419   3.385   1.816  2.2707 -2.3981  0.6775
  224MOL0     H29554  11.385   3.704   1.794 -0.1543  0.4653 -2.5799
  224MOL0     H29555  11.144   3.759   1.758  0.2792 -0.3351  0.9873
  224MOL0     H29556  10.841   4.060   1.729  0.2327  0.5755  0.2637
  224MOL0     H29557  10.599   4.153   1.666  0.2664 -2.0421  1.9419
  224MOL0     H29558  10.403   3.991   1.309  0.9345 -0.0508  2.1514
  224MOL0     H29559  10.444   4.148   1.244 -2.2189  1.4794  0.2508
  224MOL0     H29560  10.245   4.113   1.476 -4.7372  0.0003  0.1424
  224MOL0     H29561  10.240   4.232   1.341  1.6183  0.0302  0.0734
  224MOL0     H29562  10.125   3.965   1.365 -1.7286  1.6773  3.6855
  224MOL0     H29563  10.162   4.006   1.203  2.4727 -2.3420  0.8551
  224MOL0     H29564   9.980   4.174   1.383  3.5351 -0.9125  0.8509
  224MOL0     H29565  10.017   4.180   1.204  4.4516  0.0955 -0.0442
  224MOL0     H29566   9.721   3.883   1.210 -0.3677 -0.4558  0.4585
  224MOL0     H29567  10.642   3.996   1.271  0.5625  0.8447 -0.5133
  224MOL0     H29568  10.866   3.933   1.312 -1.5500  2.8369 -2.6231
  225MOL0     O29569   1.518   6.587   0.520 -0.1809 -0.9420  0.2605
  225MOL0     C29570   1.604   6.666   0.491  0.9270  0.4854 -1.0713
  225MOL0     O29571   1.584   6.797   0.457 -0.0067  0.7238 -0.1186
  225MOL0     C29572   1.459   6.864   0.478 -0.5586 -0.1196 -0.2004
  225MOL0     C29573   1.358   6.813   0.562  0.5007 -0.3713 -1.3621
  225MOL0     C29574   1.243   6.886   0.597  0.8596 -1.0094  0.0627
  225MOL0     C29575   1.222   7.012   0.548  1.1348 -0.4637 -0.5763
  225MOL0     O29576   1.101   7.075   0.579 -0.9207  0.1046  0.6617
  225MOL0     C29577   1.114   7.203   0.637  0.3599 -0.7195 -0.7395
  225MOL0     C29578   0.976   7.224   0.708 -0.7103 -0.6725  0.1728
  225MOL0     C29579   0.953   7.362   0.765  0.3249  0.6037 -0.3034
  225MOL0     C29580   0.814   7.367   0.843  0.6131  0.6035  0.0779
  225MOL0     C29581   0.697   7.384   0.743 -0.0405 -0.3839 -0.6388
  225MOL0     C29582   0.571   7.327   0.811 -0.1131 -0.0260  0.2282
  225MOL0     C29583   0.450   7.302   0.722 -0.5000 -1.3003  0.5286
  225MOL0     C29584   0.347   7.222   0.795 -0.5474 -0.2714 -0.2734
  225MOL0     N29585   0.227   7.195   0.711  0.0169 -0.6561  0.7044
  225MOL0     C29586   0.114   7.279   0.699 -0.0388  0.0605  0.2778
  225MOL0     C29587   0.019   7.201   0.648 -0.1496  0.6696 -0.5551
  225MOL0     C29588  -0.126   7.244   0.631  0.0033  0.8477  0.3941
  225MOL0     C29589  -0.226   7.152   0.703  0.5493  0.1145 -0.3491
  225MOL0     C29590  -0.200   7.142   0.864 -0.2087 -0.0212 -0.1427
  225MOL0     C29591  -0.331   7.113   0.937  0.1372 -0.0515 -0.6107
  225MOL0     O29592  -0.391   7.001   0.885  0.4374  0.0487  0.4277
  225MOL0     C29593  -0.522   6.994   0.918  0.0543  0.2984 -1.0985
  225MOL0     C29594  -0.619   7.088   0.886 -0.4852  0.4934 -0.5522
  225MOL0     C29595  -0.756   7.077   0.925 -0.5650 -0.0509  0.3300
  225MOL0     C29596  -0.807   6.958   0.987 -1.3206 -0.6039 -0.0337
  225MOL0     C29597  -0.946   6.946   1.021  0.5371 -0.1746  0.9919
  225MOL0     O29598  -0.988   6.831   1.068 -0.2452  0.2419  1.4182
  225MOL0     C29599  -1.121   6.804   1.099  0.6333  0.4297  0.3917
  225MOL0     C29600  -1.169   6.765   1.227 -0.1315 -0.0717  1.0020
  225MOL0     C29601  -1.305   6.725   1.237  0.1817  0.2523  0.2236
  225MOL0     C29602  -1.397   6.719   1.130 -0.0381  1.2775 -0.0017
  225MOL0     O29603  -1.530   6.673   1.134 -0.6801 -0.0176  0.4796
  225MOL0     C29604  -1.578   6.577   1.038 -0.5804  0.1280 -0.9973
  225MOL0     C29605  -1.566   6.439   1.109  1.3019 -1.0867  0.1644
  225MOL0     C29606  -1.624   6.320   1.033 -0.2575  0.1768  0.5680
  225MOL0     C29607  -1.781   6.320   1.009 -0.1619 -0.1814 -0.2584
  225MOL0     C29608  -1.841   6.235   0.902  0.2878  0.4301  0.1595
  225MOL0     C29609  -1.779   6.094   0.894  1.3402  0.0752  0.1587
  225MOL0     C29610  -1.873   6.013   0.802 -0.3061  0.8492  0.1872
  225MOL0     C29611  -1.857   5.860   0.817 -0.2161 -0.5746 -0.9065
  225MOL0    Cl29612  -1.945   5.804   0.970 -0.5136 -0.0861 -0.2963
  225MOL0     C29613  -1.343   6.757   1.006  0.0496 -0.2329  0.4797
  225MOL0     C29614  -1.210   6.800   0.993 -0.8386  1.0172 -0.7543
  225MOL0     O29615  -1.017   7.050   1.017 -0.2461  0.1796  0.7010
  225MOL0     C29616  -0.713   6.853   0.994  0.4017 -0.0628 -0.2613
  225MOL0     C29617  -0.578   6.877   0.964  0.0138 -0.0640 -0.6944
  225MOL0     N29618   0.069   7.071   0.624  0.8291  0.1765 -0.8308
  225MOL0     N29619   0.192   7.071   0.661  0.3826  0.6170 -0.1381
  225MOL0     C29620   1.325   7.070   0.467  0.7785  0.4505 -0.0084
  225MOL0     C29621   1.443   6.999   0.434 -0.2654  0.1293 -1.5159
  225MOL0     C29622   1.748   6.623   0.486  0.5058 -0.2807 -0.1072
  225MOL0     C29623   1.858   6.696   0.420  0.2908 -0.3253 -0.1976
  225MOL0     C29624   1.983   6.642   0.420 -0.2983  0.0686  0.2356
  225MOL0     C29625   2.016   6.526   0.489  0.5141  0.0213 -0.1724
  225MOL0     O29626   2.147   6.472   0.478  0.2989  0.3277 -0.2923
  225MOL0     C29627   2.243   6.552   0.544  0.0452  0.7800  0.6444
  225MOL0     C29628   2.284   6.489   0.678 -0.1408  0.2439 -0.1786
  225MOL0     C29629   2.374   6.357   0.668 -0.1856 -1.0469  0.4440
  225MOL0     C29630   2.512   6.390   0.621 -0.0967 -0.7001 -0.7158
  225MOL0     C29631   2.573   6.492   0.704  0.7383 -0.3370 -0.4387
  225MOL0     C29632   2.613   6.568   0.791 -0.5670  0.6136 -0.5814
  225MOL0     C29633   1.919   6.456   0.562  0.0767  0.4379 -0.1471
  225MOL0     C29634   1.783   6.512   0.563  0.0289 -0.5911  0.7513
  225MOL0     H29635   1.367   6.726   0.627 -0.6939  0.5748  0.1447
  225MOL0     H29636   1.166   6.847   0.664 -1.8937  0.3161 -2.1062
  225MOL0     H29637   1.137   7.268   0.551 -0.6607  0.8358  0.1329
  225MOL0     H29638   1.201   7.202   0.703 -0.0578 -3.4647 -0.0894
  225MOL0     H29639   0.967   7.140   0.778 -0.6804 -3.6741 -3.1404
  225MOL0     H29640   0.901   7.199   0.633 -1.3623 -3.2723  1.5788
  225MOL0     H29641   0.946   7.436   0.684 -0.0393  0.1750 -0.6714
  225MOL0     H29642   1.028   7.380   0.842  0.1064 -3.6614  1.1268
  225MOL0     H29643   0.811   7.277   0.905 -1.7882 -0.6289 -1.6688
  225MOL0     H29644   0.807   7.453   0.911  0.3895  1.7492 -1.3465
  225MOL0     H29645   0.722   7.341   0.646 -0.9705  2.4965 -2.2659
  225MOL0     H29646   0.687   7.491   0.724  0.3219 -0.2548 -0.1104
  225MOL0     H29647   0.539   7.399   0.887 -0.4557  0.8846 -0.7522
  225MOL0     H29648   0.595   7.231   0.857 -0.5618  0.1577  0.8658
  225MOL0     H29649   0.396   7.389   0.683  1.0215 -1.0542 -1.1448
  225MOL0     H29650   0.497   7.244   0.642  1.7738  0.1346  0.7313
  225MOL0     H29651   0.324   7.277   0.887  0.8618 -0.9473  0.5070
  225MOL0     H29652   0.394   7.127   0.823 -1.7317 -0.4786  1.1460
  225MOL0     H29653   0.106   7.384   0.728 -3.8144  1.4248 -4.3635
  225MOL0     H29654  -0.158   7.264   0.528 -0.4410 -0.5134  0.2474
  225MOL0     H29655  -0.129   7.335   0.693  0.1646  0.2865  1.2442
  225MOL0     H29656  -0.190   7.058   0.661  2.8711  0.3786  0.8597
  225MOL0     H29657  -0.331   7.164   0.675  0.5000 -2.7994 -1.7948
  225MOL0     H29658  -0.118   7.075   0.892 -0.4858 -0.3960 -0.2225
  225MOL0     H29659  -0.166   7.235   0.910 -1.2979  0.9306 -1.2038
  225MOL0     H29660  -0.396   7.201   0.931 -2.1140 -1.4013  2.1302
  225MOL0     H29661  -0.312   7.084   1.040 -0.2783  2.5942  0.2916
  225MOL0     H29662  -0.590   7.181   0.840 -0.2483  0.1530 -1.1057
  225MOL0     H29663  -0.828   7.152   0.897 -1.9415 -2.4204 -3.3619
  225MOL0     H29664  -1.091   6.757   1.302  1.4818 -0.5339 -0.6706
  225MOL0     H29665  -1.346   6.703   1.335  1.7024  1.5288  1.1847
  225MOL0     H29666  -1.520   6.574   0.945  3.0322  0.8365  1.0097
  225MOL0     H29667  -1.678   6.597   0.999 -0.1775  0.3416 -1.9427
  225MOL0     H29668  -1.613   6.438   1.207 -2.4042 -0.9835 -1.4330
  225MOL0     H29669  -1.461   6.417   1.129  0.5137 -3.3543  2.3853
  225MOL0     H29670  -1.606   6.230   1.091  2.7756 -1.8296 -3.0112
  225MOL0     H29671  -1.577   6.304   0.935 -3.0744  1.5774 -1.1319
  225MOL0     H29672  -1.822   6.294   1.107 -0.0838 -0.4272 -0.2902
  225MOL0     H29673  -1.817   6.421   0.988  3.7354  1.3752 -0.2118
  225MOL0     H29674  -1.828   6.280   0.803 -2.7423  1.3208  0.0689
  225MOL0     H29675  -1.949   6.228   0.918 -0.3435 -0.9286 -3.5861
  225MOL0     H29676  -1.777   6.043   0.991 -0.8212 -0.4501 -0.0237
  225MOL0     H29677  -1.675   6.096   0.858  0.2565  2.5162 -3.2790
  225MOL0     H29678  -1.980   6.022   0.822 -0.7823 -5.4031  2.6358
  225MOL0     H29679  -1.855   6.031   0.696  0.6704 -1.9195 -0.2067
  225MOL0     H29680  -1.753   5.832   0.836  1.7656  4.7404 -2.0809
  225MOL0     H29681  -1.886   5.815   0.722  1.8546  0.5715 -2.1441
  225MOL0     H29682  -1.392   6.753   0.909  0.7160 -0.5584  0.1488
  225MOL0     H29683  -1.177   6.817   0.891  2.5523  0.1954  0.0796
  225MOL0     H29684  -0.749   6.758   1.034  0.0554  0.6339  1.1317
  225MOL0     H29685  -0.511   6.793   0.975  0.0696  0.1642  0.9211
  225MOL0     H29686   1.302   7.170   0.431  0.3653  0.2923 -0.1875
  225MOL0     H29687   1.528   7.048   0.389  0.0553 -0.5084 -1.6121
  225MOL0     H29688   1.842   6.786   0.362 -0.7476 -1.0779 -1.1346
  225MOL0     H29689   2.066   6.694   0.371  1.3556 -2.4696  0.1543
  225MOL0     H29690   2.203   6.651   0.563  0.6534  1.1056  0.2537
  225MOL0     H29691   2.327   6.568   0.476  0.0402  3.0278  1.1049
  225MOL0     H29692   2.331   6.568   0.737 -1.7540  1.6354 -0.6413
  225MOL0     H29693   2.198   6.460   0.741  1.7980 -2.3989  1.4578
  225MOL0     H29694   2.331   6.287   0.596 -2.0569  2.1026 -1.7578
  225MOL0     H29695   2.367   6.313   0.768 -1.5933 -0.9827  0.3876
  225MOL0     H29696   2.567   6.295   0.622 -2.6039 -2.2641  0.5966
  225MOL0     H29697   2.521   6.424   0.518  2.0930  0.0322 -0.3252
  225MOL0     H29698   2.628   6.639   0.869  1.6866  0.3834 -0.7316
  225MOL0     H29699   1.939   6.369   0.624  0.2407 -0.3036 -1.2084
  225MOL0     H29700   1.703   6.465   0.618 -0.2268 -0.8909  0.1333
  226MOL0     O29701   8.788   1.296   5.744  0.4878  0.1356 -0.3688
  226MOL0     C29702   8.670   1.286   5.725  0.3386  0.4692  0.8344
  226MOL0     O29703   8.608   1.179   5.673 -0.0381 -0.2910  0.6151
  226MOL0     C29704   8.688   1.094   5.606 -0.1448  0.1432 -0.1106
  226MOL0     C29705   8.768   1.131   5.491 -0.1738  0.6092 -0.4258
  226MOL0     C29706   8.866   1.042   5.432 -0.0122 -0.7026 -0.8463
  226MOL0     C29707   8.881   0.911   5.490 -0.3244 -0.6211 -0.3930
  226MOL0     O29708   8.961   0.810   5.444  0.9100  0.3071  0.6588
  226MOL0     C29709   9.092   0.840   5.403  0.1704  0.6175 -0.5303
  226MOL0     C29710   9.197   0.878   5.514 -0.9074  0.1590  1.0701
  226MOL0     C29711   9.193   1.030   5.549  0.3714 -1.0454  0.0552
  226MOL0     C29712   9.296   1.075   5.641  0.5835  0.4830  0.1721
  226MOL0     C29713   9.297   1.231   5.656  0.1555  0.1535  1.3565
  226MOL0     C29714   9.413   1.293   5.738  0.5089 -0.0070  0.0091
  226MOL0     C29715   9.380   1.447   5.753  0.2103  0.3702  1.1046
  226MOL0     C29716   9.512   1.509   5.790  0.0969 -0.5773 -0.6354
  226MOL0     N29717   9.522   1.631   5.872 -0.0653 -0.1003 -0.1600
  226MOL0     C29718   9.416   1.699   5.938 -0.6408  0.0003  0.4146
  226MOL0     C29719   9.488   1.794   6.005 -0.3190  0.2059 -0.7533
  226MOL0     C29720   9.431   1.900   6.085 -0.5163  0.1086 -1.0433
  226MOL0     C29721   9.304   1.857   6.172  0.0714 -0.6713  0.3445
  226MOL0     C29722   9.257   1.979   6.262  0.8594 -0.3016 -0.3201
  226MOL0     C29723   9.134   1.939   6.340 -0.0229 -0.0539  0.3798
  226MOL0     O29724   9.025   1.892   6.253 -0.1037  0.3583 -0.2189
  226MOL0     C29725   8.950   1.784   6.272  0.0067  0.3018 -0.1775
  226MOL0     C29726   8.953   1.707   6.390  0.5785  0.0189  0.1696
  226MOL0     C29727   8.870   1.592   6.407 -0.2525 -0.4493 -0.5199
  226MOL0     C29728   8.773   1.567   6.310 -0.1700 -0.6089  0.1807
  226MOL0     C29729   8.678   1.461   6.337 -1.2782  0.5147 -0.0918
  226MOL0     O29730   8.706   1.361   6.436 -0.3196 -0.2845  0.6410
  226MOL0     C29731   8.614   1.265   6.451  0.3499 -0.1203  0.0667
  226MOL0     C29732   8.617   1.141   6.376 -0.2247 -1.1543  0.7729
  226MOL0     C29733   8.498   1.064   6.353  0.2398 -0.4376  0.3690
  226MOL0     C29734   8.382   1.108   6.405 -0.2868  0.1805 -0.0412
  226MOL0     O29735   8.279   1.022   6.387  0.7496  0.2787  0.6607
  226MOL0     C29736   8.168   1.035   6.468  0.6276 -0.0204  0.7361
  226MOL0     C29737   8.058   0.932   6.428 -0.3403 -0.8603  0.4496
  226MOL0     C29738   8.017   0.949   6.277  0.7421  0.5984 -1.0190
  226MOL0     C29739   7.910   0.843   6.241 -0.2448 -0.5595  1.7365
  226MOL0     C29740   7.836   0.890   6.117  0.2481  0.4980  0.1981
  226MOL0     C29741   7.733   0.996   6.161  1.0908 -1.2415 -0.2573
  226MOL0     C29742   7.674   1.052   6.027  0.2678 -0.3089 -0.8601
  226MOL0     C29743   7.604   1.191   6.048 -1.2648  0.2241  0.8308
  226MOL0    Cl29744   7.501   1.194   6.200 -0.0241  0.2445  0.1268
  226MOL0     C29745   8.386   1.230   6.481  0.1653  0.0892 -0.3377
  226MOL0     C29746   8.491   1.303   6.509 -0.1517 -0.7880  0.4926
  226MOL0     O29747   8.582   1.461   6.258  0.7761  0.3259 -0.7799
  226MOL0     C29748   8.770   1.652   6.194  0.6591  0.2761  0.3834
  226MOL0     C29749   8.861   1.747   6.179  0.2405 -0.6186  0.9566
  226MOL0     N29750   9.624   1.778   5.981 -0.4286 -0.7806 -0.4367
  226MOL0     N29751   9.645   1.685   5.891  0.5507 -0.0165 -0.4296
  226MOL0     C29752   8.810   0.875   5.603 -0.4096 -0.6579 -0.0332
  226MOL0     C29753   8.712   0.963   5.654  1.4056 -0.0007  0.4713
  226MOL0     C29754   8.571   1.394   5.777  0.5227  1.2006  0.0979
  226MOL0     C29755   8.617   1.523   5.799  0.4388 -0.2011  0.6328
  226MOL0     C29756   8.530   1.622   5.848  0.5318 -0.0145 -0.0720
  226MOL0     C29757   8.398   1.597   5.874  0.5918  0.9221 -0.6728
  226MOL0     O29758   8.314   1.695   5.922 -0.3808 -0.3610  0.2843
  226MOL0     C29759   8.173   1.664   5.922  0.4486 -0.4846  0.2094
  226MOL0     C29760   8.091   1.784   5.942  0.6585  0.3047  0.0180
  226MOL0     C29761   8.114   1.895   5.827  0.3177  0.1839 -0.0987
  226MOL0     C29762   7.999   1.994   5.824  0.3570  0.6378 -0.2129
  226MOL0     C29763   8.032   2.106   5.734  0.1580  0.2961  0.0612
  226MOL0     C29764   8.030   2.197   5.655 -0.8972  0.6626  0.7079
  226MOL0     C29765   8.352   1.466   5.848 -0.3220  0.4698  0.1893
  226MOL0     C29766   8.438   1.368   5.797  0.8196  0.9676 -0.2181
  226MOL0     H29767   8.755   1.232   5.454 -1.2578  0.7669  0.3403
  226MOL0     H29768   8.923   1.083   5.350 -0.3363  1.0449 -0.2392
  226MOL0     H29769   9.082   0.918   5.327 -0.0008  0.5109 -0.6167
  226MOL0     H29770   9.123   0.751   5.349 -0.8940  1.3044 -2.3577
  226MOL0     H29771   9.297   0.851   5.479 -2.4129 -2.0574 -2.0662
  226MOL0     H29772   9.173   0.827   5.607 -0.3347 -3.6663 -0.6756
  226MOL0     H29773   9.097   1.052   5.598  1.2891  3.5268  0.2748
  226MOL0     H29774   9.200   1.087   5.456  0.4617  3.2855  2.4588
  226MOL0     H29775   9.271   1.052   5.745 -0.8050  0.8724 -0.0683
  226MOL0     H29776   9.394   1.034   5.614 -0.5868 -1.7087 -1.0949
  226MOL0     H29777   9.205   1.266   5.705 -0.1921  2.1252 -0.5462
  226MOL0     H29778   9.304   1.278   5.557  1.0757  0.4271  1.5407
  226MOL0     H29779   9.509   1.277   5.688  0.0263  2.0035 -1.6940
  226MOL0     H29780   9.424   1.249   5.838  1.3099  1.3642  0.5540
  226MOL0     H29781   9.354   1.484   5.653 -1.1000  2.3099  2.0899
  226MOL0     H29782   9.304   1.470   5.828 -0.8610  0.7559 -0.0624
  226MOL0     H29783   9.579   1.519   5.704  1.4627  1.5274  0.5950
  226MOL0     H29784   9.565   1.447   5.862 -0.2391  2.0149  2.0234
  226MOL0     H29785   9.310   1.677   5.940 -0.8253  0.7339 -0.6023
  226MOL0     H29786   9.400   1.985   6.023  0.0440 -0.1133 -1.6360
  226MOL0     H29787   9.512   1.941   6.146 -1.5612  1.4165 -0.4957
  226MOL0     H29788   9.327   1.766   6.227  1.7727 -0.3929  0.1382
  226MOL0     H29789   9.226   1.827   6.101  1.6503 -0.7221 -1.4590
  226MOL0     H29790   9.339   2.016   6.325 -0.6227  1.7870  0.4816
  226MOL0     H29791   9.221   2.064   6.203 -1.0636  0.1676  1.3796
  226MOL0     H29792   9.097   2.022   6.400  0.6160  1.1258 -0.8202
  226MOL0     H29793   9.166   1.862   6.411  0.7455  1.2931  1.5504
  226MOL0     H29794   9.020   1.730   6.472 -0.4849 -0.1558  1.1141
  226MOL0     H29795   8.889   1.528   6.493  2.1988  0.5579 -0.2230
  226MOL0     H29796   8.711   1.117   6.327 -0.6897  0.2463 -0.9140
  226MOL0     H29797   8.497   0.980   6.284  0.8689 -2.5503  2.7548
  226MOL0     H29798   8.126   1.135   6.451  2.6430  0.6805 -0.4768
  226MOL0     H29799   8.197   1.031   6.573  1.9519  2.8833  0.5810
  226MOL0     H29800   7.976   0.940   6.501  0.0483  0.3092  0.7809
  226MOL0     H29801   8.106   0.834   6.429  0.8483 -0.3981  4.2657
  226MOL0     H29802   8.107   0.938   6.215  2.9183  3.3112  1.3797
  226MOL0     H29803   7.967   1.045   6.260 -1.5718  0.3363  3.0097
  226MOL0     H29804   7.947   0.744   6.212 -2.4688 -0.7416 -0.8888
  226MOL0     H29805   7.836   0.830   6.321 -0.4583 -1.4517  1.4136
  226MOL0     H29806   7.785   0.806   6.070  1.3548  0.5486 -1.1721
  226MOL0     H29807   7.900   0.923   6.035 -1.3148 -2.6071 -2.4808
  226MOL0     H29808   7.775   1.077   6.222  0.3751  0.4453 -1.8698
  226MOL0     H29809   7.651   0.948   6.216 -1.0380  1.1115 -1.1524
  226MOL0     H29810   7.747   1.067   5.947  2.5357 -2.2692  0.7171
  226MOL0     H29811   7.599   0.982   5.989 -3.3810  1.7472  1.9802
  226MOL0     H29812   7.532   1.196   5.966 -1.1222 -0.2839  0.6695
  226MOL0     H29813   7.672   1.276   6.044 -2.0927  0.8764  0.1205
  226MOL0     H29814   8.298   1.263   6.535  2.6791  0.9520  3.6249
  226MOL0     H29815   8.487   1.404   6.549  1.1842 -0.6185  0.2396
  226MOL0     H29816   8.705   1.614   6.116 -0.5085  0.6172  1.1628
  226MOL0     H29817   8.851   1.806   6.088  0.2170 -2.0541  0.0047
  226MOL0     H29818   8.826   0.772   5.635 -4.5574 -1.1506  1.0316
  226MOL0     H29819   8.652   0.925   5.736  0.4907 -0.0460 -0.1961
  226MOL0     H29820   8.720   1.541   5.770 -0.1948  2.1076 -0.4585
  226MOL0     H29821   8.564   1.725   5.856  0.5515 -0.0221 -0.0601
  226MOL0     H29822   8.151   1.597   6.005  3.2926 -2.4683 -0.4914
  226MOL0     H29823   8.150   1.620   5.824  3.6112  1.3748 -1.5582
  226MOL0     H29824   7.988   1.748   5.932  0.9067 -0.5644  0.5205
  226MOL0     H29825   8.113   1.826   6.040  0.9033  0.1142  0.0444
  226MOL0     H29826   8.122   1.850   5.727 -0.9330 -3.3696  1.2322
  226MOL0     H29827   8.203   1.946   5.864 -2.1724  3.7588  1.4968
  226MOL0     H29828   7.908   1.943   5.791  0.1181  0.6724  0.3887
  226MOL0     H29829   7.979   2.031   5.925 -1.4329  1.6872 -0.9003
  226MOL0     H29830   8.029   2.276   5.582  0.8116 -0.5785 -0.7613
  226MOL0     H29831   8.252   1.438   5.882 -0.8385  1.9995  0.0244
  226MOL0     H29832   8.392   1.273   5.775  1.0024  0.4021  1.6746
  227MOL0     O29833   4.416   3.190   4.327  0.9796  1.2734  0.2462
  227MOL0     C29834   4.486   3.173   4.229  0.2504 -0.0001 -0.3316
  227MOL0     O29835   4.444   3.204   4.101  0.0758 -0.0486  0.2493
  227MOL0     C29836   4.315   3.220   4.064  0.7859 -0.2874  0.0449
  227MOL0     C29837   4.275   3.338   4.005 -0.7026  0.1111  0.2663
  227MOL0     C29838   4.153   3.373   3.953  0.7964  0.3871 -0.5251
  227MOL0     C29839   4.060   3.276   3.966 -0.2903 -0.1378  0.6000
  227MOL0     O29840   3.942   3.308   3.902  0.5490 -0.0132 -0.8692
  227MOL0     C29841   3.824   3.283   3.979  0.2767  0.0902 -0.7511
  227MOL0     C29842   3.729   3.262   3.868 -0.5706  0.8541 -0.2479
  227MOL0     C29843   3.692   3.115   3.812  0.2849 -0.3191 -0.4639
  227MOL0     C29844   3.615   3.120   3.681 -0.0012 -0.2887 -0.2114
  227MOL0     C29845   3.490   3.206   3.660  0.9310 -0.2593  0.2234
  227MOL0     C29846   3.414   3.153   3.541  0.0195  0.8639 -0.8840
  227MOL0     C29847   3.300   3.241   3.491  0.8833 -0.2721 -0.4382
  227MOL0     C29848   3.183   3.232   3.604 -0.1435  0.3541  1.0797
  227MOL0     N29849   3.075   3.320   3.561  0.4493  0.1039 -0.5436
  227MOL0     C29850   3.079   3.452   3.529  0.0176  0.1483  0.2586
  227MOL0     C29851   2.956   3.493   3.537  0.5316  0.0189 -0.4504
  227MOL0     C29852   2.933   3.643   3.513  0.6113  0.0948  0.5200
  227MOL0     C29853   2.971   3.732   3.631 -0.4287 -0.0710 -0.1969
  227MOL0     C29854   2.885   3.697   3.751  0.4200  0.4054 -0.3644
  227MOL0     C29855   2.901   3.801   3.863 -0.7970  0.2525 -0.5164
  227MOL0     O29856   3.020   3.783   3.947 -0.2887  0.3252 -0.1845
  227MOL0     C29857   3.124   3.873   3.944  0.8450 -0.7596  0.1039
  227MOL0     C29858   3.210   3.864   4.048 -0.7392  0.6032  0.2216
  227MOL0     C29859   3.307   3.965   4.053  0.3413  0.3159 -0.5925
  227MOL0     C29860   3.335   4.060   3.949 -1.2621 -0.0317  0.1363
  227MOL0     C29861   3.453   4.157   3.960 -0.3818 -0.1758  1.4145
  227MOL0     O29862   3.517   4.157   4.080  0.3364  0.1453  0.1657
  227MOL0     C29863   3.625   4.237   4.103 -0.0272  0.4530  0.0723
  227MOL0     C29864   3.607   4.377   4.125 -0.1987  0.2592 -0.8993
  227MOL0     C29865   3.722   4.460   4.150 -0.1690  0.4796  0.4659
  227MOL0     C29866   3.848   4.389   4.137  0.5543  0.2751 -0.2594
  227MOL0     O29867   3.963   4.465   4.145  0.0193 -0.5970  0.4186
  227MOL0     C29868   3.964   4.580   4.239 -0.4649 -0.3666 -0.1478
  227MOL0     C29869   4.078   4.675   4.216 -0.4486  0.5752  0.5474
  227MOL0     C29870   4.212   4.613   4.188  0.0911  0.6313 -0.4254
  227MOL0     C29871   4.333   4.702   4.157  0.3365 -0.0073 -0.9441
  227MOL0     C29872   4.343   4.757   4.016  0.2679  0.2203  0.4351
  227MOL0     C29873   4.220   4.849   3.979 -0.3790 -0.4221  0.0829
  227MOL0     C29874   4.225   4.979   4.067  1.1537 -0.7524  0.5213
  227MOL0     C29875   4.350   5.060   4.080  0.8941 -0.4043 -0.1235
  227MOL0    Cl29876   4.312   5.244   4.115 -0.2480 -0.0210  0.1919
  227MOL0     C29877   3.861   4.256   4.107  0.0478 -0.7406  0.1743
  227MOL0     C29878   3.747   4.183   4.083 -0.8858 -0.3266 -0.5867
  227MOL0     O29879   3.488   4.223   3.862  0.7952 -0.5310 -0.5719
  227MOL0     C29880   3.260   4.047   3.836  0.1129  0.9727  0.5228
  227MOL0     C29881   3.146   3.961   3.841 -0.1682  0.0684  0.0199
  227MOL0     N29882   2.874   3.381   3.562 -0.3535  0.2015  0.5135
  227MOL0     N29883   2.946   3.276   3.575  0.6671 -0.1537  0.1960
  227MOL0     C29884   4.084   3.158   4.024 -0.1638 -0.0217 -0.4893
  227MOL0     C29885   4.212   3.120   4.078  0.1338  0.0993  0.5548
  227MOL0     C29886   4.628   3.150   4.252 -0.1669 -0.1252 -0.3154
  227MOL0     C29887   4.672   3.127   4.383 -1.8975 -1.5870  1.1097
  227MOL0     C29888   4.810   3.103   4.396  1.0518 -0.1986  0.3269
  227MOL0     C29889   4.898   3.110   4.290 -0.3976 -0.2850  0.3743
  227MOL0     O29890   5.029   3.060   4.302  0.5676 -0.5300 -0.8549
  227MOL0     C29891   5.098   3.091   4.425 -0.3946  0.0255 -0.2071
  227MOL0     C29892   5.193   2.976   4.439 -0.7395 -0.0940  0.3887
  227MOL0     C29893   5.306   2.974   4.548  0.8480  0.0964  0.1338
  227MOL0     C29894   5.421   3.074   4.522 -0.4693  0.4581 -0.3736
  227MOL0     C29895   5.523   3.048   4.627  0.6511  0.1343 -0.3095
  227MOL0     C29896   5.597   3.031   4.721  0.2441  0.3813  0.4842
  227MOL0     C29897   4.852   3.135   4.160  0.2775  0.8624  0.1642
  227MOL0     C29898   4.716   3.149   4.137 -0.4759 -0.0439  0.1056
  227MOL0     H29899   4.356   3.410   3.998  0.9466 -1.6243  0.5880
  227MOL0     H29900   4.141   3.463   3.895  1.7913  0.7117 -0.2417
  227MOL0     H29901   3.799   3.365   4.047  0.9604 -2.1984  2.5633
  227MOL0     H29902   3.817   3.197   4.046  0.5467  0.8535  0.2819
  227MOL0     H29903   3.759   3.336   3.793  0.9754 -0.3579 -0.8586
  227MOL0     H29904   3.641   3.307   3.915 -0.5695  0.0130  0.5764
  227MOL0     H29905   3.638   3.058   3.889  0.5029 -0.2543 -0.2577
  227MOL0     H29906   3.781   3.060   3.778  0.8545 -1.8931  3.0272
  227MOL0     H29907   3.685   3.168   3.614  1.4892 -1.0173  0.7652
  227MOL0     H29908   3.601   3.018   3.642 -2.1600 -0.1232  0.0166
  227MOL0     H29909   3.532   3.305   3.638  2.7746 -1.2962 -1.1267
  227MOL0     H29910   3.428   3.207   3.750  1.0829 -1.0841  0.3427
  227MOL0     H29911   3.373   3.058   3.574  2.3414 -0.4603 -1.5947
  227MOL0     H29912   3.482   3.132   3.458  2.0330  0.7141  0.7182
  227MOL0     H29913   3.326   3.345   3.473 -1.1487  0.6072  1.2792
  227MOL0     H29914   3.255   3.196   3.401 -1.8272  0.5663  0.3957
  227MOL0     H29915   3.209   3.276   3.701 -3.4696 -0.9000  2.7090
  227MOL0     H29916   3.154   3.128   3.618  0.4719  0.2296  1.4677
  227MOL0     H29917   3.168   3.511   3.509 -0.2504 -0.4708 -3.3631
  227MOL0     H29918   2.826   3.645   3.489  1.0152 -1.2071 -1.6300
  227MOL0     H29919   2.992   3.676   3.427  2.0299  1.0229  1.8131
  227MOL0     H29920   2.973   3.839   3.608  2.2180 -0.3838 -1.9031
  227MOL0     H29921   3.075   3.720   3.659  0.0362 -0.3099 -1.8906
  227MOL0     H29922   2.777   3.684   3.744  0.2870 -0.4206  2.1825
  227MOL0     H29923   2.935   3.610   3.795  0.2561  0.6879  0.3918
  227MOL0     H29924   2.813   3.802   3.928 -0.2054  1.3211  0.3082
  227MOL0     H29925   2.895   3.902   3.820  0.9253  1.4273  1.7673
  227MOL0     H29926   3.180   3.788   4.119 -0.7639 -1.9659 -2.3590
  227MOL0     H29927   3.369   3.967   4.142 -0.8089 -0.6224  0.2605
  227MOL0     H29928   3.503   4.408   4.112 -1.0078 -1.7498  0.3214
  227MOL0     H29929   3.712   4.565   4.177 -2.5157  0.2879  0.5802
  227MOL0     H29930   3.974   4.542   4.341 -2.8068 -0.4657  0.0980
  227MOL0     H29931   3.876   4.644   4.244 -0.7615 -0.7240 -0.6806
  227MOL0     H29932   4.087   4.746   4.298  0.3400  2.3341 -0.9921
  227MOL0     H29933   4.046   4.742   4.136 -1.5446  1.7061  1.8821
  227MOL0     H29934   4.214   4.534   4.113 -1.3569 -0.4458  0.6122
  227MOL0     H29935   4.241   4.559   4.279 -0.6981  2.0734  0.7302
  227MOL0     H29936   4.338   4.774   4.239  0.5992  0.6981 -1.5645
  227MOL0     H29937   4.426   4.646   4.169  1.2970  1.9365  2.1971
  227MOL0     H29938   4.348   4.685   3.933 -0.6094  1.1911 -0.5037
  227MOL0     H29939   4.437   4.811   4.029  1.1346 -1.3879  1.1588
  227MOL0     H29940   4.121   4.805   3.969 -1.4018  1.7066  0.1872
  227MOL0     H29941   4.252   4.896   3.885  0.3132  1.5656  1.2546
  227MOL0     H29942   4.164   5.047   4.007  0.5627 -1.4539  0.3151
  227MOL0     H29943   4.174   4.973   4.164  1.5876  0.0853  0.8092
  227MOL0     H29944   4.413   5.057   3.991 -1.1853  1.3207 -1.7854
  227MOL0     H29945   4.410   5.008   4.155 -0.4370  0.3096  1.5256
  227MOL0     H29946   3.968   4.239   4.104  0.3118  0.7505  0.3193
  227MOL0     H29947   3.755   4.078   4.056  3.1110 -0.2587 -0.2130
  227MOL0     H29948   3.269   4.102   3.742 -1.0495 -2.9726 -2.1795
  227MOL0     H29949   3.091   3.957   3.747  0.6624  1.1333 -0.5333
  227MOL0     H29950   3.995   3.097   4.021 -1.0930  1.2889 -0.6885
  227MOL0     H29951   4.236   3.020   4.113  0.4528 -0.2509 -0.6002
  227MOL0     H29952   4.614   3.109   4.472 -2.2154  0.6077  1.3849
  227MOL0     H29953   4.839   3.058   4.490 -0.8936  1.9820  2.1083
  227MOL0     H29954   5.045   3.101   4.520 -2.1228  0.0370 -1.1258
  227MOL0     H29955   5.155   3.182   4.409 -1.4230  0.8933  0.8734
  227MOL0     H29956   5.127   2.890   4.451  2.4322 -2.6118  1.1900
  227MOL0     H29957   5.250   2.963   4.346 -2.4926 -1.1121 -0.5950
  227MOL0     H29958   5.341   2.871   4.555 -1.4228 -0.8386 -1.2632
  227MOL0     H29959   5.247   2.996   4.637  3.1862 -0.1201  1.8424
  227MOL0     H29960   5.448   3.078   4.416  0.2718  0.7280 -0.1821
  227MOL0     H29961   5.391   3.179   4.524  0.1515  0.7073 -2.0051
  227MOL0     H29962   5.665   2.995   4.796 -0.4507 -4.0458 -0.7225
  227MOL0     H29963   4.920   3.137   4.075  2.1823  3.2976  1.6077
  227MOL0     H29964   4.683   3.177   4.038 -0.3521 -2.1803 -0.5980
  228MOL0     O29965   9.600  10.431   4.799 -0.3998  0.2055 -0.7007
  228MOL0     C29966   9.577  10.309   4.797  0.0172  0.0309  1.0221
  228MOL0     O29967   9.670  10.201   4.787  0.5441 -0.9372 -0.6059
  228MOL0     C29968   9.804  10.238   4.779 -0.3451  0.1752 -0.8145
  228MOL0     C29969   9.851  10.278   4.662 -0.1688  0.4613  0.4543
  228MOL0     C29970   9.983  10.324   4.652 -0.5979  0.0786  0.1470
  228MOL0     C29971  10.067  10.335   4.754 -0.2886  1.1778  0.6880
  228MOL0     O29972  10.193  10.383   4.759  0.0949  0.4007  0.1105
  228MOL0     C29973  10.262  10.429   4.641 -0.1532  0.0775  0.0005
  228MOL0     C29974  10.366  10.543   4.686 -0.0545 -0.5553 -0.2634
  228MOL0     C29975  10.475  10.570   4.595  0.3400  0.1104 -0.0291
  228MOL0     C29976  10.438  10.633   4.461  0.1083  0.4853 -0.5197
  228MOL0     C29977  10.551  10.622   4.361  0.0597 -0.7623 -0.2776
  228MOL0     C29978  10.638  10.751   4.374  0.8025 -0.2512  1.1243
  228MOL0     C29979  10.764  10.723   4.291  0.0536 -0.0119 -0.2516
  228MOL0     C29980  10.887  10.720   4.380  0.0552  0.5391  0.2232
  228MOL0     N29981  10.878  10.638   4.497 -0.6919 -0.4773 -1.0746
  228MOL0     C29982  10.843  10.692   4.617 -0.1396  0.1781 -0.0524
  228MOL0     C29983  10.856  10.582   4.702  0.0851  0.3111  0.4699
  228MOL0     C29984  10.855  10.577   4.855  0.5409  0.9997 -0.8875
  228MOL0     C29985  10.717  10.549   4.901  0.0981 -0.9211  0.0762
  228MOL0     C29986  10.670  10.405   4.914  0.5494  0.7992 -1.1268
  228MOL0     C29987  10.549  10.396   5.001  0.4879  0.1902 -0.4048
  228MOL0     O29988  10.481  10.272   4.987  0.3907  0.3033  0.0382
  228MOL0     C29989  10.378  10.254   5.075  0.3413  0.1259  0.0923
  228MOL0     C29990  10.331  10.124   5.084  0.5838 -0.1007  0.3880
  228MOL0     C29991  10.233  10.085   5.178  0.2318 -0.9695 -0.2155
  228MOL0     C29992  10.168  10.183   5.251 -0.2107 -0.0982 -0.9198
  228MOL0     C29993  10.047  10.152   5.333  0.5783  0.2706 -0.5169
  228MOL0     O29994   9.981  10.034   5.305 -0.5735  0.0789  0.3724
  228MOL0     C29995   9.844  10.031   5.343  0.5365 -1.0489  0.8421
  228MOL0     C29996   9.756  10.145   5.323 -1.1284  0.6973  0.1512
  228MOL0     C29997   9.627  10.137   5.367  0.2727  0.5252 -0.2603
  228MOL0     C29998   9.570  10.013   5.417  0.4421  0.0273  0.7828
  228MOL0     O29999   9.440   9.992   5.443 -0.3508 -0.1316 -0.4102
  228MOL0     C30000   9.384  10.080   5.540  0.3495  0.5569 -0.2461
  228MOL0     C30001   9.254  10.018   5.598 -0.3134 -0.2318 -0.4031
  228MOL0     C30002   9.152   9.976   5.493  0.0608 -0.1856  0.1472
  228MOL0     C30003   9.027   9.921   5.568 -0.3382  0.5586  0.1819
  228MOL0     C30004   8.901   9.967   5.492 -0.7369 -0.7745  0.8084
  228MOL0     C30005   8.762   9.936   5.546  0.0495  0.2031 -0.2114
  228MOL0     C30006   8.656   9.996   5.460  0.0632 -0.4677  0.2807
  228MOL0     C30007   8.525  10.004   5.526  1.1156 -0.2246  0.4432
  228MOL0    Cl30008   8.454   9.841   5.563 -0.2130 -0.4948  0.3155
  228MOL0     C30009   9.648   9.896   5.412  0.5431  0.2746  0.1199
  228MOL0     C30010   9.784   9.907   5.375 -0.7315 -1.1663  0.2274
  228MOL0     O30011  10.003  10.238   5.405  0.1399  0.6047 -0.2409
  228MOL0     C30012  10.212  10.313   5.245 -0.1501 -0.1482 -1.0078
  228MOL0     C30013  10.327  10.347   5.162  0.3369  0.0850 -0.3536
  228MOL0     N30014  10.886  10.468   4.627 -0.3646 -0.3714  0.1230
  228MOL0     N30015  10.895  10.503   4.502 -0.4347 -0.5585 -0.9304
  228MOL0     C30016  10.020  10.285   4.884  0.1663 -0.1381 -0.1914
  228MOL0     C30017   9.888  10.236   4.886 -0.2467  0.0653  0.3534
  228MOL0     C30018   9.427  10.270   4.797 -0.6115 -0.6864  0.6367
  228MOL0     C30019   9.386  10.143   4.756  0.4244  0.1741 -0.6696
  228MOL0     C30020   9.250  10.107   4.773 -0.2303 -0.0244  0.8547
  228MOL0     C30021   9.152  10.200   4.821  0.5497 -0.9342  0.0576
  228MOL0     O30022   9.024  10.153   4.830  0.2667  0.5772  0.3914
  228MOL0     C30023   8.912  10.231   4.853  0.4030 -0.0017  1.1720
  228MOL0     C30024   8.799  10.124   4.874 -0.3918 -0.7714  0.2641
  228MOL0     C30025   8.647  10.184   4.866 -0.0533  0.4502 -0.0266
  228MOL0     C30026   8.631  10.276   4.988  0.6144 -0.0249  0.4050
  228MOL0     C30027   8.663  10.409   4.947  0.5405 -0.5373  1.7384
  228MOL0     C30028   8.697  10.521   4.902 -0.5231  0.1589  0.4087
  228MOL0     C30029   9.196  10.330   4.858 -0.5013  0.4611 -0.1271
  228MOL0     C30030   9.334  10.362   4.843  0.0524  0.1096  0.2662
  228MOL0     H30031   9.784  10.263   4.578 -1.3877 -0.4822  1.5614
  228MOL0     H30032  10.010  10.357   4.552  2.4093  3.6507  1.9073
  228MOL0     H30033  10.191  10.471   4.570 -0.9663 -2.8141 -1.0393
  228MOL0     H30034  10.323  10.355   4.588 -0.6616 -1.4803  1.4530
  228MOL0     H30035  10.413  10.519   4.782 -0.2267 -0.7900 -0.2390
  228MOL0     H30036  10.320  10.642   4.700 -0.0603 -0.7876  1.7274
  228MOL0     H30037  10.524  10.473   4.585 -0.4614 -0.1728 -1.4261
  228MOL0     H30038  10.549  10.633   4.645  0.2350 -0.6573  1.1503
  228MOL0     H30039  10.350  10.577   4.429 -0.5105  0.4372  1.1629
  228MOL0     H30040  10.405  10.735   4.483 -1.5847  0.4582 -2.5631
  228MOL0     H30041  10.508  10.609   4.262  0.9694 -2.1653 -0.5169
  228MOL0     H30042  10.616  10.537   4.381  0.2009 -0.2153  1.9572
  228MOL0     H30043  10.652  10.807   4.467  1.4521 -0.3280  1.0802
  228MOL0     H30044  10.588  10.824   4.309  3.2179  1.5835  1.1785
  228MOL0     H30045  10.748  10.640   4.222 -2.9470  0.5683 -0.4036
  228MOL0     H30046  10.784  10.812   4.230 -0.0428  1.0868  1.2642
  228MOL0     H30047  10.928  10.819   4.398 -0.7313  1.2355 -1.5785
  228MOL0     H30048  10.971  10.672   4.330  0.3666  0.3601  0.9033
  228MOL0     H30049  10.803  10.792   4.633 -2.4425 -0.8773  1.3109
  228MOL0     H30050  10.892  10.671   4.897  2.5435 -0.7408  1.5218
  228MOL0     H30051  10.922  10.497   4.889  0.2070  2.1095  2.7661
  228MOL0     H30052  10.653  10.599   4.828  0.1737  1.6312  1.6439
  228MOL0     H30053  10.704  10.601   4.996  1.9129 -3.1113  1.6607
  228MOL0     H30054  10.654  10.371   4.811 -0.0352  0.0277 -0.7897
  228MOL0     H30055  10.751  10.351   4.963 -1.9543 -0.8997  1.4331
  228MOL0     H30056  10.483  10.477   4.968  0.2947 -0.1467 -0.8551
  228MOL0     H30057  10.582  10.407   5.105  0.6096  0.4635 -0.4733
  228MOL0     H30058  10.363  10.043   5.020 -3.2370 -0.6990 -1.0397
  228MOL0     H30059  10.208   9.980   5.196 -1.8407 -0.3523  0.8323
  228MOL0     H30060   9.791  10.244   5.300  2.0494 -0.5214 -0.7525
  228MOL0     H30061   9.574  10.231   5.357  4.0582  3.0630  1.1902
  228MOL0     H30062   9.367  10.173   5.484  0.4000 -1.9221 -4.8725
  228MOL0     H30063   9.455  10.083   5.623  1.3964 -1.2677 -1.0097
  228MOL0     H30064   9.222  10.083   5.680  1.8142  1.5849 -0.9011
  228MOL0     H30065   9.282   9.925   5.648 -1.9389 -0.5251  0.0103
  228MOL0     H30066   9.199   9.901   5.429 -1.2915  0.2263 -1.3874
  228MOL0     H30067   9.130  10.065   5.433  4.5924  0.6133 -0.6498
  228MOL0     H30068   9.037   9.814   5.585 -1.3615 -0.3105 -3.6826
  228MOL0     H30069   9.015   9.960   5.669 -1.0358  0.2167  0.2401
  228MOL0     H30070   8.914   9.944   5.386  0.5498  3.4468 -0.1376
  228MOL0     H30071   8.905  10.075   5.506 -2.5409 -0.0737 -2.9120
  228MOL0     H30072   8.751   9.984   5.644 -4.3526  0.7444 -0.7660
  228MOL0     H30073   8.747   9.828   5.556  2.8822 -0.5039 -2.3163
  228MOL0     H30074   8.687  10.096   5.430 -1.4096  0.0347  0.3417
  228MOL0     H30075   8.643   9.941   5.366  0.8275 -0.0479 -0.0727
  228MOL0     H30076   8.445  10.062   5.479  0.7330  0.0150  1.3538
  228MOL0     H30077   8.535  10.054   5.623 -0.1870  2.2236 -0.5861
  228MOL0     H30078   9.610   9.805   5.458  1.1684  0.2390  0.5873
  228MOL0     H30079   9.850   9.821   5.374 -0.6539 -1.1147 -1.5015
  228MOL0     H30080  10.164  10.389   5.306 -0.7518  0.7314 -2.5191
  228MOL0     H30081  10.351  10.453   5.160 -2.7654  0.8824 -1.6499
  228MOL0     H30082  10.090  10.292   4.967 -0.7534  1.8616  0.4818
  228MOL0     H30083   9.840  10.200   4.977  0.2672 -2.1800 -0.2035
  228MOL0     H30084   9.460  10.077   4.711  2.2702  1.7461 -0.0628
  228MOL0     H30085   9.209  10.009   4.749  2.7738 -1.8184  2.4263
  228MOL0     H30086   8.892  10.292   4.764  0.1011  0.7266  1.7268
  228MOL0     H30087   8.919  10.285   4.948 -1.5577 -2.7971  3.0916
  228MOL0     H30088   8.811  10.059   4.788 -0.9247 -2.5662  1.4985
  228MOL0     H30089   8.814  10.063   4.964 -3.4110 -2.2000 -0.1061
  228MOL0     H30090   8.573  10.103   4.873  0.4328 -0.3307 -2.7263
  228MOL0     H30091   8.627  10.240   4.775 -3.3616 -1.8225 -0.8899
  228MOL0     H30092   8.527  10.281   5.023  0.9022 -2.5650  1.8599
  228MOL0     H30093   8.686  10.246   5.078  0.2062 -0.6504  0.4519
  228MOL0     H30094   8.731  10.610   4.852 -2.0300  0.8054  0.4684
  228MOL0     H30095   9.128  10.411   4.882  1.1981  1.2876  2.2881
  228MOL0     H30096   9.368  10.460   4.876  2.6551 -0.7990  0.5012
  229MOL0     O30097   3.443   6.147   9.187 -0.1778  0.0877  0.3322
  229MOL0     C30098   3.532   6.227   9.187  0.4120 -0.3782 -0.0964
  229MOL0     O30099   3.543   6.344   9.107  0.0466  0.8167  0.2807
  229MOL0     C30100   3.437   6.373   9.023  0.5228 -0.1099  0.7033
  229MOL0     C30101   3.313   6.409   9.082 -0.1227 -0.8182  0.4088
  229MOL0     C30102   3.202   6.431   8.999 -0.6317  0.0309 -0.1272
  229MOL0     C30103   3.217   6.436   8.862 -0.4654 -0.5880  0.4379
  229MOL0     O30104   3.111   6.443   8.775  0.3762 -0.0189  0.1755
  229MOL0     C30105   3.022   6.557   8.797  0.0755 -0.1570  0.0390
  229MOL0     C30106   2.943   6.560   8.660  0.1451 -0.2720  0.1344
  229MOL0     C30107   2.850   6.690   8.667 -0.7027 -0.6930 -0.0702
  229MOL0     C30108   2.709   6.645   8.646 -0.0373  0.2858  0.0894
  229MOL0     C30109   2.613   6.760   8.671  0.2081 -1.4937  0.4335
  229MOL0     C30110   2.463   6.730   8.633  0.0607 -0.5652 -0.5016
  229MOL0     C30111   2.362   6.838   8.663  0.3976 -0.6694 -0.2514
  229MOL0     C30112   2.228   6.772   8.644 -0.2340 -0.4535 -0.1309
  229MOL0     N30113   2.111   6.855   8.649 -0.3837 -0.6431 -0.6905
  229MOL0     C30114   2.088   6.961   8.562  0.0438 -0.7928  0.2062
  229MOL0     C30115   1.979   7.020   8.609 -0.0690 -0.4613  0.4821
  229MOL0     C30116   1.925   7.141   8.542 -0.5367 -0.8462  0.1283
  229MOL0     C30117   1.773   7.156   8.551 -0.0598  0.4050  0.6401
  229MOL0     C30118   1.723   7.292   8.497  0.1393  0.2400  0.3694
  229MOL0     C30119   1.583   7.341   8.541 -0.1255 -0.4417 -0.0811
  229MOL0     O30120   1.572   7.338   8.684 -0.7002 -0.6452 -0.1270
  229MOL0     C30121   1.451   7.322   8.752  0.0726 -0.4056  0.2449
  229MOL0     C30122   1.421   7.208   8.834  0.4548  0.6444  0.5158
  229MOL0     C30123   1.296   7.194   8.901  0.5692 -0.2754 -0.7591
  229MOL0     C30124   1.195   7.297   8.885  0.1726 -0.4094  0.5228
  229MOL0     C30125   1.065   7.276   8.957  1.1310  0.0015  0.9509
  229MOL0     O30126   0.970   7.373   8.935 -0.0370 -0.4051 -0.5218
  229MOL0     C30127   0.833   7.352   8.955 -1.0423  1.2637 -0.0759
  229MOL0     C30128   0.747   7.460   8.961  0.5525  0.4272  0.0707
  229MOL0     C30129   0.603   7.452   8.973 -0.7554 -0.1308 -0.5128
  229MOL0     C30130   0.546   7.331   8.942  0.0436  0.2497 -0.5637
  229MOL0     O30131   0.413   7.311   8.962 -0.0099  0.6067 -0.1412
  229MOL0     C30132   0.328   7.419   8.996  0.0607 -0.0332 -0.3721
  229MOL0     C30133   0.179   7.382   9.011 -0.2314 -0.3929  0.4022
  229MOL0     C30134   0.111   7.507   9.072  0.8257 -0.2186 -0.7675
  229MOL0     C30135  -0.050   7.482   9.076  0.1704 -0.0758  0.7854
  229MOL0     C30136  -0.110   7.474   8.939  0.2300  0.7128 -0.2795
  229MOL0     C30137  -0.252   7.416   8.950  0.3966  0.5880 -0.3712
  229MOL0     C30138  -0.328   7.415   8.815 -0.3471 -0.7037  0.2583
  229MOL0     C30139  -0.399   7.540   8.784  0.0081  0.5871  0.4647
  229MOL0    Cl30140  -0.484   7.537   8.623  0.1248  0.2829  0.8226
  229MOL0     C30141   0.618   7.213   8.934  0.0637 -0.0935  0.6364
  229MOL0     C30142   0.762   7.225   8.943 -0.0727  0.2498  0.4589
  229MOL0     O30143   1.059   7.195   9.050  0.5339 -0.3293 -1.0558
  229MOL0     C30144   1.231   7.404   8.804 -0.5031  0.2860 -0.1678
  229MOL0     C30145   1.360   7.424   8.747  0.1071  0.2426 -0.4066
  229MOL0     N30146   1.936   6.955   8.729  0.0617 -0.6503 -0.8299
  229MOL0     N30147   2.015   6.861   8.753 -0.2222  0.1551 -0.7537
  229MOL0     C30148   3.349   6.417   8.798  0.7671 -0.9112  0.0883
  229MOL0     C30149   3.454   6.388   8.882  0.7283 -0.4266  0.3402
  229MOL0     C30150   3.642   6.188   9.270 -0.2458 -0.9670  0.0321
  229MOL0     C30151   3.760   6.275   9.287  0.4818  0.4192  0.4541
  229MOL0     C30152   3.867   6.240   9.369 -0.1019  0.1493 -0.4844
  229MOL0     C30153   3.855   6.127   9.449 -0.1263  0.7091  0.2432
  229MOL0     O30154   3.940   6.083   9.551 -0.3836  0.5393 -0.2790
  229MOL0     C30155   4.058   6.009   9.513 -0.7258  0.0516 -0.4544
  229MOL0     C30156   4.184   6.073   9.586  0.5790 -0.5270  0.2043
  229MOL0     C30157   4.254   6.174   9.493 -0.4392 -0.1009 -0.5807
  229MOL0     C30158   4.366   6.263   9.561  0.6849 -0.2177 -0.6812
  229MOL0     C30159   4.485   6.195   9.607 -0.1951  0.1618 -0.0717
  229MOL0     C30160   4.589   6.137   9.655  0.0275  0.2272  0.0314
  229MOL0     C30161   3.749   6.039   9.424 -0.7545 -0.1520 -0.1238
  229MOL0     C30162   3.645   6.061   9.338  0.0965  0.1183 -0.8450
  229MOL0     H30163   3.294   6.427   9.187 -1.0562  1.0321 -0.0427
  229MOL0     H30164   3.101   6.442   9.037  0.2344 -0.4845  2.5259
  229MOL0     H30165   3.068   6.653   8.823 -1.8890  0.9530 -0.3374
  229MOL0     H30166   2.952   6.532   8.877 -2.1971 -1.1574 -2.1411
  229MOL0     H30167   2.881   6.471   8.645  0.6597 -1.0369  2.1374
  229MOL0     H30168   3.017   6.577   8.582 -0.5561  0.6335 -0.3417
  229MOL0     H30169   2.870   6.756   8.582  2.2566 -1.0709  0.2391
  229MOL0     H30170   2.876   6.754   8.752  2.1051 -2.9239  0.8839
  229MOL0     H30171   2.693   6.608   8.544 -1.5225 -1.1949  0.8146
  229MOL0     H30172   2.692   6.566   8.720  1.0249 -1.8510 -1.8206
  229MOL0     H30173   2.641   6.840   8.603 -1.6208  0.2315  1.5948
  229MOL0     H30174   2.617   6.797   8.774 -1.1342 -0.4891  0.1554
  229MOL0     H30175   2.425   6.640   8.683 -1.3841  0.1237 -0.2976
  229MOL0     H30176   2.456   6.718   8.525  1.9555  0.4140 -0.7689
  229MOL0     H30177   2.366   6.874   8.766 -2.9438  0.1501 -0.3068
  229MOL0     H30178   2.376   6.916   8.588 -2.6588 -0.1379 -0.3789
  229MOL0     H30179   2.219   6.700   8.726  4.4808 -3.4560 -1.8691
  229MOL0     H30180   2.222   6.704   8.559 -0.4540  1.9306 -2.1300
  229MOL0     H30181   2.144   6.985   8.472 -1.0031 -0.8179 -0.4709
  229MOL0     H30182   1.961   7.132   8.439 -1.1201 -0.5253 -0.1131
  229MOL0     H30183   1.970   7.226   8.594 -1.0940 -0.5014  0.0676
  229MOL0     H30184   1.745   7.152   8.656 -2.1461 -1.7471  0.0850
  229MOL0     H30185   1.742   7.074   8.486 -1.0090  2.9424 -2.3518
  229MOL0     H30186   1.797   7.362   8.536  0.7781  0.6143 -1.4328
  229MOL0     H30187   1.739   7.301   8.390  0.9743 -0.2871  0.4455
  229MOL0     H30188   1.499   7.287   8.496 -2.4332  3.5706 -1.0679
  229MOL0     H30189   1.568   7.441   8.498 -1.5889 -0.9200 -0.7283
  229MOL0     H30190   1.493   7.131   8.856  1.0640  1.7495  2.5993
  229MOL0     H30191   1.279   7.104   8.959 -0.4331  0.0821 -0.4635
  229MOL0     H30192   0.789   7.560   8.968 -0.9380  0.9899  1.9819
  229MOL0     H30193   0.547   7.545   8.979 -0.1925  0.2976 -1.6802
  229MOL0     H30194   0.314   7.504   8.928 -1.4094  1.8861  2.1353
  229MOL0     H30195   0.356   7.468   9.090 -0.2544  1.8757 -1.2077
  229MOL0     H30196   0.169   7.307   9.090  3.5741 -0.1850  1.3202
  229MOL0     H30197   0.147   7.352   8.911  4.8175  1.2712 -2.0961
  229MOL0     H30198   0.116   7.588   8.998 -0.2191  1.4311  0.8783
  229MOL0     H30199   0.151   7.535   9.170 -0.6135 -0.6498 -0.0336
  229MOL0     H30200  -0.059   7.388   9.133  2.8402 -2.4057 -2.2857
  229MOL0     H30201  -0.098   7.566   9.126  3.0511  2.9757 -1.1773
  229MOL0     H30202  -0.047   7.420   8.867  1.1405  2.3133 -0.7378
  229MOL0     H30203  -0.111   7.578   8.905 -1.0680  0.4372 -1.1580
  229MOL0     H30204  -0.310   7.471   9.024  0.5861  4.2030 -2.6843
  229MOL0     H30205  -0.233   7.312   8.978  0.0848  0.7721  0.5325
  229MOL0     H30206  -0.250   7.396   8.739  2.3470  2.2326  2.0498
  229MOL0     H30207  -0.405   7.338   8.807  0.9219 -2.1333  1.2504
  229MOL0     H30208  -0.324   7.619   8.776 -1.2083  1.7471  0.1402
  229MOL0     H30209  -0.466   7.556   8.868  0.3259 -0.1954  0.8841
  229MOL0     H30210   0.563   7.122   8.911 -0.7994  0.5051  0.2839
  229MOL0     H30211   0.824   7.140   8.917 -0.9517  0.1008 -1.3192
  229MOL0     H30212   1.152   7.478   8.791 -0.1698  0.3142 -2.3762
  229MOL0     H30213   1.387   7.513   8.690  1.2107 -0.6805 -1.3716
  229MOL0     H30214   3.362   6.425   8.691 -2.3780 -4.2964 -0.7323
  229MOL0     H30215   3.554   6.385   8.840 -0.0749 -2.9744 -1.6710
  229MOL0     H30216   3.753   6.373   9.241 -2.4746  0.5932  1.0998
  229MOL0     H30217   3.955   6.304   9.372 -0.3282  0.4797 -0.7909
  229MOL0     H30218   4.074   6.028   9.407  1.2276  0.9451 -0.0589
  229MOL0     H30219   4.056   5.901   9.525 -0.1094  0.2453  2.1415
  229MOL0     H30220   4.154   6.114   9.683 -2.3110  0.6197 -1.0475
  229MOL0     H30221   4.248   5.988   9.609  1.4161 -0.4594 -1.6386
  229MOL0     H30222   4.171   6.243   9.473  0.8002  1.7781  0.3902
  229MOL0     H30223   4.292   6.117   9.408  1.9063  2.0361 -1.0777
  229MOL0     H30224   4.388   6.328   9.476 -2.1366  1.8630  0.0274
  229MOL0     H30225   4.315   6.321   9.639  0.9260 -1.7502  0.6724
  229MOL0     H30226   4.680   6.090   9.687 -1.5860 -2.4963  0.8452
  229MOL0     H30227   3.753   5.945   9.477 -1.3515  0.5761  1.2649
  229MOL0     H30228   3.564   5.990   9.323 -0.5330  0.1344  1.8939
  230MOL0     O30229   4.341   6.318   8.056  0.4233 -0.0677 -0.5042
  230MOL0     C30230   4.311   6.203   8.092  0.2345 -1.4780  0.3200
  230MOL0     O30231   4.390   6.111   8.143 -0.3038  0.3522  0.5364
  230MOL0     C30232   4.530   6.098   8.126  0.5595  0.9189  1.2799
  230MOL0     C30233   4.596   6.196   8.059 -0.6432  0.5968 -0.5376
  230MOL0     C30234   4.740   6.182   8.024 -0.3400 -0.1369 -0.6787
  230MOL0     C30235   4.816   6.079   8.071  0.6639  0.2279  0.0516
  230MOL0     O30236   4.949   6.065   8.046  0.4371 -0.3754  0.0878
  230MOL0     C30237   5.039   6.172   8.081 -0.5907  0.1196 -1.0359
  230MOL0     C30238   5.172   6.115   8.118  0.0418 -1.1047  1.2961
  230MOL0     C30239   5.168   6.050   8.254  0.2874  0.6729  0.3964
  230MOL0     C30240   5.309   6.013   8.295  0.1884 -0.6561  0.1859
  230MOL0     C30241   5.305   5.981   8.448 -0.4514  0.2543  0.3435
  230MOL0     C30242   5.238   5.848   8.484 -0.2055 -0.0739 -0.1565
  230MOL0     C30243   5.255   5.811   8.635  1.1670  0.3981  0.5704
  230MOL0     C30244   5.218   5.654   8.637  0.6473 -0.0142  0.1411
  230MOL0     N30245   5.102   5.615   8.566  0.3225  0.6165 -0.3421
  230MOL0     C30246   5.091   5.560   8.436 -0.3931 -0.4172 -0.2017
  230MOL0     C30247   4.959   5.527   8.421 -0.2018 -0.6335  0.3813
  230MOL0     C30248   4.922   5.457   8.294  0.3884 -0.7251  0.2965
  230MOL0     C30249   4.774   5.407   8.288  0.1513 -0.2783 -0.2342
  230MOL0     C30250   4.686   5.519   8.224  0.2171 -0.0897  0.3350
  230MOL0     C30251   4.539   5.475   8.216 -0.7495 -0.6480 -0.0712
  230MOL0     O30252   4.494   5.428   8.348 -0.1286 -0.6220  0.0648
  230MOL0     C30253   4.363   5.384   8.358  0.1640  0.2479  1.1091
  230MOL0     C30254   4.268   5.404   8.259 -0.0709  0.3230 -0.0537
  230MOL0     C30255   4.142   5.352   8.256  0.1905  0.1091  0.0615
  230MOL0     C30256   4.104   5.270   8.363  0.1951 -0.0959  0.8286
  230MOL0     C30257   3.979   5.202   8.355  0.0320  0.4592 -0.6493
  230MOL0     O30258   3.908   5.182   8.235  0.6111  0.0074 -0.9990
  230MOL0     C30259   3.784   5.114   8.247  0.0570  0.1643  0.1995
  230MOL0     C30260   3.677   5.176   8.186  0.2348  0.0049 -0.0643
  230MOL0     C30261   3.549   5.128   8.207 -0.6100  0.1666 -0.4059
  230MOL0     C30262   3.530   5.009   8.280 -0.5487 -0.7332  0.3897
  230MOL0     O30263   3.401   4.975   8.280 -0.0292 -0.7928  0.2627
  230MOL0     C30264   3.361   4.893   8.383  0.3380 -0.0564  0.0981
  230MOL0     C30265   3.222   4.834   8.333  0.1505  0.1806  0.3054
  230MOL0     C30266   3.230   4.688   8.287  0.7251 -1.1888 -0.6217
  230MOL0     C30267   3.336   4.669   8.181  0.4318 -0.3242  0.2037
  230MOL0     C30268   3.411   4.529   8.178  1.1366  0.1723 -0.5374
  230MOL0     C30269   3.496   4.523   8.056 -0.5118  0.0841  0.2020
  230MOL0     C30270   3.558   4.386   8.055  0.4388 -0.0725 -1.2166
  230MOL0     C30271   3.650   4.377   7.928 -0.2372 -0.3162 -0.5745
  230MOL0    Cl30272   3.561   4.379   7.766  0.1222 -0.0139 -0.6530
  230MOL0     C30273   3.638   4.939   8.336  0.3283 -0.5334 -0.8664
  230MOL0     C30274   3.772   4.992   8.311  0.1457 -0.2407  0.3236
  230MOL0     O30275   3.943   5.163   8.465  0.8146 -0.2436 -0.3187
  230MOL0     C30276   4.192   5.250   8.467 -0.2538  0.3304  0.2437
  230MOL0     C30277   4.321   5.311   8.467  0.9840 -0.4492 -0.2665
  230MOL0     N30278   4.893   5.568   8.534 -0.0825  0.1229 -0.5066
  230MOL0     N30279   4.977   5.624   8.612 -0.3102  0.0907 -0.2818
  230MOL0     C30280   4.741   5.983   8.136 -0.5259 -0.6348 -1.3801
  230MOL0     C30281   4.605   5.983   8.170  0.0540  0.2045  0.4056
  230MOL0     C30282   4.170   6.175   8.091 -0.5062  0.0100 -0.4155
  230MOL0     C30283   4.122   6.058   8.150 -0.1652  0.0057  0.2911
  230MOL0     C30284   3.992   6.033   8.154  0.4697  0.2867  0.1967
  230MOL0     C30285   3.899   6.118   8.106 -0.2984  0.1184  0.3850
  230MOL0     O30286   3.764   6.085   8.127 -0.4685 -1.1368  0.3255
  230MOL0     C30287   3.654   6.156   8.071 -0.1629  0.7394  0.4961
  230MOL0     C30288   3.516   6.105   8.114 -0.4315 -0.0419 -0.0955
  230MOL0     C30289   3.466   5.981   8.029 -0.9576  0.5297 -0.5736
  230MOL0     C30290   3.331   5.936   8.068  0.6659  0.4561 -0.0754
  230MOL0     C30291   3.221   6.033   8.092 -0.6970 -0.4980  0.3226
  230MOL0     C30292   3.121   6.101   8.084 -0.2845 -0.7657  0.8788
  230MOL0     C30293   3.939   6.238   8.041  0.0938  0.3805 -0.2353
  230MOL0     C30294   4.069   6.270   8.035  0.2715  0.2292  0.2333
  230MOL0     H30295   4.556   6.289   8.020  0.5256  2.3529  2.2028
  230MOL0     H30296   4.798   6.253   7.966  1.5703  1.2963  2.6758
  230MOL0     H30297   4.995   6.230   8.164 -1.9167  0.8805 -2.2303
  230MOL0     H30298   5.050   6.236   7.994  2.7247 -0.4264 -1.1200
  230MOL0     H30299   5.242   6.198   8.128 -2.6788  1.7559 -1.3033
  230MOL0     H30300   5.206   6.041   8.046  1.8531 -0.5342  1.5144
  230MOL0     H30301   5.108   5.959   8.246  1.7569 -0.1570 -2.5093
  230MOL0     H30302   5.131   6.124   8.325  0.5854 -0.3810  1.6936
  230MOL0     H30303   5.351   5.929   8.240 -1.6443 -2.7251  1.7566
  230MOL0     H30304   5.379   6.096   8.285 -1.1930  0.5905  0.4192
  230MOL0     H30305   5.258   6.060   8.507 -0.8623 -0.2937  0.7526
  230MOL0     H30306   5.411   5.966   8.471 -0.8703 -0.6666  1.8237
  230MOL0     H30307   5.287   5.773   8.419  1.7502  1.1661 -0.2000
  230MOL0     H30308   5.134   5.840   8.453  0.4455 -0.7078 -2.4008
  230MOL0     H30309   5.354   5.831   8.674  1.1883  0.8840  0.2760
  230MOL0     H30310   5.180   5.866   8.693  1.5659  3.6985 -1.7557
  230MOL0     H30311   5.216   5.620   8.741  4.3867 -0.0547  0.3300
  230MOL0     H30312   5.306   5.602   8.599  1.2102  0.7402  0.3651
  230MOL0     H30313   5.170   5.527   8.370 -1.2348  0.9712 -2.0055
  230MOL0     H30314   4.985   5.368   8.282  1.5511 -0.3458  2.8165
  230MOL0     H30315   4.940   5.529   8.214  0.4249  0.4492  1.3361
  230MOL0     H30316   4.731   5.402   8.389 -2.4227 -1.5539 -1.2922
  230MOL0     H30317   4.771   5.311   8.236  1.5439  0.2477 -1.3506
  230MOL0     H30318   4.682   5.609   8.287 -1.5006  1.1332 -1.4181
  230MOL0     H30319   4.713   5.535   8.120 -0.9991  2.8619  0.3588
  230MOL0     H30320   4.531   5.398   8.140  0.9845 -0.6002 -0.3374
  230MOL0     H30321   4.479   5.560   8.184  0.0181 -0.9891 -2.5748
  230MOL0     H30322   4.290   5.462   8.171  0.3403  0.0636 -0.1249
  230MOL0     H30323   4.067   5.372   8.180 -2.3038  3.1117  3.0209
  230MOL0     H30324   3.680   5.271   8.133  2.5936 -0.0731 -0.1602
  230MOL0     H30325   3.470   5.187   8.164  1.0982  1.6175 -1.7031
  230MOL0     H30326   3.350   4.959   8.469  1.0974 -1.7731  1.5741
  230MOL0     H30327   3.425   4.804   8.388 -0.5836 -0.8522 -1.3559
  230MOL0     H30328   3.176   4.903   8.262 -2.4354  2.2932  3.6915
  230MOL0     H30329   3.150   4.835   8.416  0.0298  1.4647  0.2010
  230MOL0     H30330   3.129   4.658   8.258 -0.0183 -1.1155  1.7094
  230MOL0     H30331   3.249   4.624   8.373  0.0680  1.5402  1.6869
  230MOL0     H30332   3.291   4.680   8.082  3.6075  0.2834 -1.3215
  230MOL0     H30333   3.411   4.749   8.181 -1.6083  1.7253  1.6865
  230MOL0     H30334   3.338   4.448   8.166  1.3014 -0.1056  0.3263
  230MOL0     H30335   3.456   4.516   8.277 -0.9852  0.7447  0.5608
  230MOL0     H30336   3.562   4.610   8.052  0.8910 -0.8789  1.2340
  230MOL0     H30337   3.437   4.522   7.964  2.0065  3.4233 -1.6196
  230MOL0     H30338   3.617   4.374   8.146 -2.9399  2.0346  1.4994
  230MOL0     H30339   3.486   4.304   8.044  0.5254 -1.0662  3.6549
  230MOL0     H30340   3.724   4.298   7.935  2.0565  1.4041 -3.2243
  230MOL0     H30341   3.722   4.460   7.923 -2.1267  1.3408 -1.7255
  230MOL0     H30342   3.619   4.844   8.385 -0.9719  0.5367  0.7912
  230MOL0     H30343   3.853   4.953   8.371 -1.2102 -0.1490  2.2972
  230MOL0     H30344   4.148   5.197   8.550 -1.2907  0.4972 -0.1847
  230MOL0     H30345   4.378   5.294   8.558 -1.6388 -3.3537  1.0142
  230MOL0     H30346   4.806   5.905   8.173  2.7519  3.1723  1.7850
  230MOL0     H30347   4.560   5.914   8.240 -1.1983  1.8458  1.3032
  230MOL0     H30348   4.194   5.993   8.200 -0.7199 -0.4556  0.4906
  230MOL0     H30349   3.949   5.955   8.215  0.3339  0.4018  0.2482
  230MOL0     H30350   3.676   6.148   7.964  1.2121 -0.2215  0.8299
  230MOL0     H30351   3.663   6.263   8.093  0.5201  0.9230 -0.5931
  230MOL0     H30352   3.514   6.097   8.223 -0.6483  4.3480  0.4155
  230MOL0     H30353   3.446   6.187   8.095 -1.6896 -0.7673  1.2872
  230MOL0     H30354   3.542   5.904   8.045  1.7238  2.6759 -1.9774
  230MOL0     H30355   3.479   6.008   7.924  0.6131  1.2538 -0.2338
  230MOL0     H30356   3.280   5.873   7.995 -5.1232  3.5906  0.6903
  230MOL0     H30357   3.332   5.877   8.159  0.1433  0.1271 -0.2781
  230MOL0     H30358   3.036   6.153   8.046 -1.4274 -3.1774 -0.0601
  230MOL0     H30359   3.866   6.306   8.000  0.2255  0.5902 -0.1283
  230MOL0     H30360   4.091   6.363   7.984 -2.3829  2.5627  2.9324
  231MOL0     O30361   3.418   2.458   1.393 -0.5548  0.6472  0.9120
  231MOL0     C30362   3.455   2.544   1.318  0.5301 -0.4694  0.2790
  231MOL0     O30363   3.377   2.604   1.228 -0.5346  0.4009 -0.4295
  231MOL0     C30364   3.258   2.550   1.189  0.0943  1.0562 -0.4671
  231MOL0     C30365   3.213   2.566   1.057  0.0765  0.4669 -0.7584
  231MOL0     C30366   3.086   2.540   1.018 -0.2546  0.9560 -0.3838
  231MOL0     C30367   2.983   2.502   1.113 -0.1015 -0.3706  0.7150
  231MOL0     O30368   2.853   2.466   1.078 -0.5193 -0.3044 -0.3304
  231MOL0     C30369   2.791   2.538   0.965 -0.2663  0.2097  0.4896
  231MOL0     C30370   2.652   2.477   0.941  0.0417 -0.5638  0.4599
  231MOL0     C30371   2.567   2.494   1.065 -0.0562  0.6132  0.3324
  231MOL0     C30372   2.423   2.455   1.027  1.0970 -0.1369 -0.5839
  231MOL0     C30373   2.323   2.538   1.118  0.3137  0.6156  0.4247
  231MOL0     C30374   2.184   2.506   1.049  0.8066  1.1461 -0.5357
  231MOL0     C30375   2.064   2.587   1.119 -0.1108  0.1861 -0.1321
  231MOL0     C30376   2.041   2.729   1.062  0.1166 -0.4064  0.8679
  231MOL0     N30377   2.021   2.735   0.913 -0.2883  0.7990 -0.0290
  231MOL0     C30378   2.089   2.816   0.823  0.1966  0.4704 -0.6678
  231MOL0     C30379   2.018   2.800   0.715  0.5389 -0.1818 -0.3849
  231MOL0     C30380   2.037   2.885   0.584  0.1282 -0.1822 -0.6250
  231MOL0     C30381   2.186   2.872   0.548  0.5809 -0.9138  0.0814
  231MOL0     C30382   2.222   2.947   0.414  0.4088  0.3082  0.6108
  231MOL0     C30383   2.346   2.891   0.333  0.7029  0.4141 -0.2580
  231MOL0     O30384   2.345   2.962   0.206 -0.2190  0.7409 -0.3640
  231MOL0     C30385   2.456   2.966   0.120 -0.6394 -0.4053  0.8236
  231MOL0     C30386   2.572   2.891   0.145 -0.1850  0.6215 -0.1142
  231MOL0     C30387   2.677   2.889   0.054  0.4034  0.4874 -0.4868
  231MOL0     C30388   2.658   2.958  -0.064 -0.6904  0.0854 -0.2529
  231MOL0     C30389   2.773   2.961  -0.159  0.8391  0.0874  0.4652
  231MOL0     O30390   2.752   3.038  -0.263 -0.3354  0.0971 -0.0405
  231MOL0     C30391   2.849   3.070  -0.352  0.0149  0.5050 -0.2848
  231MOL0     C30392   2.810   3.131  -0.470 -0.0162 -0.3205 -0.9690
  231MOL0     C30393   2.886   3.158  -0.577 -0.9474 -0.3225 -0.3970
  231MOL0     C30394   3.030   3.133  -0.567  0.0726  0.6869 -0.8261
  231MOL0     O30395   3.112   3.160  -0.675  0.4894 -0.7063  0.0281
  231MOL0     C30396   3.077   3.282  -0.750 -0.9200  0.8041  0.0738
  231MOL0     C30397   3.017   3.245  -0.884 -0.0224  0.1013  0.6846
  231MOL0     C30398   2.991   3.372  -0.974  0.4344  1.0403 -0.0976
  231MOL0     C30399   2.879   3.348  -1.074  0.0910 -0.4597  0.2448
  231MOL0     C30400   2.737   3.402  -1.029  0.3568 -0.4021  0.5098
  231MOL0     C30401   2.688   3.348  -0.896  0.1162 -0.0503 -0.6225
  231MOL0     C30402   2.534   3.352  -0.895  0.0713  0.8208  0.7115
  231MOL0     C30403   2.494   3.493  -0.847  0.3902 -0.0476  0.4386
  231MOL0    Cl30404   2.314   3.502  -0.822 -0.0340  0.1570  0.3364
  231MOL0     C30405   3.074   3.064  -0.452  0.1456  0.4124  0.1300
  231MOL0     C30406   2.991   3.046  -0.342 -0.6705 -0.0039  0.1402
  231MOL0     O30407   2.869   2.887  -0.137  0.5398 -0.3766  0.4355
  231MOL0     C30408   2.543   3.031  -0.092 -0.4879 -0.2067  0.2301
  231MOL0     C30409   2.446   3.042   0.005 -0.2858  0.1830 -0.4249
  231MOL0     N30410   1.917   2.716   0.733 -0.9830  1.1095  0.5906
  231MOL0     N30411   1.919   2.667   0.849 -0.0306 -0.0929  0.7056
  231MOL0     C30412   3.023   2.486   1.251  0.0733 -0.3678  0.9056
  231MOL0     C30413   3.158   2.504   1.285 -0.6860 -0.3841  0.1289
  231MOL0     C30414   3.597   2.595   1.325  0.4430 -0.5328  0.2428
  231MOL0     C30415   3.691   2.523   1.409  0.5610 -0.1767  0.0976
  231MOL0     C30416   3.821   2.570   1.414 -1.1144  0.2636 -1.0281
  231MOL0     C30417   3.869   2.684   1.346  0.3066  0.3360  0.1911
  231MOL0     O30418   4.000   2.742   1.355  0.6364  0.3981  0.4110
  231MOL0     C30419   4.096   2.669   1.424 -0.2588  0.1854 -0.7732
  231MOL0     C30420   4.234   2.683   1.345  0.0019  1.5260 -0.0258
  231MOL0     C30421   4.235   2.663   1.195  0.4229 -0.2611  0.1609
  231MOL0     C30422   4.371   2.704   1.137 -0.5707 -0.6109 -0.7834
  231MOL0     C30423   4.494   2.647   1.211 -1.1944 -0.4642  0.3156
  231MOL0     C30424   4.588   2.581   1.263  0.5540 -1.0844  0.0985
  231MOL0     C30425   3.773   2.758   1.264 -0.0984 -0.5296  0.5018
  231MOL0     C30426   3.648   2.705   1.251 -0.6519 -0.1393 -0.1851
  231MOL0     H30427   3.291   2.605   0.992  2.3682 -0.3142  1.3586
  231MOL0     H30428   3.060   2.565   0.916 -0.8009  2.0280  0.0077
  231MOL0     H30429   2.847   2.515   0.873 -0.0665 -0.6747  0.8224
  231MOL0     H30430   2.797   2.646   0.983  0.1770  0.2189  0.3036
  231MOL0     H30431   2.654   2.377   0.898  0.3546  0.5153 -2.2488
  231MOL0     H30432   2.610   2.533   0.857  1.7713 -1.2722 -0.9226
  231MOL0     H30433   2.569   2.600   1.091 -2.7945  0.7135  0.4266
  231MOL0     H30434   2.599   2.436   1.153  2.5705 -0.6847 -1.3365
  231MOL0     H30435   2.408   2.497   0.927 -3.5182 -0.0023 -0.0690
  231MOL0     H30436   2.399   2.349   1.025 -1.5243  0.3762 -0.6360
  231MOL0     H30437   2.355   2.638   1.086  2.0619 -0.2700 -0.8129
  231MOL0     H30438   2.337   2.520   1.225  0.6971  0.3388  0.3298
  231MOL0     H30439   2.146   2.404   1.064 -3.1937  2.5910  0.5812
  231MOL0     H30440   2.185   2.527   0.942 -1.8889  1.5715 -0.5559
  231MOL0     H30441   1.976   2.523   1.105  0.1084 -1.1767  3.6499
  231MOL0     H30442   2.077   2.595   1.227  1.8389  3.8802 -0.4738
  231MOL0     H30443   2.117   2.800   1.095 -3.6821  4.4428  0.4079
  231MOL0     H30444   1.949   2.767   1.110 -0.0396  0.7396 -0.2986
  231MOL0     H30445   2.177   2.880   0.829  1.3780 -1.1218 -0.1746
  231MOL0     H30446   1.998   2.986   0.595 -2.0477 -1.0419 -0.0392
  231MOL0     H30447   1.964   2.844   0.514 -1.3914  0.8318  0.3267
  231MOL0     H30448   2.211   2.766   0.536  1.1553 -0.8804  0.8523
  231MOL0     H30449   2.248   2.924   0.622  1.1674 -1.1009 -0.2726
  231MOL0     H30450   2.142   2.923   0.344  1.9654  2.0010 -1.9366
  231MOL0     H30451   2.235   3.056   0.422  2.2997  0.1326  0.3546
  231MOL0     H30452   2.325   2.785   0.320  1.9477  0.2259 -0.8546
  231MOL0     H30453   2.445   2.893   0.380 -0.6102 -0.3661  2.8028
  231MOL0     H30454   2.589   2.835   0.236  1.8837  1.0942 -0.1784
  231MOL0     H30455   2.768   2.836   0.078 -0.9774 -1.3797  0.9147
  231MOL0     H30456   2.705   3.155  -0.484 -0.1092  0.2983  0.5714
  231MOL0     H30457   2.849   3.201  -0.670  1.2575 -0.3039 -1.3263
  231MOL0     H30458   3.172   3.334  -0.769  0.3362 -0.1141  3.1596
  231MOL0     H30459   3.013   3.347  -0.690  1.1259  1.0530  2.1545
  231MOL0     H30460   2.925   3.194  -0.854  0.2941  0.8016  3.0674
  231MOL0     H30461   3.075   3.177  -0.946  0.1244 -2.1011  3.0734
  231MOL0     H30462   3.077   3.405  -1.033  0.9192 -1.8643 -1.1999
  231MOL0     H30463   2.957   3.456  -0.913  0.5548 -0.2309  1.8093
  231MOL0     H30464   2.909   3.399  -1.165 -2.7412 -0.3478 -0.7377
  231MOL0     H30465   2.861   3.247  -1.114 -1.7833  0.0729 -0.3867
  231MOL0     H30466   2.668   3.382  -1.112  4.2749  0.4938 -3.3061
  231MOL0     H30467   2.746   3.511  -1.023  0.2106 -0.2872 -0.9051
  231MOL0     H30468   2.720   3.409  -0.811 -4.5530  1.9955 -0.0373
  231MOL0     H30469   2.702   3.242  -0.873 -2.1574  0.1877  2.5142
  231MOL0     H30470   2.484   3.328  -0.989  1.8567 -2.0730  0.3706
  231MOL0     H30471   2.506   3.276  -0.821  1.9606  0.2072  0.8550
  231MOL0     H30472   2.527   3.559  -0.927  0.0690 -1.6573 -1.0777
  231MOL0     H30473   2.540   3.511  -0.749  0.9984 -0.5527  0.2521
  231MOL0     H30474   3.179   3.040  -0.436 -0.2416 -2.5739 -1.0218
  231MOL0     H30475   3.047   3.007  -0.258  2.4250 -0.3523 -1.9429
  231MOL0     H30476   2.529   3.087  -0.184  3.5313 -1.3329 -1.2874
  231MOL0     H30477   2.353   3.091  -0.021  0.6653  0.0363 -4.9862
  231MOL0     H30478   2.961   2.426   1.317  1.1440 -1.4120  0.9873
  231MOL0     H30479   3.184   2.485   1.388  0.2716  0.0536 -0.0161
  231MOL0     H30480   3.657   2.438   1.467 -2.6082 -2.2955 -4.2690
  231MOL0     H30481   3.884   2.521   1.487 -0.4731 -1.8101 -2.8580
  231MOL0     H30482   4.068   2.563   1.424  0.0113  0.0855 -2.1928
  231MOL0     H30483   4.101   2.708   1.525  3.8111  0.1110 -0.7757
  231MOL0     H30484   4.260   2.787   1.367 -2.4535  2.0660  0.6102
  231MOL0     H30485   4.311   2.615   1.381  0.7023  0.9650 -2.3564
  231MOL0     H30486   4.160   2.725   1.145  0.3083  0.0636  0.7218
  231MOL0     H30487   4.208   2.559   1.171 -3.2639 -0.1247  2.7950
  231MOL0     H30488   4.369   2.672   1.033  1.9995  0.4002 -1.1986
  231MOL0     H30489   4.382   2.813   1.134  0.1746 -0.7118 -2.0794
  231MOL0     H30490   4.671   2.525   1.301  1.0068 -0.1169  0.5694
  231MOL0     H30491   3.809   2.849   1.218  2.2129  0.1365  3.3250
  231MOL0     H30492   3.575   2.743   1.180  0.1924 -0.0985 -1.0535
  232MOL0     O30493   4.013   0.963   9.711 -0.8235 -0.2439 -0.3905
  232MOL0     C30494   4.052   0.859   9.676  0.3599 -0.5185  0.2726
  232MOL0     O30495   3.987   0.780   9.584 -1.0110  0.1772 -0.0419
  232MOL0     C30496   3.877   0.819   9.511 -0.1166 -0.6757  0.8461
  232MOL0     C30497   3.832   0.712   9.435  0.0233  0.2475  0.0592
  232MOL0     C30498   3.735   0.728   9.335  0.4068 -0.2863 -0.5362
  232MOL0     C30499   3.668   0.857   9.323  0.9849 -0.0754  0.5292
  232MOL0     O30500   3.567   0.893   9.223  0.5511  0.0383 -0.1169
  232MOL0     C30501   3.511   0.780   9.161  0.7313 -0.3336  0.1918
  232MOL0     C30502   3.410   0.829   9.051 -0.3380 -0.3649  0.0157
  232MOL0     C30503   3.298   0.919   9.107  0.8905  0.2433 -0.1571
  232MOL0     C30504   3.181   0.846   9.188 -0.4501 -0.3476 -0.0923
  232MOL0     C30505   3.065   0.950   9.199 -0.5676 -0.2574 -0.1550
  232MOL0     C30506   2.947   0.873   9.258 -1.0363 -0.3624  0.8491
  232MOL0     C30507   2.825   0.967   9.284 -0.9224  0.0877 -0.1918
  232MOL0     C30508   2.727   0.996   9.169  0.0674 -0.4189 -0.0936
  232MOL0     N30509   2.620   1.066   9.232 -0.2115  0.4893 -0.4051
  232MOL0     C30510   2.620   1.193   9.283  0.3863 -0.4479  0.4327
  232MOL0     C30511   2.500   1.208   9.340  0.3237  0.6526 -0.0923
  232MOL0     C30512   2.461   1.338   9.402  0.4746 -0.6166  1.1623
  232MOL0     C30513   2.310   1.366   9.439  0.2194  0.3760  0.2004
  232MOL0     C30514   2.230   1.368   9.304 -0.6241 -0.0852  0.5488
  232MOL0     C30515   2.102   1.443   9.326  0.6293 -0.0038  0.1218
  232MOL0     O30516   2.022   1.357   9.397  0.1501 -0.0366  0.5500
  232MOL0     C30517   1.905   1.404   9.444  0.3343  0.4971  0.1355
  232MOL0     C30518   1.790   1.424   9.359 -0.5137 -0.7880 -0.3573
  232MOL0     C30519   1.668   1.477   9.418  0.3888  0.3987  0.3993
  232MOL0     C30520   1.673   1.510   9.553  1.0679 -0.4129 -0.7659
  232MOL0     C30521   1.546   1.552   9.619 -0.4011  0.4187 -1.1788
  232MOL0     O30522   1.550   1.549   9.758  0.1204 -0.0325  1.0091
  232MOL0     C30523   1.436   1.580   9.827 -0.9552  0.4726  0.5712
  232MOL0     C30524   1.440   1.661   9.937 -0.2215  0.8904  0.6602
  232MOL0     C30525   1.329   1.674  10.019 -0.5304 -0.0738  1.1983
  232MOL0     C30526   1.206   1.605   9.984  0.0743 -0.6673  0.0213
  232MOL0     O30527   1.098   1.621  10.070 -0.2494 -0.1057 -1.2337
  232MOL0     C30528   0.968   1.673  10.020 -0.2858 -0.6183 -0.2608
  232MOL0     C30529   0.973   1.775   9.916  0.1198  0.5021  0.4034
  232MOL0     C30530   0.833   1.826   9.912 -0.9150 -0.1468  0.6105
  232MOL0     C30531   0.836   1.952   9.827  0.3121 -0.1701  0.4032
  232MOL0     C30532   0.776   1.924   9.682  0.9449 -0.6156 -0.6178
  232MOL0     C30533   0.783   2.052   9.600 -0.7494  0.0105 -0.6995
  232MOL0     C30534   0.753   2.035   9.455  0.1357  0.4896  0.1313
  232MOL0     C30535   0.747   2.166   9.377  0.8747  0.8610  0.7855
  232MOL0    Cl30536   0.684   2.137   9.224  0.0141 -0.0157  0.1886
  232MOL0     C30537   1.203   1.530   9.864 -0.0059 -0.0376 -0.0043
  232MOL0     C30538   1.320   1.508   9.800 -0.8323  0.3649  0.3287
  232MOL0     O30539   1.449   1.584   9.556  0.5607  0.7503  0.3647
  232MOL0     C30540   1.786   1.493   9.634 -1.0104  0.4961  0.8868
  232MOL0     C30541   1.899   1.440   9.582 -0.3478 -0.1332 -0.4425
  232MOL0     N30542   2.426   1.093   9.330  0.1201 -0.1884  0.2363
  232MOL0     N30543   2.501   1.005   9.267 -1.3102 -1.0232 -0.8707
  232MOL0     C30544   3.702   0.957   9.409 -0.5164 -0.3328 -0.7732
  232MOL0     C30545   3.809   0.948   9.502  0.1557 -0.7234 -0.8876
  232MOL0     C30546   4.164   0.797   9.746  0.4058 -0.0897  0.4243
  232MOL0     C30547   4.231   0.679   9.707 -1.3625  0.7048 -0.2875
  232MOL0     C30548   4.336   0.630   9.786  0.1236  0.2657  0.2032
  232MOL0     C30549   4.389   0.695   9.900 -0.5005 -1.2215  0.1930
  232MOL0     O30550   4.495   0.657   9.978 -0.6509  0.6738 -0.4377
  232MOL0     C30551   4.572   0.548   9.929 -0.3080  0.9570  0.3908
  232MOL0     C30552   4.666   0.491  10.034  0.4496  0.5724 -0.3209
  232MOL0     C30553   4.590   0.465  10.170  0.6887  0.2335 -0.6404
  232MOL0     C30554   4.688   0.423  10.294  0.8747 -0.1980 -0.1679
  232MOL0     C30555   4.766   0.304  10.272 -0.1037  0.3297  0.9677
  232MOL0     C30556   4.807   0.198  10.225 -0.3370 -0.2146 -0.2588
  232MOL0     C30557   4.324   0.816   9.937  0.2612 -0.2170  0.0792
  232MOL0     C30558   4.216   0.859   9.863  1.4044 -0.2961  0.2841
  232MOL0     H30559   3.887   0.619   9.448 -0.5660  0.1288  2.1112
  232MOL0     H30560   3.703   0.643   9.276 -0.6830  1.5695 -2.7707
  232MOL0     H30561   3.462   0.706   9.226 -1.1550 -1.3454 -2.2378
  232MOL0     H30562   3.596   0.738   9.107  1.5847 -2.1980  2.7906
  232MOL0     H30563   3.363   0.742   9.004  0.0487 -0.4624 -0.1881
  232MOL0     H30564   3.458   0.890   8.974 -3.1499  1.6689 -0.2959
  232MOL0     H30565   3.254   0.968   9.020 -2.0850 -1.6831  0.1354
  232MOL0     H30566   3.337   0.995   9.176 -4.2447  0.7144  2.8180
  232MOL0     H30567   3.145   0.757   9.135 -2.1289 -0.8666  1.7844
  232MOL0     H30568   3.214   0.823   9.290 -2.1741  2.6649  1.2872
  232MOL0     H30569   3.037   0.978   9.097 -5.3152 -0.8147  0.7773
  232MOL0     H30570   3.082   1.039   9.261 -1.5994 -0.5978  0.6214
  232MOL0     H30571   2.986   0.824   9.347  1.5580  0.7727  0.4200
  232MOL0     H30572   2.909   0.808   9.179  3.1310  0.6786 -2.3839
  232MOL0     H30573   2.771   0.931   9.372  0.6512 -0.3840  0.6104
  232MOL0     H30574   2.869   1.063   9.309  1.1339 -0.5856 -1.0017
  232MOL0     H30575   2.700   0.901   9.122 -2.0550  0.0842  0.0188
  232MOL0     H30576   2.775   1.055   9.090 -0.9565 -2.1850 -2.1491
  232MOL0     H30577   2.700   1.264   9.269 -1.0514  0.8856 -1.5966
  232MOL0     H30578   2.490   1.419   9.335 -3.7498  0.9775  0.9696
  232MOL0     H30579   2.512   1.350   9.498 -0.8154  2.2123  1.5827
  232MOL0     H30580   2.313   1.465   9.485  0.6821  0.3279  0.2773
  232MOL0     H30581   2.272   1.294   9.512  0.3517  0.6480  0.5433
  232MOL0     H30582   2.302   1.411   9.234 -0.6765  0.5330  0.8599
  232MOL0     H30583   2.209   1.267   9.271 -2.5321  0.8125 -1.1795
  232MOL0     H30584   2.053   1.473   9.232  0.2227 -0.6970  0.1054
  232MOL0     H30585   2.122   1.533   9.384  1.0577 -1.0153  1.5791
  232MOL0     H30586   1.792   1.408   9.252 -0.0728  2.1762 -0.8909
  232MOL0     H30587   1.581   1.499   9.357 -0.0837  1.2161  1.3525
  232MOL0     H30588   1.537   1.699   9.967  0.4276  0.7858 -1.1815
  232MOL0     H30589   1.347   1.731  10.110  1.4751 -0.8220  1.3243
  232MOL0     H30590   0.918   1.711  10.109 -0.2802 -0.3583 -0.3662
  232MOL0     H30591   0.915   1.584   9.987  0.1727 -0.8409 -0.4040
  232MOL0     H30592   0.986   1.723   9.820 -0.3065  2.3088 -0.6682
  232MOL0     H30593   1.050   1.851   9.933  0.3613  0.3031  0.2234
  232MOL0     H30594   0.799   1.837  10.015  1.6378 -1.3838  1.6672
  232MOL0     H30595   0.781   1.743   9.863 -0.9229  1.5536 -2.5370
  232MOL0     H30596   0.766   2.024   9.870 -1.0297 -1.0511 -0.2345
  232MOL0     H30597   0.937   1.995   9.819  0.2134 -0.0041  0.0227
  232MOL0     H30598   0.670   1.909   9.702  1.1467 -0.0133  1.0062
  232MOL0     H30599   0.812   1.839   9.622  1.2770  0.2195 -1.6358
  232MOL0     H30600   0.878   2.105   9.612 -0.3770 -0.8379  0.1938
  232MOL0     H30601   0.712   2.128   9.633  0.0478  1.1369 -1.4790
  232MOL0     H30602   0.833   1.972   9.417 -0.5352 -1.4930  1.8187
  232MOL0     H30603   0.657   1.988   9.432  0.4235  0.0026 -0.0704
  232MOL0     H30604   0.851   2.199   9.373  1.7562 -1.8220 -1.7927
  232MOL0     H30605   0.679   2.231   9.433 -0.1825  0.2425  0.2435
  232MOL0     H30606   1.112   1.480   9.833 -0.1886 -1.2255  2.3060
  232MOL0     H30607   1.307   1.447   9.711  0.4005  3.1646 -1.9242
  232MOL0     H30608   1.799   1.527   9.736  3.9536  1.4905  0.1798
  232MOL0     H30609   1.980   1.426   9.653  0.4449  1.4325 -0.9816
  232MOL0     H30610   3.638   1.044   9.398 -0.8923 -0.5172 -0.0845
  232MOL0     H30611   3.846   1.037   9.552 -0.9735  1.8925 -4.3518
  232MOL0     H30612   4.222   0.625   9.614  4.5283  1.1161 -1.4351
  232MOL0     H30613   4.375   0.535   9.748 -0.3895 -0.5266  1.5882
  232MOL0     H30614   4.632   0.589   9.848  3.5772 -0.7604  2.1426
  232MOL0     H30615   4.509   0.463   9.900  1.1185  0.8094 -2.7325
  232MOL0     H30616   4.718   0.403   9.995 -1.3978 -1.5424  1.6708
  232MOL0     H30617   4.743   0.566  10.056  0.9420  0.5366 -1.8460
  232MOL0     H30618   4.514   0.386  10.164 -0.4237  1.1330  0.8516
  232MOL0     H30619   4.540   0.558  10.197 -2.9731 -1.3180 -1.4065
  232MOL0     H30620   4.743   0.511  10.329 -1.7497  0.6459  2.2925
  232MOL0     H30621   4.624   0.412  10.382  2.7947 -1.2635  1.1625
  232MOL0     H30622   4.844   0.106  10.184  0.1120 -0.0465 -0.2435
  232MOL0     H30623   4.359   0.870  10.024 -3.3104  0.9858  0.9608
  232MOL0     H30624   4.174   0.958   9.881  0.1746 -0.8088  0.3179
  233MOL0     O30625   1.053  11.198   2.035  0.6192 -0.6338  0.1899
  233MOL0     C30626   1.059  11.277   1.935 -0.0501  0.8341 -0.1778
  233MOL0     O30627   0.960  11.358   1.888 -0.1908  0.2123  0.1807
  233MOL0     C30628   0.849  11.396   1.967 -0.3118  0.0504 -0.6784
  233MOL0     C30629   0.726  11.401   1.898 -0.3577 -0.9654  0.1129
  233MOL0     C30630   0.613  11.457   1.961 -0.4059  0.2387 -0.0612
  233MOL0     C30631   0.613  11.494   2.099 -0.7495 -0.2088  0.1008
  233MOL0     O30632   0.497  11.549   2.162  0.5239  0.4311 -0.0073
  233MOL0     C30633   0.400  11.616   2.082 -0.3045 -0.4355  0.2973
  233MOL0     C30634   0.336  11.743   2.151  0.0914 -0.2871  0.4007
  233MOL0     C30635   0.273  11.717   2.294 -0.4426  0.0561 -0.0666
  233MOL0     C30636   0.216  11.842   2.349 -0.4725 -0.1931  0.4331
  233MOL0     C30637   0.176  11.828   2.499 -0.6564  0.4874  1.4532
  233MOL0     C30638   0.085  11.710   2.518 -0.2123  0.2404 -0.3423
  233MOL0     C30639   0.068  11.675   2.664 -0.0604  0.2963 -1.6686
  233MOL0     C30640  -0.061  11.582   2.682 -0.5947 -0.6490 -0.2247
  233MOL0     N30641  -0.091  11.566   2.822  0.4974  0.0793 -0.5441
  233MOL0     C30642  -0.029  11.499   2.919 -0.2692 -0.5713  1.1947
  233MOL0     C30643  -0.094  11.535   3.037  0.8363  1.0468 -0.9495
  233MOL0     C30644  -0.058  11.483   3.184 -0.0664  0.0995 -0.0376
  233MOL0     C30645   0.032  11.571   3.271 -0.2057 -0.2440 -0.2446
  233MOL0     C30646   0.027  11.530   3.422 -0.0239  0.4754  0.1428
  233MOL0     C30647  -0.116  11.531   3.492 -0.2789 -0.3453  0.7070
  233MOL0     O30648  -0.195  11.641   3.439 -0.3088  0.4250  0.1382
  233MOL0     C30649  -0.314  11.662   3.509 -0.5845 -0.7205  0.2673
  233MOL0     C30650  -0.427  11.683   3.415  0.6470 -0.5068  0.3086
  233MOL0     C30651  -0.545  11.729   3.475 -0.2924  0.8094 -0.1935
  233MOL0     C30652  -0.564  11.746   3.618  0.3919  0.3276 -0.3493
  233MOL0     C30653  -0.694  11.790   3.678 -0.0642  0.2373  0.1688
  233MOL0     O30654  -0.701  11.787   3.813 -0.0189  0.0786 -0.9361
  233MOL0     C30655  -0.818  11.797   3.881 -0.4495  0.5908 -0.8924
  233MOL0     C30656  -0.822  11.715   3.994  0.1294 -0.0386  0.4708
  233MOL0     C30657  -0.939  11.699   4.064 -0.8376 -0.3965 -0.5035
  233MOL0     C30658  -1.054  11.782   4.032 -0.0346  0.5283  0.2073
  233MOL0     O30659  -1.166  11.774   4.101 -0.9904 -0.2167  0.4461
  233MOL0     C30660  -1.279  11.845   4.064  0.2484 -0.4314  0.0778
  233MOL0     C30661  -1.391  11.821   4.150  0.0573 -0.2364  0.3134
  233MOL0     C30662  -1.523  11.879   4.093  0.1962 -0.0874 -0.4336
  233MOL0     C30663  -1.626  11.914   4.198 -0.0540  0.6667  0.2112
  233MOL0     C30664  -1.765  11.901   4.137 -0.4959  0.0815  0.4078
  233MOL0     C30665  -1.868  11.976   4.221 -0.5907  0.7695 -1.2060
  233MOL0     C30666  -1.941  12.075   4.135  0.5229 -0.4973 -0.1905
  233MOL0     C30667  -2.053  12.133   4.220  0.2156  0.0783  0.1407
  233MOL0    Cl30668  -2.140  12.271   4.138  0.3033 -0.0719 -0.1286
  233MOL0     C30669  -1.046  11.869   3.916 -0.3196  0.4886 -0.5644
  233MOL0     C30670  -0.927  11.876   3.845  0.3208  0.1602  0.0046
  233MOL0     O30671  -0.790  11.793   3.604 -0.3825  0.5749 -0.0509
  233MOL0     C30672  -0.452  11.715   3.698  0.2467 -0.2875 -0.0739
  233MOL0     C30673  -0.329  11.674   3.650 -0.2137  0.0442  0.9602
  233MOL0     N30674  -0.200  11.626   3.010 -0.3219 -0.3996  0.5083
  233MOL0     N30675  -0.192  11.644   2.884 -0.1151  0.9674 -0.6450
  233MOL0     C30676   0.744  11.477   2.168  1.1218  0.5640 -0.6709
  233MOL0     C30677   0.863  11.439   2.101 -0.0544 -0.8364 -0.1710
  233MOL0     C30678   1.200  11.295   1.893  0.0320  0.2003 -0.1372
  233MOL0     C30679   1.240  11.390   1.793 -0.8647 -0.3103  0.1003
  233MOL0     C30680   1.376  11.412   1.763 -0.0335 -0.5426 -0.1008
  233MOL0     C30681   1.473  11.340   1.836  1.0558  0.9077  0.6280
  233MOL0     O30682   1.596  11.380   1.810  0.4422  0.7575 -0.3944
  233MOL0     C30683   1.706  11.337   1.889 -0.3017  0.0853  0.1044
  233MOL0     C30684   1.829  11.429   1.853 -0.6551 -0.1328 -0.3830
  233MOL0     C30685   1.967  11.375   1.911 -0.6168 -0.3507  0.5947
  233MOL0     C30686   2.079  11.489   1.914 -0.1647 -0.5761  0.0589
  233MOL0     C30687   2.160  11.477   1.794  1.2547  0.2709 -1.0781
  233MOL0     C30688   2.234  11.445   1.700  0.4458  0.1548 -1.0311
  233MOL0     C30689   1.436  11.245   1.936 -0.5906 -0.6569  0.4554
  233MOL0     C30690   1.300  11.231   1.957 -0.1257 -0.0438 -0.1294
  233MOL0     H30691   0.713  11.370   1.795  0.1773  0.9429 -0.5680
  233MOL0     H30692   0.517  11.444   1.911 -0.8929  0.5767  0.7651
  233MOL0     H30693   0.324  11.547   2.045  0.6481 -0.0869 -2.5271
  233MOL0     H30694   0.444  11.654   1.989  1.0248 -1.1975  0.5898
  233MOL0     H30695   0.254  11.771   2.085  1.5628 -1.1301 -1.8968
  233MOL0     H30696   0.404  11.826   2.173 -0.4397  0.2605 -0.0011
  233MOL0     H30697   0.348  11.665   2.355 -1.3152 -0.3238  0.7060
  233MOL0     H30698   0.193  11.646   2.271  2.0216 -2.5451 -1.3010
  233MOL0     H30699   0.288  11.923   2.336 -1.5800  0.7414 -0.0130
  233MOL0     H30700   0.129  11.869   2.288 -0.0789  1.8721  0.7124
  233MOL0     H30701   0.129  11.921   2.532 -0.2373  1.0785  0.4033
  233MOL0     H30702   0.258  11.827   2.572 -1.2742  0.8470  2.1679
  233MOL0     H30703   0.146  11.625   2.488 -2.4128 -1.8576  0.7985
  233MOL0     H30704  -0.013  11.721   2.471 -0.4318  0.3939  0.1411
  233MOL0     H30705   0.153  11.628   2.714 -1.0445  0.7797  0.5364
  233MOL0     H30706   0.051  11.765   2.723  1.2985  0.1145 -0.9448
  233MOL0     H30707  -0.054  11.481   2.640 -0.3779  0.5286 -3.3315
  233MOL0     H30708  -0.144  11.636   2.636 -2.4670 -4.1179 -1.3193
  233MOL0     H30709   0.061  11.443   2.894 -0.5738 -1.2104  1.4865
  233MOL0     H30710  -0.014  11.384   3.175 -4.6981 -2.1592 -1.2937
  233MOL0     H30711  -0.151  11.470   3.240  1.8514 -2.1700  2.9471
  233MOL0     H30712   0.019  11.680   3.261  3.1495  0.1791 -1.2353
  233MOL0     H30713   0.134  11.568   3.232 -0.1198  0.6196 -0.1125
  233MOL0     H30714   0.053  11.424   3.423 -0.2546  0.3724 -1.8395
  233MOL0     H30715   0.105  11.583   3.478 -3.0855  1.4690  3.8889
  233MOL0     H30716  -0.112  11.547   3.600  0.4311  1.9026  0.4144
  233MOL0     H30717  -0.152  11.430   3.473  1.7538 -1.2241  1.1870
  233MOL0     H30718  -0.411  11.659   3.311  0.1599 -0.4673  0.2252
  233MOL0     H30719  -0.622  11.741   3.399 -0.8108  1.5606  0.4317
  233MOL0     H30720  -0.731  11.659   4.012  2.0541  2.5815 -0.5045
  233MOL0     H30721  -0.941  11.629   4.147 -3.3119 -0.1385 -0.2811
  233MOL0     H30722  -1.301  11.816   3.961  0.9973 -0.2587 -0.1372
  233MOL0     H30723  -1.255  11.952   4.072  0.2087 -0.4999  1.3473
  233MOL0     H30724  -1.372  11.856   4.252  1.9827 -0.2306 -0.0168
  233MOL0     H30725  -1.405  11.713   4.144  1.1808 -0.4363  1.0139
  233MOL0     H30726  -1.558  11.803   4.022 -1.4125  0.6105 -0.4295
  233MOL0     H30727  -1.517  11.977   4.045 -0.3801 -1.2582 -3.0561
  233MOL0     H30728  -1.604  11.839   4.274  1.1656 -1.9197 -2.4778
  233MOL0     H30729  -1.605  12.011   4.245 -3.2111  1.5464  0.0200
  233MOL0     H30730  -1.796  11.796   4.137 -0.0908 -0.0607  1.9862
  233MOL0     H30731  -1.772  11.942   4.036  1.7848 -0.2062  0.0848
  233MOL0     H30732  -1.819  12.013   4.311  0.1850 -1.8844 -0.4321
  233MOL0     H30733  -1.944  11.908   4.260  1.3914  0.1552  1.9247
  233MOL0     H30734  -1.877  12.157   4.101  2.0482 -1.7547 -0.4647
  233MOL0     H30735  -1.991  12.022   4.054  0.8222 -0.8518 -0.1508
  233MOL0     H30736  -2.007  12.171   4.311 -0.7106  1.7281 -0.0405
  233MOL0     H30737  -2.122  12.052   4.248  0.2228  0.2021  0.5065
  233MOL0     H30738  -1.133  11.925   3.885  0.9955  2.0523 -1.5353
  233MOL0     H30739  -0.944  11.934   3.755 -0.9944 -1.2967 -0.7256
  233MOL0     H30740  -0.467  11.717   3.805  1.3229 -0.1523  0.0884
  233MOL0     H30741  -0.248  11.642   3.715  1.3095  0.8351 -0.4727
  233MOL0     H30742   0.750  11.512   2.270  1.7638 -0.3946 -0.3731
  233MOL0     H30743   0.962  11.448   2.144  1.0499  1.9282 -2.8652
  233MOL0     H30744   1.165  11.458   1.755 -0.2142  0.5305  0.2832
  233MOL0     H30745   1.408  11.491   1.696 -1.7913  0.5100  0.2290
  233MOL0     H30746   1.742  11.238   1.859 -2.3550 -1.1688  1.5208
  233MOL0     H30747   1.694  11.352   1.996  0.5559 -1.4685  0.4601
  233MOL0     H30748   1.848  11.455   1.748  1.5252  5.2757  0.9860
  233MOL0     H30749   1.823  11.521   1.913 -0.4107  0.3033 -1.0193
  233MOL0     H30750   1.990  11.295   1.840 -0.1408 -1.1517  1.6345
  233MOL0     H30751   1.940  11.338   2.010 -2.0927  1.5469  0.9694
  233MOL0     H30752   2.028  11.585   1.921 -0.5574 -0.8053  0.3841
  233MOL0     H30753   2.149  11.480   1.997  2.1230  1.3394 -1.5126
  233MOL0     H30754   2.301  11.416   1.621  1.1676 -1.8787  0.2526
  233MOL0     H30755   1.504  11.187   1.997 -3.6870 -3.3179  1.7043
  233MOL0     H30756   1.290  11.163   2.041  1.0475  0.6447  0.6022
  234MOL0     O30757  11.246   9.928   2.038 -0.3081  1.0206  0.3376
  234MOL0     C30758  11.318   9.879   2.129  0.6838 -0.1835 -0.7520
  234MOL0     O30759  11.274   9.833   2.255  0.1413 -0.1181 -0.7259
  234MOL0     C30760  11.135   9.817   2.272 -0.1594  0.6700  0.5159
  234MOL0     C30761  11.090   9.861   2.397  1.2522 -0.5159  0.4347
  234MOL0     C30762  10.945   9.848   2.427  0.4457 -0.3362  0.0543
  234MOL0     C30763  10.861   9.789   2.335  0.0372  1.0028  0.1257
  234MOL0     O30764  10.728   9.804   2.363 -0.5235  0.1684  0.5066
  234MOL0     C30765  10.635   9.707   2.310 -0.4217  0.9432 -0.4746
  234MOL0     C30766  10.489   9.746   2.354  0.0791  0.5444  0.5493
  234MOL0     C30767  10.398   9.649   2.287  0.6006 -0.4541  0.8227
  234MOL0     C30768  10.259   9.651   2.355 -0.1315  0.9992  0.0566
  234MOL0     C30769  10.151   9.554   2.278 -0.3045 -0.5630  1.0442
  234MOL0     C30770  10.190   9.408   2.263  0.2894  0.0722 -0.1825
  234MOL0     C30771  10.193   9.335   2.398  0.3965 -0.1602 -0.2695
  234MOL0     C30772  10.141   9.184   2.395 -0.3140 -0.7657 -0.4376
  234MOL0     N30773  10.002   9.164   2.389  0.5868  0.9238 -0.5832
  234MOL0     C30774   9.927   9.139   2.283 -0.0811 -0.1373  0.1444
  234MOL0     C30775   9.802   9.116   2.329  0.5980  0.3584 -0.5715
  234MOL0     C30776   9.667   9.108   2.251 -0.1231 -0.3681  0.0225
  234MOL0     C30777   9.535   9.101   2.331  0.2669  0.6821  0.2813
  234MOL0     C30778   9.421   9.095   2.234 -0.3156 -0.5449  0.7443
  234MOL0     C30779   9.291   9.091   2.315  0.2535  0.2392 -0.7652
  234MOL0     O30780   9.176   9.044   2.228  0.0168 -0.1042  0.0597
  234MOL0     C30781   9.051   9.078   2.275 -0.4264  0.1579 -0.4923
  234MOL0     C30782   9.015   9.060   2.406 -0.2338  0.1550 -1.1619
  234MOL0     C30783   8.887   9.095   2.455 -0.0307 -1.3117 -0.1571
  234MOL0     C30784   8.795   9.144   2.361 -0.1500 -0.9203 -1.4165
  234MOL0     C30785   8.655   9.172   2.409 -0.4774 -1.1347 -0.4700
  234MOL0     O30786   8.549   9.175   2.332  0.5356  0.1802  0.0286
  234MOL0     C30787   8.425   9.205   2.383  0.4947  0.2708 -0.7948
  234MOL0     C30788   8.369   9.139   2.489 -0.1294 -0.2053 -0.3024
  234MOL0     C30789   8.256   9.178   2.549  0.2850  0.5973  0.7047
  234MOL0     C30790   8.172   9.268   2.474 -0.0699  0.1348 -0.7789
  234MOL0     O30791   8.043   9.296   2.519 -0.5985 -0.3275 -0.6832
  234MOL0     C30792   7.984   9.188   2.610 -0.9334 -0.1173 -0.2721
  234MOL0     C30793   7.835   9.225   2.635 -1.0499 -0.0567 -0.7266
  234MOL0     C30794   7.731   9.196   2.531 -0.5376 -0.1632  0.3918
  234MOL0     C30795   7.593   9.262   2.569 -0.7223 -0.7466  0.2225
  234MOL0     C30796   7.479   9.237   2.462 -0.3178  0.1982 -0.7136
  234MOL0     C30797   7.355   9.317   2.491  0.4249  0.3575 -0.3994
  234MOL0     C30798   7.235   9.281   2.394 -0.6198 -0.0116 -0.0321
  234MOL0     C30799   7.109   9.347   2.431  0.1363 -0.6525 -0.3463
  234MOL0    Cl30800   7.044   9.283   2.578  0.2627 -0.3627 -0.0852
  234MOL0     C30801   8.221   9.330   2.358  0.9955  0.3997 -0.2539
  234MOL0     C30802   8.342   9.291   2.310 -0.1660 -0.5403  0.6508
  234MOL0     O30803   8.656   9.217   2.526  0.7132 -0.2692  0.0863
  234MOL0     C30804   8.821   9.144   2.218 -0.3852 -0.1028 -0.6422
  234MOL0     C30805   8.949   9.109   2.179 -1.0290  0.6731  0.7700
  234MOL0     N30806   9.813   9.110   2.465  1.1029 -0.0471 -0.4926
  234MOL0     N30807   9.923   9.160   2.495 -0.0632  0.7931  1.5976
  234MOL0     C30808  10.911   9.726   2.223 -0.6398  0.5588  0.1224
  234MOL0     C30809  11.046   9.739   2.190 -0.2145 -0.0431 -0.3080
  234MOL0     C30810  11.463   9.901   2.126  0.6990  0.0160  0.3897
  234MOL0     C30811  11.559   9.853   2.220 -0.2225 -0.8128 -0.1482
  234MOL0     C30812  11.694   9.889   2.210 -0.1211 -1.0713 -0.0053
  234MOL0     C30813  11.745   9.963   2.108 -0.7099  0.5527  0.2620
  234MOL0     O30814  11.877   9.993   2.091  0.0251  0.8417 -0.9530
  234MOL0     C30815  11.982   9.898   2.141 -0.3056 -0.7115 -0.8110
  234MOL0     C30816  12.015   9.798   2.024  0.3187  0.0018  0.1658
  234MOL0     C30817  12.124   9.857   1.926 -0.1135  0.5901 -0.3745
  234MOL0     C30818  12.179   9.761   1.828  0.0399  1.0637  0.9579
  234MOL0     C30819  12.290   9.829   1.750  0.8183 -0.1553  0.2533
  234MOL0     C30820  12.390   9.859   1.687 -0.3297  0.4175  0.5531
  234MOL0     C30821  11.655  10.005   2.010  0.4056  0.1655 -0.1653
  234MOL0     C30822  11.514   9.970   2.019  0.0795 -0.7415 -0.3180
  234MOL0     H30823  11.171   9.911   2.450  1.1475  2.4441 -1.9534
  234MOL0     H30824  10.901   9.878   2.522  0.7931  0.1504  0.0590
  234MOL0     H30825  10.657   9.605   2.343 -1.9304  0.4023 -1.0564
  234MOL0     H30826  10.632   9.711   2.201 -0.6204  0.2499 -0.4952
  234MOL0     H30827  10.463   9.848   2.323  0.5251  0.6417  0.4888
  234MOL0     H30828  10.483   9.742   2.463  0.4576  2.9232  0.7228
  234MOL0     H30829  10.435   9.549   2.313  0.0497 -0.7358  0.5417
  234MOL0     H30830  10.402   9.676   2.181  0.4458  0.3371  1.0145
  234MOL0     H30831  10.268   9.620   2.460 -0.5018 -0.4113 -0.3053
  234MOL0     H30832  10.222   9.754   2.347  3.8090  2.4618 -1.6307
  234MOL0     H30833  10.149   9.598   2.178  0.3413 -1.4157  0.6504
  234MOL0     H30834  10.051   9.564   2.320 -1.9860 -0.1408 -2.6983
  234MOL0     H30835  10.290   9.415   2.219  0.6546  0.7945  0.7354
  234MOL0     H30836  10.109   9.367   2.201  2.4377  0.7691 -3.7638
  234MOL0     H30837  10.295   9.339   2.436  0.9800 -4.9143 -0.7047
  234MOL0     H30838  10.134   9.392   2.471  1.0464 -0.2517  0.3402
  234MOL0     H30839  10.165   9.137   2.491  0.8237 -0.9084 -0.7783
  234MOL0     H30840  10.197   9.134   2.315  3.7714 -0.6352  2.0474
  234MOL0     H30841   9.951   9.154   2.178 -0.5350 -0.7653 -0.0577
  234MOL0     H30842   9.674   9.012   2.199  1.5717  0.2601 -0.9744
  234MOL0     H30843   9.657   9.189   2.180 -0.3088 -0.0589  0.3977
  234MOL0     H30844   9.530   9.190   2.394 -4.3216  0.4785  0.4934
  234MOL0     H30845   9.532   9.004   2.382  2.5067 -0.0948 -0.8973
  234MOL0     H30846   9.425   9.179   2.164 -1.0015 -1.1353 -0.0163
  234MOL0     H30847   9.429   9.005   2.172  0.9414  1.4169 -2.1875
  234MOL0     H30848   9.267   9.185   2.366  3.2344  0.1703  1.0229
  234MOL0     H30849   9.303   9.012   2.390 -1.1332 -1.3727 -2.1615
  234MOL0     H30850   9.083   9.009   2.473 -0.1351  2.1416  0.3594
  234MOL0     H30851   8.853   9.071   2.556 -0.6129 -1.3163 -0.3511
  234MOL0     H30852   8.424   9.063   2.544  1.7058  0.3563 -1.2903
  234MOL0     H30853   8.218   9.146   2.646 -0.6077  3.0680  1.2223
  234MOL0     H30854   8.028   9.207   2.708 -2.7474 -1.1685  0.7998
  234MOL0     H30855   7.991   9.084   2.577  0.5445 -0.5986  1.4558
  234MOL0     H30856   7.826   9.334   2.648 -1.5905  0.0326 -1.7176
  234MOL0     H30857   7.801   9.179   2.729 -0.5509  3.7694  1.5615
  234MOL0     H30858   7.710   9.088   2.530 -0.1071 -0.2698  1.4950
  234MOL0     H30859   7.762   9.237   2.434 -0.2397 -0.8747  0.1818
  234MOL0     H30860   7.555   9.222   2.664 -0.3687  0.1990  0.7812
  234MOL0     H30861   7.611   9.369   2.580 -0.3224 -0.5080 -2.2490
  234MOL0     H30862   7.441   9.135   2.473  2.2189 -0.6172  1.9078
  234MOL0     H30863   7.526   9.249   2.364 -2.3172 -0.0295 -1.7418
  234MOL0     H30864   7.369   9.426   2.492  0.9369  0.2903  0.5852
  234MOL0     H30865   7.329   9.281   2.591  0.6199 -0.7537 -0.7345
  234MOL0     H30866   7.271   9.321   2.299  2.1498  0.2559  1.0472
  234MOL0     H30867   7.220   9.173   2.383 -3.9613  0.0225  2.6334
  234MOL0     H30868   7.040   9.330   2.348  3.7600  0.8527 -4.0539
  234MOL0     H30869   7.115   9.456   2.437 -1.4367 -0.5192 -0.8279
  234MOL0     H30870   8.155   9.401   2.308 -3.3432 -2.6191  0.6198
  234MOL0     H30871   8.371   9.335   2.215 -2.3891  3.5020  1.6422
  234MOL0     H30872   8.742   9.167   2.148 -0.4228  1.7664 -0.0307
  234MOL0     H30873   8.980   9.098   2.075 -2.1643  0.6384  0.4132
  234MOL0     H30874  10.854   9.676   2.146 -1.0920  2.0753 -0.5805
  234MOL0     H30875  11.073   9.700   2.093  0.5483 -1.4302  0.4359
  234MOL0     H30876  11.523   9.781   2.292  0.0778 -1.4809 -0.6503
  234MOL0     H30877  11.757   9.871   2.297  1.4541  2.3944 -0.2886
  234MOL0     H30878  11.958   9.841   2.231  0.4089 -0.1997 -0.2756
  234MOL0     H30879  12.067   9.962   2.168 -0.8272 -0.5778  0.6247
  234MOL0     H30880  12.061   9.717   2.082  1.5729  1.4906  1.3326
  234MOL0     H30881  11.924   9.759   1.979  0.4545 -1.0247  0.7621
  234MOL0     H30882  12.214   9.884   1.983 -0.7359  1.3869  0.2455
  234MOL0     H30883  12.078   9.945   1.882 -2.5863 -0.3140  0.2499
  234MOL0     H30884  12.230   9.681   1.884 -1.0047 -0.5644 -0.3228
  234MOL0     H30885  12.099   9.722   1.764  1.5006 -2.2349  0.9385
  234MOL0     H30886  12.481   9.870   1.633  0.0347  2.0421  1.4227
  234MOL0     H30887  11.684  10.063   1.923 -0.2934  1.1232  0.2145
  234MOL0     H30888  11.459  10.011   1.935  1.8073 -2.4661 -2.4057
  235MOL0     O30889   5.224   4.439  11.244  0.0308  0.4555  0.4307
  235MOL0     C30890   5.245   4.558  11.231  1.2782 -0.4080 -0.8222
  235MOL0     O30891   5.148   4.654  11.237 -0.2065 -0.0370  0.0400
  235MOL0     C30892   5.020   4.619  11.243 -0.3192 -0.8567  1.7286
  235MOL0     C30893   4.939   4.709  11.173  0.6377 -0.1631  0.4886
  235MOL0     C30894   4.801   4.691  11.171 -0.3142  0.8014  0.6069
  235MOL0     C30895   4.737   4.581  11.241 -0.5316 -0.7689  0.3831
  235MOL0     O30896   4.594   4.565  11.246 -0.2225 -0.5822 -0.8922
  235MOL0     C30897   4.537   4.457  11.181 -0.8799 -0.2614  0.3944
  235MOL0     C30898   4.555   4.473  11.031  0.6824  0.3103 -0.3762
  235MOL0     C30899   4.464   4.376  10.953  0.0106 -0.5847  0.2891
  235MOL0     C30900   4.514   4.356  10.805  1.3808  0.3588 -0.3227
  235MOL0     C30901   4.423   4.249  10.732  0.8258 -0.0808  0.6947
  235MOL0     C30902   4.293   4.317  10.699  0.3874  0.3914  0.3225
  235MOL0     C30903   4.236   4.243  10.583  0.0218  0.3310  0.7959
  235MOL0     C30904   4.121   4.332  10.527  0.6224 -0.4078 -0.1772
  235MOL0     N30905   4.051   4.255  10.425 -0.1484  0.7525 -0.0280
  235MOL0     C30906   3.945   4.312  10.350  0.0771  0.7335 -1.1439
  235MOL0     C30907   3.898   4.206  10.275 -1.2831 -0.2954 -0.2761
  235MOL0     C30908   3.805   4.217  10.145 -0.4582  0.1697 -0.7221
  235MOL0     C30909   3.888   4.290  10.034  0.4206  1.0857  0.2864
  235MOL0     C30910   3.811   4.300   9.898 -0.1700  0.6963 -0.2901
  235MOL0     C30911   3.685   4.402   9.896  0.0602 -0.3168 -0.1976
  235MOL0     O30912   3.624   4.402   9.764  0.0684  0.1638  0.7250
  235MOL0     C30913   3.486   4.423   9.753 -0.5290  0.7784 -0.2971
  235MOL0     C30914   3.412   4.383   9.647  0.5199  0.1141 -0.1443
  235MOL0     C30915   3.272   4.397   9.644  0.4301 -0.4509 -0.1231
  235MOL0     C30916   3.207   4.477   9.735 -0.6004  0.2496  0.8363
  235MOL0     C30917   3.067   4.515   9.713  0.7252  0.0546  0.7555
  235MOL0     O30918   2.999   4.432   9.615  0.6607 -0.1485  0.2568
  235MOL0     C30919   2.882   4.478   9.559  0.3884  0.1222 -0.5511
  235MOL0     C30920   2.781   4.382   9.539 -0.7635  0.1821 -0.4213
  235MOL0     C30921   2.653   4.418   9.495 -0.5589 -0.3304 -0.1158
  235MOL0     C30922   2.626   4.554   9.452  0.0175  0.1926  0.1133
  235MOL0     O30923   2.496   4.581   9.395  0.1042 -0.1562  0.5179
  235MOL0     C30924   2.465   4.716   9.388 -0.4033 -0.4080 -0.2770
  235MOL0     C30925   2.322   4.733   9.357 -0.6949  0.3274 -0.1433
  235MOL0     C30926   2.267   4.667   9.230 -0.0859  0.0331  1.3947
  235MOL0     C30927   2.115   4.705   9.231 -0.3860  0.6259 -0.6438
  235MOL0     C30928   2.037   4.610   9.139 -0.7634  0.3365 -0.9717
  235MOL0     C30929   2.082   4.629   8.989  0.7300  0.3908 -0.0863
  235MOL0     C30930   2.013   4.517   8.907 -0.2122  0.0476 -0.7919
  235MOL0     C30931   1.911   4.580   8.800  0.4722  0.0180 -0.0241
  235MOL0    Cl30932   1.750   4.582   8.880  0.2625 -0.0240  0.1395
  235MOL0     C30933   2.720   4.653   9.483 -0.1692 -1.0042  0.1292
  235MOL0     C30934   2.850   4.612   9.533  0.4055  0.2842  0.4086
  235MOL0     O30935   3.019   4.616   9.760 -0.0335 -0.8349 -0.2535
  235MOL0     C30936   3.283   4.520   9.844 -1.2303 -0.2387 -0.6272
  235MOL0     C30937   3.420   4.497   9.853 -0.0683 -0.0418 -0.0643
  235MOL0     N30938   3.966   4.097  10.316  0.7717  0.0769  0.6705
  235MOL0     N30939   4.055   4.120  10.406 -0.3040  0.8206 -0.3288
  235MOL0     C30940   4.820   4.509  11.329 -0.1071  0.4021 -0.2335
  235MOL0     C30941   4.963   4.529  11.326  1.0066  0.0200 -0.4299
  235MOL0     C30942   5.380   4.609  11.236  0.2018 -0.4368  0.7764
  235MOL0     C30943   5.405   4.744  11.262 -0.0356 -0.2318 -1.4196
  235MOL0     C30944   5.540   4.789  11.288  0.3787  0.4162  0.0700
  235MOL0     C30945   5.647   4.699  11.284  0.2307  0.6155 -0.2848
  235MOL0     O30946   5.770   4.743  11.322  0.5495 -0.4834 -0.5369
  235MOL0     C30947   5.867   4.645  11.337 -0.1157  0.2253 -0.7205
  235MOL0     C30948   5.991   4.691  11.412 -1.2926  0.1525 -0.3924
  235MOL0     C30949   6.065   4.797  11.331  0.6795 -0.5170  0.7039
  235MOL0     C30950   6.201   4.849  11.385  1.0160  0.0506 -0.2056
  235MOL0     C30951   6.306   4.747  11.383  0.1593 -0.4066 -1.4868
  235MOL0     C30952   6.386   4.653  11.383  0.3975 -1.0913  0.7648
  235MOL0     C30953   5.620   4.560  11.270 -0.6246  0.5999 -0.5524
  235MOL0     C30954   5.493   4.527  11.232 -0.6224  0.0059  0.2516
  235MOL0     H30955   4.970   4.796  11.117 -2.7197  1.5131  1.0245
  235MOL0     H30956   4.735   4.763  11.125  1.1053  1.2854 -0.7780
  235MOL0     H30957   4.430   4.466  11.200 -0.8593  2.5382 -0.3858
  235MOL0     H30958   4.567   4.357  11.215  0.9115  0.1525  0.1233
  235MOL0     H30959   4.663   4.468  11.012  0.6312  0.7856 -0.8254
  235MOL0     H30960   4.520   4.572  11.000 -2.7716  0.0609  2.2046
  235MOL0     H30961   4.360   4.411  10.953 -0.1633 -1.0972  0.8854
  235MOL0     H30962   4.471   4.277  10.998 -1.2754 -1.5235 -1.4066
  235MOL0     H30963   4.506   4.451  10.751  3.0498  1.0012  0.5095
  235MOL0     H30964   4.613   4.313  10.790  0.4756 -1.9079 -0.2528
  235MOL0     H30965   4.402   4.169  10.804 -0.9984  0.1838  0.4916
  235MOL0     H30966   4.482   4.208  10.649  0.9930  0.1468  0.7009
  235MOL0     H30967   4.302   4.426  10.696 -0.1040  0.4214 -0.2851
  235MOL0     H30968   4.221   4.297  10.779  0.4332  1.2497  0.5885
  235MOL0     H30969   4.310   4.227  10.503 -0.8511 -2.7834  0.4585
  235MOL0     H30970   4.185   4.152  10.616  0.8050 -0.8632 -1.0486
  235MOL0     H30971   4.164   4.417  10.472  1.5977 -0.4395  0.5102
  235MOL0     H30972   4.057   4.360  10.611  1.6172 -0.7420  0.7248
  235MOL0     H30973   3.910   4.415  10.343 -2.2901  0.0327 -0.3146
  235MOL0     H30974   3.713   4.269  10.171 -0.9169 -0.9925  0.0353
  235MOL0     H30975   3.771   4.120  10.109 -0.5463 -1.1937  2.7165
  235MOL0     H30976   3.977   4.227  10.021 -3.1700 -4.1289 -2.3653
  235MOL0     H30977   3.903   4.390  10.076 -1.2298  1.0087  1.0997
  235MOL0     H30978   3.883   4.330   9.821  0.3295 -3.0533 -1.4775
  235MOL0     H30979   3.777   4.198   9.876  0.3836  0.4553 -0.0756
  235MOL0     H30980   3.722   4.503   9.916 -4.2555  1.4081  0.2636
  235MOL0     H30981   3.609   4.380   9.972 -2.9776 -2.4732 -3.4912
  235MOL0     H30982   3.456   4.333   9.562 -0.9689 -0.9809 -0.3074
  235MOL0     H30983   3.223   4.371   9.551  2.7919  2.9346 -2.5806
  235MOL0     H30984   2.792   4.279   9.573 -2.7872  0.8445  2.6488
  235MOL0     H30985   2.593   4.331   9.472 -0.8515  0.3047 -1.9620
  235MOL0     H30986   2.520   4.764   9.306  1.3136 -1.7177  0.0437
  235MOL0     H30987   2.489   4.767   9.482  0.2945  2.6836 -2.0254
  235MOL0     H30988   2.293   4.839   9.355 -5.1312 -0.6825 -0.6752
  235MOL0     H30989   2.258   4.693   9.437 -1.4742 -0.6605 -1.2285
  235MOL0     H30990   2.283   4.559   9.224 -3.9869 -0.6495 -0.8908
  235MOL0     H30991   2.311   4.699   9.135 -1.4180 -0.9693  0.3866
  235MOL0     H30992   2.083   4.683   9.333 -1.1426 -0.8909 -1.1852
  235MOL0     H30993   2.100   4.809   9.202 -0.5850  0.8651  0.2765
  235MOL0     H30994   1.932   4.629   9.165  0.5045  2.5431  3.3933
  235MOL0     H30995   2.058   4.508   9.172 -1.1730  0.6205  0.2256
  235MOL0     H30996   2.189   4.624   8.966  0.8475 -0.6971  0.5932
  235MOL0     H30997   2.042   4.724   8.954 -3.8274 -1.0993  0.4205
  235MOL0     H30998   2.097   4.464   8.860  1.5865  1.2317  0.9412
  235MOL0     H30999   1.973   4.431   8.962 -0.1153  0.5766  0.1222
  235MOL0     H31000   1.919   4.517   8.711 -0.7587  0.1208 -0.2180
  235MOL0     H31001   1.926   4.684   8.772 -0.7173  0.3089  0.3615
  235MOL0     H31002   2.705   4.761   9.479  1.1549 -0.7780  0.7400
  235MOL0     H31003   2.930   4.685   9.541 -0.7600  2.4797 -4.2460
  235MOL0     H31004   3.240   4.585   9.920  0.1926  0.6402 -0.5427
  235MOL0     H31005   3.466   4.528   9.946 -0.8789  1.2984 -0.1016
  235MOL0     H31006   4.776   4.430  11.389 -0.7364  0.9907  0.0890
  235MOL0     H31007   5.010   4.461  11.396 -0.2526  1.1595  1.6533
  235MOL0     H31008   5.336   4.827  11.275 -2.5762 -2.2231 -1.4485
  235MOL0     H31009   5.556   4.893  11.312 -0.0506  0.8543 -1.4329
  235MOL0     H31010   5.892   4.590  11.245 -1.7982 -1.0686 -0.4605
  235MOL0     H31011   5.834   4.562  11.401  1.7167 -1.3384 -1.6789
  235MOL0     H31012   5.968   4.731  11.511  4.2153  3.3625 -0.0319
  235MOL0     H31013   6.069   4.618  11.436 -0.6909  0.5820 -1.0012
  235MOL0     H31014   6.001   4.884  11.311 -1.5195 -2.0789  0.5536
  235MOL0     H31015   6.099   4.745  11.241 -0.8237  1.2326 -0.9909
  235MOL0     H31016   6.218   4.944  11.334 -2.9061  0.3072 -1.3751
  235MOL0     H31017   6.189   4.863  11.493  0.3344 -4.2367  0.4733
  235MOL0     H31018   6.445   4.564  11.380  1.2410 -0.5602 -2.6129
  235MOL0     H31019   5.693   4.480  11.268 -0.8888  0.3622 -1.0614
  235MOL0     H31020   5.475   4.425  11.199 -0.7249  1.2309 -4.0102
  236MOL0     O31021   4.272   6.816   3.904 -0.2087 -0.2321 -0.2780
  236MOL0     C31022   4.178   6.848   3.833 -0.2465  0.0482  0.0391
  236MOL0     O31023   4.071   6.764   3.797 -0.2093 -0.1408 -0.2736
  236MOL0     C31024   4.092   6.625   3.816  0.5347  0.1458  0.2126
  236MOL0     C31025   3.981   6.556   3.885 -0.7422 -0.0825  0.6583
  236MOL0     C31026   4.004   6.417   3.916  0.3483 -0.9066 -0.4299
  236MOL0     C31027   4.114   6.343   3.865  0.1340 -0.0147  0.0074
  236MOL0     O31028   4.134   6.201   3.874  0.4780  0.0765 -0.1204
  236MOL0     C31029   4.050   6.139   3.975  0.2357  0.3714 -0.2418
  236MOL0     C31030   4.061   5.990   3.945 -0.0864 -0.0310  1.3811
  236MOL0     C31031   3.957   5.919   3.841 -1.1880 -0.5793  0.0046
  236MOL0     C31032   3.995   5.769   3.810 -0.8284  0.3242  0.5538
  236MOL0     C31033   3.870   5.690   3.777 -0.4554  0.2901  0.7492
  236MOL0     C31034   3.812   5.730   3.641  0.5150  1.2955 -0.0488
  236MOL0     C31035   3.677   5.657   3.624 -0.3692  0.8102  0.1030
  236MOL0     C31036   3.628   5.695   3.489  1.1852  0.5178 -0.4717
  236MOL0     N31037   3.496   5.620   3.475  0.8171  0.1029  0.0453
  236MOL0     C31038   3.440   5.548   3.363 -0.1440  0.8449  0.4270
  236MOL0     C31039   3.322   5.502   3.414  0.2049 -0.1239 -0.2858
  236MOL0     C31040   3.217   5.415   3.336 -0.0917  0.2051 -0.0300
  236MOL0     C31041   3.254   5.266   3.343  0.0917  0.9183 -0.1021
  236MOL0     C31042   3.164   5.170   3.262  0.2891 -0.0096 -0.5326
  236MOL0     C31043   3.027   5.150   3.320  0.4179 -0.0436 -0.2168
  236MOL0     O31044   2.978   5.024   3.271 -0.5338 -0.1275 -0.5214
  236MOL0     C31045   2.846   5.002   3.275 -0.3806  0.5978 -0.1923
  236MOL0     C31046   2.757   5.076   3.353  0.1838  0.7808  0.0038
  236MOL0     C31047   2.614   5.065   3.342 -1.0131 -0.2898  1.3486
  236MOL0     C31048   2.562   4.967   3.250  0.0943  0.0813  0.1666
  236MOL0     C31049   2.420   4.947   3.236  0.8151 -0.6533  0.4235
  236MOL0     O31050   2.349   5.036   3.309  0.4756 -0.0635  0.3839
  236MOL0     C31051   2.217   5.060   3.288  0.2102  0.3771  0.6864
  236MOL0     C31052   2.176   5.172   3.210 -0.2539 -0.0395 -0.0749
  236MOL0     C31053   2.041   5.198   3.178  0.9362 -0.7946  0.5042
  236MOL0     C31054   1.939   5.106   3.222  0.4112 -0.4646  0.3268
  236MOL0     O31055   1.803   5.119   3.189  0.2317 -0.5955  0.0023
  236MOL0     C31056   1.760   5.255   3.186  0.0991  0.0792 -1.3702
  236MOL0     C31057   1.606   5.255   3.207 -1.3662 -0.1638  0.6630
  236MOL0     C31058   1.573   5.200   3.349  0.3924 -0.2037  0.2427
  236MOL0     C31059   1.424   5.215   3.384 -0.8445  0.4685 -1.0078
  236MOL0     C31060   1.358   5.347   3.385  0.8072 -0.9966 -0.4129
  236MOL0     C31061   1.241   5.377   3.487  0.0943  0.0786 -0.8554
  236MOL0     C31062   1.215   5.531   3.511 -0.2302 -0.5664  0.6998
  236MOL0     C31063   1.105   5.546   3.616 -0.6218  0.0916 -1.2058
  236MOL0    Cl31064   0.953   5.473   3.564  0.1340 -0.0031  0.0729
  236MOL0     C31065   1.982   4.988   3.290  0.3913 -0.0887 -0.0130
  236MOL0     C31066   2.113   4.963   3.322 -0.4524 -0.8633  0.3174
  236MOL0     O31067   2.376   4.872   3.157  0.1306  0.0205  0.5901
  236MOL0     C31068   2.651   4.890   3.172 -0.3036 -0.3959 -0.0093
  236MOL0     C31069   2.790   4.907   3.183  0.2028 -0.0288 -0.1535
  236MOL0     N31070   3.303   5.551   3.546  0.1822  0.1024 -0.4778
  236MOL0     N31071   3.405   5.614   3.579  0.5891 -0.0761  0.0780
  236MOL0     C31072   4.208   6.417   3.797  0.4979  0.0643  0.0369
  236MOL0     C31073   4.205   6.555   3.781 -1.1865 -0.1216 -0.6975
  236MOL0     C31074   4.184   6.978   3.762 -0.8835  0.6606  0.0643
  236MOL0     C31075   4.075   7.033   3.705 -0.6377  0.3676 -0.1439
  236MOL0     C31076   4.084   7.157   3.642  1.4016  1.0444  0.0309
  236MOL0     C31077   4.199   7.230   3.641  0.6880 -0.2077 -0.3408
  236MOL0     O31078   4.192   7.358   3.577 -0.7835 -1.1262  0.1611
  236MOL0     C31079   4.312   7.425   3.578 -0.1559  0.5602 -0.6894
  236MOL0     C31080   4.283   7.575   3.547 -0.4487  0.1179  0.1276
  236MOL0     C31081   4.206   7.596   3.410 -0.3367 -0.7353  0.2712
  236MOL0     C31082   4.260   7.734   3.358  0.5323 -0.8060  0.3662
  236MOL0     C31083   4.384   7.722   3.287  0.1807 -0.0645 -0.2147
  236MOL0     C31084   4.478   7.700   3.224  0.2463 -0.3621  0.6433
  236MOL0     C31085   4.304   7.183   3.711 -0.1922 -0.5148  0.5532
  236MOL0     C31086   4.302   7.055   3.765 -1.6705 -0.1071  0.6676
  236MOL0     H31087   3.893   6.607   3.922 -0.1658 -0.0954  2.1630
  236MOL0     H31088   3.926   6.363   3.969 -1.1850 -0.0577 -1.7162
  236MOL0     H31089   3.944   6.166   3.980 -0.1051 -0.6418 -1.4738
  236MOL0     H31090   4.098   6.155   4.072  0.6974 -2.3109  0.0414
  236MOL0     H31091   4.055   5.944   4.044 -0.9913 -0.5981  1.0744
  236MOL0     H31092   4.157   5.972   3.897 -0.5783  0.7224  0.0667
  236MOL0     H31093   3.953   5.967   3.743  1.8821 -2.1595 -1.0230
  236MOL0     H31094   3.861   5.936   3.891  0.3386  2.4399  2.2511
  236MOL0     H31095   4.057   5.766   3.720 -0.7502  1.4292  0.5535
  236MOL0     H31096   4.045   5.729   3.899 -0.6972 -2.7003 -0.7760
  236MOL0     H31097   3.788   5.692   3.850 -4.3568 -1.4537 -3.0746
  236MOL0     H31098   3.905   5.587   3.767  3.5255  1.7320 -3.6613
  236MOL0     H31099   3.884   5.706   3.562  0.1454 -3.6417  0.7945
  236MOL0     H31100   3.800   5.838   3.629 -0.2395  1.1729 -0.4754
  236MOL0     H31101   3.697   5.550   3.612 -0.1669  1.1305 -3.6853
  236MOL0     H31102   3.602   5.685   3.698  0.6197  3.1355  0.3190
  236MOL0     H31103   3.696   5.653   3.414 -0.5664 -0.7031 -1.4546
  236MOL0     H31104   3.622   5.803   3.476  1.2520  0.7025  0.9188
  236MOL0     H31105   3.484   5.543   3.264 -1.8517  1.7309 -0.4140
  236MOL0     H31106   3.232   5.453   3.235  1.0194 -0.5242 -0.1546
  236MOL0     H31107   3.115   5.420   3.373  0.3167 -1.1965  1.4309
  236MOL0     H31108   3.252   5.224   3.444  0.3720 -4.2684 -1.9260
  236MOL0     H31109   3.355   5.250   3.304  0.5185  1.1386  0.8984
  236MOL0     H31110   3.148   5.212   3.163 -0.6282  0.4273 -0.2144
  236MOL0     H31111   3.222   5.078   3.254 -0.5710 -0.7622  1.2273
  236MOL0     H31112   2.952   5.224   3.292  0.1726 -1.2571 -3.0510
  236MOL0     H31113   3.030   5.142   3.429 -0.4721 -3.1312 -0.3229
  236MOL0     H31114   2.797   5.142   3.429  0.7361 -0.3460  0.7269
  236MOL0     H31115   2.545   5.130   3.395 -2.6398 -0.4268 -0.4866
  236MOL0     H31116   2.259   5.233   3.178  1.5631 -1.9381  0.8089
  236MOL0     H31117   2.019   5.288   3.123 -0.7246 -0.7200  1.2033
  236MOL0     H31118   1.783   5.309   3.093  0.1690  1.8241 -0.3776
  236MOL0     H31119   1.806   5.309   3.269  1.9054  1.8021 -3.3440
  236MOL0     H31120   1.558   5.189   3.133  2.9257 -1.7719 -0.9873
  236MOL0     H31121   1.567   5.356   3.188 -1.9241 -0.5063 -0.0939
  236MOL0     H31122   1.630   5.246   3.430 -1.5156 -1.6314  2.5441
  236MOL0     H31123   1.588   5.092   3.339 -0.3515 -0.1737 -1.6575
  236MOL0     H31124   1.374   5.147   3.315 -1.7931  1.1996 -1.0550
  236MOL0     H31125   1.404   5.167   3.480  0.7190  1.1632 -0.2921
  236MOL0     H31126   1.314   5.364   3.286 -3.2176  1.3813  1.5507
  236MOL0     H31127   1.442   5.413   3.407 -0.0364  0.5025 -1.4753
  236MOL0     H31128   1.276   5.341   3.584 -0.3037 -1.2382 -1.1712
  236MOL0     H31129   1.153   5.322   3.453  1.0015  0.2696 -3.8941
  236MOL0     H31130   1.307   5.582   3.542 -0.4154 -0.5658  1.2478
  236MOL0     H31131   1.178   5.575   3.418 -0.1138 -0.6241  0.6254
  236MOL0     H31132   1.088   5.654   3.625 -0.1912  0.0029  1.4568
  236MOL0     H31133   1.139   5.508   3.712 -2.2675  3.1410  0.7492
  236MOL0     H31134   1.899   4.921   3.311  0.5207 -1.7309 -3.9880
  236MOL0     H31135   2.148   4.869   3.362 -1.0790 -0.9362  0.7105
  236MOL0     H31136   2.614   4.817   3.101 -0.5453  0.0440 -0.3336
  236MOL0     H31137   2.867   4.848   3.133  0.8023  1.5973 -1.2153
  236MOL0     H31138   4.287   6.369   3.740 -1.1653 -0.2625 -2.1176
  236MOL0     H31139   4.290   6.601   3.733  0.3723  0.2897  2.2146
  236MOL0     H31140   3.987   6.969   3.711  0.2872 -0.9808 -0.4539
  236MOL0     H31141   3.996   7.210   3.608 -0.7768 -2.1197  0.2284
  236MOL0     H31142   4.384   7.388   3.503 -0.4281  3.1427 -2.3584
  236MOL0     H31143   4.365   7.427   3.674  1.4330  1.2104 -1.5342
  236MOL0     H31144   4.222   7.626   3.622  0.1474  1.4407 -0.2616
  236MOL0     H31145   4.375   7.632   3.528 -0.8046  0.3036 -1.1447
  236MOL0     H31146   4.099   7.591   3.433 -0.3207  4.1078  2.6383
  236MOL0     H31147   4.233   7.519   3.337  4.7930 -0.7761  1.7931
  236MOL0     H31148   4.188   7.768   3.283  3.6029  1.9304 -1.6224
  236MOL0     H31149   4.259   7.815   3.432  0.0790 -0.2405 -0.2429
  236MOL0     H31150   4.574   7.698   3.177 -0.5285  5.0667 -2.0178
  236MOL0     H31151   4.398   7.237   3.716 -1.4146  1.7727  0.1562
  236MOL0     H31152   4.395   7.026   3.813 -1.5343  1.4539  1.4068
  237MOL0     O31153   7.894   7.100   4.367 -0.0623  0.1025  0.3461
  237MOL0     C31154   7.955   7.178   4.436  0.3993 -0.4861  0.2631
  237MOL0     O31155   7.899   7.289   4.494 -0.2067  0.4106 -0.9737
  237MOL0     C31156   7.766   7.329   4.485  0.3221 -0.9184 -0.2821
  237MOL0     C31157   7.662   7.241   4.457  0.5199  0.2203 -0.3859
  237MOL0     C31158   7.534   7.294   4.452  0.1418  0.8122  0.4346
  237MOL0     C31159   7.510   7.429   4.476  0.0701  0.0847  1.1649
  237MOL0     O31160   7.390   7.489   4.468  0.5352  0.1847 -0.4913
  237MOL0     C31161   7.283   7.416   4.523  0.5964  0.8107 -0.1190
  237MOL0     C31162   7.157   7.510   4.496  0.4574 -0.5891  0.3943
  237MOL0     C31163   7.022   7.457   4.553  0.6656  0.1148  0.1072
  237MOL0     C31164   6.917   7.555   4.515  0.7043 -0.3469 -0.4133
  237MOL0     C31165   6.780   7.506   4.524  0.2343  0.4179  0.1732
  237MOL0     C31166   6.675   7.596   4.452 -0.6690 -0.1785  0.4441
  237MOL0     C31167   6.527   7.543   4.442 -0.4465 -1.4991 -0.1651
  237MOL0     C31168   6.444   7.543   4.564  0.6234  0.3479 -0.3490
  237MOL0     N31169   6.304   7.508   4.543 -0.1953  0.3459 -0.5569
  237MOL0     C31170   6.239   7.495   4.419 -0.7770  0.2284 -0.0677
  237MOL0     C31171   6.111   7.487   4.458  0.9448 -0.4213  0.3506
  237MOL0     C31172   5.999   7.490   4.353  0.0865 -0.2459  0.1321
  237MOL0     C31173   5.865   7.491   4.423 -0.6546 -0.9896  0.6337
  237MOL0     C31174   5.826   7.632   4.469 -0.2686  0.4137  0.6364
  237MOL0     C31175   5.679   7.626   4.500  0.6789  0.0753 -0.6346
  237MOL0     O31176   5.612   7.685   4.384  0.6918  0.2456 -0.3115
  237MOL0     C31177   5.495   7.760   4.400 -0.1316 -0.9047  0.1129
  237MOL0     C31178   5.415   7.798   4.302 -0.1958 -0.2892 -0.0822
  237MOL0     C31179   5.316   7.898   4.298  0.2938  0.8265  0.3977
  237MOL0     C31180   5.286   7.969   4.411 -0.8021 -0.0869  0.0077
  237MOL0     C31181   5.170   8.053   4.423  0.5269 -0.1358 -0.2763
  237MOL0     O31182   5.076   8.038   4.321 -1.1251  0.4391  0.4994
  237MOL0     C31183   4.968   8.124   4.297  0.0553 -0.4184 -1.4407
  237MOL0     C31184   4.898   8.104   4.185 -0.1953 -0.3077  0.2753
  237MOL0     C31185   4.774   8.167   4.151 -0.8968  0.7298  0.1041
  237MOL0     C31186   4.734   8.270   4.236 -1.1627  0.4699  0.1118
  237MOL0     O31187   4.622   8.339   4.204  0.8162 -0.5659 -0.9724
  237MOL0     C31188   4.502   8.295   4.284  0.4631 -0.3986 -0.0182
  237MOL0     C31189   4.366   8.301   4.207 -0.1890 -0.4697  0.2200
  237MOL0     C31190   4.323   8.172   4.132  0.8160  0.1427 -0.0601
  237MOL0     C31191   4.194   8.180   4.048 -0.0791  0.2180 -0.2470
  237MOL0     C31192   4.083   8.247   4.132  0.9146 -0.3801 -1.0347
  237MOL0     C31193   4.028   8.158   4.249 -0.0541 -0.4051  0.0907
  237MOL0     C31194   3.909   8.213   4.312 -0.4149  0.1434  0.2340
  237MOL0     C31195   3.849   8.128   4.428 -0.3237  0.5973 -0.5710
  237MOL0    Cl31196   3.696   8.219   4.467  0.1443 -0.8680  0.6523
  237MOL0     C31197   4.811   8.301   4.348 -0.7613 -0.0686  0.4599
  237MOL0     C31198   4.922   8.229   4.381 -1.4069  0.1357  0.4304
  237MOL0     O31199   5.178   8.141   4.507  0.2801  0.1714  0.4198
  237MOL0     C31200   5.364   7.932   4.527  0.6133 -0.1271  0.4773
  237MOL0     C31201   5.463   7.831   4.519 -0.1788  0.2353  0.1589
  237MOL0     N31202   6.092   7.472   4.589 -0.8989  0.5224  0.3166
  237MOL0     N31203   6.208   7.491   4.639 -0.3492  1.3666 -0.7798
  237MOL0     C31204   7.616   7.517   4.505  0.0062 -0.2261  0.2322
  237MOL0     C31205   7.741   7.460   4.515 -0.0374 -0.2704 -0.4848
  237MOL0     C31206   8.099   7.155   4.451 -0.1555 -0.0165 -0.0947
  237MOL0     C31207   8.179   7.237   4.531 -0.7852 -0.8741  0.3629
  237MOL0     C31208   8.317   7.218   4.553  0.2823  0.7035  0.0087
  237MOL0     C31209   8.377   7.107   4.491 -0.4422  0.6832  0.5338
  237MOL0     O31210   8.508   7.093   4.516 -0.0754 -0.1630  0.2667
  237MOL0     C31211   8.584   6.996   4.444  0.7954  0.6080  0.2750
  237MOL0     C31212   8.726   7.048   4.438  1.1512  0.1656 -0.4170
  237MOL0     C31213   8.823   6.939   4.384  0.2676  0.3274  0.2978
  237MOL0     C31214   8.959   6.926   4.456 -1.0584  0.2269  0.0457
  237MOL0     C31215   8.941   6.878   4.598 -0.7074  0.2999 -0.2798
  237MOL0     C31216   8.948   6.835   4.716  0.7229  1.1013 -0.3036
  237MOL0     C31217   8.302   7.021   4.412 -0.7218 -0.4247 -0.0196
  237MOL0     C31218   8.164   7.039   4.400  0.2203 -0.5390 -0.4527
  237MOL0     H31219   7.676   7.137   4.430  2.4589  0.4565 -0.4370
  237MOL0     H31220   7.447   7.232   4.436 -0.1399  0.6845  2.2292
  237MOL0     H31221   7.286   7.402   4.632 -1.7498  0.7888 -0.0060
  237MOL0     H31222   7.271   7.321   4.472  3.0570 -0.0968  0.8236
  237MOL0     H31223   7.154   7.531   4.389 -0.5541 -2.1735  0.0783
  237MOL0     H31224   7.171   7.606   4.548 -0.5668 -0.0468 -0.2895
  237MOL0     H31225   7.026   7.449   4.662  1.1883  0.6285  0.1359
  237MOL0     H31226   6.994   7.361   4.511  0.7632 -0.0185  0.3448
  237MOL0     H31227   6.920   7.655   4.560 -0.6687  1.2244 -3.4856
  237MOL0     H31228   6.932   7.577   4.409 -3.4520  2.9921 -0.5833
  237MOL0     H31229   6.750   7.511   4.629  0.8868  1.4800  0.3255
  237MOL0     H31230   6.764   7.408   4.479 -1.2798  0.2554  0.9915
  237MOL0     H31231   6.708   7.604   4.348  2.2021  0.8181  1.3414
  237MOL0     H31232   6.682   7.693   4.503  1.9456 -1.0609  1.9832
  237MOL0     H31233   6.472   7.608   4.373  5.0015  2.2961 -1.6540
  237MOL0     H31234   6.531   7.443   4.398  0.5988 -0.4043 -2.7909
  237MOL0     H31235   6.448   7.649   4.593 -0.4231  1.1892 -2.9863
  237MOL0     H31236   6.484   7.489   4.650  3.0039  1.9930 -0.3280
  237MOL0     H31237   6.278   7.489   4.318  1.6840  0.9078  0.7658
  237MOL0     H31238   6.016   7.392   4.308  1.0400 -2.9995  5.6285
  237MOL0     H31239   6.003   7.575   4.284 -1.4742 -0.3074 -0.0666
  237MOL0     H31240   5.863   7.408   4.495 -2.2985 -1.0275  0.5912
  237MOL0     H31241   5.801   7.468   4.337  0.7062  3.1291 -1.7121
  237MOL0     H31242   5.890   7.655   4.554  0.2763 -1.4237  0.7557
  237MOL0     H31243   5.846   7.711   4.395 -2.3735 -0.0692 -0.5362
  237MOL0     H31244   5.663   7.696   4.583 -1.8738 -0.1668 -0.8228
  237MOL0     H31245   5.627   7.532   4.521  0.0707  0.8157  1.3854
  237MOL0     H31246   5.442   7.743   4.212  0.8340 -1.3256  0.8344
  237MOL0     H31247   5.247   7.900   4.214  0.4000 -2.4929  0.0812
  237MOL0     H31248   4.938   8.031   4.114 -1.8359 -0.0394 -0.9841
  237MOL0     H31249   4.722   8.146   4.058  1.2268  1.9080 -1.4287
  237MOL0     H31250   4.496   8.372   4.361 -1.2491  0.1155 -0.6265
  237MOL0     H31251   4.506   8.197   4.333 -4.0619 -0.7013  0.0951
  237MOL0     H31252   4.373   8.380   4.132 -0.0878  0.0622  0.7880
  237MOL0     H31253   4.297   8.340   4.283 -1.3883  3.1735 -2.4242
  237MOL0     H31254   4.298   8.102   4.212 -1.0779 -0.3902 -1.0534
  237MOL0     H31255   4.402   8.142   4.063  0.2940  1.6429 -1.3758
  237MOL0     H31256   4.228   8.233   3.959 -2.5293  1.4678 -0.5161
  237MOL0     H31257   4.162   8.082   4.010 -1.8325  0.4565  0.5142
  237MOL0     H31258   4.003   8.278   4.064  2.0110  2.1581 -1.2946
  237MOL0     H31259   4.115   8.338   4.184  0.0600 -1.2741  1.1592
  237MOL0     H31260   4.102   8.133   4.326 -0.5386 -0.8214  0.4284
  237MOL0     H31261   4.007   8.063   4.200 -1.8987  0.7084 -1.3948
  237MOL0     H31262   3.916   8.314   4.354  2.1586  0.0150  0.2574
  237MOL0     H31263   3.841   8.207   4.226 -0.6979 -3.2770  0.5733
  237MOL0     H31264   3.928   8.123   4.503  3.0051  0.1148 -3.8112
  237MOL0     H31265   3.835   8.027   4.386  2.6038 -0.5716  0.9961
  237MOL0     H31266   4.773   8.374   4.419  1.3810  0.8080  0.7751
  237MOL0     H31267   4.986   8.259   4.463 -2.3512 -1.2029  1.7084
  237MOL0     H31268   5.355   7.986   4.621 -1.7079 -0.1106  0.2892
  237MOL0     H31269   5.524   7.813   4.607  2.2613  0.2937 -1.4147
  237MOL0     H31270   7.577   7.618   4.514  1.3139  0.7997 -3.5406
  237MOL0     H31271   7.828   7.525   4.521  0.1048 -0.2714 -1.9717
  237MOL0     H31272   8.137   7.332   4.562  2.5538  2.7659 -4.6569
  237MOL0     H31273   8.374   7.297   4.601  0.2729 -0.7844  2.6055
  237MOL0     H31274   8.544   6.989   4.342  3.5104  1.7693 -0.9755
  237MOL0     H31275   8.569   6.898   4.491  1.5897  0.2843 -0.1364
  237MOL0     H31276   8.732   7.140   4.380  1.8192  0.2671 -0.1979
  237MOL0     H31277   8.756   7.066   4.542  1.1169 -1.9396  0.0051
  237MOL0     H31278   8.842   6.962   4.279 -0.3908 -0.5034 -0.0097
  237MOL0     H31279   8.778   6.840   4.391  1.5334 -0.4008 -1.2986
  237MOL0     H31280   9.027   6.862   4.399  1.6697  0.1830  3.0529
  237MOL0     H31281   9.020   7.017   4.461  2.9389 -2.1197 -1.2445
  237MOL0     H31282   8.943   6.791   4.813 -1.5972  0.1445 -0.8031
  237MOL0     H31283   8.338   6.927   4.372  1.4787  0.7675 -0.9558
  237MOL0     H31284   8.112   6.978   4.327  1.5043  0.1165 -1.9921
  238MOL0     O31285  10.230   3.223   1.381 -0.0369 -0.5275  0.3341
  238MOL0     C31286  10.134   3.226   1.309  0.1857  0.5582  0.1976
  238MOL0     O31287  10.133   3.236   1.173 -0.3161 -0.5633 -0.5068
  238MOL0     C31288  10.246   3.298   1.122 -0.0227 -0.0793 -0.4650
  238MOL0     C31289  10.270   3.433   1.142  0.0877 -0.5542  0.4796
  238MOL0     C31290  10.369   3.505   1.070  0.8438 -0.5173  0.1976
  238MOL0     C31291  10.471   3.434   1.000  0.6695 -1.2939  0.1564
  238MOL0     O31292  10.576   3.510   0.940 -0.2816 -0.0686 -0.3967
  238MOL0     C31293  10.710   3.469   0.974 -0.7199  0.0396 -0.1901
  238MOL0     C31294  10.739   3.495   1.126 -0.4921 -0.5568  0.2486
  238MOL0     C31295  10.889   3.471   1.135  0.0591 -0.0417 -0.3722
  238MOL0     C31296  10.952   3.586   1.218  0.6722  1.1590  0.1228
  238MOL0     C31297  11.107   3.584   1.218  0.4842  0.3350  0.2579
  238MOL0     C31298  11.164   3.687   1.314 -0.6245  0.6411 -0.5729
  238MOL0     C31299  11.315   3.683   1.309  0.3298  0.0841  0.1040
  238MOL0     C31300  11.369   3.794   1.387  0.2127  0.0754 -0.2907
  238MOL0     N31301  11.513   3.797   1.385 -0.4339  0.0523  0.7602
  238MOL0     C31302  11.610   3.711   1.444  0.2242 -0.0116 -0.6765
  238MOL0     C31303  11.725   3.763   1.402 -0.6725  0.1253 -0.8983
  238MOL0     C31304  11.857   3.699   1.440  0.0407  0.6765  1.0389
  238MOL0     C31305  11.854   3.545   1.398 -0.3275 -0.4410 -0.3423
  238MOL0     C31306  11.851   3.539   1.245  0.5506  0.2634 -0.5698
  238MOL0     C31307  11.794   3.399   1.206 -0.4968 -0.1558  0.6119
  238MOL0     O31308  11.651   3.396   1.233 -0.3559 -0.6511 -0.0866
  238MOL0     C31309  11.562   3.408   1.131 -0.3845  0.4914  0.4321
  238MOL0     C31310  11.433   3.363   1.163  0.4143 -0.3173 -0.8468
  238MOL0     C31311  11.332   3.369   1.069  0.0580 -0.5789 -0.2678
  238MOL0     C31312  11.355   3.416   0.940 -0.5221 -1.1211 -0.3259
  238MOL0     C31313  11.246   3.429   0.844 -0.2818  0.3539  0.1076
  238MOL0     O31314  11.143   3.340   0.847 -0.1751  0.5555  0.0011
  238MOL0     C31315  11.025   3.367   0.776 -0.0665 -0.3262  0.4567
  238MOL0     C31316  10.969   3.257   0.713  0.4399  0.2779  0.5007
  238MOL0     C31317  10.852   3.278   0.636 -0.2082  0.0477 -0.4857
  238MOL0     C31318  10.801   3.406   0.616 -0.5021  0.0261 -0.4266
  238MOL0     O31319  10.699   3.428   0.531  0.5354  0.5392  0.3237
  238MOL0     C31320  10.580   3.486   0.579  0.5763 -0.0818 -0.1431
  238MOL0     C31321  10.459   3.399   0.533  0.4242  0.2369  0.1782
  238MOL0     C31322  10.335   3.482   0.553  0.8311 -0.5587  1.1703
  238MOL0     C31323  10.193   3.406   0.544  0.6151  0.2184 -0.4561
  238MOL0     C31324  10.083   3.487   0.618 -0.2626 -0.3878  1.2254
  238MOL0     C31325  10.116   3.516   0.762 -0.0626 -1.1693  0.3277
  238MOL0     C31326   9.997   3.594   0.819 -0.5465  0.2734  0.4159
  238MOL0     C31327  10.020   3.609   0.970 -0.9602 -0.5485  0.1125
  238MOL0    Cl31328   9.900   3.723   1.021  0.0974 -0.4976 -0.2733
  238MOL0     C31329  10.859   3.518   0.676  0.4571  0.4207  0.0827
  238MOL0     C31330  10.969   3.492   0.754  0.6489 -0.5436  0.5161
  238MOL0     O31331  11.253   3.512   0.751  0.1934  0.9854 -1.0153
  238MOL0     C31332  11.488   3.462   0.909  0.4579  0.2547  0.3320
  238MOL0     C31333  11.592   3.455   0.998 -0.8954  0.0388 -0.8208
  238MOL0     N31334  11.702   3.869   1.322  0.0875 -0.2927 -0.5526
  238MOL0     N31335  11.582   3.889   1.308 -0.8675  0.7990 -0.2841
  238MOL0     C31336  10.444   3.304   0.973  0.9469  0.2348  0.5807
  238MOL0     C31337  10.334   3.230   1.034 -0.2076 -0.2239  0.2779
  238MOL0     C31338  10.001   3.230   1.366 -0.3877 -0.0957 -0.2721
  238MOL0     C31339   9.888   3.180   1.296 -1.0217 -0.9254  0.5892
  238MOL0     C31340   9.761   3.192   1.340 -0.5110  0.4555 -0.7572
  238MOL0     C31341   9.728   3.262   1.460 -1.1570  0.7508 -0.8404
  238MOL0     O31342   9.602   3.272   1.505 -0.3654 -0.4338  0.9313
  238MOL0     C31343   9.489   3.234   1.423 -0.1477  0.0343  0.1026
  238MOL0     C31344   9.378   3.182   1.499  0.8816  0.1374  0.2658
  238MOL0     C31345   9.406   3.069   1.588  0.3174 -0.1796  0.5480
  238MOL0     C31346   9.311   3.065   1.714 -0.8350  0.6238  0.8372
  238MOL0     C31347   9.172   3.041   1.669 -0.6866 -0.5163 -0.3439
  238MOL0     C31348   9.058   3.016   1.650 -0.1471 -0.0467 -0.3019
  238MOL0     C31349   9.838   3.279   1.546  0.1601 -0.4943  0.0170
  238MOL0     C31350   9.973   3.269   1.495  0.5587 -0.6994  0.0721
  238MOL0     H31351  10.202   3.485   1.209  0.5962  1.3808 -0.4369
  238MOL0     H31352  10.382   3.611   1.092 -2.8524  0.1584 -0.3417
  238MOL0     H31353  10.781   3.533   0.920 -1.2159 -1.1943 -2.4112
  238MOL0     H31354  10.724   3.368   0.935  0.1769  0.9418 -2.3645
  238MOL0     H31355  10.686   3.417   1.182  0.0550 -0.0994  1.4383
  238MOL0     H31356  10.688   3.584   1.163  1.2524 -0.6399  3.1583
  238MOL0     H31357  10.941   3.481   1.040  0.5661 -2.0445 -0.3510
  238MOL0     H31358  10.910   3.369   1.167  1.3182 -1.1844 -4.3122
  238MOL0     H31359  10.919   3.685   1.187 -2.7226 -0.2384 -1.1845
  238MOL0     H31360  10.918   3.567   1.321  1.5576 -0.3749  0.1736
  238MOL0     H31361  11.147   3.596   1.116  2.6743 -2.1194  0.7232
  238MOL0     H31362  11.143   3.486   1.252  1.6869  0.6691  0.0060
  238MOL0     H31363  11.122   3.673   1.414 -0.3912  0.1425 -0.5431
  238MOL0     H31364  11.137   3.788   1.282  1.8493  1.4970 -0.1922
  238MOL0     H31365  11.355   3.592   1.353  0.2496  0.4725  1.0063
  238MOL0     H31366  11.356   3.699   1.209  0.5633 -1.0982  0.0074
  238MOL0     H31367  11.332   3.774   1.488  1.6042 -2.7777 -0.2254
  238MOL0     H31368  11.331   3.889   1.350  2.0376  0.6408 -0.8136
  238MOL0     H31369  11.602   3.628   1.514 -0.7663 -0.2276 -1.0332
  238MOL0     H31370  11.881   3.711   1.546  0.7344 -1.7015  1.1930
  238MOL0     H31371  11.929   3.758   1.382 -3.0437  0.6600 -3.3083
  238MOL0     H31372  11.773   3.486   1.442 -1.9625  0.4405 -2.0250
  238MOL0     H31373  11.945   3.494   1.433 -0.2565 -0.3650 -0.4147
  238MOL0     H31374  11.768   3.600   1.209 -1.6846 -1.1298  1.9559
  238MOL0     H31375  11.941   3.577   1.196  1.4239 -1.3779 -0.3138
  238MOL0     H31376  11.832   3.315   1.266  1.4129 -0.5518 -1.0385
  238MOL0     H31377  11.811   3.379   1.100 -2.7252  0.6242  0.0551
  238MOL0     H31378  11.406   3.323   1.261 -3.1843 -1.1080 -2.0255
  238MOL0     H31379  11.236   3.349   1.115 -1.2836  1.9294 -1.7891
  238MOL0     H31380  11.031   3.168   0.722 -0.4620 -0.1357  3.7589
  238MOL0     H31381  10.811   3.194   0.582  0.7591  0.1534 -1.4260
  238MOL0     H31382  10.555   3.577   0.524 -0.9456 -0.6449 -0.4578
  238MOL0     H31383  10.571   3.485   0.688 -1.2863 -0.6572 -0.2591
  238MOL0     H31384  10.459   3.309   0.595  1.1930 -0.3301 -0.6224
  238MOL0     H31385  10.461   3.366   0.429  0.2286  1.5927 -0.2873
  238MOL0     H31386  10.332   3.566   0.483 -0.2608 -1.0480  0.5898
  238MOL0     H31387  10.354   3.519   0.654  2.4318  3.0622 -0.3192
  238MOL0     H31388  10.170   3.382   0.439  3.4677 -3.1125 -0.5091
  238MOL0     H31389  10.199   3.313   0.600 -3.4098  1.0365  1.6925
  238MOL0     H31390   9.988   3.432   0.612  0.4802 -1.5307 -0.8010
  238MOL0     H31391  10.062   3.574   0.555 -1.7272 -1.8101 -0.3482
  238MOL0     H31392  10.203   3.581   0.775  0.2106 -1.0266 -1.9344
  238MOL0     H31393  10.127   3.414   0.800 -2.1005 -1.3107  0.6472
  238MOL0     H31394  10.001   3.694   0.775 -2.6800  0.7100  1.1149
  238MOL0     H31395   9.907   3.534   0.805  1.2732 -2.6501  0.2789
  238MOL0     H31396  10.123   3.644   0.980 -1.2904  0.2372  0.8554
  238MOL0     H31397  10.004   3.521   1.034  5.9959 -1.2770  1.6274
  238MOL0     H31398  10.797   3.608   0.674 -4.0666 -2.3992 -1.7127
  238MOL0     H31399  11.011   3.587   0.788  4.9420 -1.0642 -2.5139
  238MOL0     H31400  11.513   3.500   0.810  1.4639 -2.4502 -0.5282
  238MOL0     H31401  11.696   3.482   0.985 -0.5962 -0.1659  0.9261
  238MOL0     H31402  10.517   3.251   0.912  0.8398 -1.3282  1.7473
  238MOL0     H31403  10.300   3.134   0.996  0.2293 -0.0431 -0.6046
  238MOL0     H31404   9.897   3.150   1.192  0.3238  1.4963 -0.0888
  238MOL0     H31405   9.687   3.160   1.266 -0.5211  1.1723 -1.0681
  238MOL0     H31406   9.519   3.157   1.352  0.5583 -0.6002  1.0621
  238MOL0     H31407   9.446   3.320   1.370  1.6600  0.3891 -0.8402
  238MOL0     H31408   9.346   3.272   1.551  0.4933 -0.0374  0.3279
  238MOL0     H31409   9.310   3.147   1.422  1.9507  2.9712 -2.1303
  238MOL0     H31410   9.512   3.083   1.613  1.1711 -1.5263 -2.0218
  238MOL0     H31411   9.404   2.978   1.528 -0.6209  0.8869 -1.1023
  238MOL0     H31412   9.346   2.987   1.781 -1.2648  0.1755  0.5450
  238MOL0     H31413   9.318   3.161   1.767 -0.8857  0.2214  1.5896
  238MOL0     H31414   8.960   2.995   1.615  0.1506 -1.7151 -0.1924
  238MOL0     H31415   9.833   3.302   1.652 -0.6624  1.3165 -0.3662
  238MOL0     H31416  10.059   3.305   1.551  1.7730  3.0089 -3.6128
  239MOL0     O31417   3.728   4.849   3.738 -0.2342  0.9060 -0.2883
  239MOL0     C31418   3.809   4.778   3.803  0.5508 -0.0034  0.5179
  239MOL0     O31419   3.887   4.820   3.906  0.0616 -0.4224 -0.3085
  239MOL0     C31420   3.887   4.954   3.958 -0.4031  0.4913  1.2960
  239MOL0     C31421   3.875   4.968   4.100 -0.3257 -0.4786  0.3557
  239MOL0     C31422   3.869   5.098   4.151 -0.1956 -0.5567  0.5752
  239MOL0     C31423   3.883   5.216   4.071 -0.0208  0.6018 -0.1949
  239MOL0     O31424   3.882   5.331   4.139  0.6872  0.0822 -0.5265
  239MOL0     C31425   3.890   5.445   4.053  0.3731 -0.2850  0.6176
  239MOL0     C31426   3.924   5.562   4.142  0.2785  1.0188  0.5759
  239MOL0     C31427   4.052   5.523   4.215 -1.1413  0.1810 -0.8489
  239MOL0     C31428   4.107   5.633   4.305 -0.7546  0.7779 -0.1500
  239MOL0     C31429   4.252   5.600   4.349  0.4009 -0.1483 -0.3833
  239MOL0     C31430   4.357   5.611   4.236 -0.7022 -0.6983 -0.0228
  239MOL0     C31431   4.501   5.605   4.291 -0.1422 -0.2625 -0.2550
  239MOL0     C31432   4.548   5.463   4.292  0.5036  0.4816 -0.3982
  239MOL0     N31433   4.630   5.428   4.405 -0.3351  0.3374 -0.7203
  239MOL0     C31434   4.589   5.421   4.536  0.7499  0.1970 -0.6840
  239MOL0     C31435   4.695   5.367   4.605 -0.3860 -0.0735  0.2438
  239MOL0     C31436   4.695   5.354   4.755  0.5436 -0.7062  0.5819
  239MOL0     C31437   4.562   5.349   4.821 -0.3959  0.3731 -0.3256
  239MOL0     C31438   4.484   5.229   4.779 -0.4378 -0.1865  0.3854
  239MOL0     C31439   4.522   5.111   4.866  0.8736  0.2477 -0.4584
  239MOL0     O31440   4.503   5.123   5.013 -0.4722 -0.6794  0.7278
  239MOL0     C31441   4.371   5.140   5.050  0.3487 -0.0812 -0.7324
  239MOL0     C31442   4.343   5.186   5.186  0.0150  0.6512 -0.6560
  239MOL0     C31443   4.220   5.221   5.240  0.0248  0.9090  0.6215
  239MOL0     C31444   4.111   5.199   5.151  0.2840 -0.2747 -0.7999
  239MOL0     C31445   3.977   5.220   5.208 -0.0619 -0.7037  0.3754
  239MOL0     O31446   3.977   5.268   5.338  0.1575  0.2352  0.6332
  239MOL0     C31447   3.853   5.272   5.388 -0.5684 -0.3224  0.2618
  239MOL0     C31448   3.808   5.163   5.471  0.4031 -0.5492 -0.0281
  239MOL0     C31449   3.683   5.176   5.530 -0.3352 -0.2622  0.3279
  239MOL0     C31450   3.594   5.279   5.509 -0.8260  0.0806  0.2403
  239MOL0     O31451   3.486   5.273   5.588 -0.0912 -0.8407 -0.0719
  239MOL0     C31452   3.369   5.310   5.510 -0.0246 -0.7882  0.0883
  239MOL0     C31453   3.257   5.294   5.602  0.5184  0.2300 -0.7871
  239MOL0     C31454   3.128   5.339   5.544 -0.2111  0.1219 -0.0371
  239MOL0     C31455   3.018   5.354   5.650  0.2162  1.0761  0.0213
  239MOL0     C31456   2.876   5.361   5.599 -0.3994  0.0802  0.1549
  239MOL0     C31457   2.840   5.505   5.552 -0.6651 -0.5814 -0.1609
  239MOL0     C31458   2.700   5.477   5.488 -0.2178  0.5261  0.0585
  239MOL0     C31459   2.652   5.607   5.413  0.2222  0.1700 -0.3291
  239MOL0    Cl31460   2.611   5.743   5.514  0.2843  0.2541 -0.2335
  239MOL0     C31461   3.637   5.383   5.425  0.1207 -0.2327  0.1611
  239MOL0     C31462   3.769   5.383   5.365  0.6002 -0.4971  0.6786
  239MOL0     O31463   3.878   5.196   5.135 -0.0772  0.2134 -0.1523
  239MOL0     C31464   4.122   5.151   5.019 -0.1871 -0.6179 -0.3808
  239MOL0     C31465   4.252   5.118   4.975  0.2183  0.6458  0.1219
  239MOL0     N31466   4.795   5.352   4.509 -0.3676  0.8953 -0.3808
  239MOL0     N31467   4.755   5.383   4.392  0.5145 -0.1651  0.0102
  239MOL0     C31468   3.897   5.193   3.930  0.3749 -0.3731 -1.0787
  239MOL0     C31469   3.913   5.066   3.879  0.6249  0.2546 -0.3422
  239MOL0     C31470   3.803   4.634   3.774 -0.1350  0.3371 -0.3402
  239MOL0     C31471   3.901   4.541   3.811 -0.6555  1.0474 -0.0093
  239MOL0     C31472   3.885   4.403   3.782 -0.1822 -0.1151 -1.2308
  239MOL0     C31473   3.772   4.364   3.714  0.1682 -1.0902 -0.6496
  239MOL0     O31474   3.765   4.234   3.675 -0.4274 -0.5427 -0.3139
  239MOL0     C31475   3.792   4.213   3.536 -0.2880  0.0942 -0.4442
  239MOL0     C31476   3.778   4.058   3.509  0.1231  0.1885 -0.4394
  239MOL0     C31477   3.646   4.010   3.568 -0.4999  0.2632  0.6998
  239MOL0     C31478   3.614   3.877   3.499 -0.0752  0.7347  0.1418
  239MOL0     C31479   3.486   3.816   3.547  1.0149 -0.0708 -0.1549
  239MOL0     C31480   3.399   3.759   3.614  0.2456  0.4047  0.1381
  239MOL0     C31481   3.667   4.450   3.681 -0.5675  1.0805  1.1023
  239MOL0     C31482   3.680   4.580   3.714  0.3982  0.2504 -0.1591
  239MOL0     H31483   3.858   4.883   4.165  0.8424  0.0730  1.4174
  239MOL0     H31484   3.838   5.116   4.254 -0.3035  0.9470  0.3034
  239MOL0     H31485   3.796   5.459   4.000  1.6870  1.1576 -1.4786
  239MOL0     H31486   3.966   5.437   3.975  1.9610  1.9029  1.8397
  239MOL0     H31487   3.845   5.563   4.218  0.8330 -1.8888  1.2927
  239MOL0     H31488   3.916   5.654   4.083 -3.4049  0.1738 -0.5319
  239MOL0     H31489   4.127   5.505   4.138 -0.5744 -0.4040 -0.1721
  239MOL0     H31490   4.048   5.427   4.266 -1.5710 -0.0767 -1.3620
  239MOL0     H31491   4.097   5.735   4.268 -0.8254  0.8056 -0.0556
  239MOL0     H31492   4.055   5.625   4.401 -0.3537 -0.1248  0.0046
  239MOL0     H31493   4.230   5.496   4.372 -0.8460  0.2911  0.5158
  239MOL0     H31494   4.264   5.647   4.447 -2.0916  0.4637 -0.2938
  239MOL0     H31495   4.345   5.704   4.180 -1.6807 -1.2662 -0.7915
  239MOL0     H31496   4.341   5.531   4.163  1.2998 -1.6507  0.5173
  239MOL0     H31497   4.561   5.659   4.218 -2.3712  3.0572  0.1217
  239MOL0     H31498   4.515   5.648   4.391  0.4214 -1.1897  0.0751
  239MOL0     H31499   4.598   5.447   4.196  3.1644  0.4066  0.9009
  239MOL0     H31500   4.463   5.395   4.298 -0.0729  1.3044  1.8682
  239MOL0     H31501   4.499   5.458   4.583  2.6188  1.1228  2.4290
  239MOL0     H31502   4.751   5.442   4.787 -1.2503  0.8406 -0.3589
  239MOL0     H31503   4.757   5.269   4.786  2.3923  0.5577  0.5543
  239MOL0     H31504   4.502   5.435   4.789 -2.0707 -0.7785 -0.3807
  239MOL0     H31505   4.567   5.363   4.930  0.5711 -2.1234 -0.0055
  239MOL0     H31506   4.381   5.257   4.800 -0.5931  0.8418 -1.5351
  239MOL0     H31507   4.489   5.206   4.672  1.2613  0.9478  0.1798
  239MOL0     H31508   4.628   5.088   4.853  0.6709 -0.2894 -1.1963
  239MOL0     H31509   4.471   5.022   4.826  1.9020 -0.2128 -0.7801
  239MOL0     H31510   4.427   5.197   5.254 -0.0487 -1.1913 -0.2286
  239MOL0     H31511   4.218   5.263   5.340 -0.4710 -0.4914  1.2256
  239MOL0     H31512   3.868   5.078   5.500  0.2627 -0.8547 -0.6161
  239MOL0     H31513   3.645   5.101   5.600 -3.5510  0.2892 -0.6635
  239MOL0     H31514   3.360   5.250   5.419 -0.9919  0.1320 -0.4288
  239MOL0     H31515   3.369   5.411   5.467  3.0592  0.4202  2.4890
  239MOL0     H31516   3.277   5.362   5.686  0.3049 -1.0638  0.3493
  239MOL0     H31517   3.244   5.193   5.641 -3.7308  0.5657 -0.9371
  239MOL0     H31518   3.098   5.262   5.471  0.4463  0.6832 -0.9221
  239MOL0     H31519   3.136   5.433   5.490  0.4145 -0.6450 -1.3277
  239MOL0     H31520   3.034   5.267   5.715 -2.5195  0.9176  0.5908
  239MOL0     H31521   3.019   5.439   5.719 -1.1151  1.4586 -0.4067
  239MOL0     H31522   2.804   5.335   5.677  0.2734 -0.2658  0.6728
  239MOL0     H31523   2.862   5.286   5.521 -0.5742  0.4504 -0.1706
  239MOL0     H31524   2.910   5.537   5.474 -1.7262 -1.0873 -1.3684
  239MOL0     H31525   2.826   5.576   5.633 -2.6859 -0.8557 -0.1996
  239MOL0     H31526   2.722   5.405   5.409  1.5092  0.1468  0.8283
  239MOL0     H31527   2.620   5.443   5.554 -0.3944 -4.8082 -2.4247
  239MOL0     H31528   2.560   5.587   5.358 -1.0956 -2.3900  2.5316
  239MOL0     H31529   2.719   5.647   5.336 -3.1217  1.8331 -2.5945
  239MOL0     H31530   3.561   5.460   5.420 -0.6804 -0.7865  2.5781
  239MOL0     H31531   3.814   5.463   5.307  1.9867 -1.2123  0.7125
  239MOL0     H31532   4.029   5.125   4.969 -2.7492 -2.0885  4.4868
  239MOL0     H31533   4.255   5.081   4.873  1.0260  2.8309 -0.6916
  239MOL0     H31534   3.899   5.278   3.862 -3.0724  0.4775 -0.2895
  239MOL0     H31535   3.933   5.068   3.772 -0.5613  4.1418 -0.6496
  239MOL0     H31536   3.993   4.555   3.866  0.9299  0.4850 -2.3772
  239MOL0     H31537   3.958   4.329   3.811 -0.2641  0.6243  1.0787
  239MOL0     H31538   3.893   4.253   3.518  0.9744 -3.0040 -0.9338
  239MOL0     H31539   3.724   4.263   3.467 -0.5498  0.0006 -0.2539
  239MOL0     H31540   3.796   4.035   3.404  3.2477  0.6457 -0.1008
  239MOL0     H31541   3.855   4.016   3.575 -2.0874 -0.7861  1.6904
  239MOL0     H31542   3.571   4.087   3.545  1.5494  1.7377 -1.5139
  239MOL0     H31543   3.652   3.994   3.676  1.4388  0.0051  0.5751
  239MOL0     H31544   3.591   3.895   3.394 -1.5274 -0.3766  0.2251
  239MOL0     H31545   3.696   3.804   3.497 -0.8548 -0.2249 -3.3656
  239MOL0     H31546   3.341   3.721   3.695  1.9868  2.2025  2.3722
  239MOL0     H31547   3.590   4.396   3.627  1.4810 -2.4911  1.4042
  239MOL0     H31548   3.599   4.648   3.686  0.6801 -0.0958 -1.9162
  240MOL0     O31549  10.126   6.116   5.180  0.6323  1.1724 -0.7661
  240MOL0     C31550  10.203   6.072   5.263 -0.4866 -0.3379 -0.1566
  240MOL0     O31551  10.193   6.061   5.399 -0.0798 -0.1375 -0.2893
  240MOL0     C31552  10.078   6.084   5.468 -0.2590 -1.0976 -0.7480
  240MOL0     C31553   9.956   6.138   5.411 -1.5568  0.3613 -0.1347
  240MOL0     C31554   9.847   6.157   5.494  0.6009  0.0471  0.1546
  240MOL0     C31555   9.848   6.127   5.629 -0.3679  0.1430  0.3714
  240MOL0     O31556   9.726   6.142   5.702 -0.8304 -0.1843 -0.1187
  240MOL0     C31557   9.745   6.177   5.840  1.2678  0.0995  0.5661
  240MOL0     C31558   9.624   6.232   5.911  0.1880  0.2688  0.5842
  240MOL0     C31559   9.497   6.135   5.899 -0.5948 -0.6064  0.1421
  240MOL0     C31560   9.379   6.180   5.997  0.2055 -0.3427  1.1012
  240MOL0     C31561   9.254   6.096   5.972 -0.1255 -0.7336 -0.4320
  240MOL0     C31562   9.278   5.945   5.990  0.4350  1.2566 -0.1663
  240MOL0     C31563   9.147   5.874   5.992  0.3362 -0.0607 -0.0406
  240MOL0     C31564   9.157   5.727   5.948 -0.7300 -0.9135 -1.0899
  240MOL0     N31565   9.030   5.650   5.978 -0.0544  0.0235 -0.6905
  240MOL0     C31566   8.920   5.658   5.905  0.8859  0.1213 -0.0667
  240MOL0     C31567   8.828   5.584   5.969  0.0170  0.6721 -0.1178
  240MOL0     C31568   8.679   5.549   5.923  0.5387 -0.2891 -0.5169
  240MOL0     C31569   8.652   5.593   5.779  0.3242 -0.3573 -0.4194
  240MOL0     C31570   8.668   5.480   5.671 -0.0284  0.1514  0.7456
  240MOL0     C31571   8.555   5.475   5.569 -0.4056  0.1091 -0.1269
  240MOL0     O31572   8.464   5.382   5.621 -0.1102 -0.0280  0.5097
  240MOL0     C31573   8.337   5.398   5.576  0.5799  0.2017  0.2398
  240MOL0     C31574   8.313   5.409   5.438 -0.4268  0.0280  0.3757
  240MOL0     C31575   8.175   5.431   5.403  0.6515  1.1950  0.3864
  240MOL0     C31576   8.078   5.424   5.502  0.5129  0.2229  0.5307
  240MOL0     C31577   7.936   5.468   5.465  0.6614 -0.3925 -1.0537
  240MOL0     O31578   7.887   5.444   5.335  0.1271  0.0307 -0.2641
  240MOL0     C31579   7.750   5.464   5.303 -0.4967  0.8738 -0.2509
  240MOL0     C31580   7.706   5.544   5.199 -0.6994  0.0909 -0.2336
  240MOL0     C31581   7.577   5.554   5.163  0.4724 -0.0830 -0.2324
  240MOL0     C31582   7.481   5.483   5.235  0.1837  0.8295 -0.3392
  240MOL0     O31583   7.353   5.498   5.184  0.6946  0.0898  0.6114
  240MOL0     C31584   7.248   5.507   5.281  0.0958  0.5210  0.5155
  240MOL0     C31585   7.141   5.594   5.214 -0.1352 -0.1449 -0.0083
  240MOL0     C31586   7.035   5.632   5.322 -0.4617  0.0848 -0.7235
  240MOL0     C31587   6.927   5.712   5.253 -0.2718 -0.0984 -0.2641
  240MOL0     C31588   6.806   5.719   5.340  0.2746  0.3539  0.4090
  240MOL0     C31589   6.701   5.791   5.260  0.3951 -0.9459  0.9018
  240MOL0     C31590   6.608   5.841   5.367  0.5829 -0.7814 -0.2708
  240MOL0     C31591   6.502   5.938   5.308 -0.3213 -0.9536 -1.7881
  240MOL0    Cl31592   6.384   5.833   5.227  0.0524 -0.2728  0.0584
  240MOL0     C31593   7.520   5.404   5.341 -0.4133  0.3127 -0.3425
  240MOL0     C31594   7.655   5.394   5.374  0.0267 -0.5972 -0.5967
  240MOL0     O31595   7.867   5.499   5.559  0.4907 -0.1354 -0.7932
  240MOL0     C31596   8.108   5.410   5.631 -0.6200  0.4403 -0.1200
  240MOL0     C31597   8.243   5.394   5.669  0.2489  0.1516  0.2279
  240MOL0     N31598   8.882   5.533   6.084 -0.4978 -0.8529  0.7294
  240MOL0     N31599   9.003   5.572   6.089 -0.0785 -0.0999 -0.6318
  240MOL0     C31600   9.972   6.089   5.690  0.0082  0.6294 -1.1761
  240MOL0     C31601  10.079   6.073   5.609 -0.1806  0.8176  0.4260
  240MOL0     C31602  10.331   6.010   5.214 -0.5025 -0.1387  0.3373
  240MOL0     C31603  10.357   6.001   5.076 -0.6097  0.0903  0.4137
  240MOL0     C31604  10.480   5.945   5.035  0.8554 -0.3639 -0.4008
  240MOL0     C31605  10.571   5.876   5.117  0.3680  0.0357 -0.7086
  240MOL0     O31606  10.675   5.812   5.054  0.9626 -0.0170 -0.3469
  240MOL0     C31607  10.761   5.887   4.969  0.0255  0.4327 -0.4581
  240MOL0     C31608  10.888   5.806   4.954  0.6454  0.9353 -0.0242
  240MOL0     C31609  10.890   5.717   4.827  0.0632 -0.8524 -0.3955
  240MOL0     C31610  10.970   5.596   4.850 -1.0796 -0.1891 -0.0142
  240MOL0     C31611  10.968   5.499   4.745 -0.4954  0.1892  0.2400
  240MOL0     C31612  10.944   5.414   4.660  0.7008 -0.3865  0.7415
  240MOL0     C31613  10.546   5.880   5.252  0.0913 -0.3528  0.4651
  240MOL0     C31614  10.436   5.954   5.303  0.9492 -1.0876 -1.0126
  240MOL0     H31615   9.950   6.177   5.311 -1.3451 -2.6119 -1.4280
  240MOL0     H31616   9.755   6.197   5.451  0.1323 -1.5443 -0.3975
  240MOL0     H31617   9.835   6.238   5.846  1.7143 -0.3380 -1.1299
  240MOL0     H31618   9.768   6.084   5.893 -2.4746 -1.5729 -0.4120
  240MOL0     H31619   9.605   6.329   5.865  2.5058  0.9910  1.0650
  240MOL0     H31620   9.656   6.255   6.013  0.9295 -4.3693  1.6358
  240MOL0     H31621   9.538   6.039   5.931  0.1105 -0.0629  0.9166
  240MOL0     H31622   9.467   6.127   5.794 -0.4121  1.9657 -0.1892
  240MOL0     H31623   9.403   6.167   6.103  0.5762  1.0619  1.2038
  240MOL0     H31624   9.366   6.286   5.973  1.5229  0.4585  3.5524
  240MOL0     H31625   9.220   6.119   5.870 -2.4199  0.7534  0.5847
  240MOL0     H31626   9.179   6.129   6.044  1.6291  0.9060  0.7397
  240MOL0     H31627   9.316   5.929   6.091  2.6882 -0.6537 -1.2272
  240MOL0     H31628   9.350   5.901   5.920 -1.1091 -0.8288 -0.5496
  240MOL0     H31629   9.110   5.879   6.095  1.9952  2.8240  0.5298
  240MOL0     H31630   9.081   5.924   5.921  0.5777  2.8984  1.6402
  240MOL0     H31631   9.230   5.675   6.012 -2.4041 -4.2512 -1.6803
  240MOL0     H31632   9.184   5.713   5.843  0.5131 -1.3383 -0.7334
  240MOL0     H31633   8.891   5.712   5.815 -4.3620 -0.1763  1.1307
  240MOL0     H31634   8.613   5.603   5.992  0.4042 -0.7181 -0.3017
  240MOL0     H31635   8.663   5.441   5.933  2.5701 -0.6488 -0.7073
  240MOL0     H31636   8.707   5.685   5.760  3.0256 -1.8288 -0.2127
  240MOL0     H31637   8.548   5.628   5.774  0.1984 -0.0655  2.5254
  240MOL0     H31638   8.763   5.495   5.619 -0.9159  0.5330 -0.8346
  240MOL0     H31639   8.663   5.385   5.724 -0.6813  0.5896  1.4987
  240MOL0     H31640   8.590   5.442   5.470  0.4933 -0.1201  0.2637
  240MOL0     H31641   8.509   5.573   5.552  1.5410  1.3906  1.5637
  240MOL0     H31642   8.391   5.395   5.363  1.6869  0.9114  2.2957
  240MOL0     H31643   8.139   5.432   5.300 -0.4990 -2.0695  0.6247
  240MOL0     H31644   7.784   5.597   5.144 -1.9999  3.6838  1.0880
  240MOL0     H31645   7.550   5.623   5.084 -1.1996 -0.8055 -0.3369
  240MOL0     H31646   7.276   5.552   5.377 -1.4580 -2.2980  2.4232
  240MOL0     H31647   7.208   5.406   5.293  1.3167 -0.2972 -1.7360
  240MOL0     H31648   7.088   5.548   5.130 -2.3318  2.7098 -0.3323
  240MOL0     H31649   7.194   5.680   5.172  2.0211 -2.3192 -2.0277
  240MOL0     H31650   7.093   5.691   5.394 -2.4020  1.9082 -0.5950
  240MOL0     H31651   6.986   5.554   5.381 -3.5786  0.1587 -2.9800
  240MOL0     H31652   6.964   5.812   5.228 -2.1076  0.2565 -1.7191
  240MOL0     H31653   6.898   5.670   5.157  0.4747  0.5706 -0.7950
  240MOL0     H31654   6.833   5.768   5.434  1.4059  1.4185 -0.4355
  240MOL0     H31655   6.784   5.614   5.362  3.2632 -0.7616 -1.2586
  240MOL0     H31656   6.650   5.736   5.181 -0.2964  0.7283  0.1396
  240MOL0     H31657   6.740   5.880   5.209 -1.6335  0.8428  2.2647
  240MOL0     H31658   6.560   5.756   5.417  0.6235  0.3006  1.7003
  240MOL0     H31659   6.665   5.894   5.444 -1.3975  0.5355  0.3276
  240MOL0     H31660   6.545   6.010   5.238 -2.1641  0.6748 -1.3505
  240MOL0     H31661   6.450   5.986   5.392  0.4662 -2.2056 -0.5220
  240MOL0     H31662   7.442   5.349   5.393  0.3812 -0.2724  0.2408
  240MOL0     H31663   7.686   5.339   5.463  1.4717 -0.1013 -0.7737
  240MOL0     H31664   8.034   5.404   5.711 -0.6663  2.5183  0.0409
  240MOL0     H31665   8.278   5.380   5.770  1.2003 -1.0925 -0.2461
  240MOL0     H31666   9.970   6.064   5.796  2.2498  0.9701 -1.0065
  240MOL0     H31667  10.170   6.031   5.650  0.6402  1.8538 -0.3023
  240MOL0     H31668  10.284   6.037   5.004  0.3612  2.7890  0.6400
  240MOL0     H31669  10.490   5.942   4.927  2.4855  1.6064 -0.3808
  240MOL0     H31670  10.784   5.989   5.003  1.1828 -0.5975  2.1302
  240MOL0     H31671  10.721   5.906   4.869  1.8143 -0.0420 -1.3041
  240MOL0     H31672  10.970   5.879   4.953  0.6692  0.9589  1.6127
  240MOL0     H31673  10.886   5.741   5.041 -1.9047  2.1487  0.9309
  240MOL0     H31674  10.921   5.777   4.741 -0.7722  0.1640 -0.0152
  240MOL0     H31675  10.787   5.683   4.810 -0.1772 -0.3442  0.0006
  240MOL0     H31676  11.075   5.620   4.872 -1.8168  1.0031  2.6859
  240MOL0     H31677  10.937   5.551   4.944 -0.4361 -0.5403  0.0554
  240MOL0     H31678  10.939   5.340   4.582  1.7774 -0.9488  1.1933
  240MOL0     H31679  10.620   5.834   5.317 -0.0491 -2.6512 -0.8870
  240MOL0     H31680  10.423   5.967   5.410  0.5754  2.2924 -1.3687
  241MOL0     O31681   5.137   9.721   4.573 -0.4670 -0.1001 -0.1893
  241MOL0     C31682   5.224   9.803   4.581  0.3699 -0.1895  0.0844
  241MOL0     O31683   5.215   9.932   4.631 -0.2068  0.6215 -0.4153
  241MOL0     C31684   5.093   9.974   4.665  0.5359  1.1039  0.0362
  241MOL0     C31685   5.057  10.098   4.615  0.0782 -0.0299  0.1967
  241MOL0     C31686   4.922  10.143   4.637 -0.3633 -0.3127  0.1123
  241MOL0     C31687   4.837  10.081   4.725  0.4737 -0.1276 -0.0174
  241MOL0     O31688   4.710  10.138   4.755  0.0268  0.7181  0.9236
  241MOL0     C31689   4.702  10.195   4.883 -0.6096  0.1236  0.0909
  241MOL0     C31690   4.571  10.277   4.911 -0.4774  0.9561  0.8953
  241MOL0     C31691   4.453  10.176   4.920 -0.5818 -0.0360 -0.4482
  241MOL0     C31692   4.441  10.127   5.066  0.6761 -0.3355  0.2900
  241MOL0     C31693   4.326  10.016   5.081 -0.2696 -0.2500 -0.8665
  241MOL0     C31694   4.193  10.054   5.013 -0.7197  0.5409 -1.4116
  241MOL0     C31695   4.082   9.963   5.070 -0.3238  0.3084 -0.4211
  241MOL0     C31696   3.945  10.027   5.056  0.1114  0.3423  0.4277
  241MOL0     N31697   3.836   9.935   5.093  0.3476 -0.1219 -0.6388
  241MOL0     C31698   3.797   9.826   5.023  0.2408  0.0049 -1.8844
  241MOL0     C31699   3.712   9.764   5.110  0.7444 -0.0804  0.6593
  241MOL0     C31700   3.633   9.634   5.064 -0.0063 -0.2990  0.4062
  241MOL0     C31701   3.486   9.650   5.081  0.3256  0.1656  0.0942
  241MOL0     C31702   3.447   9.638   5.233  0.7325 -0.6788  0.1385
  241MOL0     C31703   3.296   9.611   5.257  0.7077  0.7220 -0.6210
  241MOL0     O31704   3.252   9.512   5.168 -0.2899 -0.6251  0.7235
  241MOL0     C31705   3.131   9.506   5.109  0.7001 -0.2515  0.0141
  241MOL0     C31706   3.018   9.592   5.133  1.6410 -0.0131  0.4972
  241MOL0     C31707   2.896   9.580   5.076 -0.7190 -0.1676 -0.3445
  241MOL0     C31708   2.881   9.476   4.976  0.5766  1.2299  0.2679
  241MOL0     C31709   2.753   9.464   4.901 -1.1524 -0.8539  0.2283
  241MOL0     O31710   2.722   9.339   4.866 -0.1106 -0.1477  0.7772
  241MOL0     C31711   2.622   9.330   4.774 -0.2702 -0.5526  0.4552
  241MOL0     C31712   2.644   9.354   4.636 -1.0904 -0.3855 -0.8593
  241MOL0     C31713   2.540   9.336   4.541 -0.3267 -0.6897 -0.5697
  241MOL0     C31714   2.413   9.299   4.588  0.5002 -0.0837 -0.1133
  241MOL0     O31715   2.310   9.293   4.500 -0.5101 -0.1833 -0.1164
  241MOL0     C31716   2.337   9.207   4.388 -0.5468  0.2019 -0.5125
  241MOL0     C31717   2.210   9.146   4.313 -0.5760  0.4013  0.2999
  241MOL0     C31718   2.120   9.242   4.235  1.0174  0.5645  1.1065
  241MOL0     C31719   2.185   9.365   4.165  0.3410 -1.0945  0.6375
  241MOL0     C31720   2.081   9.447   4.084 -0.2586 -0.1016  0.0317
  241MOL0     C31721   2.149   9.564   4.025 -0.2206  0.2706 -0.9438
  241MOL0     C31722   2.061   9.666   3.956 -0.6711  0.1037  0.8374
  241MOL0     C31723   2.147   9.774   3.890  0.6004 -0.2501  0.3211
  241MOL0    Cl31724   2.067   9.923   3.881  0.6326 -0.1043 -0.1295
  241MOL0     C31725   2.385   9.288   4.724 -0.0551 -0.9035 -0.0106
  241MOL0     C31726   2.496   9.295   4.815 -0.5891 -0.1691  0.4216
  241MOL0     O31727   2.693   9.568   4.874 -0.4256 -0.1405 -0.0396
  241MOL0     C31728   2.989   9.389   4.954 -0.0038 -0.1142  0.1131
  241MOL0     C31729   3.113   9.403   5.019 -0.4639 -0.5057 -0.4531
  241MOL0     N31730   3.706   9.831   5.228  0.4272 -0.2350 -0.6477
  241MOL0     N31731   3.779   9.937   5.214  0.7301  0.1768 -0.4917
  241MOL0     C31732   4.878   9.960   4.791  0.4327  0.6491  0.7856
  241MOL0     C31733   5.008   9.911   4.759 -0.4329 -0.1214 -0.2330
  241MOL0     C31734   5.358   9.753   4.536 -0.9228 -0.1470  0.9891
  241MOL0     C31735   5.467   9.842   4.509  0.4992  0.1801 -0.0498
  241MOL0     C31736   5.574   9.807   4.435 -0.7256  0.0863  0.4854
  241MOL0     C31737   5.596   9.684   4.382  0.4068 -0.3343 -0.4029
  241MOL0     O31738   5.709   9.654   4.317 -0.1778  0.1038  0.6980
  241MOL0     C31739   5.678   9.596   4.191 -0.5813 -0.0538  0.0547
  241MOL0     C31740   5.820   9.597   4.117  0.4523  0.6909 -0.3554
  241MOL0     C31741   5.825   9.479   4.017  0.5118  0.3850  0.4473
  241MOL0     C31742   5.960   9.463   3.943  0.2935  0.6716 -0.4519
  241MOL0     C31743   6.077   9.451   4.032  0.4262 -0.2241 -1.1304
  241MOL0     C31744   6.168   9.456   4.111 -0.2700 -0.4321  0.9276
  241MOL0     C31745   5.506   9.586   4.419 -0.4915 -0.1276  0.1686
  241MOL0     C31746   5.379   9.624   4.485 -0.1348  0.3818  0.6240
  241MOL0     H31747   5.122  10.151   4.547 -0.5498 -0.7295 -0.9855
  241MOL0     H31748   4.895  10.229   4.577 -1.0103 -0.5439  0.0661
  241MOL0     H31749   4.781  10.270   4.884 -1.0829  0.6385  2.0018
  241MOL0     H31750   4.708  10.118   4.961 -0.7105  1.1972  1.1799
  241MOL0     H31751   4.554  10.352   4.832 -0.1280  0.3774  0.2551
  241MOL0     H31752   4.575  10.328   5.008 -0.5112  0.5806  1.0933
  241MOL0     H31753   4.476  10.097   4.849  2.1401 -0.9664  1.2884
  241MOL0     H31754   4.354  10.216   4.895  0.2032  0.8385 -2.3563
  241MOL0     H31755   4.535  10.092   5.108 -0.2964 -0.2577  2.6905
  241MOL0     H31756   4.406  10.207   5.132 -2.3061 -0.1709 -1.3150
  241MOL0     H31757   4.306  10.006   5.188  0.8263  1.3954 -0.4738
  241MOL0     H31758   4.362   9.920   5.044 -1.4156 -1.6534  1.4341
  241MOL0     H31759   4.199  10.029   4.906  2.6310 -0.8510 -1.0295
  241MOL0     H31760   4.181  10.160   5.035  0.5735  0.8898 -2.2839
  241MOL0     H31761   4.090   9.887   4.992  5.0411  0.4722 -0.3707
  241MOL0     H31762   4.102   9.915   5.167 -0.5610  0.4610 -0.2932
  241MOL0     H31763   3.930  10.053   4.951  0.7252  2.2273  0.7720
  241MOL0     H31764   3.943  10.116   5.120  1.1120 -0.5437  1.7274
  241MOL0     H31765   3.832   9.780   4.931 -1.3212 -4.0829 -0.6617
  241MOL0     H31766   3.663   9.546   5.120  2.2102 -0.1653 -0.4771
  241MOL0     H31767   3.663   9.614   4.961 -0.6742  0.1944  0.1069
  241MOL0     H31768   3.431   9.577   5.021  1.0063 -0.9108  0.7532
  241MOL0     H31769   3.449   9.745   5.041 -0.3341 -0.1745 -0.1151
  241MOL0     H31770   3.514   9.573   5.291  0.3413  1.3730  3.1458
  241MOL0     H31771   3.448   9.739   5.275 -0.3349 -0.5120 -0.1987
  241MOL0     H31772   3.237   9.703   5.268  2.8597  1.8509  3.5548
  241MOL0     H31773   3.286   9.567   5.356 -2.8679  1.8843 -0.3203
  241MOL0     H31774   3.017   9.681   5.194 -2.3687  2.0175 -2.1079
  241MOL0     H31775   2.817   9.650   5.101  1.5981  2.7002 -0.5892
  241MOL0     H31776   2.745   9.384   4.607 -1.8236  1.6261 -1.5323
  241MOL0     H31777   2.563   9.357   4.437  0.4374  1.3643 -0.0411
  241MOL0     H31778   2.401   9.122   4.412  0.1240  0.9870  0.6109
  241MOL0     H31779   2.387   9.264   4.309 -0.3095 -1.5630 -1.6938
  241MOL0     H31780   2.148   9.084   4.379 -1.1577 -0.8984 -1.4008
  241MOL0     H31781   2.249   9.075   4.240  1.3229 -0.7031  2.2740
  241MOL0     H31782   2.036   9.273   4.298 -0.7778 -1.4330 -0.1564
  241MOL0     H31783   2.075   9.178   4.159 -0.0461 -1.1181  3.0334
  241MOL0     H31784   2.233   9.428   4.241  1.0414 -1.5957  0.6204
  241MOL0     H31785   2.250   9.333   4.083 -0.1373  0.3666 -0.3613
  241MOL0     H31786   1.999   9.482   4.148  1.5385  0.7789  1.9758
  241MOL0     H31787   2.041   9.386   4.003 -2.1564 -1.7257  2.0541
  241MOL0     H31788   2.225   9.536   3.951 -1.8640  0.1971 -2.6740
  241MOL0     H31789   2.199   9.608   4.111 -2.5224 -2.1596  1.8140
  241MOL0     H31790   1.990   9.610   3.894 -2.7852 -1.0319  4.0066
  241MOL0     H31791   2.004   9.714   4.036 -3.1006  1.3695 -1.4887
  241MOL0     H31792   2.187   9.743   3.793  0.3101  1.3726 -0.3573
  241MOL0     H31793   2.239   9.789   3.947 -0.6720  0.9265  2.1410
  241MOL0     H31794   2.287   9.252   4.757  0.0173 -1.9268 -0.8466
  241MOL0     H31795   2.493   9.274   4.921  1.1043  3.0370  1.2427
  241MOL0     H31796   2.970   9.316   4.876 -1.3938  2.2634 -1.9181
  241MOL0     H31797   3.195   9.334   5.001 -1.3478 -1.6373 -0.2867
  241MOL0     H31798   4.805   9.917   4.858  1.8249 -1.6298  0.9277
  241MOL0     H31799   5.033   9.821   4.815 -1.2766 -1.4170 -1.8463
  241MOL0     H31800   5.467   9.947   4.538  0.1061 -0.2439  1.5899
  241MOL0     H31801   5.643   9.885   4.405 -2.1938  1.1619 -0.1880
  241MOL0     H31802   5.598   9.651   4.141 -0.0439  1.9362  1.2671
  241MOL0     H31803   5.645   9.492   4.198 -1.1476  0.0913 -0.3803
  241MOL0     H31804   5.838   9.693   4.068 -1.7384  1.2402 -0.2180
  241MOL0     H31805   5.898   9.577   4.191  1.2088  1.7648 -0.8389
  241MOL0     H31806   5.746   9.494   3.943  1.2340  0.6134 -0.2937
  241MOL0     H31807   5.814   9.388   4.077 -0.2170 -0.3505 -0.7791
  241MOL0     H31808   5.962   9.370   3.884  0.4565  0.5852 -0.3134
  241MOL0     H31809   5.965   9.552   3.880 -1.0558  0.4488 -0.9102
  241MOL0     H31810   6.239   9.452   4.190 -0.8775  2.0747  1.6748
  241MOL0     H31811   5.511   9.480   4.397 -1.0584 -0.6038  2.1649
  241MOL0     H31812   5.305   9.545   4.491 -0.7605  0.9043 -0.0231
  242MOL0     O31813   7.945   1.248   9.559 -0.3971  0.8825 -0.2684
  242MOL0     C31814   7.994   1.187   9.459 -0.1473 -0.2292 -1.1668
  242MOL0     O31815   7.934   1.088   9.390  0.2916 -0.9724 -1.1022
  242MOL0     C31816   7.796   1.064   9.412 -0.0695 -0.8049 -0.5104
  242MOL0     C31817   7.773   0.946   9.484 -0.1616 -0.1712  0.7364
  242MOL0     C31818   7.635   0.898   9.494 -0.4895 -0.4856  0.3031
  242MOL0     C31819   7.532   0.978   9.444  0.4422  1.3489 -0.7908
  242MOL0     O31820   7.397   0.932   9.453  0.2244 -0.1667 -0.7318
  242MOL0     C31821   7.352   0.837   9.560 -0.2174  0.4679 -0.2634
  242MOL0     C31822   7.201   0.809   9.550  0.6488 -0.3401  1.0707
  242MOL0     C31823   7.111   0.932   9.549  0.1658 -0.3533  0.7561
  242MOL0     C31824   6.966   0.897   9.558 -0.3207  0.2085 -0.1714
  242MOL0     C31825   6.898   0.858   9.426  0.3442  0.8601  0.8730
  242MOL0     C31826   6.750   0.817   9.426 -0.1034 -0.0079 -0.4641
  242MOL0     C31827   6.650   0.940   9.433  0.2020 -0.2125 -0.1579
  242MOL0     C31828   6.649   0.981   9.586 -0.6191  0.0793 -0.8465
  242MOL0     N31829   6.517   1.052   9.626 -0.9398 -0.3271 -0.4662
  242MOL0     C31830   6.462   1.148   9.541  0.0605 -0.1593 -0.1691
  242MOL0     C31831   6.347   1.195   9.593 -0.4558  0.1778  0.0547
  242MOL0     C31832   6.250   1.287   9.533 -0.1359 -0.1189 -0.6719
  242MOL0     C31833   6.105   1.257   9.582  0.5310 -0.5076  0.1410
  242MOL0     C31834   6.005   1.354   9.527 -0.3251 -1.2808  0.1380
  242MOL0     C31835   5.877   1.348   9.595 -0.2446  0.3483  0.1367
  242MOL0     O31836   5.778   1.388   9.500 -0.5250  0.4134 -0.2387
  242MOL0     C31837   5.673   1.461   9.557  0.7823  0.1287  0.2634
  242MOL0     C31838   5.674   1.594   9.541  1.1296 -0.6163 -0.0925
  242MOL0     C31839   5.589   1.676   9.615 -1.0569  0.6683  0.5077
  242MOL0     C31840   5.509   1.622   9.713 -1.2178 -0.2362 -0.7750
  242MOL0     C31841   5.425   1.710   9.797  0.0668  0.0283  0.2518
  242MOL0     O31842   5.402   1.830   9.734  0.2437 -0.2458 -0.7586
  242MOL0     C31843   5.334   1.926   9.806  0.1085 -0.0589 -0.0017
  242MOL0     C31844   5.368   1.961   9.942 -0.0248  0.0285 -0.2869
  242MOL0     C31845   5.282   2.038  10.013  0.2831 -0.5084 -0.9013
  242MOL0     C31846   5.159   2.088   9.957  0.4023  0.3291  0.6774
  242MOL0     O31847   5.084   2.154  10.049 -0.3225  0.3149  0.1104
  242MOL0     C31848   4.967   2.227  10.005  0.5040  0.1810  0.8718
  242MOL0     C31849   4.878   2.264  10.127 -0.7861 -0.8084  0.2049
  242MOL0     C31850   4.966   2.341  10.232  0.3338  0.1492  0.6344
  242MOL0     C31851   4.870   2.402  10.341 -0.1920  0.3436  0.0677
  242MOL0     C31852   4.951   2.460  10.452 -1.1497 -0.7124  0.5516
  242MOL0     C31853   5.034   2.576  10.393  0.8275  0.8624 -0.2579
  242MOL0     C31854   5.089   2.665  10.508 -1.0313 -0.1366  0.1869
  242MOL0     C31855   5.229   2.636  10.555  0.5389  0.4910 -0.5371
  242MOL0    Cl31856   5.357   2.694  10.444  0.0287  0.1784 -0.4511
  242MOL0     C31857   5.138   2.073   9.823 -0.6330  0.1022  0.7249
  242MOL0     C31858   5.219   1.993   9.741 -0.1229  0.7019  0.2243
  242MOL0     O31859   5.382   1.667   9.904  1.0479 -0.0297 -0.8253
  242MOL0     C31860   5.504   1.482   9.732  0.4888 -0.6157  0.8217
  242MOL0     C31861   5.578   1.399   9.650 -0.3194  0.1364  0.0789
  242MOL0     N31862   6.341   1.137   9.722 -0.1786 -0.2316 -0.7325
  242MOL0     N31863   6.444   1.058   9.744  0.6581 -0.4150 -0.6397
  242MOL0     C31864   7.561   1.089   9.382  0.1516 -0.6285  0.5366
  242MOL0     C31865   7.685   1.140   9.363 -0.4789  0.8654  0.5580
  242MOL0     C31866   8.136   1.206   9.424  0.6083 -0.2176  0.9497
  242MOL0     C31867   8.216   1.289   9.488  0.7099 -0.5758  0.5411
  242MOL0     C31868   8.345   1.311   9.452  0.8442  0.3696 -0.7161
  242MOL0     C31869   8.397   1.254   9.344 -0.6086  0.8177 -0.5306
  242MOL0     O31870   8.532   1.268   9.316  0.3895  0.2226  0.0712
  242MOL0     C31871   8.596   1.374   9.383  0.2717  0.3345 -0.4207
  242MOL0     C31872   8.744   1.360   9.341  1.0522  0.8178  0.5196
  242MOL0     C31873   8.842   1.462   9.405 -0.1748  0.7387  0.2428
  242MOL0     C31874   8.816   1.594   9.354 -0.3262  0.3112 -0.1948
  242MOL0     C31875   8.833   1.609   9.208 -0.8387 -0.0041  0.4317
  242MOL0     C31876   8.854   1.623   9.090 -0.0076 -0.0211  0.2894
  242MOL0     C31877   8.319   1.159   9.272 -0.5353 -0.3313 -0.5278
  242MOL0     C31878   8.192   1.132   9.318  0.3767  0.2520  1.0243
  242MOL0     H31879   7.855   0.881   9.513 -0.7159 -1.6501 -0.8480
  242MOL0     H31880   7.625   0.807   9.551 -0.2218 -1.1313 -0.6568
  242MOL0     H31881   7.385   0.878   9.656 -2.2422  4.0311 -0.8856
  242MOL0     H31882   7.391   0.736   9.544  2.8314  1.4489  0.3721
  242MOL0     H31883   7.175   0.749   9.637  0.7879 -1.8414  0.1196
  242MOL0     H31884   7.175   0.743   9.466  0.6837 -1.7609  2.1359
  242MOL0     H31885   7.115   0.980   9.451  1.4365  1.4002  1.6126
  242MOL0     H31886   7.142   1.010   9.618  0.6688  0.2274 -0.1089
  242MOL0     H31887   6.943   0.832   9.644 -0.1438 -0.4644 -0.6288
  242MOL0     H31888   6.929   0.997   9.582  1.0650  0.9017 -0.8160
  242MOL0     H31889   6.951   0.770   9.387  1.3441  1.2510  1.3349
  242MOL0     H31890   6.902   0.941   9.355  2.2371  0.0283 -0.0488
  242MOL0     H31891   6.736   0.743   9.505  1.3679 -1.4481 -1.4872
  242MOL0     H31892   6.723   0.764   9.334 -0.5559  0.1554 -0.4261
  242MOL0     H31893   6.672   1.024   9.366 -1.5914  0.7208  0.3640
  242MOL0     H31894   6.552   0.906   9.397 -0.3666  3.3658 -2.5376
  242MOL0     H31895   6.717   1.064   9.608 -1.6494  0.0898  3.1734
  242MOL0     H31896   6.676   0.898   9.651 -1.7891  0.7819  0.6118
  242MOL0     H31897   6.517   1.169   9.450 -1.7215 -1.0268 -1.4996
  242MOL0     H31898   6.254   1.286   9.424 -0.5083  2.1370 -0.7437
  242MOL0     H31899   6.275   1.391   9.554 -0.4400 -0.5603  2.3969
  242MOL0     H31900   6.098   1.266   9.691 -1.1520 -1.7079  0.1769
  242MOL0     H31901   6.074   1.155   9.558 -1.3068  0.2850 -1.1129
  242MOL0     H31902   6.053   1.452   9.541 -1.5005 -0.6265 -0.2622
  242MOL0     H31903   5.998   1.349   9.418 -2.7029 -2.4358  0.2965
  242MOL0     H31904   5.878   1.398   9.692  1.4939 -0.6560  0.6993
  242MOL0     H31905   5.859   1.245   9.627 -0.1766  0.4757  0.5992
  242MOL0     H31906   5.746   1.644   9.478  1.7174 -0.4518  0.6957
  242MOL0     H31907   5.595   1.780   9.585 -0.8145  0.1833 -1.2607
  242MOL0     H31908   5.455   1.913   9.984  0.2495 -0.7097 -1.6348
  242MOL0     H31909   5.311   2.069  10.113  2.0132 -1.4219 -1.0828
  242MOL0     H31910   4.897   2.175   9.940  1.8915  1.7660 -2.0835
  242MOL0     H31911   4.999   2.314   9.947 -2.2257  0.2840 -0.6508
  242MOL0     H31912   4.813   2.186  10.169 -2.0399 -0.0205 -0.1909
  242MOL0     H31913   4.806   2.341  10.098  2.3967  2.9393  1.4368
  242MOL0     H31914   5.029   2.416  10.183  0.7131  0.7985  2.0328
  242MOL0     H31915   5.027   2.259  10.269 -2.1318 -2.0507  0.1231
  242MOL0     H31916   4.794   2.472  10.303 -3.6093 -0.5390  4.4229
  242MOL0     H31917   4.811   2.322  10.387  0.2848  1.4150  2.7251
  242MOL0     H31918   5.018   2.387  10.497  0.6691  0.9247  0.6189
  242MOL0     H31919   4.882   2.494  10.530 -1.1212 -1.2142  0.8002
  242MOL0     H31920   4.969   2.635  10.329 -2.1046 -0.6335  1.1525
  242MOL0     H31921   5.120   2.540  10.337  1.3815 -0.5523  1.4005
  242MOL0     H31922   5.091   2.770  10.480 -2.5216  0.2686  1.4940
  242MOL0     H31923   5.021   2.661  10.594 -0.2333 -0.7259  0.8100
  242MOL0     H31924   5.234   2.527  10.557  3.4340  0.5538  0.0493
  242MOL0     H31925   5.242   2.674  10.657 -2.8056  1.7527 -0.4613
  242MOL0     H31926   5.052   2.121   9.778  0.3080 -0.1838 -1.4634
  242MOL0     H31927   5.193   1.964   9.640  1.3162 -0.1405  0.0716
  242MOL0     H31928   5.440   1.436   9.806 -0.8393  0.9287  0.6914
  242MOL0     H31929   5.578   1.292   9.669 -3.3077 -0.6814 -3.4398
  242MOL0     H31930   7.474   1.143   9.345  0.3268 -1.0510 -0.5021
  242MOL0     H31931   7.696   1.233   9.307 -0.7807  1.6868  1.8174
  242MOL0     H31932   8.176   1.350   9.568 -0.3756 -0.7484  0.1472
  242MOL0     H31933   8.394   1.381   9.518  1.7144 -0.4871 -0.4341
  242MOL0     H31934   8.606   1.355   9.491  2.3615 -1.3949 -0.8491
  242MOL0     H31935   8.538   1.466   9.375 -0.3985 -0.1945 -2.1774
  242MOL0     H31936   8.781   1.260   9.364  0.3134  0.1461 -1.0730
  242MOL0     H31937   8.735   1.384   9.234 -1.4483  3.5991  1.2231
  242MOL0     H31938   8.944   1.435   9.373 -1.2969 -0.1871 -3.0242
  242MOL0     H31939   8.842   1.462   9.514  3.1095  1.1672  0.3565
  242MOL0     H31940   8.715   1.625   9.383 -1.2484 -1.4436 -1.3225
  242MOL0     H31941   8.886   1.660   9.405 -0.8298  0.1658  0.7076
  242MOL0     H31942   8.878   1.664   8.994  0.4212  1.3055  0.9424
  242MOL0     H31943   8.357   1.095   9.194  0.2074 -0.5859  0.0418
  242MOL0     H31944   8.144   1.060   9.252 -2.0380  1.4011  1.4388
  243MOL0     O31945   4.929   4.113   1.518 -0.5687  0.0635  0.2284
  243MOL0     C31946   4.829   4.179   1.520 -0.9832  0.1865 -0.4002
  243MOL0     O31947   4.823   4.310   1.564  0.1782 -0.3025  0.0759
  243MOL0     C31948   4.940   4.364   1.599  0.2093  0.2620  0.7043
  243MOL0     C31949   4.992   4.365   1.731 -0.5671 -0.1700  0.1506
  243MOL0     C31950   5.118   4.418   1.757  0.5110  0.0994 -1.2210
  243MOL0     C31951   5.199   4.469   1.660  1.2955 -0.0363 -0.1588
  243MOL0     O31952   5.322   4.524   1.697 -0.4344  1.0152  0.3086
  243MOL0     C31953   5.441   4.467   1.634 -1.4550  0.4607  0.0525
  243MOL0     C31954   5.499   4.358   1.732  0.7856 -0.5515  0.0995
  243MOL0     C31955   5.635   4.307   1.677  0.1766 -0.1337  0.3702
  243MOL0     C31956   5.749   4.402   1.697  0.1615  0.0309 -0.7721
  243MOL0     C31957   5.879   4.315   1.706  0.3723 -0.0896  0.8384
  243MOL0     C31958   6.012   4.393   1.710  0.7782 -0.4455 -0.7075
  243MOL0     C31959   6.129   4.298   1.702  0.3529  0.3605  0.3477
  243MOL0     C31960   6.139   4.182   1.809 -0.4348  0.1973  0.4407
  243MOL0     N31961   6.145   4.240   1.947  0.1791  0.4220 -0.5756
  243MOL0     C31962   6.252   4.297   1.996 -0.7441 -0.0346  0.4218
  243MOL0     C31963   6.230   4.354   2.113  0.8168  0.0994 -0.4864
  243MOL0     C31964   6.297   4.452   2.202  0.1425 -0.0641  0.3324
  243MOL0     C31965   6.433   4.494   2.143 -0.1334 -0.6110 -1.1224
  243MOL0     C31966   6.476   4.622   2.224 -0.6227 -0.7947  0.4718
  243MOL0     C31967   6.615   4.661   2.166 -0.1562  0.0982  0.4063
  243MOL0     O31968   6.662   4.775   2.235 -0.6734  0.1982  0.0007
  243MOL0     C31969   6.642   4.900   2.182 -0.0037 -0.2246  0.7686
  243MOL0     C31970   6.713   4.933   2.063  0.1677 -0.7702 -0.6995
  243MOL0     C31971   6.682   5.048   2.007  0.5352  0.1458 -0.2690
  243MOL0     C31972   6.606   5.149   2.069 -0.3278  0.3277  0.2339
  243MOL0     C31973   6.583   5.274   1.993  0.0017  1.2959  0.0576
  243MOL0     O31974   6.529   5.375   2.069  0.5436 -0.3188  0.5130
  243MOL0     C31975   6.465   5.471   1.995  0.9310 -0.0925  0.4301
  243MOL0     C31976   6.334   5.452   1.942  0.3536  1.2155 -0.0677
  243MOL0     C31977   6.261   5.557   1.888 -0.5292 -0.2025 -0.1735
  243MOL0     C31978   6.316   5.678   1.874 -0.5924  0.4713 -0.1899
  243MOL0     O31979   6.249   5.786   1.821 -0.3254  0.2244 -0.4011
  243MOL0     C31980   6.135   5.834   1.891  0.4395  0.4430 -0.2427
  243MOL0     C31981   6.053   5.931   1.803  0.2651 -0.8379  0.0002
  243MOL0     C31982   5.992   5.861   1.676  0.2926  0.4799  0.6499
  243MOL0     C31983   5.899   5.953   1.598 -1.1330 -0.1250  1.0030
  243MOL0     C31984   5.884   5.928   1.448  0.4240  0.0571  0.1080
  243MOL0     C31985   5.804   6.040   1.381  0.1344  0.2942 -0.0619
  243MOL0     C31986   5.770   6.026   1.237  0.7587 -0.0365  0.6025
  243MOL0     C31987   5.890   6.007   1.141 -0.2887  0.4622  0.4033
  243MOL0    Cl31988   5.843   6.072   0.984 -0.4351 -0.1094  0.1191
  243MOL0     C31989   6.451   5.703   1.909  0.4742  0.0117  0.1361
  243MOL0     C31990   6.521   5.599   1.976 -0.4893  0.8893  0.1573
  243MOL0     O31991   6.627   5.282   1.880 -0.6618  0.2518 -0.5550
  243MOL0     C31992   6.552   5.124   2.193 -0.6830  0.8151 -0.0365
  243MOL0     C31993   6.576   4.998   2.254  0.3057 -0.3186  0.0388
  243MOL0     N31994   6.105   4.310   2.147  0.9640  1.2251 -0.4953
  243MOL0     N31995   6.052   4.247   2.049  0.2590  0.8253 -0.2667
  243MOL0     C31996   5.144   4.485   1.531  0.0801  0.5307 -0.2455
  243MOL0     C31997   5.020   4.422   1.499 -0.4404  0.3571  0.2071
  243MOL0     C31998   4.693   4.130   1.479 -0.0303  0.7969 -0.0981
  243MOL0     C31999   4.673   4.001   1.425  0.0807 -1.1126 -0.4943
  243MOL0     C32000   4.548   3.960   1.396  0.5054 -0.4232  0.3632
  243MOL0     C32001   4.439   4.035   1.427 -0.0226  0.1107  0.2276
  243MOL0     O32002   4.313   3.992   1.408 -0.0285  0.1860 -0.1591
  243MOL0     C32003   4.300   3.868   1.343  0.5351 -0.1777 -0.0058
  243MOL0     C32004   4.149   3.824   1.328  0.2070 -0.5953  0.2471
  243MOL0     C32005   4.114   3.807   1.171 -0.6445  0.0914  0.0347
  243MOL0     C32006   3.969   3.767   1.155  0.7146 -0.3350  0.6905
  243MOL0     C32007   3.953   3.623   1.151 -1.1638  0.4979 -1.0844
  243MOL0     C32008   3.920   3.506   1.139  1.3963 -0.2585  0.1210
  243MOL0     C32009   4.458   4.153   1.497  0.3703  0.0093  0.6491
  243MOL0     C32010   4.580   4.213   1.520  0.6420  0.1152  0.3266
  243MOL0     H32011   4.925   4.339   1.812  0.4913 -0.5303  0.9219
  243MOL0     H32012   5.169   4.412   1.852 -1.2990  0.0212 -0.2191
  243MOL0     H32013   5.523   4.540   1.638  0.1491 -1.2731 -0.1253
  243MOL0     H32014   5.421   4.441   1.530  3.6231 -0.0950 -1.0508
  243MOL0     H32015   5.432   4.277   1.761 -2.2274  1.5901 -0.4326
  243MOL0     H32016   5.514   4.415   1.824 -3.0749 -0.2548  0.7004
  243MOL0     H32017   5.631   4.285   1.570  2.1425  1.6941 -0.1452
  243MOL0     H32018   5.662   4.212   1.726  2.1489 -0.0940 -0.5239
  243MOL0     H32019   5.752   4.483   1.624 -0.4678  1.8833  1.1335
  243MOL0     H32020   5.734   4.453   1.792  1.3235 -3.6418  1.6155
  243MOL0     H32021   5.881   4.239   1.627  0.5149  1.1923 -0.4300
  243MOL0     H32022   5.871   4.261   1.801 -2.9938  0.9650  1.3032
  243MOL0     H32023   6.007   4.438   1.809 -0.8574 -0.7451 -0.6269
  243MOL0     H32024   6.002   4.473   1.636 -1.2896 -0.4882 -0.5297
  243MOL0     H32025   6.131   4.252   1.602 -0.2786  0.3350  0.3392
  243MOL0     H32026   6.215   4.365   1.706  0.9013 -0.3916  2.5658
  243MOL0     H32027   6.222   4.113   1.789  1.2580  2.5990 -1.5251
  243MOL0     H32028   6.052   4.117   1.798 -2.0026  1.7903  2.7168
  243MOL0     H32029   6.346   4.310   1.943 -0.0919 -2.5157  0.8422
  243MOL0     H32030   6.308   4.407   2.301  0.0189 -0.0747  0.3416
  243MOL0     H32031   6.229   4.537   2.213 -0.2721 -0.6011  2.1470
  243MOL0     H32032   6.427   4.514   2.035  1.0690  2.0594 -0.7829
  243MOL0     H32033   6.509   4.416   2.157 -0.0548 -0.6457 -1.6960
  243MOL0     H32034   6.410   4.709   2.213 -2.2940 -2.0705  0.1226
  243MOL0     H32035   6.497   4.592   2.327  2.6695  0.9166  0.4631
  243MOL0     H32036   6.618   4.671   2.057 -1.3568 -0.3425  0.3187
  243MOL0     H32037   6.680   4.575   2.186  0.8464  1.0056  1.2245
  243MOL0     H32038   6.774   4.860   2.011  1.0376 -1.4514  1.1833
  243MOL0     H32039   6.731   5.051   1.909 -0.2809 -2.3732 -0.8243
  243MOL0     H32040   6.290   5.355   1.963  2.8761 -0.1863 -0.7869
  243MOL0     H32041   6.155   5.536   1.892 -1.1723  2.5810 -0.0694
  243MOL0     H32042   6.156   5.885   1.985  0.6419 -0.0196 -0.0333
  243MOL0     H32043   6.070   5.752   1.926 -2.3528  3.1021  1.2954
  243MOL0     H32044   6.120   6.015   1.782  1.3711 -0.8053  3.1145
  243MOL0     H32045   5.974   5.966   1.871  0.1076  0.8825 -0.9917
  243MOL0     H32046   5.930   5.776   1.707  2.5046 -0.5775  2.4425
  243MOL0     H32047   6.072   5.818   1.615 -0.8789 -1.6601  0.4983
  243MOL0     H32048   5.798   5.949   1.640 -1.0335 -0.1432  1.2435
  243MOL0     H32049   5.945   6.052   1.602 -0.9779 -0.0775 -1.0581
  243MOL0     H32050   5.820   5.841   1.433 -0.5037  0.5346  1.1963
  243MOL0     H32051   5.975   5.913   1.388  0.5190  3.1992 -0.7086
  243MOL0     H32052   5.865   6.130   1.395 -0.5749  0.6921  0.5338
  243MOL0     H32053   5.710   6.057   1.433  1.4937 -0.9431  3.0868
  243MOL0     H32054   5.705   5.938   1.230  1.1204 -0.3525  1.1433
  243MOL0     H32055   5.712   6.111   1.201  0.8729  0.1214  0.7871
  243MOL0     H32056   5.931   5.906   1.133  3.0893  1.7387 -0.5128
  243MOL0     H32057   5.969   6.064   1.191 -2.4883 -0.8409  6.1885
  243MOL0     H32058   6.483   5.805   1.893 -1.4244  0.4826 -1.0624
  243MOL0     H32059   6.616   5.620   2.024 -0.8238  0.3765  1.0577
  243MOL0     H32060   6.507   5.201   2.254  0.5683  1.0287  0.6508
  243MOL0     H32061   6.546   4.974   2.355 -0.5135 -0.3205 -0.1926
  243MOL0     H32062   5.203   4.540   1.458  0.2096 -0.4329 -0.8928
  243MOL0     H32063   4.987   4.421   1.396 -0.1229  0.4187  0.1050
  243MOL0     H32064   4.752   3.930   1.402 -1.3818 -2.6107 -1.0747
  243MOL0     H32065   4.543   3.854   1.373  0.4624  0.2019 -3.1028
  243MOL0     H32066   4.343   3.789   1.406  1.7999 -0.0169 -0.6227
  243MOL0     H32067   4.357   3.857   1.250  0.0316 -2.8363 -0.0726
  243MOL0     H32068   4.128   3.725   1.369 -0.9838 -0.4642 -0.0051
  243MOL0     H32069   4.087   3.895   1.383 -1.8562 -3.5728  2.0544
  243MOL0     H32070   4.185   3.740   1.121  1.8872  2.0213  0.8460
  243MOL0     H32071   4.133   3.899   1.114  2.9898 -1.7253 -2.0847
  243MOL0     H32072   3.919   3.808   1.243  0.7084  0.2157  0.4405
  243MOL0     H32073   3.920   3.804   1.064  0.6239 -0.7845  0.5531
  243MOL0     H32074   3.872   3.416   1.109  2.5978 -0.5761 -0.9487
  243MOL0     H32075   4.365   4.200   1.526  0.2071 -0.7959  1.4645
  243MOL0     H32076   4.584   4.311   1.566 -0.2533  0.4192 -0.2145
  244MOL0     O32077   4.480   2.603   3.360  0.8971  0.4306  0.5431
  244MOL0     C32078   4.485   2.640   3.240  0.2357  0.3083 -0.7064
  244MOL0     O32079   4.377   2.634   3.152  0.4537 -0.1188 -0.7698
  244MOL0     C32080   4.279   2.540   3.174  0.1298  0.1994 -0.5957
  244MOL0     C32081   4.300   2.401   3.123  0.2612  0.4480 -0.3893
  244MOL0     C32082   4.196   2.315   3.152  0.3001  0.2931 -0.2946
  244MOL0     C32083   4.087   2.345   3.236  0.1561 -0.0847  0.4746
  244MOL0     O32084   4.000   2.240   3.265  0.5702 -0.6921 -0.8409
  244MOL0     C32085   3.859   2.285   3.250 -1.0766 -0.8177  0.0398
  244MOL0     C32086   3.763   2.159   3.248 -0.6239 -0.2167 -0.2835
  244MOL0     C32087   3.615   2.193   3.244  0.8693  0.1529  0.9760
  244MOL0     C32088   3.570   2.232   3.091 -0.1699 -0.4338  0.1881
  244MOL0     C32089   3.444   2.328   3.076 -0.2149 -0.6551 -0.2355
  244MOL0     C32090   3.320   2.260   3.140  0.1410  0.0596  0.4582
  244MOL0     C32091   3.193   2.341   3.136  0.3527 -1.1139  0.7561
  244MOL0     C32092   3.146   2.356   2.998  0.1264  0.8682  0.6633
  244MOL0     N32093   3.010   2.402   2.998  0.0897  0.2601  0.1587
  244MOL0     C32094   2.969   2.524   3.043  1.0238  0.3011  0.0855
  244MOL0     C32095   2.830   2.520   3.027  0.8762  1.1073 -0.1872
  244MOL0     C32096   2.737   2.635   3.057 -0.7737 -0.5176  0.2939
  244MOL0     C32097   2.632   2.651   2.950 -0.4194 -0.0719 -0.1286
  244MOL0     C32098   2.583   2.803   2.959 -0.6145  0.1509 -0.7517
  244MOL0     C32099   2.465   2.828   2.863 -0.5128 -0.6510  0.7634
  244MOL0     O32100   2.345   2.744   2.891  0.0613 -0.1624  0.4486
  244MOL0     C32101   2.265   2.764   3.004 -0.3490 -0.2969 -0.2021
  244MOL0     C32102   2.155   2.677   3.018  0.0051 -0.2559  0.5369
  244MOL0     C32103   2.058   2.712   3.112 -0.3911 -0.3314  0.9403
  244MOL0     C32104   2.066   2.820   3.194  0.7628 -0.3104 -0.2670
  244MOL0     C32105   1.953   2.859   3.298  0.9146  0.2712  0.3911
  244MOL0     O32106   1.981   2.966   3.373  0.5270 -0.3632 -0.3367
  244MOL0     C32107   1.895   3.020   3.471  0.2223  0.3350 -1.2278
  244MOL0     C32108   1.783   2.949   3.534 -0.1331  0.4635 -0.4292
  244MOL0     C32109   1.703   3.020   3.616  0.0108  0.8948  0.9372
  244MOL0     C32110   1.723   3.151   3.652  0.4339 -0.4812 -0.1815
  244MOL0     O32111   1.650   3.219   3.751  0.2765 -0.1756  0.0337
  244MOL0     C32112   1.619   3.141   3.869  0.5135  0.1425 -0.3091
  244MOL0     C32113   1.551   3.220   3.986 -0.0695  0.3387  0.5141
  244MOL0     C32114   1.463   3.120   4.071  0.4863 -0.2615 -0.0613
  244MOL0     C32115   1.429   3.206   4.202  0.5320  0.6686  0.0821
  244MOL0     C32116   1.520   3.178   4.316  0.5113 -0.4094  0.3212
  244MOL0     C32117   1.463   3.249   4.438  0.9268  0.0589 -0.4107
  244MOL0     C32118   1.573   3.277   4.530  0.3967  1.0981  0.1700
  244MOL0     C32119   1.547   3.305   4.682 -0.3853 -0.3879  1.0813
  244MOL0    Cl32120   1.507   3.146   4.763 -0.0627 -0.7384  0.2222
  244MOL0     C32121   1.822   3.219   3.585  0.7116 -0.9784 -0.4114
  244MOL0     C32122   1.905   3.155   3.500  0.1839 -0.1285 -0.4884
  244MOL0     O32123   1.845   2.790   3.289 -0.5699 -0.5561 -0.2920
  244MOL0     C32124   2.182   2.903   3.181  0.1531  0.3316 -0.0045
  244MOL0     C32125   2.279   2.868   3.093  0.3819 -0.6356  0.6047
  244MOL0     N32126   2.793   2.398   2.987  0.2028 -0.1476 -0.6687
  244MOL0     N32127   2.895   2.325   2.987 -0.5468 -0.3927  0.1493
  244MOL0     C32128   4.076   2.474   3.289 -1.0358  1.3469  0.1614
  244MOL0     C32129   4.169   2.575   3.256 -0.2011 -0.1353  0.5910
  244MOL0     C32130   4.604   2.723   3.200  0.2037  0.7769  0.1052
  244MOL0     C32131   4.713   2.744   3.290 -0.1043  0.1425 -0.7538
  244MOL0     C32132   4.839   2.804   3.255  1.0971 -0.8890  0.1370
  244MOL0     C32133   4.847   2.859   3.128 -0.1823  0.2127  0.6452
  244MOL0     O32134   4.971   2.922   3.105 -0.1576 -0.2972 -0.1292
  244MOL0     C32135   4.994   3.007   2.990  0.3126  0.3154  0.8327
  244MOL0     C32136   4.911   3.141   2.990 -0.4319 -0.0759 -0.1812
  244MOL0     C32137   4.950   3.242   3.095 -0.2605 -0.5823 -0.7994
  244MOL0     C32138   4.940   3.190   3.236 -0.2520 -0.1489  0.7495
  244MOL0     C32139   4.957   3.308   3.313  0.0744 -0.1041  0.2731
  244MOL0     C32140   4.985   3.410   3.372 -0.1660 -0.1191  0.4731
  244MOL0     C32141   4.742   2.851   3.036  0.4270  0.8573  0.0350
  244MOL0     C32142   4.624   2.784   3.074  0.6048  0.1170  0.8972
  244MOL0     H32143   4.391   2.360   3.080  0.8937  0.1968  1.1359
  244MOL0     H32144   4.212   2.219   3.103 -1.4470 -1.1963  1.8367
  244MOL0     H32145   3.841   2.328   3.152  0.9862  1.5927  0.6266
  244MOL0     H32146   3.838   2.338   3.343  1.6964  1.6980 -0.6288
  244MOL0     H32147   3.783   2.099   3.337 -0.1259 -0.3386 -0.4762
  244MOL0     H32148   3.790   2.094   3.164  1.9215  2.2219 -1.4923
  244MOL0     H32149   3.576   2.279   3.299 -0.8473  0.7905 -1.1295
  244MOL0     H32150   3.553   2.105   3.267 -2.0470  1.4279 -1.4148
  244MOL0     H32151   3.661   2.270   3.044 -0.1648  0.3180  0.7914
  244MOL0     H32152   3.543   2.142   3.035  0.8229 -0.3420 -0.4696
  244MOL0     H32153   3.437   2.355   2.970  1.7014  1.1757  0.0473
  244MOL0     H32154   3.461   2.422   3.128  3.2704 -0.2456 -1.8254
  244MOL0     H32155   3.353   2.227   3.239  2.1801  2.7346  0.8045
  244MOL0     H32156   3.310   2.175   3.073 -0.5021 -1.4368  2.3428
  244MOL0     H32157   3.119   2.284   3.194 -3.8493  0.5137 -2.5081
  244MOL0     H32158   3.200   2.441   3.179 -0.3958 -0.9233  0.4420
  244MOL0     H32159   3.134   2.260   2.946  1.1076  1.8844 -1.5878
  244MOL0     H32160   3.209   2.427   2.943 -2.0579  0.6223 -2.4557
  244MOL0     H32161   3.029   2.608   3.077  0.9355 -0.0076  1.0246
  244MOL0     H32162   2.789   2.730   3.051  0.0376 -0.7911  2.1293
  244MOL0     H32163   2.696   2.636   3.159 -1.3963  6.1397  0.3813
  244MOL0     H32164   2.550   2.582   2.972  0.3465 -0.2179  2.6025
  244MOL0     H32165   2.680   2.628   2.855  0.9513  0.9071  0.3054
  244MOL0     H32166   2.578   2.835   3.064  3.2770 -1.7022  0.2176
  244MOL0     H32167   2.661   2.862   2.911 -0.9491  1.0270 -0.2345
  244MOL0     H32168   2.486   2.787   2.764 -2.7718 -1.8035  0.7035
  244MOL0     H32169   2.429   2.932   2.869 -1.1330 -0.9009  1.4526
  244MOL0     H32170   2.146   2.590   2.954  1.5231 -0.4077  0.5055
  244MOL0     H32171   1.985   2.632   3.112  0.1095 -0.8454 -1.0375
  244MOL0     H32172   1.767   2.842   3.530  0.3489  0.2283  2.0753
  244MOL0     H32173   1.611   2.975   3.653 -0.7673  2.2659  0.7430
  244MOL0     H32174   1.712   3.101   3.911 -0.0207 -1.2415 -0.4020
  244MOL0     H32175   1.550   3.064   3.834  0.7526  0.2930 -1.1460
  244MOL0     H32176   1.499   3.305   3.942  1.1397  0.7685 -0.1478
  244MOL0     H32177   1.623   3.270   4.052  0.6148 -2.3801  1.9616
  244MOL0     H32178   1.507   3.024   4.100  3.3219  0.9776  0.0984
  244MOL0     H32179   1.369   3.096   4.022  0.3976 -1.0022  0.4482
  244MOL0     H32180   1.415   3.312   4.179 -1.8387  0.2344 -0.8056
  244MOL0     H32181   1.329   3.170   4.229  0.7215  0.4590  0.5030
  244MOL0     H32182   1.623   3.206   4.291  1.1643  2.4019  4.9326
  244MOL0     H32183   1.525   3.070   4.334  0.9045 -1.1318 -3.3822
  244MOL0     H32184   1.378   3.191   4.475  1.4612  0.4746  1.5479
  244MOL0     H32185   1.414   3.344   4.416 -1.1922 -0.3908  1.9410
  244MOL0     H32186   1.635   3.187   4.524  2.1521  2.2783 -0.4797
  244MOL0     H32187   1.635   3.358   4.489 -0.2442  0.4770 -2.1549
  244MOL0     H32188   1.473   3.385   4.695 -1.0718 -1.2076  2.3824
  244MOL0     H32189   1.633   3.341   4.738 -2.1399 -1.1354  4.5075
  244MOL0     H32190   1.829   3.326   3.600 -0.8985 -0.9142 -0.0061
  244MOL0     H32191   1.987   3.211   3.457 -1.7807  2.2032 -1.4094
  244MOL0     H32192   2.194   2.991   3.243 -0.2417 -0.6280  1.4930
  244MOL0     H32193   2.357   2.944   3.086 -1.4960  1.2418 -1.6325
  244MOL0     H32194   3.990   2.502   3.349  1.0347  0.4056  3.9058
  244MOL0     H32195   4.161   2.676   3.296 -2.7235 -0.9964  2.5353
  244MOL0     H32196   4.708   2.708   3.392 -0.1772  3.0210  0.3494
  244MOL0     H32197   4.915   2.824   3.331 -0.3410 -0.4006  1.5173
  244MOL0     H32198   4.971   2.959   2.894 -1.9493 -2.9693  2.8123
  244MOL0     H32199   5.097   3.042   2.990  0.1654  0.8782 -1.3946
  244MOL0     H32200   4.928   3.194   2.896  1.2659 -1.4004 -0.6681
  244MOL0     H32201   4.805   3.116   3.004 -0.2246  0.3997  2.7904
  244MOL0     H32202   4.885   3.330   3.087 -0.2414  0.2985  4.7039
  244MOL0     H32203   5.052   3.277   3.082 -1.4014  2.9951 -1.2017
  244MOL0     H32204   4.842   3.145   3.253 -2.0807  2.7085 -1.2617
  244MOL0     H32205   5.026   3.123   3.249 -0.4403 -0.5106  0.1702
  244MOL0     H32206   5.023   3.499   3.419 -0.5197  0.2021  0.1558
  244MOL0     H32207   4.760   2.901   2.941  0.2926 -2.7039 -2.0484
  244MOL0     H32208   4.539   2.782   3.006  0.4897  1.5839  0.9528
  245MOL0     O32209   1.706   9.255   4.311  0.1861 -0.2827  0.2714
  245MOL0     C32210   1.667   9.194   4.412  0.4006 -0.2724 -0.2113
  245MOL0     O32211   1.534   9.151   4.439 -0.2978 -0.0870  0.2826
  245MOL0     C32212   1.434   9.207   4.367  0.3464 -0.9932 -0.6726
  245MOL0     C32213   1.348   9.131   4.282  0.8639  0.7730 -0.6448
  245MOL0     C32214   1.257   9.189   4.194  0.5871  0.2920  0.0076
  245MOL0     C32215   1.230   9.332   4.199  0.0390 -0.0562  0.6790
  245MOL0     O32216   1.150   9.389   4.099 -1.3723  0.0980  0.3281
  245MOL0     C32217   1.109   9.529   4.127 -0.8802 -0.1728  0.4008
  245MOL0     C32218   1.049   9.588   3.999  0.3987  0.0626 -0.3464
  245MOL0     C32219   0.915   9.522   3.963  0.1182 -0.7622  0.0985
  245MOL0     C32220   0.846   9.615   3.870  0.3129 -1.0430  0.0407
  245MOL0     C32221   0.710   9.562   3.824  0.2613 -0.1764  0.7479
  245MOL0     C32222   0.668   9.653   3.707 -0.0689  0.2616 -1.4726
  245MOL0     C32223   0.530   9.610   3.648 -0.8214 -0.0537  0.0075
  245MOL0     C32224   0.466   9.725   3.560  0.6146  0.4373 -1.2434
  245MOL0     N32225   0.413   9.854   3.614 -0.1261  0.0822  0.2263
  245MOL0     C32226   0.311   9.861   3.711  0.2473  0.7143 -0.0925
  245MOL0     C32227   0.272   9.995   3.718  0.0134  0.9146  0.4570
  245MOL0     C32228   0.167  10.063   3.811 -0.8378 -0.6864 -0.4919
  245MOL0     C32229   0.026  10.053   3.750  0.0377  0.3271 -1.0557
  245MOL0     C32230  -0.033   9.913   3.736 -0.5652  0.7709  0.4577
  245MOL0     C32231  -0.181   9.921   3.735  0.7352  0.4354 -1.0040
  245MOL0     O32232  -0.228  10.031   3.646  0.2645 -0.4862 -0.7357
  245MOL0     C32233  -0.348  10.015   3.604  0.6495 -0.5373  0.8732
  245MOL0     C32234  -0.377  10.037   3.468 -0.3889 -0.2755 -0.7596
  245MOL0     C32235  -0.511  10.025   3.429 -0.1142  0.5715 -0.3361
  245MOL0     C32236  -0.612  10.007   3.531 -0.3198  1.0365  0.0496
  245MOL0     C32237  -0.752  10.001   3.488  0.1436  0.6888  0.6152
  245MOL0     O32238  -0.781  10.051   3.354 -0.1069  0.2765 -0.6584
  245MOL0     C32239  -0.908  10.055   3.305 -0.5700  0.4761  0.3391
  245MOL0     C32240  -0.980   9.941   3.281 -0.4625  0.2162  0.6673
  245MOL0     C32241  -1.097   9.943   3.205 -0.4254  0.5457  0.5533
  245MOL0     C32242  -1.146  10.061   3.150  0.2578 -0.1180 -0.2140
  245MOL0     O32243  -1.256  10.081   3.072 -0.8731 -1.1841  1.2069
  245MOL0     C32244  -1.326   9.967   3.019 -0.1662 -0.3799  0.3447
  245MOL0     C32245  -1.423  10.026   2.909  0.1974  0.1997  0.5369
  245MOL0     C32246  -1.488   9.915   2.827  0.3590  0.1909  0.2361
  245MOL0     C32247  -1.586   9.960   2.718  0.1284 -0.2871 -0.7485
  245MOL0     C32248  -1.651   9.844   2.645 -0.3315  0.3076 -0.0461
  245MOL0     C32249  -1.770   9.904   2.561  1.2571 -0.0226  0.3596
  245MOL0     C32250  -1.900   9.929   2.649  0.0346 -0.1479 -0.1764
  245MOL0     C32251  -2.014   9.991   2.568 -0.8973  0.0504 -0.9051
  245MOL0    Cl32252  -2.144  10.049   2.677  0.1803 -0.0785 -0.4890
  245MOL0     C32253  -1.071  10.182   3.171  0.8122  0.6494  0.3974
  245MOL0     C32254  -0.952  10.172   3.248 -1.3232  0.6293  0.4942
  245MOL0     O32255  -0.830   9.951   3.564 -0.7473  0.0934  0.6619
  245MOL0     C32256  -0.582   9.995   3.669  0.4061  0.7649  0.1924
  245MOL0     C32257  -0.454   9.991   3.699 -0.7395 -0.9273 -0.9083
  245MOL0     N32258   0.336  10.052   3.609 -0.0848 -0.1941  0.1342
  245MOL0     N32259   0.406   9.968   3.544 -0.1467 -0.6096 -0.8394
  245MOL0     C32260   1.307   9.397   4.299 -0.5440  0.4222  0.0203
  245MOL0     C32261   1.412   9.341   4.371  0.4414  0.6998 -0.4737
  245MOL0     C32262   1.766   9.155   4.515  0.7796 -0.8405  0.1326
  245MOL0     C32263   1.875   9.249   4.529 -1.1542 -0.0675 -0.5058
  245MOL0     C32264   1.969   9.211   4.620  0.2875  0.4458 -1.0717
  245MOL0     C32265   1.962   9.093   4.700 -0.5420  0.2951 -0.3387
  245MOL0     O32266   2.051   9.077   4.797 -0.3145 -0.5945  0.8676
  245MOL0     C32267   2.034   8.984   4.903  0.4638  0.5585  0.3655
  245MOL0     C32268   2.122   9.045   5.011  0.2414  0.3204  0.3018
  245MOL0     C32269   2.263   8.983   5.006  1.0085 -0.3187 -0.3974
  245MOL0     C32270   2.327   8.995   5.151 -0.5639  0.3173 -0.0856
  245MOL0     C32271   2.410   9.119   5.168  0.3150  0.2532 -0.2887
  245MOL0     C32272   2.458   9.233   5.172  0.6917  1.2188 -0.2693
  245MOL0     C32273   1.860   9.001   4.676 -0.3918  0.3135  0.0308
  245MOL0     C32274   1.753   9.043   4.600 -0.6540  0.0426 -0.9578
  245MOL0     H32275   1.368   9.024   4.275 -0.3306  0.3898  1.0034
  245MOL0     H32276   1.209   9.142   4.109  0.3817  1.2486 -0.4162
  245MOL0     H32277   1.199   9.585   4.156  1.1200 -0.7262 -3.8901
  245MOL0     H32278   1.043   9.542   4.213  0.8489 -1.1843  1.9719
  245MOL0     H32279   1.126   9.581   3.921  0.7040  0.9245 -0.1222
  245MOL0     H32280   1.040   9.695   4.015  1.7732  0.2522 -0.7374
  245MOL0     H32281   0.845   9.509   4.046  0.1730  0.0251  0.2726
  245MOL0     H32282   0.923   9.423   3.917 -0.6493 -1.1608  0.7878
  245MOL0     H32283   0.822   9.715   3.907 -1.2912  0.3983 -4.1987
  245MOL0     H32284   0.902   9.651   3.783 -0.5343 -0.6509 -0.3518
  245MOL0     H32285   0.640   9.550   3.908  0.9852 -1.0330  1.2472
  245MOL0     H32286   0.713   9.464   3.774  1.2096  0.2550 -0.0680
  245MOL0     H32287   0.735   9.661   3.621  0.9234 -2.7034 -1.0987
  245MOL0     H32288   0.664   9.755   3.747  3.2953  1.4518 -3.7892
  245MOL0     H32289   0.536   9.520   3.587 -0.2710 -1.1619  1.6174
  245MOL0     H32290   0.455   9.587   3.724 -1.3946 -2.4332 -1.1838
  245MOL0     H32291   0.386   9.668   3.513  1.5037 -1.4718 -0.5152
  245MOL0     H32292   0.523   9.749   3.469  0.6141  2.1696 -0.8338
  245MOL0     H32293   0.278   9.780   3.775 -2.5462  1.6272 -0.2208
  245MOL0     H32294   0.198  10.167   3.802 -2.1794 -0.3394 -1.6086
  245MOL0     H32295   0.172  10.030   3.915  0.6423  1.9173  0.3515
  245MOL0     H32296   0.024  10.106   3.655 -0.5386  1.5779 -0.3630
  245MOL0     H32297  -0.028  10.120   3.817  2.2021  1.5510 -0.4350
  245MOL0     H32298  -0.002   9.863   3.644 -0.8029  5.4275 -2.4754
  245MOL0     H32299  -0.016   9.848   3.823  3.1114  1.0665  0.0885
  245MOL0     H32300  -0.222   9.924   3.836 -0.5792 -0.4587 -1.4759
  245MOL0     H32301  -0.225   9.830   3.693  1.2705  0.9300 -2.7187
  245MOL0     H32302  -0.291  10.052   3.403 -0.9477 -0.5153 -1.5659
  245MOL0     H32303  -0.535  10.046   3.326  0.2318 -0.3510 -0.6223
  245MOL0     H32304  -0.932   9.848   3.307  1.2857  0.9481  0.1910
  245MOL0     H32305  -1.135   9.844   3.181  0.6766  0.5626 -1.4400
  245MOL0     H32306  -1.388   9.919   3.095  1.4987  0.5303  2.3793
  245MOL0     H32307  -1.249   9.897   2.983 -0.2511  0.3615 -1.3637
  245MOL0     H32308  -1.367  10.090   2.840  1.7854 -2.5960 -0.9869
  245MOL0     H32309  -1.496  10.079   2.971 -1.5058 -1.8945  0.4716
  245MOL0     H32310  -1.546   9.854   2.897 -0.1164 -3.8896 -3.2920
  245MOL0     H32311  -1.405   9.858   2.784  1.7460 -0.1711  3.2044
  245MOL0     H32312  -1.665  10.015   2.771  2.0190  2.2040 -0.3517
  245MOL0     H32313  -1.534  10.025   2.647 -4.1273  3.4338 -0.9373
  245MOL0     H32314  -1.695   9.762   2.703 -1.2244  0.8343  0.0422
  245MOL0     H32315  -1.571   9.816   2.576 -0.9279 -2.0515  0.1175
  245MOL0     H32316  -1.790   9.837   2.477  1.2815 -1.2012  1.2592
  245MOL0     H32317  -1.729   9.993   2.513 -1.3748  0.1219 -1.8078
  245MOL0     H32318  -1.926   9.830   2.688 -0.6059  0.4321  0.9187
  245MOL0     H32319  -1.872   9.994   2.732  0.8017 -0.0589 -0.4985
  245MOL0     H32320  -2.043   9.921   2.489 -1.6164 -0.6647 -0.0314
  245MOL0     H32321  -1.969  10.075   2.514  1.8516  0.5940  1.9333
  245MOL0     H32322  -1.115  10.271   3.128 -0.8127  0.2322  1.1399
  245MOL0     H32323  -0.891  10.259   3.266 -0.7900  0.0137  1.7743
  245MOL0     H32324  -0.663   9.960   3.732  0.7057 -2.9812 -1.2278
  245MOL0     H32325  -0.428   9.986   3.804  1.2674  0.6614 -1.2768
  245MOL0     H32326   1.305   9.504   4.320 -1.2412  0.8531 -1.9571
  245MOL0     H32327   1.469   9.397   4.444  0.2055 -0.0353  0.3029
  245MOL0     H32328   1.893   9.342   4.477 -1.1892 -0.1941 -0.7475
  245MOL0     H32329   2.049   9.281   4.644  2.5664 -2.0007 -1.1605
  245MOL0     H32330   2.065   8.882   4.882  0.0757  0.6368 -0.6609
  245MOL0     H32331   1.928   8.984   4.932 -0.0479 -0.5830 -1.3451
  245MOL0     H32332   2.130   9.151   4.987  2.1413  0.0859 -0.3016
  245MOL0     H32333   2.065   9.025   5.102 -1.8184 -1.4693 -1.2553
  245MOL0     H32334   2.329   9.029   4.932  0.6647 -1.5278 -1.4654
  245MOL0     H32335   2.252   8.876   4.988  2.7585 -0.3426 -1.6015
  245MOL0     H32336   2.244   8.994   5.222 -0.8367  2.5769 -0.2878
  245MOL0     H32337   2.395   8.910   5.164  0.4847  0.9990 -0.9747
  245MOL0     H32338   2.504   9.330   5.172  1.1005  1.0722 -2.1399
  245MOL0     H32339   1.860   8.896   4.705  0.4978  0.3042  0.0030
  245MOL0     H32340   1.676   8.969   4.580 -1.0859  0.1395  0.2469
  246MOL0     O32341   4.847   5.761   1.309 -0.0502  0.8245  0.2426
  246MOL0     C32342   4.787   5.854   1.353 -0.0473  0.7053  0.2447
  246MOL0     O32343   4.816   5.985   1.330  0.0164 -0.0703 -0.2777
  246MOL0     C32344   4.933   6.017   1.262 -1.8026 -0.2178 -0.1567
  246MOL0     C32345   5.068   5.985   1.311  0.4615 -0.6320 -0.0441
  246MOL0     C32346   5.184   6.040   1.244  0.3987  0.4154 -0.8587
  246MOL0     C32347   5.165   6.114   1.124 -0.6799  0.2660 -0.9647
  246MOL0     O32348   5.258   6.172   1.047 -0.1980  0.1492  0.0353
  246MOL0     C32349   5.400   6.149   1.068  0.9389  0.4841  0.4519
  246MOL0     C32350   5.465   6.262   0.982  0.1212 -0.8445 -0.2483
  246MOL0     C32351   5.473   6.388   1.064 -0.6317  0.1522  0.4245
  246MOL0     C32352   5.477   6.512   0.978 -0.2271  0.4016  0.7436
  246MOL0     C32353   5.463   6.648   1.051 -0.9126  0.4232 -0.5598
  246MOL0     C32354   5.551   6.663   1.176  0.0502 -0.1268  0.5740
  246MOL0     C32355   5.697   6.681   1.151 -0.7980  0.2821 -0.6412
  246MOL0     C32356   5.789   6.696   1.272  0.7837 -0.6996 -0.8137
  246MOL0     N32357   5.735   6.816   1.343 -0.9358  0.3024  0.2192
  246MOL0     C32358   5.663   6.822   1.466  0.0181 -0.2883 -0.0204
  246MOL0     C32359   5.654   6.950   1.495  0.1303 -1.0436 -0.1681
  246MOL0     C32360   5.593   7.024   1.618 -0.9152  0.0006  0.1364
  246MOL0     C32361   5.441   7.026   1.584 -0.2159  0.0254  0.0385
  246MOL0     C32362   5.389   7.116   1.467  0.0845  0.4976 -0.3546
  246MOL0     C32363   5.257   7.066   1.411 -0.1615  0.0053  0.2222
  246MOL0     O32364   5.209   7.170   1.323  0.9394 -0.3150 -0.9436
  246MOL0     C32365   5.252   7.173   1.192  0.2499 -0.5557  0.0918
  246MOL0     C32366   5.243   7.066   1.106 -0.3648  1.0157 -0.1940
  246MOL0     C32367   5.292   7.084   0.979  0.1195  0.2930 -0.3713
  246MOL0     C32368   5.349   7.205   0.930  0.0120  0.3396 -0.7969
  246MOL0     C32369   5.387   7.216   0.792 -0.8919 -0.9726  0.4297
  246MOL0     O32370   5.341   7.127   0.701 -0.0033 -0.3164  0.0304
  246MOL0     C32371   5.371   7.132   0.571  0.1086 -1.0971  0.1448
  246MOL0     C32372   5.374   7.246   0.497 -0.7814  1.0957 -0.3637
  246MOL0     C32373   5.394   7.243   0.353 -0.6287 -0.2150  0.2439
  246MOL0     C32374   5.416   7.120   0.290  0.2548 -0.8071 -0.2439
  246MOL0     O32375   5.409   7.096   0.153 -0.0751  0.6042 -0.3516
  246MOL0     C32376   5.476   7.190   0.074  0.5155  0.5513 -0.4455
  246MOL0     C32377   5.544   7.108  -0.028  0.1995  0.0703  0.0643
  246MOL0     C32378   5.671   7.056   0.030  0.6406 -0.5913  0.5360
  246MOL0     C32379   5.729   6.949  -0.062 -0.1405 -0.4344 -0.1522
  246MOL0     C32380   5.786   6.993  -0.206 -0.3591  0.5721  0.2790
  246MOL0     C32381   5.854   6.868  -0.275  0.7863 -0.1962 -0.5582
  246MOL0     C32382   5.911   6.893  -0.412 -0.8456  0.9809 -0.5961
  246MOL0     C32383   6.013   7.008  -0.422 -0.1386  0.0568  0.1647
  246MOL0    Cl32384   6.162   6.945  -0.336  0.0744  0.5406 -0.1689
  246MOL0     C32385   5.430   7.005   0.373  0.1630  0.1163 -0.0003
  246MOL0     C32386   5.401   7.011   0.511 -0.4903 -0.2823 -1.3949
  246MOL0     O32387   5.461   7.314   0.768  0.5599  0.3740  0.4013
  246MOL0     C32388   5.366   7.312   1.022 -0.0326  0.3750  0.3100
  246MOL0     C32389   5.316   7.291   1.155  0.8160  0.8397  0.4197
  246MOL0     N32390   5.719   7.025   1.392  0.1309  0.3732 -0.2080
  246MOL0     N32391   5.764   6.942   1.301  0.4281 -0.2981  0.2960
  246MOL0     C32392   5.040   6.141   1.086 -0.3278 -0.5801 -0.5371
  246MOL0     C32393   4.923   6.100   1.151 -0.5805 -0.1761  0.1744
  246MOL0     C32394   4.677   5.834   1.446 -0.2680 -0.3130 -0.4580
  246MOL0     C32395   4.636   5.935   1.543 -0.7021 -0.3618  0.4672
  246MOL0     C32396   4.539   5.905   1.640  0.2922  0.7442  0.3297
  246MOL0     C32397   4.481   5.773   1.631  0.1481 -0.7102 -0.3766
  246MOL0     O32398   4.388   5.750   1.719  0.6473  1.2421  0.3995
  246MOL0     C32399   4.251   5.790   1.684 -0.8005  0.3551 -0.4460
  246MOL0     C32400   4.183   5.680   1.602  0.2159 -0.4660 -0.6190
  246MOL0     C32401   4.035   5.706   1.590 -0.2043  0.4774  0.1698
  246MOL0     C32402   3.973   5.592   1.508  1.2085 -0.1928  0.3303
  246MOL0     C32403   3.835   5.635   1.471 -0.8495 -0.0784  0.8606
  246MOL0     C32404   3.727   5.671   1.433 -0.3366  1.0398  0.3657
  246MOL0     C32405   4.519   5.671   1.544 -0.3175  0.3541  0.8022
  246MOL0     C32406   4.629   5.707   1.462 -0.4324 -0.2945  0.6765
  246MOL0     H32407   5.082   5.907   1.385  1.4221  0.1877  0.6661
  246MOL0     H32408   5.286   6.008   1.262 -0.0141  0.2683  1.5259
  246MOL0     H32409   5.424   6.051   1.024 -2.0403 -1.0086  1.8232
  246MOL0     H32410   5.429   6.146   1.173 -2.5794 -1.4475  1.5196
  246MOL0     H32411   5.406   6.293   0.896  1.8287  0.1884 -1.1097
  246MOL0     H32412   5.564   6.232   0.945  0.5034 -0.3848  0.3907
  246MOL0     H32413   5.572   6.391   1.111  0.5675  2.1245 -2.0081
  246MOL0     H32414   5.397   6.399   1.142  0.7813 -1.8232  2.1867
  246MOL0     H32415   5.576   6.513   0.932 -0.7372 -0.3591 -0.4200
  246MOL0     H32416   5.402   6.516   0.899 -1.4661  1.6982  1.9035
  246MOL0     H32417   5.364   6.643   1.096 -0.8249 -4.2612 -0.4021
  246MOL0     H32418   5.467   6.734   0.983 -0.2676 -0.1880 -1.3136
  246MOL0     H32419   5.533   6.576   1.240  1.3977 -1.7817 -1.1691
  246MOL0     H32420   5.522   6.760   1.217 -0.7272  0.5540 -1.4311
  246MOL0     H32421   5.727   6.594   1.092  1.9236  0.2962  0.5528
  246MOL0     H32422   5.706   6.775   1.096 -1.8022  0.6226 -0.2552
  246MOL0     H32423   5.894   6.719   1.250  0.9026  0.7804  1.0344
  246MOL0     H32424   5.779   6.605   1.332 -0.1382 -0.4661 -0.5978
  246MOL0     H32425   5.630   6.736   1.523 -1.0205 -0.0354 -0.2263
  246MOL0     H32426   5.643   7.120   1.630  3.2162 -1.4046 -3.5504
  246MOL0     H32427   5.607   6.964   1.709  1.6111  0.1369 -0.0999
  246MOL0     H32428   5.392   7.063   1.675 -0.5409 -0.3040  0.0010
  246MOL0     H32429   5.405   6.927   1.554  1.0350  0.7430 -4.7640
  246MOL0     H32430   5.387   7.220   1.500  1.4072 -0.0030  1.5114
  246MOL0     H32431   5.444   7.100   1.374 -2.5961 -1.8538 -1.6958
  246MOL0     H32432   5.188   7.039   1.492  2.8917 -0.5435  2.8226
  246MOL0     H32433   5.269   6.972   1.356 -2.5841  0.2855 -0.9210
  246MOL0     H32434   5.200   6.971   1.139 -1.1577  0.5598 -2.3829
  246MOL0     H32435   5.289   7.001   0.909  0.2094 -1.4770  1.6121
  246MOL0     H32436   5.353   7.337   0.553 -1.8855 -0.9349  2.7442
  246MOL0     H32437   5.393   7.330   0.288  1.7357  0.0415  0.4739
  246MOL0     H32438   5.545   7.252   0.132  0.3563  0.9598 -0.6831
  246MOL0     H32439   5.410   7.255   0.015  2.0859  1.6974 -1.0238
  246MOL0     H32440   5.568   7.161  -0.121 -1.7466 -1.7782 -1.6004
  246MOL0     H32441   5.485   7.021  -0.060 -0.9805  0.2994  1.5481
  246MOL0     H32442   5.635   7.007   0.121 -1.6468 -2.2951 -1.1464
  246MOL0     H32443   5.750   7.128   0.050 -1.3593  1.2684  2.2545
  246MOL0     H32444   5.797   6.880  -0.011 -0.7675 -1.2708 -0.4234
  246MOL0     H32445   5.641   6.891  -0.093 -1.1370  1.6977 -1.5085
  246MOL0     H32446   5.868   7.064  -0.190 -1.8985  2.5310 -0.0515
  246MOL0     H32447   5.708   7.039  -0.268 -1.6861  0.7648  2.0194
  246MOL0     H32448   5.784   6.784  -0.277  0.2930  0.2101 -0.3216
  246MOL0     H32449   5.930   6.835  -0.203 -0.3965 -1.5200  0.1345
  246MOL0     H32450   5.950   6.795  -0.442 -1.5643  0.7266 -0.7291
  246MOL0     H32451   5.835   6.923  -0.484 -0.1641 -0.9512 -2.2123
  246MOL0     H32452   5.968   7.097  -0.376  1.6671  1.0312  0.1488
  246MOL0     H32453   6.046   7.027  -0.524 -0.8630 -2.9351 -0.7278
  246MOL0     H32454   5.461   6.909   0.333 -0.0237 -0.1930  0.5889
  246MOL0     H32455   5.416   6.921   0.570  2.1238  2.0906  1.9471
  246MOL0     H32456   5.425   7.400   0.998 -0.4010  0.5632  0.0848
  246MOL0     H32457   5.324   7.373   1.227 -0.5494  1.2429  0.1543
  246MOL0     H32458   5.018   6.204   0.999  1.5400  1.6538  0.4973
  246MOL0     H32459   4.826   6.137   1.121 -0.3513 -0.4635 -0.9581
  246MOL0     H32460   4.685   6.031   1.534 -2.0790  0.2610 -1.1334
  246MOL0     H32461   4.502   5.978   1.711 -2.6381  0.8110 -1.1086
  246MOL0     H32462   4.248   5.884   1.629  0.4741 -1.5773 -4.2001
  246MOL0     H32463   4.212   5.801   1.786  3.2339 -0.0894  1.3293
  246MOL0     H32464   4.221   5.663   1.500 -1.3489 -0.3935 -1.2470
  246MOL0     H32465   4.197   5.591   1.664  0.2960  2.5564  4.1444
  246MOL0     H32466   4.012   5.798   1.535  0.2059 -0.6156 -1.9377
  246MOL0     H32467   3.999   5.713   1.693  1.8189  0.2645  0.9370
  246MOL0     H32468   4.034   5.559   1.423  0.7815 -1.0454  0.3428
  246MOL0     H32469   3.959   5.505   1.572  2.6636 -0.7365 -0.0384
  246MOL0     H32470   3.623   5.672   1.411  0.0557 -0.0026 -1.8855
  246MOL0     H32471   4.484   5.568   1.548 -1.3287  0.7303  3.0363
  246MOL0     H32472   4.670   5.627   1.401 -3.5192 -0.5847 -1.1998
  247MOL0     O32473   7.163   2.428   4.089 -0.2377 -0.0502 -0.6691
  247MOL0     C32474   7.152   2.442   4.214  0.3301  1.2258  0.3227
  247MOL0     O32475   7.039   2.403   4.288  0.4319 -0.0073  0.0436
  247MOL0     C32476   6.934   2.357   4.215 -0.3397 -0.0842  0.4822
  247MOL0     C32477   6.869   2.437   4.115  0.1319 -0.4338 -0.2439
  247MOL0     C32478   6.749   2.384   4.040 -0.5847  0.0969  0.5629
  247MOL0     C32479   6.714   2.256   4.061 -0.4500  0.3199  1.0173
  247MOL0     O32480   6.605   2.202   4.000  0.3261 -0.6926  0.6286
  247MOL0     C32481   6.492   2.292   3.979  0.4692 -0.4516  0.2925
  247MOL0     C32482   6.365   2.213   3.994  0.0617 -0.2548 -0.6617
  247MOL0     C32483   6.256   2.290   4.033  0.2004 -0.2841  0.0275
  247MOL0     C32484   6.142   2.191   4.055 -0.2487 -1.2896  0.5126
  247MOL0     C32485   6.000   2.253   4.047 -0.8524  0.2258 -0.1684
  247MOL0     C32486   5.970   2.320   3.915  0.7064  0.7734  0.5164
  247MOL0     C32487   5.827   2.376   3.913 -0.4274 -0.4153 -0.0583
  247MOL0     C32488   5.710   2.281   3.952 -0.0707  0.7513 -0.3628
  247MOL0     N32489   5.585   2.321   3.895 -0.6192  0.2047 -0.4072
  247MOL0     C32490   5.478   2.383   3.968  0.3095  0.0415  0.2276
  247MOL0     C32491   5.384   2.390   3.878  1.0196  0.7589  0.3613
  247MOL0     C32492   5.255   2.465   3.891 -0.2730  0.1226  0.6179
  247MOL0     C32493   5.148   2.413   3.789  0.0080 -0.0019  0.4788
  247MOL0     C32494   5.144   2.478   3.650  0.2435  0.6885  0.3160
  247MOL0     C32495   5.019   2.461   3.569  0.3018  0.2979 -0.6040
  247MOL0     O32496   4.987   2.323   3.558  0.6385 -0.4390 -0.6138
  247MOL0     C32497   4.864   2.285   3.525  0.0317 -0.4154  0.7544
  247MOL0     C32498   4.833   2.156   3.551 -0.4557  0.2642 -0.5028
  247MOL0     C32499   4.715   2.105   3.498  1.0803  0.2587 -0.5454
  247MOL0     C32500   4.624   2.186   3.420  0.0485 -0.3256 -0.1370
  247MOL0     C32501   4.508   2.120   3.352  0.3048 -0.3027 -0.4119
  247MOL0     O32502   4.482   1.992   3.390  1.0843  0.5215 -0.0887
  247MOL0     C32503   4.357   1.935   3.340 -0.4322  0.2599 -0.7249
  247MOL0     C32504   4.230   1.995   3.363  0.1550  0.3261 -0.0511
  247MOL0     C32505   4.116   1.923   3.317  0.0749  0.3862  0.2518
  247MOL0     C32506   4.123   1.796   3.253 -0.1745 -0.9784  0.5634
  247MOL0     O32507   4.012   1.737   3.203  1.1188 -0.5921 -0.7723
  247MOL0     C32508   3.922   1.809   3.114  1.3630  0.1121  0.2801
  247MOL0     C32509   3.776   1.791   3.165 -0.8161  0.7707 -0.0503
  247MOL0     C32510   3.684   1.826   3.050 -0.3403  0.4738  0.8867
  247MOL0     C32511   3.546   1.807   3.092  0.0514  0.1060  0.3350
  247MOL0     C32512   3.444   1.842   2.993 -0.6727 -0.1898 -0.2871
  247MOL0     C32513   3.320   1.748   3.016 -0.1194 -0.6566  0.8643
  247MOL0     C32514   3.218   1.764   2.894 -0.4346 -0.1544 -0.0205
  247MOL0     C32515   3.163   1.904   2.893  0.7117  0.6484  0.2847
  247MOL0    Cl32516   3.073   1.938   3.041  0.4060  0.3443  0.1056
  247MOL0     C32517   4.250   1.732   3.229  0.0182  0.3246 -0.6536
  247MOL0     C32518   4.367   1.798   3.282  0.1924  0.4391  0.6005
  247MOL0     O32519   4.452   2.181   3.259 -0.3551 -0.5656 -0.4795
  247MOL0     C32520   4.661   2.313   3.389 -0.0912 -0.7195 -0.4468
  247MOL0     C32521   4.780   2.369   3.446  0.9306  0.5013  0.5678
  247MOL0     N32522   5.426   2.330   3.757 -0.1562 -0.0244 -0.6423
  247MOL0     N32523   5.543   2.289   3.765 -0.5103  0.2985 -0.5087
  247MOL0     C32524   6.790   2.178   4.142  0.3302  0.4267 -0.3490
  247MOL0     C32525   6.897   2.218   4.211  0.3415 -1.2614  0.2025
  247MOL0     C32526   7.273   2.491   4.295 -0.6209  0.2385  0.1840
  247MOL0     C32527   7.401   2.457   4.256  0.6324 -0.7085  0.6143
  247MOL0     C32528   7.515   2.508   4.311  0.9625 -0.8586  0.3410
  247MOL0     C32529   7.500   2.592   4.426 -0.1568 -0.5437  0.3929
  247MOL0     O32530   7.614   2.652   4.478 -0.1055  0.1157  0.7918
  247MOL0     C32531   7.624   2.798   4.440 -0.0716 -0.4260 -0.5404
  247MOL0     C32532   7.702   2.833   4.311  0.2071 -0.0560  0.8897
  247MOL0     C32533   7.853   2.844   4.333  0.4988  0.0302  1.0619
  247MOL0     C32534   7.922   2.929   4.225  0.4337  0.8299  0.0283
  247MOL0     C32535   8.066   2.904   4.219  0.0094 -0.7944 -0.4764
  247MOL0     C32536   8.186   2.890   4.249  0.2047 -0.1435  0.4510
  247MOL0     C32537   7.371   2.615   4.483  0.0110 -0.1002  0.4585
  247MOL0     C32538   7.262   2.560   4.415 -0.3078  0.0517 -0.4120
  247MOL0     H32539   6.912   2.535   4.098 -1.0521  0.0196 -0.7636
  247MOL0     H32540   6.710   2.439   3.955  1.8375  0.0429 -0.6741
  247MOL0     H32541   6.496   2.332   3.877 -1.3365 -1.0751 -0.0726
  247MOL0     H32542   6.498   2.371   4.054  1.9540  0.4389 -0.7132
  247MOL0     H32543   6.387   2.143   4.075  2.7549 -1.0141 -1.9203
  247MOL0     H32544   6.349   2.158   3.901  2.3691  0.0704 -1.3241
  247MOL0     H32545   6.241   2.348   3.942  1.8343  0.5918  0.2802
  247MOL0     H32546   6.268   2.346   4.126  0.0632  1.3577 -0.9019
  247MOL0     H32547   6.138   2.113   3.978  2.5855 -1.8651  0.8190
  247MOL0     H32548   6.155   2.134   4.147  2.1493 -3.2555 -0.9179
  247MOL0     H32549   5.984   2.338   4.113  0.0765 -0.2330  0.6841
  247MOL0     H32550   5.928   2.171   4.057 -1.8065  0.9175 -1.2480
  247MOL0     H32551   5.981   2.250   3.832 -0.0206 -1.4370  2.1895
  247MOL0     H32552   6.040   2.403   3.902  1.5897  0.3472  2.2630
  247MOL0     H32553   5.824   2.451   3.993 -0.8371 -2.4176  1.8928
  247MOL0     H32554   5.805   2.421   3.815 -1.0679 -1.0222 -0.2049
  247MOL0     H32555   5.706   2.264   4.060  1.6704  0.4209 -0.3288
  247MOL0     H32556   5.729   2.183   3.909 -2.1218  0.0229  0.2443
  247MOL0     H32557   5.472   2.419   4.070  2.8712 -0.0237  0.4636
  247MOL0     H32558   5.286   2.570   3.882  2.3919 -0.7412 -2.0279
  247MOL0     H32559   5.221   2.440   3.992 -0.3695  2.9257  1.3570
  247MOL0     H32560   5.049   2.428   3.832 -0.9896 -2.9380 -0.5161
  247MOL0     H32561   5.158   2.306   3.768 -3.5330 -0.1932 -1.0518
  247MOL0     H32562   5.165   2.583   3.670  0.2491  0.6271  0.6399
  247MOL0     H32563   5.225   2.438   3.588  0.5039 -0.3708  1.2950
  247MOL0     H32564   5.037   2.513   3.474  0.4756  1.2979 -0.0379
  247MOL0     H32565   4.945   2.516   3.628  1.7603  0.8319  0.7820
  247MOL0     H32566   4.884   2.096   3.625 -0.7328  2.9067  2.0266
  247MOL0     H32567   4.685   2.006   3.529  0.8269  1.1525  2.4216
  247MOL0     H32568   4.220   2.094   3.406  0.5695  0.8770 -1.1771
  247MOL0     H32569   4.027   1.985   3.317  1.0045  1.8821 -2.7696
  247MOL0     H32570   3.924   1.782   3.008 -0.2308 -1.9757  0.7144
  247MOL0     H32571   3.954   1.913   3.122  1.7090 -0.0076  0.4800
  247MOL0     H32572   3.767   1.852   3.256  1.1362  1.9709 -0.6162
  247MOL0     H32573   3.754   1.690   3.200  2.3585 -0.5615 -1.5626
  247MOL0     H32574   3.716   1.755   2.973  0.2549  0.4166  1.1796
  247MOL0     H32575   3.691   1.929   3.015  2.2907  0.6777  1.8020
  247MOL0     H32576   3.537   1.701   3.117 -1.5758 -1.8537 -6.5530
  247MOL0     H32577   3.520   1.869   3.179  0.7721  0.7288  0.1221
  247MOL0     H32578   3.479   1.844   2.890 -1.5786  0.5440 -0.5961
  247MOL0     H32579   3.407   1.943   3.015  0.4880  0.1904 -0.0018
  247MOL0     H32580   3.268   1.750   3.113 -1.1828 -2.8815  0.3970
  247MOL0     H32581   3.353   1.644   3.014 -2.3485 -1.4217  0.3503
  247MOL0     H32582   3.272   1.744   2.802 -0.0033  2.6257 -0.4645
  247MOL0     H32583   3.133   1.697   2.914 -0.2524 -0.6410 -0.8576
  247MOL0     H32584   3.097   1.913   2.807 -0.1653 -0.4166  0.8307
  247MOL0     H32585   3.244   1.976   2.877  1.2875 -0.4559 -2.3818
  247MOL0     H32586   4.271   1.640   3.176  2.5921  0.3479  0.1990
  247MOL0     H32587   4.462   1.747   3.271  0.2123  0.6425 -0.2530
  247MOL0     H32588   4.587   2.374   3.340 -2.4805 -2.0989  1.2431
  247MOL0     H32589   4.805   2.474   3.433  1.5544  0.4493  1.2999
  247MOL0     H32590   6.764   2.072   4.146  1.9023 -0.0353 -1.4220
  247MOL0     H32591   6.942   2.146   4.278  0.5874 -0.5736  0.7988
  247MOL0     H32592   7.421   2.406   4.162 -0.0593  1.5205 -0.8030
  247MOL0     H32593   7.618   2.505   4.275  0.3813 -0.4369 -1.4456
  247MOL0     H32594   7.661   2.852   4.528 -2.3961 -3.6107  2.7115
  247MOL0     H32595   7.523   2.839   4.426  0.1914  1.2814  1.8441
  247MOL0     H32596   7.684   2.748   4.245 -0.7001 -0.9228  2.1921
  247MOL0     H32597   7.659   2.927   4.276  1.6736  0.1695 -0.3781
  247MOL0     H32598   7.894   2.743   4.330  1.7594  0.5065 -2.1838
  247MOL0     H32599   7.872   2.892   4.429 -0.3008  1.3496  0.6008
  247MOL0     H32600   7.882   2.908   4.126 -4.2606 -0.5451  1.9593
  247MOL0     H32601   7.901   3.035   4.243  2.7545  1.7454 -2.0968
  247MOL0     H32602   8.290   2.877   4.271  0.2416 -1.6622 -0.4393
  247MOL0     H32603   7.352   2.670   4.574  0.9033 -0.8100  1.0871
  247MOL0     H32604   7.159   2.562   4.452  0.5917 -0.8689  2.4164
  248MOL0     O32605   1.265   6.933   4.353 -0.1590 -0.4788 -0.5269
  248MOL0     C32606   1.358   6.960   4.276 -0.7745  0.1824 -0.1929
  248MOL0     O32607   1.356   7.063   4.186 -0.5863  0.0102  0.1060
  248MOL0     C32608   1.246   7.139   4.150 -0.0985  0.1172 -0.3381
  248MOL0     C32609   1.116   7.087   4.158 -0.2691 -0.5772 -0.1209
  248MOL0     C32610   1.006   7.163   4.106 -0.1252 -0.4162  0.4105
  248MOL0     C32611   1.038   7.275   4.037  1.3593 -0.8951 -0.1351
  248MOL0     O32612   0.936   7.340   3.967  0.0339  0.4361  0.0463
  248MOL0     C32613   0.789   7.316   3.988 -0.3323  0.0968  0.2699
  248MOL0     C32614   0.740   7.385   4.116 -0.6447 -0.2608  1.1481
  248MOL0     C32615   0.780   7.536   4.112 -0.1721 -0.0057 -0.0308
  248MOL0     C32616   0.721   7.591   4.240  0.9881 -0.2184 -0.0122
  248MOL0     C32617   0.704   7.741   4.245 -0.8413 -0.6597 -0.0143
  248MOL0     C32618   0.695   7.787   4.389 -0.0834 -0.1070  0.0058
  248MOL0     C32619   0.672   7.938   4.402 -0.4565 -0.3037  0.4076
  248MOL0     C32620   0.532   7.993   4.351 -0.6142 -0.3901 -0.9967
  248MOL0     N32621   0.430   7.899   4.385  0.0998  0.0282 -0.5018
  248MOL0     C32622   0.353   7.835   4.290 -1.6813  0.2945 -0.4258
  248MOL0     C32623   0.269   7.762   4.364  0.4598 -0.1831 -0.1509
  248MOL0     C32624   0.194   7.648   4.309  0.2108 -0.2985 -0.0083
  248MOL0     C32625   0.201   7.532   4.411  0.2504 -0.0064  0.1090
  248MOL0     C32626   0.165   7.398   4.331 -0.4270 -0.1163  0.1862
  248MOL0     C32627   0.014   7.400   4.303  0.1246  0.0987 -0.5430
  248MOL0     O32628  -0.029   7.269   4.285 -0.9313  0.3475 -0.0388
  248MOL0     C32629  -0.167   7.260   4.269 -0.5304  0.6478  0.3013
  248MOL0     C32630  -0.196   7.144   4.196  1.1806  0.1882 -0.7517
  248MOL0     C32631  -0.330   7.101   4.183  1.1158 -0.1428 -0.8028
  248MOL0     C32632  -0.435   7.195   4.213  0.0274  0.1658 -0.7951
  248MOL0     C32633  -0.574   7.147   4.217 -0.1522  0.3446  0.7779
  248MOL0     O32634  -0.671   7.212   4.288  0.0356  0.0813 -0.0974
  248MOL0     C32635  -0.802   7.196   4.250 -1.0904 -0.3195  0.8938
  248MOL0     C32636  -0.859   7.289   4.155  0.1822 -0.0754  0.7859
  248MOL0     C32637  -0.984   7.275   4.101 -0.0974  0.6961  0.5314
  248MOL0     C32638  -1.070   7.169   4.142  1.3467  0.2269 -0.9161
  248MOL0     O32639  -1.203   7.147   4.108 -0.1343 -0.2603 -0.3457
  248MOL0     C32640  -1.236   7.225   3.991 -0.0371  0.4847 -0.6969
  248MOL0     C32641  -1.359   7.179   3.912  0.0640 -0.1446  0.4679
  248MOL0     C32642  -1.477   7.215   3.986 -0.9938 -0.2973  0.6333
  248MOL0     C32643  -1.613   7.171   3.948 -0.6699 -0.0798  0.5302
  248MOL0     C32644  -1.729   7.252   4.016 -0.1150  0.0803 -0.2903
  248MOL0     C32645  -1.856   7.250   3.929  0.7149  0.0388  0.3312
  248MOL0     C32646  -1.988   7.264   4.017 -0.3376  0.7242 -0.5707
  248MOL0     C32647  -2.028   7.134   4.070 -0.5747 -0.8107  0.4037
  248MOL0    Cl32648  -2.180   7.169   4.164 -0.1435 -0.0168 -0.0102
  248MOL0     C32649  -1.011   7.074   4.234 -0.0152  0.1662 -0.7908
  248MOL0     C32650  -0.882   7.087   4.282 -0.1671  0.7015  0.1062
  248MOL0     O32651  -0.593   7.050   4.155  0.2572  0.6499  0.7057
  248MOL0     C32652  -0.399   7.315   4.281 -0.4894  1.0709 -0.3193
  248MOL0     C32653  -0.270   7.344   4.308 -0.0079 -0.8194  0.0800
  248MOL0     N32654   0.270   7.797   4.492 -0.1372 -0.5089 -0.6939
  248MOL0     N32655   0.374   7.878   4.509 -0.1559 -0.0662 -0.6170
  248MOL0     C32656   1.165   7.328   4.030 -0.9160 -0.6720 -0.1124
  248MOL0     C32657   1.267   7.260   4.089 -0.2658  0.0079  0.5980
  248MOL0     C32658   1.482   6.893   4.313 -0.2473 -0.5595  0.9683
  248MOL0     C32659   1.604   6.951   4.263  0.9395 -0.2564  1.4611
  248MOL0     C32660   1.726   6.888   4.283  0.0339  0.6199  0.0213
  248MOL0     C32661   1.740   6.761   4.351 -0.4795 -0.0253  0.6015
  248MOL0     O32662   1.844   6.674   4.357  0.2641  0.7550 -0.5709
  248MOL0     C32663   1.985   6.727   4.366  0.8354  0.0436 -0.6921
  248MOL0     C32664   2.052   6.661   4.242 -0.2711 -0.3660 -0.2074
  248MOL0     C32665   2.203   6.693   4.234  0.1465  0.1007 -0.4416
  248MOL0     C32666   2.259   6.630   4.110 -0.2396 -0.2270 -0.4640
  248MOL0     C32667   2.405   6.652   4.109  0.2579 -0.1408  0.3407
  248MOL0     C32668   2.528   6.640   4.096  0.0549 -0.1103  0.1322
  248MOL0     C32669   1.620   6.709   4.400 -0.4853  0.3788  0.1005
  248MOL0     C32670   1.493   6.777   4.385 -0.6252 -0.0309 -1.1504
  248MOL0     H32671   1.085   6.996   4.207  0.8188 -0.9895 -0.1777
  248MOL0     H32672   0.908   7.116   4.103 -0.2328 -0.1619 -0.9401
  248MOL0     H32673   0.752   7.214   3.976  1.8809 -0.7108 -0.1641
  248MOL0     H32674   0.751   7.370   3.900 -1.5352  0.8390  1.2093
  248MOL0     H32675   0.772   7.332   4.207 -1.4748 -2.7627  0.0689
  248MOL0     H32676   0.632   7.372   4.121 -0.7163 -2.3136 -2.5066
  248MOL0     H32677   0.725   7.589   4.034 -1.0595  0.1444  0.6836
  248MOL0     H32678   0.888   7.545   4.100 -0.0450  0.5559  1.3388
  248MOL0     H32679   0.618   7.555   4.250  0.1680  2.3184  1.4916
  248MOL0     H32680   0.779   7.550   4.323  0.4087 -2.2986 -0.5704
  248MOL0     H32681   0.623   7.777   4.181  1.4830  1.7400 -1.8170
  248MOL0     H32682   0.794   7.782   4.199 -1.7004  1.9833  0.5017
  248MOL0     H32683   0.791   7.770   4.438 -0.1996  0.1740  0.3366
  248MOL0     H32684   0.616   7.730   4.439 -0.1251 -3.6293 -3.5982
  248MOL0     H32685   0.681   7.971   4.506  0.9886 -0.7272  0.4379
  248MOL0     H32686   0.751   7.995   4.353  0.5846 -1.0078  1.2062
  248MOL0     H32687   0.533   8.007   4.242  1.4527  0.4242 -0.9256
  248MOL0     H32688   0.521   8.093   4.393  0.7421 -0.1915 -1.0495
  248MOL0     H32689   0.375   7.817   4.185 -2.8404  1.5705 -0.9164
  248MOL0     H32690   0.240   7.623   4.213  0.0210 -0.0827 -0.1554
  248MOL0     H32691   0.092   7.682   4.287  1.2542  1.8601 -1.8983
  248MOL0     H32692   0.146   7.555   4.503  0.9726  0.3956  0.4453
  248MOL0     H32693   0.306   7.515   4.437  0.8790  0.6646 -1.8338
  248MOL0     H32694   0.237   7.379   4.251 -0.4050 -0.1813  0.2209
  248MOL0     H32695   0.186   7.316   4.400 -0.8844  2.0424  3.0562
  248MOL0     H32696  -0.002   7.461   4.214 -0.9262  2.7802  1.3412
  248MOL0     H32697  -0.034   7.451   4.387  0.4473  0.2582 -0.4515
  248MOL0     H32698  -0.120   7.077   4.157 -1.1725 -1.3033 -3.1202
  248MOL0     H32699  -0.359   7.003   4.145  0.0386 -0.6442  1.1426
  248MOL0     H32700  -0.807   7.381   4.133 -2.4270  1.8350  1.9640
  248MOL0     H32701  -1.020   7.357   4.040  3.3291  1.1524 -1.1421
  248MOL0     H32702  -1.151   7.207   3.925  0.0910 -1.1460 -0.1370
  248MOL0     H32703  -1.250   7.327   4.026 -0.6144 -0.8007  3.3548
  248MOL0     H32704  -1.373   7.071   3.902 -0.1232  0.0548 -2.3581
  248MOL0     H32705  -1.339   7.218   3.811 -0.4458  1.9222  1.1217
  248MOL0     H32706  -1.478   7.322   4.008 -0.1802 -1.0843  5.6500
  248MOL0     H32707  -1.446   7.181   4.085  2.7787 -3.8598 -1.4511
  248MOL0     H32708  -1.633   7.172   3.841  0.4395  0.4406  0.3112
  248MOL0     H32709  -1.615   7.065   3.975  1.6219 -0.5224 -0.7401
  248MOL0     H32710  -1.698   7.355   4.035  2.6683 -0.4386 -1.5218
  248MOL0     H32711  -1.746   7.206   4.113 -1.4267  3.9322  1.5318
  248MOL0     H32712  -1.857   7.150   3.884  1.9344 -1.4861  3.3926
  248MOL0     H32713  -1.860   7.316   3.842 -0.8863 -0.3790  0.0512
  248MOL0     H32714  -1.959   7.334   4.096  1.2440 -0.0327 -0.4534
  248MOL0     H32715  -2.071   7.320   3.973 -0.3221  0.0041 -1.5206
  248MOL0     H32716  -1.953   7.089   4.135 -3.1326 -3.0000  2.0818
  248MOL0     H32717  -2.049   7.065   3.987 -1.5609 -0.2181  0.1429
  248MOL0     H32718  -1.053   6.988   4.286  0.1641  0.9332  0.6551
  248MOL0     H32719  -0.843   6.999   4.333  1.5676  0.0063 -2.2773
  248MOL0     H32720  -0.491   7.359   4.317 -2.5962 -1.1988 -2.5034
  248MOL0     H32721  -0.254   7.436   4.363 -0.6469 -1.7558  1.9344
  248MOL0     H32722   1.193   7.418   3.977 -2.7294  0.5952  0.9950
  248MOL0     H32723   1.369   7.285   4.063  0.9753 -2.6342  2.4538
  248MOL0     H32724   1.596   7.039   4.199  1.9612  0.7917  2.7426
  248MOL0     H32725   1.816   6.919   4.231  0.3781  0.8401  0.7399
  248MOL0     H32726   2.036   6.692   4.457 -0.7084  0.9855  0.5917
  248MOL0     H32727   1.997   6.836   4.360  2.7983 -0.1888 -1.7126
  248MOL0     H32728   2.028   6.556   4.258 -0.6335 -0.3446 -0.6104
  248MOL0     H32729   2.007   6.700   4.149 -0.2741 -0.3057 -0.1812
  248MOL0     H32730   2.258   6.659   4.323  3.1432  3.0503 -0.9820
  248MOL0     H32731   2.227   6.800   4.230  1.4088 -0.0562  1.5425
  248MOL0     H32732   2.228   6.525   4.114 -3.3381  0.6090  0.7749
  248MOL0     H32733   2.220   6.680   4.021  1.6631  0.1918 -1.1047
  248MOL0     H32734   2.631   6.632   4.071  0.1220 -3.5402  1.0442
  248MOL0     H32735   1.626   6.621   4.463 -0.3093  1.2685  1.3762
  248MOL0     H32736   1.408   6.727   4.429 -1.3820  0.9340 -1.4755
  249MOL0     O32737   3.188   0.330   8.425 -0.8850 -0.2484  0.1163
  249MOL0     C32738   3.167   0.453   8.415  0.0267  0.6292 -0.5705
  249MOL0     O32739   3.042   0.518   8.440  0.9685  0.0987 -0.4059
  249MOL0     C32740   2.926   0.467   8.480 -0.0833 -0.3397 -0.9585
  249MOL0     C32741   2.893   0.332   8.471 -0.1189 -0.5731  0.5496
  249MOL0     C32742   2.757   0.289   8.504 -0.2049  0.4696 -0.0071
  249MOL0     C32743   2.653   0.388   8.521 -0.8348  0.4136 -0.0636
  249MOL0     O32744   2.526   0.345   8.543 -0.3913 -0.1713 -0.3346
  249MOL0     C32745   2.419   0.433   8.519  0.3017 -0.2322 -0.7553
  249MOL0     C32746   2.287   0.365   8.537  0.1630  0.6508 -0.4536
  249MOL0     C32747   2.254   0.306   8.668  0.1260  0.3060  0.3911
  249MOL0     C32748   2.102   0.265   8.672 -0.2373 -0.0349  1.0590
  249MOL0     C32749   2.083   0.179   8.799  0.2712  0.6256  0.6412
  249MOL0     C32750   1.931   0.149   8.813 -0.1211  0.9448 -0.2867
  249MOL0     C32751   1.888   0.046   8.705 -0.1200 -1.5257  0.4316
  249MOL0     C32752   1.747  -0.008   8.737 -0.7971 -0.3737 -0.5530
  249MOL0     N32753   1.717  -0.128   8.654 -0.4094  0.3847 -0.7216
  249MOL0     C32754   1.722  -0.262   8.705 -0.4181 -1.5983  0.5386
  249MOL0     C32755   1.654  -0.338   8.615 -0.0293  0.1524  0.1926
  249MOL0     C32756   1.678  -0.491   8.602  0.1708  0.1189  0.4833
  249MOL0     C32757   1.567  -0.572   8.689  0.0437 -0.5599 -0.7427
  249MOL0     C32758   1.595  -0.725   8.681 -0.5806  0.5649  0.6588
  249MOL0     C32759   1.731  -0.759   8.726  0.6819 -0.5705  0.3653
  249MOL0     O32760   1.816  -0.781   8.620  0.6819  0.0970 -0.1223
  249MOL0     C32761   1.952  -0.772   8.647  0.2357 -1.3575  0.2534
  249MOL0     C32762   2.036  -0.731   8.550  0.0739  0.6178 -0.4357
  249MOL0     C32763   2.170  -0.695   8.576 -0.0237  0.3285 -0.6909
  249MOL0     C32764   2.219  -0.707   8.719  0.2142  0.8788 -0.2131
  249MOL0     C32765   2.357  -0.660   8.751 -0.5639 -0.2784  0.8947
  249MOL0     O32766   2.418  -0.578   8.661 -0.6647  0.2655  0.9704
  249MOL0     C32767   2.548  -0.532   8.681 -0.1851 -0.3634 -0.1736
  249MOL0     C32768   2.588  -0.488   8.806  0.7422 -0.1334 -0.2062
  249MOL0     C32769   2.722  -0.460   8.833  0.5629 -0.5628 -0.0120
  249MOL0     C32770   2.816  -0.466   8.727 -0.3787  0.3181  0.5111
  249MOL0     O32771   2.935  -0.428   8.767 -0.0153  0.5814 -0.3049
  249MOL0     C32772   3.008  -0.362   8.669  0.7165 -0.0016  1.1776
  249MOL0     C32773   3.132  -0.300   8.724 -0.2035  0.2795 -0.0915
  249MOL0     C32774   3.257  -0.388   8.718  0.0553  0.0582 -0.1793
  249MOL0     C32775   3.376  -0.320   8.783  0.2508 -0.8052  0.3698
  249MOL0     C32776   3.483  -0.416   8.793 -0.4378  0.5024  0.2743
  249MOL0     C32777   3.482  -0.511   8.926 -0.0703  0.5480 -0.0415
  249MOL0     C32778   3.623  -0.541   8.966 -0.8920 -0.3711 -0.8887
  249MOL0     C32779   3.616  -0.659   9.070  0.1394  0.6690  0.2034
  249MOL0    Cl32780   3.783  -0.684   9.115 -0.0849 -0.4427  0.4217
  249MOL0     C32781   2.777  -0.504   8.600 -0.5002  0.8193  0.1891
  249MOL0     C32782   2.639  -0.531   8.580 -0.4168 -0.2823 -0.3053
  249MOL0     O32783   2.405  -0.694   8.859 -0.5364 -0.0538 -0.2733
  249MOL0     C32784   2.134  -0.764   8.807 -0.1985  0.7156 -1.0286
  249MOL0     C32785   2.006  -0.792   8.777 -0.4790  0.4886  0.2534
  249MOL0     N32786   1.599  -0.247   8.518 -0.6660  0.1718  0.0452
  249MOL0     N32787   1.628  -0.125   8.547  0.2057 -0.5131 -0.5512
  249MOL0     C32788   2.699   0.526   8.520 -0.0100  0.2949 -0.3801
  249MOL0     C32789   2.834   0.563   8.511  0.1077 -0.0228  0.8124
  249MOL0     C32790   3.287   0.546   8.391  0.1131 -0.4324 -0.4080
  249MOL0     C32791   3.276   0.685   8.373  0.7562 -0.1695 -0.4408
  249MOL0     C32792   3.388   0.766   8.337  0.0928  0.0431 -0.5115
  249MOL0     C32793   3.509   0.704   8.303  0.0550 -0.4487 -0.2170
  249MOL0     O32794   3.609   0.782   8.256 -0.1592 -0.4042 -0.1399
  249MOL0     C32795   3.705   0.724   8.162  0.2260 -0.1763  0.2479
  249MOL0     C32796   3.735   0.825   8.056 -0.4602  0.6120  0.1389
  249MOL0     C32797   3.791   0.957   8.112  0.1281 -0.0964 -0.0830
  249MOL0     C32798   3.842   1.040   7.994  0.0319 -0.6157  1.2611
  249MOL0     C32799   3.903   1.164   8.045  0.2015  0.3926 -0.7750
  249MOL0     C32800   3.957   1.271   8.072 -0.2466  0.6647  0.1319
  249MOL0     C32801   3.515   0.563   8.328 -1.2747 -0.0665  0.0323
  249MOL0     C32802   3.405   0.490   8.374 -2.2446 -0.4756 -0.1964
  249MOL0     H32803   2.969   0.264   8.434  3.2990  3.0148  0.1824
  249MOL0     H32804   2.734   0.184   8.520  0.6969  0.4592  1.3747
  249MOL0     H32805   2.433   0.481   8.422  1.5696 -0.1272 -0.5385
  249MOL0     H32806   2.413   0.514   8.593  2.5478  0.1289 -0.8925
  249MOL0     H32807   2.265   0.283   8.468 -2.9807 -1.2218  2.4464
  249MOL0     H32808   2.209   0.437   8.506 -0.7656 -0.4108 -0.6526
  249MOL0     H32809   2.276   0.379   8.747 -0.8200 -4.4523  5.7572
  249MOL0     H32810   2.318   0.219   8.686 -0.6846 -1.1117 -2.8453
  249MOL0     H32811   2.037   0.353   8.672 -0.8752 -0.4660 -0.7773
  249MOL0     H32812   2.062   0.202   8.592 -0.9832  1.9273 -0.1707
  249MOL0     H32813   2.124   0.238   8.882 -0.4634  1.5758  0.3425
  249MOL0     H32814   2.140   0.086   8.801  0.5130  0.7745  2.1959
  249MOL0     H32815   1.876   0.242   8.799 -1.6086 -0.1557 -2.1755
  249MOL0     H32816   1.903   0.112   8.913  1.2625 -1.5266 -0.7131
  249MOL0     H32817   1.873   0.085   8.604  2.1641 -1.2159  0.1588
  249MOL0     H32818   1.958  -0.038   8.699  3.0257  0.8757  0.9734
  249MOL0     H32819   1.655   0.051   8.728 -1.1186 -0.7533  0.1290
  249MOL0     H32820   1.758  -0.039   8.842 -0.0513  2.0102  0.1415
  249MOL0     H32821   1.778  -0.290   8.794  0.8552  1.1989  0.7328
  249MOL0     H32822   1.781  -0.512   8.630  0.0084 -2.2774 -0.4415
  249MOL0     H32823   1.672  -0.521   8.497  3.3079 -0.9457  0.5102
  249MOL0     H32824   1.470  -0.544   8.647  1.2140  1.6049 -2.2025
  249MOL0     H32825   1.573  -0.530   8.790  0.6954 -0.2920 -0.8845
  249MOL0     H32826   1.520  -0.763   8.751 -0.0019  0.7217  1.3838
  249MOL0     H32827   1.577  -0.758   8.578  1.2895  1.9388 -0.1733
  249MOL0     H32828   1.722  -0.857   8.774 -1.9241 -0.7267 -0.2850
  249MOL0     H32829   1.770  -0.681   8.791  0.8875 -1.7323  1.6982
  249MOL0     H32830   2.000  -0.698   8.453  2.1081 -1.1263 -1.8552
  249MOL0     H32831   2.223  -0.652   8.491 -1.4333  1.5927 -0.9853
  249MOL0     H32832   2.514  -0.483   8.885 -0.9246 -4.2812 -1.2410
  249MOL0     H32833   2.763  -0.429   8.928  1.0624 -1.8535  0.2111
  249MOL0     H32834   2.946  -0.280   8.631  0.0316 -1.3329 -0.7475
  249MOL0     H32835   3.026  -0.439   8.593 -0.4649 -2.6275  3.3910
  249MOL0     H32836   3.110  -0.274   8.828  0.0670 -0.1580  0.0773
  249MOL0     H32837   3.154  -0.211   8.664  0.4878  2.0959  2.6852
  249MOL0     H32838   3.283  -0.428   8.620  1.5800  1.2040 -0.2890
  249MOL0     H32839   3.237  -0.477   8.778  1.6950  0.9816  1.8717
  249MOL0     H32840   3.403  -0.235   8.720  1.8299 -1.3068  0.3254
  249MOL0     H32841   3.360  -0.277   8.883  1.1093  2.3492 -0.7052
  249MOL0     H32842   3.575  -0.358   8.785  0.2353 -0.3461  1.4701
  249MOL0     H32843   3.479  -0.489   8.711  1.3017  1.5208 -0.7946
  249MOL0     H32844   3.411  -0.593   8.918 -0.7191  0.9875  1.0313
  249MOL0     H32845   3.440  -0.438   8.995 -0.5190  0.8653 -0.6376
  249MOL0     H32846   3.673  -0.584   8.878 -2.5081 -2.2612 -0.9463
  249MOL0     H32847   3.674  -0.451   9.002 -1.9282 -0.5327  1.0485
  249MOL0     H32848   3.569  -0.750   9.031  0.1291  0.3960  0.8416
  249MOL0     H32849   3.563  -0.625   9.159 -0.7159 -0.2126  0.0521
  249MOL0     H32850   2.847  -0.503   8.517  0.2195  2.4057  0.7762
  249MOL0     H32851   2.600  -0.562   8.484  0.9279  2.5928 -1.9375
  249MOL0     H32852   2.165  -0.773   8.911 -1.2223 -4.5988 -0.9256
  249MOL0     H32853   1.959  -0.854   8.853  1.2216 -3.9777 -1.9325
  249MOL0     H32854   2.624   0.604   8.529 -1.8806 -1.4985  0.1640
  249MOL0     H32855   2.857   0.668   8.525 -0.8442  0.8695 -3.0797
  249MOL0     H32856   3.178   0.729   8.387  0.5624 -0.3693 -1.1480
  249MOL0     H32857   3.377   0.874   8.338  0.5480  0.1464  2.2458
  249MOL0     H32858   3.666   0.631   8.119  1.1074 -0.3550 -0.1993
  249MOL0     H32859   3.793   0.696   8.220 -1.2049  1.5626  3.4978
  249MOL0     H32860   3.806   0.785   7.983  0.6745 -0.1696  1.6348
  249MOL0     H32861   3.641   0.838   8.002 -0.4504 -2.9046 -0.9467
  249MOL0     H32862   3.873   0.950   8.184  0.3383  0.7584 -0.2362
  249MOL0     H32863   3.712   1.014   8.162  0.5953  1.1602 -0.7337
  249MOL0     H32864   3.918   0.981   7.940 -2.5026 -1.2588 -1.8814
  249MOL0     H32865   3.756   1.065   7.931  0.7279  1.5793  1.1094
  249MOL0     H32866   4.025   1.354   8.077  1.8235 -0.9452  0.3769
  249MOL0     H32867   3.606   0.507   8.309 -0.8734  0.1401  1.2533
  249MOL0     H32868   3.430   0.385   8.390  0.0360 -0.0142 -0.4362
  250MOL0     O32869   8.932   4.878   2.199 -0.3295 -0.9087 -0.4196
  250MOL0     C32870   8.897   4.895   2.084  1.1739 -0.3462  0.3487
  250MOL0     O32871   8.975   4.925   1.978 -0.4865  0.3573 -0.5851
  250MOL0     C32872   9.116   4.928   1.997 -0.5249  0.0402 -0.1500
  250MOL0     C32873   9.190   4.978   2.113  0.4814 -0.5433 -0.8629
  250MOL0     C32874   9.326   4.963   2.129  0.0190 -0.2235  0.2931
  250MOL0     C32875   9.390   4.897   2.022 -0.5479 -0.3383  0.0311
  250MOL0     O32876   9.522   4.880   2.018 -0.1224  1.0000 -0.3188
  250MOL0     C32877   9.600   4.890   1.896 -0.2049 -0.2344  1.0644
  250MOL0     C32878   9.743   4.902   1.935 -0.2167 -0.6590 -0.6083
  250MOL0     C32879   9.789   4.782   2.024  0.4150 -0.6919  0.1551
  250MOL0     C32880   9.938   4.797   2.088 -0.3380 -1.0058  0.7969
  250MOL0     C32881   9.986   4.701   2.196  0.5430 -1.0320 -0.1123
  250MOL0     C32882   9.969   4.742   2.344  0.2001 -1.2898 -0.2626
  250MOL0     C32883  10.038   4.651   2.433 -0.5489  0.3050  0.4642
  250MOL0     C32884  10.170   4.598   2.400 -0.8155  0.4452  0.3292
  250MOL0     N32885  10.271   4.703   2.401  1.3307 -0.3947 -0.7934
  250MOL0     C32886  10.306   4.786   2.296 -0.6140  0.5640 -0.6950
  250MOL0     C32887  10.397   4.878   2.342 -0.3705 -0.0974  0.9413
  250MOL0     C32888  10.443   5.016   2.281  0.9172 -0.0480  0.3566
  250MOL0     C32889  10.561   5.033   2.193 -0.5430  0.3021 -0.2289
  250MOL0     C32890  10.690   4.970   2.260 -0.1049 -0.5952  1.4044
  250MOL0     C32891  10.734   5.067   2.363 -0.3965  0.0603 -0.0542
  250MOL0     O32892  10.747   5.205   2.324 -0.0845 -0.4833 -0.1561
  250MOL0     C32893  10.871   5.252   2.278  1.6144  0.1699  0.3338
  250MOL0     C32894  10.982   5.174   2.255 -0.2587  0.9404 -0.1603
  250MOL0     C32895  11.101   5.238   2.207 -0.6188  0.0146 -0.2227
  250MOL0     C32896  11.104   5.370   2.173  0.5181  0.0226 -0.6114
  250MOL0     C32897  11.231   5.442   2.126 -0.0179 -1.0622  0.2888
  250MOL0     O32898  11.351   5.381   2.145  0.1772  0.3302 -0.4162
  250MOL0     C32899  11.471   5.432   2.101 -0.4975 -0.6417 -0.1410
  250MOL0     C32900  11.569   5.338   2.071 -0.5607  0.1412  0.6651
  250MOL0     C32901  11.691   5.378   2.013 -0.5272 -0.0340  0.0887
  250MOL0     C32902  11.723   5.520   2.003 -0.0205 -0.8582 -0.3086
  250MOL0     O32903  11.837   5.579   1.961  0.1851 -1.2544  0.7309
  250MOL0     C32904  11.898   5.522   1.841  0.0822  0.5512 -0.3990
  250MOL0     C32905  12.058   5.504   1.840  0.6303  0.0497 -0.0838
  250MOL0     C32906  12.124   5.637   1.861  0.6992  0.8422 -0.2370
  250MOL0     C32907  12.275   5.625   1.878 -1.0187 -0.8896 -0.4400
  250MOL0     C32908  12.345   5.744   1.946  0.2065  0.3150  0.0612
  250MOL0     C32909  12.351   5.876   1.865  0.2387 -0.1884  0.2094
  250MOL0     C32910  12.486   5.952   1.880  0.0616 -0.3235  0.3007
  250MOL0     C32911  12.522   5.992   2.023  0.4209  0.8797  0.3493
  250MOL0    Cl32912  12.648   6.117   2.017  0.0812 -0.7151  0.1378
  250MOL0     C32913  11.634   5.614   2.050  0.1391  0.0046  0.7060
  250MOL0     C32914  11.509   5.572   2.102 -0.1159 -0.1048  1.1871
  250MOL0     O32915  11.217   5.556   2.086  0.4025  0.4485 -0.4768
  250MOL0     C32916  10.982   5.442   2.188 -0.4611  0.1187  0.2790
  250MOL0     C32917  10.867   5.384   2.233 -0.1037  0.2466  0.4763
  250MOL0     N32918  10.411   4.851   2.478  0.4721  0.8382 -0.3378
  250MOL0     N32919  10.331   4.755   2.513  0.0066  0.2860 -0.4491
  250MOL0     C32920   9.323   4.857   1.902 -0.4924  0.3626 -0.3500
  250MOL0     C32921   9.185   4.874   1.889  0.5071 -0.6159  0.1808
  250MOL0     C32922   8.763   4.852   2.052  0.5740 -0.2459  0.3774
  250MOL0     C32923   8.674   4.820   2.151  0.8580 -0.6933  1.1253
  250MOL0     C32924   8.545   4.771   2.125  0.3193  0.8463  0.1829
  250MOL0     C32925   8.507   4.752   1.995  0.2317  0.6705 -0.9951
  250MOL0     O32926   8.386   4.706   1.951  0.1924 -0.4347 -0.6097
  250MOL0     C32927   8.283   4.689   2.053  0.3659 -0.1171  0.1078
  250MOL0     C32928   8.153   4.678   1.966  0.4454  0.3798 -0.5464
  250MOL0     C32929   8.030   4.630   2.048 -0.0748 -0.7646  0.0453
  250MOL0     C32930   8.032   4.486   2.110  0.6860  0.6207  0.2058
  250MOL0     C32931   8.078   4.479   2.251 -1.1525 -0.0178  0.5597
  250MOL0     C32932   8.140   4.466   2.362 -0.0375  0.5437  0.7714
  250MOL0     C32933   8.592   4.778   1.888 -0.7429  0.5418 -1.1466
  250MOL0     C32934   8.720   4.815   1.920 -1.2351  0.0294 -0.0540
  250MOL0     H32935   9.127   5.025   2.188  1.7156  1.2119 -0.8833
  250MOL0     H32936   9.386   4.993   2.214  1.7075 -0.8358 -0.6241
  250MOL0     H32937   9.574   4.983   1.844  0.3823  0.6616  2.3224
  250MOL0     H32938   9.584   4.803   1.830  2.2400  0.4952 -0.6281
  250MOL0     H32939   9.768   4.994   1.989  2.2741 -1.1632 -0.7575
  250MOL0     H32940   9.797   4.899   1.840 -0.0717  2.0203 -0.6656
  250MOL0     H32941   9.788   4.697   1.955 -0.2779  1.9397 -3.3489
  250MOL0     H32942   9.712   4.766   2.100 -0.5738  0.9581 -0.4500
  250MOL0     H32943  10.017   4.789   2.012  0.4859 -1.8680  1.7196
  250MOL0     H32944   9.956   4.898   2.125  3.8555 -0.5725 -1.7837
  250MOL0     H32945  10.089   4.673   2.175  0.9933  0.9953 -0.9033
  250MOL0     H32946   9.938   4.603   2.193  2.7293 -2.2707  2.1509
  250MOL0     H32947   9.861   4.737   2.361  0.0248 -0.9013 -1.2083
  250MOL0     H32948   9.999   4.846   2.358 -3.3009 -0.2027  0.1758
  250MOL0     H32949  10.049   4.700   2.530 -0.2806 -0.1978  0.6917
  250MOL0     H32950   9.981   4.560   2.449 -1.4148  0.0598 -3.2020
  250MOL0     H32951  10.170   4.546   2.304  0.8626  0.3029  0.3866
  250MOL0     H32952  10.199   4.521   2.473 -0.3536  1.3847  1.1579
  250MOL0     H32953  10.276   4.767   2.193  1.9086 -1.6428 -1.1610
  250MOL0     H32954  10.461   5.085   2.364  1.8122 -3.2856  3.0714
  250MOL0     H32955  10.350   5.045   2.232  1.4659  1.1632  0.0046
  250MOL0     H32956  10.571   5.137   2.160 -0.8611  0.6239  0.6494
  250MOL0     H32957  10.545   4.973   2.103  0.0415  3.2030 -2.4110
  250MOL0     H32958  10.659   4.878   2.311 -2.2463  0.6271  2.4588
  250MOL0     H32959  10.773   4.956   2.191 -1.4507 -0.9953 -0.2060
  250MOL0     H32960  10.828   5.038   2.411 -0.4280 -0.2997 -0.2110
  250MOL0     H32961  10.654   5.069   2.437 -1.9888  0.7984 -1.7105
  250MOL0     H32962  10.991   5.068   2.280  2.0479  1.8635  3.7065
  250MOL0     H32963  11.190   5.176   2.201  0.0478  0.9238 -0.0801
  250MOL0     H32964  11.560   5.233   2.098  1.8652 -1.4103 -3.6738
  250MOL0     H32965  11.755   5.297   1.980 -1.9109 -2.0939  2.1475
  250MOL0     H32966  11.870   5.585   1.755  0.8596  3.7919  1.5304
  250MOL0     H32967  11.860   5.420   1.830  2.5809 -0.3446 -1.3863
  250MOL0     H32968  12.090   5.464   1.743  0.4420  0.6392 -0.3953
  250MOL0     H32969  12.091   5.437   1.920  3.8131  2.1875  0.5608
  250MOL0     H32970  12.088   5.692   1.949 -0.2730  4.0271 -2.4321
  250MOL0     H32971  12.107   5.694   1.769  3.0088  0.0388 -1.2254
  250MOL0     H32972  12.291   5.541   1.946 -2.5051 -0.1911  0.8364
  250MOL0     H32973  12.310   5.608   1.776 -1.4603  2.0909 -1.1943
  250MOL0     H32974  12.442   5.706   1.982  1.2634  2.6549 -0.1345
  250MOL0     H32975  12.288   5.766   2.036  2.1148 -2.0841  2.0164
  250MOL0     H32976  12.277   5.947   1.903  0.3715  1.1323 -1.8308
  250MOL0     H32977  12.326   5.860   1.760 -1.9127  2.6476  0.1605
  250MOL0     H32978  12.564   5.904   1.820  0.9470  2.2201 -0.7281
  250MOL0     H32979  12.475   6.043   1.821 -1.0368 -2.1675 -2.5845
  250MOL0     H32980  12.558   5.904   2.078 -0.5231  1.3236  1.7381
  250MOL0     H32981  12.428   6.030   2.063 -2.4281 -3.2615 -1.6758
  250MOL0     H32982  11.667   5.717   2.058  3.7415 -1.1840  4.3473
  250MOL0     H32983  11.435   5.640   2.144 -0.6525  0.1637 -0.1570
  250MOL0     H32984  10.996   5.548   2.167  2.1979 -0.5287 -1.9920
  250MOL0     H32985  10.782   5.450   2.252  0.2054  0.5704  0.7355
  250MOL0     H32986   9.368   4.817   1.812  0.4887  0.7338 -0.0395
  250MOL0     H32987   9.137   4.838   1.798  0.0043  0.4133  0.0222
  250MOL0     H32988   8.694   4.848   2.254 -0.6013  1.5443  0.8612
  250MOL0     H32989   8.476   4.750   2.206  2.7313 -1.1546  1.9139
  250MOL0     H32990   8.277   4.773   2.123  2.6752  1.7335 -1.7468
  250MOL0     H32991   8.304   4.597   2.107 -0.5014 -0.3305  0.1038
  250MOL0     H32992   8.125   4.776   1.927 -1.5919 -0.3415 -1.0335
  250MOL0     H32993   8.168   4.602   1.889  2.5832 -1.2957  1.3396
  250MOL0     H32994   7.947   4.635   1.976 -1.3559  1.1636  1.5735
  250MOL0     H32995   8.014   4.702   2.128  1.9532 -1.0461  0.7488
  250MOL0     H32996   7.932   4.443   2.121 -0.2954  3.1276  2.2124
  250MOL0     H32997   8.078   4.418   2.038 -1.3120  0.6260 -1.1637
  250MOL0     H32998   8.204   4.470   2.448  1.2333  2.6974 -0.1796
  250MOL0     H32999   8.558   4.757   1.787  0.8238 -1.3514 -1.3206
  250MOL0     H33000   8.792   4.818   1.839 -0.2573  0.9476  0.8183
  251MOL0     O33001   0.078   4.381   9.539 -0.7589 -0.3787 -0.5155
  251MOL0     C33002   0.114   4.272   9.510  0.9956  0.0050 -0.0618
  251MOL0     O33003   0.025   4.179   9.460  0.0508 -0.2371 -0.0265
  251MOL0     C33004  -0.104   4.218   9.467  0.3892  0.1762 -0.1412
  251MOL0     C33005  -0.184   4.195   9.587 -0.2364 -1.0456 -0.5923
  251MOL0     C33006  -0.318   4.233   9.585 -0.0895 -0.2158  0.1375
  251MOL0     C33007  -0.376   4.281   9.462  1.2771 -0.2738 -0.1119
  251MOL0     O33008  -0.512   4.293   9.457  0.5608 -0.0462  0.0570
  251MOL0     C33009  -0.549   4.437   9.467 -1.0136  0.9987  0.7672
  251MOL0     C33010  -0.699   4.463   9.474  0.7370 -0.6200  0.7445
  251MOL0     C33011  -0.765   4.401   9.603 -0.2353 -0.3363  0.1327
  251MOL0     C33012  -0.925   4.400   9.576 -0.7184 -0.0551  0.6103
  251MOL0     C33013  -1.012   4.406   9.700 -0.2181  0.1275  0.0771
  251MOL0     C33014  -0.977   4.280   9.787  0.1561 -0.7747 -0.0067
  251MOL0     C33015  -1.029   4.149   9.728  0.3620  0.5608 -0.4220
  251MOL0     C33016  -1.021   4.018   9.815  0.0016 -0.5663 -0.4407
  251MOL0     N33017  -1.156   3.969   9.841  0.4250  0.7891 -0.1249
  251MOL0     C33018  -1.232   3.889   9.753 -0.8177  0.1013  0.1879
  251MOL0     C33019  -1.344   3.861   9.815  0.5107  0.4112  0.5800
  251MOL0     C33020  -1.446   3.755   9.770  0.8370  0.0366 -0.0386
  251MOL0     C33021  -1.591   3.809   9.790 -0.1091  0.1469 -0.0366
  251MOL0     C33022  -1.711   3.713   9.752 -0.2622  0.3127 -0.4994
  251MOL0     C33023  -1.843   3.752   9.819  0.3454  0.5666  0.0019
  251MOL0     O33024  -1.955   3.677   9.770 -0.7416  0.3858  0.7212
  251MOL0     C33025  -1.971   3.544   9.819  0.6943 -1.3651  0.7422
  251MOL0     C33026  -1.996   3.445   9.723 -0.4974 -0.7680 -0.3358
  251MOL0     C33027  -2.024   3.317   9.768  0.6861 -0.2466 -0.8424
  251MOL0     C33028  -2.032   3.280   9.905 -1.3054 -0.5647 -0.4820
  251MOL0     C33029  -2.075   3.141   9.955  0.4094 -0.1433  0.3015
  251MOL0     O33030  -2.124   3.059   9.861  0.1355  0.0577 -0.5955
  251MOL0     C33031  -2.195   2.942   9.887  0.6184 -0.5976 -0.6879
  251MOL0     C33032  -2.312   2.904   9.822  0.1919 -0.9429 -0.9135
  251MOL0     C33033  -2.380   2.784   9.857  0.6317 -0.2205  0.4943
  251MOL0     C33034  -2.329   2.694   9.947  0.0269  0.6277  0.6360
  251MOL0     O33035  -2.386   2.574   9.982 -0.7739  0.1636  0.3096
  251MOL0     C33036  -2.499   2.519   9.916  0.3438  0.3477 -0.1756
  251MOL0     C33037  -2.535   2.398  10.004  0.6209  0.2509  0.6786
  251MOL0     C33038  -2.430   2.285   9.997  0.3405  0.3993 -0.8719
  251MOL0     C33039  -2.392   2.235   9.851 -0.2773 -0.2466 -0.4329
  251MOL0     C33040  -2.323   2.102   9.825  0.5170  0.3821  0.5623
  251MOL0     C33041  -2.323   2.074   9.670  0.1623  0.1155 -0.1474
  251MOL0     C33042  -2.260   1.940   9.658 -0.4585  0.6760 -0.0014
  251MOL0     C33043  -2.274   1.887   9.513 -0.2856 -0.4367 -0.2257
  251MOL0    Cl33044  -2.171   1.965   9.406  0.5956 -0.0579 -0.4338
  251MOL0     C33045  -2.212   2.733  10.012 -0.6944  0.4518 -0.4841
  251MOL0     C33046  -2.140   2.846   9.973 -1.1057 -0.3442  0.2699
  251MOL0     O33047  -2.077   3.126  10.075  0.3012  0.9194  0.2317
  251MOL0     C33048  -1.995   3.379   9.991  0.0623 -0.2487 -0.0973
  251MOL0     C33049  -1.964   3.508   9.952  0.6278 -0.1716 -1.1393
  251MOL0     N33050  -1.323   3.917   9.941  1.2280 -0.5985  0.2015
  251MOL0     N33051  -1.220   3.988   9.955  0.5425 -0.1740  0.0418
  251MOL0     C33052  -0.299   4.313   9.357  0.8041  0.0544 -0.2233
  251MOL0     C33053  -0.161   4.278   9.358 -0.0153  0.2438 -0.4479
  251MOL0     C33054   0.257   4.225   9.521 -0.1097 -0.8616  0.3487
  251MOL0     C33055   0.354   4.312   9.562 -1.4462 -0.1670  0.2129
  251MOL0     C33056   0.488   4.277   9.561  0.2287  0.8763  0.1042
  251MOL0     C33057   0.522   4.149   9.513  0.4377 -0.2987 -0.9071
  251MOL0     O33058   0.656   4.125   9.494  0.0408  0.2647 -0.3144
  251MOL0     C33059   0.695   3.984   9.484  0.9449  0.7663  0.0718
  251MOL0     C33060   0.844   3.981   9.481 -0.3335 -0.6428  0.1632
  251MOL0     C33061   0.918   3.986   9.618  0.2342  0.0471 -0.0872
  251MOL0     C33062   1.063   4.027   9.587  0.1037  0.0285 -0.4889
  251MOL0     C33063   1.147   4.043   9.705 -0.5118 -0.1770 -0.3424
  251MOL0     C33064   1.234   4.042   9.791 -0.0489  0.6084  0.5029
  251MOL0     C33065   0.420   4.064   9.484  0.5881  0.7892  0.9107
  251MOL0     C33066   0.293   4.104   9.480  0.7118 -1.2757  0.1051
  251MOL0     H33067  -0.140   4.159   9.679 -0.9879 -1.0484 -0.2210
  251MOL0     H33068  -0.384   4.211   9.669  0.0509 -0.1605  0.2627
  251MOL0     H33069  -0.496   4.492   9.388 -2.6554  2.1578  0.4145
  251MOL0     H33070  -0.513   4.486   9.558  0.0881  1.5442  0.0509
  251MOL0     H33071  -0.740   4.418   9.383  1.8282 -1.5807  0.7002
  251MOL0     H33072  -0.713   4.571   9.466 -0.6651 -0.8820 -0.9244
  251MOL0     H33073  -0.736   4.450   9.696  1.4829  0.7587 -0.9294
  251MOL0     H33074  -0.728   4.298   9.605 -2.3753 -1.1848  3.4443
  251MOL0     H33075  -0.961   4.472   9.502  0.7071 -1.3251 -1.4362
  251MOL0     H33076  -0.942   4.308   9.518  1.4340 -0.9184  1.2254
  251MOL0     H33077  -1.119   4.416   9.677 -0.4214  0.4256  1.0914
  251MOL0     H33078  -0.983   4.495   9.756 -0.6640 -0.0431  0.5902
  251MOL0     H33079  -1.017   4.291   9.888  0.9488 -2.7112  0.5533
  251MOL0     H33080  -0.870   4.283   9.812  0.3274 -1.4681 -0.6246
  251MOL0     H33081  -1.132   4.159   9.692  1.2725 -1.3965 -4.0818
  251MOL0     H33082  -0.969   4.126   9.640  1.1872  0.1577  0.2339
  251MOL0     H33083  -0.968   4.039   9.909  1.9630 -1.0048 -1.4034
  251MOL0     H33084  -0.958   3.945   9.764  2.0398  0.2474  0.7702
  251MOL0     H33085  -1.217   3.840   9.657 -1.7216 -1.6512  0.8916
  251MOL0     H33086  -1.443   3.671   9.840 -1.9099 -0.7885 -0.7810
  251MOL0     H33087  -1.436   3.720   9.667  0.4692  2.3809 -0.9152
  251MOL0     H33088  -1.610   3.899   9.730 -1.9102  0.6351  1.1898
  251MOL0     H33089  -1.610   3.840   9.893  0.6273  1.5203 -0.2860
  251MOL0     H33090  -1.720   3.713   9.643  2.0645 -0.3675 -0.7294
  251MOL0     H33091  -1.682   3.611   9.780  1.8083  1.1294  0.5052
  251MOL0     H33092  -1.870   3.850   9.777 -2.1159 -0.6856 -1.5595
  251MOL0     H33093  -1.840   3.760   9.928 -0.8957  0.8238  0.0313
  251MOL0     H33094  -1.974   3.483   9.624 -1.3568 -0.9583 -0.6110
  251MOL0     H33095  -2.044   3.239   9.695 -1.7298 -1.6096  1.1080
  251MOL0     H33096  -2.355   2.979   9.756 -0.4609 -0.4330  0.0776
  251MOL0     H33097  -2.479   2.774   9.813  1.5358  0.9700 -2.0039
  251MOL0     H33098  -2.470   2.491   9.814  0.0908  3.2276 -1.1267
  251MOL0     H33099  -2.567   2.605   9.922  3.2303  2.9138 -1.1498
  251MOL0     H33100  -2.634   2.359   9.977  1.8567 -2.2835 -0.5595
  251MOL0     H33101  -2.538   2.424  10.110  0.4131 -1.3525  1.1002
  251MOL0     H33102  -2.477   2.206  10.057  2.8621  1.1122  2.3053
  251MOL0     H33103  -2.340   2.325  10.045 -0.0656  1.5947 -1.0636
  251MOL0     H33104  -2.486   2.234   9.794 -1.7477 -2.6972  1.8004
  251MOL0     H33105  -2.325   2.310   9.808  1.0056 -1.0183  0.1622
  251MOL0     H33106  -2.369   2.023   9.884 -2.2564  1.3125 -0.1833
  251MOL0     H33107  -2.221   2.116   9.861  0.6554  1.4386 -0.1776
  251MOL0     H33108  -2.270   2.149   9.611 -0.3657 -0.8538 -1.9156
  251MOL0     H33109  -2.426   2.064   9.635  0.3397 -0.4998 -0.5113
  251MOL0     H33110  -2.154   1.943   9.684 -0.0354 -1.9012 -1.1275
  251MOL0     H33111  -2.308   1.877   9.733 -2.7930 -1.1841 -2.8118
  251MOL0     H33112  -2.375   1.893   9.473 -1.4394 -0.0242  2.4894
  251MOL0     H33113  -2.243   1.782   9.508  1.8917  0.2136 -3.5558
  251MOL0     H33114  -2.157   2.670  10.080 -1.9039  0.2446  0.3465
  251MOL0     H33115  -2.044   2.859  10.020 -0.3407  0.7766 -1.4891
  251MOL0     H33116  -2.006   3.361  10.097 -0.3447  0.9244  0.0733
  251MOL0     H33117  -1.957   3.589  10.023 -0.8987 -0.5953 -0.4675
  251MOL0     H33118  -0.349   4.368   9.278  1.1278  2.8874  1.4161
  251MOL0     H33119  -0.093   4.292   9.275  1.2308 -2.6459 -0.0621
  251MOL0     H33120   0.322   4.411   9.596  0.7069 -0.0570  2.2113
  251MOL0     H33121   0.557   4.343   9.611 -0.6005  0.5229  1.7992
  251MOL0     H33122   0.664   3.954   9.384  3.4099  3.1946 -1.5589
  251MOL0     H33123   0.646   3.915   9.554  2.5787 -0.7101 -0.1955
  251MOL0     H33124   0.884   3.892   9.431 -1.5082 -0.4505 -1.1792
  251MOL0     H33125   0.870   4.059   9.410 -1.8839 -2.0737 -2.1309
  251MOL0     H33126   0.910   3.882   9.651  1.4030 -1.2779 -3.6111
  251MOL0     H33127   0.868   4.061   9.680 -1.4636  0.6035 -2.0442
  251MOL0     H33128   1.113   3.957   9.519  1.7779  0.0615  0.6539
  251MOL0     H33129   1.056   4.122   9.533  0.6492  0.6798  0.5518
  251MOL0     H33130   1.311   4.058   9.863 -0.3444 -2.1066  1.5252
  251MOL0     H33131   0.432   3.967   9.439  2.1678  1.3834 -0.0150
  251MOL0     H33132   0.212   4.038   9.451 -0.0061 -0.5349  0.4075
  252MOL0     O33133   1.869   5.685  10.832  0.2992  0.3456 -0.2133
  252MOL0     C33134   1.942   5.637  10.741  0.4779  0.3097 -0.0779
  252MOL0     O33135   1.904   5.624  10.612 -0.1779 -0.2979  0.4170
  252MOL0     C33136   1.771   5.603  10.580 -0.9612 -0.1305  0.5723
  252MOL0     C33137   1.748   5.589  10.437  0.2393  0.7060  0.0583
  252MOL0     C33138   1.612   5.560  10.390 -0.7924 -0.6511  0.5400
  252MOL0     C33139   1.509   5.526  10.484 -1.1007  0.7026 -1.1138
  252MOL0     O33140   1.384   5.525  10.435 -0.9497  0.1985 -0.7078
  252MOL0     C33141   1.306   5.639  10.475  0.5347  0.2329  0.1186
  252MOL0     C33142   1.182   5.657  10.386 -0.5196  0.2671 -0.0225
  252MOL0     C33143   1.094   5.773  10.436 -0.4030  0.0327  1.0393
  252MOL0     C33144   0.969   5.774  10.361  0.5706 -0.3299 -0.1648
  252MOL0     C33145   0.882   5.893  10.384 -0.1411 -0.2839 -0.3779
  252MOL0     C33146   0.741   5.875  10.322 -0.3841 -0.2145 -0.2951
  252MOL0     C33147   0.654   5.996  10.362 -0.5796  0.7666  0.2276
  252MOL0     C33148   0.512   5.997  10.312  0.3790  0.9443  0.0836
  252MOL0     N33149   0.435   6.118  10.324  0.5133  0.6661 -0.4831
  252MOL0     C33150   0.343   6.134  10.426 -0.0134  0.2664  0.1260
  252MOL0     C33151   0.301   6.262  10.398  0.7854 -0.4272  0.0295
  252MOL0     C33152   0.188   6.328  10.475  0.0095 -0.1596  0.1353
  252MOL0     C33153   0.060   6.374  10.407  0.1799  0.6356  0.7171
  252MOL0     C33154  -0.001   6.256  10.323  0.4669  0.1511 -1.0242
  252MOL0     C33155  -0.156   6.268  10.315 -0.4056  0.8160  0.3929
  252MOL0     O33156  -0.212   6.188  10.210  0.0814 -0.1931  0.0217
  252MOL0     C33157  -0.320   6.227  10.137  0.3387 -1.4173  0.7069
  252MOL0     C33158  -0.320   6.179  10.005 -0.1980  0.9975 -1.2641
  252MOL0     C33159  -0.403   6.224   9.909  0.9076 -0.0732 -0.2277
  252MOL0     C33160  -0.501   6.312   9.942 -0.5436  0.4332 -0.5535
  252MOL0     C33161  -0.599   6.358   9.844 -0.3059  0.5998  0.0309
  252MOL0     O33162  -0.679   6.464   9.881 -0.2869 -0.1419 -0.8938
  252MOL0     C33163  -0.781   6.509   9.802 -0.0811  0.1853  0.2124
  252MOL0     C33164  -0.878   6.575   9.866  0.5645 -0.1139 -0.5743
  252MOL0     C33165  -0.985   6.643   9.792 -0.0908  0.5234  0.1493
  252MOL0     C33166  -1.003   6.622   9.657  0.4220  0.6185 -0.0567
  252MOL0     O33167  -1.105   6.677   9.591 -0.6378 -0.7931  0.0117
  252MOL0     C33168  -1.210   6.744   9.661  0.1172  0.1408  0.0666
  252MOL0     C33169  -1.304   6.813   9.560  0.0795 -0.0181 -0.9120
  252MOL0     C33170  -1.418   6.863   9.638  0.5281 -0.5578 -0.0669
  252MOL0     C33171  -1.477   6.990   9.598  0.1625 -0.6501  0.1883
  252MOL0     C33172  -1.531   7.008   9.454 -0.1435 -0.0442 -0.2712
  252MOL0     C33173  -1.637   6.911   9.416  0.1042  0.1897 -0.2449
  252MOL0     C33174  -1.761   6.901   9.511 -0.4084 -0.0610  0.6687
  252MOL0     C33175  -1.851   6.786   9.461  0.1095 -0.3089 -0.9556
  252MOL0    Cl33176  -2.012   6.794   9.542  0.2853 -0.5800  0.0544
  252MOL0     C33177  -0.908   6.542   9.590  0.4726 -0.3737  0.1484
  252MOL0     C33178  -0.795   6.499   9.658  0.9376  1.3994  0.6306
  252MOL0     O33179  -0.599   6.298   9.732  0.7240  0.1815  0.6177
  252MOL0     C33180  -0.500   6.366  10.075  0.2155 -0.2350  0.3143
  252MOL0     C33181  -0.406   6.329  10.172 -0.2466  0.4925  0.5432
  252MOL0     N33182   0.363   6.313  10.285  0.1644 -0.6186  0.5216
  252MOL0     N33183   0.445   6.226  10.242  0.2954 -0.2052 -0.2889
  252MOL0     C33184   1.534   5.535  10.618 -0.2819 -0.1026  0.2443
  252MOL0     C33185   1.666   5.577  10.665  0.1163 -1.1170  0.0783
  252MOL0     C33186   2.084   5.637  10.761  0.7734  0.4206  0.6240
  252MOL0     C33187   2.150   5.689  10.882  1.6672  0.7442  0.1186
  252MOL0     C33188   2.283   5.677  10.898 -0.1940  0.4336 -0.5655
  252MOL0     C33189   2.366   5.623  10.790 -0.2563 -0.0853 -0.0999
  252MOL0     O33190   2.508   5.614  10.789  0.9888  0.6110  0.0834
  252MOL0     C33191   2.588   5.670  10.890 -1.0294 -0.4620 -0.6359
  252MOL0     C33192   2.592   5.815  10.863  0.7677 -0.5284 -0.2141
  252MOL0     C33193   2.708   5.896  10.914  0.1303 -0.3674  0.7054
  252MOL0     C33194   2.716   6.019  10.827  0.3158 -0.3084 -0.2717
  252MOL0     C33195   2.600   6.105  10.843 -1.1200 -0.0344 -0.9024
  252MOL0     C33196   2.495   6.159  10.849 -0.1427 -0.6667 -0.4367
  252MOL0     C33197   2.301   5.574  10.680  1.5684  0.5284  0.3924
  252MOL0     C33198   2.161   5.586  10.658 -0.5881  0.4755 -0.3740
  252MOL0     H33199   1.822   5.604  10.359 -0.4816  0.8556 -0.6086
  252MOL0     H33200   1.581   5.555  10.286 -6.3503 -0.3597  1.8791
  252MOL0     H33201   1.376   5.722  10.460 -0.9540  1.0139 -3.3733
  252MOL0     H33202   1.272   5.635  10.579 -0.7638 -1.5584 -0.3283
  252MOL0     H33203   1.128   5.562  10.379  0.7450 -0.5159  0.4176
  252MOL0     H33204   1.221   5.690  10.289  1.4801 -0.8902  0.3132
  252MOL0     H33205   1.144   5.866  10.410 -3.4808  0.8956 -2.5366
  252MOL0     H33206   1.072   5.749  10.541  0.5928 -1.0510  1.0239
  252MOL0     H33207   0.988   5.764  10.253  0.8067  2.5215 -0.4507
  252MOL0     H33208   0.933   5.676  10.394 -2.8548  0.5619 -0.8276
  252MOL0     H33209   0.924   5.984  10.340 -0.5128  0.6644  1.1631
  252MOL0     H33210   0.877   5.914  10.491  0.0529 -0.6777 -0.2915
  252MOL0     H33211   0.690   5.784  10.356  1.9415 -1.5765 -0.2648
  252MOL0     H33212   0.743   5.858  10.214 -1.6818 -2.4108 -0.0560
  252MOL0     H33213   0.664   6.004  10.471  1.5333  1.1589  0.0527
  252MOL0     H33214   0.707   6.080  10.316  1.7698 -1.3167 -1.1470
  252MOL0     H33215   0.464   5.924  10.379 -0.6248  1.5369  0.0261
  252MOL0     H33216   0.503   5.974  10.206 -0.8966  0.8070  0.2009
  252MOL0     H33217   0.320   6.071  10.512 -0.5086  1.2283  0.7245
  252MOL0     H33218   0.222   6.416  10.530  0.1960  0.8776 -1.5561
  252MOL0     H33219   0.151   6.256  10.549 -2.4359  1.4374  0.5707
  252MOL0     H33220   0.074   6.459  10.339 -2.0437  0.1952 -0.4006
  252MOL0     H33221  -0.016   6.401  10.481 -0.9581 -0.5402  0.0082
  252MOL0     H33222   0.037   6.241  10.222  1.5200 -0.0796 -0.6090
  252MOL0     H33223   0.013   6.166  10.384  0.9963  1.7772  1.4171
  252MOL0     H33224  -0.184   6.372  10.298 -0.9127  0.6538  0.2103
  252MOL0     H33225  -0.203   6.251  10.412 -0.9376 -1.1852 -0.1530
  252MOL0     H33226  -0.262   6.090   9.984 -2.2038 -0.3573 -1.2729
  252MOL0     H33227  -0.394   6.182   9.809 -0.3946 -0.7026 -0.0977
  252MOL0     H33228  -0.881   6.589   9.974  1.1461  2.5418 -0.8230
  252MOL0     H33229  -1.051   6.708   9.848 -0.3863  0.6112 -0.3000
  252MOL0     H33230  -1.174   6.818   9.733  0.3585  1.1141 -1.0108
  252MOL0     H33231  -1.270   6.672   9.718 -1.7708  0.0322 -1.9353
  252MOL0     H33232  -1.337   6.739   9.486 -2.5938  0.8134 -0.6329
  252MOL0     H33233  -1.256   6.902   9.519 -3.4414  2.3106 -0.3614
  252MOL0     H33234  -1.389   6.871   9.743  1.2209 -3.0398 -0.0128
  252MOL0     H33235  -1.501   6.792   9.644 -1.5931  1.9213  3.6610
  252MOL0     H33236  -1.554   6.998   9.675 -0.5553 -2.5891 -0.2819
  252MOL0     H33237  -1.405   7.072   9.612 -1.4463  0.7893  0.4003
  252MOL0     H33238  -1.449   6.992   9.383 -0.9835 -0.0378 -1.2700
  252MOL0     H33239  -1.567   7.111   9.454 -3.6135 -1.1282  1.0662
  252MOL0     H33240  -1.587   6.814   9.407 -1.9845 -0.8148 -2.3511
  252MOL0     H33241  -1.670   6.941   9.316  1.0558 -0.2183 -0.6982
  252MOL0     H33242  -1.734   6.888   9.616 -0.9458  3.3124  1.3484
  252MOL0     H33243  -1.819   6.993   9.499 -1.7008 -1.0828 -1.6621
  252MOL0     H33244  -1.809   6.688   9.488  0.1809 -0.5480 -1.8962
  252MOL0     H33245  -1.856   6.803   9.353 -0.7759  2.8270 -0.5202
  252MOL0     H33246  -0.921   6.541   9.482  0.7825  0.2859  0.0990
  252MOL0     H33247  -0.716   6.454   9.600  0.0093  0.0380  0.3912
  252MOL0     H33248  -0.578   6.435  10.106 -1.9056 -1.0469 -2.6802
  252MOL0     H33249  -0.402   6.375  10.271  0.4997 -2.6116  2.0653
  252MOL0     H33250   1.449   5.528  10.686 -2.8704  4.5744 -2.0352
  252MOL0     H33251   1.680   5.561  10.771 -1.4261 -0.5950  0.3898
  252MOL0     H33252   2.083   5.739  10.951  1.2560 -0.3799  0.5460
  252MOL0     H33253   2.322   5.708  10.995  0.1088  3.5060 -1.5354
  252MOL0     H33254   2.690   5.633  10.896 -0.1303  2.0272  2.6801
  252MOL0     H33255   2.550   5.658  10.992 -0.1996  2.2209  0.0699
  252MOL0     H33256   2.587   5.837  10.756 -1.6806  2.1746  0.3169
  252MOL0     H33257   2.498   5.854  10.904 -0.4366 -1.5639 -1.8597
  252MOL0     H33258   2.808   5.854  10.901 -0.3088 -1.0628 -0.5864
  252MOL0     H33259   2.703   5.916  11.022  1.0650  0.0721  0.6870
  252MOL0     H33260   2.805   6.068  10.867 -1.8787  0.5219  4.1960
  252MOL0     H33261   2.732   5.990  10.723 -0.7079 -3.3174  0.3167
  252MOL0     H33262   2.399   6.206  10.847  0.8703  1.4505 -2.1387
  252MOL0     H33263   2.358   5.518  10.606  0.5909  1.7371 -1.3560
  252MOL0     H33264   2.136   5.541  10.562  0.4021 -1.4588  0.2229
  253MOL0     O33265   9.627   9.195   9.133 -0.4091 -0.1502  0.4267
  253MOL0     C33266   9.646   9.243   9.020 -1.4581 -0.8480  0.1282
  253MOL0     O33267   9.555   9.273   8.926 -0.0279 -0.0172  0.4124
  253MOL0     C33268   9.424   9.221   8.934  0.6344 -0.4428 -0.6534
  253MOL0     C33269   9.312   9.297   8.887  0.0957  0.4830 -0.3036
  253MOL0     C33270   9.188   9.229   8.866  1.1948 -0.4225  0.5692
  253MOL0     C33271   9.164   9.097   8.904  0.0975 -0.2528  0.4021
  253MOL0     O33272   9.048   9.028   8.881  0.3336 -0.8467 -0.1929
  253MOL0     C33273   8.955   9.075   8.786  0.2593 -0.6850 -0.3856
  253MOL0     C33274   8.833   8.985   8.789  0.3572 -0.1527  0.1635
  253MOL0     C33275   8.714   9.009   8.701  1.2256 -0.4510 -0.5089
  253MOL0     C33276   8.606   8.907   8.707 -0.4519  0.3808 -0.3731
  253MOL0     C33277   8.480   8.930   8.629  0.1361  0.7498 -0.5640
  253MOL0     C33278   8.391   8.807   8.612 -0.4944  0.9304 -0.2068
  253MOL0     C33279   8.250   8.817   8.544  0.3766 -0.3346  0.6057
  253MOL0     C33280   8.148   8.911   8.610  0.4121 -0.1371  0.0371
  253MOL0     N33281   8.025   8.907   8.535 -0.9102  0.0659 -0.7945
  253MOL0     C33282   8.028   8.951   8.405  0.2880 -0.2360  0.2730
  253MOL0     C33283   7.892   8.978   8.379 -0.4587  0.5760 -0.1392
  253MOL0     C33284   7.829   9.036   8.254 -0.8518  0.1029 -0.1278
  253MOL0     C33285   7.853   8.924   8.145 -0.0768  0.0375  0.3438
  253MOL0     C33286   7.831   9.007   8.012 -0.8255 -0.1096 -0.0273
  253MOL0     C33287   7.847   8.948   7.878 -1.1659 -0.6241  0.2915
  253MOL0     O33288   7.825   9.038   7.771  0.2308 -0.7802  0.0217
  253MOL0     C33289   7.690   9.054   7.730 -0.4245  0.7703 -0.5049
  253MOL0     C33290   7.583   8.973   7.769 -0.1017  0.1754 -0.0133
  253MOL0     C33291   7.451   9.014   7.727 -0.1601  0.4173  0.3030
  253MOL0     C33292   7.433   9.115   7.639  0.5763  0.1942 -0.4459
  253MOL0     C33293   7.290   9.160   7.595  0.1368  0.2640 -0.0552
  253MOL0     O33294   7.189   9.077   7.628  0.0670  0.1736 -0.2418
  253MOL0     C33295   7.074   9.065   7.550  0.1075 -0.1582 -0.0285
  253MOL0     C33296   7.035   8.934   7.526  0.2800 -0.2681 -0.5122
  253MOL0     C33297   6.928   8.915   7.436 -0.0129  0.2597 -0.5437
  253MOL0     C33298   6.844   9.020   7.391  0.3501  0.7424  0.6919
  253MOL0     O33299   6.742   8.999   7.302  0.5098  0.7471 -0.4077
  253MOL0     C33300   6.643   9.095   7.284  0.2430 -0.0218  0.2509
  253MOL0     C33301   6.536   9.039   7.194 -0.5104 -0.2076  0.7646
  253MOL0     C33302   6.426   9.130   7.146  0.4572 -0.2648 -0.2932
  253MOL0     C33303   6.303   9.056   7.080  0.0956 -0.1580  0.4876
  253MOL0     C33304   6.194   9.154   7.030  0.6361 -0.7714 -0.2505
  253MOL0     C33305   6.119   9.222   7.140  0.4044  0.2636 -0.6579
  253MOL0     C33306   5.986   9.291   7.093  0.2386  0.3648 -0.2497
  253MOL0     C33307   5.946   9.399   7.180  0.2702 -0.2242 -0.0295
  253MOL0    Cl33308   6.065   9.534   7.186 -0.0220 -0.0938 -0.5258
  253MOL0     C33309   6.885   9.147   7.418  0.1436  0.4357 -0.8157
  253MOL0     C33310   6.999   9.171   7.489 -0.7638  0.0935 -0.6293
  253MOL0     O33311   7.292   9.245   7.507  0.4291  0.1653  0.5737
  253MOL0     C33312   7.543   9.193   7.596 -0.7239 -0.7047  0.1776
  253MOL0     C33313   7.672   9.160   7.640 -0.1793 -1.2931 -0.0041
  253MOL0     N33314   7.822   8.939   8.491  0.0738 -0.1342  0.1975
  253MOL0     N33315   7.904   8.884   8.584  0.8811 -1.3221 -0.2959
  253MOL0     C33316   9.271   9.030   8.959  0.5737  0.3044  0.5108
  253MOL0     C33317   9.404   9.083   8.970  0.2876  0.0000 -0.1939
  253MOL0     C33318   9.782   9.288   8.981  0.5124 -0.5535  0.2897
  253MOL0     C33319   9.808   9.395   8.898  0.7238  0.1570  0.6204
  253MOL0     C33320   9.941   9.443   8.873 -0.7193  0.4341 -0.0262
  253MOL0     C33321  10.053   9.402   8.943  0.2346 -0.3919 -0.1064
  253MOL0     O33322  10.191   9.446   8.926 -0.1658  0.0096 -0.4486
  253MOL0     C33323  10.224   9.527   8.815  0.6090 -0.0391 -0.4452
  253MOL0     C33324  10.379   9.509   8.798  0.9025  0.2644 -0.4476
  253MOL0     C33325  10.457   9.596   8.696 -0.1106  0.3309 -0.2479
  253MOL0     C33326  10.482   9.525   8.556  1.5207  0.6409  0.4143
  253MOL0     C33327  10.354   9.508   8.480  0.4360 -0.1243  0.1993
  253MOL0     C33328  10.238   9.473   8.473  0.9047 -0.8031  0.2644
  253MOL0     C33329  10.024   9.304   9.036 -0.5043 -0.1958 -0.6512
  253MOL0     C33330   9.896   9.242   9.053  0.3480 -0.6442  0.1709
  253MOL0     H33331   9.329   9.397   8.848  3.4497  0.3343  0.4698
  253MOL0     H33332   9.116   9.295   8.819  3.4355  2.5062  0.9135
  253MOL0     H33333   8.988   9.083   8.682  1.6194  0.0941  0.0878
  253MOL0     H33334   8.914   9.171   8.819 -1.1293 -0.7565 -1.7724
  253MOL0     H33335   8.785   8.976   8.888 -3.7264  0.4070 -1.5591
  253MOL0     H33336   8.872   8.884   8.772 -1.0755 -0.6795 -0.1775
  253MOL0     H33337   8.751   9.013   8.598 -3.0432 -0.7952 -2.2727
  253MOL0     H33338   8.679   9.107   8.734  0.1022 -0.6229 -1.1323
  253MOL0     H33339   8.645   8.812   8.669  1.7256  0.0605  2.3515
  253MOL0     H33340   8.586   8.878   8.810  0.5979 -0.9123 -0.4979
  253MOL0     H33341   8.507   8.963   8.529 -0.6945 -2.2200 -1.8735
  253MOL0     H33342   8.417   9.010   8.670 -1.6890 -1.3288  0.8865
  253MOL0     H33343   8.364   8.771   8.712 -1.1338  1.3446 -0.2251
  253MOL0     H33344   8.448   8.728   8.561 -1.3825 -1.5261  2.3471
  253MOL0     H33345   8.258   8.848   8.440  0.7463 -0.2999  0.6415
  253MOL0     H33346   8.215   8.715   8.528 -0.1439  0.0309 -0.7712
  253MOL0     H33347   8.190   9.012   8.617 -3.4587  1.5785  1.0576
  253MOL0     H33348   8.125   8.881   8.713  0.3795 -0.5811 -0.0953
  253MOL0     H33349   8.113   8.970   8.340  0.7598  2.5939  1.5655
  253MOL0     H33350   7.874   9.133   8.233  2.8631 -1.0908  1.4113
  253MOL0     H33351   7.726   9.064   8.275 -1.0142 -0.8973  0.4582
  253MOL0     H33352   7.778   8.844   8.149  0.9008 -0.9724 -0.6772
  253MOL0     H33353   7.952   8.878   8.149 -0.5859 -1.0375  1.3591
  253MOL0     H33354   7.738   9.065   8.011 -2.6325 -2.8327  0.5710
  253MOL0     H33355   7.907   9.086   7.999 -1.8027  0.8057 -0.3278
  253MOL0     H33356   7.799   8.851   7.866 -0.3914 -0.7878 -2.0919
  253MOL0     H33357   7.955   8.933   7.873 -1.3199 -1.3725 -2.0011
  253MOL0     H33358   7.592   8.892   7.840 -1.3186  1.1818  1.3409
  253MOL0     H33359   7.364   8.966   7.771 -1.3550  0.2992 -2.0445
  253MOL0     H33360   7.091   8.848   7.560  1.8755  0.9920  0.1664
  253MOL0     H33361   6.891   8.814   7.428 -1.0117  0.6122 -0.5630
  253MOL0     H33362   6.681   9.188   7.241 -0.9652  0.3745 -0.0049
  253MOL0     H33363   6.595   9.120   7.379 -2.8957 -1.0425 -0.9434
  253MOL0     H33364   6.495   8.953   7.248  1.2018  0.1304  2.7498
  253MOL0     H33365   6.588   8.998   7.107 -0.7515  2.3687 -0.7140
  253MOL0     H33366   6.451   9.203   7.068  0.6427  0.8449  0.7706
  253MOL0     H33367   6.399   9.173   7.243 -2.0100 -1.5317 -0.3569
  253MOL0     H33368   6.350   9.014   6.990  1.4204  3.1123 -0.4921
  253MOL0     H33369   6.250   8.984   7.143 -0.7626  0.5501  0.6041
  253MOL0     H33370   6.120   9.109   6.963 -0.0163 -1.6485  1.0235
  253MOL0     H33371   6.246   9.232   6.974  0.6785  0.8152  1.8430
  253MOL0     H33372   6.186   9.289   7.194  1.1982 -0.2777 -0.9496
  253MOL0     H33373   6.093   9.151   7.219 -0.1804 -0.4939 -1.5056
  253MOL0     H33374   6.015   9.332   6.996  1.0911 -1.4272 -0.7886
  253MOL0     H33375   5.909   9.216   7.077  0.9643 -1.1908  2.6944
  253MOL0     H33376   5.944   9.358   7.282  0.2197 -0.4767 -0.1332
  253MOL0     H33377   5.848   9.440   7.154  0.2300 -0.2004  0.1589
  253MOL0     H33378   6.833   9.239   7.395  1.9519  2.1556  1.4580
  253MOL0     H33379   7.018   9.271   7.527  0.0053 -1.0650  2.3204
  253MOL0     H33380   7.543   9.272   7.522 -3.9623 -1.9119 -1.2953
  253MOL0     H33381   7.754   9.222   7.606  0.5860 -2.0286  0.4803
  253MOL0     H33382   9.256   8.930   9.000  2.1431 -0.0295  0.3401
  253MOL0     H33383   9.490   9.025   9.000 -0.9367 -1.9437 -0.3190
  253MOL0     H33384   9.721   9.439   8.851  0.0992  1.2558  2.6989
  253MOL0     H33385   9.944   9.524   8.800 -4.2120  3.6545  2.9701
  253MOL0     H33386  10.187   9.629   8.828 -1.2546 -0.7412  0.0832
  253MOL0     H33387  10.168   9.480   8.733  0.8400  0.8088 -1.1030
  253MOL0     H33388  10.424   9.534   8.894 -0.0396  4.6549 -0.9424
  253MOL0     H33389  10.401   9.405   8.769  1.1007  0.7980 -2.4002
  253MOL0     H33390  10.548   9.622   8.752  1.4102 -0.9558 -2.0022
  253MOL0     H33391  10.401   9.685   8.664  3.0619  0.9836 -5.0183
  253MOL0     H33392  10.539   9.591   8.489  1.2520  0.7470  0.2892
  253MOL0     H33393  10.528   9.428   8.572  1.4156  0.2802 -1.2799
  253MOL0     H33394  10.137   9.440   8.488  0.2736  1.0989  0.4712
  253MOL0     H33395  10.095   9.263   9.106 -0.3540  1.3162  0.1095
  253MOL0     H33396   9.885   9.155   9.116  0.4928 -0.4717  0.4374
  254MOL0     O33397   3.284   4.123   2.404  0.0765 -0.2507 -0.4692
  254MOL0     C33398   3.332   4.112   2.288  0.7549 -0.2296 -0.3464
  254MOL0     O33399   3.264   4.071   2.181 -0.3476 -0.1882  0.8321
  254MOL0     C33400   3.140   4.038   2.198  0.0951  0.2717 -0.1339
  254MOL0     C33401   3.110   3.911   2.159 -0.4144 -0.7346  0.9410
  254MOL0     C33402   2.984   3.874   2.148 -0.0394 -0.2656 -0.8007
  254MOL0     C33403   2.879   3.957   2.195  0.0346  0.9352 -0.2385
  254MOL0     O33404   2.752   3.915   2.188 -0.2239  0.2201 -0.1680
  254MOL0     C33405   2.691   3.822   2.269  0.1239 -0.2478 -0.2721
  254MOL0     C33406   2.566   3.882   2.328 -0.0539  0.5149  0.0412
  254MOL0     C33407   2.574   4.018   2.406 -1.0344 -0.7301 -0.1833
  254MOL0     C33408   2.444   4.043   2.476 -0.4873 -0.1036  0.1145
  254MOL0     C33409   2.438   4.141   2.597 -0.2342  0.4903 -0.0635
  254MOL0     C33410   2.299   4.142   2.662  0.0661 -1.1370 -0.1079
  254MOL0     C33411   2.286   4.266   2.755  0.4479 -0.1173  1.2288
  254MOL0     C33412   2.221   4.237   2.886  0.7728 -1.0972 -0.2726
  254MOL0     N33413   2.069   4.209   2.865  0.0497  0.0360  0.2628
  254MOL0     C33414   1.961   4.278   2.919  0.0393  0.2876 -0.0999
  254MOL0     C33415   1.849   4.208   2.893  0.4611  0.5032  0.0294
  254MOL0     C33416   1.721   4.267   2.928  0.3013  0.1638 -0.1026
  254MOL0     C33417   1.689   4.361   2.818  0.6957 -0.2418  0.0944
  254MOL0     C33418   1.540   4.409   2.812  0.8727 -0.6503 -0.7522
  254MOL0     C33419   1.485   4.468   2.941 -0.8162 -0.7456 -0.0912
  254MOL0     O33420   1.424   4.371   3.018  0.5519  0.5122  0.2231
  254MOL0     C33421   1.313   4.405   3.091  0.3735 -0.3178  0.8645
  254MOL0     C33422   1.258   4.530   3.107 -0.6857 -0.2096 -0.0211
  254MOL0     C33423   1.144   4.548   3.182  0.7308 -0.5104 -0.1845
  254MOL0     C33424   1.084   4.434   3.240  0.9557 -0.2485 -0.5493
  254MOL0     C33425   0.958   4.448   3.309  1.2334 -0.3763  0.3165
  254MOL0     O33426   0.911   4.569   3.345 -0.0759  0.2437  0.0748
  254MOL0     C33427   0.780   4.568   3.385  1.0863 -0.1206  0.3855
  254MOL0     C33428   0.751   4.611   3.517 -0.0514 -0.5911 -0.5161
  254MOL0     C33429   0.620   4.623   3.561  0.1109  0.4136 -0.9674
  254MOL0     C33430   0.517   4.589   3.473  0.3495  0.2479 -0.2439
  254MOL0     O33431   0.378   4.598   3.493  0.2225  0.4805 -0.0036
  254MOL0     C33432   0.317   4.630   3.612  0.1290  0.5466 -0.4722
  254MOL0     C33433   0.172   4.686   3.609 -0.3603  0.0395 -0.6712
  254MOL0     C33434   0.114   4.752   3.485 -0.5312  0.4314  0.1015
  254MOL0     C33435  -0.033   4.798   3.507 -0.8195  0.0927 -0.6158
  254MOL0     C33436  -0.047   4.905   3.614  0.7034 -0.5008 -0.9249
  254MOL0     C33437   0.037   5.031   3.592 -0.0216 -0.0283  0.2078
  254MOL0     C33438   0.007   5.089   3.452 -0.3781 -0.0671  0.1467
  254MOL0     C33439   0.052   5.232   3.422  0.7890  0.5041 -0.3058
  254MOL0    Cl33440   0.228   5.238   3.440  0.0130  0.3552  0.0981
  254MOL0     C33441   0.550   4.556   3.346  0.4985  0.0738 -0.5887
  254MOL0     C33442   0.684   4.547   3.295  0.2446 -0.4989 -0.2353
  254MOL0     O33443   0.895   4.343   3.335  0.2379  0.2487  0.0154
  254MOL0     C33444   1.143   4.303   3.233 -0.1279  0.1338  0.0162
  254MOL0     C33445   1.254   4.292   3.149  0.6178 -0.0612 -0.5182
  254MOL0     N33446   1.892   4.116   2.803 -0.6357 -0.5336  0.1257
  254MOL0     N33447   2.019   4.114   2.783 -0.2608  0.0340  0.1407
  254MOL0     C33448   2.905   4.085   2.235  0.0652  0.5414 -0.0661
  254MOL0     C33449   3.039   4.126   2.242 -0.0390  0.3585  0.0699
  254MOL0     C33450   3.476   4.149   2.268 -0.3956 -0.3717 -0.2476
  254MOL0     C33451   3.552   4.175   2.387 -0.5095 -0.4273 -0.7020
  254MOL0     C33452   3.685   4.205   2.383 -1.1319  0.4718  0.0557
  254MOL0     C33453   3.750   4.196   2.256  0.3586 -0.6355  0.8036
  254MOL0     O33454   3.882   4.230   2.231 -0.3740 -0.1280 -0.1816
  254MOL0     C33455   3.973   4.191   2.336  0.9784  0.4406  0.0256
  254MOL0     C33456   4.104   4.261   2.318 -0.0737  0.6332 -0.0277
  254MOL0     C33457   4.074   4.413   2.339  0.1718  0.0867 -0.1054
  254MOL0     C33458   4.197   4.495   2.329 -0.2139  0.5353 -0.1345
  254MOL0     C33459   4.232   4.520   2.187 -0.4346  0.1898 -1.0013
  254MOL0     C33460   4.253   4.538   2.072  0.8237  0.0756 -0.0067
  254MOL0     C33461   3.676   4.164   2.141  0.6212 -0.0572 -0.1853
  254MOL0     C33462   3.540   4.152   2.147  0.0523  0.4849  0.1449
  254MOL0     H33463   3.191   3.843   2.135  0.8023  0.4485  1.5877
  254MOL0     H33464   2.960   3.777   2.106 -0.4805 -0.0159 -1.1382
  254MOL0     H33465   2.745   3.798   2.361 -0.0150 -3.1845 -0.8649
  254MOL0     H33466   2.669   3.729   2.215 -0.5268 -1.3759  1.8297
  254MOL0     H33467   2.516   3.817   2.400 -0.8716  1.3204  0.2124
  254MOL0     H33468   2.500   3.903   2.244  0.3043  1.5659 -0.0000
  254MOL0     H33469   2.604   4.097   2.337  0.4125 -1.1702 -0.0934
  254MOL0     H33470   2.653   4.013   2.482  0.9402  2.7107 -1.8101
  254MOL0     H33471   2.384   4.081   2.393  1.5826 -0.4373 -1.5986
  254MOL0     H33472   2.395   3.953   2.515  0.5946  0.2331  2.4089
  254MOL0     H33473   2.470   4.241   2.565 -2.1199  2.5799  3.9235
  254MOL0     H33474   2.508   4.104   2.673  0.1573  4.7529  1.9167
  254MOL0     H33475   2.280   4.051   2.720 -2.3824  0.0005  0.9936
  254MOL0     H33476   2.219   4.143   2.587  0.7083  0.4102 -0.8137
  254MOL0     H33477   2.378   4.320   2.776  0.3028  0.6794 -0.1004
  254MOL0     H33478   2.221   4.336   2.702  0.6617 -0.3324  0.6844
  254MOL0     H33479   2.219   4.326   2.950  0.5764 -3.0584  2.6664
  254MOL0     H33480   2.272   4.152   2.933 -1.6504 -3.3856 -1.5253
  254MOL0     H33481   1.975   4.358   2.991 -2.9947  0.5331  0.3628
  254MOL0     H33482   1.738   4.321   3.022 -0.7227 -1.0644  0.8246
  254MOL0     H33483   1.653   4.181   2.933  1.5449 -0.8223  0.1601
  254MOL0     H33484   1.714   4.315   2.722 -0.2781  2.3708 -1.5338
  254MOL0     H33485   1.755   4.448   2.826  3.3940 -2.1752  0.2410
  254MOL0     H33486   1.530   4.492   2.741 -1.3369 -0.2691 -0.0521
  254MOL0     H33487   1.476   4.324   2.789 -1.1779  0.1145  1.6947
  254MOL0     H33488   1.429   4.556   2.907  2.0894  0.1189 -3.1226
  254MOL0     H33489   1.572   4.500   2.999 -2.0492  0.5783  1.1132
  254MOL0     H33490   1.299   4.622   3.067  1.0708  0.4052  2.9197
  254MOL0     H33491   1.097   4.646   3.193  1.4567 -0.2807  1.1053
  254MOL0     H33492   0.838   4.618   3.582 -0.4213 -2.6545  0.2859
  254MOL0     H33493   0.607   4.647   3.666  2.4609  2.3890 -1.0360
  254MOL0     H33494   0.378   4.708   3.660  1.1942  1.1642 -2.7009
  254MOL0     H33495   0.331   4.549   3.685  0.9568  0.8266 -0.3094
  254MOL0     H33496   0.160   4.737   3.705 -0.1835 -3.4497  1.4008
  254MOL0     H33497   0.105   4.600   3.616  0.5638 -0.5715  1.7513
  254MOL0     H33498   0.114   4.679   3.403 -0.6363  0.4475  0.0881
  254MOL0     H33499   0.170   4.840   3.451 -1.7392  0.0590 -3.2979
  254MOL0     H33500  -0.075   4.830   3.411  0.5483  0.2351 -1.1828
  254MOL0     H33501  -0.093   4.713   3.538 -1.5093  0.6021 -0.5198
  254MOL0     H33502  -0.020   4.864   3.711  1.2238 -0.4171 -1.0272
  254MOL0     H33503  -0.150   4.940   3.618  1.1559  0.8098  0.1427
  254MOL0     H33504   0.145   5.025   3.606 -0.1626 -1.4775  0.9251
  254MOL0     H33505  -0.000   5.111   3.658 -1.4374  0.2675 -0.8912
  254MOL0     H33506   0.057   5.026   3.378 -3.3789  0.6280 -2.7221
  254MOL0     H33507  -0.101   5.092   3.433 -0.3137  0.9141 -0.1215
  254MOL0     H33508   0.010   5.296   3.500 -3.8406 -1.7966 -0.5985
  254MOL0     H33509   0.010   5.269   3.329  1.1261  0.4967 -0.4622
  254MOL0     H33510   0.466   4.531   3.283  0.5735 -1.1711 -0.2285
  254MOL0     H33511   0.700   4.513   3.193 -3.6832  0.3974 -1.2998
  254MOL0     H33512   1.110   4.223   3.300 -2.6359 -0.3073 -1.6124
  254MOL0     H33513   1.306   4.198   3.134 -1.6391 -1.0612 -2.6983
  254MOL0     H33514   2.829   4.156   2.266  1.3671  1.6975  0.6272
  254MOL0     H33515   3.048   4.229   2.276 -3.6842  1.0576 -0.6817
  254MOL0     H33516   3.501   4.174   2.483 -3.4472  1.5933 -2.0973
  254MOL0     H33517   3.746   4.225   2.470  2.5177  0.9890 -2.3801
  254MOL0     H33518   4.003   4.086   2.330  2.1465  0.7150  0.6539
  254MOL0     H33519   3.940   4.216   2.438  0.1447  0.7190 -0.3077
  254MOL0     H33520   4.171   4.231   2.399 -1.3465  0.6925  1.0807
  254MOL0     H33521   4.145   4.245   2.218  1.7447 -0.2418  0.8089
  254MOL0     H33522   4.035   4.431   2.439 -4.2347  3.4795 -2.1221
  254MOL0     H33523   3.997   4.452   2.272 -0.7859 -2.4034 -0.5646
  254MOL0     H33524   4.169   4.592   2.370  1.1700  1.2316 -0.7848
  254MOL0     H33525   4.286   4.454   2.378  1.2769  4.3724  0.7369
  254MOL0     H33526   4.296   4.557   1.975 -0.6336 -0.5870 -0.8123
  254MOL0     H33527   3.732   4.149   2.050 -0.7206  2.8597 -1.6153
  254MOL0     H33528   3.486   4.128   2.056  1.0960 -1.2225 -0.0685
  255MOL0     O33529  10.370   2.524  10.206 -0.3194 -0.3925 -0.6523
  255MOL0     C33530  10.354   2.413  10.157  0.6311 -0.6013 -0.0179
  255MOL0     O33531  10.239   2.332  10.174 -0.1355 -0.4214  0.2899
  255MOL0     C33532  10.135   2.363  10.254 -0.0828 -0.5755  0.1049
  255MOL0     C33533  10.096   2.494  10.301  0.4134  0.3672  0.6160
  255MOL0     C33534   9.982   2.501  10.385  0.1744 -1.0254 -0.1872
  255MOL0     C33535   9.910   2.384  10.422  0.1918  0.8063 -0.7894
  255MOL0     O33536   9.790   2.393  10.495  0.2337 -0.0640 -0.4768
  255MOL0     C33537   9.703   2.274  10.528 -0.2891  0.8984  0.1589
  255MOL0     C33538   9.592   2.347  10.600  0.3295 -0.3753  0.2713
  255MOL0     C33539   9.476   2.245  10.613  0.3204  0.1917  0.3201
  255MOL0     C33540   9.337   2.302  10.649 -0.2928 -0.4655  0.5701
  255MOL0     C33541   9.236   2.188  10.661 -0.2376 -0.6015 -0.0889
  255MOL0     C33542   9.097   2.232  10.625  0.1348 -0.1166  0.3243
  255MOL0     C33543   9.070   2.263  10.473  0.1485 -0.7363  0.7087
  255MOL0     C33544   8.929   2.312  10.448 -1.0920  0.1072  0.0688
  255MOL0     N33545   8.838   2.203  10.414  0.2559 -0.5845  0.3760
  255MOL0     C33546   8.757   2.132  10.494 -0.1068 -0.2364  0.0144
  255MOL0     C33547   8.697   2.038  10.423  0.6365  0.0293  0.5322
  255MOL0     C33548   8.611   1.927  10.476 -0.0958  0.2843 -0.4542
  255MOL0     C33549   8.461   1.971  10.465  0.2679  0.6397 -0.1254
  255MOL0     C33550   8.364   1.850  10.488 -0.8248  0.5589 -0.9349
  255MOL0     C33551   8.225   1.897  10.494  0.4360 -0.1111  0.3504
  255MOL0     O33552   8.140   1.787  10.500  0.6015  0.0686 -0.5421
  255MOL0     C33553   8.015   1.798  10.552 -0.0002  1.0143 -0.0677
  255MOL0     C33554   7.937   1.677  10.580 -0.1085 -0.5123 -0.4808
  255MOL0     C33555   7.801   1.692  10.633 -0.1892 -0.8987 -0.2072
  255MOL0     C33556   7.752   1.815  10.668  1.1328 -0.3203  0.1088
  255MOL0     C33557   7.611   1.824  10.725  1.1500  0.9502  0.3899
  255MOL0     O33558   7.554   1.710  10.761 -0.3324 -0.0646  0.8267
  255MOL0     C33559   7.421   1.716  10.790  0.9227  0.0629 -0.7967
  255MOL0     C33560   7.381   1.783  10.906  0.1626  0.0731 -0.0670
  255MOL0     C33561   7.247   1.787  10.938 -0.3537 -0.6349 -0.7386
  255MOL0     C33562   7.152   1.718  10.868  0.4121  0.9841  0.0986
  255MOL0     O33563   7.024   1.718  10.920 -0.0510 -0.3035  0.6947
  255MOL0     C33564   6.940   1.621  10.859 -0.3590  0.4442 -0.8561
  255MOL0     C33565   6.820   1.593  10.961 -0.3614  0.4935  1.6520
  255MOL0     C33566   6.740   1.702  11.030  0.2307 -0.3289 -0.2632
  255MOL0     C33567   6.659   1.649  11.149 -0.4311 -0.5656  0.0383
  255MOL0     C33568   6.542   1.557  11.107  0.5203  0.5491  0.2201
  255MOL0     C33569   6.441   1.611  11.003 -0.4274 -0.0570 -0.0009
  255MOL0     C33570   6.386   1.746  11.046  0.4874  0.4873 -0.3855
  255MOL0     C33571   6.275   1.791  10.951  0.0333  0.4096 -0.8552
  255MOL0    Cl33572   6.205   1.931  11.018  0.0137  0.2072 -0.0594
  255MOL0     C33573   7.194   1.639  10.755  0.0244  0.9026 -0.3878
  255MOL0     C33574   7.332   1.635  10.720 -0.0721 -0.2981  0.8467
  255MOL0     O33575   7.561   1.933  10.726 -0.1194  0.1882 -0.4101
  255MOL0     C33576   7.833   1.929  10.643 -0.1679 -0.5287  0.4429
  255MOL0     C33577   7.952   1.917  10.578  0.2520 -1.1291 -0.1904
  255MOL0     N33578   8.726   2.065  10.294 -0.3381 -0.1967 -0.3032
  255MOL0     N33579   8.805   2.159  10.288  0.5588 -0.0251  0.3542
  255MOL0     C33580   9.941   2.263  10.352  0.2201  0.1063  0.4111
  255MOL0     C33581  10.055   2.251  10.277 -0.3094 -0.0701  0.4828
  255MOL0     C33582  10.461   2.362  10.061  0.3803  0.7427  0.2350
  255MOL0     C33583  10.559   2.452  10.026 -0.4271  0.3326 -0.1459
  255MOL0     C33584  10.667   2.416   9.942  0.2831  0.5603 -1.0009
  255MOL0     C33585  10.661   2.293   9.878  0.3295  0.7052  0.7161
  255MOL0     O33586  10.770   2.246   9.806 -1.0872 -0.5455  0.2589
  255MOL0     C33587  10.888   2.327   9.782  0.4068 -0.0230  0.0852
  255MOL0     C33588  11.015   2.246   9.755  1.1833  0.7218  0.1971
  255MOL0     C33589  11.138   2.339   9.728 -0.6220  0.2637 -0.1165
  255MOL0     C33590  11.209   2.381   9.853  0.0005 -0.7260 -0.8463
  255MOL0     C33591  11.281   2.264   9.917  0.6975 -0.4392  0.1470
  255MOL0     C33592  11.345   2.174   9.959 -0.7459 -0.4515 -1.2706
  255MOL0     C33593  10.555   2.205   9.912 -0.4358  0.2306 -0.0173
  255MOL0     C33594  10.461   2.241  10.000 -0.2869 -0.3055 -0.3103
  255MOL0     H33595  10.145   2.590  10.288  2.5722 -0.7956 -0.2884
  255MOL0     H33596   9.939   2.590  10.430 -2.3415 -0.8082 -2.7494
  255MOL0     H33597   9.750   2.199  10.593 -0.7988  1.4026  1.1336
  255MOL0     H33598   9.677   2.216  10.439  2.7749 -0.9508  0.3118
  255MOL0     H33599   9.535   2.413  10.534 -0.6858 -1.9902 -0.5248
  255MOL0     H33600   9.609   2.392  10.698  2.6077 -0.4243 -0.0416
  255MOL0     H33601   9.500   2.167  10.687 -0.8643  0.5230  1.0821
  255MOL0     H33602   9.460   2.191  10.519 -0.9158  0.6831  0.2357
  255MOL0     H33603   9.349   2.370  10.734 -2.8074 -0.0934  0.6968
  255MOL0     H33604   9.314   2.371  10.567  0.4954 -2.8262 -1.7917
  255MOL0     H33605   9.246   2.158  10.765  3.8195 -0.3147 -0.2248
  255MOL0     H33606   9.250   2.097  10.601  0.9521  0.2985 -1.2355
  255MOL0     H33607   9.078   2.319  10.688  2.4574 -0.4765  1.6603
  255MOL0     H33608   9.024   2.160  10.664 -0.9753  0.5968 -0.4134
  255MOL0     H33609   9.132   2.343  10.431  0.3005 -2.0228 -1.6169
  255MOL0     H33610   9.082   2.177  10.407 -1.9927 -0.1299 -0.5929
  255MOL0     H33611   8.925   2.372  10.356 -1.9244  0.0455  0.0578
  255MOL0     H33612   8.886   2.373  10.528 -1.4884 -0.7519  0.5278
  255MOL0     H33613   8.742   2.148  10.600 -0.4807  1.0999 -0.2223
  255MOL0     H33614   8.631   1.921  10.584 -2.9734 -1.3951  0.0776
  255MOL0     H33615   8.652   1.842  10.421 -1.6701 -0.3820 -0.6422
  255MOL0     H33616   8.434   2.013  10.368 -3.0045 -0.5421  0.1199
  255MOL0     H33617   8.450   2.049  10.541  1.2163  1.0741 -0.4218
  255MOL0     H33618   8.380   1.779  10.406  0.3335 -1.0056  0.5837
  255MOL0     H33619   8.408   1.797  10.573  2.7612 -1.1077 -3.5248
  255MOL0     H33620   8.202   1.941  10.397  0.7933 -1.4186 -0.3438
  255MOL0     H33621   8.209   1.971  10.574  1.2304  1.1354 -0.5959
  255MOL0     H33622   7.971   1.579  10.549 -1.7235 -1.5545  0.9018
  255MOL0     H33623   7.735   1.607  10.650 -0.8832 -0.4330 -0.5273
  255MOL0     H33624   7.453   1.835  10.968  1.4891 -0.7969 -0.8311
  255MOL0     H33625   7.221   1.855  11.019  1.0368  3.8099 -3.6336
  255MOL0     H33626   6.981   1.521  10.840  0.4103  0.5893 -0.0017
  255MOL0     H33627   6.903   1.665  10.766  0.0627 -1.4716 -1.9862
  255MOL0     H33628   6.864   1.529  11.038  2.5271 -1.8079 -1.5949
  255MOL0     H33629   6.747   1.540  10.899 -1.0769  0.9925  2.0432
  255MOL0     H33630   6.681   1.756  10.955  2.7016  0.4655 -1.7514
  255MOL0     H33631   6.813   1.775  11.065  0.7777 -1.9188  2.1472
  255MOL0     H33632   6.732   1.592  11.207  0.3718 -1.6478 -1.9496
  255MOL0     H33633   6.622   1.729  11.214 -0.6528  0.2661 -1.0970
  255MOL0     H33634   6.486   1.521  11.193  0.5097  0.4013  0.1521
  255MOL0     H33635   6.587   1.473  11.053 -2.0979  1.1987 -3.3622
  255MOL0     H33636   6.363   1.537  10.984  0.5679 -0.9596 -0.7082
  255MOL0     H33637   6.488   1.629  10.905  0.7494  2.1396  0.9059
  255MOL0     H33638   6.347   1.733  11.148  0.5170  1.8491 -0.1857
  255MOL0     H33639   6.466   1.819  11.062 -0.8469  1.6800  1.2191
  255MOL0     H33640   6.204   1.708  10.949 -0.2734  0.5830 -4.5834
  255MOL0     H33641   6.321   1.804  10.852  0.0752  1.3593 -0.7133
  255MOL0     H33642   7.117   1.596  10.692  0.8468  1.6932 -1.9806
  255MOL0     H33643   7.367   1.587  10.629 -1.8410  1.3349 -0.8005
  255MOL0     H33644   7.813   2.030  10.678  2.6085  0.5690 -0.8631
  255MOL0     H33645   8.003   2.012  10.563  0.0558 -0.3204  3.2802
  255MOL0     H33646   9.888   2.172  10.375  2.9659 -1.7702 -0.2213
  255MOL0     H33647  10.064   2.154  10.230 -2.4377 -1.2250  2.2828
  255MOL0     H33648  10.559   2.555  10.058  0.7922  0.5867 -0.9258
  255MOL0     H33649  10.743   2.490   9.918  1.2120 -0.0740 -0.0544
  255MOL0     H33650  10.907   2.370   9.880 -1.4659 -2.3070  1.5631
  255MOL0     H33651  10.875   2.403   9.704  1.1784 -0.1669 -0.1907
  255MOL0     H33652  11.037   2.174   9.835 -1.5548  0.5374  0.8836
  255MOL0     H33653  10.993   2.185   9.666 -2.1374  1.8177  0.1372
  255MOL0     H33654  11.104   2.427   9.674 -2.9002 -0.0027  0.7960
  255MOL0     H33655  11.210   2.276   9.675  0.5984 -0.4024  2.2082
  255MOL0     H33656  11.283   2.458   9.834  1.7277 -1.8980  0.6964
  255MOL0     H33657  11.136   2.427   9.920  1.0862  1.3047 -1.0002
  255MOL0     H33658  11.399   2.089   9.997 -2.4014 -0.8311  0.3948
  255MOL0     H33659  10.565   2.101   9.882  3.1309 -0.2228  2.1504
  255MOL0     H33660  10.377   2.175  10.021  1.3899 -2.7570 -1.0149
  256MOL0     O33661   3.439   3.703   2.802 -0.1135 -0.3255  0.1555
  256MOL0     C33662   3.465   3.756   2.695 -0.3360  0.2537 -0.0476
  256MOL0     O33663   3.380   3.763   2.579  0.4331  0.6010  0.0880
  256MOL0     C33664   3.247   3.726   2.584  0.4476 -0.6662 -0.5628
  256MOL0     C33665   3.162   3.813   2.509  0.0305 -0.2616  0.1134
  256MOL0     C33666   3.026   3.797   2.506  0.2553 -0.1968 -0.0546
  256MOL0     C33667   2.966   3.687   2.569  0.3434  0.0814  0.7759
  256MOL0     O33668   2.830   3.682   2.560  0.0719 -0.3515 -0.7639
  256MOL0     C33669   2.761   3.618   2.665  0.1382 -0.1050  0.9347
  256MOL0     C33670   2.638   3.708   2.693 -1.0621 -0.0941  0.4488
  256MOL0     C33671   2.550   3.640   2.793 -0.4162 -0.4277 -0.8126
  256MOL0     C33672   2.443   3.735   2.857 -0.1029  0.7687  0.1337
  256MOL0     C33673   2.333   3.645   2.926 -0.2249 -0.2028 -0.6692
  256MOL0     C33674   2.229   3.728   3.001  0.0232 -0.1621  1.1966
  256MOL0     C33675   2.131   3.795   2.903 -0.1273 -0.4863 -0.1102
  256MOL0     C33676   2.011   3.705   2.838 -0.9053 -0.7592 -1.1260
  256MOL0     N33677   1.887   3.730   2.905  0.2453  0.5895  0.6595
  256MOL0     C33678   1.775   3.785   2.848 -0.2537  0.7277  0.2829
  256MOL0     C33679   1.688   3.780   2.958  0.2853  0.5026 -0.1390
  256MOL0     C33680   1.541   3.817   2.963  0.6235  0.3362 -0.3910
  256MOL0     C33681   1.447   3.710   3.027  0.7051 -0.1736 -0.1897
  256MOL0     C33682   1.292   3.739   3.020 -0.2934 -0.1707 -0.3761
  256MOL0     C33683   1.222   3.753   3.159 -0.4176 -0.4419  0.1886
  256MOL0     O33684   1.267   3.871   3.221 -0.3472  0.2968 -0.3371
  256MOL0     C33685   1.247   3.863   3.358  0.2622  0.3238  0.2597
  256MOL0     C33686   1.125   3.901   3.421 -0.3337  0.0744 -0.0170
  256MOL0     C33687   1.096   3.880   3.552  0.2080  0.7208  0.5384
  256MOL0     C33688   1.192   3.820   3.636 -0.1603 -0.0403  0.7279
  256MOL0     C33689   1.165   3.795   3.777 -0.0800 -0.5345  0.0126
  256MOL0     O33690   1.274   3.743   3.848 -0.3037  0.5291 -0.0058
  256MOL0     C33691   1.252   3.689   3.965  0.9984 -0.0095 -0.3978
  256MOL0     C33692   1.158   3.583   3.990  0.3964 -0.1427  0.2109
  256MOL0     C33693   1.155   3.535   4.120  0.9103 -0.1048  1.0849
  256MOL0     C33694   1.233   3.571   4.226 -0.3462  0.1901 -0.2313
  256MOL0     O33695   1.216   3.509   4.357 -0.6062 -0.3607  1.2155
  256MOL0     C33696   1.232   3.585   4.464 -0.1795  0.2581 -0.0092
  256MOL0     C33697   1.205   3.501   4.575  0.9784  1.5248  0.2186
  256MOL0     C33698   1.220   3.569   4.713 -0.4696 -0.4894  0.5612
  256MOL0     C33699   1.189   3.473   4.826  0.1590  0.4823  0.1730
  256MOL0     C33700   1.204   3.546   4.962  0.1786  0.9342 -0.0879
  256MOL0     C33701   1.163   3.453   5.081  0.2016  0.1268  1.0872
  256MOL0     C33702   1.172   3.526   5.218 -0.8820  0.6616  0.0528
  256MOL0     C33703   1.100   3.452   5.325  0.7867 -0.3501  0.2025
  256MOL0    Cl33704   0.924   3.484   5.319 -0.1579  0.2003 -0.3875
  256MOL0     C33705   1.335   3.670   4.198  0.2376 -0.4248 -0.7196
  256MOL0     C33706   1.334   3.726   4.064  0.4981 -0.2825 -0.5623
  256MOL0     O33707   1.056   3.815   3.811 -0.5981  1.2568  0.4156
  256MOL0     C33708   1.316   3.777   3.570  0.8280 -0.1085 -0.0587
  256MOL0     C33709   1.342   3.803   3.432 -1.1076  0.1085  0.7441
  256MOL0     N33710   1.748   3.713   3.068  0.0781 -0.6522 -0.4260
  256MOL0     N33711   1.868   3.685   3.033  0.4464  0.1948 -0.4025
  256MOL0     C33712   3.043   3.587   2.622  0.1889 -1.3442  0.1709
  256MOL0     C33713   3.182   3.614   2.641  0.1042 -0.2426  0.5070
  256MOL0     C33714   3.605   3.810   2.688 -0.9004 -0.7735 -0.0779
  256MOL0     C33715   3.637   3.882   2.575  0.8937 -0.0295  0.4449
  256MOL0     C33716   3.772   3.920   2.542 -1.1490 -0.0224 -0.2197
  256MOL0     C33717   3.875   3.890   2.643  0.9856  0.4700  0.0470
  256MOL0     O33718   4.008   3.923   2.610  0.3113 -1.2770  0.2949
  256MOL0     C33719   4.120   3.894   2.697  0.6670 -0.3480 -1.1605
  256MOL0     C33720   4.141   4.012   2.793 -0.1133  0.4873 -0.4274
  256MOL0     C33721   4.206   4.134   2.731 -0.7749 -0.9914 -0.2074
  256MOL0     C33722   4.143   4.267   2.777 -0.1558 -1.2595 -0.3660
  256MOL0     C33723   4.204   4.390   2.722 -0.0165 -0.4616  0.7846
  256MOL0     C33724   4.299   4.461   2.674 -0.1041 -0.8213  0.1036
  256MOL0     C33725   3.840   3.835   2.766  0.4747 -0.1398 -0.2715
  256MOL0     C33726   3.703   3.792   2.788  0.1597  0.1532  0.2499
  256MOL0     H33727   3.199   3.902   2.459  0.0758 -1.0911 -1.3731
  256MOL0     H33728   2.953   3.873   2.477 -0.4557 -0.8890 -0.0973
  256MOL0     H33729   2.814   3.596   2.758  0.6284  1.6678  1.1119
  256MOL0     H33730   2.722   3.522   2.630  0.8355 -0.6982  1.7440
  256MOL0     H33731   2.599   3.746   2.599  1.7891  0.9429 -0.4294
  256MOL0     H33732   2.675   3.797   2.745  1.4286 -0.7012 -0.1706
  256MOL0     H33733   2.609   3.586   2.867  0.3708  1.1681 -0.2254
  256MOL0     H33734   2.500   3.563   2.734 -0.3113  0.1924 -1.7392
  256MOL0     H33735   2.488   3.804   2.930 -0.9737  0.8270  0.6269
  256MOL0     H33736   2.402   3.805   2.784  0.6669  0.4543 -0.6221
  256MOL0     H33737   2.381   3.578   2.998  0.0714 -0.0837 -0.7518
  256MOL0     H33738   2.276   3.584   2.855 -1.6633 -0.6414  0.7989
  256MOL0     H33739   2.278   3.808   3.056  2.1087 -0.7760  0.3159
  256MOL0     H33740   2.164   3.665   3.063 -2.8131  0.2277 -1.0984
  256MOL0     H33741   2.078   3.872   2.959 -1.9505 -2.6019  1.2253
  256MOL0     H33742   2.184   3.841   2.819 -1.9657 -0.3571 -1.2715
  256MOL0     H33743   2.023   3.597   2.847 -0.5661 -0.6204  0.6048
  256MOL0     H33744   2.002   3.733   2.733 -1.3066  2.4216 -0.3714
  256MOL0     H33745   1.751   3.817   2.747 -1.3638 -2.7532 -0.6825
  256MOL0     H33746   1.510   3.839   2.860 -0.9638 -0.4316 -0.1146
  256MOL0     H33747   1.513   3.911   3.012 -0.6301  0.3776 -1.1347
  256MOL0     H33748   1.469   3.696   3.134 -0.9260  2.0662  0.4980
  256MOL0     H33749   1.467   3.611   2.986  0.2802  0.0473 -0.9422
  256MOL0     H33750   1.265   3.837   2.980 -1.9124  0.2025  1.4943
  256MOL0     H33751   1.247   3.660   2.959 -1.9213  0.4780 -0.0595
  256MOL0     H33752   1.229   3.661   3.218  0.0125 -0.1480  0.6095
  256MOL0     H33753   1.114   3.768   3.154 -0.5891 -1.2442  1.0950
  256MOL0     H33754   1.055   3.956   3.358 -2.2511  0.0096  1.9392
  256MOL0     H33755   0.997   3.905   3.590  0.6486  3.0853  0.2255
  256MOL0     H33756   1.095   3.529   3.919 -0.7591  0.8289  0.4656
  256MOL0     H33757   1.070   3.469   4.135 -0.5744  1.6505  0.7387
  256MOL0     H33758   1.180   3.681   4.460  2.7658  1.9533 -0.9322
  256MOL0     H33759   1.336   3.617   4.473 -0.2792  0.4767  0.4182
  256MOL0     H33760   1.270   3.413   4.573  0.2785  0.8325  3.2388
  256MOL0     H33761   1.100   3.470   4.566  1.2284  0.7093  0.0104
  256MOL0     H33762   1.159   3.659   4.718 -0.8531 -0.7008 -0.1919
  256MOL0     H33763   1.326   3.593   4.723 -0.4047  0.2421 -1.4563
  256MOL0     H33764   1.088   3.435   4.809 -0.0453  0.9019  0.4577
  256MOL0     H33765   1.263   3.393   4.815 -0.1730  0.3024 -0.9034
  256MOL0     H33766   1.160   3.645   4.957 -1.3476  0.2392 -1.1342
  256MOL0     H33767   1.312   3.555   4.979  0.6162 -4.4950  2.2817
  256MOL0     H33768   1.214   3.357   5.081 -0.2164 -0.2047 -2.4022
  256MOL0     H33769   1.062   3.423   5.056  1.0464 -0.3572 -2.2116
  256MOL0     H33770   1.277   3.514   5.246 -0.6524 -1.6512 -1.4931
  256MOL0     H33771   1.152   3.633   5.204  3.9317  1.4308 -3.8199
  256MOL0     H33772   1.135   3.492   5.421  1.1807 -1.3567  0.4945
  256MOL0     H33773   1.120   3.345   5.314  0.2927 -0.2729 -1.7529
  256MOL0     H33774   1.411   3.696   4.271  2.6649 -3.2497 -2.0551
  256MOL0     H33775   1.415   3.796   4.044 -0.9801  1.7235  0.1063
  256MOL0     H33776   1.396   3.726   3.623  0.7098 -0.3150 -0.0781
  256MOL0     H33777   1.427   3.757   3.382 -0.0709  0.6628  1.9097
  256MOL0     H33778   3.006   3.491   2.658 -2.0541 -0.9308 -0.9020
  256MOL0     H33779   3.243   3.541   2.695  1.6974  1.7290  1.5389
  256MOL0     H33780   3.548   3.892   2.513  0.7824 -1.2321  0.3828
  256MOL0     H33781   3.802   3.960   2.446  0.9409 -1.9319 -0.4386
  256MOL0     H33782   4.199   3.877   2.622  1.0598  0.0246 -0.8376
  256MOL0     H33783   4.105   3.800   2.751  1.7529  0.3466  0.4149
  256MOL0     H33784   4.047   4.027   2.846 -0.8969  1.1828 -1.9370
  256MOL0     H33785   4.210   3.975   2.869  1.3219 -2.5718 -2.9507
  256MOL0     H33786   4.169   4.129   2.628  0.9374  2.5638 -1.1605
  256MOL0     H33787   4.315   4.127   2.742 -0.8136 -3.0528 -0.7687
  256MOL0     H33788   4.036   4.263   2.754 -0.8999 -2.9870  2.8395
  256MOL0     H33789   4.153   4.264   2.885 -2.8808 -2.6861 -0.0692
  256MOL0     H33790   4.381   4.521   2.639  0.4792 -0.7833  1.4581
  256MOL0     H33791   3.907   3.806   2.846 -1.7816 -1.0902  1.4119
  256MOL0     H33792   3.683   3.731   2.876  0.8859  0.9416  0.9780
  257MOL0     O33793   9.943   2.522   6.103  0.5236  0.1015  0.1156
  257MOL0     C33794  10.022   2.457   6.163 -0.6379 -0.7489 -0.1618
  257MOL0     O33795  10.005   2.376   6.269  0.2710  0.1623 -0.1897
  257MOL0     C33796   9.871   2.347   6.308  0.2896  0.5987  0.1741
  257MOL0     C33797   9.826   2.372   6.430 -0.9756  0.1261 -0.2948
  257MOL0     C33798   9.699   2.339   6.474  0.0568  0.0228  1.0591
  257MOL0     C33799   9.604   2.277   6.390 -0.6685  0.6000  0.0115
  257MOL0     O33800   9.474   2.254   6.424 -0.4263  0.1120  0.4247
  257MOL0     C33801   9.443   2.267   6.563 -0.4680 -0.5978  0.0610
  257MOL0     C33802   9.311   2.190   6.593 -0.3781  0.5559  0.6291
  257MOL0     C33803   9.200   2.281   6.655  0.1161 -0.6598 -0.7619
  257MOL0     C33804   9.061   2.227   6.665  0.4462  0.2970  0.2503
  257MOL0     C33805   9.025   2.100   6.742 -0.0323 -0.1426 -0.0831
  257MOL0     C33806   8.874   2.085   6.740  0.8589 -1.2092 -1.3695
  257MOL0     C33807   8.838   1.984   6.631 -0.0730 -0.2145 -0.0834
  257MOL0     C33808   8.683   1.978   6.608  0.0024 -0.0153 -0.2173
  257MOL0     N33809   8.602   2.000   6.726  0.1869 -0.1209 -0.4560
  257MOL0     C33810   8.515   2.105   6.762 -0.2842  0.1657 -0.0969
  257MOL0     C33811   8.467   2.065   6.883  0.1897  0.4348 -0.0782
  257MOL0     C33812   8.366   2.143   6.965  0.2758  0.3814 -0.2495
  257MOL0     C33813   8.220   2.084   6.944  0.4607 -0.3400 -0.3346
  257MOL0     C33814   8.205   1.966   7.042  0.2686  0.5145  0.1267
  257MOL0     C33815   8.062   1.947   7.081  0.0254 -0.7669  0.1097
  257MOL0     O33816   7.989   1.906   6.965 -1.3750  0.1066 -0.1859
  257MOL0     C33817   7.856   1.903   6.944  0.5518 -0.5735 -0.4246
  257MOL0     C33818   7.768   1.981   7.028 -0.3552 -0.3811 -0.5118
  257MOL0     C33819   7.632   1.992   6.987 -0.2193 -0.1059 -0.4174
  257MOL0     C33820   7.586   1.945   6.861  0.2053  0.7578 -0.7452
  257MOL0     C33821   7.458   1.982   6.799  0.2468 -0.3887  0.6035
  257MOL0     O33822   7.380   2.058   6.891  0.0804  0.2970 -0.0640
  257MOL0     C33823   7.246   2.049   6.879 -0.1988  0.0118  0.0505
  257MOL0     C33824   7.180   1.936   6.866 -0.1458  0.1014 -0.0304
  257MOL0     C33825   7.043   1.927   6.860 -0.1284 -0.3548 -0.8894
  257MOL0     C33826   6.965   2.043   6.855  0.6460  0.4148  0.2022
  257MOL0     O33827   6.836   2.027   6.822  0.1664 -0.3780 -0.5064
  257MOL0     C33828   6.754   2.150   6.824 -0.2974  0.1051 -0.8909
  257MOL0     C33829   6.606   2.135   6.792  0.1618  0.0709  0.4878
  257MOL0     C33830   6.517   2.248   6.837  0.1940 -1.0005 -0.4799
  257MOL0     C33831   6.377   2.203   6.860 -0.1183 -0.6664 -0.7596
  257MOL0     C33832   6.316   2.170   6.721 -0.6880 -0.4871  0.2139
  257MOL0     C33833   6.161   2.161   6.736 -0.4895  0.4872  0.4716
  257MOL0     C33834   6.087   2.297   6.731  0.2321 -1.4387 -0.7800
  257MOL0     C33835   5.946   2.312   6.689 -0.2772  0.0315  0.0954
  257MOL0    Cl33836   5.846   2.183   6.759 -0.1611 -0.1165  0.5596
  257MOL0     C33837   7.030   2.166   6.861 -0.2175 -0.1672 -0.5103
  257MOL0     C33838   7.165   2.162   6.883  0.1127  0.1299 -0.7060
  257MOL0     O33839   7.424   1.945   6.689  0.1635 -0.1712  0.2851
  257MOL0     C33840   7.682   1.875   6.784  0.9578 -0.5834 -0.2620
  257MOL0     C33841   7.809   1.849   6.826  1.0409  0.0154 -0.6982
  257MOL0     N33842   8.529   1.957   6.931 -0.1458  0.4152 -0.1408
  257MOL0     N33843   8.612   1.923   6.846 -0.0326 -0.0365  0.1680
  257MOL0     C33844   9.645   2.249   6.258 -0.9844  0.1092 -0.0324
  257MOL0     C33845   9.784   2.287   6.219  0.8351 -0.0462  0.2447
  257MOL0     C33846  10.150   2.466   6.093  0.4821  0.1719 -0.3059
  257MOL0     C33847  10.213   2.582   6.027  0.7253  0.8784 -0.5252
  257MOL0     C33848  10.339   2.564   5.961  0.3115 -0.2872 -0.6244
  257MOL0     C33849  10.395   2.441   5.948 -0.8895 -0.1132 -0.0266
  257MOL0     O33850  10.525   2.434   5.891  1.0580  0.2523 -0.2389
  257MOL0     C33851  10.549   2.308   5.824 -0.0972 -0.3646 -0.3646
  257MOL0     C33852  10.661   2.332   5.725 -0.3425  0.0237  0.1360
  257MOL0     C33853  10.669   2.213   5.634 -0.4088 -0.4368  1.0145
  257MOL0     C33854  10.773   2.244   5.531 -0.5737 -0.0639  0.8411
  257MOL0     C33855  10.897   2.274   5.596 -0.8902 -0.1100  0.3040
  257MOL0     C33856  11.011   2.290   5.640 -0.8066  0.0555 -0.8304
  257MOL0     C33857  10.332   2.334   6.006 -0.2452  1.0378 -0.1068
  257MOL0     C33858  10.212   2.348   6.071 -0.3741  0.2147 -0.1253
  257MOL0     H33859   9.882   2.437   6.497 -1.0318 -0.1384  0.0120
  257MOL0     H33860   9.668   2.376   6.571 -1.7798  2.6085 -0.4036
  257MOL0     H33861   9.433   2.375   6.575 -0.1902 -0.8173  3.0669
  257MOL0     H33862   9.519   2.231   6.632  0.8527  2.2697  0.2290
  257MOL0     H33863   9.334   2.106   6.659  3.5488  0.9242 -0.0601
  257MOL0     H33864   9.269   2.140   6.505 -0.8762  0.6519  0.8092
  257MOL0     H33865   9.197   2.366   6.586 -1.1288  0.2378  0.3450
  257MOL0     H33866   9.235   2.320   6.751  0.3093  0.9817 -1.4785
  257MOL0     H33867   9.008   2.310   6.712  0.8953 -1.3585  3.9865
  257MOL0     H33868   9.020   2.205   6.566 -1.4171 -0.0925  1.0678
  257MOL0     H33869   9.047   2.123   6.846 -1.3258 -0.5731  0.3047
  257MOL0     H33870   9.083   2.012   6.715 -0.7157 -0.5104 -0.3879
  257MOL0     H33871   8.817   2.176   6.720 -1.1327 -1.9877  0.3453
  257MOL0     H33872   8.851   2.057   6.843 -2.6453 -3.5052 -2.6179
  257MOL0     H33873   8.887   2.001   6.535 -0.7110  1.7656 -0.0958
  257MOL0     H33874   8.852   1.883   6.671 -0.0162  0.0762  0.6370
  257MOL0     H33875   8.657   1.879   6.571  1.4719 -0.4915 -0.0712
  257MOL0     H33876   8.656   2.048   6.528  4.2249 -1.8329 -3.6221
  257MOL0     H33877   8.482   2.187   6.700  0.9192  0.0324 -0.9478
  257MOL0     H33878   8.368   2.250   6.943 -1.9304  0.2566 -1.2906
  257MOL0     H33879   8.393   2.151   7.070 -0.6729  1.8155 -0.0842
  257MOL0     H33880   8.201   2.048   6.842 -0.3077 -0.0346 -0.3041
  257MOL0     H33881   8.153   2.167   6.965  1.5487  0.5669 -0.3510
  257MOL0     H33882   8.241   1.875   6.994  0.3434  0.2914  0.6088
  257MOL0     H33883   8.270   1.981   7.129 -0.5178  4.1999  0.2798
  257MOL0     H33884   8.018   2.044   7.106  1.0470  0.1385 -1.4247
  257MOL0     H33885   8.063   1.874   7.163  1.7670 -2.4671 -1.3352
  257MOL0     H33886   7.791   2.028   7.123 -2.2629 -0.7670  0.1955
  257MOL0     H33887   7.564   2.039   7.057  1.0484  0.6706  0.3312
  257MOL0     H33888   7.235   1.844   6.855 -1.6815 -0.8800  0.1258
  257MOL0     H33889   7.001   1.828   6.852  2.6997 -1.8234  0.6645
  257MOL0     H33890   6.792   2.210   6.740 -0.4607  0.1202 -0.9538
  257MOL0     H33891   6.772   2.207   6.915  1.0682  2.7141 -2.6475
  257MOL0     H33892   6.567   2.045   6.841 -0.7917  0.6327  0.7941
  257MOL0     H33893   6.601   2.128   6.683  0.1401  1.6792  0.3705
  257MOL0     H33894   6.533   2.331   6.768 -0.3262  1.9188  2.6281
  257MOL0     H33895   6.554   2.292   6.930 -1.3047  3.0333 -1.5494
  257MOL0     H33896   6.382   2.122   6.934 -2.3865  0.3840  0.6414
  257MOL0     H33897   6.327   2.292   6.899 -0.8299 -0.8468 -1.2430
  257MOL0     H33898   6.365   2.086   6.672 -0.4595 -0.4518  0.3784
  257MOL0     H33899   6.322   2.255   6.652 -1.8576 -0.1789  0.4703
  257MOL0     H33900   6.126   2.103   6.821 -1.2593  0.0690 -0.1107
  257MOL0     H33901   6.121   2.110   6.647 -0.3597  0.5334  0.3868
  257MOL0     H33902   6.093   2.347   6.828  1.3359  0.7798 -1.9216
  257MOL0     H33903   6.141   2.364   6.663  1.5009 -2.3785 -0.7404
  257MOL0     H33904   5.951   2.309   6.580  0.5335 -0.0371  0.1316
  257MOL0     H33905   5.897   2.404   6.722 -2.2590 -1.0364  0.3307
  257MOL0     H33906   6.976   2.260   6.853 -4.2850 -2.2409 -0.1456
  257MOL0     H33907   7.219   2.256   6.897 -1.5165  0.9945  0.0594
  257MOL0     H33908   7.653   1.826   6.692 -1.3849 -1.4356  0.8469
  257MOL0     H33909   7.875   1.797   6.757 -1.5832 -0.9636 -2.6245
  257MOL0     H33910   9.576   2.201   6.190 -0.1565  0.9473 -1.5082
  257MOL0     H33911   9.835   2.265   6.126  2.1181 -0.6176  1.0653
  257MOL0     H33912  10.159   2.675   6.038 -0.1842  0.2633  0.5242
  257MOL0     H33913  10.389   2.649   5.916 -0.8929 -0.8851 -3.2749
  257MOL0     H33914  10.453   2.266   5.791 -1.0450  0.4865  1.1742
  257MOL0     H33915  10.584   2.233   5.895  1.4272 -1.8238 -2.5135
  257MOL0     H33916  10.637   2.421   5.666  0.6477 -0.8023 -1.6269
  257MOL0     H33917  10.756   2.341   5.780 -0.7703 -2.7450  1.4855
  257MOL0     H33918  10.578   2.209   5.573  0.5621  3.6038 -1.0387
  257MOL0     H33919  10.682   2.126   5.699 -2.8200  1.1324  3.8750
  257MOL0     H33920  10.799   2.156   5.472  4.5185  0.6804  1.5087
  257MOL0     H33921  10.754   2.323   5.459  2.7472 -0.1428 -0.2934
  257MOL0     H33922  11.110   2.296   5.682 -1.2863 -0.7264  0.4518
  257MOL0     H33923  10.377   2.235   6.007  1.8431  1.9190 -0.8583
  257MOL0     H33924  10.166   2.259   6.115 -2.7179  1.8241  0.9067
  258MOL0     O33925   8.297   0.822  10.274  0.7163  0.9043  0.5644
  258MOL0     C33926   8.254   0.928  10.231  0.3367  0.0521 -0.0538
  258MOL0     O33927   8.321   1.034  10.192 -0.4948 -0.3353 -0.4613
  258MOL0     C33928   8.459   1.043  10.209  0.3225 -0.4643  0.4618
  258MOL0     C33929   8.543   0.956  10.282  0.9980 -0.1792 -0.2192
  258MOL0     C33930   8.676   0.978  10.273 -0.7341 -0.4576 -0.9084
  258MOL0     C33931   8.731   1.074  10.186  0.0774 -0.0314 -0.1618
  258MOL0     O33932   8.866   1.070  10.165 -0.2430 -0.0173  0.4372
  258MOL0     C33933   8.941   1.119  10.048  0.3197 -0.6726 -0.4963
  258MOL0     C33934   9.092   1.083  10.054 -0.4331  0.6552 -0.0110
  258MOL0     C33935   9.167   1.137   9.933 -0.4772 -0.3763 -1.2600
  258MOL0     C33936   9.314   1.076   9.936  0.4741  0.3481  1.0134
  258MOL0     C33937   9.405   1.162   9.848 -0.3228  0.2608 -0.4721
  258MOL0     C33938   9.550   1.131   9.878  0.5769  0.1245 -0.7964
  258MOL0     C33939   9.655   1.229   9.823  0.7101  1.1200  1.0190
  258MOL0     C33940   9.632   1.255   9.674 -0.4770  0.8002  0.9509
  258MOL0     N33941   9.723   1.364   9.620  0.4655 -0.0337 -0.0901
  258MOL0     C33942   9.708   1.502   9.648 -0.6672 -0.8192  0.2461
  258MOL0     C33943   9.782   1.562   9.555  0.2439  0.2400  0.2291
  258MOL0     C33944   9.802   1.709   9.569  0.7823 -0.2477 -0.8994
  258MOL0     C33945   9.948   1.747   9.554 -0.5870 -0.1471 -0.2014
  258MOL0     C33946   9.971   1.895   9.508  0.2078 -0.5749 -0.0640
  258MOL0     C33947  10.123   1.915   9.480  1.0457  0.5384 -0.3444
  258MOL0     O33948  10.200   1.871   9.598 -0.5380 -0.4713  0.3924
  258MOL0     C33949  10.334   1.875   9.600 -0.3389 -0.4380 -0.3179
  258MOL0     C33950  10.408   1.864   9.478  0.3006  0.0360  0.7398
  258MOL0     C33951  10.548   1.861   9.481 -0.9082 -0.1715  0.0038
  258MOL0     C33952  10.623   1.867   9.599 -0.1047  0.1102 -0.2407
  258MOL0     C33953  10.765   1.850   9.607 -0.4119  0.2466  0.0910
  258MOL0     O33954  10.823   1.872   9.490 -0.1989  0.2162 -0.1879
  258MOL0     C33955  10.960   1.859   9.483 -0.6756  0.3839  0.1630
  258MOL0     C33956  11.006   1.724   9.487 -0.2886 -0.8644 -0.3418
  258MOL0     C33957  11.144   1.702   9.479 -0.6335  0.8119  0.5739
  258MOL0     C33958  11.234   1.803   9.468 -0.4804 -0.0198  0.0025
  258MOL0     O33959  11.370   1.773   9.459  0.2881 -0.3657  0.6665
  258MOL0     C33960  11.430   1.863   9.356 -0.4984 -0.6571  0.5137
  258MOL0     C33961  11.551   1.793   9.315 -0.0792  0.4207 -0.6522
  258MOL0     C33962  11.648   1.771   9.430  0.8845  0.6010  1.1779
  258MOL0     C33963  11.792   1.783   9.389 -0.1353  0.1831 -0.4192
  258MOL0     C33964  11.832   1.657   9.313 -1.1935  1.2387  0.1357
  258MOL0     C33965  11.972   1.648   9.268 -0.6495 -0.4842 -0.1282
  258MOL0     C33966  12.064   1.671   9.388  0.5886 -0.1554 -0.9893
  258MOL0     C33967  12.200   1.616   9.358 -0.2992  0.1003 -0.8173
  258MOL0    Cl33968  12.270   1.601   9.519 -0.0634 -0.0937  0.2152
  258MOL0     C33969  11.195   1.938   9.478 -0.2901  0.1019  0.5233
  258MOL0     C33970  11.054   1.969   9.475  0.0796  0.8161  0.9069
  258MOL0     O33971  10.825   1.825   9.707 -0.0877 -0.0531 -0.3413
  258MOL0     C33972  10.547   1.877   9.716  0.3821 -0.0037 -0.0278
  258MOL0     C33973  10.405   1.876   9.721 -0.1686  0.7088  0.2783
  258MOL0     N33974   9.828   1.471   9.470 -0.8363 -0.0522  0.3106
  258MOL0     N33975   9.799   1.352   9.508 -0.8510  0.6061 -0.3318
  258MOL0     C33976   8.654   1.154  10.110 -0.1073  0.3214  0.0203
  258MOL0     C33977   8.515   1.136  10.127 -0.1673 -0.5336 -0.4581
  258MOL0     C33978   8.108   0.941  10.221 -0.0848  0.0418 -0.5871
  258MOL0     C33979   8.053   1.052  10.158 -0.1525  1.3026 -0.9504
  258MOL0     C33980   7.922   1.072  10.176 -0.6383  0.2547  0.1882
  258MOL0     C33981   7.839   0.992  10.257  0.1845  0.0946  0.7351
  258MOL0     O33982   7.711   1.026  10.283  0.2145 -0.1888 -0.3456
  258MOL0     C33983   7.669   1.041  10.423  0.1581 -0.0153  0.8334
  258MOL0     C33984   7.522   0.985  10.434 -0.4533 -0.5753  0.5685
  258MOL0     C33985   7.430   1.083  10.355 -0.4448  0.3400 -0.2160
  258MOL0     C33986   7.411   1.210  10.432  0.9837  0.0556  0.1294
  258MOL0     C33987   7.307   1.276  10.361  0.9311  0.8458 -0.0658
  258MOL0     C33988   7.223   1.316  10.284 -0.5239 -0.8970 -0.6334
  258MOL0     C33989   7.898   0.879  10.313 -0.2050 -0.3455  0.2593
  258MOL0     C33990   8.034   0.854  10.298 -1.2184  1.3465 -0.3105
  258MOL0     H33991   8.512   0.870  10.341  1.9576 -2.8649 -3.2846
  258MOL0     H33992   8.752   0.924  10.329 -0.5162 -0.9371 -1.6527
  258MOL0     H33993   8.927   1.227  10.045 -0.0096 -0.6800  0.4709
  258MOL0     H33994   8.906   1.073   9.955 -0.3724  0.1506 -0.6512
  258MOL0     H33995   9.094   0.974  10.052  0.6791  0.6749 -1.5285
  258MOL0     H33996   9.129   1.138  10.141  0.1800  1.4802 -0.7741
  258MOL0     H33997   9.161   1.246   9.925  1.0608 -0.0785  0.8417
  258MOL0     H33998   9.124   1.109   9.836  0.8075  1.6548 -2.4733
  258MOL0     H33999   9.350   1.084  10.039  0.7256 -0.0959  0.9595
  258MOL0     H34000   9.306   0.972   9.904  1.2813  0.8487 -0.9522
  258MOL0     H34001   9.382   1.266   9.872 -2.3511 -0.2553  0.0786
  258MOL0     H34002   9.386   1.149   9.741  0.5611 -0.0343 -0.6017
  258MOL0     H34003   9.568   1.029   9.842  0.2407 -0.7770  1.3936
  258MOL0     H34004   9.558   1.129   9.987 -0.8377  3.0752 -0.5447
  258MOL0     H34005   9.654   1.326   9.875  1.9790 -0.5573  4.4814
  258MOL0     H34006   9.752   1.189   9.852 -1.0900 -2.1538  3.2118
  258MOL0     H34007   9.530   1.291   9.659 -1.1674 -0.5637  2.1658
  258MOL0     H34008   9.645   1.164   9.614 -0.8547  1.0187  0.5265
  258MOL0     H34009   9.649   1.547   9.728 -1.7856 -3.2154  0.8604
  258MOL0     H34010   9.755   1.723   9.666  0.4665  1.8389 -1.3090
  258MOL0     H34011   9.741   1.767   9.499 -0.7805 -1.8669 -0.9453
  258MOL0     H34012   9.993   1.686   9.475  2.7890  0.3633  1.1832
  258MOL0     H34013  10.000   1.741   9.650 -0.6938 -0.4152 -0.1617
  258MOL0     H34014   9.923   1.931   9.417  1.3552  1.2013 -0.0221
  258MOL0     H34015   9.942   1.959   9.593 -1.2911  1.1436 -1.7890
  258MOL0     H34016  10.136   2.022   9.464  1.4888  1.1538  3.2496
  258MOL0     H34017  10.154   1.858   9.392  1.9535  2.3949 -1.2720
  258MOL0     H34018  10.360   1.866   9.381 -1.5951 -0.3288  1.6258
  258MOL0     H34019  10.596   1.860   9.384 -1.6040  0.7619 -0.3670
  258MOL0     H34020  10.934   1.643   9.481 -2.0168  0.5787  0.3892
  258MOL0     H34021  11.190   1.604   9.491  1.0054  1.0933 -2.4153
  258MOL0     H34022  11.455   1.955   9.410  2.5557 -1.2392  0.2498
  258MOL0     H34023  11.367   1.879   9.268 -0.1710  1.7098  0.6356
  258MOL0     H34024  11.605   1.849   9.238 -0.2224 -2.1054 -2.7070
  258MOL0     H34025  11.520   1.700   9.266  1.8699  0.6805 -2.5199
  258MOL0     H34026  11.624   1.667   9.456 -3.4185  0.5655 -1.9321
  258MOL0     H34027  11.624   1.829   9.520  2.8995  0.9008  1.5798
  258MOL0     H34028  11.811   1.871   9.327  2.9882 -0.7642 -0.9422
  258MOL0     H34029  11.846   1.787   9.484 -0.2625 -0.9890 -0.2895
  258MOL0     H34030  11.777   1.646   9.219  2.5680  0.7016 -2.1964
  258MOL0     H34031  11.821   1.560   9.363  1.2241  0.8842  0.0932
  258MOL0     H34032  11.993   1.726   9.194 -1.0580  1.2057  1.4511
  258MOL0     H34033  11.996   1.550   9.225 -2.1252 -1.1656  0.5046
  258MOL0     H34034  12.077   1.775   9.418  0.1727  0.4096 -2.6634
  258MOL0     H34035  12.020   1.629   9.479  0.7357  0.7306 -0.5028
  258MOL0     H34036  12.254   1.677   9.285 -1.0150  0.2653 -1.2152
  258MOL0     H34037  12.195   1.515   9.316  3.6456  0.6881 -3.2559
  258MOL0     H34038  11.268   2.018   9.484  0.5950 -0.6539  0.2257
  258MOL0     H34039  11.018   2.071   9.482  0.1233  0.8097  1.2354
  258MOL0     H34040  10.607   1.882   9.806  0.3157  1.7319 -0.0495
  258MOL0     H34041  10.363   1.889   9.820 -0.9685  3.0612 -0.3045
  258MOL0     H34042   8.692   1.214  10.028 -0.6191  0.6303  0.0036
  258MOL0     H34043   8.457   1.200  10.061  0.5778  1.0913  0.3806
  258MOL0     H34044   8.119   1.118  10.102  0.9408 -0.4110 -1.7514
  258MOL0     H34045   7.869   1.156  10.130 -1.2965 -1.2633 -1.9779
  258MOL0     H34046   7.684   1.147  10.446  1.2815  0.6308 -2.3285
  258MOL0     H34047   7.738   0.976  10.477 -0.8889 -1.1908  0.7817
  258MOL0     H34048   7.522   0.885  10.390  0.0369  0.2044 -1.2587
  258MOL0     H34049   7.485   0.963  10.535  1.5896 -1.6569  1.1272
  258MOL0     H34050   7.336   1.031  10.335  0.1176 -0.3556 -1.1533
  258MOL0     H34051   7.472   1.118  10.260  0.0209  2.3405  0.6840
  258MOL0     H34052   7.392   1.184  10.537  3.2002 -1.7849  0.1511
  258MOL0     H34053   7.500   1.273  10.434 -0.4767  2.2159  1.9375
  258MOL0     H34054   7.152   1.346  10.210 -2.2030  0.1207  1.3014
  258MOL0     H34055   7.831   0.803  10.352  2.6058 -2.1222  2.0645
  258MOL0     H34056   8.067   0.767  10.354 -0.3399  1.0434 -1.2654
  259MOL0     O34057  10.004   6.409   9.738 -0.5780  0.3486  0.0260
  259MOL0     C34058   9.984   6.351   9.846 -0.1680  0.6296 -0.4848
  259MOL0     O34059   9.880   6.371   9.930 -0.5238 -0.0357 -0.8657
  259MOL0     C34060   9.760   6.395   9.886  1.2128 -0.3150 -0.0780
  259MOL0     C34061   9.671   6.435   9.985  0.4017 -1.2195  0.4097
  259MOL0     C34062   9.537   6.470   9.951  0.1914 -0.3530  0.4800
  259MOL0     C34063   9.492   6.465   9.814  0.5831 -0.0742 -0.2057
  259MOL0     O34064   9.365   6.491   9.787  0.2266  0.2919  0.1175
  259MOL0     C34065   9.303   6.393   9.702 -0.8164 -0.2730 -0.7347
  259MOL0     C34066   9.165   6.369   9.758  0.0812  0.8080  0.0536
  259MOL0     C34067   9.061   6.314   9.660  0.4664  0.6456  0.4730
  259MOL0     C34068   8.922   6.326   9.715 -0.6021 -0.1201  0.3028
  259MOL0     C34069   8.812   6.315   9.611 -0.1145 -0.5611 -0.3276
  259MOL0     C34070   8.672   6.338   9.687 -0.0556  0.5949 -0.5534
  259MOL0     C34071   8.566   6.317   9.580 -0.7169 -0.2722 -0.4607
  259MOL0     C34072   8.563   6.164   9.531  0.1275 -0.4660 -1.3665
  259MOL0     N34073   8.444   6.142   9.448  0.0088  0.3913 -0.6943
  259MOL0     C34074   8.311   6.166   9.481  0.2742 -0.4972  0.8763
  259MOL0     C34075   8.238   6.100   9.390  0.5982 -0.7966  0.2914
  259MOL0     C34076   8.083   6.111   9.394  0.1547 -0.0647 -0.2605
  259MOL0     C34077   8.025   5.989   9.460  0.8569 -0.0114  0.2195
  259MOL0     C34078   8.068   5.842   9.425 -0.5254  0.3780  0.8351
  259MOL0     C34079   7.995   5.777   9.315 -0.9275 -0.5427  0.1718
  259MOL0     O34080   7.857   5.763   9.357 -0.1403 -0.0824  0.1481
  259MOL0     C34081   7.767   5.681   9.292  0.8486  0.2280 -0.6097
  259MOL0     C34082   7.638   5.719   9.324  0.3488  0.5433  0.4652
  259MOL0     C34083   7.529   5.648   9.267  0.8134 -0.2700 -0.5518
  259MOL0     C34084   7.543   5.539   9.180  0.8641  0.2511  0.4617
  259MOL0     C34085   7.426   5.464   9.140 -0.3933 -0.4268  0.2700
  259MOL0     O34086   7.310   5.513   9.189  0.3168  0.7274 -0.2975
  259MOL0     C34087   7.191   5.462   9.143 -0.2007 -1.7302  1.2082
  259MOL0     C34088   7.114   5.537   9.050  0.5326 -0.1716 -0.1368
  259MOL0     C34089   6.987   5.491   9.024  0.0840  0.1062  1.0272
  259MOL0     C34090   6.932   5.373   9.074 -0.0307  0.1627 -0.6411
  259MOL0     O34091   6.812   5.317   9.048 -0.1878 -0.1515 -0.2815
  259MOL0     C34092   6.714   5.393   8.980 -0.1333 -0.3891  0.8004
  259MOL0     C34093   6.617   5.303   8.908 -0.2092  0.3795  0.3525
  259MOL0     C34094   6.495   5.372   8.841 -0.3351  0.7553  0.8703
  259MOL0     C34095   6.405   5.292   8.744 -0.0233  1.4914 -0.1167
  259MOL0     C34096   6.319   5.191   8.811 -0.1625  0.3921 -0.6440
  259MOL0     C34097   6.207   5.131   8.732 -0.3437  0.6804 -0.8068
  259MOL0     C34098   6.097   5.068   8.811  0.9753 -0.4018  0.6839
  259MOL0     C34099   5.985   5.022   8.711 -0.6372  0.3674  0.5173
  259MOL0    Cl34100   5.869   5.149   8.653  0.4453  0.0368  0.2633
  259MOL0     C34101   7.009   5.304   9.169 -0.7498 -0.7630 -0.0166
  259MOL0     C34102   7.138   5.346   9.197  0.6115  0.5779 -0.2269
  259MOL0     O34103   7.438   5.377   9.051  0.1262 -0.5735 -0.2897
  259MOL0     C34104   7.674   5.509   9.138  0.6511 -0.1720  0.2751
  259MOL0     C34105   7.779   5.578   9.202  0.6328  0.7079  0.5638
  259MOL0     N34106   8.323   6.052   9.290 -0.3693 -0.3930 -0.7172
  259MOL0     N34107   8.445   6.070   9.327  0.4461  0.3279 -0.3218
  259MOL0     C34108   9.586   6.427   9.717  0.3547 -0.6000 -0.1326
  259MOL0     C34109   9.716   6.398   9.745  0.6579  0.4948 -0.2712
  259MOL0     C34110  10.104   6.258   9.883 -0.0478  0.5584  0.1897
  259MOL0     C34111  10.238   6.269   9.829  0.5470  0.2008 -0.0945
  259MOL0     C34112  10.337   6.175   9.855 -0.0437  0.7533 -0.2852
  259MOL0     C34113  10.302   6.068   9.942 -0.1691 -0.2770  0.8280
  259MOL0     O34114  10.381   5.967   9.979 -0.4124  0.9299  0.3111
  259MOL0     C34115  10.514   5.987   9.933  0.7337 -0.2653 -0.0510
  259MOL0     C34116  10.592   5.862   9.972 -0.3854 -0.2431 -0.6802
  259MOL0     C34117  10.748   5.877   9.942 -0.2552 -0.7005 -0.4024
  259MOL0     C34118  10.821   5.751   9.971  0.1589 -0.2919  0.4250
  259MOL0     C34119  10.969   5.770   9.947  0.0700  0.6595 -0.2536
  259MOL0     C34120  11.089   5.764   9.932 -0.9276 -0.3900  0.6318
  259MOL0     C34121  10.171   6.058   9.997 -0.3745 -0.7694  0.0908
  259MOL0     C34122  10.078   6.155   9.974 -1.2778 -0.0707 -0.1048
  259MOL0     H34123   9.714   6.446  10.084  3.7857 -0.4241 -1.0112
  259MOL0     H34124   9.462   6.490  10.027 -1.4910 -3.3557 -0.2176
  259MOL0     H34125   9.367   6.305   9.689 -1.0175 -0.4903 -0.2574
  259MOL0     H34126   9.287   6.439   9.604 -0.1335  3.0052  0.5407
  259MOL0     H34127   9.119   6.453   9.812  0.4094  0.6794  0.5347
  259MOL0     H34128   9.171   6.283   9.825 -2.1860 -0.4452 -1.2107
  259MOL0     H34129   9.071   6.210   9.627 -0.8532  0.3327  1.0275
  259MOL0     H34130   9.056   6.373   9.568  0.8062  2.0032  1.3083
  259MOL0     H34131   8.901   6.238   9.776  1.4770 -0.1429  1.0657
  259MOL0     H34132   8.908   6.418   9.772 -0.0657 -1.7865  3.3397
  259MOL0     H34133   8.833   6.217   9.566  4.2004 -0.1111  0.3160
  259MOL0     H34134   8.821   6.390   9.532 -0.7107 -1.5562 -1.3857
  259MOL0     H34135   8.678   6.441   9.722  1.2304  0.6385 -0.8396
  259MOL0     H34136   8.649   6.276   9.774 -3.2307  3.0781  0.5639
  259MOL0     H34137   8.475   6.341   9.635 -0.5708 -1.0899  0.1658
  259MOL0     H34138   8.564   6.389   9.498  1.1795 -1.1844 -1.3683
  259MOL0     H34139   8.569   6.102   9.621  5.3737  1.5191  0.0652
  259MOL0     H34140   8.651   6.133   9.473  3.2802  1.1112  2.0891
  259MOL0     H34141   8.277   6.218   9.570  1.7336  2.9968 -0.4652
  259MOL0     H34142   8.057   6.114   9.288  0.4801  2.8471 -0.3184
  259MOL0     H34143   8.052   6.193   9.459 -1.1991 -2.2463  2.0182
  259MOL0     H34144   7.918   5.987   9.440  1.1529 -0.1046 -1.5093
  259MOL0     H34145   8.041   6.002   9.568  0.5237  1.9381  0.0773
  259MOL0     H34146   8.171   5.838   9.389 -0.8120  0.6021 -0.0241
  259MOL0     H34147   8.056   5.786   9.518 -1.0451  0.3722  0.7642
  259MOL0     H34148   8.028   5.674   9.299  2.7271  0.7099 -1.6006
  259MOL0     H34149   8.013   5.835   9.224  1.9371 -0.7086  0.5585
  259MOL0     H34150   7.622   5.798   9.397 -1.1615 -1.3054  2.2476
  259MOL0     H34151   7.429   5.670   9.302  0.4785  0.4990 -1.9183
  259MOL0     H34152   7.157   5.627   9.007  0.2446  1.3241  2.5044
  259MOL0     H34153   6.926   5.552   8.957  1.9027 -2.2053 -3.1646
  259MOL0     H34154   6.744   5.460   8.899 -1.5208 -1.4238 -0.6569
  259MOL0     H34155   6.661   5.457   9.052  0.5564  0.4328  0.5903
  259MOL0     H34156   6.570   5.236   8.981  2.2586  0.8492  2.5038
  259MOL0     H34157   6.681   5.250   8.838  0.3205  0.7505  0.5504
  259MOL0     H34158   6.540   5.445   8.773  1.8186  0.1913  1.6272
  259MOL0     H34159   6.433   5.427   8.913 -0.5046 -0.9909  2.1191
  259MOL0     H34160   6.333   5.365   8.705 -2.9684  0.5116  2.9855
  259MOL0     H34161   6.467   5.246   8.667 -0.8985  2.9852 -1.7997
  259MOL0     H34162   6.282   5.227   8.907  1.1157  2.6695 -0.9408
  259MOL0     H34163   6.381   5.104   8.836  0.8449  1.2454 -0.0684
  259MOL0     H34164   6.257   5.059   8.665 -2.3111 -2.0712  0.4906
  259MOL0     H34165   6.166   5.212   8.672 -1.9189  1.7030  1.5285
  259MOL0     H34166   6.143   4.983   8.862  0.5649 -0.5695  0.7725
  259MOL0     H34167   6.061   5.145   8.879  2.6907  1.8813 -0.8171
  259MOL0     H34168   5.933   4.934   8.749 -1.4963  0.5868 -0.1155
  259MOL0     H34169   6.030   4.983   8.620  0.1531 -1.3058  1.5905
  259MOL0     H34170   6.966   5.221   9.225 -1.1829 -0.0743  0.6928
  259MOL0     H34171   7.192   5.306   9.282 -1.6366  0.3831  1.1749
  259MOL0     H34172   7.682   5.426   9.068 -3.4793 -0.0609 -0.6351
  259MOL0     H34173   7.876   5.549   9.161 -0.3142  0.4624 -1.6313
  259MOL0     H34174   9.554   6.444   9.615 -0.9167 -1.0218  0.1816
  259MOL0     H34175   9.782   6.390   9.659  0.4306  0.1924 -0.4142
  259MOL0     H34176  10.262   6.341   9.752 -0.3257 -0.1936 -0.7385
  259MOL0     H34177  10.435   6.184   9.809 -1.0476  2.0175 -2.3363
  259MOL0     H34178  10.554   6.072   9.989  0.4817  0.5737 -1.1149
  259MOL0     H34179  10.529   5.999   9.826  3.2331 -4.6871 -0.4695
  259MOL0     H34180  10.580   5.845  10.080 -1.6735 -0.4258 -0.8381
  259MOL0     H34181  10.550   5.775   9.920 -0.7228  0.1491 -1.0612
  259MOL0     H34182  10.783   5.959  10.005  0.9124 -0.7680 -0.9368
  259MOL0     H34183  10.752   5.914   9.839 -1.4234  0.2650 -0.1133
  259MOL0     H34184  10.802   5.720  10.075 -3.7476  0.8400  0.2067
  259MOL0     H34185  10.799   5.668   9.904  0.5831  0.7543 -1.0619
  259MOL0     H34186  11.189   5.739   9.904 -0.5585 -1.3804  2.5965
  259MOL0     H34187  10.141   5.973  10.057  0.8491 -2.1978 -1.2369
  259MOL0     H34188   9.975   6.128   9.995 -2.0462  1.7278 -1.3282
  260MOL0     O34189   9.463   3.811   2.256 -0.4945  0.3624 -0.1052
  260MOL0     C34190   9.449   3.938   2.271 -1.0319  0.6742  0.1772
  260MOL0     O34191   9.328   4.007   2.286 -0.2906 -0.3406 -0.2484
  260MOL0     C34192   9.200   3.956   2.288  0.0664  0.6406  0.7851
  260MOL0     C34193   9.158   3.822   2.281 -0.5359  0.1062 -0.5027
  260MOL0     C34194   9.025   3.791   2.305  0.4599 -0.0593 -0.2530
  260MOL0     C34195   8.923   3.892   2.321 -0.3120  0.1708 -0.3337
  260MOL0     O34196   8.785   3.878   2.330  0.1217 -0.4802  1.0045
  260MOL0     C34197   8.730   3.741   2.337 -0.4279 -0.3113 -0.0523
  260MOL0     C34198   8.575   3.752   2.333  0.3616  0.0892 -0.2492
  260MOL0     C34199   8.515   3.822   2.456  1.0444  0.3244 -0.2756
  260MOL0     C34200   8.569   3.768   2.588 -0.1223  0.0470  0.0630
  260MOL0     C34201   8.465   3.786   2.701  0.5594 -0.8891 -0.3899
  260MOL0     C34202   8.532   3.759   2.829 -0.2562 -0.6940  0.1071
  260MOL0     C34203   8.436   3.770   2.948  0.4675 -0.5715 -0.4138
  260MOL0     C34204   8.374   3.635   2.977 -0.7502  0.7538  0.3479
  260MOL0     N34205   8.233   3.645   3.017  0.3625 -1.3795 -0.1838
  260MOL0     C34206   8.175   3.631   3.144 -0.4492  0.3823 -0.5389
  260MOL0     C34207   8.044   3.616   3.131  0.0901 -0.1215 -0.0882
  260MOL0     C34208   7.946   3.592   3.246  0.0810  0.1533 -1.1339
  260MOL0     C34209   7.928   3.726   3.324  0.2938  0.3411 -0.3899
  260MOL0     C34210   7.861   3.846   3.253  0.6057  0.4335 -0.2186
  260MOL0     C34211   7.707   3.843   3.237 -0.2619 -0.1882 -0.6183
  260MOL0     O34212   7.662   3.812   3.371 -0.4950  0.8254  0.1598
  260MOL0     C34213   7.528   3.773   3.377  0.2604 -0.4107 -0.4352
  260MOL0     C34214   7.491   3.668   3.452  0.0313  1.5736 -0.8328
  260MOL0     C34215   7.361   3.612   3.436  0.7850 -0.8626 -0.3794
  260MOL0     C34216   7.262   3.679   3.355  0.5342  0.2677  0.2792
  260MOL0     C34217   7.142   3.610   3.331  0.3952 -0.0639  0.2534
  260MOL0     O34218   7.051   3.692   3.271 -0.2215 -0.3856 -0.3655
  260MOL0     C34219   6.924   3.642   3.241 -0.1352  0.0490  0.6679
  260MOL0     C34220   6.874   3.675   3.113  0.5535 -0.1351  0.7075
  260MOL0     C34221   6.741   3.648   3.081  0.2300 -0.6268 -0.9265
  260MOL0     C34222   6.658   3.580   3.172  0.0682 -0.3407  0.1067
  260MOL0     O34223   6.527   3.552   3.149  0.3954 -0.2264  0.2198
  260MOL0     C34224   6.491   3.546   3.009  0.8849  1.1421  0.2394
  260MOL0     C34225   6.343   3.506   3.014 -0.3387  0.6210  0.7652
  260MOL0     C34226   6.307   3.382   3.106  0.3808 -0.5404 -0.2580
  260MOL0     C34227   6.155   3.355   3.099 -0.1378 -0.3706  0.1829
  260MOL0     C34228   6.121   3.255   3.210  0.0911  1.0490 -0.1026
  260MOL0     C34229   5.971   3.241   3.216  0.5858 -0.7492  0.1010
  260MOL0     C34230   5.922   3.104   3.266 -0.6144 -0.1237  0.7364
  260MOL0     C34231   5.920   3.090   3.417  0.6867  0.2866  0.5996
  260MOL0    Cl34232   5.815   3.223   3.484 -0.2553 -0.2518 -0.2295
  260MOL0     C34233   6.712   3.543   3.295  0.6363 -0.4900  0.2842
  260MOL0     C34234   6.845   3.578   3.325  0.2144  0.4196 -1.0249
  260MOL0     O34235   7.121   3.492   3.363 -0.0377 -0.2386  0.7180
  260MOL0     C34236   7.294   3.798   3.303 -0.0484 -0.4695  0.3730
  260MOL0     C34237   7.427   3.833   3.296  0.5838 -0.5626 -0.7665
  260MOL0     N34238   8.014   3.621   2.997 -0.0748  0.4831 -0.5996
  260MOL0     N34239   8.126   3.636   2.932  0.4786  1.2250  0.3320
  260MOL0     C34240   8.968   4.023   2.310  0.5454  0.7376 -0.7392
  260MOL0     C34241   9.100   4.055   2.297  0.1519  0.5234  0.5012
  260MOL0     C34242   9.573   4.026   2.269 -0.1433  0.5275 -0.1752
  260MOL0     C34243   9.575   4.161   2.311 -0.0595  0.4343 -0.1092
  260MOL0     C34244   9.699   4.226   2.312 -0.0814  0.0701 -0.2454
  260MOL0     C34245   9.811   4.172   2.265 -0.1813  0.0175 -0.7307
  260MOL0     O34246   9.919   4.259   2.267 -0.0415  0.7151 -0.3718
  260MOL0     C34247  10.049   4.208   2.234  0.0245 -0.9104  0.5757
  260MOL0     C34248  10.072   4.186   2.084  0.6126  0.4234 -0.2277
  260MOL0     C34249  10.051   4.320   2.007  0.3868  0.4240 -0.0107
  260MOL0     C34250  10.054   4.297   1.853 -1.3801  0.0980  0.1747
  260MOL0     C34251  10.191   4.265   1.805  0.0233 -0.3949  0.8217
  260MOL0     C34252  10.299   4.240   1.770 -0.4355  0.3098 -0.1031
  260MOL0     C34253   9.809   4.038   2.226 -0.0299  0.6414 -0.0375
  260MOL0     C34254   9.688   3.959   2.224  0.9238 -0.3786 -0.1390
  260MOL0     H34255   9.224   3.736   2.276  0.7075  1.1023 -2.2625
  260MOL0     H34256   8.994   3.687   2.316  2.2008 -0.4604  1.3414
  260MOL0     H34257   8.759   3.697   2.433  2.4062  3.2889  1.0085
  260MOL0     H34258   8.769   3.676   2.258  1.4565 -0.0031  0.5583
  260MOL0     H34259   8.538   3.650   2.329  0.6285 -0.0836  1.0295
  260MOL0     H34260   8.549   3.804   2.241  2.0805  0.9275 -0.2970
  260MOL0     H34261   8.407   3.809   2.459  1.0879 -0.1692 -0.7331
  260MOL0     H34262   8.548   3.926   2.462  2.1904 -0.0037 -0.5599
  260MOL0     H34263   8.589   3.662   2.573  2.2621  0.4330  0.1617
  260MOL0     H34264   8.666   3.808   2.617  0.3173 -1.1787  0.3371
  260MOL0     H34265   8.393   3.705   2.690  1.1325 -1.2575 -1.6775
  260MOL0     H34266   8.427   3.889   2.701  0.5180 -0.9001 -1.1260
  260MOL0     H34267   8.611   3.833   2.843 -1.3833  0.5638 -0.0307
  260MOL0     H34268   8.581   3.661   2.828 -1.2027 -1.2986  3.2135
  260MOL0     H34269   8.490   3.802   3.038  0.8513  1.2105 -1.2273
  260MOL0     H34270   8.369   3.850   2.918  1.2171  0.8725  1.5363
  260MOL0     H34271   8.438   3.594   3.056 -0.7076 -2.1711 -1.0863
  260MOL0     H34272   8.380   3.562   2.896 -0.3590  0.3892  0.6983
  260MOL0     H34273   8.226   3.618   3.238 -0.9224 -5.1528 -0.6922
  260MOL0     H34274   7.981   3.510   3.310 -2.4712 -3.7129 -4.1497
  260MOL0     H34275   7.844   3.565   3.218 -0.2704 -0.4624  0.6391
  260MOL0     H34276   8.025   3.760   3.362 -0.5784 -0.0631  2.4098
  260MOL0     H34277   7.879   3.707   3.419  2.8281  2.5133  1.5128
  260MOL0     H34278   7.883   3.934   3.313 -3.0649  1.2877  0.1511
  260MOL0     H34279   7.907   3.858   3.155  0.9029 -0.1431 -0.1555
  260MOL0     H34280   7.671   3.760   3.175 -1.6555 -0.9282  1.0963
  260MOL0     H34281   7.677   3.937   3.190  1.0368 -0.3507 -1.8755
  260MOL0     H34282   7.559   3.630   3.527 -0.7569  3.7256  1.0792
  260MOL0     H34283   7.330   3.529   3.498 -0.1504 -0.0378  0.3038
  260MOL0     H34284   6.945   3.716   3.042  0.3925  0.3581  0.8265
  260MOL0     H34285   6.709   3.673   2.981 -1.8331  0.2092 -0.0995
  260MOL0     H34286   6.552   3.472   2.956 -0.6525 -0.5766  0.7772
  260MOL0     H34287   6.507   3.642   2.959  0.1496  1.9071  1.4217
  260MOL0     H34288   6.293   3.487   2.919  0.4196 -1.4435  0.7270
  260MOL0     H34289   6.280   3.592   3.040 -0.5074 -0.0969  2.9638
  260MOL0     H34290   6.341   3.407   3.207 -0.2289 -2.0416  0.3504
  260MOL0     H34291   6.360   3.293   3.069 -0.1434  0.2096 -3.0247
  260MOL0     H34292   6.097   3.448   3.098  3.4036  2.0796  1.8579
  260MOL0     H34293   6.125   3.313   3.003 -5.9745 -0.5011  1.7060
  260MOL0     H34294   6.161   3.280   3.308  0.4770  1.2561 -0.3119
  260MOL0     H34295   6.169   3.161   3.181 -1.3297 -0.1378  1.2035
  260MOL0     H34296   5.936   3.249   3.112 -0.3689  2.1064  0.5335
  260MOL0     H34297   5.931   3.323   3.276 -1.0336  0.9789 -3.0445
  260MOL0     H34298   5.826   3.072   3.225  0.6982 -2.2475 -0.9025
  260MOL0     H34299   5.981   3.025   3.219  1.0020  1.2288  0.3884
  260MOL0     H34300   6.023   3.085   3.455 -0.3110 -3.5229  3.5232
  260MOL0     H34301   5.878   2.992   3.443  0.7894 -0.5931 -2.2112
  260MOL0     H34302   6.649   3.482   3.360  0.8368 -3.3304 -1.9732
  260MOL0     H34303   6.879   3.561   3.426  1.4555  0.0854 -1.4841
  260MOL0     H34304   7.227   3.870   3.256 -0.5435 -1.3074 -0.2393
  260MOL0     H34305   7.447   3.931   3.253 -1.7148  1.3936  2.2426
  260MOL0     H34306   8.903   4.109   2.300 -0.2415  0.0676 -1.5932
  260MOL0     H34307   9.130   4.158   2.283 -2.4524  1.1794 -1.0360
  260MOL0     H34308   9.483   4.197   2.355  1.6885  0.0508  4.4131
  260MOL0     H34309   9.689   4.333   2.332  0.4795  0.8482 -3.5640
  260MOL0     H34310  10.066   4.117   2.292 -1.0933 -1.0095  0.7866
  260MOL0     H34311  10.123   4.280   2.268 -0.0849  0.0444 -1.0655
  260MOL0     H34312  10.170   4.147   2.054  0.9912  1.4171 -0.3392
  260MOL0     H34313  10.002   4.109   2.051 -1.1626  2.0515 -0.4606
  260MOL0     H34314  10.122   4.399   2.033  2.7739 -0.3945 -3.3740
  260MOL0     H34315   9.957   4.368   2.034  0.4376  1.1280 -1.0596
  260MOL0     H34316   9.985   4.217   1.826 -0.2444 -0.9896  0.3882
  260MOL0     H34317  10.031   4.388   1.797  0.5250  0.1179 -0.6524
  260MOL0     H34318  10.395   4.208   1.734 -0.5532  0.6224 -0.7191
  260MOL0     H34319   9.892   3.986   2.179 -1.4459 -1.0901 -0.7091
  260MOL0     H34320   9.698   3.859   2.182 -1.9797 -1.1634  0.8132
  261MOL0     O34321   0.280   5.801   2.855 -0.0003  0.2547  0.0014
  261MOL0     C34322   0.286   5.789   2.970  0.2208  0.4532 -0.3643
  261MOL0     O34323   0.393   5.829   3.047 -0.1393  0.6668  0.1543
  261MOL0     C34324   0.513   5.880   3.000 -0.5912 -0.4001  0.0059
  261MOL0     C34325   0.556   5.883   2.869  0.2676 -0.5422  0.9482
  261MOL0     C34326   0.684   5.922   2.830 -0.0688 -0.1569  0.4226
  261MOL0     C34327   0.779   5.970   2.926 -0.7997 -0.6675 -1.2593
  261MOL0     O34328   0.912   6.009   2.904  0.5434  0.8800  0.0372
  261MOL0     C34329   0.965   6.008   2.773 -0.6497 -0.1542  0.5500
  261MOL0     C34330   1.108   5.972   2.818  0.0484  0.2802 -0.5576
  261MOL0     C34331   1.213   6.006   2.712 -0.4008 -0.2530 -0.2919
  261MOL0     C34332   1.342   5.914   2.730  0.7459  0.8047  0.1984
  261MOL0     C34333   1.458   5.978   2.653 -0.2879  0.2189 -0.1845
  261MOL0     C34334   1.590   5.899   2.669  1.3818  0.6709  0.4454
  261MOL0     C34335   1.640   5.887   2.805 -0.6542 -0.9194  0.6493
  261MOL0     C34336   1.794   5.848   2.809  0.5970  0.1447  0.2272
  261MOL0     N34337   1.895   5.942   2.748 -0.0061 -0.0088 -0.3977
  261MOL0     C34338   2.028   5.928   2.749  0.3411 -0.0740 -0.0333
  261MOL0     C34339   2.086   6.031   2.694  0.1661 -0.4746 -1.0436
  261MOL0     C34340   2.219   6.045   2.638 -0.4106  0.7197  1.6413
  261MOL0     C34341   2.317   6.137   2.710  0.5993 -0.2944 -0.3664
  261MOL0     C34342   2.370   6.083   2.848 -0.1860 -0.2162 -0.3500
  261MOL0     C34343   2.426   6.187   2.949  0.6332 -0.5260 -0.3982
  261MOL0     O34344   2.524   6.260   2.881  0.3979 -0.9195  0.3595
  261MOL0     C34345   2.662   6.254   2.915  0.3856 -1.1838  0.6246
  261MOL0     C34346   2.717   6.179   3.016 -0.0496 -0.0860 -0.6282
  261MOL0     C34347   2.848   6.194   3.055 -0.2715 -0.0987 -0.0722
  261MOL0     C34348   2.931   6.287   2.988 -0.5971  0.0884 -0.6695
  261MOL0     C34349   3.079   6.303   3.029 -0.0480 -0.3058  0.2206
  261MOL0     O34350   3.138   6.420   2.974 -0.3654  0.5278 -0.7851
  261MOL0     C34351   3.261   6.452   3.024  0.4432 -0.1792  0.1523
  261MOL0     C34352   3.264   6.577   3.092  0.1729  0.5834  0.4695
  261MOL0     C34353   3.388   6.633   3.127 -0.1567  0.6735 -1.1162
  261MOL0     C34354   3.506   6.569   3.092  0.6935  0.9308 -0.9226
  261MOL0     O34355   3.628   6.620   3.124 -1.1338  0.0187  0.2847
  261MOL0     C34356   3.654   6.756   3.090 -1.3622 -0.7946  0.5732
  261MOL0     C34357   3.794   6.811   3.144  0.5464  0.2492 -1.0449
  261MOL0     C34358   3.823   6.950   3.110  0.5586  0.2729  0.6980
  261MOL0     C34359   3.951   7.006   3.160  0.8168  1.0714 -0.3050
  261MOL0     C34360   3.980   7.141   3.096  0.3980  0.6546 -0.2308
  261MOL0     C34361   4.118   7.164   3.144 -0.0088 -0.9829  0.4709
  261MOL0     C34362   4.180   7.289   3.062 -0.2255  1.3906 -0.1452
  261MOL0     C34363   4.311   7.326   3.128 -0.8167 -1.1907  0.2053
  261MOL0    Cl34364   4.358   7.482   3.047  0.1927 -0.1719 -0.0303
  261MOL0     C34365   3.500   6.442   3.033  0.4060 -0.0481 -0.8400
  261MOL0     C34366   3.379   6.378   2.999 -0.7457  0.0150 -0.6561
  261MOL0     O34367   3.145   6.217   3.086  0.4234  0.0555  0.4420
  261MOL0     C34368   2.875   6.359   2.880 -0.3628  0.1401 -0.5011
  261MOL0     C34369   2.736   6.353   2.847 -0.0125 -0.3774  0.3494
  261MOL0     N34370   1.983   6.126   2.686  0.7332  0.1221  0.8329
  261MOL0     N34371   1.872   6.071   2.723  0.4216  0.9230  0.3473
  261MOL0     C34372   0.734   5.987   3.059  0.3153 -0.4051  0.0295
  261MOL0     C34373   0.599   5.945   3.095 -0.4080 -0.0485 -0.7268
  261MOL0     C34374   0.180   5.705   3.024  0.4614 -0.1990  0.0545
  261MOL0     C34375   0.056   5.681   2.959 -0.9768 -0.3318 -0.2265
  261MOL0     C34376  -0.045   5.610   3.020  0.0117 -0.1104 -0.6751
  261MOL0     C34377  -0.020   5.558   3.146 -1.2748 -0.2483  0.3781
  261MOL0     O34378  -0.112   5.485   3.213  0.2019 -0.5291 -0.1560
  261MOL0     C34379  -0.201   5.571   3.277  0.9167 -0.1632  0.4648
  261MOL0     C34380  -0.341   5.561   3.234  0.0581  0.3061 -0.2865
  261MOL0     C34381  -0.403   5.421   3.221 -0.2897  0.3816 -0.0458
  261MOL0     C34382  -0.412   5.350   3.354 -1.0559 -0.1234  0.7422
  261MOL0     C34383  -0.496   5.434   3.448  0.7669  0.1625  0.4583
  261MOL0     C34384  -0.549   5.494   3.543  0.1802  0.3655  0.1329
  261MOL0     C34385   0.100   5.584   3.209  0.1578  0.5389 -0.5047
  261MOL0     C34386   0.198   5.657   3.150  0.3752 -0.0457 -0.0135
  261MOL0     H34387   0.496   5.852   2.784  1.3196  1.8457 -0.7885
  261MOL0     H34388   0.700   5.922   2.723 -1.0661  2.7008  0.2031
  261MOL0     H34389   0.962   6.106   2.726 -1.7705 -0.3022  0.3003
  261MOL0     H34390   0.927   5.932   2.703  0.6132  1.5240 -2.1070
  261MOL0     H34391   1.108   5.864   2.833 -0.6479  0.4316  0.7260
  261MOL0     H34392   1.133   6.015   2.916 -1.5668 -3.2726  1.5962
  261MOL0     H34393   1.234   6.113   2.724  1.4700 -0.8315  3.0403
  261MOL0     H34394   1.174   5.976   2.615  1.1572 -2.9747 -0.2052
  261MOL0     H34395   1.369   5.910   2.836 -0.9754  0.7098  0.6616
  261MOL0     H34396   1.329   5.810   2.697  5.1691  0.0270  0.2360
  261MOL0     H34397   1.474   6.077   2.697  0.7156 -0.0189  0.0174
  261MOL0     H34398   1.436   5.973   2.546 -0.5776 -2.9869 -0.0699
  261MOL0     H34399   1.664   5.955   2.611 -1.1642  1.9151 -1.7892
  261MOL0     H34400   1.561   5.800   2.630 -2.2664  1.0600  1.7499
  261MOL0     H34401   1.635   5.987   2.848  1.5466 -0.5633  0.1882
  261MOL0     H34402   1.587   5.805   2.855  1.3281 -3.4804 -1.1882
  261MOL0     H34403   1.811   5.747   2.770 -0.2270  0.1217 -0.0906
  261MOL0     H34404   1.823   5.838   2.914  1.3373 -2.6768 -0.1571
  261MOL0     H34405   2.072   5.833   2.779 -0.1645 -1.1933 -2.6368
  261MOL0     H34406   2.207   6.082   2.536  2.3200 -1.5747  0.3355
  261MOL0     H34407   2.263   5.945   2.631  0.5101  1.1461  1.1145
  261MOL0     H34408   2.248   6.222   2.711  0.1165 -0.6575 -1.5479
  261MOL0     H34409   2.402   6.154   2.643  1.3020  0.4770  0.6972
  261MOL0     H34410   2.292   6.044   2.914  0.0697  1.2439  0.8902
  261MOL0     H34411   2.448   6.007   2.839  0.3305  0.4515 -1.8439
  261MOL0     H34412   2.457   6.122   3.031 -0.9440 -0.2071  0.4943
  261MOL0     H34413   2.356   6.264   2.982  2.3924  1.7526 -1.7078
  261MOL0     H34414   2.654   6.115   3.076  0.2155  1.0222  0.8820
  261MOL0     H34415   2.887   6.148   3.145  1.7698 -2.0096 -1.7974
  261MOL0     H34416   3.173   6.631   3.115  1.3740  1.7470  2.7458
  261MOL0     H34417   3.384   6.732   3.171  1.9941  1.1792 -1.9220
  261MOL0     H34418   3.576   6.813   3.142 -0.9815 -1.0719  1.4509
  261MOL0     H34419   3.645   6.775   2.982 -1.8513 -1.4092  0.4975
  261MOL0     H34420   3.870   6.748   3.097  1.7127  1.6727 -1.1483
  261MOL0     H34421   3.792   6.802   3.253 -1.4721  1.3852 -0.9359
  261MOL0     H34422   3.744   7.016   3.147  0.9132  1.4808 -0.5619
  261MOL0     H34423   3.820   6.956   3.000  0.4206  1.0425  0.7355
  261MOL0     H34424   3.934   7.016   3.267 -3.5646 -1.3639 -0.5226
  261MOL0     H34425   4.027   6.932   3.132 -0.9950  0.0157 -2.8369
  261MOL0     H34426   3.905   7.220   3.111 -0.8927 -0.7996  1.4119
  261MOL0     H34427   3.985   7.128   2.987  0.2722  1.6431 -0.3671
  261MOL0     H34428   4.183   7.079   3.120  1.5153  0.1131  0.5242
  261MOL0     H34429   4.124   7.189   3.251  0.8719  0.5541  0.1096
  261MOL0     H34430   4.193   7.260   2.957  1.2317  1.3192  0.0343
  261MOL0     H34431   4.111   7.373   3.075 -1.3434  0.2485  1.5462
  261MOL0     H34432   4.391   7.252   3.116 -2.5675 -3.3201  1.2108
  261MOL0     H34433   4.304   7.340   3.236 -0.9838 -1.4468  0.2269
  261MOL0     H34434   3.599   6.407   3.006  1.8599  1.7281  1.6750
  261MOL0     H34435   3.370   6.286   2.942 -2.2941 -0.1181 -0.2283
  261MOL0     H34436   2.934   6.401   2.799 -3.6078 -0.0234 -3.1877
  261MOL0     H34437   2.680   6.406   2.770  1.3661  1.8363  0.7886
  261MOL0     H34438   0.805   6.036   3.125  0.9572 -0.2814 -0.7301
  261MOL0     H34439   0.581   5.940   3.202  2.1989  0.6320 -0.1975
  261MOL0     H34440   0.046   5.733   2.864  1.0262  0.6260  0.0299
  261MOL0     H34441  -0.130   5.597   2.953 -0.2848 -1.1794 -0.1102
  261MOL0     H34442  -0.175   5.678   3.279  0.1258  0.1315 -1.9007
  261MOL0     H34443  -0.209   5.546   3.384  0.0371  0.0605  0.4530
  261MOL0     H34444  -0.403   5.626   3.296 -0.8751 -0.0828 -0.7890
  261MOL0     H34445  -0.336   5.601   3.132  0.5691  1.1719  0.0667
  261MOL0     H34446  -0.357   5.358   3.144 -0.9314 -1.9680  1.4049
  261MOL0     H34447  -0.502   5.441   3.179  0.2884 -1.1727 -2.3661
  261MOL0     H34448  -0.454   5.251   3.334  3.4839 -2.1873 -0.0663
  261MOL0     H34449  -0.310   5.337   3.392 -1.0625 -3.5045 -0.0384
  261MOL0     H34450  -0.597   5.529   3.633 -0.6420  0.1992 -0.2343
  261MOL0     H34451   0.107   5.558   3.314  0.7172 -1.1608 -0.9386
  261MOL0     H34452   0.290   5.693   3.195  0.8310  0.2546 -1.1260
  262MOL0     O34453   9.666   0.392   5.975  0.6688 -0.2659 -0.2653
  262MOL0     C34454   9.560   0.399   5.910  0.0210 -0.3228 -0.2237
  262MOL0     O34455   9.442   0.332   5.944  0.5006 -0.2028  0.8992
  262MOL0     C34456   9.442   0.246   6.053  0.0198 -0.1933 -0.7147
  262MOL0     C34457   9.526   0.138   6.051  0.3996 -0.0912 -0.1318
  262MOL0     C34458   9.515   0.037   6.151 -0.0037  0.1012 -0.7658
  262MOL0     C34459   9.427   0.052   6.260  0.6612  0.9605 -1.3511
  262MOL0     O34460   9.414  -0.044   6.358 -0.1949 -0.3773  0.3550
  262MOL0     C34461   9.293  -0.041   6.430 -0.1825  0.6275 -0.2282
  262MOL0     C34462   9.328   0.018   6.561  0.1556  0.8765  0.0148
  262MOL0     C34463   9.214  -0.013   6.667 -0.9986  0.5337  0.2318
  262MOL0     C34464   9.214  -0.150   6.737 -0.2705  0.4409  0.0173
  262MOL0     C34465   9.114  -0.157   6.863  0.4939  0.7843  0.3491
  262MOL0     C34466   8.975  -0.108   6.839  0.4729 -0.1602  0.1602
  262MOL0     C34467   8.902  -0.200   6.746  0.2307  0.6152  0.4274
  262MOL0     C34468   8.765  -0.154   6.702  0.4453  1.0695 -1.2220
  262MOL0     N34469   8.672  -0.265   6.658 -0.5495  0.4628 -0.5646
  262MOL0     C34470   8.610  -0.360   6.743  0.0634  0.7383  0.4476
  262MOL0     C34471   8.517  -0.421   6.670  0.3147  0.1030 -0.7551
  262MOL0     C34472   8.425  -0.537   6.703 -0.4364 -0.0902 -0.1493
  262MOL0     C34473   8.291  -0.486   6.758  0.5545  0.1288 -0.6452
  262MOL0     C34474   8.219  -0.399   6.655  0.0964 -0.0979  0.3812
  262MOL0     C34475   8.074  -0.368   6.708 -0.0559  1.4430  0.2607
  262MOL0     O34476   7.994  -0.481   6.734  0.0001  0.3047 -0.2446
  262MOL0     C34477   7.884  -0.456   6.806  0.5384  0.0241  0.4082
  262MOL0     C34478   7.887  -0.412   6.935 -0.5396 -0.3339 -0.1813
  262MOL0     C34479   7.773  -0.377   7.005  0.0890  0.1354  0.3161
  262MOL0     C34480   7.644  -0.399   6.943  0.4784 -0.7987 -0.1070
  262MOL0     C34481   7.522  -0.371   7.015  0.2395 -0.1734  0.1187
  262MOL0     O34482   7.407  -0.416   6.950 -0.1712  0.4198  0.1508
  262MOL0     C34483   7.289  -0.409   7.014 -1.5874 -0.0891 -0.0065
  262MOL0     C34484   7.191  -0.346   6.955 -0.0911 -0.0363  0.4765
  262MOL0     C34485   7.057  -0.331   7.009 -0.1857  0.9133 -0.0576
  262MOL0     C34486   7.027  -0.388   7.131 -1.5420 -0.4379  0.7714
  262MOL0     O34487   6.892  -0.384   7.163  0.2111 -0.1440 -0.0100
  262MOL0     C34488   6.830  -0.400   7.300  0.7034  0.8511  0.3913
  262MOL0     C34489   6.680  -0.350   7.290 -0.3924  0.0933 -0.9157
  262MOL0     C34490   6.587  -0.440   7.204 -0.2155  0.4178 -0.7778
  262MOL0     C34491   6.435  -0.402   7.209 -0.6184  0.2653  0.1174
  262MOL0     C34492   6.366  -0.444   7.339  0.4979 -0.5656  0.6536
  262MOL0     C34493   6.215  -0.422   7.326 -0.9898 -0.5849  0.0396
  262MOL0     C34494   6.140  -0.474   7.451 -0.4565  0.5883  0.4462
  262MOL0     C34495   5.988  -0.463   7.444 -0.5821  0.6280  0.7562
  262MOL0    Cl34496   5.936  -0.558   7.589  0.3474 -0.0618 -0.4552
  262MOL0     C34497   7.140  -0.456   7.195 -0.0154  0.9192 -0.0057
  262MOL0     C34498   7.269  -0.463   7.135  0.2079 -0.1868  0.4517
  262MOL0     O34499   7.520  -0.295   7.110  0.3236  0.6043 -0.2426
  262MOL0     C34500   7.638  -0.443   6.806  0.6038 -0.3540 -0.4168
  262MOL0     C34501   7.756  -0.479   6.746  0.3713 -0.3130  1.0505
  262MOL0     N34502   8.514  -0.357   6.550  0.0712 -1.0296 -0.6139
  262MOL0     N34503   8.605  -0.265   6.540 -0.3336 -0.3534  0.3122
  262MOL0     C34504   9.341   0.160   6.255 -1.0982 -0.3702 -0.0641
  262MOL0     C34505   9.345   0.251   6.150 -0.1797 -0.2724  0.0051
  262MOL0     C34506   9.563   0.485   5.792 -0.0538  0.7043  0.7008
  262MOL0     C34507   9.662   0.578   5.761 -0.2570 -0.7739  0.1105
  262MOL0     C34508   9.669   0.653   5.647  0.4810 -0.0528  0.3988
  262MOL0     C34509   9.564   0.644   5.553 -0.4773 -0.2932 -1.1881
  262MOL0     O34510   9.559   0.734   5.451 -0.5437 -1.0191 -0.3024
  262MOL0     C34511   9.667   0.715   5.364 -0.4683  0.3660 -0.3037
  262MOL0     C34512   9.618   0.737   5.212  0.1317 -0.1303 -0.5657
  262MOL0     C34513   9.500   0.649   5.168 -0.4653  0.0798  0.5710
  262MOL0     C34514   9.479   0.676   5.017  0.2972 -0.4598  0.2632
  262MOL0     C34515   9.395   0.565   4.968  1.0918 -0.4383  0.4775
  262MOL0     C34516   9.329   0.468   4.932  0.0078 -0.3122 -0.4059
  262MOL0     C34517   9.464   0.553   5.576  0.5928 -0.0646 -0.8124
  262MOL0     C34518   9.470   0.464   5.693  0.4104  0.7829  0.0337
  262MOL0     H34519   9.590   0.122   5.965  0.2810  0.5155 -0.3417
  262MOL0     H34520   9.584  -0.047   6.154 -0.7248 -0.5024  1.9658
  262MOL0     H34521   9.266  -0.144   6.454 -1.3322  0.9278 -0.1640
  262MOL0     H34522   9.201   0.001   6.388 -0.8701  2.1233  2.4995
  262MOL0     H34523   9.343   0.126   6.550  1.1835  0.6599 -0.9377
  262MOL0     H34524   9.418  -0.031   6.600  0.9457  1.2026 -1.3359
  262MOL0     H34525   9.121   0.023   6.622 -0.0610  2.4312 -0.2580
  262MOL0     H34526   9.238   0.060   6.744  2.2252  2.5208 -2.3906
  262MOL0     H34527   9.171  -0.218   6.662 -2.4362  2.5566 -0.7950
  262MOL0     H34528   9.317  -0.182   6.757 -0.2600  0.8108  0.5702
  262MOL0     H34529   9.161  -0.109   6.948  0.0090 -2.1448  2.4321
  262MOL0     H34530   9.110  -0.263   6.891 -0.9919  0.9998  1.0444
  262MOL0     H34531   8.977  -0.001   6.816 -0.4881 -0.3582 -1.0124
  262MOL0     H34532   8.911  -0.104   6.928 -3.2403 -2.8115 -2.0833
  262MOL0     H34533   8.968  -0.215   6.660  0.2930  0.9373  0.4186
  262MOL0     H34534   8.900  -0.297   6.797 -1.5387  0.9004  0.9358
  262MOL0     H34535   8.789  -0.076   6.629  1.8679  0.8805 -0.9915
  262MOL0     H34536   8.714  -0.111   6.790 -0.4134  1.1690 -1.7550
  262MOL0     H34537   8.639  -0.387   6.845  0.5741  0.9061  0.3486
  262MOL0     H34538   8.478  -0.605   6.770  2.7458  0.4820 -1.8698
  262MOL0     H34539   8.406  -0.591   6.609  5.2845  1.7030 -2.7777
  262MOL0     H34540   8.292  -0.447   6.860 -1.6903 -0.2213 -0.4557
  262MOL0     H34541   8.235  -0.578   6.776  2.4722 -1.4703 -2.2907
  262MOL0     H34542   8.278  -0.308   6.643  1.1477 -0.7169  0.6715
  262MOL0     H34543   8.215  -0.447   6.556 -2.1253 -1.0331  0.8791
  262MOL0     H34544   8.026  -0.311   6.628  0.1566 -1.9870 -2.5170
  262MOL0     H34545   8.083  -0.311   6.802  4.9160  1.9209 -0.1971
  262MOL0     H34546   7.982  -0.391   6.983 -0.2164  4.4922 -2.3685
  262MOL0     H34547   7.780  -0.340   7.107 -1.0791 -2.3434  1.3743
  262MOL0     H34548   7.191  -0.294   6.860  0.6736 -2.7748 -1.1292
  262MOL0     H34549   6.979  -0.274   6.959 -0.0995  1.6823  0.6594
  262MOL0     H34550   6.876  -0.330   7.371  0.0091 -0.8441  2.6338
  262MOL0     H34551   6.831  -0.506   7.326 -2.3412 -0.6746 -4.5003
  262MOL0     H34552   6.691  -0.250   7.246  3.1394  1.1390  1.8759
  262MOL0     H34553   6.638  -0.339   7.391 -1.4118  1.5928 -1.4589
  262MOL0     H34554   6.610  -0.543   7.235  1.3261  0.4614 -1.6970
  262MOL0     H34555   6.606  -0.439   7.097 -1.7725  2.9217 -1.1076
  262MOL0     H34556   6.429  -0.293   7.201  1.8669  0.3917 -0.7022
  262MOL0     H34557   6.384  -0.435   7.118 -3.6216  5.2378 -0.3901
  262MOL0     H34558   6.397  -0.385   7.426  0.5912 -0.2165  0.3862
  262MOL0     H34559   6.391  -0.550   7.349 -1.6813 -1.5348 -2.5819
  262MOL0     H34560   6.178  -0.472   7.236 -5.8264  0.1547  1.3582
  262MOL0     H34561   6.195  -0.315   7.315  0.0005 -0.5579 -1.7016
  262MOL0     H34562   6.171  -0.579   7.455 -0.1202  0.6095 -0.9967
  262MOL0     H34563   6.180  -0.410   7.532 -2.5444  1.6707  0.6844
  262MOL0     H34564   5.952  -0.507   7.351 -0.0659  1.9108 -0.0735
  262MOL0     H34565   5.960  -0.358   7.443  2.8252  1.6954 -1.8452
  262MOL0     H34566   7.134  -0.518   7.284 -1.1933  1.5539  0.3811
  262MOL0     H34567   7.351  -0.518   7.179 -0.3183  0.9799  3.0235
  262MOL0     H34568   7.548  -0.469   6.751 -0.0097 -2.5204  1.4201
  262MOL0     H34569   7.770  -0.510   6.643  0.7752  1.3269  0.5896
  262MOL0     H34570   9.273   0.198   6.330 -0.6344 -1.4901  0.9473
  262MOL0     H34571   9.280   0.337   6.141  0.6972  0.1686 -3.4317
  262MOL0     H34572   9.730   0.592   5.844  0.7191  4.5142 -1.1925
  262MOL0     H34573   9.742   0.728   5.617  0.1846 -0.3212 -1.1129
  262MOL0     H34574   9.721   0.621   5.353  0.3718  0.4181  2.5129
  262MOL0     H34575   9.743   0.794   5.373  0.1356 -0.0754 -1.2807
  262MOL0     H34576   9.585   0.841   5.208 -0.4085 -0.2832 -0.1342
  262MOL0     H34577   9.704   0.704   5.153 -0.1204  0.9058 -1.5484
  262MOL0     H34578   9.412   0.679   5.226 -0.2691  0.7748  0.5185
  262MOL0     H34579   9.519   0.541   5.174 -1.3016 -0.1943 -1.2169
  262MOL0     H34580   9.437   0.775   4.996 -0.9923 -1.0737 -0.1371
  262MOL0     H34581   9.573   0.679   4.962  0.8461 -1.0829  1.1417
  262MOL0     H34582   9.277   0.379   4.902 -1.4202  0.4936 -0.4173
  262MOL0     H34583   9.393   0.543   5.494  0.1185  2.3791 -0.7536
  262MOL0     H34584   9.399   0.382   5.697  1.1131  0.1986  0.6495
  263MOL0     O34585   1.680   6.394   3.603 -0.3924 -0.1184 -0.9651
  263MOL0     C34586   1.598   6.477   3.568 -0.1875  0.8647 -0.0282
  263MOL0     O34587   1.609   6.584   3.488 -0.2157 -0.2126  0.3094
  263MOL0     C34588   1.728   6.625   3.422 -1.4346 -1.0032 -0.3911
  263MOL0     C34589   1.761   6.764   3.426  0.3159  0.1052  0.0989
  263MOL0     C34590   1.881   6.809   3.373 -0.6827 -0.8000 -0.4759
  263MOL0     C34591   1.970   6.719   3.313  0.7744  0.0244  0.3818
  263MOL0     O34592   2.084   6.764   3.259 -0.1810 -0.1278 -0.5072
  263MOL0     C34593   2.151   6.696   3.155  0.2857  0.1881 -0.1587
  263MOL0     C34594   2.250   6.797   3.105 -0.6039  0.0806  0.4201
  263MOL0     C34595   2.320   6.741   2.974  0.1551  0.7776  0.2308
  263MOL0     C34596   2.402   6.843   2.907  0.0829 -0.1342 -0.5211
  263MOL0     C34597   2.471   6.773   2.793  0.1808  0.4635  0.3913
  263MOL0     C34598   2.557   6.881   2.722 -0.3571  0.0108  0.2968
  263MOL0     C34599   2.614   6.818   2.592 -0.9254 -1.3450 -0.7642
  263MOL0     C34600   2.699   6.939   2.526 -0.1909 -0.6484 -0.0324
  263MOL0     N34601   2.743   6.903   2.396  0.6325 -0.0331  0.9283
  263MOL0     C34602   2.706   6.980   2.288 -0.5867 -1.1242  0.2641
  263MOL0     C34603   2.724   6.901   2.175  0.3553 -0.7826  0.5171
  263MOL0     C34604   2.709   6.941   2.031  0.1552  0.3178  0.3780
  263MOL0     C34605   2.828   7.029   1.987 -0.5184 -0.1333  0.4835
  263MOL0     C34606   2.860   7.007   1.843  0.6461 -0.6168 -0.2180
  263MOL0     C34607   3.005   7.042   1.813  0.2695 -0.5085 -0.6433
  263MOL0     O34608   3.030   7.175   1.876  0.1834 -0.3581 -0.6567
  263MOL0     C34609   3.160   7.223   1.895  0.9692  0.0013 -0.0511
  263MOL0     C34610   3.231   7.288   1.797  0.0079  0.2052  1.6515
  263MOL0     C34611   3.358   7.349   1.821  0.4430 -1.0702  0.0867
  263MOL0     C34612   3.412   7.339   1.952 -0.1203 -0.2617  0.8559
  263MOL0     C34613   3.559   7.383   1.979 -0.1370  0.3095 -0.4782
  263MOL0     O34614   3.625   7.437   1.880 -0.3203  0.1624  0.4985
  263MOL0     C34615   3.765   7.449   1.897  0.0823 -0.2789  0.5527
  263MOL0     C34616   3.845   7.362   1.821 -0.5269 -0.1765 -0.5882
  263MOL0     C34617   3.985   7.376   1.826 -0.8334  0.4233  0.0158
  263MOL0     C34618   4.050   7.474   1.901 -0.0188 -0.6782  0.0928
  263MOL0     O34619   4.190   7.473   1.909  0.6915  1.2945 -0.3873
  263MOL0     C34620   4.252   7.509   2.034 -1.5379  0.1069  0.0113
  263MOL0     C34621   4.398   7.460   2.028 -0.2087  0.6569 -0.2874
  263MOL0     C34622   4.478   7.562   1.953  0.2799  0.0602 -0.2668
  263MOL0     C34623   4.625   7.507   1.932 -0.3386 -0.1552 -0.5565
  263MOL0     C34624   4.692   7.614   1.839  0.4199 -0.7470  0.7002
  263MOL0     C34625   4.821   7.573   1.773  0.2718  0.8076 -0.4568
  263MOL0     C34626   4.820   7.441   1.683 -0.4358  0.8979  0.2217
  263MOL0     C34627   4.947   7.418   1.604 -0.6425  0.0916  0.5161
  263MOL0    Cl34628   4.956   7.245   1.555  0.2086  0.2170 -0.1426
  263MOL0     C34629   3.968   7.560   1.976 -1.2206  0.8351  0.1413
  263MOL0     C34630   3.833   7.552   1.968 -0.0007  0.7258  0.0116
  263MOL0     O34631   3.596   7.381   2.095  0.1992  0.2011  0.9276
  263MOL0     C34632   3.336   7.280   2.053  0.3818  0.7461 -0.0630
  263MOL0     C34633   3.215   7.225   2.026  0.4257 -0.5735  0.6802
  263MOL0     N34634   2.766   6.784   2.223  0.2293  0.1254 -0.3116
  263MOL0     N34635   2.761   6.774   2.351  0.6511 -0.3944  0.2345
  263MOL0     C34636   1.936   6.586   3.297 -0.5888  0.3699 -0.4588
  263MOL0     C34637   1.820   6.539   3.364 -0.2643 -0.4500  0.4459
  263MOL0     C34638   1.462   6.448   3.607  0.3688 -0.6133 -0.7275
  263MOL0     C34639   1.430   6.336   3.690  0.1467 -0.0723  0.4632
  263MOL0     C34640   1.302   6.312   3.729  0.1468 -0.0020  0.5070
  263MOL0     C34641   1.195   6.393   3.689  0.1071  0.7803  0.1774
  263MOL0     O34642   1.068   6.369   3.732  0.4354 -0.0261 -0.2138
  263MOL0     C34643   0.979   6.480   3.761  0.4789 -0.0526  0.8994
  263MOL0     C34644   0.886   6.496   3.637  0.2039  0.6588  1.1144
  263MOL0     C34645   0.798   6.376   3.611 -0.9058 -0.3173  0.1667
  263MOL0     C34646   0.723   6.327   3.733 -0.3475  0.0991 -0.2102
  263MOL0     C34647   0.627   6.426   3.790  1.2268  0.0876 -0.3724
  263MOL0     C34648   0.550   6.516   3.831  0.5082 -0.4485 -0.6922
  263MOL0     C34649   1.224   6.510   3.615  0.9079  0.2051  0.2039
  263MOL0     C34650   1.354   6.540   3.576 -0.4031  0.6511  0.7101
  263MOL0     H34651   1.691   6.829   3.477  0.0269  0.5736 -0.8739
  263MOL0     H34652   1.912   6.913   3.377  1.5747 -1.4319 -0.2064
  263MOL0     H34653   2.089   6.668   3.069  0.4342  0.2120 -0.2733
  263MOL0     H34654   2.203   6.609   3.197 -0.0431  0.5085  0.9536
  263MOL0     H34655   2.330   6.806   3.179 -2.4354 -2.1671  2.8647
  263MOL0     H34656   2.204   6.894   3.084  1.6884  1.2696  0.5970
  263MOL0     H34657   2.244   6.703   2.906  3.3979  0.1520 -3.3989
  263MOL0     H34658   2.384   6.660   3.010 -3.3902 -1.3091  2.4143
  263MOL0     H34659   2.336   6.914   2.856  0.3259  1.8348  1.7429
  263MOL0     H34660   2.458   6.877   2.994  0.5209 -2.8814  0.3333
  263MOL0     H34661   2.397   6.743   2.717  2.3156  0.4450 -1.8006
  263MOL0     H34662   2.533   6.686   2.812 -0.0128 -0.4361 -2.5156
  263MOL0     H34663   2.633   6.910   2.796  0.7401  1.3031 -1.2610
  263MOL0     H34664   2.493   6.967   2.697  1.4768  1.0491 -1.0413
  263MOL0     H34665   2.670   6.732   2.631  0.3013 -0.2347  0.0071
  263MOL0     H34666   2.533   6.793   2.523  0.7975  0.6136 -3.7332
  263MOL0     H34667   2.785   6.963   2.589 -1.7659  1.3311  1.4428
  263MOL0     H34668   2.637   7.029   2.525 -0.2254 -0.6313 -2.5084
  263MOL0     H34669   2.658   7.077   2.281  3.3668  1.0252  0.3849
  263MOL0     H34670   2.612   6.992   2.027 -0.0625  0.0427  1.6941
  263MOL0     H34671   2.701   6.855   1.965  1.4456  2.0219 -2.1649
  263MOL0     H34672   2.911   6.992   2.049 -1.6447 -1.9453  1.0187
  263MOL0     H34673   2.813   7.135   2.006 -2.2125  0.0986 -1.7763
  263MOL0     H34674   2.833   6.909   1.803 -1.7238 -0.0859 -0.0324
  263MOL0     H34675   2.792   7.072   1.788  2.7991  0.1484 -2.1896
  263MOL0     H34676   3.037   7.039   1.708 -0.4957 -0.0507 -0.8964
  263MOL0     H34677   3.069   6.979   1.875 -0.3735  0.0446  0.6189
  263MOL0     H34678   3.195   7.288   1.695  1.0870 -0.6126  1.2585
  263MOL0     H34679   3.410   7.405   1.744 -1.6709 -0.2407 -0.8146
  263MOL0     H34680   3.794   7.289   1.758 -2.5542  1.2728 -0.7164
  263MOL0     H34681   4.053   7.316   1.766 -0.2378  1.1515 -0.0545
  263MOL0     H34682   4.205   7.459   2.120 -2.3686  2.9356  1.3370
  263MOL0     H34683   4.251   7.617   2.052  2.0631  0.4861 -1.4039
  263MOL0     H34684   4.398   7.360   1.983 -1.6478 -0.2162  1.5287
  263MOL0     H34685   4.438   7.452   2.130  0.5911  2.1585 -0.4545
  263MOL0     H34686   4.475   7.651   2.015  0.6483 -1.7535  2.5291
  263MOL0     H34687   4.430   7.584   1.857  1.0286  1.1171 -0.4146
  263MOL0     H34688   4.671   7.510   2.032 -1.7805  1.0595  0.1176
  263MOL0     H34689   4.633   7.407   1.888 -2.0827  0.2494 -1.9195
  263MOL0     H34690   4.714   7.687   1.917  2.4054 -1.6453  1.0538
  263MOL0     H34691   4.638   7.660   1.756  1.7084  2.2903  1.4350
  263MOL0     H34692   4.901   7.564   1.848  1.4901  1.6322 -1.5977
  263MOL0     H34693   4.858   7.655   1.711  0.6683 -0.8943 -2.5809
  263MOL0     H34694   4.786   7.353   1.737 -0.4505 -0.3019 -1.6450
  263MOL0     H34695   4.742   7.465   1.610 -0.3023  3.7246  0.8926
  263MOL0     H34696   5.033   7.466   1.652  1.3847 -0.2348 -2.5256
  263MOL0     H34697   4.947   7.475   1.511  1.2880  0.5411  0.7428
  263MOL0     H34698   4.017   7.644   2.024 -3.0129  0.5566  2.6423
  263MOL0     H34699   3.776   7.629   2.019 -1.6572 -0.3371 -0.1738
  263MOL0     H34700   3.373   7.293   2.154  0.4689  4.8470 -0.4228
  263MOL0     H34701   3.154   7.186   2.107  0.4227  0.1964  1.0539
  263MOL0     H34702   2.001   6.520   3.240 -0.7329  0.0036 -0.2031
  263MOL0     H34703   1.790   6.435   3.373  0.1511 -0.3962  4.0605
  263MOL0     H34704   1.502   6.267   3.731  0.6621  0.7772  1.0266
  263MOL0     H34705   1.275   6.228   3.792  0.9997 -3.2083 -3.0956
  263MOL0     H34706   1.035   6.573   3.773 -0.3080  0.5459  0.0486
  263MOL0     H34707   0.917   6.464   3.850  0.1237  0.3771  0.7338
  263MOL0     H34708   0.816   6.580   3.645  0.1806  1.0526 -1.8973
  263MOL0     H34709   0.954   6.512   3.553  1.7649  0.8028  2.3516
  263MOL0     H34710   0.864   6.297   3.574  0.9431  0.0734  2.4316
  263MOL0     H34711   0.724   6.402   3.535 -0.0494  2.1724  0.0907
  263MOL0     H34712   0.670   6.233   3.715  2.7507 -1.7991 -0.1095
  263MOL0     H34713   0.786   6.319   3.821 -0.4569  0.7723 -0.0645
  263MOL0     H34714   0.488   6.599   3.862  2.4935  2.0015 -2.8375
  263MOL0     H34715   1.149   6.582   3.584  1.1296  0.2697 -0.1834
  263MOL0     H34716   1.373   6.634   3.524  2.0422  0.1772  0.6041
  264MOL0     O34717   7.200  10.453   6.525  0.9434  0.5486 -0.2024
  264MOL0     C34718   7.186  10.554   6.595  0.3796  0.8460 -0.4636
  264MOL0     O34719   7.284  10.634   6.634 -0.3698  0.2126  0.5314
  264MOL0     C34720   7.405  10.634   6.559 -0.8231  0.5018  0.0545
  264MOL0     C34721   7.385  10.655   6.424 -0.0683 -1.2822 -0.3535
  264MOL0     C34722   7.491  10.646   6.331  0.3306 -0.2173 -0.1023
  264MOL0     C34723   7.624  10.629   6.380  0.1608  0.2203  0.3109
  264MOL0     O34724   7.732  10.615   6.293  0.3970  0.0657 -0.0328
  264MOL0     C34725   7.860  10.580   6.339  1.2323 -0.7617 -0.4759
  264MOL0     C34726   7.951  10.587   6.223 -0.3795  0.6288 -0.3633
  264MOL0     C34727   8.091  10.571   6.268  0.1908 -0.8190 -1.2429
  264MOL0     C34728   8.198  10.578   6.166  0.1109 -0.8011  0.1301
  264MOL0     C34729   8.337  10.560   6.233  1.6420  0.5059  0.9101
  264MOL0     C34730   8.456  10.577   6.128  0.7313 -0.4472  0.1403
  264MOL0     C34731   8.594  10.602   6.211  0.1454 -0.0368  0.3199
  264MOL0     C34732   8.714  10.543   6.137 -0.2036 -0.5986 -0.3559
  264MOL0     N34733   8.728  10.594   6.001  0.7419 -0.2034  0.9898
  264MOL0     C34734   8.837  10.650   5.939  0.1012 -0.6519 -0.6389
  264MOL0     C34735   8.812  10.651   5.806  0.5298 -0.1103 -0.3321
  264MOL0     C34736   8.910  10.687   5.699  0.1984  0.0824  0.4066
  264MOL0     C34737   8.885  10.830   5.651  0.5481  0.2921  0.6457
  264MOL0     C34738   8.743  10.846   5.573  0.0178  0.7746 -0.3289
  264MOL0     C34739   8.718  10.985   5.517  0.5278  0.4691 -0.1955
  264MOL0     O34740   8.584  11.005   5.474  0.7140  0.1040 -0.5875
  264MOL0     C34741   8.534  10.923   5.374  0.5607  0.2008 -0.4519
  264MOL0     C34742   8.391  10.923   5.366 -0.2649 -0.3355  0.5794
  264MOL0     C34743   8.317  10.859   5.259  0.4531 -0.5041  0.4886
  264MOL0     C34744   8.389  10.783   5.170  0.2411  0.6547  0.2424
  264MOL0     C34745   8.310  10.720   5.071  0.1478  0.1164  0.4984
  264MOL0     O34746   8.190  10.782   5.033  0.2007 -0.1617 -0.3238
  264MOL0     C34747   8.104  10.758   4.930 -0.2983 -0.0735  0.0224
  264MOL0     C34748   8.084  10.641   4.848 -0.7711 -0.5590 -0.5201
  264MOL0     C34749   7.990  10.636   4.746 -0.4614  0.3244 -0.1884
  264MOL0     C34750   7.899  10.729   4.736 -0.0881 -0.5279 -0.0654
  264MOL0     O34751   7.791  10.715   4.655 -0.0162  0.1407 -0.8421
  264MOL0     C34752   7.683  10.815   4.654 -0.5873 -0.4240  0.2706
  264MOL0     C34753   7.606  10.802   4.527  0.8852  0.3358 -0.7861
  264MOL0     C34754   7.679  10.857   4.400  0.1067 -0.0222  0.1737
  264MOL0     C34755   7.599  10.852   4.271 -0.2155  0.6389 -0.1511
  264MOL0     C34756   7.637  10.732   4.174  1.1060  0.0673  0.2679
  264MOL0     C34757   7.787  10.716   4.134 -0.3747 -0.6159 -0.0412
  264MOL0     C34758   7.807  10.615   4.010  0.0463  0.1719  0.2191
  264MOL0     C34759   7.765  10.474   4.037 -1.1215  0.4560  0.9052
  264MOL0    Cl34760   7.592  10.442   4.003 -0.0524 -0.2009  0.1898
  264MOL0     C34761   7.911  10.844   4.824  0.2964  0.0199 -0.1594
  264MOL0     C34762   8.007  10.861   4.921 -0.0576  0.2486  0.3972
  264MOL0     O34763   8.346  10.608   5.024 -0.7177  0.0347  0.2938
  264MOL0     C34764   8.533  10.781   5.178  0.6472  0.3914 -0.9189
  264MOL0     C34765   8.596  10.851   5.282  0.1702  0.3387 -0.0478
  264MOL0     N34766   8.684  10.606   5.794  0.4771 -0.2538  0.5844
  264MOL0     N34767   8.635  10.572   5.908 -0.1582  0.5046 -0.3521
  264MOL0     C34768   7.640  10.600   6.519 -0.0820  1.4162 -0.8484
  264MOL0     C34769   7.536  10.608   6.607  0.1719  0.2881  0.8948
  264MOL0     C34770   7.052  10.579   6.647  0.1475 -0.8387 -0.2744
  264MOL0     C34771   7.030  10.668   6.749 -0.5574 -0.5019 -0.2936
  264MOL0     C34772   6.902  10.686   6.806 -0.1676 -0.4221  0.3738
  264MOL0     C34773   6.793  10.608   6.758 -0.2707 -0.1524 -0.6542
  264MOL0     O34774   6.673  10.649   6.811  0.8661 -0.3079  0.2636
  264MOL0     C34775   6.563  10.668   6.718 -0.9512  0.1283  0.5777
  264MOL0     C34776   6.498  10.805   6.756 -0.1120 -0.0985 -0.6927
  264MOL0     C34777   6.363  10.838   6.693  0.4579 -0.2804 -0.4563
  264MOL0     C34778   6.257  10.727   6.716 -0.1463  0.8461 -0.6957
  264MOL0     C34779   6.128  10.785   6.686 -0.2544 -0.0714 -0.5942
  264MOL0     C34780   6.023  10.819   6.639 -0.2622 -0.2614  0.8482
  264MOL0     C34781   6.822  10.530   6.644  1.3150 -0.2646  0.1523
  264MOL0     C34782   6.944  10.523   6.588 -0.4888  0.4497 -0.2909
  264MOL0     H34783   7.290  10.683   6.378  0.2922 -1.1413 -1.0308
  264MOL0     H34784   7.465  10.648   6.226 -2.4596  1.2841  0.5053
  264MOL0     H34785   7.870  10.477   6.374 -2.0538 -0.5650  1.4569
  264MOL0     H34786   7.892  10.650   6.418 -0.8450 -0.7243  0.3898
  264MOL0     H34787   7.955  10.679   6.164  2.8287  0.5665 -0.4172
  264MOL0     H34788   7.932  10.510   6.147 -0.7324  1.0112 -0.6747
  264MOL0     H34789   8.105  10.472   6.312  1.1406 -0.0782  0.2233
  264MOL0     H34790   8.101  10.641   6.352  3.8803 -1.1246 -1.2502
  264MOL0     H34791   8.182  10.507   6.084 -1.0572  0.9081 -1.2177
  264MOL0     H34792   8.198  10.674   6.113  2.4880 -1.4519 -1.2045
  264MOL0     H34793   8.342  10.464   6.285 -1.0082  1.3359  2.9231
  264MOL0     H34794   8.349  10.641   6.306 -0.9497 -0.0304  2.0531
  264MOL0     H34795   8.428  10.657   6.059 -1.2410 -1.2852 -0.0958
  264MOL0     H34796   8.459  10.482   6.074  1.8953 -0.3282 -0.0252
  264MOL0     H34797   8.606  10.709   6.230 -0.7425  0.2492 -0.6315
  264MOL0     H34798   8.593  10.564   6.314 -2.4154  2.7973  1.5040
  264MOL0     H34799   8.718  10.435   6.155 -1.0780 -0.5526  0.2228
  264MOL0     H34800   8.804  10.579   6.188  0.8411 -4.0986  0.5484
  264MOL0     H34801   8.932  10.678   5.985 -0.0451  3.9456 -2.6363
  264MOL0     H34802   8.908  10.618   5.614  4.0137  1.0090 -0.6472
  264MOL0     H34803   9.010  10.669   5.741  0.3846  0.1689  0.0061
  264MOL0     H34804   8.966  10.847   5.579 -0.0501 -2.9641 -0.9894
  264MOL0     H34805   8.886  10.903   5.732 -2.7364  1.8786 -0.5594
  264MOL0     H34806   8.744  10.766   5.498  0.3744 -2.5659  2.9355
  264MOL0     H34807   8.662  10.822   5.643  1.3528 -3.6734  0.0152
  264MOL0     H34808   8.780  10.992   5.428  0.8589 -1.3928 -0.1619
  264MOL0     H34809   8.733  11.061   5.595 -2.1192  0.3208  0.5727
  264MOL0     H34810   8.336  10.973   5.445  2.6091  2.7418  0.8650
  264MOL0     H34811   8.209  10.856   5.249  0.6028 -1.4528 -1.1238
  264MOL0     H34812   8.159  10.567   4.874  0.0843  1.2400  2.6227
  264MOL0     H34813   7.979  10.546   4.686  2.4882 -1.0000  1.0484
  264MOL0     H34814   7.734  10.911   4.638  2.9341 -2.5782 -3.7463
  264MOL0     H34815   7.623  10.814   4.745 -4.0065  0.0589 -1.7933
  264MOL0     H34816   7.508  10.847   4.546  0.7757  0.0807 -0.7391
  264MOL0     H34817   7.585  10.700   4.493 -0.3477  0.5767 -0.7989
  264MOL0     H34818   7.777  10.811   4.385  0.8293  1.3893  0.3441
  264MOL0     H34819   7.693  10.965   4.411  1.1967 -0.3109  2.1039
  264MOL0     H34820   7.492  10.848   4.295 -0.0593  0.8316  0.6091
  264MOL0     H34821   7.628  10.936   4.206  3.6200  1.1324  1.9033
  264MOL0     H34822   7.573  10.732   4.086  1.0243  4.7050  0.0843
  264MOL0     H34823   7.617  10.636   4.223  1.7978 -0.3027 -0.1598
  264MOL0     H34824   7.857  10.693   4.214  0.7118 -1.4802 -1.2093
  264MOL0     H34825   7.811  10.814   4.091 -2.1402 -0.7401 -1.4411
  264MOL0     H34826   7.757  10.661   3.925 -0.7475  0.6621  0.9356
  264MOL0     H34827   7.915  10.611   3.995  0.1052 -1.8585  0.9247
  264MOL0     H34828   7.803  10.442   4.135  0.6646 -0.2386  0.0231
  264MOL0     H34829   7.819  10.415   3.963  1.4443 -0.1294  3.0578
  264MOL0     H34830   7.841  10.927   4.825 -0.4605 -0.6021  1.0981
  264MOL0     H34831   8.001  10.949   4.985 -1.3482  1.3184 -1.1215
  264MOL0     H34832   8.590  10.733   5.098  2.3146  2.5999 -1.1543
  264MOL0     H34833   8.704  10.854   5.293  0.2264 -1.4345  0.1766
  264MOL0     H34834   7.738  10.578   6.560 -0.2429  2.2917  0.0296
  264MOL0     H34835   7.557  10.594   6.712  3.3978 -0.4223  0.2864
  264MOL0     H34836   7.106  10.718   6.808 -3.0108  1.7306  1.1873
  264MOL0     H34837   6.877  10.758   6.883 -0.1208 -0.0329  0.0302
  264MOL0     H34838   6.494  10.586   6.738  0.3857 -0.8994  1.0956
  264MOL0     H34839   6.589  10.676   6.613 -1.6213  1.7352  0.4993
  264MOL0     H34840   6.484  10.804   6.864 -1.0974 -2.3702 -0.7802
  264MOL0     H34841   6.570  10.884   6.733  2.1694 -1.4816  1.1528
  264MOL0     H34842   6.378  10.867   6.589 -1.0148  3.1136  0.1481
  264MOL0     H34843   6.338  10.931   6.746  0.3266 -0.4891 -0.1468
  264MOL0     H34844   6.280  10.646   6.647  2.1437  0.5289  0.3522
  264MOL0     H34845   6.257  10.690   6.819  1.3085  0.2993 -0.8706
  264MOL0     H34846   5.924  10.843   6.604  0.1899 -0.7254 -0.8226
  264MOL0     H34847   6.748  10.473   6.588  2.5343 -1.8348  0.0656
  264MOL0     H34848   6.952  10.465   6.497 -0.9277 -0.0015 -0.0505
  265MOL0     O34849   8.878   4.191  11.313  0.4399 -0.0955 -1.0152
  265MOL0     C34850   8.880   4.260  11.417 -0.6104  0.4730  0.3941
  265MOL0     O34851   8.784   4.257  11.521  0.1992  0.2890 -0.3963
  265MOL0     C34852   8.665   4.192  11.522  0.0530 -0.0243  0.9975
  265MOL0     C34853   8.603   4.145  11.408  0.9458 -0.0386  0.2106
  265MOL0     C34854   8.479   4.073  11.407 -0.2859  0.2602  0.2315
  265MOL0     C34855   8.411   4.059  11.527  0.1785  0.0062 -0.2313
  265MOL0     O34856   8.294   3.984  11.541 -0.5478 -0.0267  0.3201
  265MOL0     C34857   8.177   4.031  11.472  0.4523 -0.6973 -0.4319
  265MOL0     C34858   8.064   3.937  11.499 -0.0394 -1.3179 -0.1327
  265MOL0     C34859   7.928   3.998  11.447  0.1235  0.1774  0.3539
  265MOL0     C34860   7.813   3.909  11.490 -0.1843  0.0309 -0.0409
  265MOL0     C34861   7.696   3.945  11.416 -0.0394  0.4620  0.1777
  265MOL0     C34862   7.629   4.082  11.451 -0.1707  0.6500 -0.3822
  265MOL0     C34863   7.490   4.091  11.403  0.7383 -0.4230 -1.1502
  265MOL0     C34864   7.440   4.230  11.450 -0.6818  1.2242  0.2752
  265MOL0     N34865   7.312   4.276  11.390 -0.0666  0.5777  0.2305
  265MOL0     C34866   7.197   4.203  11.395 -0.1318  0.2528 -0.3607
  265MOL0     C34867   7.117   4.269  11.310 -0.3163  0.0588  0.6298
  265MOL0     C34868   6.980   4.222  11.286 -0.5168  0.1329 -0.0897
  265MOL0     C34869   6.875   4.270  11.385  0.6077  0.1547 -0.4174
  265MOL0     C34870   6.891   4.422  11.415 -0.3715  0.1045 -0.2091
  265MOL0     C34871   6.776   4.498  11.483  0.3751  0.1037 -0.2535
  265MOL0     O34872   6.747   4.423  11.605 -0.4239 -0.3353  0.1149
  265MOL0     C34873   6.626   4.465  11.646  0.0530 -1.0581  0.4296
  265MOL0     C34874   6.517   4.389  11.618  0.0996 -0.6620 -0.3415
  265MOL0     C34875   6.387   4.434  11.656 -0.2541  0.4949 -0.1017
  265MOL0     C34876   6.370   4.549  11.727 -0.6331  0.0654 -0.1667
  265MOL0     C34877   6.224   4.588  11.741  0.2881  0.3744 -0.9451
  265MOL0     O34878   6.129   4.510  11.688  0.0094  0.0464  0.4911
  265MOL0     C34879   5.995   4.509  11.717  0.3684 -0.0309 -0.4400
  265MOL0     C34880   5.909   4.625  11.754  0.5134  0.2031  0.6096
  265MOL0     C34881   5.768   4.614  11.761  0.1414 -0.0516  0.8830
  265MOL0     C34882   5.708   4.492  11.734 -0.2054  1.2091  0.7282
  265MOL0     O34883   5.571   4.498  11.734  0.2978 -0.3649  0.3039
  265MOL0     C34884   5.480   4.387  11.710 -0.6266  1.0978 -0.2499
  265MOL0     C34885   5.480   4.383  11.549 -0.2493  1.6293 -0.2113
  265MOL0     C34886   5.412   4.268  11.484 -0.2191  0.3291 -0.6975
  265MOL0     C34887   5.282   4.224  11.555  0.0868  0.7763 -0.4019
  265MOL0     C34888   5.221   4.094  11.493  0.4940 -0.5225 -0.8745
  265MOL0     C34889   5.078   4.060  11.538  0.1464  0.3969 -0.3037
  265MOL0     C34890   5.023   3.959  11.435  1.1022 -0.4584  0.2872
  265MOL0     C34891   4.879   3.920  11.467 -0.5041  0.3466  0.4357
  265MOL0    Cl34892   4.768   4.058  11.465 -0.7078 -0.0428  0.0024
  265MOL0     C34893   5.785   4.378  11.703  0.7126 -0.1909 -1.1901
  265MOL0     C34894   5.926   4.390  11.695  0.2630  1.1347 -0.0974
  265MOL0     O34895   6.199   4.695  11.805 -0.4428 -0.1448  0.1413
  265MOL0     C34896   6.481   4.633  11.765  0.0883  0.0267  0.1817
  265MOL0     C34897   6.606   4.587  11.714 -0.7078  0.1474  0.0616
  265MOL0     N34898   7.185   4.380  11.263  0.1105 -0.6994 -0.5461
  265MOL0     N34899   7.302   4.386  11.318  0.6087 -0.1341  0.8664
  265MOL0     C34900   8.474   4.113  11.652  0.3301  0.8476  1.3410
  265MOL0     C34901   8.602   4.173  11.642 -0.1500  0.9684  0.7287
  265MOL0     C34902   8.997   4.347  11.447 -0.5293  1.2228  0.0091
  265MOL0     C34903   9.116   4.318  11.372 -0.3189  0.7976  0.4863
  265MOL0     C34904   9.225   4.402  11.387 -0.6059  0.5994 -0.7625
  265MOL0     C34905   9.225   4.490  11.495 -0.3582  0.1978 -0.3460
  265MOL0     O34906   9.343   4.559  11.509  0.7128 -0.9305  0.4849
  265MOL0     C34907   9.350   4.669  11.606 -0.2354  0.5368  0.2548
  265MOL0     C34908   9.501   4.721  11.593 -0.6281  0.6645  0.2090
  265MOL0     C34909   9.520   4.799  11.461  0.5135 -0.4062 -1.0093
  265MOL0     C34910   9.669   4.829  11.430 -0.2692 -1.2491 -1.1378
  265MOL0     C34911   9.720   4.947  11.519 -0.5638  0.0729  0.6122
  265MOL0     C34912   9.773   5.038  11.587  0.8241 -0.0760 -0.3047
  265MOL0     C34913   9.112   4.521  11.570 -1.1026  0.8725 -0.8860
  265MOL0     C34914   8.995   4.457  11.533  0.1537 -0.1022 -0.0753
  265MOL0     H34915   8.650   4.176  11.315 -0.6302  0.0881 -0.5825
  265MOL0     H34916   8.451   4.024  11.315 -0.6791 -0.2237  0.6052
  265MOL0     H34917   8.185   4.052  11.365  0.4685  0.0177 -0.2941
  265MOL0     H34918   8.146   4.125  11.519 -1.3918  0.3059 -3.3415
  265MOL0     H34919   8.054   3.932  11.608  5.4848  0.7929  0.7929
  265MOL0     H34920   8.097   3.840  11.461 -0.5309 -1.8300  0.6941
  265MOL0     H34921   7.924   4.002  11.338 -2.2172 -2.6189  0.1928
  265MOL0     H34922   7.905   4.100  11.479 -1.7469 -0.2325  0.4301
  265MOL0     H34923   7.843   3.807  11.466  2.5314  0.6416  0.3683
  265MOL0     H34924   7.795   3.911  11.598  1.4933 -1.5538  0.3227
  265MOL0     H34925   7.622   3.869  11.444  2.7519 -2.1739  0.8765
  265MOL0     H34926   7.712   3.943  11.308 -1.1326 -0.9523  0.0110
  265MOL0     H34927   7.695   4.164  11.422  0.2290  0.8448  0.9934
  265MOL0     H34928   7.641   4.072  11.559  0.8908  0.2868 -0.5151
  265MOL0     H34929   7.494   4.081  11.294 -1.5815 -0.4438 -1.2717
  265MOL0     H34930   7.436   4.011  11.455 -0.8770  2.2966  1.7009
  265MOL0     H34931   7.513   4.305  11.417 -0.2641 -0.2393 -2.4789
  265MOL0     H34932   7.432   4.223  11.559  3.4345 -0.7322  0.6492
  265MOL0     H34933   7.195   4.112  11.454  0.5402  2.1567  2.8431
  265MOL0     H34934   6.981   4.112  11.288 -0.0612  0.0672 -2.0181
  265MOL0     H34935   6.966   4.241  11.180 -0.5490  0.0105 -0.1080
  265MOL0     H34936   6.892   4.216  11.479  0.5098  3.0845  1.3750
  265MOL0     H34937   6.775   4.247  11.349  0.5346 -1.0891  0.5121
  265MOL0     H34938   6.982   4.443  11.472  2.5866  0.8160 -4.6406
  265MOL0     H34939   6.905   4.473  11.319 -2.1151 -1.3556 -1.2972
  265MOL0     H34940   6.691   4.501  11.415  1.1043  3.2833 -1.1782
  265MOL0     H34941   6.797   4.602  11.509  3.3272 -0.1482 -1.2517
  265MOL0     H34942   6.521   4.300  11.557 -3.3982  2.0488 -5.3280
  265MOL0     H34943   6.299   4.372  11.638 -2.5228  3.1240  1.1188
  265MOL0     H34944   5.961   4.718  11.770  2.7971 -0.5207 -1.8575
  265MOL0     H34945   5.703   4.698  11.778 -2.2211 -1.6747  0.3235
  265MOL0     H34946   5.382   4.419  11.747 -1.0704  1.3854 -1.6116
  265MOL0     H34947   5.508   4.296  11.763  0.8769  2.4279  1.3780
  265MOL0     H34948   5.575   4.388  11.494 -0.0625 -1.3675 -0.3348
  265MOL0     H34949   5.436   4.477  11.515  0.4552  2.9311  2.2351
  265MOL0     H34950   5.473   4.178  11.486 -1.3665 -0.5085  2.7243
  265MOL0     H34951   5.395   4.314  11.386 -1.6745  2.1806  0.3618
  265MOL0     H34952   5.297   4.214  11.663 -2.8240 -0.1659  0.0099
  265MOL0     H34953   5.210   4.306  11.562  1.2153  1.7866 -0.3315
  265MOL0     H34954   5.288   4.010  11.512  0.8315 -0.1710 -0.5057
  265MOL0     H34955   5.228   4.108  11.385  0.7340  2.0416 -0.5926
  265MOL0     H34956   5.022   4.153  11.527 -0.8954 -0.2573 -0.5729
  265MOL0     H34957   5.066   4.026  11.642 -3.0617  0.9279 -0.4014
  265MOL0     H34958   5.024   4.010  11.339 -3.0538  1.2997  0.9812
  265MOL0     H34959   5.085   3.868  11.431 -1.7527 -2.5008 -0.4162
  265MOL0     H34960   4.868   3.865  11.561 -0.4770  0.6470  0.6166
  265MOL0     H34961   4.857   3.842  11.393  3.2697  0.2861 -0.8587
  265MOL0     H34962   5.726   4.288  11.691 -1.0569  0.8840 -0.8433
  265MOL0     H34963   5.980   4.297  11.680 -1.7624  0.0662 -1.1184
  265MOL0     H34964   6.467   4.724  11.824 -0.0397  0.3729 -0.3763
  265MOL0     H34965   6.692   4.651  11.732 -0.1705 -0.9423  1.5939
  265MOL0     H34966   8.427   4.099  11.749  0.5351  0.9344  1.4514
  265MOL0     H34967   8.650   4.204  11.734 -2.2059  1.3785  1.7189
  265MOL0     H34968   9.117   4.243  11.293 -0.2542  1.4399 -0.1309
  265MOL0     H34969   9.316   4.384  11.329 -2.2360  2.1074 -4.0064
  265MOL0     H34970   9.328   4.623  11.702  1.6741 -0.8211  0.0924
  265MOL0     H34971   9.285   4.755  11.587 -1.7213 -0.8684 -1.4061
  265MOL0     H34972   9.534   4.784  11.676 -2.2691  1.3406  0.3964
  265MOL0     H34973   9.552   4.624  11.598 -0.4679  0.5585 -2.3061
  265MOL0     H34974   9.469   4.896  11.465  1.0052 -0.1805 -0.0047
  265MOL0     H34975   9.463   4.740  11.389 -0.0850 -1.1745  0.0617
  265MOL0     H34976   9.724   4.736  11.446  1.4597  0.0950  1.2895
  265MOL0     H34977   9.680   4.866  11.327  3.0606  0.5981 -0.2861
  265MOL0     H34978   9.817   5.111  11.652 -2.3094  0.3437  1.5543
  265MOL0     H34979   9.102   4.602  11.641  0.8420  1.3287 -1.0669
  265MOL0     H34980   8.902   4.475  11.587  0.8471  2.4127  0.4390
  266MOL0     O34981   7.894   1.246   7.059  0.3051  0.2554 -0.0638
  266MOL0     C34982   7.928   1.350   7.109  0.4432 -0.7704 -0.8561
  266MOL0     O34983   7.845   1.456   7.144 -0.2796  0.9284  0.5462
  266MOL0     C34984   7.704   1.455   7.146 -0.0301 -0.8780  0.2079
  266MOL0     C34985   7.617   1.347   7.116 -0.7101  0.7758 -0.5967
  266MOL0     C34986   7.479   1.375   7.130 -0.2744 -0.7008  0.5442
  266MOL0     C34987   7.423   1.503   7.141 -0.4195  0.3619  0.4716
  266MOL0     O34988   7.290   1.530   7.121 -0.3718  0.9963  0.5995
  266MOL0     C34989   7.245   1.507   6.986 -0.4343 -0.2847 -0.1326
  266MOL0     C34990   7.098   1.554   6.977 -0.5758 -0.0914 -1.0706
  266MOL0     C34991   7.006   1.437   7.006  0.5771  0.1758  0.0616
  266MOL0     C34992   6.865   1.492   7.001  0.0341 -0.7293  0.5618
  266MOL0     C34993   6.758   1.389   7.043 -0.6992  0.1347  0.3869
  266MOL0     C34994   6.709   1.310   6.918 -0.2121  0.1742 -0.3522
  266MOL0     C34995   6.613   1.189   6.930 -0.6555 -0.1850  0.2054
  266MOL0     C34996   6.509   1.229   7.027  0.0071  0.1638 -0.7381
  266MOL0     N34997   6.410   1.123   7.045 -0.3396  0.3731 -0.4633
  266MOL0     C34998   6.277   1.130   7.093  0.5127 -0.2576 -0.2657
  266MOL0     C34999   6.219   1.014   7.073  0.5945 -0.0159 -0.7256
  266MOL0     C35000   6.078   0.974   7.107 -0.0916 -0.2284  0.8867
  266MOL0     C35001   6.037   1.013   7.246 -0.4974  0.1691 -0.0327
  266MOL0     C35002   5.894   0.957   7.279  0.3175  0.5653 -0.6381
  266MOL0     C35003   5.871   0.970   7.434  0.9170  0.8589 -0.5001
  266MOL0     O35004   5.927   0.849   7.506 -0.2101  0.0775 -0.6013
  266MOL0     C35005   5.849   0.735   7.528  0.4276  0.5859  0.6646
  266MOL0     C35006   5.736   0.700   7.447  0.8162  0.1540 -0.0523
  266MOL0     C35007   5.662   0.579   7.466  0.5925 -0.7955  0.0424
  266MOL0     C35008   5.694   0.492   7.567  0.2974 -0.1709  0.5758
  266MOL0     C35009   5.609   0.373   7.592 -0.0318 -0.0640 -0.1740
  266MOL0     O35010   5.637   0.316   7.720 -0.0790 -0.3369 -0.6324
  266MOL0     C35011   5.543   0.243   7.791 -0.0926  0.0361 -0.2884
  266MOL0     C35012   5.597   0.184   7.913  0.1745  0.0874 -0.1979
  266MOL0     C35013   5.514   0.112   7.996  0.3128  0.0260  0.0903
  266MOL0     C35014   5.378   0.087   7.956 -0.2413  0.1631  0.0266
  266MOL0     O35015   5.294  -0.002   8.017  0.0690 -0.5152 -0.2718
  266MOL0     C35016   5.351  -0.098   8.112 -0.7481  0.9280 -0.3878
  266MOL0     C35017   5.244  -0.204   8.124  0.5613 -0.3994  0.3990
  266MOL0     C35018   5.118  -0.149   8.185  0.0084 -0.6821  0.1849
  266MOL0     C35019   5.013  -0.254   8.188  0.1000 -0.2860 -0.6747
  266MOL0     C35020   4.871  -0.217   8.237  0.5029  0.6109  0.1381
  266MOL0     C35021   4.774  -0.335   8.221  0.7869  0.0089  0.2830
  266MOL0     C35022   4.654  -0.297   8.311 -0.6783 -0.4214  0.1312
  266MOL0     C35023   4.571  -0.414   8.319 -0.6256 -1.0803 -0.2478
  266MOL0    Cl35024   4.415  -0.370   8.406  0.0537  0.1085 -0.1913
  266MOL0     C35025   5.327   0.136   7.839  0.4558  0.3216  0.1295
  266MOL0     C35026   5.412   0.211   7.752  0.0094  0.1409  0.2229
  266MOL0     O35027   5.539   0.330   7.510  0.6015  0.9688 -0.1723
  266MOL0     C35028   5.807   0.521   7.644  0.9285  0.1776 -0.1261
  266MOL0     C35029   5.874   0.643   7.629  0.2542  0.1280  0.4166
  266MOL0     N35030   6.306   0.936   7.005 -0.2085 -0.4288  0.4189
  266MOL0     N35031   6.419   0.996   6.997  0.3297  0.5151  0.1854
  266MOL0     C35032   7.505   1.604   7.177  0.3617 -0.0854 -0.0989
  266MOL0     C35033   7.644   1.581   7.175 -0.6186  0.3991 -0.2132
  266MOL0     C35034   8.067   1.388   7.134 -0.7934 -0.6558  0.8452
  266MOL0     C35035   8.107   1.519   7.144  0.0357  0.9502  0.2490
  266MOL0     C35036   8.235   1.548   7.182 -0.2918 -0.1192  0.5909
  266MOL0     C35037   8.333   1.450   7.191  0.1519 -0.3398  0.4761
  266MOL0     O35038   8.468   1.459   7.230  0.4037 -0.2723 -0.3804
  266MOL0     C35039   8.519   1.586   7.286  0.7108  0.9632  0.0147
  266MOL0     C35040   8.557   1.680   7.170 -0.0012  1.0771 -0.3778
  266MOL0     C35041   8.670   1.633   7.080  0.2481 -0.2722 -0.1242
  266MOL0     C35042   8.628   1.574   6.934  0.7592 -0.2304  0.0481
  266MOL0     C35043   8.744   1.529   6.866  0.0478 -0.0919 -0.4571
  266MOL0     C35044   8.844   1.503   6.798 -0.1562  0.2971 -0.0440
  266MOL0     C35045   8.292   1.316   7.177  0.1747  0.5955 -0.2134
  266MOL0     C35046   8.161   1.281   7.141 -0.5003 -0.0296 -0.2471
  266MOL0     H35047   7.650   1.245   7.098  2.1258  0.8859  2.8676
  266MOL0     H35048   7.417   1.290   7.103 -2.1861  0.4726  1.0422
  266MOL0     H35049   7.253   1.402   6.956  2.3548 -0.7862  1.9576
  266MOL0     H35050   7.301   1.574   6.920 -2.6342 -0.7483 -2.6607
  266MOL0     H35051   7.080   1.598   6.879  1.1413  2.9354 -0.1479
  266MOL0     H35052   7.084   1.641   7.042 -0.6012  0.9982 -2.5002
  266MOL0     H35053   7.019   1.400   7.108 -0.5571  3.1942  1.4245
  266MOL0     H35054   7.017   1.346   6.947  1.7679  0.4675 -0.1966
  266MOL0     H35055   6.859   1.579   7.067  1.2545  0.2421 -0.5592
  266MOL0     H35056   6.847   1.542   6.906  1.8456 -0.3964  0.3524
  266MOL0     H35057   6.674   1.433   7.097 -0.4405 -0.8913  1.6755
  266MOL0     H35058   6.785   1.311   7.115 -1.4974  2.5129  3.4520
  266MOL0     H35059   6.799   1.277   6.866  0.2868 -0.6280  1.0044
  266MOL0     H35060   6.661   1.381   6.848  0.1328 -1.4424 -2.3167
  266MOL0     H35061   6.566   1.162   6.836 -0.1103 -1.3055  0.2349
  266MOL0     H35062   6.669   1.103   6.968  1.6831 -0.4668 -3.3707
  266MOL0     H35063   6.467   1.321   6.986 -0.8932 -0.2203 -0.7053
  266MOL0     H35064   6.555   1.234   7.126 -1.4411 -2.3652  0.1561
  266MOL0     H35065   6.223   1.216   7.132 -2.1227 -2.1541  0.5834
  266MOL0     H35066   6.062   0.865   7.105 -2.0765 -0.0963  3.7718
  266MOL0     H35067   6.019   1.030   7.035  1.2280  0.6229  0.4447
  266MOL0     H35068   6.028   1.122   7.253  1.0646  0.2007  3.2469
  266MOL0     H35069   6.106   0.965   7.316  2.7026  1.5163 -2.0144
  266MOL0     H35070   5.818   1.017   7.229 -0.5440 -0.6256 -0.8039
  266MOL0     H35071   5.874   0.853   7.252 -0.4534  0.3272  0.7368
  266MOL0     H35072   5.767   0.996   7.458  0.6430  1.5226 -2.2432
  266MOL0     H35073   5.926   1.056   7.474  0.1446  0.7090  0.9393
  266MOL0     H35074   5.697   0.761   7.366 -0.5600 -0.3464  0.2088
  266MOL0     H35075   5.575   0.561   7.403  0.6951  0.2118 -0.4145
  266MOL0     H35076   5.700   0.208   7.939  0.9038  2.5528 -4.4120
  266MOL0     H35077   5.545   0.078   8.095 -2.5770 -2.9064  0.1661
  266MOL0     H35078   5.371  -0.062   8.213  1.6519 -0.9174 -0.0931
  266MOL0     H35079   5.436  -0.150   8.066 -1.4314 -0.2692 -0.3630
  266MOL0     H35080   5.292  -0.286   8.179  0.4723 -0.0402  1.0171
  266MOL0     H35081   5.223  -0.251   8.027  1.1316  1.0709 -0.4793
  266MOL0     H35082   5.081  -0.056   8.141 -1.1798 -1.4025 -0.3863
  266MOL0     H35083   5.156  -0.117   8.282  4.5028  3.2489 -2.4202
  266MOL0     H35084   4.995  -0.288   8.085  0.6636  2.0391 -1.6091
  266MOL0     H35085   5.050  -0.339   8.246  1.4283  0.1825 -0.8182
  266MOL0     H35086   4.836  -0.134   8.175 -0.1800  0.6250  0.5328
  266MOL0     H35087   4.886  -0.195   8.344  2.0774  0.7829 -0.0898
  266MOL0     H35088   4.832  -0.422   8.252  0.3566 -0.6325 -0.6771
  266MOL0     H35089   4.747  -0.353   8.117  1.4093  0.0550  0.1060
  266MOL0     H35090   4.692  -0.279   8.412  0.7782  1.3497 -0.6839
  266MOL0     H35091   4.604  -0.207   8.275 -1.4360 -0.2315  1.5910
  266MOL0     H35092   4.606  -0.506   8.368 -1.7407 -0.7185  1.3131
  266MOL0     H35093   4.546  -0.430   8.214  0.9755  0.4605 -0.9042
  266MOL0     H35094   5.224   0.110   7.817  1.0157 -2.1632  0.2297
  266MOL0     H35095   5.367   0.248   7.660 -0.8801  1.9311  1.3226
  266MOL0     H35096   5.833   0.447   7.719 -0.8260 -1.7120 -1.2936
  266MOL0     H35097   5.950   0.661   7.704  1.0412  2.3199 -0.8131
  266MOL0     H35098   7.468   1.705   7.193 -3.1067 -0.9615 -1.4678
  266MOL0     H35099   7.713   1.657   7.209 -1.0287  0.8830 -0.4486
  266MOL0     H35100   8.031   1.595   7.127 -3.2356 -1.5954  2.2616
  266MOL0     H35101   8.260   1.653   7.195 -2.9454  0.8904 -1.5376
  266MOL0     H35102   8.611   1.564   7.341  0.8824  1.0676 -0.2251
  266MOL0     H35103   8.455   1.636   7.359 -0.3728  1.2281 -1.0816
  266MOL0     H35104   8.466   1.705   7.114 -2.3087 -0.8721  2.1824
  266MOL0     H35105   8.592   1.770   7.223  0.3928 -0.3724  1.9785
  266MOL0     H35106   8.728   1.565   7.143 -0.5046 -0.3317  0.5312
  266MOL0     H35107   8.733   1.721   7.064  1.6924 -1.6177 -2.5215
  266MOL0     H35108   8.545   1.503   6.945  0.2077  0.5210  0.8755
  266MOL0     H35109   8.585   1.656   6.876 -1.7761 -1.7262 -0.3642
  266MOL0     H35110   8.938   1.495   6.748 -0.1006  2.3968 -0.3734
  266MOL0     H35111   8.370   1.243   7.195  0.7967  1.3830  0.2912
  266MOL0     H35112   8.140   1.176   7.121  2.5290 -0.8633  0.4491
  267MOL0     O35113   3.230   5.488   8.228  0.0258 -0.9371 -0.6694
  267MOL0     C35114   3.271   5.600   8.256  0.6664 -0.4191 -0.2240
  267MOL0     O35115   3.184   5.709   8.268 -0.5504  0.5375 -0.2149
  267MOL0     C35116   3.050   5.699   8.260  0.2726  0.3703 -0.4800
  267MOL0     C35117   2.998   5.750   8.145 -0.2681  0.0306  0.8844
  267MOL0     C35118   2.863   5.747   8.114 -0.1662 -0.6397  0.1930
  267MOL0     C35119   2.775   5.719   8.225  0.5373 -0.3634  0.4961
  267MOL0     O35120   2.640   5.718   8.202 -0.0324  0.2603 -0.5253
  267MOL0     C35121   2.580   5.841   8.161  0.7800  0.3060  0.2772
  267MOL0     C35122   2.512   5.833   8.022  0.1040 -0.3024 -0.3157
  267MOL0     C35123   2.390   5.735   8.030 -0.4352 -0.4577 -0.3311
  267MOL0     C35124   2.281   5.760   7.919 -0.4566  0.3628 -0.0672
  267MOL0     C35125   2.176   5.650   7.915  0.3448 -0.4535 -0.9233
  267MOL0     C35126   2.040   5.690   7.850 -0.4193  0.7025 -0.3355
  267MOL0     C35127   1.953   5.564   7.837 -1.0534  0.3277  0.1922
  267MOL0     C35128   1.826   5.598   7.767  0.1023  0.2200  0.5722
  267MOL0     N35129   1.738   5.487   7.750 -0.2728 -1.0536 -0.5846
  267MOL0     C35130   1.722   5.409   7.643 -0.5260  0.1226  0.0965
  267MOL0     C35131   1.628   5.319   7.679 -0.8975  0.1136  0.1167
  267MOL0     C35132   1.567   5.200   7.602  0.8105 -0.8676  0.0327
  267MOL0     C35133   1.424   5.225   7.551 -0.2299 -0.0861  0.1447
  267MOL0     C35134   1.418   5.370   7.501 -1.1354 -0.2359 -0.1277
  267MOL0     C35135   1.284   5.404   7.449  0.4276  0.1621  0.1540
  267MOL0     O35136   1.249   5.327   7.330 -0.3764  0.5638 -0.3895
  267MOL0     C35137   1.166   5.395   7.243 -0.3327  0.5365 -0.3825
  267MOL0     C35138   1.031   5.404   7.275 -1.2773  0.2816 -0.3916
  267MOL0     C35139   0.952   5.470   7.179 -0.6540  0.4796 -0.0305
  267MOL0     C35140   1.011   5.504   7.055  1.2695 -0.3346  1.1600
  267MOL0     C35141   0.931   5.583   6.956 -0.3633 -0.0885  0.0346
  267MOL0     O35142   0.806   5.624   7.008 -0.0770  0.3429 -0.3915
  267MOL0     C35143   0.700   5.657   6.931  0.6640 -0.2554 -0.1599
  267MOL0     C35144   0.657   5.597   6.811  0.8132 -0.9289 -0.5887
  267MOL0     C35145   0.545   5.641   6.736 -1.1142 -0.0947 -0.8031
  267MOL0     C35146   0.472   5.759   6.779 -0.7245  0.6383  0.6625
  267MOL0     O35147   0.359   5.783   6.706 -0.3301  0.2724 -0.0847
  267MOL0     C35148   0.242   5.784   6.779  0.5668  0.1622 -0.2356
  267MOL0     C35149   0.124   5.827   6.688  0.6555 -0.6207  0.5677
  267MOL0     C35150  -0.007   5.850   6.765  0.8544  0.2917  0.3683
  267MOL0     C35151  -0.127   5.887   6.673 -0.2459  0.0866  0.0763
  267MOL0     C35152  -0.250   5.923   6.749  0.6209  0.0099  0.1145
  267MOL0     C35153  -0.369   5.885   6.665  0.6603  1.1461 -0.8078
  267MOL0     C35154  -0.400   5.734   6.684  0.4398  0.7559  0.1412
  267MOL0     C35155  -0.504   5.717   6.795  0.1781 -0.1370  1.4273
  267MOL0    Cl35156  -0.668   5.757   6.720 -0.5458  0.0672 -0.0753
  267MOL0     C35157   0.513   5.820   6.900  0.0820  0.2973  0.0890
  267MOL0     C35158   0.625   5.770   6.974  0.7634  0.1607  0.1119
  267MOL0     O35159   0.962   5.589   6.840  0.7501  0.3300  0.0359
  267MOL0     C35160   1.137   5.467   7.024 -0.1208 -0.2488  0.9895
  267MOL0     C35161   1.211   5.418   7.118  0.1553 -0.3786  0.3510
  267MOL0     N35162   1.588   5.359   7.807  0.3602  0.2341  0.0055
  267MOL0     N35163   1.652   5.458   7.847 -0.9704 -0.5339  0.6971
  267MOL0     C35164   2.826   5.675   8.346  0.1601  0.4028 -0.0559
  267MOL0     C35165   2.964   5.670   8.372 -0.0703  0.1457  0.0563
  267MOL0     C35166   3.409   5.615   8.307 -0.2254  1.0567  0.6921
  267MOL0     C35167   3.459   5.719   8.390 -0.0129 -0.0981  0.6121
  267MOL0     C35168   3.589   5.717   8.433 -0.2067  0.1225 -0.4812
  267MOL0     C35169   3.683   5.623   8.398 -0.1569 -1.2668 -0.0699
  267MOL0     O35170   3.811   5.628   8.435  0.9978 -0.4590 -0.0005
  267MOL0     C35171   3.865   5.748   8.498 -0.1828  0.2844 -0.2412
  267MOL0     C35172   4.015   5.721   8.515 -0.6311 -0.1374  0.3699
  267MOL0     C35173   4.050   5.640   8.639 -0.3621 -0.4168 -0.2262
  267MOL0     C35174   4.011   5.688   8.781  0.1124 -0.2437  0.6199
  267MOL0     C35175   4.105   5.771   8.844  0.6964  0.2596 -0.1199
  267MOL0     C35176   4.194   5.831   8.907 -0.7430 -0.2332  0.4266
  267MOL0     C35177   3.636   5.519   8.315  0.5803  0.3134 -0.2886
  267MOL0     C35178   3.504   5.515   8.267  0.2300 -0.8826 -0.4562
  267MOL0     H35179   3.070   5.784   8.070 -0.3781 -1.9045 -0.1621
  267MOL0     H35180   2.823   5.776   8.018 -1.8153 -0.1666  0.9927
  267MOL0     H35181   2.651   5.925   8.154  1.7402 -0.5884 -1.7925
  267MOL0     H35182   2.495   5.867   8.224 -0.5257 -0.2590 -1.2022
  267MOL0     H35183   2.580   5.787   7.950  0.0741 -1.2690  0.2605
  267MOL0     H35184   2.473   5.921   7.970 -0.4827 -0.1379  0.3886
  267MOL0     H35185   2.341   5.756   8.125  0.5218 -2.2830  0.6169
  267MOL0     H35186   2.433   5.634   8.029 -1.5836 -1.0034  1.5761
  267MOL0     H35187   2.238   5.858   7.942  2.8168  0.9246  5.2986
  267MOL0     H35188   2.338   5.768   7.826 -0.5505 -2.1149 -0.4057
  267MOL0     H35189   2.160   5.611   8.016  0.5301  0.2872 -0.6065
  267MOL0     H35190   2.203   5.565   7.852 -1.2710 -0.8230 -1.1630
  267MOL0     H35191   2.055   5.717   7.745  0.9755  0.1696 -0.2885
  267MOL0     H35192   1.982   5.767   7.902 -2.1559 -0.7451 -0.0339
  267MOL0     H35193   1.998   5.485   7.777  0.5906  0.6606  0.9161
  267MOL0     H35194   1.933   5.527   7.938  1.1029  1.0052  0.9366
  267MOL0     H35195   1.856   5.636   7.669 -0.0178 -0.6978  0.1668
  267MOL0     H35196   1.771   5.675   7.822  0.7538 -0.1734  1.8216
  267MOL0     H35197   1.767   5.417   7.545  1.2403  3.4038  0.9968
  267MOL0     H35198   1.569   5.104   7.654  2.1711 -1.7355 -1.4995
  267MOL0     H35199   1.629   5.199   7.512  0.0649  1.6949 -0.5889
  267MOL0     H35200   1.353   5.215   7.634 -0.7178  0.2717 -0.2200
  267MOL0     H35201   1.405   5.149   7.475 -0.0178 -2.1530  2.0662
  267MOL0     H35202   1.442   5.452   7.570 -2.2137  0.0952 -0.1317
  267MOL0     H35203   1.494   5.373   7.423 -1.9371 -0.1023 -0.9078
  267MOL0     H35204   1.283   5.511   7.428 -1.1442 -0.2995 -2.6106
  267MOL0     H35205   1.209   5.384   7.526  0.3169 -1.1165 -0.2487
  267MOL0     H35206   0.989   5.364   7.366 -1.5753  0.8014 -0.2987
  267MOL0     H35207   0.847   5.486   7.200 -0.7486  1.7059 -1.2863
  267MOL0     H35208   0.701   5.502   6.780 -0.3528 -1.7133  0.1095
  267MOL0     H35209   0.536   5.586   6.643  0.8083  1.1075 -1.7738
  267MOL0     H35210   0.255   5.852   6.864  2.0326 -3.1236  2.4555
  267MOL0     H35211   0.227   5.686   6.826  1.3684  0.4640  0.6857
  267MOL0     H35212   0.112   5.748   6.614  1.4347 -0.8602  0.6843
  267MOL0     H35213   0.155   5.925   6.650  0.4387  0.6294  3.3036
  267MOL0     H35214   0.018   5.934   6.830 -0.0338 -0.0026  1.1075
  267MOL0     H35215  -0.033   5.761   6.823  1.4435 -0.6645 -0.7679
  267MOL0     H35216  -0.100   5.977   6.617 -1.3233  0.1116 -0.4278
  267MOL0     H35217  -0.148   5.811   6.597  0.3628  0.6868 -0.7164
  267MOL0     H35218  -0.269   6.030   6.763  2.5590  0.4628 -0.4023
  267MOL0     H35219  -0.262   5.867   6.842 -0.6624 -1.0611 -0.6691
  267MOL0     H35220  -0.349   5.913   6.562  1.7420 -1.2683 -1.3222
  267MOL0     H35221  -0.455   5.944   6.699 -0.6452 -0.4203 -1.2566
  267MOL0     H35222  -0.439   5.701   6.587 -0.1454 -0.1486  0.6666
  267MOL0     H35223  -0.311   5.675   6.708  0.0145  0.8557  2.1640
  267MOL0     H35224  -0.493   5.784   6.881  0.3899  0.2508  1.1038
  267MOL0     H35225  -0.501   5.614   6.831 -2.2057 -0.6390  0.3480
  267MOL0     H35226   0.445   5.896   6.937 -1.9765 -1.2729 -0.2764
  267MOL0     H35227   0.655   5.830   7.059 -2.4103  1.5256  0.4295
  267MOL0     H35228   1.183   5.481   6.927 -1.1566 -0.0080  0.5200
  267MOL0     H35229   1.315   5.402   7.095 -0.5636 -1.5105 -2.6145
  267MOL0     H35230   2.754   5.653   8.424 -2.4699  1.6280 -2.0007
  267MOL0     H35231   3.002   5.635   8.468 -0.5147 -2.0817 -0.5334
  267MOL0     H35232   3.394   5.806   8.402 -0.8132 -0.3896 -1.2778
  267MOL0     H35233   3.620   5.803   8.492  3.1396 -0.7880 -0.7429
  267MOL0     H35234   3.816   5.769   8.594  1.7635 -0.6900  1.0297
  267MOL0     H35235   3.854   5.829   8.426  0.0417 -0.7609 -1.4826
  267MOL0     H35236   4.053   5.674   8.424 -2.2956 -0.0398 -0.3996
  267MOL0     H35237   4.060   5.819   8.533 -3.2339  0.9379  1.4069
  267MOL0     H35238   4.159   5.634   8.633 -0.2487  1.3188 -0.2552
  267MOL0     H35239   4.009   5.538   8.635 -1.0606 -0.5363  4.4044
  267MOL0     H35240   3.921   5.750   8.784  0.7473  0.6774  1.5596
  267MOL0     H35241   3.987   5.605   8.848  1.1015 -2.6663 -1.8229
  267MOL0     H35242   4.275   5.864   8.969  1.8101 -2.1301 -1.6657
  267MOL0     H35243   3.704   5.440   8.285  2.2381  1.9938 -1.2172
  267MOL0     H35244   3.475   5.430   8.204 -3.5665 -0.9218  1.0434
  268MOL0     O35245   8.808  10.430  10.514 -0.2601  0.1354 -0.0701
  268MOL0     C35246   8.819  10.348  10.604  0.9471 -0.3475 -0.4678
  268MOL0     O35247   8.712  10.296  10.671 -0.0534 -0.1987 -0.2372
  268MOL0     C35248   8.590  10.353  10.650  0.1251  0.7403  0.3858
  268MOL0     C35249   8.519  10.386  10.765 -0.7291 -0.7337 -0.3823
  268MOL0     C35250   8.394  10.439  10.757 -0.4065 -0.0793 -0.1967
  268MOL0     C35251   8.331  10.449  10.629 -0.3365  0.3979 -0.3338
  268MOL0     O35252   8.202  10.492  10.643  0.2041  0.5013 -0.4527
  268MOL0     C35253   8.127  10.523  10.527 -0.7280 -0.6947  0.1262
  268MOL0     C35254   7.979  10.537  10.577 -0.2753 -0.1546 -0.0600
  268MOL0     C35255   7.884  10.605  10.480  1.2864  0.6396 -0.0829
  268MOL0     C35256   7.766  10.669  10.555  0.1071 -0.6479  0.4957
  268MOL0     C35257   7.698  10.778  10.474  0.2263  0.5680  0.0487
  268MOL0     C35258   7.604  10.859  10.582  0.2111 -0.4061  0.1824
  268MOL0     C35259   7.497  10.945  10.513 -0.0461  0.0467 -0.7813
  268MOL0     C35260   7.420  11.034  10.612  0.2059 -0.0223 -0.1486
  268MOL0     N35261   7.310  11.088  10.537  0.0612 -0.4207  0.8934
  268MOL0     C35262   7.194  11.014  10.510 -0.4182 -0.2787  0.7712
  268MOL0     C35263   7.111  11.110  10.464  1.1857 -0.5357  0.2867
  268MOL0     C35264   6.958  11.102  10.441  0.2974 -0.2307 -0.0019
  268MOL0     C35265   6.915  11.110  10.294 -0.2227  0.5425  0.6062
  268MOL0     C35266   6.765  11.076  10.283 -0.1429  0.0555  1.2537
  268MOL0     C35267   6.675  11.173  10.351 -0.2382  0.4624 -0.6440
  268MOL0     O35268   6.688  11.286  10.267 -0.3778 -0.5267 -0.8970
  268MOL0     C35269   6.597  11.381  10.281 -0.5492 -0.1050  0.0983
  268MOL0     C35270   6.633  11.519  10.304  0.0542  0.4522 -0.0518
  268MOL0     C35271   6.532  11.617  10.305  0.7281 -0.2281 -0.1408
  268MOL0     C35272   6.400  11.594  10.256  0.0438  0.7141  0.4262
  268MOL0     C35273   6.295  11.694  10.254  0.3223 -0.8090 -0.3313
  268MOL0     O35274   6.168  11.651  10.259  0.0021  1.0545  0.7991
  268MOL0     C35275   6.055  11.728  10.242  1.0680  0.5193  0.7033
  268MOL0     C35276   6.034  11.839  10.158 -0.1539  0.5552  1.1843
  268MOL0     C35277   5.913  11.903  10.155 -0.6560 -0.7036 -0.0350
  268MOL0     C35278   5.805  11.861  10.232  0.0381 -0.5451  0.1101
  268MOL0     O35279   5.685  11.901  10.197  0.4555 -0.4285  0.8787
  268MOL0     C35280   5.660  11.958  10.063 -0.2189 -0.2345 -0.8905
  268MOL0     C35281   5.511  11.983  10.052  0.6838  0.7937  0.5936
  268MOL0     C35282   5.418  11.858  10.098 -0.2646  0.4570  0.0137
  268MOL0     C35283   5.280  11.879  10.027  0.0843  0.6327  0.3438
  268MOL0     C35284   5.193  11.755  10.043 -0.8256 -0.2337 -0.4962
  268MOL0     C35285   5.050  11.779  10.005 -0.3512  0.2737  0.0420
  268MOL0     C35286   5.028  11.815   9.855 -0.1308 -0.1879  0.1517
  268MOL0     C35287   5.038  11.965   9.816 -0.2137  0.4211  0.4499
  268MOL0    Cl35288   4.889  12.043   9.890  0.1411 -0.3416 -0.4937
  268MOL0     C35289   5.814  11.739  10.303 -0.3523  0.0159 -0.3726
  268MOL0     C35290   5.942  11.682  10.312 -0.3676  0.0352  0.0154
  268MOL0     O35291   6.324  11.815  10.261 -0.2344 -0.9014  0.2683
  268MOL0     C35292   6.375  11.460  10.216  0.3216  1.0281 -0.7321
  268MOL0     C35293   6.469  11.361  10.238 -0.2385  0.2340  0.3977
  268MOL0     N35294   7.174  11.236  10.471 -0.4361  0.1657 -0.8099
  268MOL0     N35295   7.293  11.219  10.516 -0.0739 -0.5189  0.0729
  268MOL0     C35296   8.396  10.414  10.514 -0.2662 -0.0582  0.0016
  268MOL0     C35297   8.525  10.366  10.516 -0.7474  1.1639  0.2677
  268MOL0     C35298   8.954  10.301  10.643 -0.0938  0.5848  0.4567
  268MOL0     C35299   9.072  10.343  10.595  0.4062 -0.9692 -0.5147
  268MOL0     C35300   9.197  10.294  10.643  1.0625 -0.3070  0.4825
  268MOL0     C35301   9.202  10.199  10.746  0.2136  0.5205 -0.6041
  268MOL0     O35302   9.323  10.146  10.790  0.5041  0.2174 -0.1343
  268MOL0     C35303   9.330  10.038  10.885 -0.7841 -0.6684 -0.0281
  268MOL0     C35304   9.480  10.002  10.930  1.0354 -0.1466 -0.4775
  268MOL0     C35305   9.557   9.918  10.831 -0.6110  0.3145  1.0127
  268MOL0     C35306   9.701   9.888  10.887  0.5271  1.0138  0.2387
  268MOL0     C35307   9.704   9.811  11.009 -0.2004  0.5559 -0.2851
  268MOL0     C35308   9.695   9.751  11.114 -0.4825 -0.5078  0.1788
  268MOL0     C35309   9.081  10.146  10.790  0.1276 -0.1671 -0.4728
  268MOL0     C35310   8.961  10.193  10.736  0.4552 -0.1183  0.1883
  268MOL0     H35311   8.569  10.379  10.861  0.3678  0.0233 -0.8758
  268MOL0     H35312   8.336  10.481  10.838  0.5942  1.4855 -0.2362
  268MOL0     H35313   8.137  10.441  10.456  0.8897 -0.2278 -0.2209
  268MOL0     H35314   8.162  10.614  10.476 -0.8117 -1.0048 -0.4877
  268MOL0     H35315   7.977  10.599  10.667 -2.3835 -0.2860  0.0393
  268MOL0     H35316   7.934  10.442  10.607  2.4785 -1.0651  1.5554
  268MOL0     H35317   7.850  10.526  10.412 -0.9078  1.7466 -0.3638
  268MOL0     H35318   7.929  10.673  10.408  0.2381  0.2147 -1.1746
  268MOL0     H35319   7.685  10.599  10.578 -2.1018  1.2105 -1.0965
  268MOL0     H35320   7.801  10.713  10.649  0.1057 -1.8274  1.0617
  268MOL0     H35321   7.636  10.745  10.390 -0.6787  0.1573  0.8565
  268MOL0     H35322   7.772  10.853  10.444 -0.4877  0.9085 -0.8925
  268MOL0     H35323   7.675  10.923  10.634 -0.6976  3.4045 -2.8204
  268MOL0     H35324   7.548  10.796  10.652 -0.8144 -0.7552 -0.9165
  268MOL0     H35325   7.535  11.000  10.427 -1.1097  0.5961 -0.9126
  268MOL0     H35326   7.436  10.869  10.462 -0.6601 -0.2310  0.3190
  268MOL0     H35327   7.487  11.115  10.642  0.1068  1.5137 -3.5696
  268MOL0     H35328   7.378  10.976  10.695  1.2412 -0.3728  0.1369
  268MOL0     H35329   7.179  10.907  10.518 -2.5277 -0.1231 -0.4176
  268MOL0     H35330   6.916  11.188  10.495  1.0436  0.3409 -0.3210
  268MOL0     H35331   6.922  11.011  10.491 -0.2972 -0.0549 -0.0920
  268MOL0     H35332   6.970  11.033  10.238  1.9843  1.1314  1.8494
  268MOL0     H35333   6.941  11.199  10.237  3.2926 -1.9520 -2.1442
  268MOL0     H35334   6.721  11.073  10.182  1.5433  3.2587  0.2956
  268MOL0     H35335   6.749  10.974  10.320  0.2544  0.1998  1.8275
  268MOL0     H35336   6.695  11.195  10.456  0.7903  5.6370 -1.6635
  268MOL0     H35337   6.573  11.133  10.342 -0.0823  0.3578 -2.5579
  268MOL0     H35338   6.734  11.544  10.334 -0.7203  1.2497  2.1026
  268MOL0     H35339   6.562  11.715  10.341 -0.7908 -0.0462  0.7559
  268MOL0     H35340   6.118  11.869  10.096  0.2446 -0.8757  0.9897
  268MOL0     H35341   5.898  11.985  10.086  1.7501 -1.2707 -1.3522
  268MOL0     H35342   5.696  11.887   9.988 -2.1841 -0.2747 -1.8327
  268MOL0     H35343   5.717  12.049  10.039  1.5340 -1.8506 -3.3101
  268MOL0     H35344   5.488  11.994   9.945 -0.4718 -0.6943  0.6686
  268MOL0     H35345   5.492  12.069  10.117 -0.6824 -0.9264  2.6097
  268MOL0     H35346   5.412  11.865  10.207 -0.1043  0.5188  0.0195
  268MOL0     H35347   5.458  11.764  10.060 -0.7487  0.0277  0.5564
  268MOL0     H35348   5.236  11.975  10.054  4.4270  2.5914  1.4166
  268MOL0     H35349   5.303  11.882   9.920 -0.3627 -0.7117  0.1899
  268MOL0     H35350   5.200  11.717  10.145  3.2346 -1.2986 -0.9976
  268MOL0     H35351   5.227  11.668   9.986  1.6354 -1.2821  2.3173
  268MOL0     H35352   4.999  11.848  10.073 -0.4954 -0.5467  0.7856
  268MOL0     H35353   4.996  11.686  10.028  0.0672  0.0265  0.0401
  268MOL0     H35354   5.103  11.758   9.801  0.4420 -0.7111  1.4569
  268MOL0     H35355   4.930  11.775   9.827  0.9483 -0.8472 -3.0763
  268MOL0     H35356   5.020  11.975   9.708 -1.5023 -1.5814  0.4433
  268MOL0     H35357   5.132  12.016   9.839  0.5328 -1.6151  2.1829
  268MOL0     H35358   5.725  11.707  10.356 -0.8283 -0.7675 -1.6000
  268MOL0     H35359   5.952  11.600  10.383  3.4194  1.1867  1.0470
  268MOL0     H35360   6.278  11.424  10.182  1.8703 -4.5881 -0.1432
  268MOL0     H35361   6.444  11.268  10.188 -0.7676  1.2236 -1.2682
  268MOL0     H35362   8.348  10.425  10.417 -0.0351  0.3097 -0.0745
  268MOL0     H35363   8.577  10.329  10.429 -0.4341 -0.3607  1.0492
  268MOL0     H35364   9.071  10.424  10.523 -2.4102  2.6918  3.1823
  268MOL0     H35365   9.287  10.340  10.601  0.4265  3.3289  2.7041
  268MOL0     H35366   9.280   9.948  10.847 -2.2195 -0.3907  1.1188
  268MOL0     H35367   9.267  10.067  10.969 -2.9080 -0.5995 -1.5637
  268MOL0     H35368   9.529  10.099  10.945  0.8716  0.3864 -2.8329
  268MOL0     H35369   9.465   9.953  11.026 -3.0217 -3.1346 -2.3222
  268MOL0     H35370   9.567   9.964  10.733 -0.9450 -2.7116 -0.5531
  268MOL0     H35371   9.498   9.828  10.814  0.4978 -0.1340 -0.6835
  268MOL0     H35372   9.757   9.838  10.807 -1.7085 -1.6912  0.2223
  268MOL0     H35373   9.744   9.985  10.911  0.0810  1.0397  0.9535
  268MOL0     H35374   9.687   9.695  11.205  0.1828  0.3771  0.7931
  268MOL0     H35375   9.077  10.078  10.874  0.0782  1.1161  0.5976
  268MOL0     H35376   8.864  10.159  10.769  0.9789  1.1292  3.3636
  269MOL0     O35377   5.361   4.700   9.542 -0.1910 -0.3223  0.4608
  269MOL0     C35378   5.457   4.665   9.606  1.2464 -0.5049 -1.0302
  269MOL0     O35379   5.444   4.586   9.719  0.6642 -0.1858 -0.5285
  269MOL0     C35380   5.345   4.487   9.745  0.6068 -0.3811 -0.3668
  269MOL0     C35381   5.263   4.438   9.644 -0.3643 -0.5911 -0.7980
  269MOL0     C35382   5.155   4.356   9.673 -0.0051  0.1071  0.3180
  269MOL0     C35383   5.132   4.320   9.804 -0.1593  0.0244 -0.0822
  269MOL0     O35384   5.027   4.257   9.817  0.4259 -0.0999 -0.5444
  269MOL0     C35385   4.961   4.227   9.939 -0.4372  0.4285 -0.1557
  269MOL0     C35386   4.822   4.171   9.920 -0.4669 -0.9444  0.6529
  269MOL0     C35387   4.733   4.274   9.841  0.3046  0.2449 -0.3038
  269MOL0     C35388   4.590   4.227   9.821 -0.4778 -0.0225  0.3104
  269MOL0     C35389   4.516   4.325   9.730 -0.6740 -0.8630  0.2934
  269MOL0     C35390   4.369   4.290   9.741 -0.4279 -0.7996 -0.3380
  269MOL0     C35391   4.266   4.408   9.721  0.1228 -0.1895 -0.9544
  269MOL0     C35392   4.276   4.469   9.586  0.5002 -0.2693  0.0486
  269MOL0     N35393   4.179   4.583   9.578  0.6633  0.4813 -0.2874
  269MOL0     C35394   4.039   4.580   9.568 -0.3207  0.3223  0.5520
  269MOL0     C35395   4.012   4.715   9.570  0.7319  0.1631  0.2146
  269MOL0     C35396   3.878   4.785   9.551  0.1313 -0.0782 -0.6972
  269MOL0     C35397   3.778   4.698   9.474 -0.4839  0.4535  0.3434
  269MOL0     C35398   3.642   4.760   9.468 -0.8195 -0.0948  1.1829
  269MOL0     C35399   3.535   4.665   9.456  0.6633  0.0373  0.4419
  269MOL0     O35400   3.416   4.740   9.449  0.4280  0.5338 -0.1896
  269MOL0     C35401   3.302   4.688   9.393  1.0164 -0.7231 -0.6369
  269MOL0     C35402   3.204   4.785   9.381 -0.5200  0.7703  0.6345
  269MOL0     C35403   3.084   4.757   9.313 -0.0111  0.5370 -0.3966
  269MOL0     C35404   3.052   4.629   9.259 -0.6515 -0.5514 -0.0087
  269MOL0     C35405   2.936   4.612   9.175  0.2346 -0.3444  0.1206
  269MOL0     O35406   2.834   4.713   9.178  1.2598  0.7111  0.4678
  269MOL0     C35407   2.734   4.696   9.086 -0.0379  0.3721 -0.7831
  269MOL0     C35408   2.649   4.584   9.096 -0.7925 -0.2143  0.2805
  269MOL0     C35409   2.558   4.566   8.993 -0.2308 -0.2413 -0.6313
  269MOL0     C35410   2.562   4.654   8.882  0.5423 -0.1609  1.2356
  269MOL0     O35411   2.464   4.633   8.795  0.0145 -0.7465  0.5793
  269MOL0     C35412   2.406   4.758   8.735 -0.5457 -0.3534 -0.6583
  269MOL0     C35413   2.270   4.732   8.663 -0.5184 -0.6398  0.2044
  269MOL0     C35414   2.177   4.845   8.671  0.4356 -0.5181 -0.2537
  269MOL0     C35415   2.242   4.965   8.595 -0.1731 -0.0827 -0.7443
  269MOL0     C35416   2.134   5.046   8.518 -0.3361  0.5655 -0.0027
  269MOL0     C35417   2.210   5.166   8.456  0.7312  1.0329  1.2714
  269MOL0     C35418   2.135   5.204   8.327 -0.6130  0.1042 -0.1486
  269MOL0     C35419   1.997   5.260   8.353  0.3447 -0.4996 -0.2023
  269MOL0    Cl35420   1.905   5.248   8.203  0.2312 -0.2529 -0.6467
  269MOL0     C35421   2.656   4.752   8.866  0.0332  0.1234  0.0556
  269MOL0     C35422   2.745   4.773   8.971 -0.2906  0.7574 -0.5425
  269MOL0     O35423   2.944   4.512   9.098  0.5062 -0.4230 -0.4093
  269MOL0     C35424   3.148   4.533   9.265 -0.3452 -0.0438  0.8013
  269MOL0     C35425   3.270   4.561   9.331  0.0377 -1.2535  0.5727
  269MOL0     N35426   4.123   4.785   9.608  0.1827 -0.1972  0.5377
  269MOL0     N35427   4.223   4.710   9.600 -0.2167  0.1918 -0.6434
  269MOL0     C35428   5.207   4.373   9.909  0.0677 -0.3034 -0.3241
  269MOL0     C35429   5.321   4.457   9.876 -0.2521 -1.0521  0.2291
  269MOL0     C35430   5.588   4.716   9.563 -0.1464  0.2901 -0.2630
  269MOL0     C35431   5.614   4.743   9.428 -0.7282 -1.4813  0.8647
  269MOL0     C35432   5.739   4.788   9.375 -0.7509  0.2389 -0.5989
  269MOL0     C35433   5.843   4.810   9.473 -0.2990 -0.2628 -1.3705
  269MOL0     O35434   5.977   4.830   9.431  0.2612  0.1847  0.0734
  269MOL0     C35435   6.055   4.920   9.512 -0.3612  0.6870 -0.1375
  269MOL0     C35436   6.189   4.937   9.451  0.1092 -1.0167 -0.0892
  269MOL0     C35437   6.167   5.039   9.341 -0.5449 -0.0112  0.0141
  269MOL0     C35438   6.289   5.066   9.246  0.0106  0.3398 -0.3791
  269MOL0     C35439   6.307   4.957   9.149  0.6662  0.1191  0.5835
  269MOL0     C35440   6.317   4.866   9.068  0.9125  0.4155 -1.1143
  269MOL0     C35441   5.819   4.776   9.606  1.0440  0.5611  0.3809
  269MOL0     C35442   5.694   4.728   9.656  0.1105 -0.9607  0.1295
  269MOL0     H35443   5.283   4.478   9.545 -1.1008  2.4476  0.1772
  269MOL0     H35444   5.091   4.311   9.598  1.0593 -2.6379  0.9503
  269MOL0     H35445   4.947   4.317   9.998  0.3410  0.0322  0.6531
  269MOL0     H35446   5.016   4.147   9.989 -2.8285 -0.7194  0.7923
  269MOL0     H35447   4.777   4.145  10.016 -0.1614  0.1500  1.1167
  269MOL0     H35448   4.833   4.080   9.861 -2.4447  0.6632 -2.4934
  269MOL0     H35449   4.779   4.289   9.742  0.2590  5.1947  0.2046
  269MOL0     H35450   4.721   4.372   9.887  1.0620  1.1343 -1.8995
  269MOL0     H35451   4.589   4.123   9.787  1.1952 -0.5020  1.5775
  269MOL0     H35452   4.548   4.215   9.922  1.6114 -3.3396  0.9426
  269MOL0     H35453   4.556   4.327   9.628 -1.5925  0.6238 -0.0635
  269MOL0     H35454   4.548   4.426   9.755 -0.4603  0.0625 -3.1319
  269MOL0     H35455   4.352   4.255   9.843  0.0591  1.5368  0.6191
  269MOL0     H35456   4.348   4.208   9.672 -1.7585 -1.6389  1.0099
  269MOL0     H35457   4.165   4.367   9.722 -0.7893  1.9034  0.9885
  269MOL0     H35458   4.279   4.474   9.807 -2.4010 -1.2562  0.3597
  269MOL0     H35459   4.242   4.395   9.513 -0.7837  0.8777 -0.5717
  269MOL0     H35460   4.372   4.514   9.562  0.0593 -0.9949 -3.6612
  269MOL0     H35461   3.972   4.503   9.532 -0.7576  0.2943  1.4061
  269MOL0     H35462   3.896   4.874   9.490 -1.0691  1.1949  0.7272
  269MOL0     H35463   3.836   4.810   9.649  0.3851 -1.8619 -0.0880
  269MOL0     H35464   3.770   4.594   9.505 -0.2810 -0.0329 -1.1202
  269MOL0     H35465   3.801   4.682   9.368  0.9250  0.3994  0.6458
  269MOL0     H35466   3.635   4.815   9.562  2.2381  1.1165  0.8150
  269MOL0     H35467   3.629   4.839   9.394 -1.2439 -0.1075  1.2428
  269MOL0     H35468   3.543   4.594   9.539  2.8535 -1.3592 -0.8897
  269MOL0     H35469   3.549   4.614   9.361  0.8847  3.0059 -1.2363
  269MOL0     H35470   3.236   4.880   9.423 -1.0964  0.8421  0.9211
  269MOL0     H35471   3.013   4.837   9.299  0.4975  1.6550  2.6863
  269MOL0     H35472   2.666   4.513   9.177  1.4769 -1.3623 -1.0973
  269MOL0     H35473   2.487   4.488   9.016 -0.4764  0.6159  1.7782
  269MOL0     H35474   2.471   4.804   8.661  1.9359 -0.9183  1.0694
  269MOL0     H35475   2.377   4.833   8.808 -0.0714 -0.4715 -0.3456
  269MOL0     H35476   2.230   4.644   8.714 -2.4317  0.0923  0.0484
  269MOL0     H35477   2.284   4.698   8.560  0.3962  0.9656 -0.2465
  269MOL0     H35478   2.133   4.880   8.764  0.4688  1.4169 -0.9199
  269MOL0     H35479   2.092   4.815   8.608  1.0453  0.9886 -1.8642
  269MOL0     H35480   2.278   5.026   8.678  1.1727  1.0534 -2.1077
  269MOL0     H35481   2.322   4.930   8.529 -0.7148 -4.0757  0.4276
  269MOL0     H35482   2.057   5.079   8.588 -0.2335  2.7647 -0.8577
  269MOL0     H35483   2.084   4.980   8.446 -0.2902  0.0165  0.4669
  269MOL0     H35484   2.303   5.127   8.414 -0.1643  2.0018 -1.9273
  269MOL0     H35485   2.224   5.251   8.524 -0.0442  0.4282  2.2008
  269MOL0     H35486   2.198   5.282   8.285  0.1354  0.1290  0.9716
  269MOL0     H35487   2.125   5.119   8.259  1.3441  0.1782 -0.5805
  269MOL0     H35488   2.015   5.363   8.385 -1.9365  1.1045 -3.5903
  269MOL0     H35489   1.941   5.203   8.428 -0.5384  0.4131 -0.1535
  269MOL0     H35490   2.671   4.815   8.779 -0.7936  2.2164  1.3399
  269MOL0     H35491   2.827   4.841   8.951  0.3688  0.5861  1.4159
  269MOL0     H35492   3.126   4.438   9.218 -3.0455  1.8728 -2.3137
  269MOL0     H35493   3.342   4.481   9.321  2.8899  1.3106 -1.1735
  269MOL0     H35494   5.181   4.353  10.012 -1.0584 -1.5345 -0.8157
  269MOL0     H35495   5.382   4.497   9.957  1.6995  0.0823 -1.7023
  269MOL0     H35496   5.522   4.737   9.370  0.1371  3.9828 -1.6849
  269MOL0     H35497   5.760   4.807   9.271  0.6844  4.3570  0.2411
  269MOL0     H35498   6.080   4.875   9.608  2.7343  1.5388 -0.4281
  269MOL0     H35499   6.001   5.014   9.526  2.7055  2.6852 -0.6684
  269MOL0     H35500   6.265   4.985   9.514 -1.9002  2.4795 -0.0619
  269MOL0     H35501   6.219   4.840   9.409  1.6522 -0.9658  0.8125
  269MOL0     H35502   6.136   5.135   9.382  1.6707  1.7475 -2.1044
  269MOL0     H35503   6.093   4.997   9.272 -0.6969  2.9450 -1.8098
  269MOL0     H35504   6.285   5.151   9.178  0.9159 -0.6914 -1.7659
  269MOL0     H35505   6.379   5.081   9.307  0.3786 -2.1744 -0.1935
  269MOL0     H35506   6.329   4.780   9.005 -0.1045  1.0507 -2.2166
  269MOL0     H35507   5.906   4.791   9.669 -1.3879 -0.8009  4.4506
  269MOL0     H35508   5.671   4.705   9.759 -4.2069 -1.9810 -0.8548
  270MOL0     O35509   9.376   0.048   2.068 -0.3407  0.8010  0.4103
  270MOL0     C35510   9.399   0.163   2.077 -0.4856  0.1652  0.6893
  270MOL0     O35511   9.334   0.263   2.003 -0.8173  0.3644 -0.0893
  270MOL0     C35512   9.237   0.219   1.910 -0.5196 -0.2881  0.0835
  270MOL0     C35513   9.101   0.206   1.944  0.0598 -0.7621  0.6844
  270MOL0     C35514   9.006   0.177   1.844 -0.4740 -0.3062  0.8173
  270MOL0     C35515   9.042   0.156   1.711  0.1346 -0.4884 -0.5288
  270MOL0     O35516   8.963   0.150   1.604 -0.6869  0.4543 -0.0638
  270MOL0     C35517   8.837   0.215   1.611  0.3054  0.8957 -0.6494
  270MOL0     C35518   8.774   0.209   1.478  0.9309 -0.0129 -0.6688
  270MOL0     C35519   8.843   0.309   1.384 -0.4996  0.4334  0.3191
  270MOL0     C35520   8.804   0.310   1.233  0.2455  0.1920  0.4468
  270MOL0     C35521   8.823   0.185   1.161  0.0936  0.0676 -0.9420
  270MOL0     C35522   8.773   0.197   1.017  0.3753 -0.5697  0.4351
  270MOL0     C35523   8.830   0.084   0.924 -0.0673  0.2646 -0.0931
  270MOL0     C35524   8.796  -0.055   0.967  0.1656  0.4936 -0.1220
  270MOL0     N35525   8.654  -0.083   0.963 -0.5391  0.3575 -0.1198
  270MOL0     C35526   8.576  -0.117   1.067  0.1409 -0.3119  0.1573
  270MOL0     C35527   8.456  -0.154   1.003 -0.6090  0.4770 -0.7386
  270MOL0     C35528   8.333  -0.229   1.055 -0.0503  0.3619 -0.0759
  270MOL0     C35529   8.358  -0.380   1.046  0.0663  0.6583 -0.1838
  270MOL0     C35530   8.222  -0.454   1.071  0.2261  0.2884  0.5429
  270MOL0     C35531   8.138  -0.462   0.931  0.1615  0.1093 -0.0949
  270MOL0     O35532   8.019  -0.530   0.955  0.0227  0.1901 -0.6135
  270MOL0     C35533   7.908  -0.520   0.883 -0.0834  0.3505  0.7537
  270MOL0     C35534   7.885  -0.423   0.790 -1.6707 -0.2154 -0.5060
  270MOL0     C35535   7.765  -0.413   0.721  0.0072  0.1377 -0.0748
  270MOL0     C35536   7.661  -0.510   0.738  0.5348  0.2986  0.7086
  270MOL0     C35537   7.539  -0.519   0.653  0.7621  0.0316 -0.9730
  270MOL0     O35538   7.474  -0.643   0.674  0.5948 -0.3450  0.1565
  270MOL0     C35539   7.346  -0.669   0.612 -1.4688  0.0165 -1.2380
  270MOL0     C35540   7.315  -0.798   0.570 -0.5502  0.4477 -0.6456
  270MOL0     C35541   7.188  -0.826   0.512 -0.3366  0.6404  0.0468
  270MOL0     C35542   7.089  -0.733   0.520  0.0134 -0.2301  0.7189
  270MOL0     O35543   6.965  -0.748   0.468  0.5248  0.1573 -0.2681
  270MOL0     C35544   6.913  -0.879   0.495 -0.3063 -0.3883  0.4546
  270MOL0     C35545   6.764  -0.870   0.511  0.7967 -0.7918 -0.2412
  270MOL0     C35546   6.739  -0.788   0.639  0.5220 -0.3465 -0.1294
  270MOL0     C35547   6.754  -0.875   0.767 -0.5209  0.0887  0.1892
  270MOL0     C35548   6.717  -0.795   0.896  0.4072 -0.0484  0.5680
  270MOL0     C35549   6.593  -0.861   0.964 -0.3632  0.1781  0.3164
  270MOL0     C35550   6.465  -0.870   0.876 -0.6422  0.7691 -0.7876
  270MOL0     C35551   6.354  -0.940   0.954  0.8010 -0.1262 -0.7482
  270MOL0    Cl35552   6.279  -0.821   1.075  0.5915  0.1203 -0.0522
  270MOL0     C35553   7.120  -0.598   0.558 -0.9126 -0.0694  0.5762
  270MOL0     C35554   7.245  -0.561   0.607  0.6566  0.2695  0.3589
  270MOL0     O35555   7.511  -0.426   0.579  0.4696 -0.0323  0.2501
  270MOL0     C35556   7.690  -0.609   0.834 -0.4770  0.2198 -0.8824
  270MOL0     C35557   7.817  -0.621   0.893  0.1356  0.3766  0.1925
  270MOL0     N35558   8.469  -0.143   0.869  0.1062 -0.0293  0.2033
  270MOL0     N35559   8.588  -0.106   0.842 -0.0764 -0.6770 -0.4298
  270MOL0     C35560   9.175   0.159   1.686  0.0804  0.1439 -0.5004
  270MOL0     C35561   9.271   0.191   1.781  0.2858 -0.0609 -0.6930
  270MOL0     C35562   9.521   0.194   2.162 -0.9081  0.2673  0.3263
  270MOL0     C35563   9.565   0.100   2.270 -0.3833 -0.0786  0.1945
  270MOL0     C35564   9.661   0.153   2.359  0.1222  1.4607 -0.8146
  270MOL0     C35565   9.721   0.278   2.347 -0.5682 -0.2354  0.0182
  270MOL0     O35566   9.814   0.328   2.433 -0.3581 -0.7428  0.2346
  270MOL0     C35567   9.917   0.236   2.464 -0.2746 -0.2317  0.5342
  270MOL0     C35568  10.049   0.320   2.498 -0.6564  0.3286 -0.7254
  270MOL0     C35569  10.174   0.232   2.508 -0.9129  0.4917 -0.8876
  270MOL0     C35570  10.299   0.309   2.559  0.2949 -0.3369  0.5286
  270MOL0     C35571  10.309   0.336   2.706  0.2627  0.3326  0.1998
  270MOL0     C35572  10.311   0.364   2.823 -0.0271 -0.1498 -0.5163
  270MOL0     C35573   9.688   0.354   2.238 -0.0202 -0.1835 -0.2905
  270MOL0     C35574   9.583   0.312   2.146 -0.8533  0.2141 -0.1417
  270MOL0     H35575   9.073   0.217   2.049 -0.3142 -1.8766  0.7101
  270MOL0     H35576   8.901   0.167   1.870 -0.9897  0.7002 -0.7441
  270MOL0     H35577   8.845   0.322   1.632 -0.6046  0.9006 -0.3004
  270MOL0     H35578   8.764   0.165   1.675 -0.0117  0.1710 -1.5559
  270MOL0     H35579   8.672   0.248   1.478  0.3005 -1.5403  0.9235
  270MOL0     H35580   8.783   0.106   1.443  2.7253 -0.3392  0.6161
  270MOL0     H35581   8.951   0.290   1.381 -0.5108  0.4603 -0.5320
  270MOL0     H35582   8.834   0.412   1.421 -0.2528 -0.2853  2.5082
  270MOL0     H35583   8.700   0.333   1.211 -0.0120 -0.5338  0.8608
  270MOL0     H35584   8.871   0.385   1.189  5.0153 -2.2814  2.7163
  270MOL0     H35585   8.790   0.088   1.198  3.4681 -0.4965  1.0181
  270MOL0     H35586   8.932   0.172   1.164  0.3349  1.1794 -2.8557
  270MOL0     H35587   8.791   0.293   0.967  3.0413 -1.9936 -1.5873
  270MOL0     H35588   8.664   0.194   1.022  0.4115 -0.1776  2.6366
  270MOL0     H35589   8.779   0.100   0.829 -4.4411  0.6463  2.0835
  270MOL0     H35590   8.939   0.092   0.914 -0.1596  0.5417 -0.9815
  270MOL0     H35591   8.838  -0.067   1.067  1.6198  1.3312 -0.6079
  270MOL0     H35592   8.843  -0.120   0.893 -1.9486  1.5903 -2.5878
  270MOL0     H35593   8.609  -0.126   1.171  0.2040  2.7729  0.4769
  270MOL0     H35594   8.253  -0.197   0.988 -0.1544 -1.8590 -1.1383
  270MOL0     H35595   8.313  -0.204   1.159 -0.4099  1.7362 -0.4594
  270MOL0     H35596   8.432  -0.407   1.122 -0.7440 -0.0984  0.3529
  270MOL0     H35597   8.403  -0.416   0.953  0.2401  1.0887 -0.2692
  270MOL0     H35598   8.244  -0.552   1.114  1.3456 -0.1997 -1.0238
  270MOL0     H35599   8.175  -0.392   1.148 -0.1797  0.4753  0.1510
  270MOL0     H35600   8.199  -0.500   0.849  0.9884 -2.6758  1.6757
  270MOL0     H35601   8.124  -0.355   0.911  1.5464  1.3573  4.3734
  270MOL0     H35602   7.961  -0.346   0.781 -1.5035 -0.5421 -2.2201
  270MOL0     H35603   7.762  -0.330   0.650 -1.2162 -1.2465 -1.7275
  270MOL0     H35604   7.384  -0.877   0.597  1.0823  1.2081 -2.4448
  270MOL0     H35605   7.155  -0.924   0.478 -3.0383  1.0135  1.3308
  270MOL0     H35606   6.959  -0.915   0.588  1.2916 -1.4363 -0.6783
  270MOL0     H35607   6.954  -0.949   0.422  1.9892  0.9844  0.3334
  270MOL0     H35608   6.716  -0.968   0.504 -3.0327  0.7963  1.1869
  270MOL0     H35609   6.734  -0.809   0.425  0.7971 -0.4236  0.0147
  270MOL0     H35610   6.636  -0.752   0.634  1.3959  2.2636 -0.5854
  270MOL0     H35611   6.803  -0.700   0.630 -3.9925  3.4177  0.2876
  270MOL0     H35612   6.692  -0.965   0.758  0.7031 -0.9326  1.5523
  270MOL0     H35613   6.858  -0.909   0.770  0.8300  3.8274  2.9655
  270MOL0     H35614   6.703  -0.688   0.882 -0.3774 -0.0263  1.4263
  270MOL0     H35615   6.801  -0.799   0.967  2.6977 -0.9691 -2.0148
  270MOL0     H35616   6.558  -0.808   1.052 -1.6055  2.7595 -1.5943
  270MOL0     H35617   6.631  -0.960   0.991  2.3776  1.1003  0.1731
  270MOL0     H35618   6.436  -0.771   0.839 -1.5663 -0.2684 -3.0563
  270MOL0     H35619   6.487  -0.911   0.777 -0.6985  0.1307 -0.5397
  270MOL0     H35620   6.408  -1.022   1.003  1.2573  0.8864  0.5271
  270MOL0     H35621   6.274  -0.984   0.894 -0.6933  0.6542  0.6071
  270MOL0     H35622   7.035  -0.531   0.563 -1.4480 -0.8145  1.6614
  270MOL0     H35623   7.259  -0.466   0.658 -0.8968  1.7318 -1.7277
  270MOL0     H35624   7.616  -0.679   0.872 -0.2262 -0.8043 -2.2155
  270MOL0     H35625   7.833  -0.702   0.963  1.2427  0.4935  0.0961
  270MOL0     H35626   9.202   0.139   1.583  2.2297  0.7121 -0.0917
  270MOL0     H35627   9.374   0.187   1.746  1.5380 -2.1318  2.7596
  270MOL0     H35628   9.536  -0.000   2.298 -2.0133  0.7001  1.4805
  270MOL0     H35629   9.681   0.088   2.443  1.7035 -0.1025 -2.3106
  270MOL0     H35630   9.932   0.175   2.375  0.4328  0.1707  0.3651
  270MOL0     H35631   9.883   0.177   2.549  1.1127 -3.0488 -0.7402
  270MOL0     H35632  10.059   0.387   2.412 -0.1083 -1.0097 -1.7448
  270MOL0     H35633  10.032   0.375   2.591 -1.0139 -1.6601  0.4431
  270MOL0     H35634  10.201   0.181   2.414 -0.8205 -3.8107  1.2258
  270MOL0     H35635  10.157   0.137   2.560  2.2073 -1.1830 -2.5803
  270MOL0     H35636  10.388   0.253   2.528  0.6394 -1.3732  3.1342
  270MOL0     H35637  10.297   0.405   2.507 -1.3737  0.4241  1.9138
  270MOL0     H35638  10.330   0.356   2.928 -1.8149 -0.1354 -0.1642
  270MOL0     H35639   9.728   0.455   2.227 -2.9492  1.1130  0.1356
  270MOL0     H35640   9.564   0.369   2.056  1.3898  0.0399 -0.7832
  271MOL0     O35641   3.588   7.832   0.022 -0.2178 -0.4751 -0.2608
  271MOL0     C35642   3.626   7.941  -0.006  0.0611 -0.2429 -0.6602
  271MOL0     O35643   3.586   8.057   0.054 -0.0680  0.0734  1.1791
  271MOL0     C35644   3.460   8.069   0.099  0.6073  0.0727 -0.4020
  271MOL0     C35645   3.335   8.035   0.038 -0.1882 -0.0836 -0.4115
  271MOL0     C35646   3.211   8.066   0.099 -0.0661  0.4686 -1.2346
  271MOL0     C35647   3.209   8.126   0.230 -0.4597  0.8969  0.2143
  271MOL0     O35648   3.083   8.161   0.283 -0.5090 -0.1839 -0.8042
  271MOL0     C35649   3.090   8.199   0.422  0.4942  0.3473 -0.1130
  271MOL0     C35650   2.947   8.193   0.492  0.4418  0.2743  0.4443
  271MOL0     C35651   2.836   8.256   0.404 -0.4122  1.2107 -0.3913
  271MOL0     C35652   2.701   8.198   0.428  0.2992 -1.1287  0.3257
  271MOL0     C35653   2.604   8.293   0.350  0.0254  0.6030  0.7564
  271MOL0     C35654   2.470   8.218   0.327 -0.4754 -0.2735 -0.2265
  271MOL0     C35655   2.368   8.295   0.250  0.2859 -0.6223  0.3002
  271MOL0     C35656   2.265   8.200   0.197  0.6888 -0.0555  0.0107
  271MOL0     N35657   2.144   8.273   0.183  0.1263 -0.6353  0.9683
  271MOL0     C35658   2.106   8.340   0.068 -0.7026  0.5238 -0.2765
  271MOL0     C35659   1.986   8.399   0.106 -0.3943  0.0632  1.5567
  271MOL0     C35660   1.906   8.496   0.025  0.4750  0.3506 -0.8432
  271MOL0     C35661   1.915   8.480  -0.131 -0.4861 -0.5319 -0.7683
  271MOL0     C35662   1.860   8.596  -0.203  0.3680  0.5226  0.6799
  271MOL0     C35663   1.705   8.608  -0.179 -0.2711 -0.1722  0.0907
  271MOL0     O35664   1.674   8.724  -0.253  0.2834  0.6132  0.2102
  271MOL0     C35665   1.537   8.757  -0.279 -0.3807  0.8053 -0.4902
  271MOL0     C35666   1.432   8.704  -0.206  0.3217  0.4208  0.0878
  271MOL0     C35667   1.296   8.733  -0.244  0.1896 -0.6863  0.0275
  271MOL0     C35668   1.259   8.822  -0.352 -0.4694  0.3316  0.4344
  271MOL0     C35669   1.117   8.858  -0.384  0.8594  0.6506  0.6270
  271MOL0     O35670   1.018   8.800  -0.314 -0.2818 -0.0444 -0.3747
  271MOL0     C35671   0.888   8.849  -0.349  0.1017 -0.7721  0.8602
  271MOL0     C35672   0.799   8.755  -0.407 -0.1291  0.3135  0.2685
  271MOL0     C35673   0.673   8.796  -0.446 -0.3356  1.2427 -0.4245
  271MOL0     C35674   0.631   8.926  -0.439 -0.6199 -1.1002  0.2240
  271MOL0     O35675   0.498   8.964  -0.487 -0.8347  0.2249 -0.2673
  271MOL0     C35676   0.506   9.060  -0.592 -0.3504  0.7104 -0.3078
  271MOL0     C35677   0.384   9.039  -0.678 -0.5136 -0.6498 -0.4343
  271MOL0     C35678   0.392   8.917  -0.763 -0.1907 -0.4814  0.1029
  271MOL0     C35679   0.521   8.904  -0.858 -0.6152 -0.1406  0.0629
  271MOL0     C35680   0.521   8.777  -0.939  0.6321  0.7782 -0.5871
  271MOL0     C35681   0.641   8.761  -1.030  0.4889 -0.3728  0.4265
  271MOL0     C35682   0.621   8.661  -1.147  0.2569 -0.0811 -0.2170
  271MOL0     C35683   0.759   8.624  -1.215  0.7860 -0.4580 -0.2862
  271MOL0    Cl35684   0.836   8.504  -1.096  0.0881  0.4079  0.5331
  271MOL0     C35685   0.722   9.016  -0.382  0.0587  0.6789  0.4683
  271MOL0     C35686   0.854   8.985  -0.339  0.7540  0.1989  0.7460
  271MOL0     O35687   1.099   8.930  -0.482 -0.9449 -0.1856 -0.2084
  271MOL0     C35688   1.374   8.875  -0.417  0.0290  0.1700  0.5368
  271MOL0     C35689   1.506   8.854  -0.376 -0.3773 -0.6062  0.3127
  271MOL0     N35690   1.952   8.347   0.226 -0.1465  0.5491 -0.2791
  271MOL0     N35691   2.050   8.287   0.281 -0.7408 -1.1335  0.4424
  271MOL0     C35692   3.332   8.156   0.283 -0.2695 -0.0915  0.6645
  271MOL0     C35693   3.453   8.137   0.224 -0.4632  0.4960  0.1775
  271MOL0     C35694   3.738   7.959  -0.101  0.9480  0.2892 -0.3565
  271MOL0     C35695   3.773   8.082  -0.151  0.0353  0.2444  0.4542
  271MOL0     C35696   3.885   8.094  -0.225 -0.8176  0.2617  0.3198
  271MOL0     C35697   3.965   7.984  -0.267 -0.3175 -0.5587  0.3184
  271MOL0     O35698   4.024   7.997  -0.390 -0.8265 -0.1776  0.2801
  271MOL0     C35699   4.117   7.900  -0.440 -0.7126  0.3115 -0.2892
  271MOL0     C35700   4.228   7.965  -0.530 -0.1456 -0.8660  0.2832
  271MOL0     C35701   4.177   8.048  -0.661 -0.2412  0.1012 -0.2517
  271MOL0     C35702   4.143   8.198  -0.640 -0.6339  0.4082 -0.9732
  271MOL0     C35703   4.275   8.261  -0.602  1.0633  0.0754  0.3106
  271MOL0     C35704   4.377   8.319  -0.573  0.0157  0.2065 -0.0742
  271MOL0     C35705   3.946   7.864  -0.208  0.3408 -0.1382  0.1145
  271MOL0     C35706   3.834   7.855  -0.126 -0.0942 -0.5355 -0.5339
  271MOL0     H35707   3.338   7.989  -0.060 -0.3978  0.8551 -0.8675
  271MOL0     H35708   3.118   8.044   0.048  0.0165  0.4026 -1.3572
  271MOL0     H35709   3.119   8.304   0.433 -0.3941  0.4750  1.1886
  271MOL0     H35710   3.155   8.127   0.472 -0.6041 -0.7102 -0.1701
  271MOL0     H35711   2.945   8.239   0.592 -2.8381 -0.4711  0.8364
  271MOL0     H35712   2.921   8.087   0.493  4.1614 -0.7570  1.6885
  271MOL0     H35713   2.859   8.239   0.298 -2.7593 -1.5128 -0.5855
  271MOL0     H35714   2.841   8.360   0.438  0.8630  0.7149  1.0962
  271MOL0     H35715   2.699   8.094   0.396  2.2495 -0.5466 -1.9243
  271MOL0     H35716   2.682   8.211   0.536  0.2137 -0.8651  0.2802
  271MOL0     H35717   2.655   8.317   0.256 -1.3095  1.8988  0.3332
  271MOL0     H35718   2.586   8.386   0.403  1.0553  0.7805  0.8189
  271MOL0     H35719   2.436   8.189   0.427  2.7928 -0.0910  1.0442
  271MOL0     H35720   2.495   8.126   0.274  0.3566 -0.7069  0.8784
  271MOL0     H35721   2.315   8.362   0.319  0.2979  1.7710 -1.8459
  271MOL0     H35722   2.416   8.361   0.177  0.3888  1.1866  1.9069
  271MOL0     H35723   2.246   8.114   0.262  3.6321 -0.8788 -0.0806
  271MOL0     H35724   2.293   8.165   0.097 -0.4479 -0.6708 -0.1124
  271MOL0     H35725   2.164   8.369  -0.019 -1.8412  2.9093 -0.3114
  271MOL0     H35726   1.944   8.589   0.069  2.4566 -0.7487 -0.1061
  271MOL0     H35727   1.801   8.488   0.055 -0.3643  5.3484 -1.5271
  271MOL0     H35728   1.859   8.391  -0.164 -1.1315 -0.6263  0.5261
  271MOL0     H35729   2.019   8.470  -0.162 -0.1818 -1.9608  0.5919
  271MOL0     H35730   1.915   8.687  -0.176 -0.7256  2.1614 -2.1425
  271MOL0     H35731   1.881   8.581  -0.309 -1.2357 -2.5146  0.7061
  271MOL0     H35732   1.677   8.627  -0.075 -1.4599  0.6890 -0.3592
  271MOL0     H35733   1.647   8.521  -0.211  0.4551 -0.7330  0.2839
  271MOL0     H35734   1.449   8.638  -0.121 -0.0431 -0.0977 -0.2384
  271MOL0     H35735   1.219   8.676  -0.195 -3.0336  1.9587 -1.5826
  271MOL0     H35736   0.825   8.650  -0.417 -2.2541 -0.4134  1.6449
  271MOL0     H35737   0.614   8.717  -0.491  1.9720  0.8350 -3.0317
  271MOL0     H35738   0.598   9.059  -0.650 -0.1863  2.0104 -0.0944
  271MOL0     H35739   0.491   9.163  -0.556  0.0963  1.9606 -3.3856
  271MOL0     H35740   0.376   9.121  -0.750  2.2779 -1.0956 -1.3774
  271MOL0     H35741   0.291   9.038  -0.620 -0.3975  0.5020 -0.2205
  271MOL0     H35742   0.296   8.922  -0.815 -1.2155 -0.1489  1.9198
  271MOL0     H35743   0.383   8.830  -0.697  1.4131 -0.8062 -0.0805
  271MOL0     H35744   0.527   8.996  -0.917 -2.5686 -0.6515 -1.0254
  271MOL0     H35745   0.611   8.893  -0.797 -0.6545  1.4815  0.4770
  271MOL0     H35746   0.433   8.761  -1.002 -0.4383  0.0515  1.0277
  271MOL0     H35747   0.530   8.693  -0.870 -1.3772  2.6232  2.1645
  271MOL0     H35748   0.725   8.726  -0.969 -0.0652 -0.9408  0.8682
  271MOL0     H35749   0.671   8.856  -1.075  1.6218 -1.5516 -1.4400
  271MOL0     H35750   0.575   8.569  -1.109 -0.7435  1.1044  1.5490
  271MOL0     H35751   0.553   8.704  -1.220 -1.1105 -0.5320  0.7472
  271MOL0     H35752   0.825   8.702  -1.253 -2.1815  2.5182  0.2469
  271MOL0     H35753   0.732   8.571  -1.307 -4.3799  1.3924 -0.1579
  271MOL0     H35754   0.685   9.115  -0.358  0.0760  1.1806 -1.4207
  271MOL0     H35755   0.934   9.050  -0.305  1.7010 -0.8464  0.5579
  271MOL0     H35756   1.368   8.943  -0.502  2.2215  2.0420  1.7469
  271MOL0     H35757   1.592   8.900  -0.424 -1.2787  1.6547  0.7048
  271MOL0     H35758   3.343   8.214   0.374  1.8876  1.5432 -0.5261
  271MOL0     H35759   3.550   8.161   0.266 -1.1039 -0.9971  2.6864
  271MOL0     H35760   3.721   8.175  -0.131 -2.4731 -1.2280  1.1784
  271MOL0     H35761   3.907   8.194  -0.261  2.6783 -1.1608 -2.0295
  271MOL0     H35762   4.078   7.827  -0.511  0.2393 -1.9152  1.3571
  271MOL0     H35763   4.171   7.853  -0.358 -1.4856 -0.8526 -0.4281
  271MOL0     H35764   4.294   8.028  -0.470 -2.8343  2.2633  0.2131
  271MOL0     H35765   4.297   7.886  -0.562 -1.4825 -1.6488 -0.7943
  271MOL0     H35766   4.091   7.987  -0.690  0.7668 -2.7947  2.3703
  271MOL0     H35767   4.243   8.043  -0.748  0.9730  2.6960  0.4297
  271MOL0     H35768   4.093   8.255  -0.719 -3.1582  0.7644  0.7536
  271MOL0     H35769   4.075   8.200  -0.555  2.4501  1.3712  1.6948
  271MOL0     H35770   4.474   8.355  -0.548 -1.0383  0.9934  3.4822
  271MOL0     H35771   4.014   7.780  -0.217 -2.3725 -2.4055 -0.6414
  271MOL0     H35772   3.812   7.756  -0.088  0.6765 -1.7763 -3.0647
  272MOL0     O35773   6.741  10.941   1.316  0.2419 -0.5971  0.2986
  272MOL0     C35774   6.819  10.852   1.290 -0.2627  0.2609 -1.0567
  272MOL0     O35775   6.805  10.724   1.335 -0.1928 -0.1528  0.5973
  272MOL0     C35776   6.683  10.687   1.385  0.9331  0.5984  1.0107
  272MOL0     C35777   6.665  10.654   1.519 -0.4489 -0.4300  1.2874
  272MOL0     C35778   6.537  10.628   1.574 -0.6718 -0.0654  0.2844
  272MOL0     C35779   6.424  10.639   1.507 -0.1698  0.0778  0.3157
  272MOL0     O35780   6.312  10.625   1.593  0.4430 -0.2530  0.2449
  272MOL0     C35781   6.226  10.518   1.547  0.6624  0.5147 -0.5828
  272MOL0     C35782   6.083  10.529   1.606  0.5127  0.5257  1.0091
  272MOL0     C35783   5.994  10.405   1.569  0.2829 -0.6201 -0.2010
  272MOL0     C35784   5.847  10.442   1.594  0.5825  0.1147 -0.0321
  272MOL0     C35785   5.744  10.337   1.538  0.3518 -0.6199  0.4764
  272MOL0     C35786   5.737  10.329   1.376  0.5159 -0.4466 -0.5382
  272MOL0     C35787   5.625  10.244   1.315  0.2563 -0.3105 -0.8813
  272MOL0     C35788   5.585  10.119   1.389 -0.1581  1.2096 -0.1731
  272MOL0     N35789   5.511  10.038   1.299 -0.4430 -0.1782  0.3306
  272MOL0     C35790   5.389  10.082   1.247  0.1245 -0.5473 -1.0297
  272MOL0     C35791   5.342   9.972   1.186 -1.0879  0.3918  0.3464
  272MOL0     C35792   5.208   9.955   1.130  0.4568  0.4029  0.2349
  272MOL0     C35793   5.198   9.877   1.009  0.5995  0.1592 -0.1081
  272MOL0     C35794   5.058   9.842   0.966 -0.6467  0.1815 -0.7010
  272MOL0     C35795   4.964   9.961   0.942  0.0129  0.8267 -0.6495
  272MOL0     O35796   4.861   9.969   1.047 -0.0067 -0.6667  0.1702
  272MOL0     C35797   4.749  10.041   1.006  0.5537 -0.4961  0.0356
  272MOL0     C35798   4.726  10.126   0.894 -0.1824  0.8633  0.9116
  272MOL0     C35799   4.597  10.163   0.850  0.7609 -0.5727  0.3402
  272MOL0     C35800   4.491  10.122   0.934 -0.6375 -0.5737  0.2944
  272MOL0     C35801   4.353  10.155   0.894  0.3459 -0.6811  0.4141
  272MOL0     O35802   4.250  10.123   0.987  0.2391  0.3152 -0.5781
  272MOL0     C35803   4.123  10.164   0.960  0.3323 -0.3031 -0.1655
  272MOL0     C35804   4.086  10.294   0.978  0.4980 -0.0109  0.4161
  272MOL0     C35805   3.957  10.334   0.946  0.3348 -0.1710 -1.0094
  272MOL0     C35806   3.863  10.240   0.899  0.6807 -0.4662  0.5485
  272MOL0     O35807   3.738  10.285   0.883  0.7547  0.5398  0.2692
  272MOL0     C35808   3.634  10.189   0.852 -0.3767 -0.6013 -0.7929
  272MOL0     C35809   3.483  10.246   0.856  0.4324 -0.2924  0.2075
  272MOL0     C35810   3.379  10.133   0.837 -0.9179 -0.6790 -0.4401
  272MOL0     C35811   3.238  10.170   0.854 -0.2642  1.0679 -0.4799
  272MOL0     C35812   3.140  10.060   0.802 -0.7766  0.2565 -0.8184
  272MOL0     C35813   2.992  10.102   0.826  0.2463  0.1254  0.2809
  272MOL0     C35814   2.900   9.999   0.752 -0.4860 -0.8168 -0.0204
  272MOL0     C35815   2.765  10.065   0.743  0.0564 -0.8231  0.0148
  272MOL0    Cl35816   2.715  10.092   0.911 -0.2410 -0.0047 -0.0179
  272MOL0     C35817   3.912  10.117   0.864  0.0431  0.4740 -0.1138
  272MOL0     C35818   4.038  10.070   0.909  0.4140 -0.6244  0.3711
  272MOL0     O35819   4.336  10.217   0.784 -0.2376  0.6043 -0.1454
  272MOL0     C35820   4.512  10.041   1.050  0.2110  0.0995  0.5945
  272MOL0     C35821   4.643   9.996   1.081  0.0180  0.1479 -0.4686
  272MOL0     N35822   5.434   9.870   1.189 -0.3512  0.5831 -0.0044
  272MOL0     N35823   5.540   9.911   1.246  0.1931  0.0763  0.5648
  272MOL0     C35824   6.441  10.667   1.361 -1.0190  1.0042 -0.4669
  272MOL0     C35825   6.568  10.680   1.297  0.6448 -0.1668  0.9274
  272MOL0     C35826   6.919  10.881   1.184  0.9579 -0.9404  0.8939
  272MOL0     C35827   6.983  11.011   1.182  0.1249 -0.2894  0.0342
  272MOL0     C35828   7.077  11.047   1.086  1.0596  0.8362 -0.5328
  272MOL0     C35829   7.095  10.965   0.974  1.1798  0.0608 -0.6536
  272MOL0     O35830   7.172  10.995   0.869  0.6067 -0.6366 -0.6407
  272MOL0     C35831   7.277  11.093   0.907  0.4924  0.4825 -0.6320
  272MOL0     C35832   7.216  11.228   0.841  0.1839 -0.1047 -0.5775
  272MOL0     C35833   7.225  11.214   0.693 -0.9966 -0.9060 -0.5320
  272MOL0     C35834   7.344  11.298   0.623  0.8726 -0.2008 -0.0270
  272MOL0     C35835   7.473  11.272   0.683 -1.0355  0.4970  0.5102
  272MOL0     C35836   7.588  11.245   0.708  0.3029  0.1235  0.0709
  272MOL0     C35837   7.029  10.838   0.967 -0.4040 -0.2230 -0.1192
  272MOL0     C35838   6.944  10.798   1.070 -0.4066  0.5035 -0.2608
  272MOL0     H35839   6.753  10.662   1.582  0.8519 -3.4289  0.0704
  272MOL0     H35840   6.530  10.602   1.679  2.3231 -0.5048  0.4634
  272MOL0     H35841   6.276  10.421   1.559 -0.0932  0.1352 -0.4392
  272MOL0     H35842   6.220  10.529   1.439  0.9255 -1.0798 -0.7878
  272MOL0     H35843   6.035  10.610   1.551 -2.7119 -3.6177 -3.0975
  272MOL0     H35844   6.098  10.554   1.711 -1.3380 -0.8004  1.6463
  272MOL0     H35845   6.017  10.319   1.632  0.4323 -0.7814 -0.4805
  272MOL0     H35846   6.006  10.382   1.463  1.0533  4.2418 -1.4217
  272MOL0     H35847   5.821  10.462   1.698 -0.8021  0.3855 -0.4106
  272MOL0     H35848   5.823  10.541   1.554 -3.3936 -0.1487  1.2125
  272MOL0     H35849   5.649  10.370   1.581  0.8778  1.7669 -0.0762
  272MOL0     H35850   5.761  10.242   1.589  0.4073 -0.5324  0.6207
  272MOL0     H35851   5.834  10.301   1.333  1.8150  0.8977  1.3500
  272MOL0     H35852   5.710  10.428   1.338 -1.2847 -0.0501  1.5486
  272MOL0     H35853   5.541  10.309   1.290 -1.0503 -1.3297  0.6614
  272MOL0     H35854   5.664  10.210   1.219  0.1611 -0.2849 -0.9291
  272MOL0     H35855   5.522  10.148   1.473 -1.9415  0.3361 -1.1513
  272MOL0     H35856   5.675  10.065   1.421  0.1621  1.8120 -0.0398
  272MOL0     H35857   5.339  10.172   1.279  0.3346 -0.7783 -0.0030
  272MOL0     H35858   5.174  10.057   1.113  2.0107  0.8673 -0.2845
  272MOL0     H35859   5.150   9.907   1.210  0.3183  0.7418  0.3394
  272MOL0     H35860   5.245   9.781   1.033  0.3194 -0.4396 -1.8173
  272MOL0     H35861   5.254   9.931   0.933 -0.1547 -0.7142 -1.3261
  272MOL0     H35862   5.050   9.783   0.874 -1.7901 -0.0782 -0.4487
  272MOL0     H35863   5.013   9.774   1.039  1.9456 -2.3309 -1.2363
  272MOL0     H35864   4.899   9.937   0.858 -1.3531 -0.1794  0.6473
  272MOL0     H35865   5.020  10.050   0.911  2.6646 -0.9981 -1.4323
  272MOL0     H35866   4.814  10.154   0.837  1.0372 -3.4590  0.2590
  272MOL0     H35867   4.582  10.228   0.765 -2.0360  2.8496  3.1090
  272MOL0     H35868   4.155  10.371   1.011  1.8924 -0.6615 -0.8440
  272MOL0     H35869   3.928  10.438   0.955  1.9329  0.2675 -0.4193
  272MOL0     H35870   3.647  10.101   0.917 -0.3817 -0.6184 -0.8146
  272MOL0     H35871   3.647  10.161   0.747 -5.3077  0.2890 -1.8924
  272MOL0     H35872   3.471  10.325   0.781 -0.7664  0.5276  1.2371
  272MOL0     H35873   3.465  10.296   0.951  1.2688 -0.5255  0.4954
  272MOL0     H35874   3.404  10.055   0.910 -1.4992  1.3015  2.0214
  272MOL0     H35875   3.392  10.088   0.738 -0.5914 -2.5216  0.4002
  272MOL0     H35876   3.215  10.200   0.956 -4.6734 -0.2630 -0.8925
  272MOL0     H35877   3.221  10.254   0.786  0.6421  3.2226  1.8253
  272MOL0     H35878   3.156   9.972   0.865  3.0105  1.6380  0.3994
  272MOL0     H35879   3.164  10.040   0.698  0.7299  0.8049 -0.5979
  272MOL0     H35880   2.971  10.203   0.789 -0.4786  0.7015  2.1512
  272MOL0     H35881   2.970  10.101   0.933  0.1567  0.1984  0.2636
  272MOL0     H35882   2.927   9.963   0.652  3.3248 -0.0782  0.6237
  272MOL0     H35883   2.903   9.910   0.816 -0.8371 -1.1573 -0.4654
  272MOL0     H35884   2.692  10.004   0.689  1.6846 -1.7759 -1.1845
  272MOL0     H35885   2.766  10.160   0.690  0.3843 -0.8690 -0.0583
  272MOL0     H35886   3.853  10.059   0.794  0.4400 -1.0993  0.7957
  272MOL0     H35887   4.062   9.964   0.914  0.5409 -0.7490 -1.8945
  272MOL0     H35888   4.432  10.015   1.119  0.8368 -2.8536  0.3399
  272MOL0     H35889   4.661   9.928   1.163 -0.3925  3.7674  2.9329
  272MOL0     H35890   6.356  10.692   1.299 -2.6193 -1.1357  0.7292
  272MOL0     H35891   6.568  10.699   1.190  1.3813 -1.1910  0.7338
  272MOL0     H35892   6.962  11.077   1.265  0.4215  1.4388 -1.2169
  272MOL0     H35893   7.114  11.149   1.087  0.0424  1.2177  0.5040
  272MOL0     H35894   7.374  11.072   0.861  0.8606  2.7480 -1.0286
  272MOL0     H35895   7.292  11.094   1.015 -3.2258  1.9413  0.0377
  272MOL0     H35896   7.114  11.241   0.877  0.4142 -2.6551  1.2510
  272MOL0     H35897   7.289  11.303   0.873  0.0808 -0.0531 -0.4668
  272MOL0     H35898   7.133  11.261   0.657 -0.8878  0.6062  1.0402
  272MOL0     H35899   7.224  11.111   0.657 -1.0110 -1.3986  0.8087
  272MOL0     H35900   7.341  11.295   0.513 -1.2824  1.7062 -0.1078
  272MOL0     H35901   7.318  11.404   0.635  0.1038 -0.4343  0.3961
  272MOL0     H35902   7.681  11.220   0.755  0.7828  1.0320 -0.3599
  272MOL0     H35903   7.045  10.765   0.888 -1.8082  1.8335 -2.4398
  272MOL0     H35904   6.898  10.703   1.047 -2.8045  1.7369 -0.9385
  273MOL0     O35905   1.409   3.024   8.889  0.2741 -0.1574 -0.1556
  273MOL0     C35906   1.438   3.080   8.997  1.2247 -0.9628  0.3517
  273MOL0     O35907   1.341   3.121   9.082 -0.2070  0.2795 -0.0701
  273MOL0     C35908   1.222   3.173   9.036 -0.5625  0.0836  0.1619
  273MOL0     C35909   1.208   3.313   9.053  0.0248 -0.3111  0.1851
  273MOL0     C35910   1.091   3.378   9.021 -0.0636 -0.1382 -0.1373
  273MOL0     C35911   0.983   3.300   8.979 -0.3315 -0.1680 -0.0208
  273MOL0     O35912   0.851   3.348   8.967 -0.2955  0.7928  0.6022
  273MOL0     C35913   0.839   3.490   8.955  0.1233  0.2975  0.0899
  273MOL0     C35914   0.696   3.531   8.944  0.3652  0.7937  0.8449
  273MOL0     C35915   0.695   3.687   8.957  0.2347 -0.3126 -0.4422
  273MOL0     C35916   0.554   3.735   8.980 -0.2844  0.6641 -0.3699
  273MOL0     C35917   0.474   3.735   8.848 -0.7327  0.5041 -0.2071
  273MOL0     C35918   0.324   3.773   8.877  0.1075  0.2284 -1.0113
  273MOL0     C35919   0.245   3.759   8.748 -0.3018 -0.3605 -0.2348
  273MOL0     C35920   0.245   3.876   8.657 -0.8312  0.9393 -0.7054
  273MOL0     N35921   0.196   3.850   8.526  0.5087  0.6380  0.6554
  273MOL0     C35922   0.061   3.821   8.489 -0.7679 -0.1871 -0.4024
  273MOL0     C35923   0.060   3.842   8.354 -0.2056 -0.0339 -0.9261
  273MOL0     C35924  -0.062   3.838   8.263 -0.8158 -0.5224 -0.2460
  273MOL0     C35925  -0.194   3.846   8.340 -0.4684  0.2744 -0.4099
  273MOL0     C35926  -0.321   3.830   8.252 -0.9671  0.0251  0.1082
  273MOL0     C35927  -0.449   3.814   8.331  0.2888 -0.2128 -0.0668
  273MOL0     O35928  -0.518   3.942   8.350  0.0689  0.4762 -0.0602
  273MOL0     C35929  -0.654   3.941   8.388 -0.1404  0.3382 -0.0462
  273MOL0     C35930  -0.733   4.030   8.315 -0.0951 -0.1331  0.5528
  273MOL0     C35931  -0.872   4.041   8.335  0.2825  1.6193  0.1821
  273MOL0     C35932  -0.934   3.954   8.425 -0.5432  0.5590  0.3014
  273MOL0     C35933  -1.070   3.973   8.465 -0.5068  0.3998 -0.2228
  273MOL0     O35934  -1.134   4.084   8.421 -0.4842  0.4365  0.4136
  273MOL0     C35935  -1.269   4.105   8.454  0.1177  0.7588  0.0307
  273MOL0     C35936  -1.355   4.019   8.524 -0.0244  0.4923 -0.5562
  273MOL0     C35937  -1.485   4.055   8.546  0.9086 -0.1833  0.9450
  273MOL0     C35938  -1.530   4.188   8.523  0.3142 -0.0693  0.6840
  273MOL0     O35939  -1.663   4.229   8.530  0.3014 -0.0320 -0.5836
  273MOL0     C35940  -1.751   4.158   8.621  0.2841 -0.4539  0.0815
  273MOL0     C35941  -1.889   4.224   8.632  0.3039 -1.0465  0.0402
  273MOL0     C35942  -1.892   4.368   8.673  0.1853 -0.5573 -0.9020
  273MOL0     C35943  -2.025   4.421   8.664  0.1832 -0.5728 -0.4705
  273MOL0     C35944  -2.034   4.565   8.709 -0.0361 -0.7194  0.7865
  273MOL0     C35945  -2.148   4.636   8.623 -0.4101  0.9041 -0.7007
  273MOL0     C35946  -2.276   4.619   8.695  0.5912  0.1986 -0.5497
  273MOL0     C35947  -2.401   4.657   8.616 -0.8476  0.1705 -0.1848
  273MOL0    Cl35948  -2.369   4.798   8.512 -0.1435  0.5715  0.3869
  273MOL0     C35949  -1.444   4.278   8.463  0.1578  0.3504 -0.6122
  273MOL0     C35950  -1.313   4.233   8.431  0.5413 -0.4884  0.1914
  273MOL0     O35951  -1.116   3.881   8.531 -0.0438 -0.9588 -0.1044
  273MOL0     C35952  -0.853   3.857   8.490 -0.0235  0.4407 -0.4599
  273MOL0     C35953  -0.718   3.864   8.476 -0.2675  0.5895  0.0008
  273MOL0     N35954   0.186   3.881   8.318 -0.3989 -0.7137 -0.0102
  273MOL0     N35955   0.264   3.887   8.417  0.3470 -0.6085  0.1754
  273MOL0     C35956   0.989   3.160   8.955 -0.1212  0.2574  0.7207
  273MOL0     C35957   1.111   3.100   8.998  0.5944 -0.3792  0.4665
  273MOL0     C35958   1.580   3.091   9.037  0.7594 -0.0213 -0.7944
  273MOL0     C35959   1.619   3.142   9.164  0.1131 -0.0039 -0.1206
  273MOL0     C35960   1.754   3.152   9.200  0.0843  0.8949  0.3581
  273MOL0     C35961   1.858   3.109   9.104  0.5974  0.2317  0.0016
  273MOL0     O35962   1.993   3.115   9.124  0.1253  0.3960  0.3892
  273MOL0     C35963   2.041   3.127   9.262 -0.9302 -0.4451 -0.4879
  273MOL0     C35964   2.182   3.181   9.251 -0.0378  0.2230  0.3580
  273MOL0     C35965   2.272   3.152   9.376 -0.5249 -0.4435  0.1578
  273MOL0     C35966   2.373   3.257   9.426  0.2645 -0.2845 -0.4154
  273MOL0     C35967   2.306   3.362   9.509 -0.6050 -0.8791 -0.0525
  273MOL0     C35968   2.245   3.450   9.568 -0.0698  0.5506 -0.3194
  273MOL0     C35969   1.820   3.046   8.989  0.2258 -0.5114 -0.8696
  273MOL0     C35970   1.685   3.034   8.959  0.2125 -0.2382 -0.5726
  273MOL0     H35971   1.299   3.363   9.084 -0.2095 -0.5121  1.2401
  273MOL0     H35972   1.096   3.486   9.014 -1.6422 -0.1256 -2.0551
  273MOL0     H35973   0.887   3.535   8.868 -2.0982  0.0686 -1.3573
  273MOL0     H35974   0.895   3.519   9.044  1.1555 -4.7132  1.3973
  273MOL0     H35975   0.641   3.479   9.023  0.7173  1.2419  1.3897
  273MOL0     H35976   0.646   3.496   8.853 -2.5246  2.7985  1.5277
  273MOL0     H35977   0.734   3.728   8.863 -0.3123 -1.7978 -1.3447
  273MOL0     H35978   0.762   3.714   9.040 -0.3973  1.8801 -0.5867
  273MOL0     H35979   0.499   3.679   9.056  0.4498 -2.4445 -1.9510
  273MOL0     H35980   0.566   3.835   9.023  1.1042 -0.2022  1.3954
  273MOL0     H35981   0.474   3.637   8.798  1.0043  0.0462  0.6235
  273MOL0     H35982   0.519   3.814   8.787 -2.9392  2.3995  0.4547
  273MOL0     H35983   0.313   3.861   8.941 -1.7311  0.3102 -1.3813
  273MOL0     H35984   0.288   3.699   8.949 -0.3016  1.5560  0.1922
  273MOL0     H35985   0.286   3.673   8.695  0.6790  0.8182 -1.4581
  273MOL0     H35986   0.145   3.729   8.781 -0.8958  1.3584 -0.3330
  273MOL0     H35987   0.346   3.918   8.652 -0.5277  0.0783 -2.9791
  273MOL0     H35988   0.187   3.959   8.699  0.4027  2.3793 -1.7282
  273MOL0     H35989  -0.019   3.797   8.559  0.5680  3.4252  2.7391
  273MOL0     H35990  -0.053   3.747   8.203  0.2628 -0.0969 -0.7593
  273MOL0     H35991  -0.046   3.918   8.190 -0.7487 -1.6868 -1.5514
  273MOL0     H35992  -0.200   3.941   8.395 -1.2592 -0.3559  0.6497
  273MOL0     H35993  -0.192   3.768   8.417  0.7282  1.1182  0.4424
  273MOL0     H35994  -0.326   3.909   8.176  1.6388 -0.7112 -0.9510
  273MOL0     H35995  -0.307   3.743   8.186  0.3747  1.8340 -2.1517
  273MOL0     H35996  -0.431   3.785   8.435  1.2204  1.8809  0.3933
  273MOL0     H35997  -0.506   3.737   8.278 -1.7721 -0.3950  2.2393
  273MOL0     H35998  -0.674   4.088   8.245  0.0900  1.8771  2.2929
  273MOL0     H35999  -0.929   4.113   8.277  0.0597  2.8697  1.8910
  273MOL0     H36000  -1.328   3.917   8.548 -2.1644  0.0121 -0.0596
  273MOL0     H36001  -1.559   3.987   8.586 -0.8154  1.8204  1.3587
  273MOL0     H36002  -1.717   4.141   8.723 -1.5247 -0.9596  0.6382
  273MOL0     H36003  -1.772   4.062   8.574 -1.2214  0.3727 -1.0548
  273MOL0     H36004  -1.934   4.168   8.715  0.4897  2.1655  2.4792
  273MOL0     H36005  -1.943   4.215   8.538  1.2795  0.5186 -0.7110
  273MOL0     H36006  -1.826   4.426   8.608  2.2630  0.6727  2.0340
  273MOL0     H36007  -1.858   4.370   8.777 -0.6427 -0.5619 -0.6240
  273MOL0     H36008  -2.050   4.418   8.558 -0.6484  0.1271 -0.3082
  273MOL0     H36009  -2.100   4.357   8.711 -1.6261 -0.3815 -2.8938
  273MOL0     H36010  -1.949   4.628   8.681 -0.2868  0.4751  2.5296
  273MOL0     H36011  -2.054   4.592   8.814 -0.4747  1.8683  0.1194
  273MOL0     H36012  -2.147   4.595   8.522  1.2442  1.8399 -1.1043
  273MOL0     H36013  -2.132   4.744   8.609  2.0980  0.9112  1.4492
  273MOL0     H36014  -2.287   4.514   8.726 -2.3384  0.1068 -1.6011
  273MOL0     H36015  -2.284   4.679   8.786 -1.0772 -0.7252 -0.0345
  273MOL0     H36016  -2.487   4.673   8.682 -0.4554  0.4304  0.2788
  273MOL0     H36017  -2.418   4.566   8.558  1.1426 -1.6134  1.8282
  273MOL0     H36018  -1.475   4.381   8.449 -1.3306  0.2641  1.5553
  273MOL0     H36019  -1.239   4.307   8.402  0.6951  0.2207  2.1795
  273MOL0     H36020  -0.889   3.789   8.566  1.3355  1.0366  0.7434
  273MOL0     H36021  -0.670   3.797   8.547 -1.1147 -0.3389 -0.2727
  273MOL0     H36022   0.900   3.110   8.918 -1.4397  0.7894  2.9720
  273MOL0     H36023   1.123   2.992   8.994  0.2776 -0.3834 -1.0238
  273MOL0     H36024   1.550   3.197   9.228 -0.7945  1.4707 -2.2275
  273MOL0     H36025   1.783   3.218   9.282  0.2380  2.8063 -1.1442
  273MOL0     H36026   2.054   3.022   9.291 -0.1661 -0.8764 -2.2517
  273MOL0     H36027   1.982   3.193   9.327  1.0753  1.9887 -0.9977
  273MOL0     H36028   2.223   3.125   9.167  2.9182 -2.4702  3.3214
  273MOL0     H36029   2.182   3.287   9.227  0.3084  0.5106  1.5928
  273MOL0     H36030   2.329   3.064   9.346  0.1892 -0.5929  1.8277
  273MOL0     H36031   2.204   3.123   9.457  0.2843 -3.1575 -0.0246
  273MOL0     H36032   2.446   3.197   9.482  0.2796 -1.0970 -1.2794
  273MOL0     H36033   2.429   3.302   9.344  1.7595  1.5683  1.4912
  273MOL0     H36034   2.186   3.525   9.617 -3.5461 -1.6758 -0.8088
  273MOL0     H36035   1.889   3.017   8.911 -1.0521 -0.9014 -1.8921
  273MOL0     H36036   1.666   2.989   8.862  1.9232 -0.5109 -0.8100
  274MOL0     O36037   9.826  10.930   3.932  0.0561 -0.1586 -0.1427
  274MOL0     C36038   9.754  11.028   3.890  0.4106 -0.2117  0.2607
  274MOL0     O36039   9.798  11.157   3.862  0.0716  0.4467 -0.2887
  274MOL0     C36040   9.934  11.172   3.846  0.0866 -0.2338 -0.3400
  274MOL0     C36041  10.007  11.121   3.737  0.4161 -0.3564 -0.0336
  274MOL0     C36042  10.138  11.149   3.703 -0.4567  0.7560  0.0300
  274MOL0     C36043  10.206  11.248   3.777 -0.5279  0.0432  0.7944
  274MOL0     O36044  10.334  11.293   3.725 -0.7156  0.4684 -0.6523
  274MOL0     C36045  10.389  11.406   3.795 -0.2399  0.2572  0.5583
  274MOL0     C36046  10.514  11.442   3.706  0.2234 -0.3513 -1.2526
  274MOL0     C36047  10.617  11.329   3.715  0.2642 -0.2687  0.0950
  274MOL0     C36048  10.728  11.354   3.616  0.4498  0.0189  0.0072
  274MOL0     C36049  10.848  11.269   3.644 -0.3298 -0.0844 -0.8590
  274MOL0     C36050  10.939  11.315   3.757  0.2320 -0.1488  0.8336
  274MOL0     C36051  11.075  11.240   3.752  0.5717  0.3858 -0.0413
  274MOL0     C36052  11.139  11.253   3.889 -0.8452  0.2146 -0.5876
  274MOL0     N36053  11.181  11.397   3.914 -0.2773 -0.4258  0.0524
  274MOL0     C36054  11.113  11.497   3.986 -0.0049  0.2417  0.6619
  274MOL0     C36055  11.198  11.606   3.993 -0.2171  0.1331 -0.1677
  274MOL0     C36056  11.164  11.746   4.056 -0.1580  0.8770  0.5048
  274MOL0     C36057  11.260  11.859   4.017 -0.5894 -0.6444  0.0899
  274MOL0     C36058  11.269  11.880   3.865  0.1814 -0.0697 -0.0718
  274MOL0     C36059  11.153  11.948   3.803 -0.0706 -0.0059 -0.5710
  274MOL0     O36060  11.135  12.089   3.855  0.2096 -0.2788  0.4803
  274MOL0     C36061  11.013  12.130   3.908 -0.1238 -0.1546 -1.1496
  274MOL0     C36062  10.921  12.044   3.971  0.0741 -0.3636  0.4351
  274MOL0     C36063  10.808  12.100   4.032  0.4998  0.3043  0.1014
  274MOL0     C36064  10.772  12.238   4.012 -1.2584  0.8703 -0.3936
  274MOL0     C36065  10.645  12.284   4.062 -0.8227 -0.7072 -0.3167
  274MOL0     O36066  10.631  12.420   4.080 -0.5869  0.1301 -0.5121
  274MOL0     C36067  10.511  12.481   4.106  0.8579 -0.2579 -0.2651
  274MOL0     C36068  10.513  12.614   4.170  0.4038  0.0280  0.7409
  274MOL0     C36069  10.395  12.675   4.220 -0.6345 -0.0360 -0.8719
  274MOL0     C36070  10.272  12.629   4.180  0.1662 -0.0546 -0.6547
  274MOL0     O36071  10.165  12.701   4.224 -0.4462  0.2193  0.1499
  274MOL0     C36072  10.050  12.705   4.135 -0.5811 -0.0618 -0.2248
  274MOL0     C36073   9.928  12.762   4.209  0.3103 -0.5852 -0.3032
  274MOL0     C36074   9.799  12.780   4.120 -0.7226  0.5517 -0.4590
  274MOL0     C36075   9.685  12.816   4.200  0.5892 -0.0146 -0.2454
  274MOL0     C36076   9.559  12.799   4.096 -0.2442  0.1573 -1.4539
  274MOL0     C36077   9.428  12.823   4.174  0.2446  0.3455 -0.4357
  274MOL0     C36078   9.401  12.978   4.158  0.4127 -0.2972  0.1499
  274MOL0     C36079   9.303  13.020   4.262 -0.2825  1.1192  0.1289
  274MOL0    Cl36080   9.361  12.987   4.424  0.4742 -0.0713  0.2182
  274MOL0     C36081  10.262  12.506   4.113  0.0905  0.2314  0.3250
  274MOL0     C36082  10.378  12.424   4.096 -0.0704  0.0925  0.2409
  274MOL0     O36083  10.561  12.199   4.098 -0.0389 -0.6244  0.0147
  274MOL0     C36084  10.867  12.321   3.946  0.0865 -0.1357 -0.0912
  274MOL0     C36085  10.984  12.263   3.900 -0.0195 -0.6123  1.0678
  274MOL0     N36086  11.320  11.568   3.930  0.5873 -0.5784 -0.7257
  274MOL0     N36087  11.308  11.450   3.885  0.4468  0.4249 -0.4509
  274MOL0     C36088  10.127  11.312   3.876  0.0141 -1.3683  0.4164
  274MOL0     C36089   9.995  11.283   3.908 -0.4736  0.7309  0.4631
  274MOL0     C36090   9.611  10.997   3.882  0.6241 -0.0521 -0.3711
  274MOL0     C36091   9.554  10.872   3.930  0.5435  0.6055 -0.1768
  274MOL0     C36092   9.415  10.843   3.934 -0.2349 -0.5206 -0.4548
  274MOL0     C36093   9.324  10.947   3.908 -0.2376  0.0113  0.6012
  274MOL0     O36094   9.185  10.938   3.921 -0.1147  0.2551 -0.1752
  274MOL0     C36095   9.138  10.805   3.956  0.1012 -0.0928  0.6217
  274MOL0     C36096   8.989  10.801   3.977  0.2921 -0.4971 -0.2637
  274MOL0     C36097   8.945  10.666   4.020  0.3756  0.9669 -0.8801
  274MOL0     C36098   8.801  10.675   4.068  0.3101  0.0128 -0.0834
  274MOL0     C36099   8.708  10.715   3.963  0.3316 -0.6304  0.2099
  274MOL0     C36100   8.643  10.757   3.868  0.2238  0.4113 -0.0578
  274MOL0     C36101   9.379  11.066   3.862  0.5165  0.5001 -0.0934
  274MOL0     C36102   9.519  11.087   3.841  0.2880  0.0341  0.0717
  274MOL0     H36103   9.949  11.067   3.663  1.0151 -0.0579 -0.7440
  274MOL0     H36104  10.187  11.097   3.622 -1.3131  1.2227 -0.8018
  274MOL0     H36105  10.430  11.374   3.891  1.3344  1.0898  0.2040
  274MOL0     H36106  10.320  11.490   3.799  0.1675  0.5905  0.7108
  274MOL0     H36107  10.572  11.527   3.744  2.6434 -3.6943  3.6537
  274MOL0     H36108  10.495  11.467   3.601  1.8670  1.2830 -1.2294
  274MOL0     H36109  10.574  11.237   3.675 -1.1890 -0.0615  1.0874
  274MOL0     H36110  10.659  11.319   3.815  2.3759  1.1952 -0.5687
  274MOL0     H36111  10.685  11.341   3.516  3.0198  0.6244 -1.2753
  274MOL0     H36112  10.748  11.462   3.623 -0.4360  0.3962 -2.3430
  274MOL0     H36113  10.904  11.266   3.550  1.6661  0.2009  0.2720
  274MOL0     H36114  10.815  11.168   3.670 -3.2543  0.5797 -1.6102
  274MOL0     H36115  10.881  11.282   3.844  0.4756 -1.1254  0.6357
  274MOL0     H36116  10.949  11.424   3.766 -2.0012 -0.0003  2.3178
  274MOL0     H36117  11.062  11.135   3.725 -2.2316  1.0894 -1.9789
  274MOL0     H36118  11.139  11.281   3.673  5.2512 -3.2408  1.4051
  274MOL0     H36119  11.227  11.190   3.878 -1.3190 -1.1982  2.4652
  274MOL0     H36120  11.076  11.199   3.961 -0.0213 -3.3306 -2.2830
  274MOL0     H36121  11.010  11.493   4.021 -0.3918  2.2578 -0.0853
  274MOL0     H36122  11.157  11.732   4.164 -1.6996  1.1371  0.4580
  274MOL0     H36123  11.066  11.789   4.034  1.0013  2.5289 -1.8894
  274MOL0     H36124  11.361  11.832   4.049 -0.0961 -0.4901 -1.2312
  274MOL0     H36125  11.240  11.949   4.075  3.0340 -0.1607  0.8493
  274MOL0     H36126  11.362  11.934   3.844 -0.2849  0.7671 -0.0400
  274MOL0     H36127  11.284  11.789   3.807 -1.2642  0.9801 -2.2153
  274MOL0     H36128  11.060  11.891   3.806 -0.3874  0.5094 -0.4205
  274MOL0     H36129  11.166  11.945   3.694  1.3538  1.3733 -0.4709
  274MOL0     H36130  10.945  11.938   3.983 -4.6777 -1.7303  0.0958
  274MOL0     H36131  10.747  12.022   4.076 -0.5427  0.0080 -1.7524
  274MOL0     H36132  10.608  12.658   4.202  1.3287 -1.9047  0.8131
  274MOL0     H36133  10.399  12.761   4.287 -0.8991  0.1492 -1.0904
  274MOL0     H36134  10.028  12.606   4.095  1.4036  0.4746 -2.8987
  274MOL0     H36135  10.076  12.764   4.047 -1.8205 -0.8144 -1.1228
  274MOL0     H36136   9.962  12.852   4.259  0.4685 -0.2473 -1.0085
  274MOL0     H36137   9.889  12.692   4.283 -2.9549  1.2013 -0.1401
  274MOL0     H36138   9.777  12.688   4.065 -0.9459  0.4616 -0.2214
  274MOL0     H36139   9.829  12.859   4.052 -1.9972  0.3551 -1.2722
  274MOL0     H36140   9.682  12.738   4.276  4.0482 -0.5559 -0.4865
  274MOL0     H36141   9.689  12.916   4.246  1.0526  0.5044 -1.3847
  274MOL0     H36142   9.557  12.692   4.075 -1.7796 -0.4274  1.1913
  274MOL0     H36143   9.572  12.855   4.003  1.0157  2.9635  0.2696
  274MOL0     H36144   9.452  12.791   4.276 -2.4319 -2.0876 -0.4443
  274MOL0     H36145   9.345  12.768   4.129 -0.3330 -0.6887  1.7679
  274MOL0     H36146   9.492  13.039   4.162 -0.9954  2.0319 -1.1131
  274MOL0     H36147   9.358  12.999   4.060 -0.3364  2.3496  0.9672
  274MOL0     H36148   9.208  12.970   4.245 -0.0420 -0.1490  2.1702
  274MOL0     H36149   9.300  13.129   4.256 -1.8505  1.0203 -1.8503
  274MOL0     H36150  10.165  12.457   4.108  1.3105 -2.4012  1.1024
  274MOL0     H36151  10.370  12.319   4.067 -1.3977  0.2893 -0.1601
  274MOL0     H36152  10.856  12.426   3.923 -0.8104 -0.9080 -4.0181
  274MOL0     H36153  11.051  12.318   3.834 -0.0786 -2.1125 -0.3060
  274MOL0     H36154  10.163  11.394   3.938 -1.1213 -1.5349  1.3457
  274MOL0     H36155   9.942  11.349   3.976  0.9033  3.6830 -1.1271
  274MOL0     H36156   9.617  10.787   3.956  1.2799  1.1281 -0.1927
  274MOL0     H36157   9.382  10.748   3.974 -1.6505 -0.2358 -0.9045
  274MOL0     H36158   9.184  10.784   4.053 -1.7443 -1.2692  1.2930
  274MOL0     H36159   9.172  10.736   3.878  2.9907  1.0306  0.7642
  274MOL0     H36160   8.971  10.878   4.053  0.5773 -1.7469  1.1313
  274MOL0     H36161   8.931  10.829   3.888 -0.3265 -0.2513  0.2012
  274MOL0     H36162   9.011  10.633   4.100 -1.6002  1.2892  0.9931
  274MOL0     H36163   8.951  10.601   3.932 -2.6581 -0.3685 -0.2362
  274MOL0     H36164   8.771  10.578   4.110 -0.7109  1.7071  3.4814
  274MOL0     H36165   8.793  10.740   4.155  2.8373  0.0084  0.2074
  274MOL0     H36166   8.569  10.785   3.796  1.0093 -0.2757 -1.1747
  274MOL0     H36167   9.306  11.144   3.841  0.8478  0.5077 -1.2853
  274MOL0     H36168   9.547  11.186   3.806  0.9038  0.1186  0.8019
  275MOL0     O36169   4.021   4.377   6.705  0.0211  0.4806  0.6515
  275MOL0     C36170   4.113   4.407   6.626 -0.6288 -0.3985 -0.2726
  275MOL0     O36171   4.137   4.344   6.507 -0.0188 -0.2727  0.3067
  275MOL0     C36172   4.036   4.272   6.449  0.3833 -0.6864 -0.3766
  275MOL0     C36173   3.898   4.265   6.486  0.2630  0.2577 -0.4395
  275MOL0     C36174   3.813   4.180   6.406  0.2875 -0.3241 -0.3269
  275MOL0     C36175   3.858   4.108   6.300  0.1389 -0.9000 -0.0555
  275MOL0     O36176   3.775   4.030   6.221 -0.0937  0.4848 -0.3956
  275MOL0     C36177   3.769   4.059   6.079  0.0901 -0.5484  0.0900
  275MOL0     C36178   3.632   4.008   6.021 -0.0183  0.2668 -0.5007
  275MOL0     C36179   3.500   4.070   6.065  0.4945  0.4591 -0.0932
  275MOL0     C36180   3.395   4.076   5.949  0.3246  0.4859  0.1157
  275MOL0     C36181   3.254   4.119   5.986 -0.0717 -0.4755 -0.2308
  275MOL0     C36182   3.182   4.000   6.062  0.5741 -0.4188  1.2718
  275MOL0     C36183   3.035   4.037   6.075  0.2446 -0.0966  0.5154
  275MOL0     C36184   2.952   4.018   5.943  0.2553  0.0399 -0.4842
  275MOL0     N36185   2.817   4.068   5.963 -0.8569  0.2357  0.7171
  275MOL0     C36186   2.790   4.196   5.994  0.5203 -0.0682  0.1065
  275MOL0     C36187   2.657   4.194   5.977 -0.0409 -0.4103  0.2762
  275MOL0     C36188   2.585   4.323   5.991  0.1198 -0.7187  1.0089
  275MOL0     C36189   2.535   4.393   5.863 -0.5889  0.6562  0.2366
  275MOL0     C36190   2.448   4.296   5.789  0.0643  0.4243  0.2490
  275MOL0     C36191   2.443   4.332   5.640  0.1783 -0.1193 -0.1261
  275MOL0     O36192   2.378   4.457   5.609 -0.4258  0.1970  0.2257
  275MOL0     C36193   2.244   4.470   5.643 -0.3597  1.0544 -0.0047
  275MOL0     C36194   2.150   4.367   5.681 -1.6395  0.2339  0.4968
  275MOL0     C36195   2.016   4.391   5.711 -0.0505  0.2779  0.7216
  275MOL0     C36196   1.973   4.529   5.701  0.5219 -0.4106  0.7277
  275MOL0     C36197   1.834   4.559   5.722 -0.2065 -0.4170 -0.0203
  275MOL0     O36198   1.815   4.694   5.759  0.0747  0.2601  0.0131
  275MOL0     C36199   1.688   4.741   5.786 -0.2775  0.4069  0.9059
  275MOL0     C36200   1.569   4.712   5.713  0.5818 -0.3923  0.3029
  275MOL0     C36201   1.449   4.762   5.752 -0.9912  0.0218  0.4346
  275MOL0     C36202   1.438   4.850   5.864 -0.3998 -0.0377  0.5770
  275MOL0     O36203   1.322   4.898   5.912  0.5833  0.1565  0.3856
  275MOL0     C36204   1.207   4.913   5.823  0.0482  0.0089 -0.2389
  275MOL0     C36205   1.104   5.007   5.883  0.6416 -0.1744 -0.9621
  275MOL0     C36206   1.042   4.957   6.023 -0.0145  0.3503  1.2106
  275MOL0     C36207   0.932   5.039   6.072 -0.1490 -0.7665  0.2130
  275MOL0     C36208   0.903   5.001   6.217 -0.7131 -0.2794  0.1352
  275MOL0     C36209   0.802   5.103   6.275 -0.2958  0.4910  0.0807
  275MOL0     C36210   0.775   5.098   6.423  0.0080  0.3392 -0.1933
  275MOL0     C36211   0.643   5.031   6.467  0.1360  0.0233  0.7125
  275MOL0    Cl36212   0.501   5.118   6.405  0.3468  0.1008 -0.0433
  275MOL0     C36213   1.554   4.876   5.933 -0.0714 -0.4923  0.4890
  275MOL0     C36214   1.674   4.823   5.898 -1.5032 -0.4272  0.1281
  275MOL0     O36215   1.741   4.481   5.697  0.4150  0.2185  0.0157
  275MOL0     C36216   2.063   4.635   5.670  0.0574 -0.4537 -0.0490
  275MOL0     C36217   2.199   4.601   5.655  0.7248  0.1874  0.7238
  275MOL0     N36218   2.603   4.063   5.962  0.1230 -0.5947 -0.4242
  275MOL0     N36219   2.706   3.993   5.958 -0.2472  0.0503  0.9688
  275MOL0     C36220   3.991   4.117   6.255  0.3179 -0.0175 -1.3160
  275MOL0     C36221   4.077   4.203   6.331 -0.1569  0.1245  0.1154
  275MOL0     C36222   4.183   4.532   6.659  0.2100  0.5730  0.1138
  275MOL0     C36223   4.244   4.604   6.562  0.1366  0.2436  0.4791
  275MOL0     C36224   4.316   4.724   6.581  0.8101  0.6668  0.1417
  275MOL0     C36225   4.324   4.771   6.710  0.1010  0.4225 -1.6275
  275MOL0     O36226   4.397   4.881   6.747  0.1526 -0.0822  0.2210
  275MOL0     C36227   4.447   4.980   6.653  0.1793  0.4425 -0.4005
  275MOL0     C36228   4.577   4.931   6.586 -0.2631  0.0312  0.4520
  275MOL0     C36229   4.687   5.040   6.569 -0.1236 -0.9813 -0.8051
  275MOL0     C36230   4.653   5.145   6.479  0.3033 -0.1960 -0.0840
  275MOL0     C36231   4.596   5.090   6.352  0.7432 -0.2345 -0.1672
  275MOL0     C36232   4.532   5.033   6.260 -0.9473 -0.0663  0.0626
  275MOL0     C36233   4.249   4.703   6.809 -0.6304  0.1634  1.1882
  275MOL0     C36234   4.182   4.585   6.794 -0.2903  0.2837  0.0365
  275MOL0     H36235   3.847   4.311   6.570 -2.5600 -0.5551 -1.6151
  275MOL0     H36236   3.707   4.186   6.423  0.5466  2.7260  0.7820
  275MOL0     H36237   3.852   4.007   6.028 -1.5422 -0.6225 -2.7068
  275MOL0     H36238   3.767   4.168   6.080 -0.6012 -0.5649  0.3748
  275MOL0     H36239   3.617   3.902   6.040 -2.0702  0.6281  0.1613
  275MOL0     H36240   3.638   4.020   5.913  0.9877  1.8847 -0.3114
  275MOL0     H36241   3.523   4.173   6.096  2.1923  1.2726 -3.5315
  275MOL0     H36242   3.458   4.025   6.156 -2.5864  0.5431 -1.3505
  275MOL0     H36243   3.433   4.148   5.876  2.6979  0.2021  0.9873
  275MOL0     H36244   3.376   3.976   5.910 -2.5218  0.8566  0.3366
  275MOL0     H36245   3.197   4.155   5.900 -0.2957  1.5498  0.7089
  275MOL0     H36246   3.265   4.205   6.053  1.3154  0.7016 -1.8893
  275MOL0     H36247   3.223   3.988   6.163  0.3169  4.1825  2.1531
  275MOL0     H36248   3.192   3.903   6.012 -2.3645  0.6779 -1.8375
  275MOL0     H36249   2.983   3.974   6.148  0.2165 -3.6108 -2.2978
  275MOL0     H36250   3.038   4.142   6.105  1.6776 -0.3049  1.1620
  275MOL0     H36251   2.933   3.911   5.925 -2.4258  0.3935 -0.2575
  275MOL0     H36252   2.996   4.071   5.858  0.1450 -1.1619 -1.3193
  275MOL0     H36253   2.859   4.280   5.999  0.1542  0.2668 -0.3777
  275MOL0     H36254   2.656   4.398   6.027 -2.3298  1.3633  1.7459
  275MOL0     H36255   2.503   4.318   6.063  0.2944 -1.1477  1.1860
  275MOL0     H36256   2.617   4.436   5.804  0.7629  0.3888  1.8563
  275MOL0     H36257   2.479   4.483   5.891 -2.1712  0.3804 -1.7865
  275MOL0     H36258   2.481   4.192   5.785 -2.0274 -0.3303  1.2449
  275MOL0     H36259   2.349   4.292   5.835 -0.4938  0.0273 -0.9314
  275MOL0     H36260   2.391   4.253   5.584  4.4982 -2.6534 -0.9913
  275MOL0     H36261   2.546   4.325   5.606  0.4615 -3.1504  0.9972
  275MOL0     H36262   2.205   4.274   5.666  0.7408  1.5818  0.4352
  275MOL0     H36263   1.946   4.308   5.717 -0.9383  0.5845 -3.1870
  275MOL0     H36264   1.571   4.660   5.618  2.4595  3.6930 -2.1529
  275MOL0     H36265   1.367   4.732   5.688  0.1642 -1.0053 -0.6209
  275MOL0     H36266   1.168   4.811   5.811  2.6016 -1.2203  1.1335
  275MOL0     H36267   1.235   4.957   5.726 -1.6196  1.2236 -0.2183
  275MOL0     H36268   1.024   5.035   5.814  0.2456  0.4029 -0.2791
  275MOL0     H36269   1.152   5.103   5.900 -0.7570  0.5571 -0.9985
  275MOL0     H36270   1.114   4.964   6.105  1.0200  2.3501  0.1934
  275MOL0     H36271   1.005   4.854   6.013  0.3087  0.3023  0.4671
  275MOL0     H36272   0.953   5.147   6.070 -1.9423 -0.3528  1.3321
  275MOL0     H36273   0.846   5.022   6.007 -1.3882 -1.2029  1.8724
  275MOL0     H36274   0.991   5.009   6.282  1.9843 -3.1520 -2.8193
  275MOL0     H36275   0.871   4.897   6.216  0.9565 -0.8207 -0.6473
  275MOL0     H36276   0.705   5.081   6.229  0.1962 -1.7823  0.0202
  275MOL0     H36277   0.824   5.208   6.254 -2.4595  1.0021  0.0947
  275MOL0     H36278   0.854   5.042   6.474  0.0821  0.8225  0.2264
  275MOL0     H36279   0.769   5.199   6.465  1.8300 -0.7566  3.0434
  275MOL0     H36280   0.647   5.020   6.575  0.3867  0.1092  0.7139
  275MOL0     H36281   0.631   4.932   6.423  0.2443 -0.5705  1.9998
  275MOL0     H36282   1.548   4.950   6.013  2.8481 -0.2469  0.5818
  275MOL0     H36283   1.756   4.844   5.967 -1.6570 -0.3999  0.3020
  275MOL0     H36284   2.029   4.737   5.659 -1.6026 -1.2028 -2.9581
  275MOL0     H36285   2.268   4.683   5.636  1.0168 -0.1482  0.3293
  275MOL0     H36286   4.020   4.057   6.169  1.7365  2.0005 -2.3012
  275MOL0     H36287   4.180   4.216   6.301  0.8832 -1.3548  2.7038
  275MOL0     H36288   4.248   4.560   6.463 -2.0408  0.3203  0.3161
  275MOL0     H36289   4.375   4.777   6.507 -0.7549  2.5124  0.1676
  275MOL0     H36290   4.471   5.077   6.698  2.0523 -0.3249  0.3802
  275MOL0     H36291   4.370   5.000   6.578 -0.4715  1.5138  0.5319
  275MOL0     H36292   4.632   4.866   6.654  2.4011  1.8481  0.1732
  275MOL0     H36293   4.555   4.886   6.489 -2.9278  0.7136  0.6662
  275MOL0     H36294   4.776   4.984   6.540  0.6533 -0.3307  0.2451
  275MOL0     H36295   4.698   5.072   6.673 -2.1217 -0.4420 -0.7184
  275MOL0     H36296   4.592   5.217   6.534  0.2478 -1.0386  0.9937
  275MOL0     H36297   4.744   5.196   6.447  0.5686 -1.1868 -1.0018
  275MOL0     H36298   4.486   4.978   6.180 -0.0645  0.4342 -0.8277
  275MOL0     H36299   4.248   4.743   6.911 -3.3104  3.3896  0.0827
  275MOL0     H36300   4.121   4.542   6.874 -0.7288  0.3710 -0.2446
  276MOL0     O36301   7.961   0.996   5.734  0.1069  0.0446  0.1819
  276MOL0     C36302   8.061   1.060   5.702  0.2859 -0.2497 -0.7795
  276MOL0     O36303   8.134   1.136   5.783 -0.1025 -0.1776  0.2742
  276MOL0     C36304   8.090   1.178   5.907  0.6480 -0.3798  0.7230
  276MOL0     C36305   8.174   1.161   6.018  0.4502 -0.7758 -0.0211
  276MOL0     C36306   8.147   1.222   6.142  0.0752  0.9646 -0.0068
  276MOL0     C36307   8.032   1.298   6.152  0.1711 -0.5180 -0.9882
  276MOL0     O36308   7.996   1.351   6.274 -0.2028 -0.1966  0.8592
  276MOL0     C36309   8.075   1.455   6.332  0.5892  0.4832  0.6479
  276MOL0     C36310   8.019   1.600   6.309  0.7881  0.2028 -0.6593
  276MOL0     C36311   7.869   1.600   6.320 -0.1289  0.8287  0.6591
  276MOL0     C36312   7.833   1.750   6.295  0.9538  0.1827  0.1221
  276MOL0     C36313   7.700   1.785   6.352 -0.1217  0.2624 -0.1841
  276MOL0     C36314   7.590   1.698   6.296  0.7726 -0.9561 -0.0919
  276MOL0     C36315   7.457   1.711   6.370 -0.0969 -0.3886  0.4655
  276MOL0     C36316   7.350   1.616   6.317 -0.4204 -0.3333  0.3444
  276MOL0     N36317   7.212   1.648   6.356  0.1427  0.5058  0.0285
  276MOL0     C36318   7.156   1.686   6.473 -0.4560  0.6029 -0.5806
  276MOL0     C36319   7.020   1.696   6.458  0.2641  0.1279  0.8885
  276MOL0     C36320   6.927   1.733   6.564  0.1017 -0.3632 -0.3201
  276MOL0     C36321   6.783   1.744   6.512  0.1439 -0.2121 -0.5264
  276MOL0     C36322   6.679   1.754   6.628  0.2149  0.2238  0.1708
  276MOL0     C36323   6.543   1.782   6.577  0.8686  0.2491 -0.0838
  276MOL0     O36324   6.437   1.744   6.663 -0.2824  0.8831 -0.8513
  276MOL0     C36325   6.311   1.763   6.625  0.2797  0.7922 -0.1837
  276MOL0     C36326   6.271   1.747   6.489 -0.3810 -0.1918 -0.0208
  276MOL0     C36327   6.137   1.765   6.452  0.2698 -0.1746  0.8522
  276MOL0     C36328   6.044   1.766   6.558 -0.3125  0.5540 -0.2939
  276MOL0     C36329   5.895   1.755   6.534 -0.6123 -0.2470 -0.8863
  276MOL0     O36330   5.865   1.777   6.405 -0.7440 -0.2797  0.5843
  276MOL0     C36331   5.736   1.763   6.367  0.2375  0.5372  0.8349
  276MOL0     C36332   5.681   1.847   6.270  0.5126  0.9201  0.5148
  276MOL0     C36333   5.557   1.835   6.209  0.5447 -0.3714  0.4144
  276MOL0     C36334   5.473   1.743   6.263  0.1709 -0.3494 -0.3811
  276MOL0     O36335   5.341   1.749   6.220 -0.1773 -0.3099  0.7505
  276MOL0     C36336   5.240   1.690   6.301 -0.5084 -0.5402 -0.2991
  276MOL0     C36337   5.104   1.695   6.239  0.4069  0.0259 -0.8142
  276MOL0     C36338   5.062   1.577   6.155 -0.3824  0.5383  0.6228
  276MOL0     C36339   4.914   1.579   6.126 -0.0171 -0.8791 -0.6677
  276MOL0     C36340   4.876   1.454   6.056  0.6190 -0.3820  0.0495
  276MOL0     C36341   4.735   1.477   6.000  0.4653 -0.1595 -0.7155
  276MOL0     C36342   4.659   1.347   5.952  0.0309 -0.4318 -0.5842
  276MOL0     C36343   4.553   1.383   5.852  0.3220  0.9961  0.6232
  276MOL0    Cl36344   4.600   1.340   5.680  0.4808 -0.0156 -0.3272
  276MOL0     C36345   5.513   1.663   6.371 -0.7575  0.3047  0.0149
  276MOL0     C36346   5.653   1.670   6.411 -0.2395 -0.4713 -0.5064
  276MOL0     O36347   5.817   1.750   6.628  0.2840  0.3423  0.5027
  276MOL0     C36348   6.089   1.769   6.687  0.3144  0.3061 -1.1982
  276MOL0     C36349   6.220   1.787   6.723  0.1972  0.8074  0.0390
  276MOL0     N36350   6.993   1.668   6.327 -0.2919 -1.6826  1.1721
  276MOL0     N36351   7.108   1.635   6.268  0.3394  0.1961 -0.4415
  276MOL0     C36352   7.948   1.324   6.042 -1.4862 -0.7038  0.7709
  276MOL0     C36353   7.981   1.268   5.918  0.0884  0.7699 -0.3903
  276MOL0     C36354   8.121   1.010   5.566 -0.0809  0.1550  0.3223
  276MOL0     C36355   8.244   1.047   5.532  1.1501 -0.2331  0.3591
  276MOL0     C36356   8.299   1.013   5.411 -0.4384  1.0274 -1.0320
  276MOL0     C36357   8.230   0.925   5.320  0.1079 -0.1786 -1.0405
  276MOL0     O36358   8.278   0.886   5.197  0.5200 -0.3047  0.7714
  276MOL0     C36359   8.422   0.904   5.161  0.3048  0.3671 -0.6861
  276MOL0     C36360   8.512   0.791   5.201 -0.1620 -0.3456 -0.7152
  276MOL0     C36361   8.652   0.815   5.151 -0.1907  0.2640 -0.2179
  276MOL0     C36362   8.724   0.683   5.134 -0.2597  0.3010  0.2417
  276MOL0     C36363   8.872   0.698   5.101  0.4893  0.5771 -0.3193
  276MOL0     C36364   8.993   0.717   5.090  0.2613  0.1355 -0.4202
  276MOL0     C36365   8.102   0.883   5.355  0.7708  0.8399  0.2344
  276MOL0     C36366   8.049   0.923   5.480 -0.2320 -0.1928 -0.0810
  276MOL0     H36367   8.267   1.106   6.020  1.9296  1.5780  0.6211
  276MOL0     H36368   8.204   1.209   6.233  3.1749  0.2002 -1.9282
  276MOL0     H36369   8.180   1.434   6.307 -0.3809 -1.0172 -2.7087
  276MOL0     H36370   8.065   1.436   6.439 -0.1134  2.6118  1.0041
  276MOL0     H36371   8.054   1.632   6.210 -0.3700  2.5146 -0.3795
  276MOL0     H36372   8.052   1.677   6.379 -1.2076  0.6146 -0.1183
  276MOL0     H36373   7.844   1.556   6.416 -1.8046 -1.9990 -0.9532
  276MOL0     H36374   7.826   1.537   6.242  0.4537 -0.0728  1.0499
  276MOL0     H36375   7.902   1.824   6.338  0.2314  1.8135 -1.3898
  276MOL0     H36376   7.834   1.764   6.186 -0.0336 -1.2326 -0.0877
  276MOL0     H36377   7.688   1.891   6.327  0.5216  0.8426  1.8091
  276MOL0     H36378   7.703   1.777   6.461  1.2641  0.9368 -0.1572
  276MOL0     H36379   7.613   1.591   6.307 -2.7934 -1.5639  3.1894
  276MOL0     H36380   7.562   1.723   6.193  0.1053  2.3166  0.7759
  276MOL0     H36381   7.470   1.696   6.478  2.8619 -0.4416  0.1839
  276MOL0     H36382   7.426   1.815   6.356  2.0186  0.3724  1.0137
  276MOL0     H36383   7.371   1.511   6.342  1.1516 -0.7453 -2.3475
  276MOL0     H36384   7.344   1.618   6.208 -0.4893  1.0522  0.3578
  276MOL0     H36385   7.206   1.706   6.567 -3.6144  2.1518  0.9447
  276MOL0     H36386   6.956   1.828   6.611  0.3397 -0.2244 -0.7406
  276MOL0     H36387   6.930   1.654   6.639  0.2199 -1.2048 -1.1890
  276MOL0     H36388   6.756   1.658   6.449  0.3521 -1.3409  0.8720
  276MOL0     H36389   6.780   1.835   6.451 -0.9129 -0.3073 -0.6399
  276MOL0     H36390   6.684   1.656   6.677 -1.5506  0.5976  1.1863
  276MOL0     H36391   6.702   1.820   6.713  1.2747  0.0814  0.0151
  276MOL0     H36392   6.531   1.715   6.491 -1.2377  1.5785 -0.9168
  276MOL0     H36393   6.545   1.889   6.553 -0.3379  0.0256 -1.3349
  276MOL0     H36394   6.345   1.720   6.414  0.7767 -1.9630  1.6618
  276MOL0     H36395   6.108   1.753   6.348  2.6012  1.1764 -0.0509
  276MOL0     H36396   5.746   1.918   6.220 -0.4105  0.1532 -1.9413
  276MOL0     H36397   5.534   1.899   6.124 -0.3343 -0.5925  0.4681
  276MOL0     H36398   5.233   1.752   6.391  3.0127  0.4317 -0.5379
  276MOL0     H36399   5.259   1.585   6.325  0.6803 -0.0625  1.0335
  276MOL0     H36400   5.103   1.793   6.190  1.7418  0.1060 -0.7177
  276MOL0     H36401   5.035   1.697   6.324  3.0955 -0.0409  1.5287
  276MOL0     H36402   5.086   1.477   6.193  1.6000  0.2300 -1.2068
  276MOL0     H36403   5.109   1.586   6.056 -0.0387  0.4604  0.7784
  276MOL0     H36404   4.850   1.599   6.213 -0.4382  2.4408 -1.5963
  276MOL0     H36405   4.899   1.670   6.067 -1.0076  0.6040  1.6891
  276MOL0     H36406   4.877   1.381   6.138 -0.4203  0.9900  1.3261
  276MOL0     H36407   4.955   1.430   5.984 -0.6719  0.2118 -1.6111
  276MOL0     H36408   4.744   1.561   5.930  1.9616  2.1360  1.9859
  276MOL0     H36409   4.667   1.525   6.072 -2.2484  1.0026 -3.7981
  276MOL0     H36410   4.724   1.275   5.902  0.0024 -1.1198  0.3562
  276MOL0     H36411   4.611   1.302   6.039 -0.4135  0.8340 -0.1421
  276MOL0     H36412   4.524   1.488   5.843 -1.5934  0.3325 -2.3725
  276MOL0     H36413   4.464   1.337   5.897  1.2558  1.5897  3.2817
  276MOL0     H36414   5.452   1.596   6.430 -1.2823  2.3116  1.8516
  276MOL0     H36415   5.688   1.602   6.489  1.8926  0.5243 -0.5491
  276MOL0     H36416   6.015   1.764   6.766  2.8989  0.7177  1.4547
  276MOL0     H36417   6.254   1.812   6.823  0.1606  1.8959 -0.2000
  276MOL0     H36418   7.863   1.389   6.062 -0.9311  1.6527 -3.3519
  276MOL0     H36419   7.913   1.278   5.834 -1.8110 -0.8289  0.8968
  276MOL0     H36420   8.291   1.113   5.604  1.5277  0.0325 -0.1183
  276MOL0     H36421   8.392   1.058   5.379  1.2251  0.3545  2.4192
  276MOL0     H36422   8.463   1.001   5.189  0.4285  0.2880 -0.5925
  276MOL0     H36423   8.428   0.899   5.052  0.6988  1.2408 -0.7093
  276MOL0     H36424   8.506   0.784   5.310  0.8463 -0.3422 -0.6482
  276MOL0     H36425   8.464   0.699   5.165 -0.7822 -0.8424  1.2268
  276MOL0     H36426   8.708   0.874   5.223 -0.7560  0.0736  0.3918
  276MOL0     H36427   8.648   0.868   5.056  1.9200  1.2610  0.2045
  276MOL0     H36428   8.712   0.619   5.223 -0.8783  0.8574  0.5673
  276MOL0     H36429   8.688   0.626   5.048  2.2356  0.8624 -1.2405
  276MOL0     H36430   9.096   0.743   5.076  0.7705 -1.4060  0.2722
  276MOL0     H36431   8.041   0.814   5.297 -2.2691  0.6954  3.2877
  276MOL0     H36432   7.952   0.888   5.515 -0.6319  1.6064  0.7110
  277MOL0     O36433   6.759   7.116   5.150  0.4591 -0.5989 -1.1348
  277MOL0     C36434   6.806   7.118   5.269 -0.1880 -0.5838  1.0442
  277MOL0     O36435   6.729   7.162   5.381 -0.5309  0.2519  0.4779
  277MOL0     C36436   6.607   7.211   5.379  0.8262 -1.3323  0.2844
  277MOL0     C36437   6.581   7.300   5.483  0.3099  1.0544  0.1596
  277MOL0     C36438   6.456   7.359   5.508  0.2835  0.3785  0.0933
  277MOL0     C36439   6.351   7.328   5.419  0.2052 -0.5571  0.8887
  277MOL0     O36440   6.218   7.370   5.436  0.0811 -0.8684 -0.3890
  277MOL0     C36441   6.189   7.455   5.550 -0.8536 -0.1700 -0.1873
  277MOL0     C36442   6.043   7.502   5.547 -0.1987  0.3571 -0.5109
  277MOL0     C36443   5.996   7.544   5.402  0.0153  0.6169 -0.4467
  277MOL0     C36444   5.847   7.576   5.397  0.1567 -0.1691  0.3279
  277MOL0     C36445   5.795   7.613   5.248  0.9840  0.2605 -0.1230
  277MOL0     C36446   5.645   7.600   5.247  0.5361  0.3169  0.9083
  277MOL0     C36447   5.584   7.655   5.116  0.4893 -0.1061  0.2512
  277MOL0     C36448   5.428   7.629   5.115 -0.0060 -0.4585 -0.3991
  277MOL0     N36449   5.383   7.681   4.992 -0.0962 -0.1330  0.0946
  277MOL0     C36450   5.304   7.607   4.906 -0.2367 -0.4480 -0.9224
  277MOL0     C36451   5.284   7.677   4.800 -0.3662 -0.2647  0.3438
  277MOL0     C36452   5.212   7.618   4.676 -0.0081 -1.6849  0.4467
  277MOL0     C36453   5.058   7.629   4.697  0.2134  0.2008 -0.0040
  277MOL0     C36454   4.993   7.750   4.633 -0.2068  0.0301  0.3654
  277MOL0     C36455   4.842   7.753   4.688  0.6758  0.8026  0.0358
  277MOL0     O36456   4.776   7.862   4.630 -0.5313 -0.0432 -0.5623
  277MOL0     C36457   4.643   7.892   4.654  0.3614  0.0370  0.0511
  277MOL0     C36458   4.588   7.997   4.574 -0.0313 -0.1891 -0.0343
  277MOL0     C36459   4.449   8.025   4.573 -0.5860  0.4504  0.6107
  277MOL0     C36460   4.368   7.959   4.660 -0.0411  0.1520  1.0316
  277MOL0     C36461   4.232   7.983   4.674 -0.2686  0.8538 -0.1335
  277MOL0     O36462   4.181   7.939   4.795  0.3369  0.5111  0.0389
  277MOL0     C36463   4.058   7.985   4.818  0.5646  0.0699  0.0809
  277MOL0     C36464   3.953   7.953   4.730 -0.0725 -0.9876 -1.3914
  277MOL0     C36465   3.826   8.011   4.750 -0.3804  0.2347  0.3085
  277MOL0     C36466   3.789   8.090   4.861  0.1895  1.4254 -0.4593
  277MOL0     O36467   3.661   8.144   4.873 -0.6024 -0.3135 -0.6986
  277MOL0     C36468   3.556   8.094   4.789 -0.1458  0.2331 -0.0888
  277MOL0     C36469   3.421   8.137   4.843 -0.1642  0.5498  0.1213
  277MOL0     C36470   3.346   8.250   4.787 -0.2151  0.2307  0.3177
  277MOL0     C36471   3.208   8.266   4.855 -0.4780 -0.3715 -1.0944
  277MOL0     C36472   3.131   8.369   4.778  0.3596 -0.0581 -0.2392
  277MOL0     C36473   2.995   8.392   4.843  0.0899  0.0103 -0.7146
  277MOL0     C36474   2.902   8.472   4.751  0.0483 -0.6892 -0.0133
  277MOL0     C36475   2.756   8.465   4.810  0.6007  0.0807  0.1625
  277MOL0    Cl36476   2.644   8.529   4.681 -0.6598 -0.3105 -0.4144
  277MOL0     C36477   3.900   8.117   4.952 -0.5099  0.4826 -0.2358
  277MOL0     C36478   4.032   8.065   4.927  1.2898  0.2866  0.6422
  277MOL0     O36479   4.171   8.027   4.576  0.2691 -0.5987  0.1818
  277MOL0     C36480   4.419   7.850   4.734  0.6431 -0.0719  0.0260
  277MOL0     C36481   4.555   7.818   4.731  0.4788  0.0426 -0.5845
  277MOL0     N36482   5.348   7.796   4.822  0.1161  0.2389  0.4771
  277MOL0     N36483   5.407   7.801   4.943 -0.2100 -0.0384 -0.2510
  277MOL0     C36484   6.380   7.245   5.305  0.3001 -0.8533 -0.6224
  277MOL0     C36485   6.511   7.187   5.286  0.9424 -0.7116  0.4007
  277MOL0     C36486   6.934   7.067   5.300  0.4157 -0.2249 -0.0074
  277MOL0     C36487   7.009   6.982   5.213 -0.2002  0.6725  0.1168
  277MOL0     C36488   7.135   6.932   5.243 -0.3159 -0.0513  0.2555
  277MOL0     C36489   7.194   6.974   5.364  0.3383  0.4515 -0.5501
  277MOL0     O36490   7.322   6.932   5.368 -0.0180  0.0581  0.1286
  277MOL0     C36491   7.391   6.975   5.487  0.9491  0.3910 -0.6468
  277MOL0     C36492   7.529   6.923   5.478 -0.0093  0.7985 -0.1731
  277MOL0     C36493   7.637   7.014   5.535 -0.2203 -0.8500 -0.8615
  277MOL0     C36494   7.696   6.965   5.665  1.0126 -0.2726 -0.4524
  277MOL0     C36495   7.773   6.845   5.633 -0.4282 -0.4027 -0.2367
  277MOL0     C36496   7.832   6.745   5.590 -0.5251 -0.3359  0.0701
  277MOL0     C36497   7.130   7.060   5.450  0.4874  0.1867  0.9027
  277MOL0     C36498   6.998   7.104   5.414 -0.4201  0.0949 -0.6362
  277MOL0     H36499   6.664   7.319   5.551  0.7772 -1.0369  0.2215
  277MOL0     H36500   6.438   7.421   5.595  0.5657  0.5630  0.0201
  277MOL0     H36501   6.250   7.546   5.549 -1.7905  0.4951 -2.1817
  277MOL0     H36502   6.208   7.403   5.644  0.1501 -0.2719 -0.4407
  277MOL0     H36503   6.038   7.589   5.613  1.5816 -0.4421  0.7515
  277MOL0     H36504   5.974   7.424   5.580 -0.3616  0.7750  0.1494
  277MOL0     H36505   6.026   7.471   5.326  2.9858 -0.1766  1.2942
  277MOL0     H36506   6.065   7.626   5.381  1.4760 -0.1336  1.1230
  277MOL0     H36507   5.782   7.502   5.444  0.5029 -1.1349 -0.6571
  277MOL0     H36508   5.825   7.660   5.463 -0.3432  0.2076 -0.3021
  277MOL0     H36509   5.833   7.543   5.172  0.2220  2.7006 -2.9535
  277MOL0     H36510   5.833   7.709   5.213 -0.2763 -0.3404 -3.5053
  277MOL0     H36511   5.604   7.661   5.328 -0.2366  1.1827 -0.1049
  277MOL0     H36512   5.613   7.496   5.259  2.0612 -0.2180  0.5769
  277MOL0     H36513   5.615   7.760   5.122  0.7785 -0.2078  0.5734
  277MOL0     H36514   5.631   7.624   5.023 -0.2700  0.3538 -0.2933
  277MOL0     H36515   5.385   7.683   5.199  1.0548  0.9109 -0.6931
  277MOL0     H36516   5.413   7.521   5.124  2.3888 -0.6914  1.6192
  277MOL0     H36517   5.255   7.512   4.924 -0.2883 -0.7183 -2.3802
  277MOL0     H36518   5.242   7.517   4.647 -0.1754 -1.6352  0.1010
  277MOL0     H36519   5.225   7.685   4.590 -1.3070 -0.7707  0.9185
  277MOL0     H36520   5.031   7.627   4.803  2.6173  0.2926  0.6742
  277MOL0     H36521   5.014   7.546   4.640 -4.4562  1.7660  0.9299
  277MOL0     H36522   5.040   7.842   4.670 -0.0443 -1.7472  5.3935
  277MOL0     H36523   5.005   7.755   4.524 -2.2359 -3.2844 -0.1134
  277MOL0     H36524   4.825   7.766   4.795  0.9434 -1.6433  0.4403
  277MOL0     H36525   4.799   7.658   4.656  3.1390 -1.2545  2.3787
  277MOL0     H36526   4.658   8.047   4.508 -0.9151  0.8124 -0.2413
  277MOL0     H36527   4.416   8.091   4.493  1.7720  0.0659 -0.7727
  277MOL0     H36528   3.972   7.887   4.647 -0.7207 -4.9352  1.2991
  277MOL0     H36529   3.756   8.004   4.668  2.3141  0.2587 -2.1620
  277MOL0     H36530   3.563   7.985   4.791 -0.7627  0.1229  3.3972
  277MOL0     H36531   3.567   8.124   4.685  0.1917 -1.9339 -0.7346
  277MOL0     H36532   3.447   8.159   4.947  1.3646  1.8488 -0.4868
  277MOL0     H36533   3.360   8.048   4.829  0.5185  0.1762 -0.5398
  277MOL0     H36534   3.334   8.243   4.679  0.1232 -1.3919  0.3597
  277MOL0     H36535   3.402   8.342   4.805 -0.1328 -0.2530  3.0248
  277MOL0     H36536   3.159   8.168   4.855 -0.8420 -0.2453  1.1108
  277MOL0     H36537   3.238   8.291   4.957  3.1532 -3.6011 -1.1403
  277MOL0     H36538   3.127   8.326   4.677 -1.6913 -1.4593  0.3557
  277MOL0     H36539   3.179   8.467   4.776  0.0603  0.1154  0.5167
  277MOL0     H36540   2.997   8.435   4.943  0.5454 -3.3204  0.8309
  277MOL0     H36541   2.943   8.295   4.848 -1.7062  0.9999  2.3086
  277MOL0     H36542   2.947   8.572   4.744  0.9271 -0.9559  1.4129
  277MOL0     H36543   2.890   8.431   4.650  1.1919 -1.1819  0.0328
  277MOL0     H36544   2.755   8.527   4.900  2.4248 -1.1682  1.1027
  277MOL0     H36545   2.725   8.363   4.834  0.0119 -0.0565 -1.1027
  277MOL0     H36546   3.888   8.196   5.025 -0.5656  2.9029 -2.7072
  277MOL0     H36547   4.118   8.101   4.983  1.7033  0.2893  0.0131
  277MOL0     H36548   4.345   7.786   4.781 -1.9140  0.9273 -2.3085
  277MOL0     H36549   4.586   7.733   4.791  2.6667  0.9956 -0.2781
  277MOL0     H36550   6.294   7.227   5.241  1.6137  1.0015 -3.0969
  277MOL0     H36551   6.522   7.114   5.207 -0.9067  0.1825 -0.7423
  277MOL0     H36552   6.974   6.924   5.128 -0.7160  0.4353  0.4859
  277MOL0     H36553   7.203   6.865   5.192  1.6243  1.6734  0.4282
  277MOL0     H36554   7.338   6.934   5.573  2.9300 -0.9360  0.0191
  277MOL0     H36555   7.392   7.085   5.490  1.6693  0.3864 -0.3169
  277MOL0     H36556   7.540   6.820   5.513  1.6810  1.5398  1.6773
  277MOL0     H36557   7.557   6.920   5.372 -4.2562 -3.6421 -1.5068
  277MOL0     H36558   7.596   7.114   5.549 -1.0583 -0.9405 -2.4197
  277MOL0     H36559   7.726   7.032   5.475 -0.0950 -0.1806 -0.4787
  277MOL0     H36560   7.763   7.045   5.697  1.7308  0.3911 -3.3160
  277MOL0     H36561   7.620   6.960   5.743  0.9266 -1.7477 -0.6100
  277MOL0     H36562   7.905   6.683   5.541  0.1358 -0.2823  0.9473
  277MOL0     H36563   7.169   7.102   5.543  1.2447 -0.5040  0.9036
  277MOL0     H36564   6.949   7.182   5.471 -2.9176 -2.4233  0.8861
  278MOL0     O36565   3.637   0.666   2.023  0.3329  0.2721  0.2631
  278MOL0     C36566   3.663   0.624   2.137  0.2302 -0.4741 -0.1890
  278MOL0     O36567   3.570   0.565   2.226  0.5389  0.0774 -0.4726
  278MOL0     C36568   3.439   0.586   2.196  0.1866 -0.5214 -0.6482
  278MOL0     C36569   3.360   0.495   2.116 -0.1562  0.1022  0.0122
  278MOL0     C36570   3.223   0.518   2.092 -0.6681  0.2456 -0.4060
  278MOL0     C36571   3.157   0.622   2.159  0.0765  0.2569  0.2267
  278MOL0     O36572   3.025   0.636   2.128  0.2224 -0.0462 -0.4153
  278MOL0     C36573   2.963   0.758   2.126 -0.0343 -0.0879 -0.3184
  278MOL0     C36574   2.848   0.747   2.031  0.2011 -0.2131  0.0516
  278MOL0     C36575   2.894   0.762   1.884  0.3536 -0.7951 -0.4879
  278MOL0     C36576   2.770   0.724   1.798 -0.9812 -0.2807  0.2896
  278MOL0     C36577   2.804   0.741   1.649 -0.4905 -0.4548 -0.5067
  278MOL0     C36578   2.712   0.643   1.568  0.2739 -0.4038 -0.9154
  278MOL0     C36579   2.625   0.721   1.478  1.1490 -0.2429 -0.1808
  278MOL0     C36580   2.498   0.796   1.543 -0.0946 -0.3513  0.0508
  278MOL0     N36581   2.434   0.876   1.438  0.6662  0.6823  0.3715
  278MOL0     C36582   2.362   0.817   1.337  0.9749 -0.6187  0.7029
  278MOL0     C36583   2.306   0.931   1.271 -0.1346  0.3527  0.2605
  278MOL0     C36584   2.196   0.911   1.177 -0.1403  0.2324  0.0314
  278MOL0     C36585   2.214   1.021   1.067 -0.1439 -0.8586 -0.5561
  278MOL0     C36586   2.070   1.027   0.999  0.3045 -0.0777 -0.1030
  278MOL0     C36587   2.024   0.902   0.931  0.0425  0.2703 -0.5773
  278MOL0     O36588   1.907   0.927   0.846  0.0003 -0.1144 -0.4945
  278MOL0     C36589   1.927   0.995   0.726 -0.0949  0.1212 -0.3673
  278MOL0     C36590   2.041   0.993   0.648 -0.0153  0.1861  0.5190
  278MOL0     C36591   2.055   1.057   0.529  0.1467  0.5611  0.4666
  278MOL0     C36592   1.955   1.147   0.488  0.4950  1.0617  0.3589
  278MOL0     C36593   1.966   1.226   0.368  0.6956  0.9643 -0.8735
  278MOL0     O36594   1.852   1.294   0.322  0.2541  0.2396  0.3474
  278MOL0     C36595   1.850   1.340   0.195  0.0620  0.0074  0.2065
  278MOL0     C36596   1.734   1.422   0.169  0.2896 -0.0088  0.1823
  278MOL0     C36597   1.710   1.487   0.056 -0.5497 -0.2840  0.5381
  278MOL0     C36598   1.791   1.462  -0.050  1.2367 -0.7975 -0.4850
  278MOL0     O36599   1.746   1.513  -0.176 -0.4747 -0.2192 -0.0940
  278MOL0     C36600   1.733   1.424  -0.290  0.0155  0.1583 -0.8069
  278MOL0     C36601   1.585   1.415  -0.347 -0.3963 -0.3724 -0.3881
  278MOL0     C36602   1.526   1.553  -0.386  0.5543  0.1330  0.3817
  278MOL0     C36603   1.419   1.553  -0.506  0.2788 -0.4042 -0.6074
  278MOL0     C36604   1.392   1.703  -0.533  0.5008  0.5433  0.1304
  278MOL0     C36605   1.272   1.700  -0.640 -1.5238 -0.4989 -0.0975
  278MOL0     C36606   1.299   1.628  -0.775  0.3137 -0.9621 -0.0523
  278MOL0     C36607   1.186   1.622  -0.878 -0.4141 -0.4182  0.7361
  278MOL0    Cl36608   1.131   1.795  -0.906 -0.1039 -0.0160 -0.3254
  278MOL0     C36609   1.896   1.372  -0.042 -0.7192 -0.0050 -0.8468
  278MOL0     C36610   1.922   1.306   0.082 -0.0437 -0.4295 -0.8946
  278MOL0     O36611   2.085   1.238   0.333 -0.3759  0.4207  0.1842
  278MOL0     C36612   1.833   1.152   0.565 -0.3119  0.1633  0.5866
  278MOL0     C36613   1.828   1.074   0.680  0.1249  0.4237 -0.4432
  278MOL0     N36614   2.349   1.044   1.334  0.8405  0.6265 -0.1016
  278MOL0     N36615   2.413   1.011   1.440  0.5514 -0.5768 -0.3737
  278MOL0     C36616   3.237   0.719   2.229 -0.0486 -0.4496 -0.0737
  278MOL0     C36617   3.372   0.701   2.250 -0.5835 -0.2989 -0.6145
  278MOL0     C36618   3.806   0.656   2.192  0.0439  0.2411 -0.2252
  278MOL0     C36619   3.828   0.638   2.332 -0.4726  1.4099  0.0553
  278MOL0     C36620   3.952   0.650   2.392  0.7473  0.2350 -0.6147
  278MOL0     C36621   4.069   0.674   2.316 -0.2935 -1.1369 -0.0009
  278MOL0     O36622   4.186   0.692   2.387  0.1030  0.3401 -0.3481
  278MOL0     C36623   4.309   0.664   2.315 -1.2039 -0.1380  0.9202
  278MOL0     C36624   4.349   0.516   2.268  0.2603  0.1469 -0.2258
  278MOL0     C36625   4.475   0.525   2.179 -0.1862 -0.1814 -0.2135
  278MOL0     C36626   4.570   0.407   2.196  0.3939  0.1230 -0.5427
  278MOL0     C36627   4.706   0.449   2.153  0.6255 -0.3791  0.0906
  278MOL0     C36628   4.817   0.455   2.097  0.5393 -0.0645  0.4420
  278MOL0     C36629   4.046   0.683   2.180 -0.2918 -1.1951 -0.6280
  278MOL0     C36630   3.919   0.674   2.113  0.3206 -0.4641 -0.0488
  278MOL0     H36631   3.406   0.404   2.080 -1.0380  0.6680 -2.7800
  278MOL0     H36632   3.163   0.455   2.027 -1.0558  0.2756 -0.0802
  278MOL0     H36633   3.042   0.826   2.092  1.4550 -1.6077  0.0012
  278MOL0     H36634   2.934   0.773   2.231 -0.6129 -0.7860 -0.3709
  278MOL0     H36635   2.768   0.820   2.048 -0.0566  0.5762 -3.5452
  278MOL0     H36636   2.813   0.644   2.038  1.2286 -0.6186 -0.5432
  278MOL0     H36637   2.969   0.683   1.872  0.4559 -1.4256  3.1677
  278MOL0     H36638   2.948   0.854   1.862  5.1824 -3.0481  0.6074
  278MOL0     H36639   2.747   0.620   1.820 -0.4576 -0.8078 -1.4865
  278MOL0     H36640   2.685   0.786   1.829 -2.1032 -1.0037 -1.1968
  278MOL0     H36641   2.906   0.703   1.637 -0.3005  0.0868 -0.6651
  278MOL0     H36642   2.802   0.844   1.611 -2.4181  0.1769  1.1440
  278MOL0     H36643   2.657   0.570   1.628  0.9699 -1.0691 -1.0673
  278MOL0     H36644   2.775   0.582   1.502 -0.4734 -0.9239 -1.1632
  278MOL0     H36645   2.686   0.802   1.435  1.6551 -1.5291 -1.9817
  278MOL0     H36646   2.595   0.656   1.396  0.3114  1.4860 -1.3006
  278MOL0     H36647   2.520   0.860   1.629  3.0041 -2.5436  1.1183
  278MOL0     H36648   2.439   0.709   1.574 -0.8371  0.0964 -0.1077
  278MOL0     H36649   2.355   0.711   1.314 -2.0435 -0.8297  2.1095
  278MOL0     H36650   2.101   0.931   1.226 -0.3146  1.8883 -0.9382
  278MOL0     H36651   2.190   0.813   1.128 -0.5687  0.6214 -0.7176
  278MOL0     H36652   2.299   0.994   1.005  0.7592 -2.5612  1.2896
  278MOL0     H36653   2.240   1.122   1.098  2.8913 -1.2033 -1.7057
  278MOL0     H36654   1.998   1.069   1.070 -1.2012 -2.4323 -0.1500
  278MOL0     H36655   2.066   1.111   0.929 -0.7656  0.7287  0.8808
  278MOL0     H36656   1.982   0.840   1.011 -1.8566 -2.5320 -3.4790
  278MOL0     H36657   2.108   0.853   0.881  0.6715  1.0925 -0.3425
  278MOL0     H36658   2.123   0.933   0.687  0.5440  0.0086 -0.8722
  278MOL0     H36659   2.142   1.043   0.465 -1.8243  0.7042 -2.4368
  278MOL0     H36660   1.661   1.432   0.248 -1.0581 -1.8894 -0.7319
  278MOL0     H36661   1.627   1.554   0.036 -1.8147 -1.1838  2.4296
  278MOL0     H36662   1.765   1.324  -0.262 -0.0349  0.5564  0.7289
  278MOL0     H36663   1.810   1.458  -0.360  3.0516 -0.4822  2.0352
  278MOL0     H36664   1.515   1.380  -0.270 -0.1427  2.1660  1.1070
  278MOL0     H36665   1.588   1.340  -0.426 -1.8805 -0.2518 -0.5951
  278MOL0     H36666   1.612   1.615  -0.411 -0.5465  0.8461 -1.9177
  278MOL0     H36667   1.473   1.589  -0.298  0.9065  3.1255 -0.5158
  278MOL0     H36668   1.461   1.511  -0.597  1.8449  2.6876 -1.4372
  278MOL0     H36669   1.333   1.488  -0.485 -0.1115 -0.0605 -1.1143
  278MOL0     H36670   1.476   1.765  -0.563 -0.6941  1.4350 -1.5235
  278MOL0     H36671   1.355   1.741  -0.437  0.7235 -1.1568  0.9166
  278MOL0     H36672   1.250   1.806  -0.655  0.4931  0.1704  1.3495
  278MOL0     H36673   1.185   1.653  -0.592  0.4215 -2.5256  1.6570
  278MOL0     H36674   1.386   1.678  -0.817  1.1651 -2.6379 -0.3436
  278MOL0     H36675   1.330   1.523  -0.765  1.1626 -0.7712 -0.6322
  278MOL0     H36676   1.102   1.567  -0.835 -0.0799  0.2152  2.2611
  278MOL0     H36677   1.221   1.566  -0.966 -1.4124 -1.4818  0.9944
  278MOL0     H36678   1.951   1.337  -0.129  1.2746 -2.4053  1.2440
  278MOL0     H36679   2.004   1.235   0.084 -0.6050 -1.1629 -2.4008
  278MOL0     H36680   1.743   1.204   0.533  0.3263  1.9110  1.5067
  278MOL0     H36681   1.736   1.072   0.737  1.3088 -1.3127  1.5539
  278MOL0     H36682   3.188   0.811   2.257 -0.4105 -0.2275 -1.3493
  278MOL0     H36683   3.425   0.784   2.295  0.7384 -0.1042 -2.4329
  278MOL0     H36684   3.751   0.604   2.401 -1.2158 -0.1121 -1.4528
  278MOL0     H36685   3.963   0.641   2.500 -2.2388 -0.5416 -0.2799
  278MOL0     H36686   4.385   0.698   2.385 -1.6078  0.5609  1.0233
  278MOL0     H36687   4.310   0.735   2.232  1.0574 -1.2402 -0.0953
  278MOL0     H36688   4.367   0.476   2.369 -1.4145  0.4963  0.2532
  278MOL0     H36689   4.264   0.475   2.212  0.4680  2.0977 -2.1154
  278MOL0     H36690   4.536   0.614   2.193  0.9814 -0.9885  0.0187
  278MOL0     H36691   4.436   0.523   2.077  1.7634  2.0852 -1.1136
  278MOL0     H36692   4.574   0.365   2.298  2.7994  0.8700 -0.2576
  278MOL0     H36693   4.538   0.324   2.132 -0.0104 -0.9107  0.9204
  278MOL0     H36694   4.914   0.439   2.055  0.1955 -1.9527  0.2928
  278MOL0     H36695   4.133   0.683   2.116  0.7248 -0.1735  0.7075
  278MOL0     H36696   3.907   0.676   2.005 -0.6773  0.9127  0.0614
  279MOL0     O36697   1.650   4.398   1.850 -0.3394  0.7489 -0.0485
  279MOL0     C36698   1.682   4.408   1.729  0.6447 -0.5927 -0.0403
  279MOL0     O36699   1.586   4.421   1.624  0.2052  0.5353  0.2370
  279MOL0     C36700   1.458   4.437   1.652 -0.4075 -0.0039  0.9427
  279MOL0     C36701   1.410   4.565   1.687  0.0769  0.4227 -0.0460
  279MOL0     C36702   1.278   4.582   1.714 -0.8256  0.1518 -0.2044
  279MOL0     C36703   1.190   4.469   1.688 -0.6352 -0.5424 -0.4513
  279MOL0     O36704   1.060   4.507   1.696 -0.0447 -0.0154  0.6935
  279MOL0     C36705   0.958   4.433   1.623  0.5138  0.0803 -0.4010
  279MOL0     C36706   0.833   4.515   1.591 -0.5512 -0.3380 -0.0788
  279MOL0     C36707   0.711   4.499   1.695  0.9070  0.3952  0.1019
  279MOL0     C36708   0.587   4.547   1.623 -0.9217 -0.5241 -1.0551
  279MOL0     C36709   0.459   4.500   1.702  0.6027 -0.2707 -0.9713
  279MOL0     C36710   0.337   4.522   1.615  0.0776 -0.0525 -0.0127
  279MOL0     C36711   0.215   4.454   1.662 -0.8505  0.5927  0.4154
  279MOL0     C36712   0.164   4.522   1.796  0.2426 -0.1544  0.4984
  279MOL0     N36713   0.027   4.464   1.827 -0.2578  0.1955  0.7497
  279MOL0     C36714   0.009   4.355   1.906 -0.2011  0.2762 -0.9547
  279MOL0     C36715  -0.127   4.332   1.895  0.3562 -0.7880 -0.0547
  279MOL0     C36716  -0.208   4.225   1.974 -0.1983 -0.5384  0.1749
  279MOL0     C36717  -0.268   4.292   2.103  0.5342  0.1711  0.2290
  279MOL0     C36718  -0.397   4.381   2.096  0.1852  0.3474  0.3214
  279MOL0     C36719  -0.487   4.353   1.975  0.8684 -0.3770 -0.3444
  279MOL0     O36720  -0.519   4.213   1.955 -0.3977  0.2460 -0.8000
  279MOL0     C36721  -0.609   4.165   2.047  0.1255  0.0460 -0.0060
  279MOL0     C36722  -0.565   4.081   2.153 -0.0385  0.5109 -0.2550
  279MOL0     C36723  -0.663   4.032   2.244  1.0534 -0.3474  0.9857
  279MOL0     C36724  -0.805   4.064   2.225 -0.7741  0.2725 -0.8453
  279MOL0     C36725  -0.895   4.021   2.335  0.0637  0.6363  0.7433
  279MOL0     O36726  -0.831   3.958   2.436  0.5319  0.0791 -0.3483
  279MOL0     C36727  -0.903   3.901   2.540 -0.1698  0.3520  0.2663
  279MOL0     C36728  -0.987   3.976   2.623 -0.3834 -0.4326  0.4371
  279MOL0     C36729  -1.032   3.927   2.747  0.2020  0.2034 -0.2010
  279MOL0     C36730  -0.996   3.801   2.788  0.7314  1.2247  0.2869
  279MOL0     O36731  -1.058   3.765   2.907 -0.3308  0.0473  0.4257
  279MOL0     C36732  -1.042   3.628   2.954  0.4500  0.3368 -0.0139
  279MOL0     C36733  -1.129   3.611   3.079 -0.5751 -0.4065 -0.8551
  279MOL0     C36734  -1.277   3.569   3.041 -0.1740  0.5937  0.4804
  279MOL0     C36735  -1.394   3.648   3.117 -0.5713  0.4354  0.1031
  279MOL0     C36736  -1.531   3.572   3.111 -0.5714  0.6321 -0.8653
  279MOL0     C36737  -1.533   3.433   3.195 -0.0438 -0.4103 -0.4893
  279MOL0     C36738  -1.676   3.371   3.191 -0.2714 -0.0677 -0.5584
  279MOL0     C36739  -1.699   3.294   3.064 -0.3040 -0.3923  0.2543
  279MOL0    Cl36740  -1.840   3.183   3.110  0.0561  0.4617  0.0830
  279MOL0     C36741  -0.910   3.722   2.701 -0.5019 -0.3889 -0.3813
  279MOL0     C36742  -0.855   3.775   2.582 -0.4936  0.1630  0.1627
  279MOL0     O36743  -1.013   4.036   2.324  0.2934 -0.5526  0.3826
  279MOL0     C36744  -0.839   4.155   2.126 -0.3750 -0.6724 -0.0253
  279MOL0     C36745  -0.741   4.197   2.032  0.7624  0.0163 -0.3843
  279MOL0     N36746  -0.183   4.430   1.816  0.1970  0.2446 -0.1400
  279MOL0     N36747  -0.089   4.511   1.778  0.1434 -0.0230  0.1051
  279MOL0     C36748   1.231   4.342   1.671 -0.1400  0.3064  0.5155
  279MOL0     C36749   1.367   4.326   1.646 -0.2382  0.1021 -0.2884
  279MOL0     C36750   1.815   4.389   1.698 -0.1877  0.1363  0.3913
  279MOL0     C36751   1.869   4.447   1.581 -0.2494  0.0073  0.4350
  279MOL0     C36752   2.011   4.436   1.556  0.7435  0.0634 -0.3683
  279MOL0     C36753   2.102   4.375   1.648 -0.8720 -0.0182  1.3009
  279MOL0     O36754   2.241   4.369   1.612  0.7237 -0.3900 -0.2902
  279MOL0     C36755   2.299   4.246   1.664 -0.2621 -0.1887 -0.1825
  279MOL0     C36756   2.428   4.218   1.584 -0.0827  0.1756 -0.5676
  279MOL0     C36757   2.544   4.313   1.630  0.0550 -1.0652  0.1143
  279MOL0     C36758   2.683   4.274   1.582  0.4236 -0.3180 -0.5836
  279MOL0     C36759   2.698   4.309   1.436  0.2048  0.4604  0.1704
  279MOL0     C36760   2.713   4.309   1.315  0.7903 -1.0487 -0.4856
  279MOL0     C36761   2.041   4.311   1.765 -0.2112 -0.6009  0.1402
  279MOL0     C36762   1.906   4.323   1.784  0.3157  0.5608  0.5242
  279MOL0     H36763   1.479   4.648   1.692  4.1238 -2.6241 -0.4875
  279MOL0     H36764   1.236   4.672   1.758 -1.9268 -1.6552  2.7139
  279MOL0     H36765   0.931   4.348   1.688  0.4130  2.0036  2.2258
  279MOL0     H36766   0.998   4.394   1.529 -3.7494 -1.7492 -1.7171
  279MOL0     H36767   0.795   4.485   1.493 -2.0439  0.2045  0.3136
  279MOL0     H36768   0.867   4.616   1.568  0.6394 -1.2588 -2.8659
  279MOL0     H36769   0.730   4.581   1.766 -3.9964  3.4789 -1.6182
  279MOL0     H36770   0.690   4.403   1.742 -0.6800  1.4226  1.6399
  279MOL0     H36771   0.592   4.655   1.635 -2.2445 -0.6068  0.5586
  279MOL0     H36772   0.589   4.521   1.516  0.5451 -2.0045 -0.7111
  279MOL0     H36773   0.445   4.557   1.794  2.1179 -0.9623 -0.2700
  279MOL0     H36774   0.475   4.393   1.722  0.5173  0.1939  2.1308
  279MOL0     H36775   0.352   4.476   1.517 -1.8357 -1.4773  0.2960
  279MOL0     H36776   0.322   4.629   1.602 -1.1651  0.0014  1.5765
  279MOL0     H36777   0.138   4.445   1.584  2.7888  0.2743 -3.5428
  279MOL0     H36778   0.246   4.352   1.686 -2.3538 -0.3263 -1.2633
  279MOL0     H36779   0.152   4.629   1.778 -0.4466 -0.5530 -1.7515
  279MOL0     H36780   0.236   4.517   1.878  0.0152  3.3295  1.0768
  279MOL0     H36781   0.088   4.309   1.965  0.2387  1.7979 -0.3283
  279MOL0     H36782  -0.144   4.143   2.007 -0.4909  0.1415  2.6224
  279MOL0     H36783  -0.287   4.192   1.906  0.6495  0.0117 -1.1130
  279MOL0     H36784  -0.184   4.324   2.164  1.9164 -3.2891  0.3702
  279MOL0     H36785  -0.293   4.199   2.153 -0.7772 -0.2315 -1.0927
  279MOL0     H36786  -0.443   4.353   2.191 -1.1369 -0.6232 -0.5560
  279MOL0     H36787  -0.362   4.485   2.090  1.1271  0.0414  0.3431
  279MOL0     H36788  -0.440   4.396   1.886  1.4093 -0.6543 -0.2005
  279MOL0     H36789  -0.584   4.401   1.986  0.2785 -1.1731 -1.7863
  279MOL0     H36790  -0.464   4.042   2.150  0.2070  1.1717 -2.6628
  279MOL0     H36791  -0.630   3.971   2.327  0.5313 -0.7512  0.9052
  279MOL0     H36792  -1.010   4.075   2.585 -0.8973 -1.0737 -0.9992
  279MOL0     H36793  -1.078   3.990   2.823  0.4642  3.4379 -2.5358
  279MOL0     H36794  -0.936   3.625   2.982  0.1358 -1.4622  1.1653
  279MOL0     H36795  -1.065   3.560   2.872  1.6903  2.1654 -1.9824
  279MOL0     H36796  -1.120   3.711   3.121  1.7928 -0.3511 -1.3307
  279MOL0     H36797  -1.091   3.530   3.143 -2.3975 -0.7189 -0.1090
  279MOL0     H36798  -1.285   3.462   3.064 -1.6401  0.5215 -0.2317
  279MOL0     H36799  -1.278   3.582   2.933 -2.5698 -0.7452  0.2758
  279MOL0     H36800  -1.366   3.661   3.221  1.1207  0.3291 -0.3078
  279MOL0     H36801  -1.395   3.749   3.075 -0.7479 -0.3521 -1.9126
  279MOL0     H36802  -1.542   3.551   3.004  3.7355  0.8613 -1.5036
  279MOL0     H36803  -1.609   3.642   3.144 -0.0588  1.8667 -2.1422
  279MOL0     H36804  -1.519   3.470   3.297 -0.8243 -0.8012 -0.2262
  279MOL0     H36805  -1.459   3.357   3.169 -1.3581 -0.9289 -3.0445
  279MOL0     H36806  -1.676   3.298   3.272 -0.0585  0.2150 -0.3003
  279MOL0     H36807  -1.758   3.443   3.194 -1.8687 -1.7999 -0.6496
  279MOL0     H36808  -1.615   3.225   3.050 -2.2952 -2.5529 -2.0090
  279MOL0     H36809  -1.712   3.345   2.968 -0.9712 -0.5081  0.2834
  279MOL0     H36810  -0.881   3.627   2.746 -0.9000 -0.7714 -0.9189
  279MOL0     H36811  -0.780   3.719   2.527  0.0954  0.1782  0.9383
  279MOL0     H36812  -0.940   4.187   2.104  0.6868  1.5196 -2.1275
  279MOL0     H36813  -0.766   4.269   1.955  1.0146 -2.5866 -3.0529
  279MOL0     H36814   1.165   4.256   1.658 -0.0136  0.4784 -1.6454
  279MOL0     H36815   1.402   4.225   1.623  0.1940  0.4897 -1.4206
  279MOL0     H36816   1.807   4.508   1.516  3.0363 -1.2560 -4.4704
  279MOL0     H36817   2.050   4.492   1.472 -0.8031  1.8378  0.0217
  279MOL0     H36818   2.230   4.161   1.663 -1.7390  0.9364  0.9332
  279MOL0     H36819   2.330   4.255   1.769 -2.1144  0.6105  0.3305
  279MOL0     H36820   2.467   4.117   1.602 -0.7479 -0.4157 -2.2467
  279MOL0     H36821   2.394   4.231   1.481  0.4838  1.3889 -0.6231
  279MOL0     H36822   2.550   4.320   1.739  1.4109  0.9775 -0.0331
  279MOL0     H36823   2.529   4.410   1.581  0.5792 -1.2408 -0.4064
  279MOL0     H36824   2.752   4.335   1.642 -2.6409  2.0173  0.8509
  279MOL0     H36825   2.696   4.170   1.612 -0.9404  0.2169  2.2297
  279MOL0     H36826   2.710   4.311   1.208  2.6229  0.3229 -0.5640
  279MOL0     H36827   2.107   4.257   1.833 -1.1672 -0.1844  1.4310
  279MOL0     H36828   1.876   4.271   1.874  1.3734  0.2735  0.7181
  280MOL0     O36829   6.041   5.070   1.129  0.8257  0.1181  0.5445
  280MOL0     C36830   6.114   5.100   1.039  0.0113 -0.1736 -0.1386
  280MOL0     O36831   6.073   5.173   0.926 -0.4058  0.6316  0.3852
  280MOL0     C36832   5.940   5.185   0.895  1.0133  0.7954 -0.1514
  280MOL0     C36833   5.919   5.283   0.793 -0.2614 -0.5223 -0.0875
  280MOL0     C36834   5.794   5.311   0.739  0.6393  0.5687  0.1439
  280MOL0     C36835   5.678   5.236   0.778 -0.4518 -0.1074 -0.0745
  280MOL0     O36836   5.563   5.266   0.714  0.1414 -0.9702 -0.2279
  280MOL0     C36837   5.444   5.265   0.791  0.2088 -0.6651  0.1859
  280MOL0     C36838   5.359   5.132   0.776 -0.5097 -0.7406  0.1159
  280MOL0     C36839   5.206   5.161   0.796 -1.0366  0.5733  0.0382
  280MOL0     C36840   5.121   5.054   0.718  0.4066  0.7283 -0.6832
  280MOL0     C36841   4.977   5.041   0.775 -0.5941  0.3680 -0.2237
  280MOL0     C36842   4.895   4.921   0.728  0.1061  0.0933 -0.5111
  280MOL0     C36843   4.743   4.921   0.763 -0.6807 -0.4983  0.5118
  280MOL0     C36844   4.677   4.799   0.704 -0.7353  0.8681  1.2515
  280MOL0     N36845   4.540   4.798   0.736  0.2023 -0.8124  0.4252
  280MOL0     C36846   4.480   4.762   0.856  0.0890  0.1413 -0.8452
  280MOL0     C36847   4.346   4.788   0.832  0.1531  0.1253 -1.5393
  280MOL0     C36848   4.224   4.772   0.928  0.0687 -0.6742  0.0269
  280MOL0     C36849   4.195   4.913   0.995 -0.1138 -0.0501  0.6177
  280MOL0     C36850   4.046   4.904   1.060 -0.1257 -0.8091  0.9878
  280MOL0     C36851   4.019   5.020   1.157 -0.3567  0.2264  0.0942
  280MOL0     O36852   3.898   4.985   1.221  0.1725 -0.8105  0.9288
  280MOL0     C36853   3.797   5.073   1.241  0.0357 -0.2836  0.2039
  280MOL0     C36854   3.815   5.212   1.241 -0.1404 -0.8991 -0.7207
  280MOL0     C36855   3.713   5.298   1.276 -0.9134 -0.1046 -0.7720
  280MOL0     C36856   3.583   5.251   1.308  0.5967 -0.1109 -0.7640
  280MOL0     C36857   3.466   5.348   1.317  0.7770  0.1841 -0.3473
  280MOL0     O36858   3.474   5.453   1.245 -0.2880 -0.6073 -0.3453
  280MOL0     C36859   3.381   5.553   1.243  0.5090  0.4173  0.0389
  280MOL0     C36860   3.429   5.683   1.225 -0.3100 -0.2938  0.1361
  280MOL0     C36861   3.339   5.799   1.210  0.0723 -0.2705 -0.6224
  280MOL0     C36862   3.203   5.772   1.193 -0.2790  0.5043 -0.2669
  280MOL0     O36863   3.139   5.890   1.174 -0.2398 -0.5359  0.2101
  280MOL0     C36864   2.993   5.886   1.151  0.1995 -0.3308  0.3484
  280MOL0     C36865   2.957   5.870   1.009  1.5688  0.0365 -0.1960
  280MOL0     C36866   2.803   5.897   0.975  0.1859 -0.2227 -0.2609
  280MOL0     C36867   2.757   5.863   0.834 -0.1868 -0.3288  0.7785
  280MOL0     C36868   2.609   5.874   0.800  0.6794 -0.4040  1.0451
  280MOL0     C36869   2.577   5.824   0.654 -0.2461 -1.6355  0.9989
  280MOL0     C36870   2.432   5.798   0.637 -0.2697 -0.3992 -0.2492
  280MOL0     C36871   2.397   5.745   0.497  0.0564  0.3425 -0.2356
  280MOL0    Cl36872   2.229   5.744   0.441  0.1208 -0.4234 -0.7398
  280MOL0     C36873   3.158   5.638   1.204 -0.3769  0.4590 -0.2698
  280MOL0     C36874   3.242   5.529   1.240 -0.7170  0.2893  0.3834
  280MOL0     O36875   3.378   5.316   1.397 -0.2626 -0.1684  0.1169
  280MOL0     C36876   3.563   5.114   1.322  0.2758  0.8622 -0.0252
  280MOL0     C36877   3.673   5.021   1.283  0.0379  0.6601 -1.3491
  280MOL0     N36878   4.334   4.839   0.702 -0.2486  1.0343  0.0731
  280MOL0     N36879   4.446   4.837   0.641 -0.6023 -0.1577 -0.6236
  280MOL0     C36880   5.699   5.131   0.869 -0.3827  0.3596 -0.4129
  280MOL0     C36881   5.822   5.115   0.939  0.7912 -1.2075  0.3931
  280MOL0     C36882   6.256   5.078   1.055 -0.1674  0.2302 -0.1802
  280MOL0     C36883   6.312   5.047   1.181  0.0080  0.1889 -0.1440
  280MOL0     C36884   6.446   5.038   1.193 -0.3682  0.0715 -0.0295
  280MOL0     C36885   6.533   5.057   1.082 -0.0588  0.4665 -0.2926
  280MOL0     O36886   6.666   5.038   1.103 -0.7477 -0.2262 -0.5032
  280MOL0     C36887   6.754   5.006   0.988  0.2017 -0.0729 -0.3165
  280MOL0     C36888   6.895   5.002   1.031  0.5541 -0.5242 -0.3699
  280MOL0     C36889   7.010   5.005   0.930 -0.1164 -0.4184 -0.0477
  280MOL0     C36890   7.001   4.883   0.841  0.6853  0.1155  0.8041
  280MOL0     C36891   6.933   4.928   0.719 -0.8081  0.7450  0.3824
  280MOL0     C36892   6.887   4.961   0.616 -0.3444 -0.2593  1.0273
  280MOL0     C36893   6.476   5.082   0.955  0.0415  0.4797 -0.5730
  280MOL0     C36894   6.338   5.083   0.941 -0.6919 -0.2512 -0.5210
  280MOL0     H36895   6.006   5.335   0.754 -1.2981  0.9201 -0.5314
  280MOL0     H36896   5.780   5.385   0.661  2.1075 -0.2389 -0.9441
  280MOL0     H36897   5.395   5.354   0.752  0.9274  0.0269  0.8219
  280MOL0     H36898   5.474   5.285   0.894  0.6881  0.8668 -0.2144
  280MOL0     H36899   5.393   5.061   0.853 -0.0184  1.2768  1.8631
  280MOL0     H36900   5.367   5.088   0.677  0.4790  0.3677 -0.3300
  280MOL0     H36901   5.181   5.247   0.733 -0.2156 -0.8801 -2.3948
  280MOL0     H36902   5.176   5.165   0.901 -1.4769  2.4347 -0.1247
  280MOL0     H36903   5.118   5.090   0.615  4.5133  1.7047 -0.6600
  280MOL0     H36904   5.165   4.954   0.726  0.2474  0.5856 -1.5147
  280MOL0     H36905   4.929   5.136   0.747 -1.5959 -0.0732 -0.0672
  280MOL0     H36906   4.981   5.030   0.883  0.5284 -1.3752 -0.4101
  280MOL0     H36907   4.944   4.827   0.754 -0.2419  0.0951  0.1707
  280MOL0     H36908   4.898   4.920   0.619 -0.3135 -3.7438 -0.6038
  280MOL0     H36909   4.736   4.919   0.872 -0.0591 -3.3238  0.5915
  280MOL0     H36910   4.697   5.014   0.730  0.7328  0.6891  1.7759
  280MOL0     H36911   4.733   4.711   0.733 -0.6674  0.2419 -0.6075
  280MOL0     H36912   4.698   4.798   0.596 -0.4343  1.9684  1.2872
  280MOL0     H36913   4.534   4.734   0.945 -0.8232 -0.0496 -0.3395
  280MOL0     H36914   4.246   4.685   0.992  0.3058 -2.5136 -2.4087
  280MOL0     H36915   4.137   4.743   0.868 -0.6058 -0.6140  0.9426
  280MOL0     H36916   4.185   5.004   0.934  1.4438 -0.3301 -0.1003
  280MOL0     H36917   4.271   4.939   1.070  0.5232  0.9654 -0.3434
  280MOL0     H36918   3.983   4.907   0.971 -0.3939 -2.0566  1.1058
  280MOL0     H36919   4.021   4.812   1.115 -3.0149 -1.7252 -1.5527
  280MOL0     H36920   4.021   5.110   1.094  0.6127  0.3331  0.2680
  280MOL0     H36921   4.100   5.020   1.230 -1.8883 -0.0633  1.8729
  280MOL0     H36922   3.906   5.251   1.196 -0.9210 -0.8670 -2.3066
  280MOL0     H36923   3.720   5.403   1.251 -1.2326 -0.1512 -1.0683
  280MOL0     H36924   3.537   5.689   1.215 -0.2092  1.7677  1.7637
  280MOL0     H36925   3.375   5.901   1.213  1.4566 -0.7320 -0.7793
  280MOL0     H36926   2.948   5.970   1.205  0.8925 -0.1813  0.7039
  280MOL0     H36927   2.950   5.802   1.207  1.2252  0.0883  1.8211
  280MOL0     H36928   2.994   5.769   0.985  1.7650 -0.4250  1.8561
  280MOL0     H36929   3.012   5.940   0.945 -0.6000  1.2317 -0.8449
  280MOL0     H36930   2.778   6.003   0.986  0.1650 -0.1217 -1.2275
  280MOL0     H36931   2.742   5.840   1.047  0.2536  0.5184  0.4024
  280MOL0     H36932   2.820   5.920   0.765  0.8630 -1.9347  0.3551
  280MOL0     H36933   2.790   5.761   0.813  2.5093  0.1981  1.9260
  280MOL0     H36934   2.583   5.980   0.806  1.0360 -0.2672  0.3338
  280MOL0     H36935   2.555   5.813   0.873 -0.0903 -3.2875 -1.6728
  280MOL0     H36936   2.637   5.733   0.646 -0.0862 -1.5168  0.8395
  280MOL0     H36937   2.617   5.894   0.580 -2.0646  0.8406  2.2317
  280MOL0     H36938   2.407   5.731   0.719 -0.8519  3.8092  3.3664
  280MOL0     H36939   2.369   5.884   0.661  0.0826 -0.1487 -0.1988
  280MOL0     H36940   2.430   5.641   0.497  0.5483  0.4929  0.1420
  280MOL0     H36941   2.457   5.785   0.414  1.1860 -1.5886 -0.4222
  280MOL0     H36942   3.054   5.609   1.193  0.4385 -2.2018 -1.8381
  280MOL0     H36943   3.206   5.430   1.267  1.4147 -1.0628 -1.4316
  280MOL0     H36944   3.466   5.077   1.356 -0.4476  1.9560 -0.8354
  280MOL0     H36945   3.662   4.914   1.275  0.3995  0.5360 -0.3146
  280MOL0     H36946   5.619   5.064   0.898 -1.0171  0.2552 -2.2868
  280MOL0     H36947   5.808   5.044   1.019 -1.3547  1.0926  2.2045
  280MOL0     H36948   6.251   5.035   1.269 -0.3524  1.1944 -0.2419
  280MOL0     H36949   6.485   5.009   1.291 -0.1102 -1.8683 -0.6660
  280MOL0     H36950   6.745   5.077   0.905  1.8588 -3.1177 -3.3484
  280MOL0     H36951   6.732   4.905   0.951  0.6696 -1.4133  2.7791
  280MOL0     H36952   6.902   5.090   1.097  1.1141  0.2640 -1.4460
  280MOL0     H36953   6.906   4.916   1.097  2.6794  0.0879  0.1656
  280MOL0     H36954   7.110   5.002   0.973  0.4175 -2.2450 -1.2660
  280MOL0     H36955   7.002   5.096   0.870  2.4729 -0.8369 -1.1742
  280MOL0     H36956   7.103   4.856   0.809  0.2617  1.1269 -1.6407
  280MOL0     H36957   6.961   4.792   0.887  1.5064 -0.1723  0.9840
  280MOL0     H36958   6.843   4.976   0.519  0.8001 -3.0265 -0.0093
  280MOL0     H36959   6.532   5.104   0.865 -0.0190  1.7620 -0.3181
  280MOL0     H36960   6.299   5.107   0.843  2.9079  2.6278 -1.4743
  281MOL0     O36961   3.004  10.284  10.766 -0.4846  0.1850  0.4735
  281MOL0     C36962   3.044  10.176  10.730 -0.5683 -0.6024 -0.1240
  281MOL0     O36963   2.975  10.060  10.747 -0.4963  0.4240  0.6372
  281MOL0     C36964   2.838  10.055  10.773  0.4324  0.3600  0.6631
  281MOL0     C36965   2.736  10.150  10.738  0.4484  0.3089 -0.4154
  281MOL0     C36966   2.602  10.132  10.778  0.4774  0.6565 -0.3741
  281MOL0     C36967   2.558  10.011  10.839 -0.2638 -0.1345  1.2526
  281MOL0     O36968   2.421   9.993  10.860  0.7936 -0.5480 -0.0540
  281MOL0     C36969   2.375   9.888  10.953  0.1233  0.2007 -0.2493
  281MOL0     C36970   2.229   9.871  10.936  0.7395  0.2351 -0.2932
  281MOL0     C36971   2.174   9.879  10.796  0.4863  0.4181 -0.3743
  281MOL0     C36972   2.019   9.890  10.803 -0.1457 -0.4756  0.5644
  281MOL0     C36973   1.952   9.755  10.809  0.2449  0.6492  0.7457
  281MOL0     C36974   1.813   9.779  10.863 -0.4250  0.6108 -0.2300
  281MOL0     C36975   1.724   9.859  10.766  0.4293 -0.2323  0.7842
  281MOL0     C36976   1.611   9.928  10.838 -0.2148  0.1299 -0.4856
  281MOL0     N36977   1.535   9.837  10.928  0.1860  0.0169  0.2898
  281MOL0     C36978   1.422   9.777  10.888  0.5449  0.0116  0.9069
  281MOL0     C36979   1.374   9.706  10.991 -0.0335  0.0342  0.5479
  281MOL0     C36980   1.244   9.631  10.987 -0.1496  0.5512  0.3949
  281MOL0     C36981   1.118   9.711  10.958  0.4953 -0.4576 -0.1708
  281MOL0     C36982   1.102   9.796  10.829 -0.6029 -0.0398 -0.2658
  281MOL0     C36983   0.962   9.879  10.828 -0.8089 -0.4306  0.6150
  281MOL0     O36984   0.841   9.806  10.824  0.4148 -0.5886 -0.0260
  281MOL0     C36985   0.740   9.870  10.759 -0.2113 -0.3260  0.1406
  281MOL0     C36986   0.632   9.792  10.737 -0.0560 -0.3051  0.6669
  281MOL0     C36987   0.523   9.839  10.662 -0.3729 -0.9993 -1.0037
  281MOL0     C36988   0.513   9.966  10.616  0.4471 -1.1244 -0.3875
  281MOL0     C36989   0.407  10.032  10.529  0.3337  0.5591 -0.5083
  281MOL0     O36990   0.301   9.946  10.505 -0.0156 -0.1525  0.2985
  281MOL0     C36991   0.202   9.987  10.424 -0.2313  0.5794 -0.0330
  281MOL0     C36992   0.187   9.949  10.288 -0.2324  0.2732 -0.2201
  281MOL0     C36993   0.078   9.997  10.210 -0.5881  0.8352 -0.1466
  281MOL0     C36994  -0.000  10.098  10.269  0.0812  0.8145 -0.1342
  281MOL0     O36995  -0.104  10.140  10.183 -0.2587  0.1840  0.1415
  281MOL0     C36996  -0.219  10.203  10.238 -0.4448 -0.5107  0.5553
  281MOL0     C36997  -0.321  10.221  10.121  0.0781  0.1705 -0.2274
  281MOL0     C36998  -0.275  10.330  10.033 -0.2606 -0.0380 -0.3388
  281MOL0     C36999  -0.319  10.309   9.885  0.0358  0.1134 -0.5045
  281MOL0     C37000  -0.455  10.365   9.867 -0.1838  0.5884  0.4372
  281MOL0     C37001  -0.490  10.361   9.714  0.3448  0.7968  0.1713
  281MOL0     C37002  -0.644  10.340   9.690  0.3239  0.2188  0.3228
  281MOL0     C37003  -0.727  10.436   9.780  0.0161 -0.5364 -0.4320
  281MOL0    Cl37004  -0.908  10.400   9.769  0.1664 -0.2314 -0.2775
  281MOL0     C37005   0.019  10.134  10.395  0.0102 -0.4985 -0.6121
  281MOL0     C37006   0.116  10.080  10.475 -0.4919  0.1984  0.2975
  281MOL0     O37007   0.414  10.149  10.490  0.1210  0.3231  0.7108
  281MOL0     C37008   0.626  10.051  10.655  0.7492 -0.1824  1.0383
  281MOL0     C37009   0.732  10.006  10.729 -0.9393  0.4233  0.1604
  281MOL0     N37010   1.454   9.716  11.091 -0.1758  0.6081  0.6654
  281MOL0     N37011   1.549   9.802  11.055  0.9517 -0.2861 -0.2884
  281MOL0     C37012   2.666   9.914  10.855  0.9696  0.5331  0.8810
  281MOL0     C37013   2.800   9.931  10.823  0.1601 -0.0128  1.0015
  281MOL0     C37014   3.174  10.167  10.656 -0.2902  0.2611 -0.4546
  281MOL0     C37015   3.268  10.269  10.619 -0.0803  0.6839  0.3423
  281MOL0     C37016   3.389  10.238  10.560  0.5591  0.1835 -0.3138
  281MOL0     C37017   3.433  10.110  10.526  0.4338  0.7131 -1.0789
  281MOL0     O37018   3.542  10.087  10.452 -0.6602 -0.1011 -0.0362
  281MOL0     C37019   3.603   9.960  10.463  0.6863 -0.8435 -0.7314
  281MOL0     C37020   3.747   9.951  10.398 -0.6136  0.2646  0.0961
  281MOL0     C37021   3.848  10.039  10.469 -0.1283 -0.1513 -0.5744
  281MOL0     C37022   3.995  10.021  10.429 -0.1662 -0.1533  0.4508
  281MOL0     C37023   4.094  10.070  10.527  0.2115 -0.4390 -0.5935
  281MOL0     C37024   4.184  10.116  10.605 -0.6173 -0.7972 -0.1534
  281MOL0     C37025   3.339  10.012  10.550 -0.5508  0.5296  0.3747
  281MOL0     C37026   3.215  10.041  10.612 -0.0126  0.3163 -0.9040
  281MOL0     H37027   2.760  10.243  10.686 -1.2682  0.3676 -1.1603
  281MOL0     H37028   2.537  10.218  10.763  2.8105  2.5386 -0.1642
  281MOL0     H37029   2.393   9.919  11.056 -1.7249 -1.2709  0.5642
  281MOL0     H37030   2.418   9.791  10.926  0.3616  0.6138 -1.4399
  281MOL0     H37031   2.174   9.948  10.991  0.3014 -0.6605  0.5571
  281MOL0     H37032   2.195   9.776  10.978 -0.3303 -0.4901 -2.6121
  281MOL0     H37033   2.189   9.780  10.751  0.3194 -1.4409  3.2803
  281MOL0     H37034   2.221   9.961  10.742  1.1381  0.3451  0.0663
  281MOL0     H37035   1.973   9.959  10.875 -0.6973 -0.8271  0.5580
  281MOL0     H37036   1.992   9.918  10.701  3.7229  0.3348 -0.4007
  281MOL0     H37037   2.004   9.684  10.875  0.8338  1.6904  1.4246
  281MOL0     H37038   1.948   9.707  10.711 -1.8578 -0.9155  1.5185
  281MOL0     H37039   1.808   9.837  10.956  1.3195 -1.8761  1.5514
  281MOL0     H37040   1.762   9.684  10.880 -1.1545  1.2492  1.3375
  281MOL0     H37041   1.777   9.936  10.710  2.1485 -1.3158  0.8383
  281MOL0     H37042   1.699   9.790  10.684  2.2681 -1.0603  0.8798
  281MOL0     H37043   1.553   9.978  10.760 -0.1154 -1.4633 -1.6398
  281MOL0     H37044   1.650  10.007  10.903  2.5036 -3.2305  2.3913
  281MOL0     H37045   1.380   9.797  10.790 -2.1365 -1.1256  1.7410
  281MOL0     H37046   1.225   9.587  11.085  0.7584  1.0305  0.7944
  281MOL0     H37047   1.257   9.550  10.914 -2.0344  0.3207  0.2720
  281MOL0     H37048   1.108   9.790  11.033  1.4259  1.9239 -2.4019
  281MOL0     H37049   1.035   9.642  10.974 -0.0505  0.3803  0.7220
  281MOL0     H37050   1.178   9.874  10.813 -1.6373  0.9103 -0.6785
  281MOL0     H37051   1.100   9.728  10.743 -2.7610  0.8789 -1.0096
  281MOL0     H37052   0.976   9.946  10.742 -0.3485 -3.4931 -1.8860
  281MOL0     H37053   0.952   9.944  10.916 -2.2192  0.6168 -0.2798
  281MOL0     H37054   0.637   9.687  10.764 -2.3294 -1.2673 -2.1427
  281MOL0     H37055   0.454   9.755  10.656  2.1071 -3.3188  0.6305
  281MOL0     H37056   0.253   9.884  10.232 -1.2578 -0.5038 -0.5485
  281MOL0     H37057   0.067   9.966  10.107 -0.0353  0.7595 -0.1888
  281MOL0     H37058  -0.191  10.304  10.270  1.2451 -1.1783  1.2655
  281MOL0     H37059  -0.266  10.158  10.326 -1.6972 -0.0673  0.1345
  281MOL0     H37060  -0.424  10.240  10.150  0.5143  1.9082  0.2780
  281MOL0     H37061  -0.320  10.124  10.070  3.5699  0.4106 -0.8636
  281MOL0     H37062  -0.166  10.329  10.041 -0.3686 -0.1404  1.2990
  281MOL0     H37063  -0.317  10.423  10.073 -2.1974 -0.4199 -1.3176
  281MOL0     H37064  -0.254  10.360   9.814 -1.4215 -0.8921 -2.6623
  281MOL0     H37065  -0.333  10.203   9.862  1.8109 -0.3316  0.2416
  281MOL0     H37066  -0.457  10.469   9.900  0.0744  0.7780 -0.1279
  281MOL0     H37067  -0.530  10.303   9.918 -1.7185  1.2645 -0.8702
  281MOL0     H37068  -0.459  10.270   9.661  2.1760  1.2044  0.4907
  281MOL0     H37069  -0.448  10.455   9.677  0.7268  1.7844  2.8906
  281MOL0     H37070  -0.657  10.343   9.582  0.6529 -2.1604  0.1795
  281MOL0     H37071  -0.665  10.237   9.721  2.0731 -0.3215 -0.1679
  281MOL0     H37072  -0.709  10.535   9.737 -0.4711 -0.7209 -1.0791
  281MOL0     H37073  -0.699  10.441   9.886 -1.7261 -0.3797  0.0623
  281MOL0     H37074  -0.052  10.208  10.432 -0.0733 -1.1539  0.5823
  281MOL0     H37075   0.122  10.102  10.581 -0.1133 -0.3388  0.3961
  281MOL0     H37076   0.622  10.152  10.617  0.5739  0.0661  1.7058
  281MOL0     H37077   0.809  10.074  10.762  0.9867 -0.9601 -1.2800
  281MOL0     H37078   2.646   9.817  10.901  2.0406  1.3980  3.3553
  281MOL0     H37079   2.879   9.864  10.856  2.8368  3.2692  1.9347
  281MOL0     H37080   3.255  10.375  10.641 -1.3240 -0.0138  3.4246
  281MOL0     H37081   3.446  10.324  10.525 -0.4227  1.9291  2.0490
  281MOL0     H37082   3.542   9.883  10.416 -1.8661 -0.0414  1.0659
  281MOL0     H37083   3.613   9.935  10.569  1.0135 -2.3958 -1.0940
  281MOL0     H37084   3.781   9.848  10.410  0.5154  0.7881  1.7758
  281MOL0     H37085   3.737   9.981  10.293 -0.4464  1.1135  0.3117
  281MOL0     H37086   3.841  10.022  10.577 -3.1108 -0.2142 -0.6893
  281MOL0     H37087   3.815  10.142  10.449 -0.1414  0.3993  1.9437
  281MOL0     H37088   4.014   9.917  10.401 -2.9463 -0.2492 -1.4652
  281MOL0     H37089   4.008  10.066  10.330 -0.6863 -1.5268 -0.2575
  281MOL0     H37090   4.250  10.165  10.673 -0.6580 -1.6812  0.5359
  281MOL0     H37091   3.349   9.912  10.510  0.4240  0.6545  0.2818
  281MOL0     H37092   3.162   9.948  10.630  0.6785  0.1144  0.1972
  282MOL0     O37093  10.967   6.634   9.240 -0.3240 -0.0013 -0.2516
  282MOL0     C37094  10.925   6.616   9.351  0.2031  0.1431  0.4253
  282MOL0     O37095  10.787   6.623   9.383  0.1432 -0.3324 -0.0661
  282MOL0     C37096  10.693   6.653   9.294  0.1478  0.1015 -0.0254
  282MOL0     C37097  10.585   6.719   9.357 -0.9280  0.5098 -0.0048
  282MOL0     C37098  10.471   6.765   9.290  0.0044  0.1930  0.3252
  282MOL0     C37099  10.460   6.750   9.145  1.1991 -0.1824  0.0281
  282MOL0     O37100  10.355   6.781   9.068  0.0551 -0.1699  0.0614
  282MOL0     C37101  10.224   6.754   9.118  0.3756 -0.2302  0.0227
  282MOL0     C37102  10.126   6.832   9.028  0.2331 -0.7933 -0.0041
  282MOL0     C37103   9.983   6.829   9.095  0.2105  0.4872  0.2647
  282MOL0     C37104   9.879   6.907   9.017  0.1893 -0.7951 -0.8166
  282MOL0     C37105   9.832   6.861   8.879  0.5850 -0.8544  0.4539
  282MOL0     C37106   9.745   6.962   8.794  0.1793 -0.1811  0.2380
  282MOL0     C37107   9.616   7.004   8.858  0.0839 -0.9577 -0.6461
  282MOL0     C37108   9.499   7.026   8.753  0.6778 -0.1033  1.0236
  282MOL0     N37109   9.402   6.913   8.761  0.1192  0.0233 -0.0937
  282MOL0     C37110   9.272   6.932   8.798  0.7512 -0.2746 -0.0276
  282MOL0     C37111   9.199   6.828   8.756 -0.1946 -0.1089 -0.5620
  282MOL0     C37112   9.048   6.808   8.752  0.0647  0.9627 -0.4960
  282MOL0     C37113   9.004   6.759   8.892 -0.0142  0.1500 -0.3320
  282MOL0     C37114   9.073   6.617   8.923 -0.2593 -0.3221 -0.3297
  282MOL0     C37115   9.130   6.613   9.067 -0.3275  0.4883 -0.1176
  282MOL0     O37116   9.250   6.686   9.057 -0.4467 -0.8804  1.0644
  282MOL0     C37117   9.367   6.639   9.110  0.7687  0.2406  0.2458
  282MOL0     C37118   9.355   6.543   9.217  0.6878  0.2611  0.3641
  282MOL0     C37119   9.474   6.480   9.268 -0.2692  0.2510 -0.3952
  282MOL0     C37120   9.600   6.511   9.210 -0.5973 -0.1911 -0.0672
  282MOL0     C37121   9.723   6.458   9.276 -0.4117 -0.7714 -0.4199
  282MOL0     O37122   9.842   6.492   9.213  0.3829 -0.1059  0.1782
  282MOL0     C37123   9.964   6.441   9.258 -0.3669 -0.2888  0.4126
  282MOL0     C37124  10.070   6.405   9.164  0.6751 -0.1880 -0.2645
  282MOL0     C37125  10.190   6.351   9.199  0.2642  0.3143  0.6937
  282MOL0     C37126  10.218   6.330   9.334 -0.0527  0.3482 -0.4708
  282MOL0     O37127  10.333   6.264   9.377 -0.9678  0.4644  0.7882
  282MOL0     C37128  10.446   6.259   9.286  0.1626  0.0326 -0.3945
  282MOL0     C37129  10.567   6.206   9.366  0.1310 -0.5515 -0.3992
  282MOL0     C37130  10.698   6.232   9.291  0.3047  0.5938 -1.3123
  282MOL0     C37131  10.812   6.168   9.367 -0.1131 -0.0830 -0.1347
  282MOL0     C37132  10.941   6.196   9.282 -0.2017  0.2433 -0.6354
  282MOL0     C37133  11.064   6.122   9.340  0.4860 -0.1836  0.1582
  282MOL0     C37134  11.188   6.163   9.265  0.8195 -0.6904 -0.1037
  282MOL0     C37135  11.307   6.089   9.322  0.3633 -0.6768  0.4373
  282MOL0    Cl37136  11.374   6.169   9.467  0.0846 -0.0485 -0.2452
  282MOL0     C37137  10.123   6.378   9.429 -0.6145  0.2382 -0.0167
  282MOL0     C37138  10.002   6.434   9.389 -0.4368  0.0458  0.6999
  282MOL0     O37139   9.715   6.395   9.378  0.4823 -0.4193 -0.2188
  282MOL0     C37140   9.611   6.607   9.104  0.5422  0.5421  0.2479
  282MOL0     C37141   9.495   6.670   9.053 -0.8577  0.3099 -0.6635
  282MOL0     N37142   9.294   6.737   8.706  0.5492 -0.4309  0.0350
  282MOL0     N37143   9.414   6.787   8.705 -0.1095  0.2670  0.4948
  282MOL0     C37144  10.564   6.673   9.088 -0.1169 -0.6838  0.8218
  282MOL0     C37145  10.679   6.627   9.161 -0.7469  0.2777 -0.4577
  282MOL0     C37146  11.023   6.564   9.457 -0.6880  0.0652  0.3708
  282MOL0     C37147  10.971   6.477   9.556 -0.7890  0.1481  0.3495
  282MOL0     C37148  11.063   6.430   9.652 -0.6291 -0.7229  0.0433
  282MOL0     C37149  11.200   6.467   9.648 -0.7164 -0.4728 -0.4354
  282MOL0     O37150  11.292   6.420   9.732  0.7914 -0.4462  0.2118
  282MOL0     C37151  11.273   6.302   9.808 -0.1335  0.1790 -0.5476
  282MOL0     C37152  11.387   6.232   9.872 -0.4568  0.3067  0.2504
  282MOL0     C37153  11.350   6.094   9.936 -0.5022 -0.1171 -0.0475
  282MOL0     C37154  11.467   6.040  10.022  0.7543  0.0014  0.1466
  282MOL0     C37155  11.428   5.905  10.069 -0.4357 -0.0686 -0.1243
  282MOL0     C37156  11.401   5.812  10.140 -0.4223 -0.0533  0.4399
  282MOL0     C37157  11.245   6.555   9.547 -0.9721 -0.4625  0.0392
  282MOL0     C37158  11.161   6.610   9.446  0.3212 -0.5668 -0.1263
  282MOL0     H37159  10.580   6.731   9.465  0.4327  0.0325  0.1380
  282MOL0     H37160  10.402   6.819   9.353 -1.6651  0.1265 -1.3766
  282MOL0     H37161  10.204   6.800   9.216 -0.9339  0.4036 -0.5078
  282MOL0     H37162  10.192   6.651   9.137  0.6596  0.2402  3.8630
  282MOL0     H37163  10.119   6.801   8.923 -0.4644 -3.2268  0.6695
  282MOL0     H37164  10.163   6.934   9.024 -1.6355 -0.1025 -0.9676
  282MOL0     H37165   9.986   6.845   9.204 -1.4814  0.1976  0.3716
  282MOL0     H37166   9.947   6.726   9.097  0.0520  0.5402  0.0745
  282MOL0     H37167   9.790   6.901   9.082  0.2281 -0.1398 -0.6965
  282MOL0     H37168   9.892   7.014   8.999 -0.7581 -0.9093 -2.3434
  282MOL0     H37169   9.792   6.760   8.890  1.2779 -1.7232 -3.3895
  282MOL0     H37170   9.919   6.839   8.816 -1.1276 -1.8581 -1.6761
  282MOL0     H37171   9.711   6.910   8.704 -1.7477  2.4619 -0.7067
  282MOL0     H37172   9.799   7.049   8.757 -0.0345  0.9312  2.3641
  282MOL0     H37173   9.587   6.927   8.930 -1.0597  0.9287  1.0325
  282MOL0     H37174   9.623   7.100   8.911  2.2761 -1.7303  0.5652
  282MOL0     H37175   9.537   7.034   8.651 -0.0579  4.6976  0.8953
  282MOL0     H37176   9.451   7.124   8.763 -0.4394 -0.5616  0.3591
  282MOL0     H37177   9.226   7.027   8.821 -2.0210 -1.1906 -1.3591
  282MOL0     H37178   9.021   6.728   8.683 -2.1545 -0.2042  1.5555
  282MOL0     H37179   8.997   6.895   8.710  0.3125 -0.0262 -2.9764
  282MOL0     H37180   8.897   6.740   8.905  0.2515  0.0502  2.2657
  282MOL0     H37181   9.036   6.844   8.953  0.1453  2.0957 -2.9217
  282MOL0     H37182   9.007   6.535   8.896 -2.4914  1.6404 -1.2291
  282MOL0     H37183   9.160   6.599   8.859 -1.2744 -2.6929 -1.1616
  282MOL0     H37184   9.139   6.506   9.088 -0.2122  1.0647  3.4231
  282MOL0     H37185   9.051   6.664   9.123  0.4441  1.9884 -0.3391
  282MOL0     H37186   9.259   6.519   9.261  0.6996 -1.9304 -0.6510
  282MOL0     H37187   9.457   6.409   9.349 -0.4793  1.3378  0.5436
  282MOL0     H37188  10.037   6.428   9.063 -2.5753  0.1464  0.7440
  282MOL0     H37189  10.252   6.307   9.122  3.0192 -0.4951  3.2140
  282MOL0     H37190  10.467   6.361   9.252  0.6757 -0.5743 -2.0096
  282MOL0     H37191  10.432   6.207   9.191 -0.4013  1.9002 -1.3796
  282MOL0     H37192  10.572   6.097   9.373  0.0457 -0.7906 -3.1693
  282MOL0     H37193  10.571   6.249   9.467  0.3552 -2.0179  0.2429
  282MOL0     H37194  10.712   6.340   9.280  0.5740  1.4529  4.4158
  282MOL0     H37195  10.690   6.190   9.191 -0.5306  1.1001 -1.4744
  282MOL0     H37196  10.820   6.233   9.455  1.2190  0.6036 -0.7325
  282MOL0     H37197  10.814   6.066   9.405  2.3796  0.1374  0.4912
  282MOL0     H37198  10.958   6.304   9.287 -0.4696  0.3084 -1.0917
  282MOL0     H37199  10.922   6.163   9.180 -2.3299  0.6369 -0.4135
  282MOL0     H37200  11.050   6.017   9.311  0.1194 -0.1895  0.3542
  282MOL0     H37201  11.062   6.150   9.446 -1.5184 -1.7745  0.6012
  282MOL0     H37202  11.176   6.128   9.163 -1.8725  0.4667 -0.2618
  282MOL0     H37203  11.207   6.271   9.274  1.1484 -0.7319 -0.3024
  282MOL0     H37204  11.387   6.087   9.248  2.0709 -2.5454  2.2055
  282MOL0     H37205  11.271   5.986   9.328 -1.2947 -0.4513 -2.9006
  282MOL0     H37206  10.151   6.363   9.532 -2.0526  1.1222  0.5334
  282MOL0     H37207   9.935   6.479   9.462  0.5633  2.4333  0.2540
  282MOL0     H37208   9.707   6.619   9.054 -0.6879  0.7554 -2.2310
  282MOL0     H37209   9.493   6.728   8.961 -1.3010 -1.0959 -1.5699
  282MOL0     H37210  10.552   6.646   8.983  1.4496 -0.0389  0.4553
  282MOL0     H37211  10.751   6.565   9.110 -1.4371 -0.8158 -0.1609
  282MOL0     H37212  10.867   6.444   9.554 -1.0438  0.9581 -0.7430
  282MOL0     H37213  11.033   6.359   9.728  0.2684 -1.8040 -0.5742
  282MOL0     H37214  11.238   6.228   9.735  4.3452  0.2379 -3.1241
  282MOL0     H37215  11.198   6.325   9.884 -0.2229 -2.1786  0.1424
  282MOL0     H37216  11.472   6.224   9.804  1.0803  0.3448  2.1251
  282MOL0     H37217  11.426   6.295   9.952 -0.9713  0.8151  0.1134
  282MOL0     H37218  11.336   6.018   9.859  2.2669 -1.8961  1.0520
  282MOL0     H37219  11.257   6.107   9.991 -1.0677 -2.3913 -0.3382
  282MOL0     H37220  11.563   6.034   9.970 -0.0664 -1.4923 -1.3070
  282MOL0     H37221  11.479   6.109  10.106 -0.1948 -1.3283  1.4387
  282MOL0     H37222  11.370   5.734  10.207 -3.0794  0.4797 -0.0620
  282MOL0     H37223  11.352   6.570   9.547 -0.6543 -2.3202  1.6775
  282MOL0     H37224  11.202   6.676   9.370  0.3474 -0.7130 -0.2387
  283MOL0     O37225  10.847   1.923   0.348  0.0018 -0.1272 -0.0386
  283MOL0     C37226  10.885   2.030   0.299 -0.1452 -1.6095  0.0362
  283MOL0     O37227  10.803   2.136   0.268  0.0112  0.1810  0.6471
  283MOL0     C37228  10.671   2.141   0.294  0.0569 -1.2687 -0.3326
  283MOL0     C37229  10.586   2.215   0.215  0.5055  0.5425 -0.0613
  283MOL0     C37230  10.450   2.213   0.238  0.6131 -0.5268  0.2999
  283MOL0     C37231  10.394   2.134   0.339 -0.1871  0.6032  0.3539
  283MOL0     O37232  10.259   2.112   0.354 -0.3593 -0.6855 -0.6212
  283MOL0     C37233  10.171   2.124   0.245  0.7960 -0.0192 -0.0585
  283MOL0     C37234  10.034   2.075   0.288 -0.4050  0.5813 -0.4206
  283MOL0     C37235   9.997   2.129   0.427  0.7589 -0.4079  0.9811
  283MOL0     C37236   9.847   2.104   0.464  0.4377  0.0455  0.0812
  283MOL0     C37237   9.745   2.202   0.404  0.2572  0.0211  0.7255
  283MOL0     C37238   9.730   2.203   0.247  0.7576 -0.4213  0.1170
  283MOL0     C37239   9.586   2.229   0.208  0.5554 -0.4073 -0.1004
  283MOL0     C37240   9.548   2.374   0.246  0.0494  0.5071  0.9719
  283MOL0     N37241   9.428   2.412   0.164 -0.3116 -0.0993  0.2312
  283MOL0     C37242   9.302   2.351   0.168  0.2520  0.2160  0.0560
  283MOL0     C37243   9.226   2.436   0.097 -1.5257 -0.1547 -0.6638
  283MOL0     C37244   9.078   2.431   0.088  0.8446 -0.6774 -0.2605
  283MOL0     C37245   8.992   2.446   0.212 -0.1598 -0.5923  0.4715
  283MOL0     C37246   8.912   2.570   0.215  0.4280 -1.1239  0.5523
  283MOL0     C37247   8.799   2.586   0.119 -0.1648 -0.5727 -0.1404
  283MOL0     O37248   8.715   2.472   0.124 -0.1893  0.0921 -0.6945
  283MOL0     C37249   8.579   2.494   0.091 -0.8433 -0.2394  0.1732
  283MOL0     C37250   8.487   2.427   0.162 -0.3736  0.4654  0.1898
  283MOL0     C37251   8.350   2.448   0.136  0.3704  0.2592 -0.2807
  283MOL0     C37252   8.310   2.529   0.026  0.9918 -0.1804 -0.3491
  283MOL0     C37253   8.171   2.540  -0.014 -0.8339 -0.5578  0.1285
  283MOL0     O37254   8.079   2.542   0.088  0.1433 -0.8879 -0.2478
  283MOL0     C37255   7.947   2.542   0.071  0.2719 -0.1037  0.9038
  283MOL0     C37256   7.879   2.633  -0.025  1.1634  0.2672 -0.0874
  283MOL0     C37257   7.741   2.636  -0.032 -0.0335 -0.2709  0.9422
  283MOL0     C37258   7.666   2.563   0.048 -0.7907 -0.5058 -0.1093
  283MOL0     O37259   7.531   2.555   0.028  0.0829 -0.3513  0.3606
  283MOL0     C37260   7.497   2.526  -0.111  0.8653 -1.0719 -0.3446
  283MOL0     C37261   7.462   2.379  -0.115 -0.0159  0.1826 -0.9794
  283MOL0     C37262   7.336   2.339  -0.032 -0.6120 -0.3982  0.6386
  283MOL0     C37263   7.336   2.192  -0.024  0.0632  0.5902 -0.1278
  283MOL0     C37264   7.248   2.156   0.095 -0.4932  0.0077  0.0828
  283MOL0     C37265   7.257   2.013   0.150  0.5701  0.0860  0.0604
  283MOL0     C37266   7.172   1.921   0.063 -0.2750  0.4621  0.3206
  283MOL0     C37267   7.017   1.925   0.083 -0.5812 -0.4902  0.1503
  283MOL0    Cl37268   6.968   1.772   0.128  0.2618 -0.1768 -0.2681
  283MOL0     C37269   7.724   2.476   0.136 -0.9218 -0.2103 -0.7554
  283MOL0     C37270   7.862   2.458   0.140  0.0532  0.4257 -0.0837
  283MOL0     O37271   8.144   2.565  -0.136 -0.1066  0.1253 -0.3841
  283MOL0     C37272   8.407   2.592  -0.043 -0.7121 -0.2270  0.1370
  283MOL0     C37273   8.542   2.578  -0.012  0.2091  0.0294 -0.0508
  283MOL0     N37274   9.310   2.532   0.045 -0.2647  0.4302 -0.4813
  283MOL0     N37275   9.428   2.525   0.090 -0.2560 -0.7449  0.0441
  283MOL0     C37276  10.478   2.081   0.437  0.4895 -1.0033  0.7645
  283MOL0     C37277  10.619   2.076   0.410  0.7717 -0.2752 -0.2227
  283MOL0     C37278  11.029   2.041   0.263  0.7271 -0.7407  0.3646
  283MOL0     C37279  11.071   2.148   0.179  0.1030  0.6811  0.5311
  283MOL0     C37280  11.206   2.172   0.165  1.2931  0.5006  0.2742
  283MOL0     C37281  11.306   2.091   0.214 -0.4349 -0.3488  0.4099
  283MOL0     O37282  11.428   2.132   0.170  0.0001 -0.1873  0.5482
  283MOL0     C37283  11.526   2.025   0.159 -0.1553 -0.5551 -0.7491
  283MOL0     C37284  11.641   2.075   0.065  0.6137  0.5166  0.6418
  283MOL0     C37285  11.746   1.971   0.022  0.0267 -0.5713  0.8253
  283MOL0     C37286  11.839   2.033  -0.082 -1.2693 -0.6280 -0.5475
  283MOL0     C37287  11.890   1.934  -0.176  0.0272  0.6264  0.1244
  283MOL0     C37288  11.955   1.864  -0.246 -0.0722 -0.3286  0.3221
  283MOL0     C37289  11.268   1.972   0.280 -0.6006 -0.2509 -0.1703
  283MOL0     C37290  11.125   1.948   0.306 -0.5387  1.3733 -0.2276
  283MOL0     H37291  10.641   2.266   0.137 -1.3120  1.3374 -0.8905
  283MOL0     H37292  10.395   2.273   0.166  2.3674 -0.7064 -1.2440
  283MOL0     H37293  10.200   2.061   0.160  2.5505  1.5725 -0.7165
  283MOL0     H37294  10.167   2.229   0.214  1.1618  1.4416  4.1902
  283MOL0     H37295  10.032   1.965   0.288 -0.2999  0.5793 -0.3198
  283MOL0     H37296   9.973   2.114   0.206 -0.0799 -0.4830 -1.1886
  283MOL0     H37297  10.014   2.237   0.433  1.7262 -0.4253 -0.6697
  283MOL0     H37298  10.050   2.089   0.514  0.7139 -0.7286  0.8620
  283MOL0     H37299   9.817   2.000   0.446  1.2901  0.1544 -2.4212
  283MOL0     H37300   9.845   2.121   0.572  0.3234  1.5709 -0.1306
  283MOL0     H37301   9.763   2.307   0.427 -1.8081  0.5985 -0.0365
  283MOL0     H37302   9.652   2.164   0.448  0.5977 -2.0269 -0.2105
  283MOL0     H37303   9.749   2.097   0.228 -2.1233 -0.7817 -1.1503
  283MOL0     H37304   9.804   2.260   0.190  1.1804 -0.2798  0.7876
  283MOL0     H37305   9.574   2.217   0.100  0.0706  3.4225 -0.6249
  283MOL0     H37306   9.515   2.159   0.252  1.6445 -0.1020  2.2990
  283MOL0     H37307   9.637   2.434   0.224  1.1054 -0.1890  3.0730
  283MOL0     H37308   9.527   2.392   0.352  1.8562  1.5084  1.1885
  283MOL0     H37309   9.275   2.267   0.230 -2.6192 -1.1618 -2.8337
  283MOL0     H37310   9.055   2.331   0.052  0.9423 -0.6714 -0.3390
  283MOL0     H37311   9.044   2.507   0.017 -2.5848 -0.2557  1.6180
  283MOL0     H37312   9.059   2.449   0.299 -0.3070 -2.0450  0.6659
  283MOL0     H37313   8.931   2.355   0.219 -0.1462 -1.6315 -6.3709
  283MOL0     H37314   8.876   2.581   0.318  2.8093  0.9679  1.2944
  283MOL0     H37315   8.981   2.654   0.199 -0.5114 -0.5100 -0.3871
  283MOL0     H37316   8.838   2.610   0.020  0.0804 -2.0422 -0.4283
  283MOL0     H37317   8.743   2.675   0.149 -0.3854 -1.8339  3.7765
  283MOL0     H37318   8.533   2.347   0.218 -1.9767 -1.2248 -0.8020
  283MOL0     H37319   8.272   2.393   0.187 -1.4534  1.6006 -1.4869
  283MOL0     H37320   7.935   2.698  -0.091 -0.2747  2.3183  0.6389
  283MOL0     H37321   7.702   2.709  -0.103  1.2886  0.3980  0.8682
  283MOL0     H37322   7.576   2.544  -0.184 -1.3140  1.8393 -2.2233
  283MOL0     H37323   7.407   2.580  -0.142  1.0555 -1.4775 -1.6441
  283MOL0     H37324   7.543   2.307  -0.097 -1.7676 -1.6643 -0.0413
  283MOL0     H37325   7.447   2.350  -0.220 -0.3524 -5.6620  0.2990
  283MOL0     H37326   7.243   2.379  -0.072  1.4187  2.3674 -1.7937
  283MOL0     H37327   7.359   2.382   0.066  0.9137  3.9397 -1.3654
  283MOL0     H37328   7.289   2.161  -0.118 -1.4443  1.6688  0.2303
  283MOL0     H37329   7.438   2.156  -0.007  0.1291 -1.5264 -3.9213
  283MOL0     H37330   7.146   2.185   0.066 -0.7270 -0.8194  0.0719
  283MOL0     H37331   7.261   2.213   0.187 -3.0577 -3.2157  2.6895
  283MOL0     H37332   7.205   2.017   0.247  0.7060 -0.1244  0.1426
  283MOL0     H37333   7.360   1.980   0.164 -0.4826 -2.6523  2.3303
  283MOL0     H37334   7.189   1.946  -0.042 -0.5061 -2.7801 -0.5954
  283MOL0     H37335   7.211   1.821   0.082 -0.5275 -0.1568 -2.1353
  283MOL0     H37336   6.975   1.965  -0.010 -1.0476  0.1099  0.6066
  283MOL0     H37337   6.987   1.987   0.169 -0.4536 -0.9325  0.5179
  283MOL0     H37338   7.649   2.425   0.197 -2.4827  0.4835 -2.0180
  283MOL0     H37339   7.896   2.395   0.222 -0.0403  0.1053 -0.2873
  283MOL0     H37340   8.392   2.660  -0.127 -0.6545 -3.2163 -2.5140
  283MOL0     H37341   8.617   2.625  -0.076  1.2846  5.0404  4.2383
  283MOL0     H37342  10.418   2.048   0.521 -2.1368 -1.1549 -1.0322
  283MOL0     H37343  10.674   2.013   0.479 -1.2230  0.7113  2.4390
  283MOL0     H37344  11.004   2.214   0.124  0.6499  0.0297 -0.9582
  283MOL0     H37345  11.219   2.265   0.110 -0.5509  1.7622  1.8326
  283MOL0     H37346  11.487   1.942   0.099 -1.5457  1.6298 -3.0581
  283MOL0     H37347  11.547   1.991   0.260 -2.3868 -1.3976 -0.5117
  283MOL0     H37348  11.595   2.095  -0.032  2.5089  0.9456 -0.2142
  283MOL0     H37349  11.689   2.165   0.103  2.2167  0.7053 -1.6669
  283MOL0     H37350  11.702   1.876  -0.011 -2.0369  0.3357  0.8180
  283MOL0     H37351  11.812   1.949   0.106  3.3235  1.1970 -1.1057
  283MOL0     H37352  11.778   2.107  -0.135  0.3160  0.3393 -1.0905
  283MOL0     H37353  11.916   2.086  -0.025 -2.6646 -0.4331  1.2822
  283MOL0     H37354  12.014   1.826  -0.326  1.6890 -2.1549  2.3591
  283MOL0     H37355  11.338   1.899   0.318  0.0463  0.5102  0.1158
  283MOL0     H37356  11.086   1.865   0.364 -1.2639  1.4029 -0.6527
  284MOL0     O37357   7.909   0.478   7.653 -0.3355 -0.6481 -1.2178
  284MOL0     C37358   8.004   0.513   7.722 -0.1691 -0.5648 -0.7545
  284MOL0     O37359   8.000   0.575   7.845 -1.5665  0.2507  0.7632
  284MOL0     C37360   7.880   0.597   7.898  0.6259  0.2390  0.1543
  284MOL0     C37361   7.784   0.686   7.856  0.4659  1.4548  0.2364
  284MOL0     C37362   7.656   0.699   7.925 -0.5565  0.5424  0.8740
  284MOL0     C37363   7.643   0.632   8.054 -0.6506  0.3911 -0.5433
  284MOL0     O37364   7.535   0.647   8.146  0.4093  0.8472  0.1386
  284MOL0     C37365   7.414   0.700   8.093  0.4114 -0.6954  0.0872
  284MOL0     C37366   7.297   0.663   8.188  0.0097 -0.4286  0.4646
  284MOL0     C37367   7.163   0.700   8.115  0.9502  0.0103 -0.5581
  284MOL0     C37368   7.043   0.644   8.195 -0.4528  0.7058 -0.4014
  284MOL0     C37369   6.926   0.736   8.171  0.7236 -0.1262 -0.1247
  284MOL0     C37370   6.786   0.669   8.207  0.6611  0.0368 -0.0709
  284MOL0     C37371   6.664   0.756   8.171  0.0264  0.1446  0.1234
  284MOL0     C37372   6.646   0.875   8.268  0.0566  0.0120  0.6076
  284MOL0     N37373   6.521   0.940   8.283  0.5695  1.2379 -0.0965
  284MOL0     C37374   6.424   0.960   8.186 -0.9897 -0.5528 -0.6129
  284MOL0     C37375   6.315   0.997   8.256 -0.5760 -0.0911 -1.0626
  284MOL0     C37376   6.188   1.029   8.192  0.0737 -0.3004 -0.0835
  284MOL0     C37377   6.067   1.003   8.289 -0.1567 -0.1411  0.7256
  284MOL0     C37378   5.951   1.092   8.258 -0.0747 -0.3383 -0.1669
  284MOL0     C37379   5.828   1.006   8.302 -0.3588 -0.3695 -0.3731
  284MOL0     O37380   5.704   1.091   8.302  0.1202  0.1215  0.2328
  284MOL0     C37381   5.584   1.027   8.334 -0.4022 -0.1792  0.0139
  284MOL0     C37382   5.476   1.117   8.341  0.0746  0.3126 -0.6788
  284MOL0     C37383   5.352   1.076   8.373 -0.3561 -0.2913  0.2835
  284MOL0     C37384   5.332   0.949   8.433  0.2697  0.0718 -0.5823
  284MOL0     C37385   5.200   0.915   8.493 -1.4055 -0.3932  0.7911
  284MOL0     O37386   5.199   0.787   8.544  0.9721  0.5323  0.3280
  284MOL0     C37387   5.092   0.749   8.620  0.9492 -0.8108  0.1745
  284MOL0     C37388   5.070   0.776   8.752  0.4800 -0.8373 -0.7158
  284MOL0     C37389   4.956   0.727   8.824  0.2435 -0.5418 -0.7318
  284MOL0     C37390   4.878   0.635   8.767  0.9203  0.0001  0.1603
  284MOL0     O37391   4.776   0.581   8.838  0.2246 -0.4322 -0.2107
  284MOL0     C37392   4.740   0.629   8.974  0.0208 -0.2021  0.4343
  284MOL0     C37393   4.590   0.584   8.999 -0.9809 -0.4554 -0.1278
  284MOL0     C37394   4.517   0.647   9.121  0.3043 -0.0873 -0.0912
  284MOL0     C37395   4.366   0.616   9.120  0.5955  0.3897  0.1154
  284MOL0     C37396   4.303   0.631   9.265  0.0613 -0.4558  0.0484
  284MOL0     C37397   4.149   0.597   9.280  0.5674 -0.1657  0.3359
  284MOL0     C37398   4.126   0.455   9.332  0.6894 -0.4015  0.1099
  284MOL0     C37399   4.218   0.356   9.258  0.2431  0.6888  0.6832
  284MOL0    Cl37400   4.173   0.195   9.307  0.1777 -0.6899  0.2229
  284MOL0     C37401   4.894   0.602   8.630 -0.2215 -0.1529 -0.8924
  284MOL0     C37402   5.009   0.656   8.559  0.1311 -0.1213  0.0564
  284MOL0     O37403   5.104   0.982   8.489  0.4695  0.0344 -0.5856
  284MOL0     C37404   5.438   0.858   8.438 -1.0749 -0.9367  0.2503
  284MOL0     C37405   5.569   0.899   8.394  0.0601  0.6922  0.0548
  284MOL0     N37406   6.340   0.995   8.390 -0.6836  0.6716  0.4721
  284MOL0     N37407   6.462   0.959   8.409  0.2328 -0.2607 -0.0168
  284MOL0     C37408   7.748   0.545   8.097 -0.6414 -0.2770 -0.3185
  284MOL0     C37409   7.862   0.530   8.017 -0.7239 -0.7996 -0.1189
  284MOL0     C37410   8.133   0.470   7.669  0.7319  1.0900 -0.0545
  284MOL0     C37411   8.157   0.449   7.533  0.0867 -0.5030  0.2409
  284MOL0     C37412   8.282   0.414   7.481  0.4425  0.2450 -0.1390
  284MOL0     C37413   8.388   0.400   7.578  1.1036  0.4946  0.6899
  284MOL0     O37414   8.521   0.366   7.554 -0.2092  1.1666 -0.7766
  284MOL0     C37415   8.571   0.331   7.430 -0.4774  0.3924 -0.8223
  284MOL0     C37416   8.677   0.425   7.389 -0.5856 -0.3710  0.9343
  284MOL0     C37417   8.621   0.560   7.340 -0.5391 -0.2162  0.1970
  284MOL0     C37418   8.722   0.628   7.252 -0.7079 -0.4289  0.1978
  284MOL0     C37419   8.820   0.696   7.340 -0.6386  1.2267  0.8031
  284MOL0     C37420   8.910   0.742   7.406 -0.1521 -0.6059 -1.4837
  284MOL0     C37421   8.357   0.404   7.711  0.1510 -0.1909  0.0868
  284MOL0     C37422   8.229   0.429   7.755 -0.4841  0.1839 -0.3132
  284MOL0     H37423   7.805   0.746   7.768  1.2779  2.0996  0.8531
  284MOL0     H37424   7.582   0.773   7.894 -0.6691  1.5160  3.2151
  284MOL0     H37425   7.395   0.655   7.995 -1.2950 -0.3855  0.2482
  284MOL0     H37426   7.415   0.808   8.077  1.4861 -0.9633 -2.1812
  284MOL0     H37427   7.314   0.714   8.283  0.0731 -0.0985  0.2798
  284MOL0     H37428   7.291   0.557   8.213  0.1356  0.0222  2.5791
  284MOL0     H37429   7.160   0.658   8.014 -3.4090  0.3554 -0.7348
  284MOL0     H37430   7.159   0.809   8.112 -0.1261  0.0015  0.0965
  284MOL0     H37431   7.033   0.539   8.167  3.1524 -0.6204  2.4518
  284MOL0     H37432   7.064   0.649   8.303 -0.5466  1.6677 -0.4185
  284MOL0     H37433   6.927   0.775   8.069 -2.6940  1.1695  0.2228
  284MOL0     H37434   6.942   0.826   8.231 -0.4538 -0.8173  1.2965
  284MOL0     H37435   6.786   0.645   8.314 -1.7856  1.5033  0.3291
  284MOL0     H37436   6.778   0.575   8.151  0.7992 -1.0961  1.7281
  284MOL0     H37437   6.672   0.811   8.077 -0.4987  3.2452  1.7545
  284MOL0     H37438   6.577   0.691   8.157  1.0389 -1.3388  0.5181
  284MOL0     H37439   6.710   0.955   8.229 -2.7019  1.5079 -1.2074
  284MOL0     H37440   6.674   0.844   8.369 -0.8712 -0.1219  0.8362
  284MOL0     H37441   6.436   0.956   8.079 -1.0624 -3.6944 -0.5744
  284MOL0     H37442   6.165   0.989   8.093 -2.0851  0.0872  0.2031
  284MOL0     H37443   6.201   1.135   8.167  2.0976  0.1361  2.4091
  284MOL0     H37444   6.100   1.022   8.391 -0.6986 -1.8159  1.2427
  284MOL0     H37445   6.053   0.897   8.267 -2.9760  0.5353 -1.4910
  284MOL0     H37446   5.947   1.180   8.322 -4.1215 -0.9758  0.6821
  284MOL0     H37447   5.942   1.121   8.153  0.0883 -0.8768 -0.3350
  284MOL0     H37448   5.832   0.961   8.401 -0.6012  0.3784 -0.0163
  284MOL0     H37449   5.819   0.929   8.225  2.1724  0.5853 -1.7542
  284MOL0     H37450   5.489   1.217   8.300  2.3698  0.1993 -0.3711
  284MOL0     H37451   5.274   1.150   8.357  3.0598  3.5423 -0.2762
  284MOL0     H37452   5.142   0.847   8.791 -2.7861  1.4979  1.6026
  284MOL0     H37453   4.953   0.767   8.925 -1.2549  4.3124 -2.3907
  284MOL0     H37454   4.744   0.738   8.987 -0.5684 -0.3202  1.8432
  284MOL0     H37455   4.806   0.584   9.048 -0.2634 -0.3925  0.5749
  284MOL0     H37456   4.586   0.477   9.017  2.8671 -0.6594  0.2320
  284MOL0     H37457   4.536   0.609   8.907  0.8205  1.6296 -0.7122
  284MOL0     H37458   4.540   0.754   9.123  0.6699 -0.1722  1.6478
  284MOL0     H37459   4.559   0.622   9.218  2.1183  7.4946  1.7324
  284MOL0     H37460   4.313   0.676   9.046 -0.1138  3.3387  2.7854
  284MOL0     H37461   4.346   0.511   9.101  2.2027 -0.4668  2.6303
  284MOL0     H37462   4.316   0.735   9.295  0.6839 -0.1357 -1.2649
  284MOL0     H37463   4.359   0.570   9.336 -0.0428 -0.0474  0.4815
  284MOL0     H37464   4.094   0.612   9.187 -1.1825  1.6502  1.5775
  284MOL0     H37465   4.105   0.667   9.352 -0.1962  0.3615 -0.6155
  284MOL0     H37466   4.128   0.443   9.441  0.5786  1.2329  0.3168
  284MOL0     H37467   4.024   0.432   9.301 -0.3916  2.2996  1.3600
  284MOL0     H37468   4.326   0.370   9.258  1.4052 -5.4812 -0.7790
  284MOL0     H37469   4.197   0.357   9.150  2.7078  0.0377  0.1397
  284MOL0     H37470   4.817   0.537   8.590 -1.0354 -0.1302  0.5574
  284MOL0     H37471   5.032   0.619   8.460  0.0275 -2.9360  0.9911
  284MOL0     H37472   5.435   0.767   8.497 -1.8481  0.2820  2.2239
  284MOL0     H37473   5.645   0.823   8.407 -1.2843 -0.5704  0.7772
  284MOL0     H37474   7.734   0.476   8.179  0.8319 -0.6141 -0.3270
  284MOL0     H37475   7.944   0.469   8.054  1.0014  0.7455 -1.2092
  284MOL0     H37476   8.073   0.449   7.464  1.4870 -0.2419 -1.5344
  284MOL0     H37477   8.307   0.417   7.376 -2.0020 -0.1235 -0.7958
  284MOL0     H37478   8.502   0.308   7.348 -0.0917  0.9999 -1.3327
  284MOL0     H37479   8.611   0.230   7.439  0.4973  0.6618 -1.8928
  284MOL0     H37480   8.749   0.447   7.469 -0.4059 -0.4421  0.7943
  284MOL0     H37481   8.731   0.377   7.307 -4.6080  0.0966 -2.3075
  284MOL0     H37482   8.585   0.630   7.416 -1.3554  0.6378 -0.9560
  284MOL0     H37483   8.533   0.541   7.277  1.6017 -0.7673 -2.8330
  284MOL0     H37484   8.777   0.554   7.194 -2.4752 -0.8999 -0.9693
  284MOL0     H37485   8.675   0.687   7.172 -1.1097 -1.1575 -0.1171
  284MOL0     H37486   8.996   0.783   7.454 -0.5983 -1.9566  0.6475
  284MOL0     H37487   8.436   0.384   7.783 -2.3319  0.3511  3.1532
  284MOL0     H37488   8.203   0.423   7.861 -2.6767 -3.6666 -0.8747
  285MOL0     O37489   2.962   7.314  10.543  0.4399  0.5919  0.7888
  285MOL0     C37490   2.911   7.429  10.561 -0.7187 -0.2575 -1.0352
  285MOL0     O37491   2.976   7.548  10.594 -0.6038  0.1704  1.0095
  285MOL0     C37492   3.106   7.539  10.641 -0.0932 -0.6564 -0.1423
  285MOL0     C37493   3.162   7.434  10.717  0.4718 -0.3936 -1.3148
  285MOL0     C37494   3.299   7.423  10.753  0.1707  0.1818  0.0762
  285MOL0     C37495   3.384   7.519  10.723 -0.3599 -0.4883  0.2882
  285MOL0     O37496   3.516   7.514  10.734 -0.6502  0.7599 -0.5356
  285MOL0     C37497   3.564   7.424  10.839  0.8112  0.4964 -0.2799
  285MOL0     C37498   3.699   7.488  10.874  0.0998 -0.7366 -0.8503
  285MOL0     C37499   3.783   7.390  10.961 -0.5055  0.8715  0.0748
  285MOL0     C37500   3.915   7.449  11.006  0.2616 -0.3508 -0.0080
  285MOL0     C37501   4.013   7.346  11.048  0.1482 -0.1680  0.6603
  285MOL0     C37502   4.158   7.399  11.049  0.1286 -0.0288 -0.5145
  285MOL0     C37503   4.209   7.468  10.920  0.4764  0.5034  0.2528
  285MOL0     C37504   4.354   7.483  10.899 -0.0136 -0.4261  0.0984
  285MOL0     N37505   4.396   7.550  10.776  0.1351 -0.9752 -0.4636
  285MOL0     C37506   4.470   7.663  10.773 -0.8635 -0.5621 -0.0726
  285MOL0     C37507   4.491   7.681  10.644  0.6231  0.4380  0.5853
  285MOL0     C37508   4.572   7.786  10.587 -0.5418 -0.3677 -0.0637
  285MOL0     C37509   4.716   7.744  10.569  0.0176 -0.3148 -0.1827
  285MOL0     C37510   4.733   7.664  10.438  0.6027  0.1929  0.2614
  285MOL0     C37511   4.875   7.615  10.425 -0.1417 -0.4826 -0.5164
  285MOL0     O37512   4.966   7.717  10.379  0.0496 -0.1789 -0.9901
  285MOL0     C37513   5.101   7.698  10.376  1.0814 -1.0075 -0.6815
  285MOL0     C37514   5.177   7.590  10.411 -0.5626  0.9471  0.4555
  285MOL0     C37515   5.312   7.587  10.410 -0.7257 -0.5991  0.1617
  285MOL0     C37516   5.389   7.696  10.367 -0.0321  0.9921  0.1043
  285MOL0     C37517   5.539   7.685  10.348 -0.3764  0.4349  0.3412
  285MOL0     O37518   5.605   7.796  10.311  0.0246 -0.3535  0.6550
  285MOL0     C37519   5.741   7.786  10.311 -0.5747  0.2026 -0.1503
  285MOL0     C37520   5.807   7.873  10.395  0.6273 -0.8275  0.8892
  285MOL0     C37521   5.943   7.872  10.414  0.7761  0.1298 -0.2485
  285MOL0     C37522   6.029   7.797  10.338  0.0620  1.2180  0.0302
  285MOL0     O37523   6.166   7.779  10.358  0.1996 -0.4105  0.1064
  285MOL0     C37524   6.233   7.817  10.475 -0.3831  0.2598  0.4233
  285MOL0     C37525   6.378   7.778  10.446 -0.5474 -0.1644 -0.0334
  285MOL0     C37526   6.466   7.776  10.574  0.3309 -0.4364 -0.7296
  285MOL0     C37527   6.607   7.733  10.531 -0.5074  0.1770  0.3643
  285MOL0     C37528   6.704   7.687  10.641 -0.3609  0.6131  0.3779
  285MOL0     C37529   6.809   7.577  10.598  0.0795 -0.7560  0.5507
  285MOL0     C37530   6.898   7.615  10.480  0.1884  0.6920  0.0281
  285MOL0     C37531   6.925   7.498  10.373 -0.8012 -0.5550 -1.1431
  285MOL0    Cl37532   6.778   7.479  10.276 -0.2486  0.6746  0.0137
  285MOL0     C37533   5.972   7.710  10.242  0.3423 -0.3257 -0.6798
  285MOL0     C37534   5.825   7.703  10.231 -0.1729 -0.4875  0.0556
  285MOL0     O37535   5.593   7.576  10.359  0.2376  1.0972  0.5431
  285MOL0     C37536   5.319   7.816  10.342  0.0984  0.7595  0.8744
  285MOL0     C37537   5.177   7.822  10.351  0.0488 -0.6791 -0.5057
  285MOL0     N37538   4.430   7.575  10.572 -0.2225  0.4028  0.4223
  285MOL0     N37539   4.367   7.499  10.657  0.3149 -0.3948  0.2313
  285MOL0     C37540   3.341   7.622  10.635  0.2386 -0.4269  0.3849
  285MOL0     C37541   3.206   7.631  10.596  0.2858 -0.2899 -0.1103
  285MOL0     C37542   2.768   7.421  10.530 -0.7834 -0.6970  0.5673
  285MOL0     C37543   2.713   7.318  10.455 -0.0931 -0.0831  0.0143
  285MOL0     C37544   2.579   7.326  10.408  0.5096 -1.1582 -0.2467
  285MOL0     C37545   2.502   7.440  10.434  0.2167 -0.0605 -0.1873
  285MOL0     O37546   2.394   7.450  10.350  0.0002  0.2914  1.0938
  285MOL0     C37547   2.299   7.550  10.379 -0.4151  0.0266 -0.6403
  285MOL0     C37548   2.165   7.530  10.291  0.6244 -0.3653 -0.0419
  285MOL0     C37549   2.209   7.548  10.150  0.4734 -0.3457 -1.0395
  285MOL0     C37550   2.083   7.570  10.059  0.2078  0.7229 -0.5122
  285MOL0     C37551   2.114   7.515   9.933 -0.3702 -0.4101  0.2865
  285MOL0     C37552   2.120   7.500   9.810  0.1068  0.4964 -0.3117
  285MOL0     C37553   2.557   7.538  10.517  0.6621  0.2240 -0.5698
  285MOL0     C37554   2.689   7.534  10.560 -0.6201  0.0181 -0.0160
  285MOL0     H37555   3.099   7.354  10.755  0.7371 -1.2573 -2.6233
  285MOL0     H37556   3.317   7.325  10.794 -1.5259 -1.3348 -2.5262
  285MOL0     H37557   3.578   7.321  10.807  0.3943  0.1597  0.5955
  285MOL0     H37558   3.487   7.424  10.916 -0.9837  3.4380 -1.8402
  285MOL0     H37559   3.683   7.579  10.933  0.8835  0.6211 -2.6633
  285MOL0     H37560   3.757   7.511  10.785  0.3255 -0.6176 -0.6737
  285MOL0     H37561   3.821   7.305  10.904  1.4991 -0.8460  3.6641
  285MOL0     H37562   3.722   7.359  11.047 -0.3381  0.1510 -0.0647
  285MOL0     H37563   3.954   7.506  10.921 -0.0665 -0.3194 -0.1373
  285MOL0     H37564   3.906   7.519  11.090  1.9529 -0.5138  0.3493
  285MOL0     H37565   4.001   7.266  10.974 -2.6612  1.0719 -0.3856
  285MOL0     H37566   3.980   7.311  11.146 -2.0171  0.6695  0.2874
  285MOL0     H37567   4.232   7.319  11.061 -1.3495 -1.7807 -2.5126
  285MOL0     H37568   4.180   7.456  11.140  1.6102 -1.5114  0.0965
  285MOL0     H37569   4.180   7.406  10.835  0.3806  2.6576 -1.3491
  285MOL0     H37570   4.169   7.569  10.917  0.1646  0.3853  0.4114
  285MOL0     H37571   4.401   7.384  10.909 -2.9196 -1.8047  1.0532
  285MOL0     H37572   4.387   7.543  10.984  0.7844 -0.1539 -0.3855
  285MOL0     H37573   4.493   7.738  10.849 -1.8948  2.1735 -2.2630
  285MOL0     H37574   4.574   7.872  10.655  1.2608  0.1780 -0.7278
  285MOL0     H37575   4.529   7.824  10.494 -1.4376 -0.6036  0.2507
  285MOL0     H37576   4.738   7.679  10.654  0.5560  1.0367  0.7427
  285MOL0     H37577   4.776   7.836  10.563 -0.1709 -0.1857 -0.1118
  285MOL0     H37578   4.667   7.577  10.435  1.4854 -0.5151  0.7852
  285MOL0     H37579   4.700   7.735  10.362 -0.6074 -0.1037  0.4851
  285MOL0     H37580   4.867   7.540  10.347  0.0519 -0.7875 -0.2455
  285MOL0     H37581   4.907   7.577  10.522 -2.3728 -0.7545  0.1686
  285MOL0     H37582   5.130   7.497  10.442 -0.4236 -0.4500 -3.0328
  285MOL0     H37583   5.366   7.498  10.442  3.3840  1.9394  0.9826
  285MOL0     H37584   5.756   7.948  10.454 -1.5095 -0.8361 -0.8498
  285MOL0     H37585   5.988   7.943  10.483  1.6264 -0.1711 -0.4785
  285MOL0     H37586   6.191   7.765  10.561  1.1526  1.2429  1.8589
  285MOL0     H37587   6.227   7.925  10.495 -2.5380  0.5894 -1.6212
  285MOL0     H37588   6.413   7.846  10.368 -3.2843  0.0892 -1.1699
  285MOL0     H37589   6.389   7.678  10.401  0.6282 -0.0953  0.0649
  285MOL0     H37590   6.429   7.704  10.648 -1.5064  2.6150  1.5428
  285MOL0     H37591   6.475   7.878  10.610 -3.2504 -0.0878 -0.4481
  285MOL0     H37592   6.590   7.643  10.470 -0.6896  1.7975 -2.0945
  285MOL0     H37593   6.656   7.811  10.473 -1.9288  2.1291  1.6595
  285MOL0     H37594   6.654   7.661  10.734  1.2764  1.9479  1.7122
  285MOL0     H37595   6.750   7.777  10.683 -0.9838  1.0925  0.0502
  285MOL0     H37596   6.768   7.483  10.561  4.1813 -2.1912 -0.8651
  285MOL0     H37597   6.862   7.552  10.690 -1.2883  1.3958  2.0243
  285MOL0     H37598   6.863   7.708  10.434  2.2500  1.8231  0.5826
  285MOL0     H37599   7.000   7.644  10.506  1.9512 -2.2524 -2.9091
  285MOL0     H37600   6.967   7.408  10.419  3.0549 -1.4705 -5.6602
  285MOL0     H37601   7.011   7.522  10.309 -1.0345  1.8588 -0.6508
  285MOL0     H37602   6.029   7.629  10.198  2.4415 -0.0113  1.2760
  285MOL0     H37603   5.768   7.628  10.176 -3.4289  1.0156  1.1489
  285MOL0     H37604   5.374   7.903  10.306  0.5281 -1.0423 -3.4604
  285MOL0     H37605   5.126   7.913  10.322 -0.1693 -0.8876 -0.7802
  285MOL0     H37606   3.414   7.695  10.600 -1.6572  0.8725 -1.0851
  285MOL0     H37607   3.164   7.708  10.532 -0.8814 -1.6598 -1.0531
  285MOL0     H37608   2.770   7.234  10.417  1.1623  0.7024  0.0698
  285MOL0     H37609   2.553   7.246  10.339  1.6567 -1.6338 -0.1539
  285MOL0     H37610   2.328   7.651  10.350 -2.1104  0.3557 -1.3180
  285MOL0     H37611   2.279   7.544  10.486  0.3343 -0.3461 -0.5130
  285MOL0     H37612   2.119   7.432  10.305 -2.3252  0.6488 -1.8142
  285MOL0     H37613   2.088   7.602  10.319 -1.3844 -2.2515 -0.4488
  285MOL0     H37614   2.253   7.451  10.125 -2.1679 -1.0176 -3.6964
  285MOL0     H37615   2.286   7.624  10.131 -1.7123  2.3771  0.2396
  285MOL0     H37616   1.999   7.519  10.107  2.0478 -0.5731  1.4947
  285MOL0     H37617   2.053   7.675  10.050 -0.0695  0.7402  0.4993
  285MOL0     H37618   2.134   7.496   9.703  0.7480  0.3617 -0.2274
  285MOL0     H37619   2.500   7.630  10.518 -1.8389 -0.8809 -5.8329
  285MOL0     H37620   2.737   7.616  10.613 -0.7008 -1.0083  1.7450
  286MOL0     O37621  10.140   6.000  10.312  0.5673  0.2158 -0.0584
  286MOL0     C37622  10.084   5.945  10.410 -0.1429 -0.9173  0.2547
  286MOL0     O37623   9.952   5.960  10.446  0.6837 -0.6080 -0.5341
  286MOL0     C37624   9.860   6.059  10.400 -0.3361  0.4378  0.8981
  286MOL0     C37625   9.779   6.122  10.496 -0.9999  0.3878  1.0865
  286MOL0     C37626   9.666   6.193  10.458 -0.2285  0.8777 -0.4756
  286MOL0     C37627   9.647   6.217  10.322 -0.1374 -0.0076  1.1373
  286MOL0     O37628   9.547   6.298  10.262  0.5356  0.2321  0.0507
  286MOL0     C37629   9.417   6.319  10.324 -0.2385 -0.3390 -0.9161
  286MOL0     C37630   9.311   6.281  10.221  0.6641 -0.2893 -0.4851
  286MOL0     C37631   9.316   6.130  10.193 -1.2639 -0.1388  1.1530
  286MOL0     C37632   9.214   6.077  10.088 -0.7644  0.2869  0.6176
  286MOL0     C37633   9.203   5.926  10.098 -0.8733 -0.5331 -0.1127
  286MOL0     C37634   9.128   5.867   9.979  0.3950  0.2182 -0.3367
  286MOL0     C37635   9.218   5.856   9.847 -0.3000  0.5961 -0.1372
  286MOL0     C37636   9.186   5.729   9.760  0.2517 -0.4633  0.7828
  286MOL0     N37637   9.066   5.747   9.680  0.4613 -0.2667  0.0669
  286MOL0     C37638   8.944   5.760   9.739 -0.7752 -0.4485 -0.1867
  286MOL0     C37639   8.871   5.823   9.648  0.2136 -0.0821  0.1689
  286MOL0     C37640   8.724   5.868   9.664  0.9480  0.4630  0.9248
  286MOL0     C37641   8.622   5.815   9.557  0.8409  0.6709 -0.1758
  286MOL0     C37642   8.614   5.660   9.551 -0.2263  1.3594 -0.7952
  286MOL0     C37643   8.509   5.612   9.456  0.0132 -0.0113  0.7690
  286MOL0     O37644   8.485   5.477   9.476  1.0689 -0.1170 -0.2478
  286MOL0     C37645   8.372   5.413   9.447  0.1252 -0.0141 -0.0269
  286MOL0     C37646   8.261   5.471   9.401  0.4061 -1.0876  0.3538
  286MOL0     C37647   8.145   5.404   9.375 -0.3817  0.4101 -0.4647
  286MOL0     C37648   8.152   5.263   9.381  0.1534  1.4129 -0.9537
  286MOL0     C37649   8.032   5.176   9.346  0.2966 -0.7775 -0.5592
  286MOL0     O37650   7.909   5.234   9.336  0.4349  0.6985 -0.3038
  286MOL0     C37651   7.816   5.166   9.261  0.7411 -0.0937 -0.0197
  286MOL0     C37652   7.691   5.111   9.311 -0.1827  0.2854 -0.0151
  286MOL0     C37653   7.594   5.058   9.235 -0.0474 -0.2229 -0.0800
  286MOL0     C37654   7.612   5.059   9.099  0.2647  0.4294 -0.0227
  286MOL0     O37655   7.503   5.019   9.034 -0.2249  0.3402 -0.4332
  286MOL0     C37656   7.501   5.046   8.894  1.1733 -0.5002 -0.4900
  286MOL0     C37657   7.372   4.995   8.856 -0.2260 -0.2113 -0.2045
  286MOL0     C37658   7.260   5.087   8.904 -0.1220  0.3654 -0.5407
  286MOL0     C37659   7.126   5.065   8.837 -0.0385  0.9342  0.4975
  286MOL0     C37660   7.069   4.925   8.833 -0.5360  0.4796 -0.4264
  286MOL0     C37661   6.919   4.916   8.900  0.2293  0.3030 -0.6706
  286MOL0     C37662   6.936   4.921   9.055 -0.3544 -0.1843 -0.5691
  286MOL0     C37663   6.809   4.876   9.129 -0.0943  0.4116 -0.2109
  286MOL0    Cl37664   6.685   4.997   9.085 -0.3635 -0.1458 -0.1913
  286MOL0     C37665   7.727   5.111   9.038 -0.3853  0.0660 -0.0800
  286MOL0     C37666   7.836   5.162   9.118  0.9920 -0.1550  0.6018
  286MOL0     O37667   8.051   5.056   9.342  0.1670 -0.7209  0.4347
  286MOL0     C37668   8.267   5.194   9.429 -0.2170 -0.4911  0.0978
  286MOL0     C37669   8.372   5.273   9.463  0.0056 -0.1834 -0.0309
  286MOL0     N37670   8.941   5.836   9.536  1.0736  0.0572 -0.1228
  286MOL0     N37671   9.058   5.800   9.550 -0.5042  0.0174 -0.6797
  286MOL0     C37672   9.723   6.154  10.227 -0.2424  0.4192  0.1534
  286MOL0     C37673   9.828   6.062  10.259  0.7507  0.2739  0.2595
  286MOL0     C37674  10.159   5.846  10.483 -0.3844 -0.8890 -0.4053
  286MOL0     C37675  10.284   5.806  10.440 -0.1944  0.4343 -0.4903
  286MOL0     C37676  10.350   5.711  10.516 -0.4300 -0.2720  0.4395
  286MOL0     C37677  10.298   5.653  10.628 -0.2629 -0.7101  0.1726
  286MOL0     O37678  10.371   5.553  10.696  0.0387  0.1860  0.0801
  286MOL0     C37679  10.509   5.576  10.716 -0.0651  0.0777 -0.5461
  286MOL0     C37680  10.551   5.579  10.867  0.7515  0.1152  0.4474
  286MOL0     C37681  10.519   5.444  10.932  0.3983 -0.1878 -0.5006
  286MOL0     C37682  10.579   5.431  11.079  0.1742  0.0493  0.6824
  286MOL0     C37683  10.568   5.545  11.169  0.4731 -0.4201 -0.1392
  286MOL0     C37684  10.541   5.639  11.241  0.8365  0.6055  0.0820
  286MOL0     C37685  10.174   5.691  10.680  0.4664 -0.4101  0.3023
  286MOL0     C37686  10.104   5.783  10.598 -0.3261 -0.8417  0.2133
  286MOL0     H37687   9.792   6.113  10.604 -0.4114 -1.3974  0.8893
  286MOL0     H37688   9.599   6.218  10.540 -0.8132 -2.8642  0.3550
  286MOL0     H37689   9.406   6.423  10.355  0.2209 -1.6992  5.0764
  286MOL0     H37690   9.419   6.250  10.410  0.1761 -2.2835 -2.4026
  286MOL0     H37691   9.341   6.331  10.128 -4.6053  2.3048 -1.1542
  286MOL0     H37692   9.212   6.320  10.246  1.7337  1.5906  1.1484
  286MOL0     H37693   9.295   6.078  10.287  0.3898  0.2490  1.7771
  286MOL0     H37694   9.419   6.105  10.164 -0.0645  3.6414  1.5802
  286MOL0     H37695   9.111   6.106  10.109 -1.3352  0.0232 -1.5274
  286MOL0     H37696   9.248   6.106   9.988  0.8194  0.6607  1.2469
  286MOL0     H37697   9.149   5.903  10.190 -2.0446  1.9671 -0.1017
  286MOL0     H37698   9.302   5.884  10.116 -0.6172  1.4535  4.4919
  286MOL0     H37699   9.038   5.925   9.957  0.6819  1.1062  0.7643
  286MOL0     H37700   9.084   5.768   9.995  0.3801  0.0767 -1.2046
  286MOL0     H37701   9.204   5.947   9.788  0.6923  3.5321  3.7505
  286MOL0     H37702   9.324   5.845   9.871 -0.6642  0.5976  1.5828
  286MOL0     H37703   9.187   5.640   9.824 -1.1621 -1.2766 -0.2665
  286MOL0     H37704   9.270   5.716   9.691 -0.3884 -1.9350  0.2428
  286MOL0     H37705   8.915   5.750   9.843 -0.5449  1.9323  0.1783
  286MOL0     H37706   8.719   5.977   9.658 -0.5603  0.3280 -1.3878
  286MOL0     H37707   8.694   5.843   9.766  0.5519 -3.6194 -0.0420
  286MOL0     H37708   8.666   5.847   9.462  4.2768 -3.1095 -0.1644
  286MOL0     H37709   8.520   5.853   9.572 -0.6562 -2.3601 -1.5981
  286MOL0     H37710   8.709   5.614   9.521  0.5896  1.9481  0.7611
  286MOL0     H37711   8.594   5.633   9.655 -1.5075 -1.4896 -1.6883
  286MOL0     H37712   8.539   5.630   9.352  2.5203  1.5290  1.6718
  286MOL0     H37713   8.422   5.672   9.483 -1.3751 -1.5200 -0.1720
  286MOL0     H37714   8.249   5.578   9.390  1.9970 -0.8359  0.8465
  286MOL0     H37715   8.048   5.446   9.350 -0.2074  1.1281  0.0410
  286MOL0     H37716   7.683   5.101   9.418  1.4388 -0.4197  0.0767
  286MOL0     H37717   7.507   5.007   9.276 -0.4336  0.2929 -0.2495
  286MOL0     H37718   7.574   4.979   8.848  0.9816  0.0387 -1.5978
  286MOL0     H37719   7.519   5.147   8.856  1.3315 -1.6687 -3.7534
  286MOL0     H37720   7.364   4.889   8.882 -0.1129 -0.2986 -0.5122
  286MOL0     H37721   7.358   4.991   8.747 -0.6092  2.2648 -0.3159
  286MOL0     H37722   7.283   5.194   8.893  1.2794  0.0778 -0.6236
  286MOL0     H37723   7.244   5.061   9.009 -1.2468 -4.0872 -1.5948
  286MOL0     H37724   7.049   5.121   8.892 -0.2622  0.6401  0.4865
  286MOL0     H37725   7.131   5.104   8.735 -0.1181  0.2117  0.2106
  286MOL0     H37726   7.133   4.855   8.887 -0.4525  0.8875  0.0034
  286MOL0     H37727   7.055   4.899   8.727 -1.0647  1.7659 -0.6985
  286MOL0     H37728   6.890   4.811   8.886  0.8674 -0.1341  1.0362
  286MOL0     H37729   6.842   4.987   8.868  1.6633  2.0427 -0.4302
  286MOL0     H37730   7.011   4.853   9.096 -1.8676  0.0437  2.9403
  286MOL0     H37731   6.967   5.018   9.094 -0.4736  0.7014 -2.5360
  286MOL0     H37732   6.831   4.889   9.235  0.4894 -0.0784 -0.2655
  286MOL0     H37733   6.792   4.772   9.098  1.5954  0.2427 -0.7050
  286MOL0     H37734   7.740   5.112   8.930  1.7618  0.5389  0.1412
  286MOL0     H37735   7.929   5.194   9.071  0.2815 -0.1533 -0.8796
  286MOL0     H37736   8.284   5.090   9.452  0.3603  0.2116  3.2846
  286MOL0     H37737   8.462   5.230   9.508 -0.0508  0.4870  0.7438
  286MOL0     H37738   9.700   6.154  10.121  0.0744 -4.9834 -0.1876
  286MOL0     H37739   9.872   6.001  10.181  1.7596 -0.1961  1.1690
  286MOL0     H37740  10.332   5.836  10.347  0.2156  1.9679  0.1981
  286MOL0     H37741  10.450   5.675  10.494 -0.8627 -0.6880 -0.9392
  286MOL0     H37742  10.535   5.669  10.664 -2.7292  1.9889  1.2347
  286MOL0     H37743  10.568   5.496  10.670  1.6691  2.1164 -2.1201
  286MOL0     H37744  10.658   5.601  10.863  0.4214  2.0213  1.0099
  286MOL0     H37745  10.500   5.657  10.924 -3.1251 -2.1939  0.5308
  286MOL0     H37746  10.567   5.365  10.874  1.6682 -1.0628  1.6243
  286MOL0     H37747  10.411   5.441  10.949  0.7477 -0.8074  1.9600
  286MOL0     H37748  10.526   5.351  11.131 -0.3492  0.0990  0.2420
  286MOL0     H37749  10.680   5.395  11.062 -0.3821 -1.1433 -0.1859
  286MOL0     H37750  10.526   5.713  11.318  0.7445 -3.3502  4.3393
  286MOL0     H37751  10.134   5.638  10.765 -1.6571 -1.8876 -1.4997
  286MOL0     H37752  10.003   5.810  10.627  0.1190  0.0537  0.9590
  287MOL0     O37753   4.455  10.080   0.257 -0.1564  0.2252  1.5470
  287MOL0     C37754   4.489  10.102   0.137  0.2056 -0.2716  0.1563
  287MOL0     O37755   4.414  10.147   0.024  0.0055  1.0828 -0.4280
  287MOL0     C37756   4.276  10.130   0.031  0.1507 -0.1044  0.0930
  287MOL0     C37757   4.197  10.234  -0.014 -0.8162 -0.2536 -0.3854
  287MOL0     C37758   4.057  10.232  -0.011  0.0114  0.0430  0.2084
  287MOL0     C37759   3.992  10.118   0.035 -0.1829 -0.4235  0.5603
  287MOL0     O37760   3.857  10.112   0.038  0.0551 -0.4003  0.1982
  287MOL0     C37761   3.792  10.213   0.124 -0.0041  0.2640  1.3698
  287MOL0     C37762   3.663  10.151   0.185  0.4362 -0.2028  0.3754
  287MOL0     C37763   3.542  10.245   0.236 -1.0037 -0.4919  0.5992
  287MOL0     C37764   3.564  10.313   0.378  0.1398  0.4313  0.5004
  287MOL0     C37765   3.436  10.400   0.401  0.4504 -0.1255  0.5630
  287MOL0     C37766   3.315  10.309   0.436  0.6270  0.9976  0.3705
  287MOL0     C37767   3.196  10.396   0.469  0.1148 -0.1079 -0.0715
  287MOL0     C37768   3.208  10.490   0.589 -0.1656  0.3760 -0.4703
  287MOL0     N37769   3.072  10.548   0.610 -0.0642  0.0607  0.3645
  287MOL0     C37770   3.030  10.658   0.537  0.8330 -0.6092  0.8458
  287MOL0     C37771   2.900  10.676   0.576 -0.0009 -0.4310  0.5213
  287MOL0     C37772   2.806  10.788   0.523  0.2588  1.0280 -0.0199
  287MOL0     C37773   2.703  10.732   0.428 -0.4074 -0.4381  0.6078
  287MOL0     C37774   2.579  10.684   0.489  0.5286  0.2940  0.1158
  287MOL0     C37775   2.504  10.605   0.379 -0.0329  0.5428 -0.0301
  287MOL0     O37776   2.480  10.674   0.257  0.4962 -0.2400  0.0286
  287MOL0     C37777   2.351  10.697   0.223  0.2163  0.6010  0.3677
  287MOL0     C37778   2.273  10.591   0.183 -1.2771 -0.7007 -0.2076
  287MOL0     C37779   2.139  10.612   0.146  0.3388  0.6928 -0.2567
  287MOL0     C37780   2.083  10.740   0.128  0.3777  0.5737  0.2373
  287MOL0     C37781   1.941  10.754   0.094  0.0298  0.0698 -0.2120
  287MOL0     O37782   1.851  10.652   0.100 -0.5427 -0.3654 -0.1228
  287MOL0     C37783   1.714  10.685   0.087 -0.4179 -0.4538  0.6579
  287MOL0     C37784   1.631  10.594   0.004  0.3715 -0.4971 -0.3912
  287MOL0     C37785   1.491  10.611   0.021  0.2317 -0.3834 -0.7957
  287MOL0     C37786   1.432  10.707   0.100  0.6003  0.0245  0.3569
  287MOL0     O37787   1.297  10.728   0.111 -0.6704  0.5665  0.4509
  287MOL0     C37788   1.201  10.659   0.020  0.7424  0.0604 -0.8731
  287MOL0     C37789   1.060  10.717   0.044  0.9986 -0.1503  0.1149
  287MOL0     C37790   1.009  10.721   0.184 -0.9283 -0.4756 -0.5836
  287MOL0     C37791   0.973  10.581   0.233  0.7129  0.7215  0.1945
  287MOL0     C37792   0.926  10.592   0.380  0.2026  0.3541 -0.0501
  287MOL0     C37793   0.874  10.451   0.422  0.2340  0.4822  1.3397
  287MOL0     C37794   0.809  10.450   0.552  0.4988 -0.5033 -0.6076
  287MOL0     C37795   0.779  10.310   0.600  0.3155  0.9034 -0.1727
  287MOL0    Cl37796   0.728  10.321   0.775  0.0705  0.0027  0.0626
  287MOL0     C37797   1.518  10.791   0.176  0.4583  0.1011 -0.2643
  287MOL0     C37798   1.656  10.781   0.174  0.9511  0.8503  0.4712
  287MOL0     O37799   1.911  10.875   0.072  0.1318 -0.1106  0.6451
  287MOL0     C37800   2.165  10.845   0.159  1.0457 -0.0472 -0.2559
  287MOL0     C37801   2.298  10.825   0.205  1.1414  0.0800  0.8791
  287MOL0     N37802   2.872  10.580   0.678 -0.6004  0.5400  0.4213
  287MOL0     N37803   2.972  10.493   0.684 -0.8320  0.7292 -0.6285
  287MOL0     C37804   4.070  10.010   0.073  0.3771 -0.0558 -0.6324
  287MOL0     C37805   4.210  10.014   0.075  0.1816 -0.3632  0.0230
  287MOL0     C37806   4.633  10.080   0.114  0.5054  0.5326  0.1210
  287MOL0     C37807   4.665  10.076  -0.027 -0.3196  0.6460  0.2776
  287MOL0     C37808   4.799  10.064  -0.067  0.1133 -0.6236 -0.3327
  287MOL0     C37809   4.899  10.037   0.032 -0.2604  0.6282  0.7191
  287MOL0     O37810   5.025  10.003  -0.010  0.7987 -0.6485  0.6948
  287MOL0     C37811   5.076  10.090  -0.114 -0.2404  0.4722  0.1278
  287MOL0     C37812   5.213  10.138  -0.079  0.4272 -0.6338 -0.1621
  287MOL0     C37813   5.292  10.161  -0.205 -0.1580  0.5380  0.1428
  287MOL0     C37814   5.419  10.076  -0.213 -0.1214  0.1580  0.6168
  287MOL0     C37815   5.470  10.065  -0.353  0.2403 -0.0984  0.4281
  287MOL0     C37816   5.504  10.048  -0.474 -0.0653  0.3208  0.0661
  287MOL0     C37817   4.861  10.030   0.171  0.8845 -0.2549  0.4734
  287MOL0     C37818   4.726  10.047   0.208 -0.4810  0.7600 -1.0296
  287MOL0     H37819   4.245  10.324  -0.050  1.2330 -2.2304 -2.9449
  287MOL0     H37820   3.993  10.312  -0.048  1.5718  1.0457 -0.4163
  287MOL0     H37821   3.770  10.292   0.052 -3.3760 -4.5033 -3.5738
  287MOL0     H37822   3.864  10.236   0.204  1.3135  3.0151 -0.4573
  287MOL0     H37823   3.684  10.064   0.247  2.1906 -1.8027 -2.2474
  287MOL0     H37824   3.609  10.102   0.103  3.1319 -0.8193 -1.1496
  287MOL0     H37825   3.447  10.200   0.208  0.6585 -1.5686 -4.2650
  287MOL0     H37826   3.546  10.336   0.175  1.5642 -1.0445 -0.2062
  287MOL0     H37827   3.567  10.234   0.454 -1.9971 -0.0085  0.1884
  287MOL0     H37828   3.664  10.356   0.372  0.3415  0.1378  1.4993
  287MOL0     H37829   3.413  10.467   0.317  0.6017  1.3886  1.6893
  287MOL0     H37830   3.455  10.466   0.485 -3.7514  1.1375  0.7265
  287MOL0     H37831   3.332  10.252   0.527  1.9848  0.7523 -0.0106
  287MOL0     H37832   3.294  10.235   0.358  1.3454  0.6752  0.4757
  287MOL0     H37833   3.179  10.458   0.380  3.7383  1.3437  0.0715
  287MOL0     H37834   3.104  10.337   0.473 -0.4928  0.7556 -0.8201
  287MOL0     H37835   3.279  10.571   0.572 -0.2377  0.3328 -0.9870
  287MOL0     H37836   3.241  10.437   0.679  2.8372  2.1836 -0.3756
  287MOL0     H37837   3.089  10.717   0.467 -0.5562 -1.1779 -0.8956
  287MOL0     H37838   2.871  10.859   0.472  1.9776  0.0596  0.7142
  287MOL0     H37839   2.760  10.839   0.608  3.6604  0.6722  2.2412
  287MOL0     H37840   2.735  10.649   0.365 -1.6485 -0.2105 -0.3725
  287MOL0     H37841   2.676  10.813   0.359  0.1803 -0.2232  0.6248
  287MOL0     H37842   2.591  10.627   0.582  0.5811 -0.1983 -0.1926
  287MOL0     H37843   2.521  10.774   0.515  1.8855  0.9259  1.1334
  287MOL0     H37844   2.408  10.576   0.421 -1.5601  2.6417 -1.8482
  287MOL0     H37845   2.573  10.522   0.358 -1.4660 -1.0461  1.2851
  287MOL0     H37846   2.308  10.489   0.176  2.0698  0.3451 -0.3956
  287MOL0     H37847   2.075  10.535   0.103 -4.9744  5.4121 -1.9747
  287MOL0     H37848   1.674  10.509  -0.049 -1.3245 -1.2407 -0.6295
  287MOL0     H37849   1.428  10.550  -0.043 -1.6525  0.8580 -0.2160
  287MOL0     H37850   1.186  10.554   0.047  1.7367 -0.0396 -0.6593
  287MOL0     H37851   1.221  10.679  -0.086  1.5804  0.0814 -0.7180
  287MOL0     H37852   0.985  10.664  -0.015  0.6051 -0.9164  1.2604
  287MOL0     H37853   1.052  10.817   0.001 -0.3423 -0.0862  0.4655
  287MOL0     H37854   0.920  10.785   0.185 -0.3593  0.3208  0.1263
  287MOL0     H37855   1.081  10.773   0.247 -0.5963  1.0417 -2.1258
  287MOL0     H37856   0.899  10.542   0.163 -1.0031  2.5412  0.9206
  287MOL0     H37857   1.061  10.516   0.240 -0.1842 -0.7060 -1.1630
  287MOL0     H37858   0.858  10.677   0.387  0.2122  0.2682  1.3488
  287MOL0     H37859   1.008  10.605   0.452 -0.1646 -1.5069  0.7771
  287MOL0     H37860   0.961  10.387   0.413  0.7099  0.9934  2.1153
  287MOL0     H37861   0.792  10.422   0.356  1.0674  1.2497 -0.1047
  287MOL0     H37862   0.869  10.504   0.625  0.5045 -0.9859 -0.2441
  287MOL0     H37863   0.716  10.507   0.554 -0.4098 -1.9405 -0.1270
  287MOL0     H37864   0.871  10.250   0.598  0.9683  1.7469  1.9075
  287MOL0     H37865   0.699  10.265   0.541  0.5410 -2.7156  2.0037
  287MOL0     H37866   1.470  10.851   0.253 -0.5026  1.0642 -1.5831
  287MOL0     H37867   1.715  10.828   0.253  0.9918  0.9708  0.3691
  287MOL0     H37868   2.149  10.952   0.155  0.1840 -0.0928  1.0966
  287MOL0     H37869   2.353  10.917   0.225 -1.8894  2.5420 -1.1065
  287MOL0     H37870   4.014   9.922   0.104 -0.6043  0.9588  0.6063
  287MOL0     H37871   4.260   9.927   0.119 -1.2492 -1.3094 -0.1532
  287MOL0     H37872   4.591  10.107  -0.100  0.0010  1.0060  0.1081
  287MOL0     H37873   4.832  10.064  -0.170 -1.4207 -1.1043 -0.8598
  287MOL0     H37874   5.013  10.177  -0.133  0.6625  0.6718 -2.4350
  287MOL0     H37875   5.065  10.027  -0.203  0.0993 -0.1552  0.5164
  287MOL0     H37876   5.206  10.225  -0.014  1.6916 -1.1005  0.6433
  287MOL0     H37877   5.260  10.050  -0.033  0.2641 -0.1211  1.0220
  287MOL0     H37878   5.319  10.266  -0.222 -0.3844  0.2491 -2.3517
  287MOL0     H37879   5.217  10.133  -0.281 -0.2867 -1.2856  0.8872
  287MOL0     H37880   5.499  10.100  -0.142 -0.4095 -1.2200  1.4274
  287MOL0     H37881   5.400   9.973  -0.182 -0.1474 -0.1644 -0.4411
  287MOL0     H37882   5.554  10.015  -0.562 -0.3357  3.4428 -1.3886
  287MOL0     H37883   4.939  10.016   0.245  0.8985 -0.3665  0.4372
  287MOL0     H37884   4.698  10.041   0.313 -1.0769  1.5649 -1.1382
  288MOL0     O37885  10.765   0.583   1.397  0.8266 -0.4219  0.8924
  288MOL0     C37886  10.732   0.493   1.322  0.2471  0.1085 -0.0036
  288MOL0     O37887  10.817   0.429   1.234 -0.5371 -0.2029 -0.3132
  288MOL0     C37888  10.947   0.476   1.231 -0.6035  0.0511  0.1352
  288MOL0     C37889  11.050   0.424   1.308 -0.2774 -1.0218 -0.1715
  288MOL0     C37890  11.182   0.458   1.276 -0.0668 -0.4862 -0.6102
  288MOL0     C37891  11.213   0.550   1.172 -0.5039 -0.2271 -1.1692
  288MOL0     O37892  11.344   0.579   1.133  0.3052  0.0622 -0.0953
  288MOL0     C37893  11.462   0.514   1.171  0.1868 -0.2751 -0.7700
  288MOL0     C37894  11.469   0.381   1.097  0.7756 -1.3424 -0.2033
  288MOL0     C37895  11.586   0.307   1.150 -1.0251 -0.3954 -0.5106
  288MOL0     C37896  11.628   0.190   1.059  0.2378 -0.7631  0.2707
  288MOL0     C37897  11.764   0.123   1.111  0.3049 -0.0476  0.5811
  288MOL0     C37898  11.788  -0.014   1.055  0.1059  0.6739  0.2863
  288MOL0     C37899  11.836  -0.016   0.913 -0.4608 -0.1380  0.1987
  288MOL0     C37900  11.850  -0.156   0.864  0.1893 -0.0592 -0.6770
  288MOL0     N37901  11.876  -0.153   0.721  0.9081 -0.5968 -0.7115
  288MOL0     C37902  11.800  -0.217   0.625  0.0852 -0.7719 -0.3549
  288MOL0     C37903  11.833  -0.169   0.505 -0.1318  0.7402  0.7381
  288MOL0     C37904  11.742  -0.212   0.388 -0.7586 -0.6901  0.5852
  288MOL0     C37905  11.593  -0.160   0.394 -1.0556 -0.4438  0.1125
  288MOL0     C37906  11.583  -0.013   0.440 -0.1588 -0.0815 -1.1510
  288MOL0     C37907  11.439   0.048   0.446 -0.4904  0.0362 -0.0866
  288MOL0     O37908  11.371   0.017   0.329  0.3014  0.1672 -0.1677
  288MOL0     C37909  11.233  -0.011   0.327  0.6347  0.1314  0.1684
  288MOL0     C37910  11.147   0.040   0.426 -0.3483 -0.3290 -0.6748
  288MOL0     C37911  11.012   0.037   0.414 -0.3834 -0.6604 -0.3719
  288MOL0     C37912  10.952  -0.012   0.300  0.0649 -0.1959  0.0822
  288MOL0     C37913  10.811  -0.015   0.296 -0.5651 -0.2609 -1.1762
  288MOL0     O37914  10.742  -0.023   0.409  0.3012 -0.0195 -0.4928
  288MOL0     C37915  10.606   0.008   0.420 -0.8382 -0.9318  0.4787
  288MOL0     C37916  10.541  -0.035   0.530  0.1902 -0.6250 -0.1825
  288MOL0     C37917  10.402  -0.014   0.542 -0.2904 -0.3470 -0.6273
  288MOL0     C37918  10.321   0.028   0.437  0.0019 -0.3206 -0.0464
  288MOL0     O37919  10.185   0.044   0.450  0.3661 -0.8257 -0.2893
  288MOL0     C37920  10.098  -0.050   0.516 -0.8783 -0.0678  0.1814
  288MOL0     C37921   9.979  -0.089   0.428 -1.3026 -0.4536  0.6384
  288MOL0     C37922   9.875  -0.147   0.517  0.3219  0.2021  0.6203
  288MOL0     C37923   9.734  -0.162   0.450 -0.0989 -1.1564  0.2773
  288MOL0     C37924   9.626  -0.209   0.544 -0.0503  0.5315 -0.9652
  288MOL0     C37925   9.666  -0.343   0.607  0.8313  0.3690 -0.7302
  288MOL0     C37926   9.560  -0.396   0.700 -0.2646 -0.5451  0.1171
  288MOL0     C37927   9.599  -0.506   0.798 -1.1590 -0.0404  0.8739
  288MOL0    Cl37928   9.725  -0.615   0.728 -0.2199  0.0502 -0.5740
  288MOL0     C37929  10.391   0.072   0.324  0.3918 -0.0998 -0.4963
  288MOL0     C37930  10.526   0.066   0.316  0.3043 -0.0640  0.3133
  288MOL0     O37931  10.767  -0.020   0.182 -0.4621 -0.0411 -0.2519
  288MOL0     C37932  11.037  -0.066   0.197  0.6067  0.5859 -0.2251
  288MOL0     C37933  11.172  -0.073   0.212  0.3619  0.1634  0.1947
  288MOL0     N37934  11.926  -0.067   0.527  0.2524 -0.1037 -0.0429
  288MOL0     N37935  11.951  -0.061   0.651  0.6676  0.0400  0.2147
  288MOL0     C37936  11.110   0.624   1.111 -0.5926  0.0239  0.1436
  288MOL0     C37937  10.983   0.574   1.129  0.6191 -0.2278 -0.6975
  288MOL0     C37938  10.591   0.443   1.316 -0.4836  0.2499  0.2584
  288MOL0     C37939  10.558   0.309   1.278 -0.5212 -0.0773 -0.8837
  288MOL0     C37940  10.429   0.264   1.289 -0.3585  0.0537  0.2431
  288MOL0     C37941  10.326   0.342   1.336 -0.4349  0.3637 -0.3132
  288MOL0     O37942  10.192   0.305   1.352 -0.1556  0.0812 -0.1815
  288MOL0     C37943  10.169   0.179   1.290  0.8002  0.3746  0.1732
  288MOL0     C37944  10.025   0.142   1.286  0.8317 -0.6980 -0.0052
  288MOL0     C37945   9.981   0.096   1.422  0.0693  0.2791 -1.2281
  288MOL0     C37946   9.833   0.101   1.450  0.3919  0.3461  0.1265
  288MOL0     C37947   9.760  -0.006   1.378 -0.1464  0.4318  0.1156
  288MOL0     C37948   9.732  -0.111   1.326  1.7473 -0.3171 -0.6967
  288MOL0     C37949  10.352   0.473   1.373 -0.1312 -0.0354 -0.9243
  288MOL0     C37950  10.489   0.519   1.364  0.4417 -0.7938 -0.2425
  288MOL0     H37951  11.025   0.365   1.396  0.0841 -4.6089 -2.2970
  288MOL0     H37952  11.258   0.409   1.336  2.4575  0.6870 -2.6113
  288MOL0     H37953  11.472   0.517   1.280  1.4704 -0.4773 -0.8659
  288MOL0     H37954  11.552   0.572   1.145  0.5687  0.1621  1.2906
  288MOL0     H37955  11.464   0.401   0.989  2.1397  1.4131  0.1616
  288MOL0     H37956  11.379   0.326   1.127  0.2939 -0.0334  0.8511
  288MOL0     H37957  11.561   0.273   1.251  0.2771 -1.4181 -0.5078
  288MOL0     H37958  11.674   0.373   1.151 -0.8812 -0.5507 -1.6066
  288MOL0     H37959  11.550   0.113   1.054 -0.2803 -0.1738 -1.2393
  288MOL0     H37960  11.632   0.214   0.953 -2.0799 -1.5604 -0.0569
  288MOL0     H37961  11.744   0.103   1.217 -0.5205 -1.5491  0.1675
  288MOL0     H37962  11.851   0.188   1.093 -0.9802  1.3156 -1.0757
  288MOL0     H37963  11.693  -0.068   1.053 -0.6489  1.9581  0.2804
  288MOL0     H37964  11.859  -0.069   1.118 -0.0031  1.1630  0.8419
  288MOL0     H37965  11.762   0.036   0.851 -1.7957 -1.5398  0.5631
  288MOL0     H37966  11.929   0.042   0.905  0.4597 -1.5865 -0.0482
  288MOL0     H37967  11.752  -0.203   0.875 -0.8522  2.4284  2.2002
  288MOL0     H37968  11.922  -0.214   0.921 -1.3124  0.4321  1.8841
  288MOL0     H37969  11.735  -0.302   0.641 -0.8176  0.1435  1.0230
  288MOL0     H37970  11.748  -0.318   0.364  1.1313  0.1163 -3.2552
  288MOL0     H37971  11.791  -0.171   0.300 -1.2391  0.2773  0.7460
  288MOL0     H37972  11.550  -0.228   0.468 -0.6592  0.4439  1.1889
  288MOL0     H37973  11.538  -0.178   0.301  0.4218  0.6141 -1.0059
  288MOL0     H37974  11.615  -0.009   0.545 -2.8271 -0.4429 -0.2294
  288MOL0     H37975  11.659   0.035   0.379  1.2750  0.3285  0.8400
  288MOL0     H37976  11.451   0.155   0.467 -0.8833  0.1469 -0.4070
  288MOL0     H37977  11.392   0.009   0.536  0.8348  0.5204  0.8528
  288MOL0     H37978  11.190   0.079   0.518  0.5498 -0.9312 -0.8283
  288MOL0     H37979  10.964   0.088   0.497 -1.6116 -1.7825 -0.3673
  288MOL0     H37980  10.591  -0.098   0.602  0.2794 -2.3197 -1.6561
  288MOL0     H37981  10.350  -0.034   0.635  0.6826  1.1812  0.3002
  288MOL0     H37982  10.063   0.003   0.606  0.2148  1.3481 -0.1826
  288MOL0     H37983  10.159  -0.138   0.535 -2.0572 -0.9200  0.1639
  288MOL0     H37984  10.012  -0.162   0.354 -1.0083 -0.3768  0.6914
  288MOL0     H37985   9.934  -0.003   0.378  1.0163 -0.1500 -1.0719
  288MOL0     H37986   9.869  -0.095   0.613 -1.3444  2.0209 -0.3908
  288MOL0     H37987   9.900  -0.251   0.539 -1.2164 -0.5741 -1.0099
  288MOL0     H37988   9.691  -0.070   0.409 -2.8691 -1.2497  2.6339
  288MOL0     H37989   9.757  -0.239   0.376  2.0887 -0.7477  0.4760
  288MOL0     H37990   9.531  -0.216   0.489 -1.5293  1.7228  1.2880
  288MOL0     H37991   9.618  -0.128   0.617  2.7855  0.0672  0.0020
  288MOL0     H37992   9.759  -0.342   0.664 -0.3455 -1.9373  1.4470
  288MOL0     H37993   9.680  -0.422   0.532 -2.5861 -1.7735  0.6458
  288MOL0     H37994   9.520  -0.310   0.754  0.9656  0.5143 -0.5886
  288MOL0     H37995   9.481  -0.442   0.640 -0.2271 -0.1603 -0.2344
  288MOL0     H37996   9.517  -0.568   0.835  1.0649 -3.1426  1.0056
  288MOL0     H37997   9.638  -0.466   0.892  0.0388  0.8749  0.0224
  288MOL0     H37998  10.331   0.113   0.243 -0.1387  1.3635  0.5952
  288MOL0     H37999  10.572   0.105   0.225  1.9706  2.2394  2.0245
  288MOL0     H38000  10.983  -0.110   0.113 -2.8574  1.0836  1.5491
  288MOL0     H38001  11.234  -0.127   0.141 -1.5521 -1.6076 -0.2242
  288MOL0     H38002  11.130   0.710   1.047 -0.9306  1.4563  1.8831
  288MOL0     H38003  10.910   0.608   1.056  2.5544  0.3285 -2.4566
  288MOL0     H38004  10.637   0.244   1.241 -1.2537 -1.7494  0.3699
  288MOL0     H38005  10.417   0.160   1.261  4.5380 -0.6648 -0.1162
  288MOL0     H38006  10.211   0.102   1.355  2.2770 -0.6101 -1.8453
  288MOL0     H38007  10.211   0.174   1.189  0.6239  1.4460  0.0350
  288MOL0     H38008   9.960   0.222   1.251  0.8303 -0.7356 -0.0869
  288MOL0     H38009  10.015   0.059   1.216 -0.9589 -0.1173 -0.4715
  288MOL0     H38010  10.023   0.162   1.499  0.1741 -1.2157  0.0556
  288MOL0     H38011  10.020  -0.006   1.428 -1.5148 -0.2892  0.4437
  288MOL0     H38012   9.813   0.087   1.557 -0.6858 -3.9402 -0.4520
  288MOL0     H38013   9.794   0.198   1.419  0.8827  0.2560 -0.7995
  288MOL0     H38014   9.718  -0.205   1.278 -1.2196 -0.3919  0.1389
  288MOL0     H38015  10.267   0.529   1.410 -3.3773 -4.3076 -1.1137
  288MOL0     H38016  10.512   0.623   1.382 -0.4587  0.1217 -3.5464
  289MOL0     O38017   9.826   7.909   9.142  0.0708  0.6346  0.3168
  289MOL0     C38018   9.850   7.949   9.031  0.2510 -1.7242  0.2644
  289MOL0     O38019   9.757   7.952   8.928 -0.1697 -0.0603  0.6230
  289MOL0     C38020   9.625   7.900   8.927 -0.5628  0.1133 -0.5729
  289MOL0     C38021   9.553   7.857   9.040  0.0920  0.5908 -0.4737
  289MOL0     C38022   9.413   7.835   9.033 -0.2124 -0.1537 -0.6235
  289MOL0     C38023   9.337   7.848   8.919  1.5576 -0.1313 -0.9532
  289MOL0     O38024   9.200   7.827   8.901  0.2933  0.0304  0.0277
  289MOL0     C38025   9.126   7.762   9.005 -0.3962 -0.1231  0.2871
  289MOL0     C38026   8.986   7.732   8.966 -0.2998 -0.2683 -0.1794
  289MOL0     C38027   8.898   7.660   9.074 -0.2403 -0.1225  0.3099
  289MOL0     C38028   8.748   7.657   9.042  0.0894  0.3612  0.0937
  289MOL0     C38029   8.711   7.544   8.944 -0.0130  0.0461  0.5336
  289MOL0     C38030   8.585   7.590   8.867 -0.3820  0.1758 -0.6816
  289MOL0     C38031   8.455   7.577   8.948  0.2040  0.3810  0.0600
  289MOL0     C38032   8.410   7.439   8.951  0.4539  0.4538 -0.1569
  289MOL0     N38033   8.296   7.419   9.046 -0.8020  0.9009 -0.3576
  289MOL0     C38034   8.160   7.412   9.015 -1.1203 -0.6628 -0.1605
  289MOL0     C38035   8.094   7.415   9.132  0.2197  0.5635 -0.1934
  289MOL0     C38036   7.945   7.429   9.145 -0.3847 -0.5217  0.0166
  289MOL0     C38037   7.878   7.290   9.137 -0.0743 -0.5235  0.5081
  289MOL0     C38038   7.849   7.255   9.276 -0.4006  0.5931  0.1220
  289MOL0     C38039   7.786   7.115   9.287  0.2371 -0.3020 -0.5781
  289MOL0     O38040   7.664   7.118   9.210 -0.2562 -0.8725 -0.9326
  289MOL0     C38041   7.564   7.029   9.237  0.1331 -0.1441 -0.0617
  289MOL0     C38042   7.442   7.048   9.168 -0.5599  0.4290  0.3504
  289MOL0     C38043   7.337   6.965   9.182 -0.0983 -0.7330 -0.2024
  289MOL0     C38044   7.333   6.865   9.279  0.2891 -0.5074  0.6627
  289MOL0     C38045   7.218   6.775   9.294 -0.3609 -0.5125 -0.0421
  289MOL0     O38046   7.102   6.814   9.233  0.4879  0.4158 -0.1404
  289MOL0     C38047   6.998   6.722   9.217 -0.1208 -0.5656  0.0742
  289MOL0     C38048   6.923   6.725   9.095 -0.3227 -0.3136 -0.0842
  289MOL0     C38049   6.815   6.647   9.072 -0.1341  0.1651  0.8992
  289MOL0     C38050   6.773   6.556   9.178  0.3872  0.0633  0.0075
  289MOL0     O38051   6.667   6.473   9.154 -0.3748  0.2824 -0.0478
  289MOL0     C38052   6.543   6.525   9.217  0.7577  0.0217 -0.2511
  289MOL0     C38053   6.506   6.683   9.210 -0.1595  0.4850 -0.6135
  289MOL0     C38054   6.378   6.705   9.288  0.0326  1.1296 -0.4054
  289MOL0     C38055   6.323   6.844   9.264  0.4333 -0.3888  0.3750
  289MOL0     C38056   6.178   6.840   9.311 -0.2283 -0.2233 -0.1456
  289MOL0     C38057   6.117   6.982   9.296  1.6195 -0.5790 -0.4734
  289MOL0     C38058   5.970   6.977   9.346 -0.7770 -0.6550 -0.5374
  289MOL0     C38059   5.906   7.117   9.329  0.6297  0.5132  0.6825
  289MOL0    Cl38060   5.968   7.243   9.452 -0.3023 -0.3938  0.0918
  289MOL0     C38061   6.827   6.568   9.302 -0.5939 -0.2553 -0.0200
  289MOL0     C38062   6.942   6.649   9.330 -0.5733  0.5766  0.9390
  289MOL0     O38063   7.238   6.662   9.343 -0.4594 -0.1812  0.0270
  289MOL0     C38064   7.445   6.850   9.360 -0.8611  0.1379 -0.6039
  289MOL0     C38065   7.562   6.934   9.340  0.2816  0.4832 -0.2609
  289MOL0     N38066   8.189   7.417   9.235 -0.1415  0.3528  0.9876
  289MOL0     N38067   8.308   7.412   9.182  0.0039  0.1693 -0.0309
  289MOL0     C38068   9.412   7.884   8.808  0.0828  0.1727  0.0206
  289MOL0     C38069   9.549   7.907   8.802  0.3508 -0.4080  0.2945
  289MOL0     C38070   9.980   8.010   9.013  0.3491 -1.1823 -0.6287
  289MOL0     C38071  10.066   8.047   9.123  0.1888  0.1114 -0.3916
  289MOL0     C38072  10.183   8.125   9.109  0.2904 -1.4044  1.1695
  289MOL0     C38073  10.213   8.182   8.973 -0.2727 -0.3676 -0.4716
  289MOL0     O38074  10.311   8.277   8.950 -0.2822 -0.0204  0.4113
  289MOL0     C38075  10.300   8.384   9.045 -0.1072  0.5866  0.3782
  289MOL0     C38076  10.362   8.507   8.986  0.1319 -0.1934  0.5022
  289MOL0     C38077  10.517   8.508   9.005 -0.1271  0.1440 -0.7914
  289MOL0     C38078  10.586   8.629   8.939  0.0061 -0.2434 -0.2198
  289MOL0     C38079  10.643   8.584   8.807 -0.8677  0.9662 -0.5827
  289MOL0     C38080  10.690   8.559   8.697 -0.7550 -0.8186  0.3325
  289MOL0     C38081  10.141   8.128   8.872 -0.6698 -0.3031  0.5840
  289MOL0     C38082  10.029   8.049   8.886  0.2930  0.6528  0.3150
  289MOL0     H38083   9.599   7.846   9.138  1.3552 -0.2036 -1.1254
  289MOL0     H38084   9.362   7.811   9.126 -2.9110 -0.7166 -2.1147
  289MOL0     H38085   9.122   7.831   9.089  0.3630  0.7493 -0.3752
  289MOL0     H38086   9.169   7.666   9.036 -1.3496  0.2378  2.9699
  289MOL0     H38087   8.986   7.670   8.875 -0.1912 -2.3872  1.1962
  289MOL0     H38088   8.932   7.819   8.927 -1.1788 -1.0041 -0.6622
  289MOL0     H38089   8.906   7.719   9.166 -1.6189  0.2647  0.2071
  289MOL0     H38090   8.936   7.562   9.102 -0.7638 -1.0072 -1.9351
  289MOL0     H38091   8.682   7.657   9.130 -0.9480 -1.4786 -0.6149
  289MOL0     H38092   8.729   7.754   8.996  0.3756  1.2681  1.8197
  289MOL0     H38093   8.695   7.444   8.986 -0.7980  0.4072  1.1200
  289MOL0     H38094   8.792   7.535   8.871  1.2173  0.9892  1.7363
  289MOL0     H38095   8.575   7.530   8.776  1.4939  0.2738 -1.0066
  289MOL0     H38096   8.601   7.691   8.829  1.0563  0.1292 -0.2731
  289MOL0     H38097   8.475   7.617   9.048  0.6193 -0.4037  0.2906
  289MOL0     H38098   8.380   7.645   8.906 -0.8580  0.4214  1.9152
  289MOL0     H38099   8.487   7.365   8.976 -1.6011 -1.4924  0.7579
  289MOL0     H38100   8.384   7.411   8.849  0.9928 -0.7092  0.0068
  289MOL0     H38101   8.109   7.424   8.920 -0.8576  2.4290 -0.0184
  289MOL0     H38102   7.907   7.485   9.059  0.1283 -0.7222 -0.3457
  289MOL0     H38103   7.928   7.493   9.232 -2.4122 -2.6984  1.3437
  289MOL0     H38104   7.929   7.212   9.079 -2.4809 -0.9928 -1.1354
  289MOL0     H38105   7.785   7.310   9.084  1.4336 -0.2903 -2.2580
  289MOL0     H38106   7.929   7.271   9.348 -2.6544  0.9949  2.6923
  289MOL0     H38107   7.775   7.329   9.308  0.8958  1.5667  0.9395
  289MOL0     H38108   7.758   7.110   9.393 -0.7733 -1.2655 -0.8654
  289MOL0     H38109   7.844   7.030   9.251  0.7025  0.5396 -1.8770
  289MOL0     H38110   7.444   7.131   9.097  0.0526  0.0703 -0.0647
  289MOL0     H38111   7.244   6.981   9.128  0.6418  1.9228 -0.8074
  289MOL0     H38112   6.964   6.795   9.022  1.6098 -1.1831  0.0955
  289MOL0     H38113   6.758   6.664   8.981 -1.2162 -2.4916  0.9699
  289MOL0     H38114   6.544   6.494   9.322 -0.6444 -4.0501 -1.2716
  289MOL0     H38115   6.463   6.478   9.159  1.3025  0.6238 -1.5148
  289MOL0     H38116   6.489   6.705   9.104 -3.4077 -0.0104 -0.2874
  289MOL0     H38117   6.577   6.750   9.260  2.7124 -0.8831 -2.5629
  289MOL0     H38118   6.396   6.692   9.395 -0.1425  2.2394 -0.2303
  289MOL0     H38119   6.310   6.628   9.251  1.1797 -1.4593  2.4679
  289MOL0     H38120   6.386   6.926   9.300  0.9192 -0.0704 -1.1634
  289MOL0     H38121   6.319   6.858   9.156  0.6788 -1.4201  0.2198
  289MOL0     H38122   6.172   6.813   9.417  0.8358 -0.5872 -0.1719
  289MOL0     H38123   6.120   6.762   9.261 -1.1871  0.3086  0.1251
  289MOL0     H38124   6.118   7.018   9.193 -0.4961 -1.2894 -0.7868
  289MOL0     H38125   6.180   7.051   9.354  1.8028 -2.4880  1.7172
  289MOL0     H38126   5.912   6.897   9.299  1.5545 -1.5262 -2.0689
  289MOL0     H38127   5.970   6.962   9.454 -2.6402 -0.3611 -0.4641
  289MOL0     H38128   5.797   7.121   9.319  0.6949  1.0186  0.1169
  289MOL0     H38129   5.937   7.155   9.231 -2.3245  0.2051 -0.4730
  289MOL0     H38130   6.798   6.500   9.382 -0.1472  1.5566  1.7783
  289MOL0     H38131   6.998   6.656   9.423 -0.2644 -0.0900  0.8093
  289MOL0     H38132   7.437   6.787   9.448  0.7936  0.2855 -0.3261
  289MOL0     H38133   7.635   6.921   9.419 -0.8457 -0.7942  0.6272
  289MOL0     H38134   9.370   7.877   8.708  0.6510 -0.3806 -0.1822
  289MOL0     H38135   9.581   7.941   8.704 -0.7996 -0.0001  0.0390
  289MOL0     H38136  10.034   8.025   9.224 -0.9124  2.1095 -0.2529
  289MOL0     H38137  10.237   8.149   9.200  0.3897 -1.8613  1.2334
  289MOL0     H38138  10.353   8.351   9.135  1.5348 -0.9635 -1.1017
  289MOL0     H38139  10.193   8.403   9.062 -1.5294 -1.8703 -4.2602
  289MOL0     H38140  10.338   8.506   8.879 -0.4927 -0.5297  0.6392
  289MOL0     H38141  10.323   8.596   9.036  1.6349 -0.4697  2.2502
  289MOL0     H38142  10.553   8.413   8.964 -3.6358 -1.8761  0.4160
  289MOL0     H38143  10.538   8.505   9.112 -1.7035 -1.2180 -0.4935
  289MOL0     H38144  10.516   8.710   8.917 -0.2010 -0.8517 -2.0422
  289MOL0     H38145  10.646   8.679   9.015  0.4702 -1.3676  0.1770
  289MOL0     H38146  10.729   8.536   8.600  1.2756 -0.0217  0.9110
  289MOL0     H38147  10.174   8.164   8.776  0.1773 -3.0638 -0.2485
  289MOL0     H38148   9.963   8.020   8.805  1.2215  1.0484 -0.6114
  290MOL0     O38149   4.474   9.692   1.394 -0.3245  0.1577  0.1256
  290MOL0     C38150   4.539   9.588   1.405 -0.2821  0.3495  0.0857
  290MOL0     O38151   4.490   9.464   1.415 -0.1129 -0.3366 -0.5571
  290MOL0     C38152   4.359   9.449   1.445  0.1496 -0.0230  0.4303
  290MOL0     C38153   4.269   9.495   1.340 -0.3474 -0.2011 -0.9599
  290MOL0     C38154   4.132   9.464   1.361  0.0920  0.5410 -0.2309
  290MOL0     C38155   4.088   9.416   1.486 -0.4183 -0.8214  0.5496
  290MOL0     O38156   3.953   9.411   1.474 -0.7870  0.0548 -1.0036
  290MOL0     C38157   3.881   9.418   1.603 -0.8139  0.2637  0.8244
  290MOL0     C38158   3.734   9.423   1.564  0.3601  0.2091 -0.7895
  290MOL0     C38159   3.640   9.397   1.682 -0.1663  0.1452 -0.4077
  290MOL0     C38160   3.496   9.442   1.651  0.8328 -1.5639  0.8384
  290MOL0     C38161   3.399   9.367   1.751 -0.1545  0.1197  0.8792
  290MOL0     C38162   3.253   9.436   1.748 -0.3340  0.2460 -0.3122
  290MOL0     C38163   3.204   9.462   1.604  0.4265  0.5458 -0.7175
  290MOL0     C38164   3.059   9.510   1.617 -0.4820 -0.1554  0.4593
  290MOL0     N38165   3.008   9.561   1.492  0.3263  0.1805  0.5874
  290MOL0     C38166   3.064   9.559   1.361  0.6344  0.2574 -0.4064
  290MOL0     C38167   2.983   9.630   1.289 -0.1748 -0.3403 -0.7385
  290MOL0     C38168   3.005   9.687   1.145 -0.3834 -0.6805 -0.3246
  290MOL0     C38169   2.909   9.639   1.039 -0.4699  0.2582  0.5729
  290MOL0     C38170   2.758   9.661   1.080 -0.3377  0.1056  0.6893
  290MOL0     C38171   2.679   9.626   0.953 -0.1372 -0.1554  0.2885
  290MOL0     O38172   2.539   9.598   0.994  0.3726  0.1144 -0.0102
  290MOL0     C38173   2.435   9.586   0.903 -0.1696 -0.3873 -0.6560
  290MOL0     C38174   2.446   9.635   0.770 -0.1570 -0.2046  0.0076
  290MOL0     C38175   2.346   9.612   0.676  0.1045 -1.0433 -0.9440
  290MOL0     C38176   2.233   9.548   0.718  0.6882  0.2269 -0.0487
  290MOL0     C38177   2.120   9.542   0.619 -1.1862 -0.7654  0.1099
  290MOL0     O38178   1.993   9.517   0.665  0.6723 -0.1126  0.0767
  290MOL0     C38179   1.886   9.486   0.581  0.1015 -0.5595 -0.7022
  290MOL0     C38180   1.780   9.415   0.646 -0.3296 -0.5105 -0.6382
  290MOL0     C38181   1.660   9.383   0.582 -0.2884  0.5437 -0.1048
  290MOL0     C38182   1.645   9.420   0.449 -0.9144  0.9881  0.5818
  290MOL0     O38183   1.533   9.379   0.388  0.3930  0.4694 -0.1834
  290MOL0     C38184   1.537   9.321   0.258  0.2209  0.1133 -0.5656
  290MOL0     C38185   1.622   9.199   0.262  0.2670  0.0993  0.9981
  290MOL0     C38186   1.673   9.165   0.118  0.0109  0.0285 -0.4895
  290MOL0     C38187   1.765   9.044   0.124  0.4030  0.4313 -0.2308
  290MOL0     C38188   1.787   8.979  -0.008 -0.4963 -0.4478  0.7412
  290MOL0     C38189   1.851   9.084  -0.105 -0.0649 -0.6141  0.4177
  290MOL0     C38190   1.863   9.016  -0.239 -0.6537  0.7129  0.0233
  290MOL0     C38191   1.921   9.102  -0.347  0.7295 -0.0680  0.4390
  290MOL0    Cl38192   1.899   9.033  -0.512  0.3872 -0.5491 -0.1823
  290MOL0     C38193   1.754   9.482   0.387  0.0819  0.4541 -0.2466
  290MOL0     C38194   1.875   9.518   0.442  0.2531  0.0211 -0.4353
  290MOL0     O38195   2.155   9.526   0.504  0.0318 -0.4598 -0.1402
  290MOL0     C38196   2.218   9.490   0.851  0.2392 -0.2516  0.1531
  290MOL0     C38197   2.319   9.509   0.945  0.0533 -0.1535 -0.5240
  290MOL0     N38198   2.878   9.668   1.366  0.5020 -0.1581  0.0858
  290MOL0     N38199   2.900   9.642   1.484 -0.6329  0.2011  0.3634
  290MOL0     C38200   4.172   9.378   1.593  0.6365  0.2664 -0.3212
  290MOL0     C38201   4.311   9.388   1.564  1.0675  0.5009  0.7408
  290MOL0     C38202   4.684   9.600   1.396 -0.4564 -0.6816 -0.3615
  290MOL0     C38203   4.743   9.731   1.371  0.0423  0.1846  0.0861
  290MOL0     C38204   4.876   9.744   1.362 -0.7259  0.3650 -0.4085
  290MOL0     C38205   4.971   9.650   1.386 -1.0918  0.4422 -0.3051
  290MOL0     O38206   5.105   9.668   1.378  0.0150 -0.2285 -0.9583
  290MOL0     C38207   5.196   9.575   1.440  0.7247  0.4813  0.3468
  290MOL0     C38208   5.339   9.619   1.441  0.3175 -0.1080 -0.3753
  290MOL0     C38209   5.351   9.722   1.547  0.1633 -0.3390 -0.0298
  290MOL0     C38210   5.482   9.735   1.607  0.3413  0.1298 -0.0112
  290MOL0     C38211   5.492   9.846   1.706  0.6074  0.3161  0.3478
  290MOL0     C38212   5.472   9.924   1.789 -0.8622  0.0991 -0.3006
  290MOL0     C38213   4.919   9.522   1.421 -0.0033  0.0569  0.5645
  290MOL0     C38214   4.783   9.498   1.420  0.5536 -0.3969 -0.0462
  290MOL0     H38215   4.299   9.545   1.249 -0.3932 -1.9899 -1.9909
  290MOL0     H38216   4.064   9.489   1.280 -0.4223  3.7864  1.0493
  290MOL0     H38217   3.913   9.504   1.664  0.2009 -0.5705  1.4979
  290MOL0     H38218   3.904   9.329   1.663  1.2751  1.4291  1.8878
  290MOL0     H38219   3.718   9.349   1.485  0.6072  0.6891 -1.2973
  290MOL0     H38220   3.721   9.520   1.516  0.9565  0.9738  0.5606
  290MOL0     H38221   3.670   9.464   1.764  0.6379  0.9873 -1.3453
  290MOL0     H38222   3.644   9.292   1.712 -0.5628 -0.0477 -1.0066
  290MOL0     H38223   3.494   9.551   1.663 -1.6481 -1.6906  2.2780
  290MOL0     H38224   3.476   9.411   1.548 -2.6697  2.4097  0.0362
  290MOL0     H38225   3.443   9.372   1.851  3.0490  0.2178 -0.4274
  290MOL0     H38226   3.384   9.264   1.718  1.0894  0.2903 -0.3351
  290MOL0     H38227   3.278   9.532   1.794  1.0328 -0.5615  0.7012
  290MOL0     H38228   3.171   9.378   1.792 -1.0425  0.4280 -1.3440
  290MOL0     H38229   3.255   9.540   1.547  1.3121 -0.0935 -0.8178
  290MOL0     H38230   3.217   9.366   1.553  2.8088  0.2551  0.2886
  290MOL0     H38231   3.050   9.593   1.686 -5.4344  0.7726 -0.9038
  290MOL0     H38232   2.996   9.426   1.645  1.7553 -2.9884 -2.1988
  290MOL0     H38233   3.157   9.510   1.333  0.6954  0.2351 -0.1644
  290MOL0     H38234   3.102   9.645   1.117  0.0443 -1.0647  1.5857
  290MOL0     H38235   3.012   9.796   1.142  0.0552 -0.7090 -0.2946
  290MOL0     H38236   2.929   9.532   1.030 -4.2583 -0.7034  1.5779
  290MOL0     H38237   2.929   9.696   0.948 -3.4168  2.0886  0.9419
  290MOL0     H38238   2.732   9.608   1.173 -3.1302 -1.3389 -0.7782
  290MOL0     H38239   2.738   9.768   1.088  0.1699  0.3346 -0.8548
  290MOL0     H38240   2.711   9.536   0.900 -3.1169 -0.5032 -1.1632
  290MOL0     H38241   2.672   9.713   0.886 -0.6381 -1.0894 -0.9143
  290MOL0     H38242   2.539   9.665   0.721  0.0494  0.2703  0.6729
  290MOL0     H38243   2.372   9.645   0.576  3.0419  0.3428  0.1280
  290MOL0     H38244   1.787   9.391   0.751  0.5533 -0.5791 -0.7066
  290MOL0     H38245   1.588   9.322   0.635 -0.3772  0.7247 -0.0136
  290MOL0     H38246   1.554   9.394   0.178 -3.1955  1.3157 -0.3734
  290MOL0     H38247   1.439   9.278   0.232 -0.4183  1.7862 -1.1004
  290MOL0     H38248   1.570   9.113   0.306 -1.6089  1.2113  1.0792
  290MOL0     H38249   1.710   9.219   0.324 -0.3509 -0.7294  2.1780
  290MOL0     H38250   1.726   9.255   0.086 -1.9287  0.7835 -1.8112
  290MOL0     H38251   1.589   9.143   0.052 -2.2274  1.3593  1.7162
  290MOL0     H38252   1.858   9.070   0.175  0.7267  0.1719 -0.6803
  290MOL0     H38253   1.716   8.965   0.182 -2.6123 -0.6076 -3.7298
  290MOL0     H38254   1.691   8.944  -0.047 -0.9968  1.3481  0.2327
  290MOL0     H38255   1.849   8.890  -0.003 -2.4156 -2.0332 -1.3732
  290MOL0     H38256   1.952   9.104  -0.069 -0.9266 -0.7560  3.0751
  290MOL0     H38257   1.791   9.175  -0.115  0.1141 -0.5790 -0.4472
  290MOL0     H38258   1.921   8.925  -0.222 -1.2068  0.6576  1.8428
  290MOL0     H38259   1.765   8.989  -0.279 -1.9085  0.9647  2.6797
  290MOL0     H38260   2.028   9.114  -0.327  0.4043  2.2826  1.1595
  290MOL0     H38261   1.884   9.204  -0.363  1.0339 -0.4866 -3.9011
  290MOL0     H38262   1.748   9.510   0.282  0.1660  0.2738 -0.2999
  290MOL0     H38263   1.951   9.575   0.389  2.4206 -1.5838  0.7692
  290MOL0     H38264   2.125   9.437   0.870 -0.3781  0.4401 -0.8282
  290MOL0     H38265   2.315   9.458   1.040 -3.4253 -2.9496 -1.9743
  290MOL0     H38266   4.134   9.347   1.690  1.0905  0.6599 -0.0124
  290MOL0     H38267   4.382   9.361   1.641  0.2990  3.0519  2.4782
  290MOL0     H38268   4.684   9.817   1.340  0.5107 -0.1178 -1.7347
  290MOL0     H38269   4.922   9.840   1.342  1.1627 -0.6495 -1.2595
  290MOL0     H38270   5.200   9.480   1.386  3.7921  0.1121  1.0391
  290MOL0     H38271   5.149   9.554   1.537 -3.1152 -0.8780 -1.5956
  290MOL0     H38272   5.389   9.531   1.482  0.0748  1.1988  3.0785
  290MOL0     H38273   5.368   9.650   1.341 -3.5520 -1.9542 -2.3172
  290MOL0     H38274   5.274   9.729   1.624 -0.0554  2.6135 -0.3955
  290MOL0     H38275   5.330   9.816   1.494  0.0021  0.3221  1.1673
  290MOL0     H38276   5.504   9.638   1.652  1.2022  0.6089  0.6391
  290MOL0     H38277   5.560   9.760   1.534 -0.6249  2.0428 -0.4442
  290MOL0     H38278   5.453   9.986   1.875 -2.1118 -1.1225  0.3519
  290MOL0     H38279   4.981   9.437   1.444 -1.1937 -0.4292  2.2324
  290MOL0     H38280   4.745   9.400   1.446  0.6594 -1.0038 -1.9650
  291MOL0     O38281   9.810   1.936   6.902  0.9132 -0.0683 -0.3317
  291MOL0     C38282   9.818   1.814   6.907  0.3073 -0.2574  0.8636
  291MOL0     O38283   9.909   1.741   6.834  0.1920  0.3331 -0.8685
  291MOL0     C38284   9.993   1.810   6.762 -0.4701 -0.5530 -0.5589
  291MOL0     C38285   9.971   1.852   6.632 -0.4098  0.0314 -0.4903
  291MOL0     C38286  10.077   1.919   6.564 -0.6619 -0.2477 -0.9687
  291MOL0     C38287  10.196   1.960   6.625 -0.0463 -0.1545  0.7777
  291MOL0     O38288  10.286   2.014   6.532  0.4982 -0.3228  0.1255
  291MOL0     C38289  10.399   2.095   6.569  0.8917  0.5363 -0.2552
  291MOL0     C38290  10.451   2.156   6.440 -0.3399  0.1282 -0.5290
  291MOL0     C38291  10.558   2.068   6.354  0.3654  0.0421  0.1995
  291MOL0     C38292  10.617   2.159   6.246 -0.0904  0.0651  0.1444
  291MOL0     C38293  10.713   2.110   6.140  0.0573 -0.4624 -0.4480
  291MOL0     C38294  10.670   1.989   6.054  0.6311  0.6726 -0.4659
  291MOL0     C38295  10.760   1.954   5.936  0.4221 -0.2122  0.4909
  291MOL0     C38296  10.695   1.845   5.858 -0.4298  0.7914 -0.7443
  291MOL0     N38297  10.740   1.712   5.911  0.2795  0.2113  0.9448
  291MOL0     C38298  10.683   1.596   5.854 -0.0754 -0.0780  0.0406
  291MOL0     C38299  10.770   1.492   5.889  0.8187  0.1079  0.5691
  291MOL0     C38300  10.770   1.349   5.837  0.2164 -0.1838  0.1097
  291MOL0     C38301  10.772   1.336   5.690 -0.2445  0.1884  0.2947
  291MOL0     C38302  10.758   1.188   5.649  0.7691 -0.1880  0.8055
  291MOL0     C38303  10.817   1.144   5.513 -0.4657  0.9386 -0.0770
  291MOL0     O38304  10.963   1.170   5.505  0.0849 -0.4824 -0.1927
  291MOL0     C38305  11.030   1.124   5.399 -0.7379 -0.0894  0.2304
  291MOL0     C38306  10.980   1.110   5.264  0.3206 -0.0885 -0.7655
  291MOL0     C38307  11.057   1.082   5.158 -0.0355 -0.0209  0.1337
  291MOL0     C38308  11.194   1.052   5.179  0.1580  0.0246  0.2750
  291MOL0     C38309  11.286   1.006   5.072 -0.4032  1.2825 -0.6096
  291MOL0     O38310  11.247   1.007   4.948 -0.4843  0.0222 -0.4743
  291MOL0     C38311  11.345   0.971   4.859  0.5205 -0.4021  0.0789
  291MOL0     C38312  11.414   1.071   4.790  0.4581  0.3316  0.6080
  291MOL0     C38313  11.530   1.051   4.717  0.5806 -0.4348  0.3001
  291MOL0     C38314  11.584   0.922   4.704  0.5925  0.6111  0.2969
  291MOL0     O38315  11.705   0.895   4.631  0.4266 -0.3542  0.6974
  291MOL0     C38316  11.752   0.987   4.527  0.3203  0.8331 -0.6644
  291MOL0     C38317  11.867   0.919   4.454 -0.3208  0.1290  0.3874
  291MOL0     C38318  11.910   1.010   4.339  0.2655  0.7480  0.4762
  291MOL0     C38319  11.995   0.937   4.243 -0.1956  0.4321 -0.1429
  291MOL0     C38320  12.091   1.023   4.162 -0.1381 -0.2648  0.6495
  291MOL0     C38321  12.182   0.937   4.070 -0.5207  0.0724  0.1691
  291MOL0     C38322  12.311   1.010   4.017 -0.0703 -0.1150 -0.1972
  291MOL0     C38323  12.275   1.085   3.888  0.1187  0.2709  0.7522
  291MOL0    Cl38324  12.431   1.161   3.835  0.1218  0.0005 -0.3391
  291MOL0     C38325  11.502   0.821   4.758 -0.2546  0.0725  0.6061
  291MOL0     C38326  11.385   0.847   4.837  0.0191  0.6644 -0.2299
  291MOL0     O38327  11.404   0.984   5.107  0.6503  0.3394 -0.2946
  291MOL0     C38328  11.246   1.074   5.306  0.8462  0.1805 -0.1268
  291MOL0     C38329  11.172   1.110   5.406  0.6899 -0.1743  0.2955
  291MOL0     N38330  10.861   1.554   5.974  0.5845 -0.1160  0.0243
  291MOL0     N38331  10.842   1.684   5.987 -0.3473  0.0873  0.8736
  291MOL0     C38332  10.217   1.905   6.750  0.3244 -0.3540  0.9531
  291MOL0     C38333  10.113   1.845   6.822  0.7169 -0.3758 -0.3344
  291MOL0     C38334   9.736   1.740   7.003  0.0365 -0.6040 -0.4739
  291MOL0     C38335   9.616   1.792   7.043  0.3122  0.1479  0.0967
  291MOL0     C38336   9.541   1.721   7.134  0.3670  0.9915 -0.2508
  291MOL0     C38337   9.580   1.597   7.191 -0.1974 -0.3589 -0.0755
  291MOL0     O38338   9.501   1.552   7.290  0.2403  0.2903  0.3088
  291MOL0     C38339   9.516   1.414   7.342 -0.3215 -0.1115  0.4828
  291MOL0     C38340   9.434   1.423   7.469  0.9010 -1.1194  0.7722
  291MOL0     C38341   9.280   1.381   7.448  0.0401  0.1506 -0.5005
  291MOL0     C38342   9.203   1.468   7.348  0.2080  0.4433 -1.0356
  291MOL0     C38343   9.058   1.438   7.354 -0.2634 -0.6093  0.0718
  291MOL0     C38344   8.939   1.423   7.375 -0.1119  0.0229  0.4632
  291MOL0     C38345   9.702   1.541   7.150 -1.4404 -0.1123  0.7235
  291MOL0     C38346   9.774   1.617   7.056 -0.7342  0.7989  0.3175
  291MOL0     H38347   9.884   1.826   6.572 -0.3848  1.8265 -1.3563
  291MOL0     H38348  10.056   1.951   6.462  0.5651  3.6479 -0.1805
  291MOL0     H38349  10.473   2.033   6.621  3.5753  1.4814 -2.6899
  291MOL0     H38350  10.359   2.171   6.637  1.7443 -0.1418  1.0724
  291MOL0     H38351  10.494   2.256   6.454 -1.3684  0.4623  0.3628
  291MOL0     H38352  10.372   2.176   6.367 -0.6206  0.5613 -0.1134
  291MOL0     H38353  10.513   1.979   6.309  1.7606  0.3856 -1.9770
  291MOL0     H38354  10.634   2.030   6.423 -1.5821  0.6264  2.8524
  291MOL0     H38355  10.531   2.200   6.192 -0.0205  0.2331  0.1611
  291MOL0     H38356  10.666   2.240   6.302 -1.6709  0.8801  0.4069
  291MOL0     H38357  10.802   2.064   6.184 -0.4509 -3.5108 -2.2754
  291MOL0     H38358  10.741   2.187   6.067  1.3313  1.2604  1.7374
  291MOL0     H38359  10.568   2.010   6.018  0.1689 -0.1488  0.3058
  291MOL0     H38360  10.651   1.903   6.119 -0.1446  1.6695  0.6761
  291MOL0     H38361  10.762   2.041   5.870 -2.7784 -0.1160  0.3699
  291MOL0     H38362  10.866   1.939   5.962  0.4506 -0.1621  0.4034
  291MOL0     H38363  10.743   1.852   5.760  4.5733 -4.1589  0.7708
  291MOL0     H38364  10.586   1.854   5.854 -0.6783  0.3387  2.5944
  291MOL0     H38365  10.587   1.591   5.805 -0.4913 -0.1164  0.8367
  291MOL0     H38366  10.683   1.297   5.878  1.2558 -0.6771  1.8004
  291MOL0     H38367  10.861   1.297   5.870  1.3535  1.6675  0.0124
  291MOL0     H38368  10.869   1.370   5.652  0.3037  0.0039  1.4553
  291MOL0     H38369  10.691   1.396   5.649  0.1636  0.6176  0.1019
  291MOL0     H38370  10.805   1.111   5.712  0.6317 -2.8220 -2.0620
  291MOL0     H38371  10.652   1.169   5.634  0.9798  0.0187 -1.1857
  291MOL0     H38372  10.763   1.199   5.435  1.0467  1.7063 -0.6363
  291MOL0     H38373  10.795   1.037   5.505  2.0854  0.1892  1.7051
  291MOL0     H38374  10.874   1.122   5.245 -0.8141 -1.9787  3.1910
  291MOL0     H38375  11.018   1.077   5.057  0.0245  0.2301  0.0976
  291MOL0     H38376  11.358   1.164   4.791  0.9960  0.6976 -0.9180
  291MOL0     H38377  11.576   1.138   4.670 -2.0491  2.0206  1.9112
  291MOL0     H38378  11.786   1.079   4.575  1.5199 -1.4513  3.2366
  291MOL0     H38379  11.672   1.014   4.457  1.0712 -0.1588 -1.9601
  291MOL0     H38380  11.835   0.821   4.419  1.7452  0.0633 -1.5103
  291MOL0     H38381  11.953   0.902   4.518  1.3997  1.7217 -1.3645
  291MOL0     H38382  11.968   1.094   4.379  1.7386 -1.0508  2.4060
  291MOL0     H38383  11.817   1.044   4.293  1.7412  0.6809 -2.8210
  291MOL0     H38384  12.040   0.853   4.298 -0.1275 -0.0654 -0.9494
  291MOL0     H38385  11.931   0.899   4.164  1.8371 -0.1179 -1.5952
  291MOL0     H38386  12.150   1.085   4.230  1.6089 -1.3554  0.2093
  291MOL0     H38387  12.040   1.092   4.095 -0.0967 -2.7616 -2.1789
  291MOL0     H38388  12.129   0.903   3.980 -0.4320  2.3597 -0.8075
  291MOL0     H38389  12.221   0.854   4.130 -1.1664  1.0253  1.9888
  291MOL0     H38390  12.345   1.074   4.099  0.1320 -2.5351  1.7205
  291MOL0     H38391  12.390   0.936   4.002  0.3596  0.2417  0.2983
  291MOL0     H38392  12.190   1.152   3.908 -0.8432 -0.3724 -1.0442
  291MOL0     H38393  12.238   1.018   3.810 -0.6287  2.8641 -1.2584
  291MOL0     H38394  11.539   0.722   4.735 -1.3996  0.0064 -1.1640
  291MOL0     H38395  11.334   0.761   4.879  0.6322  0.0913 -0.6320
  291MOL0     H38396  11.353   1.071   5.329  0.4033  3.1406  3.1437
  291MOL0     H38397  11.216   1.141   5.500 -0.2289  0.0978  0.6489
  291MOL0     H38398  10.305   1.934   6.807  0.5303  1.3347 -0.1417
  291MOL0     H38399  10.116   1.823   6.929  2.8798  1.7978  0.1424
  291MOL0     H38400   9.572   1.889   7.023  1.4432  1.5008  3.4383
  291MOL0     H38401   9.440   1.758   7.147 -0.8578 -2.1589  0.0504
  291MOL0     H38402   9.620   1.389   7.365  0.8104  3.4612 -0.0632
  291MOL0     H38403   9.474   1.340   7.273 -1.2029  1.6077 -0.9068
  291MOL0     H38404   9.468   1.343   7.534 -0.1079 -1.5662  0.7724
  291MOL0     H38405   9.447   1.524   7.510 -1.0659  1.0362 -3.2758
  291MOL0     H38406   9.236   1.399   7.546  0.7142  1.4381 -0.4113
  291MOL0     H38407   9.273   1.276   7.419 -0.3403  0.6672 -2.4429
  291MOL0     H38408   9.207   1.571   7.382  1.6831  0.0649 -0.0102
  291MOL0     H38409   9.237   1.452   7.245  1.7507 -0.4299 -0.4304
  291MOL0     H38410   8.833   1.432   7.387 -0.2828  0.5635 -1.2500
  291MOL0     H38411   9.748   1.455   7.197 -0.1782  0.9963  1.5756
  291MOL0     H38412   9.874   1.591   7.020 -0.6403 -3.5171  3.0469
  292MOL0     O38413   2.748   0.888   8.449 -0.5427 -0.5980 -0.8732
  292MOL0     C38414   2.739   0.954   8.344 -0.0441 -1.1758  0.4177
  292MOL0     O38415   2.622   0.978   8.277 -0.1559 -0.2268  0.1736
  292MOL0     C38416   2.512   0.905   8.332  0.3435 -0.5663  0.5944
  292MOL0     C38417   2.447   0.943   8.449 -0.1626 -0.0730 -0.1231
  292MOL0     C38418   2.333   0.881   8.487 -0.4749  0.2448  0.8154
  292MOL0     C38419   2.277   0.770   8.414  0.1291  0.1164 -1.0151
  292MOL0     O38420   2.161   0.700   8.432 -0.1854 -0.1815 -0.5561
  292MOL0     C38421   2.079   0.739   8.543 -0.5064 -0.6129 -0.0165
  292MOL0     C38422   1.952   0.661   8.531  0.7243  0.4258 -0.0538
  292MOL0     C38423   1.866   0.703   8.646 -0.0613  0.3799  0.3944
  292MOL0     C38424   1.743   0.612   8.669 -0.0663  0.1528 -0.2216
  292MOL0     C38425   1.669   0.635   8.792 -0.1486 -0.3806 -0.2390
  292MOL0     C38426   1.756   0.563   8.900 -0.0460  0.1716 -0.7073
  292MOL0     C38427   1.672   0.580   9.021  0.0824  0.7341 -0.9187
  292MOL0     C38428   1.725   0.539   9.155  0.8467 -1.3989  0.0225
  292MOL0     N38429   1.676   0.402   9.190  0.5624 -0.5107  0.3798
  292MOL0     C38430   1.729   0.288   9.132 -0.5815  0.3084  1.2058
  292MOL0     C38431   1.652   0.190   9.184 -0.6142  0.7590 -0.4602
  292MOL0     C38432   1.659   0.050   9.145 -0.2672  0.0345  0.6764
  292MOL0     C38433   1.520   0.008   9.100  0.1124 -0.1988  0.2615
  292MOL0     C38434   1.503  -0.144   9.065 -0.5061  0.0918 -0.2141
  292MOL0     C38435   1.363  -0.193   9.084  0.2155 -0.4091  0.2767
  292MOL0     O38436   1.370  -0.328   9.032  0.7336  0.1693  0.4551
  292MOL0     C38437   1.248  -0.395   9.041  0.2764 -0.4148  0.0156
  292MOL0     C38438   1.123  -0.330   9.063  0.0503  0.5167 -0.3813
  292MOL0     C38439   1.006  -0.407   9.074  0.1590  0.3454  0.7729
  292MOL0     C38440   1.013  -0.550   9.070 -0.4195 -0.1290  0.3836
  292MOL0     C38441   0.890  -0.634   9.077 -0.4021  0.1948 -0.7233
  292MOL0     O38442   0.772  -0.567   9.100  0.1377  0.5379  0.5473
  292MOL0     C38443   0.667  -0.646   9.129  0.5139  0.2534 -0.0528
  292MOL0     C38444   0.634  -0.702   9.252 -0.0935 -0.7128 -0.5206
  292MOL0     C38445   0.522  -0.779   9.271 -0.4589  0.5835  0.3009
  292MOL0     C38446   0.440  -0.819   9.176  0.2574  0.0284  0.4359
  292MOL0     O38447   0.339  -0.900   9.208  0.5191 -0.3344  0.0039
  292MOL0     C38448   0.310  -0.995   9.100  0.0018 -0.6624  0.2751
  292MOL0     C38449   0.200  -1.093   9.151 -0.1291 -0.3117  0.3107
  292MOL0     C38450   0.079  -1.119   9.059  0.1014 -0.3187 -0.0702
  292MOL0     C38451  -0.035  -1.222   9.091  0.6884  0.3016 -0.3842
  292MOL0     C38452  -0.150  -1.208   8.988  0.5533  0.4725 -0.6129
  292MOL0     C38453  -0.225  -1.340   8.965  0.1052 -0.0542  0.3927
  292MOL0     C38454  -0.301  -1.391   9.092 -0.4699  0.7931  0.2255
  292MOL0     C38455  -0.400  -1.502   9.054 -0.6895  0.6204  0.5761
  292MOL0    Cl38456  -0.438  -1.614   9.181  0.2777 -0.2711 -0.2646
  292MOL0     C38457   0.463  -0.762   9.047 -0.7438  1.0774 -0.1336
  292MOL0     C38458   0.580  -0.681   9.024  0.0827  1.0044 -0.1587
  292MOL0     O38459   0.900  -0.758   9.063 -0.4130 -1.1198  0.0414
  292MOL0     C38460   1.144  -0.606   9.063  1.0930 -0.0187  0.8129
  292MOL0     C38461   1.257  -0.528   9.030 -0.0376  0.6065 -1.2344
  292MOL0     N38462   1.563   0.242   9.283  0.6647  0.3127  1.1068
  292MOL0     N38463   1.588   0.363   9.285 -0.2240 -0.6138 -0.3181
  292MOL0     C38464   2.355   0.729   8.305  0.0272  0.1277  0.3145
  292MOL0     C38465   2.469   0.794   8.261  0.1634 -0.0529  0.0596
  292MOL0     C38466   2.866   1.026   8.295 -0.0088 -0.4019 -0.7598
  292MOL0     C38467   2.987   1.012   8.371  0.0589  1.1580  0.1168
  292MOL0     C38468   3.114   1.044   8.317 -0.3783 -0.3629  0.6794
  292MOL0     C38469   3.127   1.113   8.187  0.4171  0.1217  0.2088
  292MOL0     O38470   3.243   1.153   8.129  0.2983  0.1671  0.7382
  292MOL0     C38471   3.373   1.147   8.200 -0.0495  0.3637 -0.1368
  292MOL0     C38472   3.496   1.204   8.130  0.0802  0.2421  0.1335
  292MOL0     C38473   3.483   1.347   8.100 -1.1642 -0.1149 -0.6061
  292MOL0     C38474   3.612   1.390   8.038  0.8473 -0.6185  0.3067
  292MOL0     C38475   3.634   1.329   7.904  0.1175 -0.4043  0.2796
  292MOL0     C38476   3.659   1.283   7.792  0.1545 -0.4395  0.1249
  292MOL0     C38477   3.003   1.139   8.120 -0.0667 -0.7057 -0.0415
  292MOL0     C38478   2.873   1.093   8.169 -0.0263 -0.3717 -1.1712
  292MOL0     H38479   2.476   1.037   8.494  1.8221  0.5124 -2.3627
  292MOL0     H38480   2.273   0.914   8.571 -1.2235  1.3410 -0.1307
  292MOL0     H38481   2.058   0.846   8.553 -3.0779 -1.0785  0.1477
  292MOL0     H38482   2.129   0.708   8.635  2.0488  2.2792 -0.2790
  292MOL0     H38483   1.977   0.556   8.543  0.1799  0.5811  3.8754
  292MOL0     H38484   1.904   0.670   8.433  1.7206  0.0472 -0.5882
  292MOL0     H38485   1.834   0.807   8.628  0.7053  0.9350  2.0225
  292MOL0     H38486   1.924   0.718   8.738 -1.4021  3.4706  0.8702
  292MOL0     H38487   1.681   0.622   8.579  0.7920  2.3260 -0.6532
  292MOL0     H38488   1.784   0.511   8.670  3.9700  1.5846  0.9875
  292MOL0     H38489   1.567   0.598   8.792 -1.0500  1.8080  2.1642
  292MOL0     H38490   1.655   0.742   8.813  2.6463  0.3270 -1.4645
  292MOL0     H38491   1.856   0.608   8.907 -0.7153  2.2218 -2.9256
  292MOL0     H38492   1.766   0.455   8.886 -2.5913 -0.5194  1.9092
  292MOL0     H38493   1.665   0.689   9.031  3.8527  1.0960 -0.8271
  292MOL0     H38494   1.574   0.535   9.001  0.6325  0.3724 -3.1324
  292MOL0     H38495   1.691   0.608   9.233 -2.6519 -1.5171 -1.2621
  292MOL0     H38496   1.832   0.558   9.141  0.3643  3.0224  0.7585
  292MOL0     H38497   1.814   0.287   9.064 -2.2790 -2.4499 -1.1375
  292MOL0     H38498   1.691  -0.014   9.228 -0.9738 -4.8302 -2.4091
  292MOL0     H38499   1.741   0.043   9.073 -0.8307 -0.1232  0.0292
  292MOL0     H38500   1.485   0.068   9.016 -0.7047 -0.9989  0.0244
  292MOL0     H38501   1.457   0.025   9.187 -0.8634 -0.1856 -0.4338
  292MOL0     H38502   1.518  -0.143   8.956 -1.4612  1.7394 -0.3729
  292MOL0     H38503   1.581  -0.199   9.119 -0.6003  2.1413  2.2114
  292MOL0     H38504   1.290  -0.137   9.025 -1.3104 -4.4848 -2.1747
  292MOL0     H38505   1.342  -0.185   9.191  2.6379 -0.6371  0.8500
  292MOL0     H38506   1.110  -0.225   9.085 -0.8724 -0.3972  4.4589
  292MOL0     H38507   0.914  -0.351   9.086  0.6605  1.5436 -0.6178
  292MOL0     H38508   0.712  -0.688   9.327 -0.3868 -0.4190 -0.2678
  292MOL0     H38509   0.506  -0.830   9.366 -0.1864 -1.3268 -0.6351
  292MOL0     H38510   0.404  -1.048   9.082 -0.4254 -1.5733  0.6846
  292MOL0     H38511   0.275  -0.950   9.007 -0.1071 -0.4933  0.3966
  292MOL0     H38512   0.165  -1.053   9.246  1.4373  3.1541 -0.4088
  292MOL0     H38513   0.248  -1.191   9.161  0.1229 -0.0348  1.9142
  292MOL0     H38514   0.118  -1.138   8.958  1.1733  2.9691 -0.3939
  292MOL0     H38515   0.028  -1.023   9.050  3.3949  1.5013 -1.1460
  292MOL0     H38516   0.002  -1.323   9.109  1.8241  0.5648 -1.0932
  292MOL0     H38517  -0.073  -1.188   9.187 -3.3484  0.9619 -2.0084
  292MOL0     H38518  -0.095  -1.190   8.896  2.1657  0.3484  0.2970
  292MOL0     H38519  -0.225  -1.130   9.004  1.4282  1.0570  0.8784
  292MOL0     H38520  -0.153  -1.420   8.947  1.9685  1.7251 -0.3803
  292MOL0     H38521  -0.289  -1.322   8.878  2.2551  1.8995 -0.8811
  292MOL0     H38522  -0.230  -1.430   9.165 -2.5921  2.4948  3.4476
  292MOL0     H38523  -0.364  -1.315   9.141  1.6777  1.8943  1.4201
  292MOL0     H38524  -0.369  -1.571   8.975  0.4557  2.4653 -0.6614
  292MOL0     H38525  -0.498  -1.462   9.027 -1.1749 -2.6432 -3.5133
  292MOL0     H38526   0.396  -0.788   8.966 -0.3488  1.2161 -0.5059
  292MOL0     H38527   0.590  -0.648   8.921 -1.3724  2.3379  0.0918
  292MOL0     H38528   1.151  -0.713   9.082 -3.2206 -0.5120  0.7751
  292MOL0     H38529   1.349  -0.585   9.020 -1.0951 -1.0503 -1.9375
  292MOL0     H38530   2.311   0.648   8.248  0.6162  1.7279 -2.6475
  292MOL0     H38531   2.516   0.765   8.168 -0.5570 -0.1265 -0.2849
  292MOL0     H38532   2.983   0.965   8.469  0.6024 -1.4403 -1.0264
  292MOL0     H38533   3.198   1.009   8.376  2.6298 -2.6856 -4.2465
  292MOL0     H38534   3.399   1.045   8.229 -1.1063  0.0463 -0.2608
  292MOL0     H38535   3.368   1.196   8.298 -2.9016 -2.4328  1.2974
  292MOL0     H38536   3.563   1.180   8.213 -1.3350 -1.6062  0.8027
  292MOL0     H38537   3.521   1.145   8.041  0.6050 -0.5807  0.8159
  292MOL0     H38538   3.477   1.407   8.191 -2.5970  0.6329 -1.1718
  292MOL0     H38539   3.401   1.372   8.032 -0.3347  1.2812 -1.1285
  292MOL0     H38540   3.612   1.499   8.028 -1.7512 -0.7371 -3.2819
  292MOL0     H38541   3.697   1.360   8.099  1.6519  0.4796 -0.2364
  292MOL0     H38542   3.649   1.243   7.693 -1.0523 -1.3158  0.5811
  292MOL0     H38543   2.984   1.206   8.036  0.3899  1.2525  1.3413
  292MOL0     H38544   2.787   1.112   8.105  0.1623 -0.1101 -1.3497
  293MOL0     O38545  10.737   5.818   7.884 -0.3680  0.1003  0.0491
  293MOL0     C38546  10.719   5.818   8.005  0.1902 -0.3422  0.2738
  293MOL0     O38547  10.822   5.802   8.108 -0.7003  0.4370 -0.1280
  293MOL0     C38548  10.952   5.794   8.072 -0.9581 -0.4624  0.2548
  293MOL0     C38549  11.000   5.667   8.045 -0.2265  0.2911  0.6956
  293MOL0     C38550  11.138   5.662   8.021  0.0395 -0.5499  1.0826
  293MOL0     C38551  11.217   5.784   8.010  0.3611 -0.0042 -0.3095
  293MOL0     O38552  11.347   5.789   7.963  0.8402 -0.5181 -0.2851
  293MOL0     C38553  11.432   5.682   8.001 -0.8164 -0.1184 -0.0656
  293MOL0     C38554  11.580   5.734   7.980 -0.4067  0.4173 -1.3372
  293MOL0     C38555  11.615   5.770   7.832  1.2001 -0.4470 -0.8609
  293MOL0     C38556  11.751   5.837   7.830  0.8034 -0.2958  0.8835
  293MOL0     C38557  11.750   5.989   7.847  0.0140  0.1756 -0.3856
  293MOL0     C38558  11.886   6.028   7.887 -0.1934  0.3866  0.8078
  293MOL0     C38559  11.990   5.998   7.787  0.2221  0.3867 -0.2389
  293MOL0     C38560  12.134   6.052   7.805  0.2230 -0.1634 -0.3238
  293MOL0     N38561  12.197   6.030   7.937  0.3578 -0.0973 -0.4536
  293MOL0     C38562  12.265   5.915   7.956  0.2672 -0.2357  0.0110
  293MOL0     C38563  12.338   5.930   8.065  0.2447 -0.2152 -0.9913
  293MOL0     C38564  12.439   5.818   8.114 -0.3534  0.1092  0.2931
  293MOL0     C38565  12.582   5.862   8.139 -0.1943 -0.0597  0.3589
  293MOL0     C38566  12.676   5.915   8.020  0.4880 -0.0486 -0.8930
  293MOL0     C38567  12.824   5.923   8.068 -0.7828 -0.7414  0.1093
  293MOL0     O38568  12.881   5.792   8.097  0.1208  0.2525 -0.4554
  293MOL0     C38569  13.007   5.801   8.144  0.1472  0.7989  0.0648
  293MOL0     C38570  13.090   5.907   8.175  0.0951 -0.0410 -0.8375
  293MOL0     C38571  13.218   5.886   8.228 -0.3343  0.1356 -0.4871
  293MOL0     C38572  13.266   5.758   8.246 -0.1447  0.7294 -0.9884
  293MOL0     C38573  13.402   5.729   8.303 -0.1433  0.3974  0.2707
  293MOL0     O38574  13.426   5.592   8.337  0.3485  0.0962  0.3156
  293MOL0     C38575  13.529   5.554   8.414 -0.1192 -0.8964 -0.4960
  293MOL0     C38576  13.527   5.582   8.555 -0.5324 -0.1366  0.6366
  293MOL0     C38577  13.643   5.547   8.623 -0.4997  0.1915 -0.7911
  293MOL0     C38578  13.756   5.481   8.569  0.6560  0.2542 -0.2966
  293MOL0     O38579  13.871   5.441   8.642  0.5308 -0.0323 -0.4170
  293MOL0     C38580  13.851   5.322   8.721 -0.2274  0.3359  0.3215
  293MOL0     C38581  13.986   5.277   8.778 -0.3273  0.4784  0.4572
  293MOL0     C38582  14.090   5.225   8.670 -0.3933 -0.7483 -0.5567
  293MOL0     C38583  14.069   5.080   8.624  0.3973  0.5477  0.0478
  293MOL0     C38584  14.064   5.056   8.474 -0.4954  0.3623  0.3468
  293MOL0     C38585  14.046   4.907   8.443 -1.1380  0.3678  0.3574
  293MOL0     C38586  14.040   4.877   8.290 -0.2814  0.1570  0.9284
  293MOL0     C38587  14.047   4.728   8.256  0.0744  0.3526  0.4037
  293MOL0    Cl38588  13.926   4.625   8.335  0.0109 -0.2777 -0.7211
  293MOL0     C38589  13.749   5.454   8.439  0.4107  0.8800 -0.6428
  293MOL0     C38590  13.637   5.484   8.358 -0.1865 -0.3098  0.2743
  293MOL0     O38591  13.490   5.823   8.311  0.9512  0.4311 -0.5034
  293MOL0     C38592  13.183   5.651   8.204  0.3459 -0.0232  0.3929
  293MOL0     C38593  13.056   5.673   8.160 -0.0544  0.3562  0.4171
  293MOL0     N38594  12.292   6.039   8.132 -0.1655 -0.6615  0.0101
  293MOL0     N38595  12.213   6.099   8.050 -0.4259 -0.9567  1.0200
  293MOL0     C38596  11.162   5.912   8.042  0.7111  0.0063  0.4746
  293MOL0     C38597  11.029   5.916   8.070 -0.7779  0.0629 -0.1973
  293MOL0     C38598  10.573   5.844   8.042  0.4144 -0.1986 -0.1560
  293MOL0     C38599  10.476   5.814   7.948  0.4549 -0.9733 -0.0447
  293MOL0     C38600  10.339   5.808   7.975  0.9677 -0.5632  0.6506
  293MOL0     C38601  10.294   5.831   8.103 -0.0080 -0.2101 -0.6093
  293MOL0     O38602  10.162   5.824   8.129 -0.4093 -0.0499  0.3650
  293MOL0     C38603  10.133   5.734   8.240  1.0641  0.9310  0.6316
  293MOL0     C38604  10.095   5.596   8.195  0.2304 -0.5653  0.2708
  293MOL0     C38605   9.978   5.587   8.102 -0.3399  0.8345  0.0966
  293MOL0     C38606   9.996   5.446   8.042  0.5732 -0.5264  0.0996
  293MOL0     C38607   9.963   5.330   8.130  0.4957 -0.2860  0.2751
  293MOL0     C38608   9.948   5.237   8.202 -0.0642 -0.5673 -0.3191
  293MOL0     C38609  10.391   5.874   8.205 -0.4648  0.7235 -0.4171
  293MOL0     C38610  10.532   5.881   8.174 -0.3605 -0.1911  0.8687
  293MOL0     H38611  10.940   5.577   8.063  0.1024 -0.7729 -2.8360
  293MOL0     H38612  11.181   5.567   7.993 -2.9847 -1.2137 -2.0607
  293MOL0     H38613  11.396   5.588   7.958 -2.5382  0.7502 -0.6504
  293MOL0     H38614  11.414   5.668   8.108  1.7709  2.3755  0.8173
  293MOL0     H38615  11.650   5.659   8.019 -0.8302  0.8837  0.3677
  293MOL0     H38616  11.603   5.820   8.044  1.3237  0.4515 -1.9415
  293MOL0     H38617  11.541   5.833   7.783  1.7870 -0.5622 -1.9489
  293MOL0     H38618  11.620   5.676   7.776 -0.7309 -1.7001  0.9237
  293MOL0     H38619  11.817   5.791   7.905  3.1933 -0.6529 -1.2771
  293MOL0     H38620  11.798   5.805   7.736  1.8207 -1.6560  1.8203
  293MOL0     H38621  11.686   6.013   7.932  0.6904  0.3967  0.0659
  293MOL0     H38622  11.710   6.047   7.763  1.4575  0.3928 -0.9579
  293MOL0     H38623  11.917   5.989   7.984 -1.5436  0.5622  1.3171
  293MOL0     H38624  11.881   6.136   7.898 -3.4295  0.4674 -0.4763
  293MOL0     H38625  12.000   5.889   7.793  4.1911  0.4725 -1.8510
  293MOL0     H38626  11.964   6.015   7.682 -0.6650  1.6113  0.1570
  293MOL0     H38627  12.134   6.160   7.791  1.9759  0.3117  2.3893
  293MOL0     H38628  12.204   6.001   7.738  0.0475 -1.4682  0.4446
  293MOL0     H38629  12.287   5.828   7.895 -3.1202 -0.6765 -0.7814
  293MOL0     H38630  12.452   5.744   8.034  1.4863 -0.9697  1.5242
  293MOL0     H38631  12.404   5.761   8.200  1.0554 -0.6080  0.4170
  293MOL0     H38632  12.637   5.776   8.179 -1.2956 -0.0347  2.0253
  293MOL0     H38633  12.573   5.936   8.218 -1.6322  0.2203 -0.0357
  293MOL0     H38634  12.664   5.849   7.933  0.3781 -1.4883  0.1841
  293MOL0     H38635  12.642   6.010   7.978 -2.2204 -0.9403 -0.9283
  293MOL0     H38636  12.831   5.995   8.150 -0.3460  0.5534 -1.0227
  293MOL0     H38637  12.886   5.965   7.988 -0.4093 -3.1947 -0.9947
  293MOL0     H38638  13.051   6.008   8.168 -1.5187 -0.3454  2.2453
  293MOL0     H38639  13.279   5.969   8.262  1.9099 -0.3698 -2.9258
  293MOL0     H38640  13.456   5.639   8.615 -0.3595 -2.3265  3.0760
  293MOL0     H38641  13.649   5.545   8.732  1.0431  0.7644 -0.8300
  293MOL0     H38642  13.813   5.244   8.655  0.2788  0.7208 -0.4373
  293MOL0     H38643  13.787   5.348   8.806  0.2462 -0.8198  1.0633
  293MOL0     H38644  13.978   5.199   8.854 -2.2173  1.9803  1.9162
  293MOL0     H38645  14.020   5.357   8.845  0.5449  2.2738 -1.9834
  293MOL0     H38646  14.189   5.226   8.718 -0.8912  0.4418  0.4983
  293MOL0     H38647  14.088   5.298   8.588 -0.5787  2.2300  1.9086
  293MOL0     H38648  14.146   5.024   8.678 -0.1346  0.5496  0.8309
  293MOL0     H38649  13.977   5.033   8.660 -0.2833  1.9245  0.1387
  293MOL0     H38650  14.154   5.092   8.422  0.9046 -1.2950  1.5070
  293MOL0     H38651  13.978   5.105   8.427 -2.3185 -2.3298  0.6692
  293MOL0     H38652  13.950   4.887   8.492 -2.5921 -1.8814 -3.0158
  293MOL0     H38653  14.120   4.846   8.494 -2.3725 -0.2005  1.5285
  293MOL0     H38654  13.948   4.908   8.241 -0.0380 -0.5127  0.0110
  293MOL0     H38655  14.117   4.927   8.230 -1.5613  3.5410  1.8414
  293MOL0     H38656  14.147   4.689   8.273  0.5843  1.5936  0.3942
  293MOL0     H38657  14.025   4.731   8.149  0.6653  1.8280  0.2985
  293MOL0     H38658  13.839   5.409   8.399  0.4119  1.3895 -1.2264
  293MOL0     H38659  13.635   5.484   8.250  1.8015  2.0619  0.1533
  293MOL0     H38660  13.214   5.547   8.209  0.1847 -0.0132  2.2850
  293MOL0     H38661  12.996   5.591   8.124  2.3594 -1.5464  0.4415
  293MOL0     H38662  11.233   5.994   8.035  1.8150 -1.0429 -1.2959
  293MOL0     H38663  10.971   6.005   8.094 -3.8652 -1.4631 -1.4466
  293MOL0     H38664  10.503   5.786   7.847  0.9123  0.0225 -0.2054
  293MOL0     H38665  10.263   5.778   7.904 -1.8168  0.8799  2.7655
  293MOL0     H38666  10.045   5.774   8.292  1.3615  1.7944  0.4817
  293MOL0     H38667  10.215   5.713   8.309  0.4949 -0.9360  0.7880
  293MOL0     H38668  10.186   5.554   8.151  0.3068  1.4084 -1.6061
  293MOL0     H38669  10.075   5.547   8.290  1.0662  0.2627  0.8863
  293MOL0     H38670   9.978   5.665   8.025  0.2106 -0.8072 -1.6405
  293MOL0     H38671   9.880   5.594   8.151 -0.0453  1.2105  0.6348
  293MOL0     H38672   9.928   5.425   7.959 -0.3507 -0.1439  0.7375
  293MOL0     H38673  10.093   5.432   7.995  1.6881 -2.7777  2.7823
  293MOL0     H38674   9.928   5.147   8.257  1.2954  0.2061  1.5405
  293MOL0     H38675  10.361   5.902   8.305 -1.2498  1.1498 -0.7614
  293MOL0     H38676  10.613   5.911   8.240  1.5477 -1.3474 -0.8688
  294MOL0     O38677   9.109   8.420   8.463 -0.2084 -0.6592  0.0121
  294MOL0     C38678   9.114   8.299   8.442  0.5512 -0.1751  0.3823
  294MOL0     O38679   9.002   8.224   8.437 -0.4505  0.4509  0.2742
  294MOL0     C38680   8.875   8.263   8.465 -0.1222 -0.8421 -0.3570
  294MOL0     C38681   8.773   8.163   8.452 -0.7641 -0.0758  0.0234
  294MOL0     C38682   8.643   8.175   8.499  0.4219 -0.3330  0.2421
  294MOL0     C38683   8.601   8.295   8.552  0.4915  0.2113  0.6755
  294MOL0     O38684   8.473   8.329   8.612  0.2905  0.1728  0.4221
  294MOL0     C38685   8.374   8.224   8.593 -0.4271 -0.0454 -0.5812
  294MOL0     C38686   8.244   8.263   8.660 -0.2043  1.1688 -0.0323
  294MOL0     C38687   8.127   8.187   8.610 -0.0709 -0.0317  0.1949
  294MOL0     C38688   7.990   8.251   8.658 -0.6973  0.0667  0.1767
  294MOL0     C38689   7.860   8.185   8.620 -0.0557 -0.9367  0.8025
  294MOL0     C38690   7.818   8.071   8.708  0.9919  0.1458 -1.7023
  294MOL0     C38691   7.734   8.100   8.848  0.1216  0.3325  0.1436
  294MOL0     C38692   7.609   8.178   8.831 -0.6822  0.4333 -0.3495
  294MOL0     N38693   7.521   8.168   8.959 -0.6170  0.1941 -0.9584
  294MOL0     C38694   7.393   8.215   8.947  0.6532  0.6805 -0.1386
  294MOL0     C38695   7.343   8.204   9.076  0.4999  0.7266  0.7779
  294MOL0     C38696   7.216   8.270   9.128 -0.4976  0.4768  0.9922
  294MOL0     C38697   7.155   8.190   9.244  0.1788 -1.2166  0.1059
  294MOL0     C38698   7.062   8.075   9.193  0.1933 -0.4630 -0.5147
  294MOL0     C38699   7.026   7.982   9.306 -0.6757 -0.3348  0.1714
  294MOL0     O38700   6.921   8.030   9.385 -0.2071 -0.2071 -0.7293
  294MOL0     C38701   6.786   8.021   9.346  0.4811 -0.0578  0.3409
  294MOL0     C38702   6.740   7.956   9.234 -0.1916  1.1083  0.6116
  294MOL0     C38703   6.598   7.954   9.213  0.6358  0.3919 -0.1008
  294MOL0     C38704   6.502   8.015   9.298  0.5646  0.7446  0.5530
  294MOL0     C38705   6.361   8.002   9.277  0.1554 -0.4772 -1.0319
  294MOL0     O38706   6.276   8.046   9.367  0.2157  0.8353  0.8787
  294MOL0     C38707   6.142   8.041   9.350  0.2868 -0.7400 -0.0905
  294MOL0     C38708   6.077   8.060   9.232  0.3078  0.1732 -0.5387
  294MOL0     C38709   5.940   8.047   9.227 -0.1255  0.0561 -1.0230
  294MOL0     C38710   5.859   8.021   9.343 -0.0063 -0.5713  0.2465
  294MOL0     O38711   5.724   8.017   9.320  0.6070  0.0480 -0.6618
  294MOL0     C38712   5.634   7.982   9.431 -0.8154 -0.0718  0.0654
  294MOL0     C38713   5.494   8.018   9.381 -0.2812  0.1502 -0.0043
  294MOL0     C38714   5.443   7.955   9.249  1.4484  0.3357  0.0917
  294MOL0     C38715   5.292   7.972   9.215  0.2704 -0.5159  0.1801
  294MOL0     C38716   5.264   7.892   9.086 -0.3891 -0.5469 -1.1129
  294MOL0     C38717   5.120   7.901   9.058  0.6373 -0.5221 -0.6577
  294MOL0     C38718   5.084   7.803   8.946 -0.8006  0.7988 -1.0689
  294MOL0     C38719   4.951   7.808   8.901  0.5997 -0.5247  0.9969
  294MOL0    Cl38720   4.832   7.854   9.018 -0.1059  0.0754 -0.5402
  294MOL0     C38721   5.927   8.026   9.465  0.7785  0.6038  0.7401
  294MOL0     C38722   6.074   8.032   9.470  0.4212 -0.9956 -0.3199
  294MOL0     O38723   6.332   7.942   9.174  0.5128  0.0924 -0.1919
  294MOL0     C38724   6.565   8.082   9.407  0.7134  0.3874  0.8973
  294MOL0     C38725   6.698   8.094   9.433 -1.0319  0.4281  0.1419
  294MOL0     N38726   7.443   8.144   9.158 -0.3787 -0.4278  0.3209
  294MOL0     N38727   7.550   8.122   9.087  0.4063 -0.5817  0.6569
  294MOL0     C38728   8.694   8.396   8.561 -0.6305  0.5959  0.7776
  294MOL0     C38729   8.832   8.384   8.528  0.5183  0.1633  0.0904
  294MOL0     C38730   9.238   8.216   8.419  0.0210  0.2653 -1.2733
  294MOL0     C38731   9.239   8.081   8.423 -0.8168  0.6345 -0.0993
  294MOL0     C38732   9.358   8.010   8.417  0.4148 -0.2965  0.3032
  294MOL0     C38733   9.481   8.064   8.390  0.1949 -1.6689 -0.2880
  294MOL0     O38734   9.588   7.977   8.379  0.4027 -0.0272  0.1068
  294MOL0     C38735   9.721   8.024   8.349 -0.1027  0.3189 -0.4725
  294MOL0     C38736   9.836   7.930   8.381 -0.3699 -0.5414  0.8874
  294MOL0     C38737   9.807   7.879   8.522  0.6419 -0.0034  0.8065
  294MOL0     C38738   9.913   7.775   8.559 -0.3998 -0.0305 -0.3139
  294MOL0     C38739  10.048   7.833   8.557 -0.4165  0.6570  0.1205
  294MOL0     C38740  10.165   7.864   8.547  0.4327  0.1084  1.5133
  294MOL0     C38741   9.484   8.207   8.388 -0.2597  0.2707  0.7640
  294MOL0     C38742   9.367   8.285   8.403 -0.2916 -0.1856 -0.1128
  294MOL0     H38743   8.802   8.065   8.416  2.5055  0.0594  1.9201
  294MOL0     H38744   8.567   8.098   8.490  0.6012 -0.6064  0.9864
  294MOL0     H38745   8.423   8.146   8.652  0.0872 -0.5435 -1.6498
  294MOL0     H38746   8.358   8.194   8.489  1.2641 -2.5694 -0.2021
  294MOL0     H38747   8.225   8.370   8.643 -0.6787  1.2854  1.1575
  294MOL0     H38748   8.268   8.256   8.766  3.5422  0.4463 -0.7649
  294MOL0     H38749   8.123   8.085   8.648  0.8642  0.3967  1.4973
  294MOL0     H38750   8.122   8.180   8.501 -2.2962 -0.8917  0.3100
  294MOL0     H38751   7.998   8.254   8.767 -0.1867  0.8311  0.1189
  294MOL0     H38752   7.974   8.354   8.625 -0.0587 -0.2815 -1.2772
  294MOL0     H38753   7.877   8.152   8.517 -0.7501  1.8049 -0.2708
  294MOL0     H38754   7.779   8.258   8.614  3.2179  2.9030 -1.2271
  294MOL0     H38755   7.909   8.014   8.731  0.5887  0.1766  0.0859
  294MOL0     H38756   7.753   8.008   8.645 -1.8621  0.6134  0.5440
  294MOL0     H38757   7.707   8.000   8.885  1.1506  0.3140  0.8659
  294MOL0     H38758   7.808   8.133   8.921  1.3151  0.5466 -1.1227
  294MOL0     H38759   7.556   8.142   8.742 -1.9023 -1.2223  0.9742
  294MOL0     H38760   7.635   8.283   8.813 -1.6412  0.5672 -1.0740
  294MOL0     H38761   7.352   8.265   8.860  1.2617  1.7885  0.1866
  294MOL0     H38762   7.154   8.285   9.039  1.5251 -0.3645 -0.6460
  294MOL0     H38763   7.241   8.370   9.164  1.3940  1.5860 -2.8258
  294MOL0     H38764   7.098   8.262   9.303  0.0317 -1.0624 -0.2239
  294MOL0     H38765   7.236   8.152   9.307  1.0144 -1.7282 -1.2132
  294MOL0     H38766   6.971   8.109   9.142 -1.2698  2.5867  3.6245
  294MOL0     H38767   7.122   8.016   9.123  0.2209  0.2983 -1.1431
  294MOL0     H38768   7.115   7.972   9.370  0.0156  0.3212 -0.6707
  294MOL0     H38769   7.001   7.881   9.272  0.7067  0.1026 -2.3931
  294MOL0     H38770   6.812   7.905   9.171  0.8746  1.7527  1.2859
  294MOL0     H38771   6.562   7.891   9.132 -1.0841 -0.1942  1.0459
  294MOL0     H38772   6.129   8.101   9.146 -0.8356  1.0345 -0.8488
  294MOL0     H38773   5.885   8.055   9.134  1.3873  1.4171 -1.8521
  294MOL0     H38774   5.655   8.050   9.513  1.0525 -1.0210  0.4448
  294MOL0     H38775   5.636   7.877   9.462 -0.4977  0.3922  1.6853
  294MOL0     H38776   5.491   8.125   9.355  0.0047  0.3012  0.5693
  294MOL0     H38777   5.420   8.008   9.462 -1.2786 -2.4104 -1.1298
  294MOL0     H38778   5.474   7.850   9.241 -0.3173 -0.0444 -3.6432
  294MOL0     H38779   5.502   8.005   9.172  0.1642  0.0747 -1.0982
  294MOL0     H38780   5.227   7.937   9.295 -0.3422 -2.1286 -0.9677
  294MOL0     H38781   5.274   8.077   9.190  2.4543 -0.5846 -2.1511
  294MOL0     H38782   5.297   7.791   9.111  0.5702  0.1379  0.5601
  294MOL0     H38783   5.330   7.922   9.004  2.1442 -0.2835  0.8905
  294MOL0     H38784   5.103   8.006   9.029 -3.2204 -1.2773 -1.7462
  294MOL0     H38785   5.063   7.883   9.150  1.6953  1.8506  0.5545
  294MOL0     H38786   5.155   7.820   8.864  0.4289  0.4735 -0.1011
  294MOL0     H38787   5.100   7.704   8.991  3.6437  0.3866 -3.0105
  294MOL0     H38788   4.916   7.713   8.858  2.0700 -0.6529 -0.0073
  294MOL0     H38789   4.940   7.877   8.817 -1.5042 -0.1677  1.5128
  294MOL0     H38790   5.868   8.018   9.555 -0.5497  2.4478  0.0896
  294MOL0     H38791   6.133   8.026   9.561  1.5929 -2.5127 -1.1087
  294MOL0     H38792   6.498   8.124   9.482 -0.9601 -1.2454  0.3923
  294MOL0     H38793   6.736   8.154   9.516 -0.0910 -0.6093  0.4756
  294MOL0     H38794   8.660   8.489   8.606  4.3914  2.5551  1.2595
  294MOL0     H38795   8.887   8.474   8.553 -2.6581  2.5480 -0.8030
  294MOL0     H38796   9.149   8.024   8.440 -0.8621  0.6779 -0.1941
  294MOL0     H38797   9.356   7.903   8.431 -1.7812 -0.3342  0.0498
  294MOL0     H38798   9.721   8.120   8.402 -0.8837 -0.4198  0.9304
  294MOL0     H38799   9.723   8.046   8.242 -0.6115  2.1170 -0.1501
  294MOL0     H38800   9.848   7.855   8.302 -1.0603 -1.3768  1.5564
  294MOL0     H38801   9.928   7.989   8.387 -0.7547  1.1157 -4.2173
  294MOL0     H38802   9.705   7.840   8.515  0.0809  1.6754 -1.2700
  294MOL0     H38803   9.813   7.968   8.585 -0.5538  0.6469  0.0213
  294MOL0     H38804   9.887   7.735   8.658  0.9454 -2.9065 -1.0153
  294MOL0     H38805   9.905   7.691   8.490 -2.0266  0.9076 -1.3307
  294MOL0     H38806  10.270   7.885   8.545  0.3607  0.5585 -1.2455
  294MOL0     H38807   9.576   8.265   8.385 -0.9296  1.3459 -0.5425
  294MOL0     H38808   9.372   8.393   8.405 -3.1723  0.0167  1.7317
  295MOL0     O38809   0.473   1.339   6.194  0.1532  0.2271  0.6928
  295MOL0     C38810   0.473   1.354   6.074 -0.2167 -0.1406 -0.3276
  295MOL0     O38811   0.365   1.332   5.987 -0.1178  0.3190 -0.0412
  295MOL0     C38812   0.244   1.287   6.036  0.2508 -0.5083 -0.1652
  295MOL0     C38813   0.175   1.171   5.973  0.3161 -0.3386  0.2341
  295MOL0     C38814   0.058   1.118   6.031 -0.3354  0.2356 -0.9715
  295MOL0     C38815   0.003   1.169   6.143  0.2631 -0.5831 -0.6416
  295MOL0     O38816  -0.121   1.112   6.177 -0.5215  0.3330 -0.5990
  295MOL0     C38817  -0.181   1.140   6.312  1.0283 -0.1667 -1.2243
  295MOL0     C38818  -0.252   1.280   6.322 -0.4568 -0.2380 -0.8423
  295MOL0     C38819  -0.401   1.266   6.292 -0.0673 -0.4400 -0.1770
  295MOL0     C38820  -0.471   1.398   6.329 -0.0730  0.2044  0.8125
  295MOL0     C38821  -0.625   1.392   6.303  0.0554  0.0571 -0.0247
  295MOL0     C38822  -0.677   1.536   6.304 -0.8575 -0.7563  0.1356
  295MOL0     C38823  -0.819   1.562   6.262  0.3177  0.9472  0.5191
  295MOL0     C38824  -0.840   1.706   6.255 -0.0380 -1.0331 -0.0494
  295MOL0     N38825  -0.946   1.762   6.165 -0.3543  0.1246 -0.4257
  295MOL0     C38826  -1.086   1.780   6.189 -0.5811 -0.0608  0.4832
  295MOL0     C38827  -1.138   1.819   6.070  0.0200 -0.4239 -0.2126
  295MOL0     C38828  -1.280   1.847   6.031  1.3794  0.0415  0.0499
  295MOL0     C38829  -1.385   1.766   6.110  0.1042  0.5812 -0.5464
  295MOL0     C38830  -1.428   1.830   6.245  0.0845 -0.0616  0.1798
  295MOL0     C38831  -1.503   1.964   6.248 -1.1449  0.4649  0.4578
  295MOL0     O38832  -1.541   1.996   6.383  0.6248 -0.9038 -0.2161
  295MOL0     C38833  -1.654   1.944   6.453  0.4467 -0.5808  0.4733
  295MOL0     C38834  -1.738   1.848   6.396 -1.4625  0.4511  0.3567
  295MOL0     C38835  -1.846   1.804   6.473  0.3206  0.1720  0.2630
  295MOL0     C38836  -1.867   1.843   6.605  0.4248  0.0037 -0.0683
  295MOL0     C38837  -1.982   1.782   6.688 -0.3339  0.0724  0.3960
  295MOL0     O38838  -1.963   1.792   6.826  0.5321  0.1242 -0.0107
  295MOL0     C38839  -2.083   1.788   6.907 -1.3362  0.5702 -0.8711
  295MOL0     C38840  -2.156   1.666   6.920 -0.7949  0.5025  0.2146
  295MOL0     C38841  -2.255   1.663   7.006  1.2789 -0.3275 -0.7127
  295MOL0     C38842  -2.274   1.763   7.095 -0.6787  0.7024 -0.1177
  295MOL0     O38843  -2.356   1.738   7.199 -0.2795  0.1695  0.3845
  295MOL0     C38844  -2.387   1.834   7.296  0.4073  0.0874  0.5243
  295MOL0     C38845  -2.476   1.945   7.239 -0.1858  0.7871 -0.0783
  295MOL0     C38846  -2.560   2.020   7.342  1.1839  0.7478  0.6808
  295MOL0     C38847  -2.674   2.099   7.278  0.3785  0.3086  0.0963
  295MOL0     C38848  -2.751   2.174   7.386 -0.2797 -0.3007  0.0592
  295MOL0     C38849  -2.898   2.121   7.408 -0.2226  0.1454 -0.9455
  295MOL0     C38850  -2.954   2.175   7.529  0.3650  0.0619  0.5901
  295MOL0     C38851  -3.094   2.119   7.554  0.0081 -0.0196 -0.6268
  295MOL0    Cl38852  -3.214   2.160   7.428 -0.1065  0.0972  0.3988
  295MOL0     C38853  -2.192   1.878   7.089  0.3232 -0.3982 -0.2678
  295MOL0     C38854  -2.099   1.893   6.987 -0.8945  0.2983 -0.8491
  295MOL0     O38855  -2.075   1.728   6.623 -0.0641  0.1069 -0.6309
  295MOL0     C38856  -1.780   1.933   6.671  0.4316  0.4086 -0.3602
  295MOL0     C38857  -1.669   1.979   6.590  0.7719 -0.4455 -0.5315
  295MOL0     N38858  -1.024   1.832   5.985  0.5141 -0.2566  0.2693
  295MOL0     N38859  -0.915   1.786   6.037  0.4592 -0.7629  0.1809
  295MOL0     C38860   0.067   1.282   6.200  0.0921  0.4940 -1.1948
  295MOL0     C38861   0.184   1.347   6.156 -0.2413  0.4979  0.4215
  295MOL0     C38862   0.592   1.393   6.005  0.4971 -0.3168 -0.3592
  295MOL0     C38863   0.707   1.419   6.080 -0.2454 -0.3160  0.0598
  295MOL0     C38864   0.823   1.441   6.014 -0.5816  0.6457 -0.1278
  295MOL0     C38865   0.841   1.453   5.875  0.2143 -0.1814  0.4930
  295MOL0     O38866   0.968   1.472   5.833 -0.3391 -0.3829  0.4877
  295MOL0     C38867   0.991   1.488   5.695 -0.0712 -0.9842 -1.0160
  295MOL0     C38868   1.134   1.473   5.644  0.3313  0.2326  0.1387
  295MOL0     C38869   1.239   1.571   5.710 -0.5119  0.0463  0.4028
  295MOL0     C38870   1.205   1.722   5.685  0.7754 -1.2186 -0.9756
  295MOL0     C38871   1.166   1.759   5.541  0.7014  0.0628 -0.0015
  295MOL0     C38872   1.145   1.791   5.426  0.4033  0.0637  0.4900
  295MOL0     C38873   0.718   1.442   5.796 -0.7084 -0.2144  0.3858
  295MOL0     C38874   0.596   1.406   5.866 -0.5988 -0.0086  0.7329
  295MOL0     H38875   0.213   1.133   5.879 -0.9355 -0.9476 -0.0432
  295MOL0     H38876  -0.000   1.044   5.977  2.0413 -1.2073 -1.7403
  295MOL0     H38877  -0.108   1.134   6.393  0.3013  2.2915 -0.2919
  295MOL0     H38878  -0.265   1.072   6.330  0.9754  0.1586 -0.1711
  295MOL0     H38879  -0.215   1.343   6.241  0.0228 -0.9914 -1.2196
  295MOL0     H38880  -0.227   1.322   6.419  1.1841 -0.4652 -1.1364
  295MOL0     H38881  -0.449   1.193   6.358  1.3049 -0.3770  0.9576
  295MOL0     H38882  -0.415   1.238   6.187 -0.0451 -1.1573  0.0039
  295MOL0     H38883  -0.441   1.430   6.430 -1.0057 -0.0136  1.1734
  295MOL0     H38884  -0.434   1.477   6.263 -0.0803  0.2604  0.8753
  295MOL0     H38885  -0.671   1.325   6.376  1.7739 -0.1111  0.9760
  295MOL0     H38886  -0.645   1.349   6.205  2.2925 -0.5376 -0.2849
  295MOL0     H38887  -0.621   1.594   6.230 -1.9579 -1.4216 -1.2509
  295MOL0     H38888  -0.655   1.582   6.401 -0.5755  3.7344 -1.8019
  295MOL0     H38889  -0.837   1.535   6.158 -1.2067  2.6882  0.2891
  295MOL0     H38890  -0.876   1.507   6.339  1.6245  0.6955  1.3412
  295MOL0     H38891  -0.746   1.761   6.243  0.1194 -0.8507  1.7189
  295MOL0     H38892  -0.863   1.738   6.358  2.9119 -1.3343  0.7912
  295MOL0     H38893  -1.140   1.754   6.279 -0.6838  1.9050  1.0253
  295MOL0     H38894  -1.294   1.820   5.926 -0.7993 -1.1195  0.5653
  295MOL0     H38895  -1.306   1.953   6.031 -2.3367 -0.7009  0.1700
  295MOL0     H38896  -1.339   1.667   6.122 -0.9470  0.0101 -1.0851
  295MOL0     H38897  -1.468   1.741   6.042  2.9070 -1.2863 -3.5739
  295MOL0     H38898  -1.500   1.772   6.303  0.8896  0.0898  1.3722
  295MOL0     H38899  -1.339   1.830   6.308 -0.4502  0.1911  0.9545
  295MOL0     H38900  -1.585   1.967   6.176 -0.7191 -2.4509 -0.2857
  295MOL0     H38901  -1.435   2.044   6.218 -1.3928 -0.0015 -1.4489
  295MOL0     H38902  -1.715   1.803   6.300 -0.1693  1.9993 -0.0913
  295MOL0     H38903  -1.893   1.712   6.440  0.5916 -0.0812  0.5743
  295MOL0     H38904  -2.137   1.583   6.852 -1.1115 -0.7301  1.5668
  295MOL0     H38905  -2.315   1.573   7.016  1.8255 -0.6304 -0.0286
  295MOL0     H38906  -2.297   1.883   7.334  0.7357 -1.1996  1.4363
  295MOL0     H38907  -2.447   1.790   7.375 -2.5161  3.0611  0.1893
  295MOL0     H38908  -2.542   1.902   7.163  0.4109 -1.6014  0.6898
  295MOL0     H38909  -2.413   2.017   7.186  0.0951  1.0650  0.6228
  295MOL0     H38910  -2.494   2.087   7.399 -1.5535  2.8351  1.6135
  295MOL0     H38911  -2.605   1.953   7.415 -2.3593  0.0171 -1.9269
  295MOL0     H38912  -2.630   2.180   7.219 -2.0075  0.3978 -1.7021
  295MOL0     H38913  -2.745   2.038   7.222 -1.2732  1.1918  1.1423
  295MOL0     H38914  -2.768   2.274   7.344 -3.8095  0.0251  1.9071
  295MOL0     H38915  -2.691   2.175   7.477  1.5440  1.9679 -1.0381
  295MOL0     H38916  -2.904   2.013   7.425 -1.9269  0.3995  0.3397
  295MOL0     H38917  -2.970   2.146   7.330 -0.0307  0.3484 -1.0600
  295MOL0     H38918  -2.888   2.142   7.610  2.3069 -0.0373 -0.9444
  295MOL0     H38919  -2.960   2.284   7.539 -0.4631  0.1227 -0.3488
  295MOL0     H38920  -3.130   2.170   7.644 -0.1711  1.1888 -1.3559
  295MOL0     H38921  -3.091   2.010   7.567 -1.6703 -0.0940 -0.6145
  295MOL0     H38922  -2.204   1.960   7.159  0.2676 -0.4818 -0.1798
  295MOL0     H38923  -2.042   1.984   6.971 -3.0025  1.9472  0.4883
  295MOL0     H38924  -1.795   1.964   6.773  1.1149 -1.5574  0.3938
  295MOL0     H38925  -1.603   2.054   6.633  0.7910 -0.1140 -1.1191
  295MOL0     H38926   0.012   1.312   6.289  2.8669 -2.7704  1.8766
  295MOL0     H38927   0.214   1.440   6.203  0.3693  2.0824 -2.8088
  295MOL0     H38928   0.708   1.413   6.189 -3.8182  1.7690  0.3524
  295MOL0     H38929   0.912   1.428   6.076  0.7471  0.3484 -2.0029
  295MOL0     H38930   0.971   1.595   5.685  0.5151 -0.3276  3.0045
  295MOL0     H38931   0.922   1.425   5.639 -0.4036 -1.3190 -0.2542
  295MOL0     H38932   1.165   1.370   5.664  0.8971  0.8996  3.3111
  295MOL0     H38933   1.119   1.485   5.536 -2.9601 -0.0923  0.4668
  295MOL0     H38934   1.334   1.552   5.659 -2.0879 -1.6465 -2.2042
  295MOL0     H38935   1.242   1.546   5.816 -0.2965  0.2378  0.4425
  295MOL0     H38936   1.127   1.762   5.749  2.3961  4.1088 -1.8738
  295MOL0     H38937   1.295   1.780   5.706 -1.0726  0.9665  1.5082
  295MOL0     H38938   1.123   1.806   5.323 -2.6169  2.1090  1.2722
  295MOL0     H38939   0.725   1.455   5.688 -0.0501 -1.0530  0.3229
  295MOL0     H38940   0.507   1.389   5.807  1.4698 -3.2056 -1.8135
  296MOL0     O38941   8.047   6.103   7.988  0.0586 -0.2706 -0.0978
  296MOL0     C38942   8.078   6.005   7.925 -0.3975  0.3960 -0.6215
  296MOL0     O38943   8.034   5.873   7.949 -0.5707  0.5890 -0.1691
  296MOL0     C38944   7.954   5.844   8.052 -0.0725  0.2082  0.2262
  296MOL0     C38945   7.838   5.770   8.018  0.1993  0.4708 -0.2059
  296MOL0     C38946   7.741   5.747   8.117  0.4087  0.8766  0.0502
  296MOL0     C38947   7.759   5.781   8.244  0.5440 -0.2784 -0.0082
  296MOL0     O38948   7.678   5.748   8.348  0.0513  0.1365 -0.2513
  296MOL0     C38949   7.543   5.709   8.311 -1.3263 -0.6881 -0.4579
  296MOL0     C38950   7.458   5.823   8.240 -0.1039 -1.5867  0.0006
  296MOL0     C38951   7.336   5.765   8.166 -1.1515 -0.0221  0.3160
  296MOL0     C38952   7.253   5.881   8.102  1.4470 -0.2594 -1.0452
  296MOL0     C38953   7.174   5.973   8.204  0.5113 -0.6339  0.1356
  296MOL0     C38954   7.089   6.086   8.132  0.6627  0.4803  0.0162
  296MOL0     C38955   6.982   6.164   8.214 -0.3878  0.0195  0.1141
  296MOL0     C38956   7.046   6.284   8.271  0.0538  0.3485 -0.1420
  296MOL0     N38957   6.951   6.372   8.344 -0.2157 -0.0189 -0.7100
  296MOL0     C38958   6.888   6.324   8.453  0.1589 -0.0495  0.4088
  296MOL0     C38959   6.803   6.431   8.483 -0.1299 -0.2681  0.0754
  296MOL0     C38960   6.692   6.444   8.595 -0.1274 -0.7691  1.4573
  296MOL0     C38961   6.748   6.379   8.717  0.2611 -0.0903 -0.6913
  296MOL0     C38962   6.635   6.327   8.815 -0.9387  0.3926  0.1087
  296MOL0     C38963   6.529   6.427   8.853  0.9667 -0.3322  0.0940
  296MOL0     O38964   6.440   6.447   8.741 -0.5246 -0.3371 -1.1078
  296MOL0     C38965   6.343   6.539   8.764  0.0217  0.4173  0.4475
  296MOL0     C38966   6.321   6.613   8.886  0.5112  0.4507  0.0735
  296MOL0     C38967   6.209   6.699   8.894  0.2053 -0.4095 -0.8477
  296MOL0     C38968   6.137   6.732   8.772 -0.3781  0.4525 -0.6967
  296MOL0     C38969   6.017   6.828   8.772 -0.4577  0.4862  0.2764
  296MOL0     O38970   5.967   6.860   8.893 -0.0948  0.0076  0.3940
  296MOL0     C38971   5.855   6.938   8.919  0.2793 -0.4236 -0.3281
  296MOL0     C38972   5.780   6.906   9.035 -0.3167 -0.5122  0.4409
  296MOL0     C38973   5.686   7.001   9.089 -0.5740 -0.0523  0.4276
  296MOL0     C38974   5.667   7.119   9.028  0.0612 -0.0081  0.2772
  296MOL0     O38975   5.568   7.207   9.069  0.2630 -0.0048 -0.1619
  296MOL0     C38976   5.476   7.243   8.967 -0.8133  0.4335 -0.3883
  296MOL0     C38977   5.339   7.270   9.030  0.0566  0.4107  0.8876
  296MOL0     C38978   5.292   7.162   9.136 -0.4181  0.5625  0.1915
  296MOL0     C38979   5.161   7.218   9.190  0.0057 -0.1184 -0.4221
  296MOL0     C38980   5.115   7.143   9.313 -0.0554 -0.0529  0.7118
  296MOL0     C38981   4.963   7.170   9.337 -0.4095 -0.1007 -0.4683
  296MOL0     C38982   4.918   7.075   9.459 -0.5541  0.0690 -0.1010
  296MOL0     C38983   4.887   7.155   9.586 -0.0568 -0.2718  0.0423
  296MOL0    Cl38984   4.756   7.272   9.572 -0.0364  0.2115 -0.1684
  296MOL0     C38985   5.740   7.143   8.914  0.2455 -0.4163 -0.6391
  296MOL0     C38986   5.837   7.061   8.855  0.4270 -0.8167 -0.2093
  296MOL0     O38987   5.977   6.863   8.664  0.3567 -0.2047  0.0681
  296MOL0     C38988   6.167   6.657   8.653  0.7201 -0.2882  0.0980
  296MOL0     C38989   6.259   6.559   8.658 -0.6712  0.2107  0.2596
  296MOL0     N38990   6.836   6.543   8.396 -0.3280  0.4952 -0.1897
  296MOL0     N38991   6.921   6.498   8.316  0.1134 -0.4301  0.2896
  296MOL0     C38992   7.864   5.862   8.274  0.3956  0.3674 -0.1526
  296MOL0     C38993   7.967   5.896   8.185  0.5535 -0.3624  0.7282
  296MOL0     C38994   8.188   6.017   7.833  0.8356 -0.6212  0.7526
  296MOL0     C38995   8.269   6.129   7.835 -0.0789 -0.3702  0.1827
  296MOL0     C38996   8.381   6.138   7.746  0.1950  0.5385 -1.0240
  296MOL0     C38997   8.411   6.037   7.665  0.0203  0.2022  0.0381
  296MOL0     O38998   8.522   6.041   7.577 -0.0092  0.3198 -0.1191
  296MOL0     C38999   8.644   6.107   7.596  0.0410  0.1171 -0.5531
  296MOL0     C39000   8.739   6.031   7.507  0.7036  0.7058 -0.3517
  296MOL0     C39001   8.880   6.075   7.529  1.0111  0.3134  0.6298
  296MOL0     C39002   8.974   5.974   7.446  0.7006 -0.9725 -0.7785
  296MOL0     C39003   9.115   5.999   7.475  0.1058 -0.0261 -0.2184
  296MOL0     C39004   9.238   6.013   7.473 -0.3257 -0.1002 -0.1315
  296MOL0     C39005   8.322   5.929   7.652 -0.4174 -0.0001 -0.5980
  296MOL0     C39006   8.214   5.917   7.739 -0.5140  0.3490  0.5189
  296MOL0     H39007   7.835   5.742   7.913  4.2535  0.7310 -0.5316
  296MOL0     H39008   7.655   5.684   8.097  2.4283 -1.0845 -3.5981
  296MOL0     H39009   7.491   5.688   8.405  3.1103 -1.3433  2.1171
  296MOL0     H39010   7.557   5.610   8.268  1.7074 -0.9321  0.8688
  296MOL0     H39011   7.513   5.880   8.164 -1.8629  2.0059  1.1944
  296MOL0     H39012   7.423   5.887   8.322  1.5979  1.0247 -1.1579
  296MOL0     H39013   7.271   5.705   8.230 -1.2230 -0.2035  0.0731
  296MOL0     H39014   7.370   5.694   8.090 -3.0339  0.8032 -1.3744
  296MOL0     H39015   7.321   5.944   8.044  2.7807 -1.0887 -0.4064
  296MOL0     H39016   7.181   5.831   8.036 -1.1820  2.7663 -0.7175
  296MOL0     H39017   7.248   6.029   8.262 -1.1698  2.9796 -0.9573
  296MOL0     H39018   7.103   5.905   8.252 -3.7410  0.0815 -4.3501
  296MOL0     H39019   7.041   6.022   8.058  0.2437 -0.9200  1.4558
  296MOL0     H39020   7.156   6.158   8.083  0.9658 -1.6689 -3.0219
  296MOL0     H39021   6.894   6.195   8.158 -1.7937 -1.4550  1.4196
  296MOL0     H39022   6.951   6.109   8.304 -0.3251  1.6234  1.1668
  296MOL0     H39023   7.098   6.342   8.195  0.4569 -3.4004 -3.0314
  296MOL0     H39024   7.129   6.248   8.333  0.6140  1.0976 -0.4351
  296MOL0     H39025   6.900   6.226   8.497  4.2837 -0.1180 -0.4945
  296MOL0     H39026   6.609   6.379   8.566  0.2019 -0.2567 -0.8233
  296MOL0     H39027   6.666   6.549   8.607  1.6867 -0.3330  2.0404
  296MOL0     H39028   6.821   6.444   8.767  0.1785 -0.0981 -0.5578
  296MOL0     H39029   6.803   6.287   8.695  0.8628  0.0808  0.0308
  296MOL0     H39030   6.587   6.234   8.782 -0.3451  0.6119 -1.4557
  296MOL0     H39031   6.684   6.313   8.913 -0.7563  0.6230  0.0532
  296MOL0     H39032   6.580   6.519   8.882 -2.5417  2.2496 -1.3139
  296MOL0     H39033   6.476   6.385   8.940  1.1922 -1.4183 -0.2746
  296MOL0     H39034   6.379   6.593   8.975 -1.3130 -0.2756  1.1607
  296MOL0     H39035   6.198   6.751   8.989  0.7531  0.6548 -1.3482
  296MOL0     H39036   5.796   6.816   9.094 -1.2917 -0.3932  0.8985
  296MOL0     H39037   5.621   6.967   9.169 -4.1309 -0.0241 -2.2043
  296MOL0     H39038   5.470   7.162   8.893  1.4514  2.4434 -2.9845
  296MOL0     H39039   5.504   7.332   8.910  1.3060 -0.6497 -1.1732
  296MOL0     H39040   5.265   7.277   8.951  0.8248  3.0439  0.2958
  296MOL0     H39041   5.341   7.370   9.075 -1.2450  2.0740 -2.4675
  296MOL0     H39042   5.356   7.159   9.224 -2.1759  0.1463  1.4997
  296MOL0     H39043   5.290   7.064   9.087  2.1138 -0.3086  1.6316
  296MOL0     H39044   5.179   7.321   9.222  1.3995 -0.0108 -1.4911
  296MOL0     H39045   5.078   7.207   9.119 -0.7238  1.4215  0.1293
  296MOL0     H39046   5.187   7.182   9.385  1.8100 -0.6265 -0.7756
  296MOL0     H39047   5.128   7.036   9.299  1.4432  0.2099 -0.0272
  296MOL0     H39048   4.900   7.145   9.250 -1.4707  0.7192  0.0299
  296MOL0     H39049   4.952   7.277   9.358  1.9124  0.5908 -2.3427
  296MOL0     H39050   4.828   7.022   9.427 -0.8655  0.6156 -0.1445
  296MOL0     H39051   4.990   6.996   9.481  0.4728  0.7042 -1.0376
  296MOL0     H39052   4.984   7.194   9.618 -0.0018 -0.1393 -0.2808
  296MOL0     H39053   4.858   7.077   9.657  0.4479  1.2382  1.9696
  296MOL0     H39054   5.730   7.237   8.861 -3.4151 -1.3921 -1.9882
  296MOL0     H39055   5.902   7.089   8.772  1.0927  2.6102  1.2661
  296MOL0     H39056   6.117   6.678   8.559  0.9899 -2.5943 -0.6006
  296MOL0     H39057   6.271   6.498   8.569 -4.1723 -1.1342  0.5770
  296MOL0     H39058   7.877   5.908   8.372  0.1874  0.0712  0.0149
  296MOL0     H39059   8.053   5.953   8.217 -0.2983 -0.5371  3.5954
  296MOL0     H39060   8.254   6.206   7.911  0.2572  0.3327 -0.4485
  296MOL0     H39061   8.456   6.216   7.756  4.3472 -3.3366  3.0814
  296MOL0     H39062   8.681   6.105   7.699 -1.3724 -2.4640 -0.0104
  296MOL0     H39063   8.641   6.213   7.571  1.4383  0.2212 -0.3348
  296MOL0     H39064   8.739   5.928   7.544 -0.8340  1.6069  2.4990
  296MOL0     H39065   8.701   6.055   7.407  0.2721  1.1328 -0.0914
  296MOL0     H39066   8.891   6.072   7.638 -0.2007 -1.6537  0.7571
  296MOL0     H39067   8.887   6.174   7.483 -2.6545  0.8122  0.8058
  296MOL0     H39068   8.949   5.871   7.470 -0.1501 -1.1718 -2.3642
  296MOL0     H39069   8.955   5.994   7.340 -1.9528  0.5873 -0.0993
  296MOL0     H39070   9.344   6.016   7.490  0.0774 -4.4593 -0.6847
  296MOL0     H39071   8.364   5.839   7.608  1.4942  0.8574 -0.6127
  296MOL0     H39072   8.158   5.824   7.744  3.7060 -2.6256 -1.1811
  297MOL0     O39073   2.171  10.450   9.200  0.1129 -0.5728 -0.0021
  297MOL0     C39074   2.243  10.455   9.303 -0.0244 -0.8619  0.8409
  297MOL0     O39075   2.189  10.468   9.426 -0.2566 -0.6457 -0.1274
  297MOL0     C39076   2.051  10.467   9.448  0.4538 -0.1970  0.3935
  297MOL0     C39077   1.992  10.361   9.520  0.2666 -0.4965  0.1461
  297MOL0     C39078   1.848  10.354   9.541  0.3485 -0.3385  0.1965
  297MOL0     C39079   1.771  10.471   9.530 -0.9563 -0.4263  0.1060
  297MOL0     O39080   1.638  10.477   9.560  0.4210 -0.0468 -0.0163
  297MOL0     C39081   1.579  10.576   9.644  0.5001  0.6493  0.1686
  297MOL0     C39082   1.431  10.518   9.664  0.4518  0.6110 -0.2441
  297MOL0     C39083   1.352  10.628   9.737 -0.2160  0.2317 -0.4088
  297MOL0     C39084   1.205  10.594   9.756 -0.3544 -0.3272 -0.7815
  297MOL0     C39085   1.142  10.719   9.819  0.7836 -0.5079  0.0539
  297MOL0     C39086   0.991  10.705   9.806  0.1280 -0.3129 -0.0076
  297MOL0     C39087   0.917  10.814   9.868 -0.3028  0.0754 -0.8940
  297MOL0     C39088   0.904  10.814  10.021 -0.4502 -0.3467 -0.3101
  297MOL0     N39089   0.846  10.688  10.065  1.4522  0.4827  0.2353
  297MOL0     C39090   0.716  10.651  10.035 -0.4256 -0.6323 -0.6446
  297MOL0     C39091   0.694  10.549  10.115  0.5583 -0.2951  0.2879
  297MOL0     C39092   0.564  10.460  10.120 -0.9901 -0.4999  0.1735
  297MOL0     C39093   0.472  10.495   9.996 -0.0236  0.7717 -0.3075
  297MOL0     C39094   0.530  10.459   9.859  0.1253 -0.3360  0.2165
  297MOL0     C39095   0.429  10.497   9.750  0.0633 -0.2618 -0.2978
  297MOL0     O39096   0.435  10.639   9.751 -0.1099 -0.3499  0.0980
  297MOL0     C39097   0.358  10.701   9.652  0.0435  0.2995 -0.1559
  297MOL0     C39098   0.415  10.750   9.525 -0.2852  0.7079  0.1934
  297MOL0     C39099   0.336  10.800   9.424 -0.3129  0.4263 -0.4597
  297MOL0     C39100   0.199  10.811   9.433  0.0121 -0.4939  0.0064
  297MOL0     C39101   0.118  10.871   9.321  0.0794  0.2601 -0.7872
  297MOL0     O39102  -0.019  10.881   9.350  0.5759 -0.0644 -0.6735
  297MOL0     C39103  -0.117  10.900   9.256 -0.1109  0.4124  0.6165
  297MOL0     C39104  -0.097  10.917   9.118  0.6948  0.1148 -0.6670
  297MOL0     C39105  -0.201  10.931   9.031  1.0801 -0.6149 -0.3064
  297MOL0     C39106  -0.331  10.935   9.071  0.2324 -0.1789  0.3435
  297MOL0     O39107  -0.425  10.918   8.968  0.3773 -0.8907  0.8023
  297MOL0     C39108  -0.563  10.913   9.004 -0.0776 -0.5486  0.3534
  297MOL0     C39109  -0.631  10.875   8.871 -0.2923  0.4137 -0.3886
  297MOL0     C39110  -0.774  10.810   8.913  0.4425 -0.6451 -0.4529
  297MOL0     C39111  -0.861  10.896   8.999 -0.4575  0.3176 -0.3457
  297MOL0     C39112  -1.003  10.844   8.985 -0.6452 -0.3740 -0.3691
  297MOL0     C39113  -1.107  10.921   9.071 -0.5196 -0.2569 -0.6157
  297MOL0     C39114  -1.243  10.867   9.055  0.3670 -0.5251  0.2913
  297MOL0     C39115  -1.339  10.949   9.140  0.1240  0.6834 -0.0736
  297MOL0    Cl39116  -1.488  10.857   9.171  0.5328  0.0165  0.1101
  297MOL0     C39117  -0.359  10.936   9.208 -0.0352  0.3995 -0.5089
  297MOL0     C39118  -0.251  10.913   9.300  0.1810 -0.1894  0.1122
  297MOL0     O39119   0.172  10.876   9.214  0.3910  0.1668 -0.1988
  297MOL0     C39120   0.140  10.756   9.553  0.1861 -0.1014  0.2405
  297MOL0     C39121   0.221  10.708   9.660  0.3443 -1.1195  1.1219
  297MOL0     N39122   0.816  10.512  10.169  0.2067 -0.1421 -0.4977
  297MOL0     N39123   0.909  10.597  10.146 -0.5642 -0.1610  0.2217
  297MOL0     C39124   1.832  10.579   9.459 -0.1591 -1.2742 -0.0120
  297MOL0     C39125   1.969  10.578   9.423 -0.9564  0.0188 -0.5644
  297MOL0     C39126   2.393  10.453   9.292  0.3769 -0.1393  0.1245
  297MOL0     C39127   2.487  10.453   9.400  0.0376  0.4763  0.7053
  297MOL0     C39128   2.625  10.443   9.391 -0.7274 -0.7249  0.1426
  297MOL0     C39129   2.682  10.431   9.261 -0.3936 -0.2882  0.0477
  297MOL0     O39130   2.820  10.448   9.259 -0.0028 -0.5420 -0.5625
  297MOL0     C39131   2.891  10.412   9.144  0.7098 -0.6142 -0.3882
  297MOL0     C39132   3.022  10.480   9.155 -0.0127  0.3133 -0.2672
  297MOL0     C39133   3.012  10.628   9.116 -0.3226  0.8182 -1.0781
  297MOL0     C39134   3.150  10.696   9.134 -0.5304 -0.4413  0.2835
  297MOL0     C39135   3.151  10.840   9.106  0.1911 -0.5759 -1.1058
  297MOL0     C39136   3.140  10.962   9.089 -0.1922  0.9284  0.8431
  297MOL0     C39137   2.590  10.419   9.159 -0.6003 -0.1756  0.7272
  297MOL0     C39138   2.454  10.436   9.176 -0.1878 -0.1558 -0.2635
  297MOL0     H39139   2.057  10.274   9.527  0.9661  0.0469  0.6556
  297MOL0     H39140   1.801  10.261   9.571 -2.1300  0.5649 -0.6292
  297MOL0     H39141   1.570  10.677   9.603  0.6338  2.2658  3.7154
  297MOL0     H39142   1.634  10.577   9.738  2.4512  1.3061 -0.9239
  297MOL0     H39143   1.432  10.430   9.730  2.0346  1.0059  0.3122
  297MOL0     H39144   1.384  10.497   9.568  0.7476 -1.6410  0.0522
  297MOL0     H39145   1.361  10.717   9.674  1.1566  0.1431 -0.3637
  297MOL0     H39146   1.396  10.650   9.834 -1.5330  0.9409  0.0646
  297MOL0     H39147   1.163  10.576   9.656 -0.5025  3.6132 -1.5592
  297MOL0     H39148   1.192  10.510   9.825  0.3314  0.9107  0.9188
  297MOL0     H39149   1.171  10.808   9.762 -2.2600 -1.5584 -3.5588
  297MOL0     H39150   1.165  10.722   9.926 -0.4522  1.4860  0.3140
  297MOL0     H39151   0.943  10.613   9.843 -0.6269  0.8478  2.1147
  297MOL0     H39152   0.968  10.708   9.699 -0.1813  0.6823  0.0774
  297MOL0     H39153   0.958  10.908   9.831 -2.0946  0.7014 -1.3812
  297MOL0     H39154   0.816  10.821   9.826 -0.4787  1.1832 -0.3245
  297MOL0     H39155   0.847  10.904  10.048 -1.4886 -1.1201  0.1552
  297MOL0     H39156   1.007  10.823  10.056 -0.7580 -1.4672  0.9584
  297MOL0     H39157   0.641  10.707   9.979 -0.4553 -0.4549 -0.4282
  297MOL0     H39158   0.521  10.490  10.216  0.6781 -0.7089  1.0094
  297MOL0     H39159   0.593  10.355  10.113 -0.6011 -0.3613 -0.4150
  297MOL0     H39160   0.452  10.602  10.006 -1.7056  0.3182  2.1012
  297MOL0     H39161   0.375  10.446  10.001  0.7661 -0.8722 -0.3414
  297MOL0     H39162   0.628  10.502   9.835 -0.7161  2.6141  1.5796
  297MOL0     H39163   0.538  10.350   9.864 -0.9314 -0.4036  0.7360
  297MOL0     H39164   0.324  10.480   9.773  0.6081 -0.9836  1.8900
  297MOL0     H39165   0.458  10.452   9.655  4.9204 -0.3007  0.9510
  297MOL0     H39166   0.519  10.734   9.496 -0.0789  1.3957  0.5305
  297MOL0     H39167   0.378  10.828   9.328  0.0656 -0.8990 -0.6985
  297MOL0     H39168  -0.004  10.926   9.062 -0.2985  3.1550 -2.1016
  297MOL0     H39169  -0.184  10.939   8.924  1.3811  0.5919 -0.1903
  297MOL0     H39170  -0.592  11.014   9.033 -3.0592 -0.8317 -1.2595
  297MOL0     H39171  -0.576  10.843   9.087 -2.7343  0.8527  1.2421
  297MOL0     H39172  -0.575  10.800   8.815 -0.7983  0.4323 -0.9352
  297MOL0     H39173  -0.637  10.964   8.808 -0.6866 -1.8583 -3.7859
  297MOL0     H39174  -0.750  10.722   8.974  1.0179  1.2059  2.1620
  297MOL0     H39175  -0.835  10.778   8.829 -1.9185 -0.5975  1.1611
  297MOL0     H39176  -0.820  10.894   9.101 -0.0850 -2.8388 -0.4655
  297MOL0     H39177  -0.863  10.999   8.961  0.7211  0.3868 -0.2400
  297MOL0     H39178  -0.989  10.741   9.020 -1.6576 -0.4212 -0.0907
  297MOL0     H39179  -1.038  10.822   8.884 -3.1362  0.3315  0.2820
  297MOL0     H39180  -1.104  11.025   9.040  0.8050  0.2909  1.1362
  297MOL0     H39181  -1.067  10.914   9.173 -1.5196  0.4955 -0.1607
  297MOL0     H39182  -1.270  10.879   8.949 -1.2636  1.8131  0.9005
  297MOL0     H39183  -1.250  10.761   9.084  0.5337 -0.1885  1.6295
  297MOL0     H39184  -1.371  11.038   9.084  0.7635  1.4043  0.6763
  297MOL0     H39185  -1.290  10.990   9.229 -1.5634  1.9008  0.3468
  297MOL0     H39186  -0.457  10.942   9.254  0.0535 -0.6439 -0.1662
  297MOL0     H39187  -0.277  10.907   9.406  2.6723 -0.0202  0.7900
  297MOL0     H39188   0.033  10.764   9.575  0.2056  0.4829  0.1363
  297MOL0     H39189   0.166  10.674   9.747 -0.9555  2.7715  2.0290
  297MOL0     H39190   1.775  10.668   9.436  0.5667 -0.8830 -0.3451
  297MOL0     H39191   2.005  10.671   9.380  0.0205 -1.0973 -2.3215
  297MOL0     H39192   2.445  10.455   9.500  0.0279  0.0442  0.7100
  297MOL0     H39193   2.698  10.429   9.470  1.1676 -0.2312 -1.4228
  297MOL0     H39194   2.846  10.433   9.047 -0.1622  1.2277  0.3821
  297MOL0     H39195   2.923  10.308   9.156  0.6847 -0.7173 -1.1460
  297MOL0     H39196   3.054  10.483   9.259  1.0423  4.1077 -0.5314
  297MOL0     H39197   3.094  10.427   9.092  1.6023  0.4771  1.3644
  297MOL0     H39198   2.926  10.659   9.177 -5.3355 -5.7574 -3.5297
  297MOL0     H39199   2.979  10.615   9.013 -0.4227 -1.4950 -0.8141
  297MOL0     H39200   3.180  10.696   9.240  0.3532  2.0124  0.0967
  297MOL0     H39201   3.227  10.648   9.073 -0.9391 -3.2904  1.8186
  297MOL0     H39202   3.121  11.066   9.079  0.6809  1.1722  1.5438
  297MOL0     H39203   2.635  10.414   9.060  2.9249  3.5186  1.8670
  297MOL0     H39204   2.394  10.423   9.086 -1.7663 -1.2246  0.9007
  298MOL0     O39205   8.812   8.311   4.006  0.3883  0.1643  0.1187
  298MOL0     C39206   8.875   8.344   4.107 -0.0523  0.9627 -1.0408
  298MOL0     O39207   8.858   8.289   4.233 -0.8578  0.4578 -0.3186
  298MOL0     C39208   8.741   8.224   4.278 -0.5289  0.7446 -0.1611
  298MOL0     C39209   8.772   8.124   4.371 -0.5379 -0.8233 -0.4267
  298MOL0     C39210   8.672   8.069   4.446 -0.1760 -0.3729 -0.2655
  298MOL0     C39211   8.538   8.109   4.425  0.9800 -0.5142 -0.0278
  298MOL0     O39212   8.440   8.037   4.486 -0.3565 -0.4036 -0.5424
  298MOL0     C39213   8.302   8.065   4.479 -0.4272 -0.8322  0.2963
  298MOL0     C39214   8.239   7.992   4.598 -0.3430  0.2537  1.1821
  298MOL0     C39215   8.086   8.008   4.607 -1.0071 -0.4071  0.1641
  298MOL0     C39216   8.014   7.954   4.486  0.1945 -0.9754  1.5503
  298MOL0     C39217   7.870   7.902   4.506 -0.0378  0.8100  0.1166
  298MOL0     C39218   7.812   7.856   4.379 -0.7413  0.2510 -0.5201
  298MOL0     C39219   7.904   7.760   4.292 -0.0841  0.1833  0.0789
  298MOL0     C39220   7.982   7.834   4.178  0.0106  1.0168 -1.2487
  298MOL0     N39221   7.905   7.933   4.118 -0.4706 -0.9908  0.6732
  298MOL0     C39222   7.800   7.914   4.028  0.7769  0.3995  0.3224
  298MOL0     C39223   7.780   8.030   3.972 -0.6381 -0.1066  0.1881
  298MOL0     C39224   7.677   8.058   3.863 -0.3720 -0.5139  0.5801
  298MOL0     C39225   7.536   8.069   3.920  0.0421  0.9701 -0.0063
  298MOL0     C39226   7.471   7.925   3.947 -0.3866 -0.0156 -0.4630
  298MOL0     C39227   7.488   7.815   3.832  0.0768 -0.4647 -0.8153
  298MOL0     O39228   7.446   7.855   3.710 -0.4957  0.4963 -0.2751
  298MOL0     C39229   7.316   7.867   3.687  0.4563 -0.2095  0.3152
  298MOL0     C39230   7.276   7.902   3.558  0.3533  0.0790  0.8957
  298MOL0     C39231   7.141   7.922   3.515 -0.6462  0.4071 -0.7691
  298MOL0     C39232   7.036   7.907   3.605  0.1121 -1.0829  0.5980
  298MOL0     C39233   6.892   7.917   3.553 -0.9898 -0.3588 -0.5618
  298MOL0     O39234   6.878   7.898   3.423  0.6382 -0.5603 -0.1370
  298MOL0     C39235   6.751   7.890   3.377 -0.5405 -0.0415 -0.0732
  298MOL0     C39236   6.727   7.975   3.270 -0.3018  0.6307 -0.5324
  298MOL0     C39237   6.590   7.988   3.223 -0.2171  0.2476  0.4640
  298MOL0     C39238   6.485   7.919   3.291  0.2801  0.4108  0.4254
  298MOL0     O39239   6.350   7.927   3.265  0.8803 -0.0763  0.2498
  298MOL0     C39240   6.317   7.986   3.136  0.4579  0.9868 -0.3885
  298MOL0     C39241   6.164   7.995   3.137 -0.2866  0.7638  0.6475
  298MOL0     C39242   6.102   7.853   3.135  1.1616 -0.2875  0.1075
  298MOL0     C39243   5.956   7.844   3.098  0.1358  0.3773 -0.4391
  298MOL0     C39244   5.869   7.934   3.186  0.0529  0.4939 -0.1722
  298MOL0     C39245   5.729   7.917   3.134  0.7719  0.1157 -0.2096
  298MOL0     C39246   5.636   8.028   3.173 -0.0487 -0.3393  0.2156
  298MOL0     C39247   5.630   8.058   3.324 -0.3606 -1.0927  0.3111
  298MOL0    Cl39248   5.537   7.948   3.407  0.0497  0.0588  0.0705
  298MOL0     C39249   6.517   7.835   3.390 -0.1414 -0.1416  0.3835
  298MOL0     C39250   6.646   7.811   3.431  0.2019 -0.5852 -0.2564
  298MOL0     O39251   6.800   7.929   3.630 -0.2884 -0.3901 -0.6655
  298MOL0     C39252   7.071   7.865   3.736 -0.7977 -0.3661 -0.9741
  298MOL0     C39253   7.211   7.843   3.774 -1.1983  0.7482 -0.3850
  298MOL0     N39254   7.869   8.122   4.032 -0.7192  0.4149 -0.7019
  298MOL0     N39255   7.934   8.067   4.128 -0.3116 -0.0133 -0.1480
  298MOL0     C39256   8.504   8.212   4.330  1.3887 -0.1433  0.4837
  298MOL0     C39257   8.612   8.260   4.251  0.8490 -0.0348  0.4723
  298MOL0     C39258   8.974   8.449   4.107 -0.2107  0.8507 -0.2636
  298MOL0     C39259   9.019   8.507   4.225 -0.9077  0.7714 -0.0905
  298MOL0     C39260   9.107   8.609   4.223 -0.6072  0.2427 -0.1894
  298MOL0     C39261   9.160   8.655   4.099 -0.5035 -0.3918 -0.3048
  298MOL0     O39262   9.231   8.768   4.078 -0.3023 -0.0021 -0.1276
  298MOL0     C39263   9.343   8.809   4.154  0.1255  0.0338 -0.3309
  298MOL0     C39264   9.341   8.962   4.192 -0.0130 -0.2890  0.0579
  298MOL0     C39265   9.473   9.015   4.256 -0.4845 -0.2103  0.4694
  298MOL0     C39266   9.507   9.157   4.199  0.6752 -0.0805 -0.7752
  298MOL0     C39267   9.624   9.192   4.273 -0.3277 -0.2181 -0.3631
  298MOL0     C39268   9.721   9.222   4.345  0.8900 -0.5789  1.2601
  298MOL0     C39269   9.126   8.593   3.971 -0.3698  0.1465  0.5509
  298MOL0     C39270   9.031   8.493   3.978  0.3059  0.6472 -0.5868
  298MOL0     H39271   8.870   8.081   4.389 -0.0451  0.2466 -0.4785
  298MOL0     H39272   8.691   7.990   4.518  0.4602  0.9218  1.0608
  298MOL0     H39273   8.257   8.051   4.381  1.8140  4.5044 -1.8392
  298MOL0     H39274   8.299   8.174   4.480 -2.1441 -0.8613  0.0490
  298MOL0     H39275   8.290   8.028   4.688  0.5406 -1.4136  1.4040
  298MOL0     H39276   8.254   7.884   4.586 -2.6859  0.2165 -4.5438
  298MOL0     H39277   8.062   8.113   4.622  0.4692 -0.1419  0.8328
  298MOL0     H39278   8.059   7.952   4.697 -1.2583  0.9130  0.9269
  298MOL0     H39279   8.009   8.034   4.411 -1.1016  0.1285  2.7523
  298MOL0     H39280   8.087   7.882   4.449  2.1922  2.1204 -1.1160
  298MOL0     H39281   7.805   7.985   4.535  0.3939  0.8419  1.0401
  298MOL0     H39282   7.866   7.819   4.577  0.3565 -0.2713 -1.0859
  298MOL0     H39283   7.791   7.947   4.322 -2.7949  0.9383  1.2368
  298MOL0     H39284   7.713   7.811   4.391 -1.2362  1.3890 -0.2059
  298MOL0     H39285   7.972   7.711   4.362 -2.7506  0.2936  2.9587
  298MOL0     H39286   7.842   7.686   4.241  1.3172  0.4620 -2.1769
  298MOL0     H39287   8.026   7.755   4.116  2.6357  1.9022 -0.6372
  298MOL0     H39288   8.066   7.882   4.230 -2.2181  0.9512  2.8410
  298MOL0     H39289   7.741   7.827   4.000 -1.3038  1.4838  1.0899
  298MOL0     H39290   7.676   7.981   3.785 -0.3599 -0.7023  0.7618
  298MOL0     H39291   7.722   8.148   3.820  2.8986 -1.9328  0.6924
  298MOL0     H39292   7.466   8.115   3.850  1.4525 -1.9209 -3.6175
  298MOL0     H39293   7.531   8.121   4.016  3.2286  1.6922 -0.1321
  298MOL0     H39294   7.511   7.884   4.040 -4.1762  2.6112  2.6655
  298MOL0     H39295   7.366   7.941   3.977 -0.9742 -0.3091 -2.2679
  298MOL0     H39296   7.444   7.718   3.861  0.7099  0.1043  2.4551
  298MOL0     H39297   7.593   7.793   3.810  0.7404  1.6979 -0.0515
  298MOL0     H39298   7.351   7.913   3.480 -0.3794 -2.6454 -0.3302
  298MOL0     H39299   7.139   7.946   3.409  0.1891 -0.7625 -1.0758
  298MOL0     H39300   6.813   8.033   3.239  0.0017 -0.5137 -1.9246
  298MOL0     H39301   6.553   8.061   3.152 -0.5706 -0.2678  0.1054
  298MOL0     H39302   6.361   7.918   3.062  1.5708 -2.3636  3.0302
  298MOL0     H39303   6.352   8.087   3.115 -0.2448  0.8861 -2.2932
  298MOL0     H39304   6.119   8.051   3.055 -0.2329 -0.2943 -0.1153
  298MOL0     H39305   6.124   8.048   3.224  1.4549 -0.9640  2.6311
  298MOL0     H39306   6.127   7.812   3.234  0.1605  1.9125  1.3497
  298MOL0     H39307   6.150   7.790   3.061 -0.0056  0.0488 -0.9814
  298MOL0     H39308   5.948   7.879   2.995 -3.4338  1.3482  0.0415
  298MOL0     H39309   5.926   7.739   3.107  0.9960  0.2315  1.1767
  298MOL0     H39310   5.896   8.039   3.169 -2.5137  1.1350 -0.7524
  298MOL0     H39311   5.871   7.910   3.292 -3.7690 -1.2224 -0.3236
  298MOL0     H39312   5.681   7.825   3.167 -1.8244  2.0267  1.7945
  298MOL0     H39313   5.721   7.926   3.025 -2.0679 -0.5613 -0.1205
  298MOL0     H39314   5.673   8.115   3.117 -0.7778 -0.7071 -0.8720
  298MOL0     H39315   5.534   7.998   3.148 -0.2450  0.4667  0.0083
  298MOL0     H39316   5.571   8.151   3.324 -1.9828 -2.0783  0.8570
  298MOL0     H39317   5.724   8.074   3.376 -0.1790 -0.3375 -0.2288
  298MOL0     H39318   6.432   7.772   3.413 -1.6088  1.9635  1.1032
  298MOL0     H39319   6.664   7.733   3.504  3.9487  0.8422  0.5614
  298MOL0     H39320   6.996   7.844   3.812  0.2682  1.9677  0.8429
  298MOL0     H39321   7.231   7.811   3.876  3.0158 -2.6488 -2.0016
  298MOL0     H39322   8.402   8.245   4.310 -0.2052 -4.0609  1.2009
  298MOL0     H39323   8.589   8.337   4.179  2.4321 -0.6097 -0.7060
  298MOL0     H39324   8.988   8.474   4.324 -1.3598 -0.6562 -0.6720
  298MOL0     H39325   9.130   8.653   4.319 -0.2981 -1.4928  0.5691
  298MOL0     H39326   9.441   8.788   4.110  0.7810  1.9447  0.0922
  298MOL0     H39327   9.337   8.760   4.252 -2.3632  0.3671 -0.2627
  298MOL0     H39328   9.304   9.024   4.110 -0.8453  1.5255  1.6985
  298MOL0     H39329   9.261   8.971   4.266 -1.7003  1.1941 -1.8366
  298MOL0     H39330   9.553   8.954   4.213  0.0652 -0.0557  1.2412
  298MOL0     H39331   9.472   9.018   4.365  2.4739  2.1569  0.5556
  298MOL0     H39332   9.534   9.152   4.093  2.3185  0.6632 -0.4152
  298MOL0     H39333   9.425   9.229   4.207  0.6566 -0.1541 -0.2708
  298MOL0     H39334   9.808   9.270   4.386  0.3384  1.2837  0.3970
  298MOL0     H39335   9.166   8.655   3.892  0.3473  0.4580  1.1373
  298MOL0     H39336   8.986   8.464   3.884 -2.1370  1.8927  0.1292
  299MOL0     O39337   2.745   1.587   4.474 -0.3338 -0.3622  0.7297
  299MOL0     C39338   2.747   1.468   4.490  0.3573 -0.9960  0.1592
  299MOL0     O39339   2.821   1.397   4.572 -0.5259  0.1746  0.4218
  299MOL0     C39340   2.904   1.467   4.658 -0.9237 -0.3245  0.8271
  299MOL0     C39341   3.051   1.448   4.659 -0.4307 -0.0573 -0.2554
  299MOL0     C39342   3.140   1.516   4.751 -0.0762 -0.4228 -0.2366
  299MOL0     C39343   3.093   1.627   4.824 -0.2557  0.1953  0.0069
  299MOL0     O39344   3.170   1.703   4.898  0.4953 -0.0829 -0.1165
  299MOL0     C39345   3.306   1.657   4.912 -0.5909  0.6051 -0.0438
  299MOL0     C39346   3.394   1.746   5.008  0.2730  0.6479 -0.3253
  299MOL0     C39347   3.544   1.725   4.991 -0.7365  0.0819 -0.7371
  299MOL0     C39348   3.618   1.813   5.104 -0.9129  0.5902  0.0606
  299MOL0     C39349   3.762   1.759   5.114 -0.5317  0.7685 -0.0134
  299MOL0     C39350   3.853   1.815   5.012 -0.2114 -1.1297  0.6275
  299MOL0     C39351   3.902   1.963   5.043 -0.0916  1.1892 -0.3339
  299MOL0     C39352   3.983   2.016   4.925 -0.1693  0.8465  0.8596
  299MOL0     N39353   3.896   2.055   4.811  0.1230 -0.1628 -0.1668
  299MOL0     C39354   3.812   2.156   4.830  0.0233  0.4765 -0.3097
  299MOL0     C39355   3.718   2.152   4.728 -0.1842 -0.1566 -0.3815
  299MOL0     C39356   3.598   2.242   4.712 -0.5731  0.0996  0.3851
  299MOL0     C39357   3.471   2.163   4.709 -0.8139  0.4479 -0.3845
  299MOL0     C39358   3.360   2.251   4.648 -0.3524 -0.1057  0.3703
  299MOL0     C39359   3.228   2.177   4.636 -0.0817  0.1571  0.2574
  299MOL0     O39360   3.132   2.271   4.589  0.6714  0.8347  0.6905
  299MOL0     C39361   3.015   2.206   4.556  0.4566  0.1838 -0.5976
  299MOL0     C39362   2.923   2.164   4.654  0.1404  0.2064 -0.0888
  299MOL0     C39363   2.800   2.106   4.615  0.4559 -0.3463  0.2694
  299MOL0     C39364   2.765   2.091   4.477 -0.0160  0.3684 -0.1819
  299MOL0     C39365   2.628   2.041   4.438 -0.4704 -1.3352 -0.0005
  299MOL0     O39366   2.622   1.993   4.309 -0.5704  0.1684  0.4249
  299MOL0     C39367   2.507   1.928   4.276  0.6599  0.1413  0.8009
  299MOL0     C39368   2.482   1.794   4.332  0.8336  0.0818  0.2158
  299MOL0     C39369   2.363   1.731   4.318  0.8832 -0.5310 -0.6177
  299MOL0     C39370   2.261   1.793   4.246  0.0710  0.4569  0.8201
  299MOL0     O39371   2.127   1.754   4.239  0.5068  0.4212 -0.3249
  299MOL0     C39372   2.104   1.616   4.193  0.1005  0.7633 -0.0719
  299MOL0     C39373   2.024   1.543   4.297  0.2571 -0.8534  0.0055
  299MOL0     C39374   2.044   1.394   4.276 -0.4713 -0.2197  0.3121
  299MOL0     C39375   1.933   1.317   4.349  0.6022 -0.5073 -0.0948
  299MOL0     C39376   1.971   1.165   4.328 -1.2166 -0.7600 -0.0047
  299MOL0     C39377   1.871   1.079   4.407 -0.5369  0.1547 -0.1977
  299MOL0     C39378   1.875   0.928   4.375  0.7327 -0.6535 -0.5746
  299MOL0     C39379   1.774   0.849   4.454  0.7936 -0.0647 -0.5989
  299MOL0    Cl39380   1.604   0.894   4.422 -0.3972  0.1027 -0.1904
  299MOL0     C39381   2.290   1.911   4.179  0.8981  0.6181  0.5116
  299MOL0     C39382   2.408   1.983   4.190 -0.2751  0.4195 -0.7167
  299MOL0     O39383   2.529   2.054   4.514 -0.3058 -0.1672  0.1039
  299MOL0     C39384   2.860   2.122   4.387  0.0668  0.5634  0.2221
  299MOL0     C39385   2.981   2.180   4.423  0.0635  1.7263  1.2677
  299MOL0     N39386   3.751   2.039   4.653 -0.9012 -0.5636  0.6217
  299MOL0     N39387   3.854   1.986   4.708 -0.2762 -0.1996 -0.1555
  299MOL0     C39388   2.961   1.665   4.809  0.2551  0.3633 -0.2585
  299MOL0     C39389   2.872   1.587   4.731 -0.2490 -0.3676 -0.9893
  299MOL0     C39390   2.653   1.384   4.404 -0.5633 -0.0771  0.2499
  299MOL0     C39391   2.589   1.431   4.293  0.3665 -0.7413 -0.3533
  299MOL0     C39392   2.519   1.362   4.211  0.3193  0.8199 -0.1682
  299MOL0     C39393   2.488   1.227   4.238 -0.9972 -0.2238  0.1357
  299MOL0     O39394   2.397   1.144   4.173  0.1385  0.7317 -0.4527
  299MOL0     C39395   2.306   1.208   4.080 -0.0081 -0.8055 -0.0895
  299MOL0     C39396   2.205   1.103   4.036 -0.7884 -0.2274  0.1333
  299MOL0     C39397   2.118   1.166   3.921  0.4347 -0.5867 -0.1156
  299MOL0     C39398   2.009   1.067   3.876  0.6728  0.6380  0.2182
  299MOL0     C39399   2.078   0.939   3.830  1.3663  0.1602 -1.0529
  299MOL0     C39400   2.143   0.836   3.804 -0.0596  0.1739 -0.1050
  299MOL0     C39401   2.559   1.171   4.352 -0.4508  0.2479  0.0804
  299MOL0     C39402   2.639   1.245   4.433  0.6431 -0.3106  0.4591
  299MOL0     H39403   3.097   1.369   4.599  0.2680 -0.7506  1.1388
  299MOL0     H39404   3.240   1.473   4.754  0.6134  1.1187  0.4780
  299MOL0     H39405   3.358   1.650   4.816 -0.3143 -0.3894  0.1629
  299MOL0     H39406   3.296   1.559   4.960  1.0066 -0.1996 -1.2404
  299MOL0     H39407   3.375   1.726   5.114 -0.8913  1.4597 -0.3528
  299MOL0     H39408   3.359   1.850   4.998 -2.9665 -0.2948  0.0060
  299MOL0     H39409   3.582   1.758   4.894  1.8774 -1.3916 -0.3044
  299MOL0     H39410   3.574   1.620   5.004 -0.1027 -0.1163 -3.3044
  299MOL0     H39411   3.618   1.917   5.070  0.5619  0.2046 -1.2302
  299MOL0     H39412   3.565   1.800   5.199 -0.9960  0.4888 -0.0002
  299MOL0     H39413   3.764   1.650   5.103 -2.4846  0.9067 -2.6264
  299MOL0     H39414   3.798   1.776   5.216 -1.7419  2.1672  0.2059
  299MOL0     H39415   3.804   1.824   4.915  1.6348 -3.0392 -0.5495
  299MOL0     H39416   3.938   1.751   4.986  0.7512  1.0883 -2.2641
  299MOL0     H39417   3.821   2.034   5.061 -0.0900  0.7766  1.4647
  299MOL0     H39418   3.964   1.951   5.132 -2.0305  1.5932  1.1379
  299MOL0     H39419   4.054   1.938   4.895 -2.1144 -1.6721  2.4129
  299MOL0     H39420   4.037   2.105   4.959  1.5384  0.5889 -1.0036
  299MOL0     H39421   3.828   2.216   4.919  0.7055 -1.9800  1.3101
  299MOL0     H39422   3.616   2.288   4.615 -0.1513 -0.8097  0.0264
  299MOL0     H39423   3.610   2.313   4.795  3.0514 -1.3182  1.2509
  299MOL0     H39424   3.447   2.137   4.813  1.1919 -0.4552 -0.0975
  299MOL0     H39425   3.466   2.070   4.653 -1.4528 -0.9506  1.8544
  299MOL0     H39426   3.351   2.337   4.715  0.8870 -0.2021  0.6740
  299MOL0     H39427   3.384   2.292   4.549 -1.2928  1.8198  0.8790
  299MOL0     H39428   3.201   2.125   4.729 -0.8719 -1.0230 -0.6047
  299MOL0     H39429   3.249   2.090   4.574  2.2384  0.2487  0.8183
  299MOL0     H39430   2.953   2.174   4.758 -3.0531 -0.1957  0.9777
  299MOL0     H39431   2.726   2.096   4.693  1.0212  0.7182  0.9804
  299MOL0     H39432   2.562   1.745   4.387  1.1460  0.2390 -0.0945
  299MOL0     H39433   2.358   1.646   4.385  2.5772  2.6676  4.1092
  299MOL0     H39434   2.196   1.564   4.163  0.6544 -0.0685  2.7689
  299MOL0     H39435   2.040   1.599   4.106  1.8065  1.4073 -1.5243
  299MOL0     H39436   1.920   1.574   4.282  0.3025 -1.5794 -2.2818
  299MOL0     H39437   2.052   1.568   4.399  1.2060 -0.0939 -0.4255
  299MOL0     H39438   2.134   1.354   4.324 -2.7572 -3.5667  2.2472
  299MOL0     H39439   2.037   1.358   4.173  1.2711 -0.8698  0.3874
  299MOL0     H39440   1.942   1.351   4.453 -1.0251  3.5646 -1.1002
  299MOL0     H39441   1.836   1.344   4.308 -0.1049 -2.2451  0.3341
  299MOL0     H39442   2.075   1.148   4.357 -0.4532 -0.8767 -2.5651
  299MOL0     H39443   1.958   1.145   4.221 -1.8817  0.2501 -0.1231
  299MOL0     H39444   1.774   1.106   4.364 -0.5313 -1.1617 -1.1126
  299MOL0     H39445   1.872   1.098   4.515  0.1785  1.2159 -0.3765
  299MOL0     H39446   1.850   0.921   4.269 -0.5536  0.1260 -0.3452
  299MOL0     H39447   1.973   0.883   4.393  0.2043 -1.5694  0.0834
  299MOL0     H39448   1.792   0.855   4.562  0.3905  0.4075 -0.5555
  299MOL0     H39449   1.789   0.742   4.436  0.4318 -0.7758  2.5934
  299MOL0     H39450   2.203   1.953   4.130  0.6644 -1.5772 -1.1406
  299MOL0     H39451   2.426   2.081   4.147  0.9379  1.0585  1.1276
  299MOL0     H39452   2.841   2.097   4.284  0.3562 -3.1268  0.9118
  299MOL0     H39453   3.064   2.201   4.356  1.4645 -3.4768  0.9304
  299MOL0     H39454   2.925   1.763   4.839  2.5902  1.3216 -0.3494
  299MOL0     H39455   2.772   1.629   4.723  0.0483  0.6111  0.1674
  299MOL0     H39456   2.602   1.537   4.271 -0.6571 -0.2334  1.3127
  299MOL0     H39457   2.484   1.420   4.127  1.9436  0.5143 -1.0925
  299MOL0     H39458   2.359   1.232   3.987  0.4084 -0.8782  0.1278
  299MOL0     H39459   2.258   1.295   4.125 -0.3385 -0.4067 -1.1693
  299MOL0     H39460   2.268   1.030   3.984  1.0133  2.1089 -1.1954
  299MOL0     H39461   2.148   1.069   4.123 -0.3545 -1.0187  0.1111
  299MOL0     H39462   2.186   1.195   3.840 -2.6455  0.7968 -2.3869
  299MOL0     H39463   2.068   1.261   3.946  0.3041 -0.8050  0.4594
  299MOL0     H39464   1.952   1.050   3.968 -1.9308  2.1460 -0.9966
  299MOL0     H39465   1.942   1.114   3.803  0.7318  3.4102  1.8046
  299MOL0     H39466   2.195   0.743   3.787  0.8087  0.8242 -1.1569
  299MOL0     H39467   2.534   1.067   4.373 -2.5317  0.9341  1.3111
  299MOL0     H39468   2.686   1.199   4.520  1.9045  1.3709  0.7477
  300MOL0     O39469   0.520   7.491   9.500 -0.4612  0.5805  0.1588
  300MOL0     C39470   0.433   7.412   9.465  0.1577 -0.5340  0.0892
  300MOL0     O39471   0.442   7.276   9.427  0.2916  0.1799  0.7022
  300MOL0     C39472   0.569   7.217   9.424 -0.0426  0.3025 -0.8039
  300MOL0     C39473   0.637   7.207   9.543  0.7465  0.5761  0.5194
  300MOL0     C39474   0.754   7.140   9.544 -0.7866  0.5328  0.1045
  300MOL0     C39475   0.817   7.089   9.428 -0.0334  0.5116  0.4792
  300MOL0     O39476   0.936   7.017   9.417 -0.2278 -0.1670 -0.4552
  300MOL0     C39477   1.026   7.066   9.314  0.8287  0.2516  0.3724
  300MOL0     C39478   1.164   7.096   9.362  0.7411 -0.1203  0.3267
  300MOL0     C39479   1.182   7.154   9.510  0.1165 -0.5843  0.6157
  300MOL0     C39480   1.330   7.147   9.553 -0.5657 -0.4233 -0.4439
  300MOL0     C39481   1.357   7.171   9.703 -0.6242  0.0008  0.4426
  300MOL0     C39482   1.500   7.231   9.726  0.1490  0.5633 -0.4432
  300MOL0     C39483   1.535   7.235   9.878  0.2373 -0.5794 -0.5454
  300MOL0     C39484   1.682   7.286   9.897  1.0019  0.6209 -0.9478
  300MOL0     N39485   1.781   7.178   9.847  0.3001  0.0392  0.6602
  300MOL0     C39486   1.762   7.040   9.867  0.7554 -0.5583  0.4199
  300MOL0     C39487   1.868   6.985   9.804 -0.4175 -0.1972 -0.6646
  300MOL0     C39488   1.894   6.833   9.799 -0.6929  0.5682  0.2558
  300MOL0     C39489   1.829   6.769   9.928 -0.6737  1.2595  1.0307
  300MOL0     C39490   1.885   6.625   9.964  0.3499  0.1138  1.1681
  300MOL0     C39491   2.030   6.617  10.002 -0.9379 -0.4040 -0.6734
  300MOL0     O39492   2.069   6.641  10.142 -0.2443 -1.3470  1.1276
  300MOL0     C39493   2.198   6.618  10.184 -0.8880  0.7268 -0.1619
  300MOL0     C39494   2.302   6.586  10.096 -0.5697 -0.4680 -0.0340
  300MOL0     C39495   2.434   6.578  10.135 -0.4649  0.5210 -0.0771
  300MOL0     C39496   2.470   6.591  10.270 -0.7008  0.5450  1.1620
  300MOL0     C39497   2.613   6.578  10.312  0.1483  0.1316 -0.2267
  300MOL0     O39498   2.628   6.555  10.447  0.4020 -0.6254  0.2508
  300MOL0     C39499   2.746   6.563  10.510 -0.1429 -0.4080 -0.1618
  300MOL0     C39500   2.756   6.479  10.625 -0.2999 -0.7213  0.1015
  300MOL0     C39501   2.873   6.470  10.694 -0.6131  0.3293 -0.0017
  300MOL0     C39502   2.975   6.555  10.667 -0.9722  0.3891  0.2357
  300MOL0     O39503   3.098   6.562  10.720 -0.1323  0.1163 -0.1257
  300MOL0     C39504   3.129   6.457  10.816  0.6747 -0.5285 -0.0270
  300MOL0     C39505   3.268   6.480  10.877 -1.0304 -0.1370 -0.7623
  300MOL0     C39506   3.372   6.461  10.776  0.6322  0.3320  0.6947
  300MOL0     C39507   3.514   6.433  10.832  1.0130  0.2543  0.2554
  300MOL0     C39508   3.588   6.565  10.859 -0.6918 -0.4584 -0.0263
  300MOL0     C39509   3.704   6.528  10.954 -0.2017 -0.8310 -0.0802
  300MOL0     C39510   3.656   6.516  11.104 -0.0472  0.3785 -0.4886
  300MOL0     C39511   3.648   6.658  11.164  0.9707 -0.1659 -0.2345
  300MOL0    Cl39512   3.563   6.654  11.323  0.0717  0.5929  1.1958
  300MOL0     C39513   2.960   6.653  10.564  0.0162 -0.5187  0.7255
  300MOL0     C39514   2.846   6.659  10.482  0.5025  0.2848 -0.1793
  300MOL0     O39515   2.700   6.555  10.228  0.2520  0.6963  0.1818
  300MOL0     C39516   2.369   6.616  10.359 -0.3587 -0.1831 -0.4336
  300MOL0     C39517   2.233   6.625  10.324  0.3197 -0.1505  0.3231
  300MOL0     N39518   1.948   7.094   9.764 -0.3166  0.5455 -0.1975
  300MOL0     N39519   1.891   7.202   9.779 -0.4142 -0.0569  0.1985
  300MOL0     C39520   0.745   7.096   9.307 -0.2887  0.2865  0.6049
  300MOL0     C39521   0.621   7.165   9.305  0.6389 -0.9301 -0.3613
  300MOL0     C39522   0.300   7.465   9.477 -0.8945 -0.4099 -0.5100
  300MOL0     C39523   0.190   7.381   9.457  0.7813  0.4234  0.7220
  300MOL0     C39524   0.053   7.431   9.448 -0.3534 -0.1032  0.3109
  300MOL0     C39525   0.030   7.575   9.479 -1.3316 -1.1450  0.6080
  300MOL0     O39526  -0.095   7.633   9.487 -0.1108 -0.5018 -0.0394
  300MOL0     C39527  -0.207   7.575   9.421 -0.8565  0.0768  0.3843
  300MOL0     C39528  -0.284   7.686   9.363  0.3966 -0.4326  0.4069
  300MOL0     C39529  -0.399   7.630   9.277  0.3550  0.6979 -0.4825
  300MOL0     C39530  -0.485   7.738   9.202 -0.0261  0.3185 -0.6434
  300MOL0     C39531  -0.431   7.806   9.082  0.0808  0.9877 -0.5747
  300MOL0     C39532  -0.368   7.869   8.999 -0.0531  0.2612 -0.3411
  300MOL0     C39533   0.144   7.651   9.502  0.5137  0.2864  0.2010
  300MOL0     C39534   0.271   7.601   9.499  0.8319 -0.6314 -0.7744
  300MOL0     H39535   0.600   7.248   9.636  2.3761  1.7247  0.7212
  300MOL0     H39536   0.827   7.144   9.625  0.4752 -4.2184 -0.4944
  300MOL0     H39537   0.980   7.159   9.279  0.1387 -0.1974  0.0703
  300MOL0     H39538   1.039   6.990   9.237  4.3470 -0.6964  1.7036
  300MOL0     H39539   1.220   7.164   9.298  1.8182 -0.3300  1.0299
  300MOL0     H39540   1.209   6.996   9.367 -1.5331 -1.1542  2.7682
  300MOL0     H39541   1.130   7.096   9.587  3.6929 -2.6674  1.7036
  300MOL0     H39542   1.148   7.258   9.512  1.6240 -0.0755  1.7498
  300MOL0     H39543   1.376   7.050   9.532  0.0083 -1.0635  3.2030
  300MOL0     H39544   1.384   7.225   9.498  2.2128 -1.7046  0.2883
  300MOL0     H39545   1.342   7.082   9.766  1.5351 -0.0630  0.9441
  300MOL0     H39546   1.290   7.250   9.738 -1.1505  0.4520 -1.5037
  300MOL0     H39547   1.509   7.331   9.683 -2.4411  0.4550 -1.4187
  300MOL0     H39548   1.566   7.165   9.667  0.0287  0.6169 -0.6409
  300MOL0     H39549   1.460   7.296   9.928  1.6566 -0.0580  1.0425
  300MOL0     H39550   1.526   7.135   9.921  2.4105 -0.5244  0.1623
  300MOL0     H39551   1.706   7.290  10.004  0.0314 -2.4338 -0.5055
  300MOL0     H39552   1.706   7.384   9.855  1.1816  0.1712 -1.9123
  300MOL0     H39553   1.689   6.990   9.929  0.0240  1.1910  1.0471
  300MOL0     H39554   2.003   6.824   9.807 -0.9170 -0.8700  2.5875
  300MOL0     H39555   1.854   6.802   9.703 -0.9478  3.9075 -0.8683
  300MOL0     H39556   1.722   6.783   9.908 -0.7110  1.0116  1.0467
  300MOL0     H39557   1.851   6.845  10.002 -0.6639  3.1068 -0.7745
  300MOL0     H39558   1.825   6.585  10.047  2.3073 -0.5891  2.3061
  300MOL0     H39559   1.870   6.562   9.877 -0.5419  2.8943 -0.8279
  300MOL0     H39560   2.096   6.669   9.932 -0.7279  2.3998  1.4439
  300MOL0     H39561   2.070   6.518   9.979  3.5509  1.4374 -1.8930
  300MOL0     H39562   2.283   6.570   9.991  0.2710  0.4034 -0.3283
  300MOL0     H39563   2.509   6.577  10.056  0.2147 -0.1472  0.5569
  300MOL0     H39564   2.685   6.401  10.652  1.0386 -2.2360 -0.5993
  300MOL0     H39565   2.897   6.391  10.764  2.3367 -1.6884 -3.0386
  300MOL0     H39566   3.128   6.359  10.769  0.3172 -1.3268  1.5918
  300MOL0     H39567   3.062   6.460  10.903  1.9216  0.9877  0.9483
  300MOL0     H39568   3.291   6.406  10.955 -1.8532  0.3869  0.0027
  300MOL0     H39569   3.289   6.572  10.933 -1.0955 -1.4302  1.5130
  300MOL0     H39570   3.381   6.546  10.708  1.0285  0.7634  1.2771
  300MOL0     H39571   3.355   6.370  10.718  0.7846  0.5838  0.2548
  300MOL0     H39572   3.504   6.371  10.921 -1.0555 -2.6889 -1.8356
  300MOL0     H39573   3.569   6.367  10.765 -2.3336  1.2030 -3.8749
  300MOL0     H39574   3.524   6.651  10.883 -0.0757  0.8821 -2.7702
  300MOL0     H39575   3.629   6.595  10.762  0.4881 -1.2098  0.2171
  300MOL0     H39576   3.787   6.596  10.932 -0.2224 -0.6575  0.3578
  300MOL0     H39577   3.736   6.426  10.935 -2.6841 -1.5465 -0.8260
  300MOL0     H39578   3.558   6.468  11.100  0.2738 -0.6111 -7.1612
  300MOL0     H39579   3.722   6.458  11.168  1.0988  2.4976  0.3529
  300MOL0     H39580   3.585   6.717  11.096  0.6802  0.3075  0.4373
  300MOL0     H39581   3.743   6.710  11.173 -0.4182  2.2421  1.6479
  300MOL0     H39582   3.035   6.730  10.548 -1.7723  0.5951 -3.9433
  300MOL0     H39583   2.831   6.728  10.400  0.8073 -0.3406 -0.7751
  300MOL0     H39584   2.392   6.619  10.465  1.1676 -2.3017 -0.6456
  300MOL0     H39585   2.161   6.663  10.395  0.5832  0.7466  0.1287
  300MOL0     H39586   0.790   7.051   9.218 -1.8678 -2.4054  1.0704
  300MOL0     H39587   0.577   7.185   9.207 -3.6242  0.5671  1.6248
  300MOL0     H39588   0.211   7.275   9.456 -1.3421 -0.0380  0.4907
  300MOL0     H39589  -0.025   7.360   9.420 -2.5918  1.4469  2.2844
  300MOL0     H39590  -0.270   7.523   9.494 -0.3668  0.1695  0.8780
  300MOL0     H39591  -0.167   7.512   9.341  0.6768 -2.3149  2.8168
  300MOL0     H39592  -0.316   7.754   9.442  3.1494 -2.7943  3.8689
  300MOL0     H39593  -0.221   7.736   9.289  0.4993  0.7626  1.2813
  300MOL0     H39594  -0.464   7.577   9.347 -0.8397  1.0323 -1.3094
  300MOL0     H39595  -0.365   7.551   9.210  4.4415  0.5459  1.4836
  300MOL0     H39596  -0.574   7.689   9.161 -0.9085  3.2965 -2.5735
  300MOL0     H39597  -0.526   7.817   9.265  2.3801  1.1452 -0.0044
  300MOL0     H39598  -0.310   7.933   8.936  3.5519 -3.5004 -1.2566
  300MOL0     H39599   0.126   7.758   9.506  1.1240  0.3902  0.2404
  300MOL0     H39600   0.357   7.667   9.502  0.2702  0.1225 -0.8817
  301MOL0     O39601   6.709   8.330   3.332 -0.8473  0.7217 -0.8952
  301MOL0     C39602   6.752   8.304   3.442  0.3050  0.1296 -0.2603
  301MOL0     O39603   6.680   8.283   3.557 -0.0906 -0.2371  0.1391
  301MOL0     C39604   6.547   8.288   3.547 -0.3619 -0.3138 -0.2592
  301MOL0     C39605   6.468   8.172   3.565 -0.6918  0.8083  0.6521
  301MOL0     C39606   6.332   8.188   3.570 -0.3347 -1.2161  0.0539
  301MOL0     C39607   6.272   8.306   3.533  0.0104 -0.1583 -0.3564
  301MOL0     O39608   6.140   8.299   3.564 -0.1753  0.1048  0.2262
  301MOL0     C39609   6.058   8.399   3.499  0.8627  0.3635 -0.4745
  301MOL0     C39610   6.004   8.330   3.375 -0.2376  0.4794  0.5850
  301MOL0     C39611   5.883   8.406   3.310  0.0010 -0.3352 -0.7369
  301MOL0     C39612   5.922   8.546   3.251  0.3049 -1.0740  0.4628
  301MOL0     C39613   5.793   8.629   3.216  0.0003  0.4226  0.4544
  301MOL0     C39614   5.742   8.712   3.333 -0.4659 -0.3479  0.4969
  301MOL0     C39615   5.620   8.797   3.290  0.3931  0.2439 -0.2681
  301MOL0     C39616   5.542   8.885   3.394 -0.4191  0.5212  0.6979
  301MOL0     N39617   5.439   8.971   3.339 -0.6793  0.4284  0.0556
  301MOL0     C39618   5.301   8.963   3.362 -0.0295  0.7157  0.3781
  301MOL0     C39619   5.253   9.065   3.292  1.0785 -0.4366  0.6324
  301MOL0     C39620   5.105   9.097   3.276  0.6986  0.0634 -0.4341
  301MOL0     C39621   5.056   9.218   3.361 -0.0626  0.0448 -0.1378
  301MOL0     C39622   4.919   9.256   3.315  0.4578  0.1707 -0.6355
  301MOL0     C39623   4.815   9.153   3.371 -0.5077 -0.4907  0.2991
  301MOL0     O39624   4.688   9.180   3.324  0.0728 -0.7016 -0.1149
  301MOL0     C39625   4.607   9.257   3.401 -0.5680 -0.1917  0.3957
  301MOL0     C39626   4.647   9.347   3.497  0.5058  0.1210 -0.3553
  301MOL0     C39627   4.545   9.414   3.577 -1.1612 -0.9529 -0.0163
  301MOL0     C39628   4.409   9.396   3.556 -0.7945  0.3830  0.3960
  301MOL0     C39629   4.316   9.470   3.641  1.0374  0.2494  0.2470
  301MOL0     O39630   4.184   9.442   3.630  0.2810 -0.1390  0.0247
  301MOL0     C39631   4.093   9.507   3.720  0.0259 -0.5818  0.4821
  301MOL0     C39632   3.995   9.598   3.674 -0.2218 -0.1594  0.8041
  301MOL0     C39633   3.902   9.644   3.763 -0.4327 -0.2164 -0.2070
  301MOL0     C39634   3.903   9.627   3.896  0.7682 -0.5618 -0.6950
  301MOL0     O39635   3.803   9.695   3.960  0.0504  0.6966 -0.1708
  301MOL0     C39636   3.817   9.783   4.074  0.3984  0.2335  0.2080
  301MOL0     C39637   3.815   9.715   4.218 -0.9031 -0.0942  0.8445
  301MOL0     C39638   3.730   9.586   4.227 -0.0291 -0.2925  0.4137
  301MOL0     C39639   3.581   9.610   4.190  0.5576 -0.0082 -0.1780
  301MOL0     C39640   3.502   9.493   4.233  0.7246 -0.3159  0.0126
  301MOL0     C39641   3.350   9.517   4.190 -0.3721 -0.5257  1.0946
  301MOL0     C39642   3.262   9.384   4.201 -0.6625 -1.0866  0.4360
  301MOL0     C39643   3.304   9.272   4.097 -0.2152 -0.0192 -0.2735
  301MOL0    Cl39644   3.195   9.125   4.105  0.3125  0.3737  0.8248
  301MOL0     C39645   4.003   9.535   3.944  0.5142 -0.8301  0.0218
  301MOL0     C39646   4.100   9.478   3.857  0.5367 -0.2562 -0.9486
  301MOL0     O39647   4.364   9.563   3.708  0.0887  0.0776  0.5379
  301MOL0     C39648   4.370   9.311   3.453 -0.2063 -0.4488  0.5572
  301MOL0     C39649   4.469   9.239   3.375 -0.1727 -0.9742  0.7736
  301MOL0     N39650   5.350   9.138   3.226 -0.1013 -0.1802  0.4182
  301MOL0     N39651   5.463   9.076   3.253  0.3523  0.2657 -0.0951
  301MOL0     C39652   6.349   8.410   3.494 -0.2244  0.0016  0.5136
  301MOL0     C39653   6.484   8.404   3.502 -0.5368  1.0202  0.1667
  301MOL0     C39654   6.897   8.295   3.459 -0.3077  0.4278 -0.3149
  301MOL0     C39655   6.980   8.350   3.368 -0.1512 -0.6228  0.5868
  301MOL0     C39656   7.125   8.358   3.388  0.3752  0.3241 -0.7926
  301MOL0     C39657   7.177   8.300   3.499  0.4348  0.4440 -0.6971
  301MOL0     O39658   7.313   8.316   3.505  0.1718 -0.0738  0.1003
  301MOL0     C39659   7.386   8.269   3.614  1.2910 -0.1263  0.0853
  301MOL0     C39660   7.524   8.311   3.595 -0.7254  0.0928 -0.6896
  301MOL0     C39661   7.599   8.243   3.471  0.5283 -0.6759 -0.0992
  301MOL0     C39662   7.702   8.345   3.419  0.2308  0.5145 -0.3430
  301MOL0     C39663   7.803   8.375   3.529  0.7411  0.0952 -0.3581
  301MOL0     C39664   7.870   8.413   3.620  0.9622 -0.0852 -0.0399
  301MOL0     C39665   7.093   8.241   3.592 -0.2671  0.2321  0.1878
  301MOL0     C39666   6.955   8.239   3.579  0.4458 -0.0760  0.7782
  301MOL0     H39667   6.526   8.080   3.569  2.5415  2.2742 -4.0908
  301MOL0     H39668   6.270   8.101   3.590  0.1723 -2.2759 -2.5781
  301MOL0     H39669   6.104   8.497   3.481  1.3396  0.3002  0.3320
  301MOL0     H39670   5.978   8.418   3.571  0.6339 -1.1588 -0.3026
  301MOL0     H39671   5.980   8.235   3.424  0.0232  0.8630  1.4764
  301MOL0     H39672   6.081   8.320   3.297 -0.9567  0.1188 -0.0929
  301MOL0     H39673   5.801   8.421   3.381  0.0086 -0.4902 -0.6929
  301MOL0     H39674   5.845   8.341   3.231  0.6932  1.3179 -2.5127
  301MOL0     H39675   5.980   8.605   3.322  0.8228 -0.5299 -0.3858
  301MOL0     H39676   5.991   8.542   3.166  0.6328  2.6915  0.3700
  301MOL0     H39677   5.707   8.568   3.190  0.9444 -2.6384  3.7222
  301MOL0     H39678   5.803   8.702   3.135 -1.8534  2.1502  1.6796
  301MOL0     H39679   5.833   8.770   3.354  0.2611  0.2450 -3.3960
  301MOL0     H39680   5.708   8.644   3.411 -4.1513  1.6965  0.8981
  301MOL0     H39681   5.657   8.867   3.215 -1.3248  1.1650 -0.3157
  301MOL0     H39682   5.552   8.742   3.225  0.7412 -0.9971  0.3852
  301MOL0     H39683   5.614   8.959   3.432  0.2934 -0.5451  1.4955
  301MOL0     H39684   5.514   8.822   3.479  0.2706 -2.5269 -1.1680
  301MOL0     H39685   5.238   8.897   3.421 -0.4149 -0.1643 -0.9868
  301MOL0     H39686   5.035   9.021   3.312 -0.5164  0.9708 -0.8356
  301MOL0     H39687   5.091   9.122   3.170  4.5370 -1.0340 -1.3986
  301MOL0     H39688   5.127   9.301   3.345  0.5970 -0.5275 -0.2338
  301MOL0     H39689   5.052   9.198   3.468  0.4117  0.6402  0.0043
  301MOL0     H39690   4.892   9.352   3.359  0.7141  0.7562 -1.7356
  301MOL0     H39691   4.899   9.263   3.208 -0.4431 -4.0834 -0.9211
  301MOL0     H39692   4.821   9.154   3.480  3.4558  5.4519  0.5001
  301MOL0     H39693   4.839   9.053   3.336 -1.0893 -0.9880  1.2748
  301MOL0     H39694   4.747   9.385   3.513 -0.4858  2.5535  0.7194
  301MOL0     H39695   4.582   9.485   3.651 -1.9252 -1.3723  0.7849
  301MOL0     H39696   3.987   9.632   3.571  0.2929 -0.8198  0.5421
  301MOL0     H39697   3.827   9.714   3.727  0.3334  0.1337 -1.1819
  301MOL0     H39698   3.730   9.849   4.075  2.2911  3.0465 -2.1894
  301MOL0     H39699   3.903   9.846   4.052  2.0775 -1.9764  0.1175
  301MOL0     H39700   3.763   9.785   4.284 -1.3051  1.4868 -1.0678
  301MOL0     H39701   3.919   9.693   4.241 -1.4446 -2.2460  1.5223
  301MOL0     H39702   3.742   9.549   4.329  2.1309  1.2561  0.7954
  301MOL0     H39703   3.779   9.523   4.153 -2.4067 -2.0772  0.2260
  301MOL0     H39704   3.545   9.698   4.244 -1.5274 -1.9102  1.7197
  301MOL0     H39705   3.572   9.613   4.081 -6.1827 -3.0741 -0.1969
  301MOL0     H39706   3.500   9.490   4.342  0.4026  0.6878  0.0458
  301MOL0     H39707   3.533   9.396   4.196  0.4965 -0.4904  0.2745
  301MOL0     H39708   3.339   9.559   4.090 -5.2505 -0.5862  1.3405
  301MOL0     H39709   3.302   9.598   4.246  0.6089  1.9318 -1.4089
  301MOL0     H39710   3.252   9.346   4.303 -2.4168 -1.4125  0.1713
  301MOL0     H39711   3.158   9.406   4.173 -1.3715 -0.1226  3.4358
  301MOL0     H39712   3.398   9.231   4.138 -0.5617  0.1229  0.6973
  301MOL0     H39713   3.313   9.321   4.000  0.7755  1.7481  0.6690
  301MOL0     H39714   4.001   9.517   4.051  1.5310  4.2612  1.1530
  301MOL0     H39715   4.162   9.401   3.901 -1.5975 -0.2535  2.5374
  301MOL0     H39716   4.268   9.287   3.424 -0.9456  1.9170  0.9867
  301MOL0     H39717   4.430   9.183   3.291 -2.7509 -2.6765  2.9591
  301MOL0     H39718   6.318   8.510   3.464  2.4280  0.8892  0.4446
  301MOL0     H39719   6.538   8.492   3.470  0.3558 -0.7907 -3.9430
  301MOL0     H39720   6.944   8.412   3.286  1.3414  0.8814  1.0120
  301MOL0     H39721   7.181   8.391   3.301  2.5488  0.4219  0.5761
  301MOL0     H39722   7.384   8.161   3.634  5.1297 -0.3140  0.0259
  301MOL0     H39723   7.352   8.322   3.704  0.0744  0.7610 -0.8591
  301MOL0     H39724   7.514   8.418   3.574 -2.9032 -0.1714 -1.2004
  301MOL0     H39725   7.580   8.302   3.688 -0.1102 -0.1739 -1.0757
  301MOL0     H39726   7.525   8.211   3.397 -1.2152  1.2076  0.7402
  301MOL0     H39727   7.644   8.147   3.498 -2.0844 -2.0908 -0.4549
  301MOL0     H39728   7.755   8.308   3.331  0.2002  2.0474 -1.0337
  301MOL0     H39729   7.663   8.441   3.386 -1.2696 -0.3487 -1.1830
  301MOL0     H39730   7.944   8.425   3.697  0.7612 -1.8478  0.4772
  301MOL0     H39731   7.137   8.210   3.686  2.0152  3.7556  0.4857
  301MOL0     H39732   6.880   8.195   3.643  0.4980  0.9901  1.5898
  302MOL0     O39733   0.068   6.552  11.292 -0.8476 -0.6124 -0.8859
  302MOL0     C39734   0.137   6.575  11.392  0.1056  0.0040 -0.4639
  302MOL0     O39735   0.106   6.662  11.491  0.1350 -0.4280 -0.5581
  302MOL0     C39736  -0.015   6.730  11.516 -0.4308  0.4022 -0.0781
  302MOL0     C39737  -0.002   6.845  11.592 -0.4827 -0.5332  0.8440
  302MOL0     C39738  -0.121   6.908  11.642 -1.2877  0.5711  0.5832
  302MOL0     C39739  -0.249   6.861  11.614  0.5486 -0.2684 -0.6158
  302MOL0     O39740  -0.367   6.920  11.668  0.0682  0.6450 -0.4206
  302MOL0     C39741  -0.500   6.880  11.649 -0.0301 -0.3793 -0.3194
  302MOL0     C39742  -0.564   6.937  11.521 -0.7094 -0.5355 -0.3998
  302MOL0     C39743  -0.721   6.923  11.547 -0.0137  0.6286  0.1826
  302MOL0     C39744  -0.768   6.779  11.518 -0.8030 -0.8643 -0.7826
  302MOL0     C39745  -0.920   6.778  11.544 -1.2816 -0.1150 -0.1354
  302MOL0     C39746  -0.982   6.642  11.552 -0.0529  0.9711  0.6703
  302MOL0     C39747  -1.137   6.643  11.548  0.4680  0.0039  0.8202
  302MOL0     C39748  -1.176   6.665  11.392  0.5541 -0.0500  0.0577
  302MOL0     N39749  -1.324   6.665  11.384 -0.0066  0.0884 -0.7552
  302MOL0     C39750  -1.409   6.773  11.383 -0.7405  0.4943  0.6884
  302MOL0     C39751  -1.533   6.729  11.350 -0.7803 -0.2869 -1.2153
  302MOL0     C39752  -1.670   6.795  11.336 -0.3979  0.5630 -0.5260
  302MOL0     C39753  -1.695   6.885  11.459  0.2959 -0.1390  0.5899
  302MOL0     C39754  -1.822   6.972  11.417  1.0781  0.3532  0.1830
  302MOL0     C39755  -1.855   7.071  11.535 -0.2315 -0.9022  0.8523
  302MOL0     O39756  -1.877   7.009  11.667  0.2514  0.1574 -0.8724
  302MOL0     C39757  -2.001   6.973  11.711  0.2196  0.5150  0.2348
  302MOL0     C39758  -2.121   6.964  11.641 -0.0531  0.2220  0.6185
  302MOL0     C39759  -2.248   6.942  11.702 -0.8560  0.8792 -0.6099
  302MOL0     C39760  -2.246   6.910  11.838  0.3199 -0.2807 -0.5052
  302MOL0     C39761  -2.368   6.867  11.910 -1.0819  0.5869 -0.5776
  302MOL0     O39762  -2.369   6.888  12.050  0.1745 -1.0553  0.2657
  302MOL0     C39763  -2.490   6.878  12.110  0.2287  0.0993 -0.8646
  302MOL0     C39764  -2.575   6.995  12.105 -0.1204 -1.0061 -0.1764
  302MOL0     C39765  -2.708   6.991  12.153  0.6385  0.5482 -0.1886
  302MOL0     C39766  -2.747   6.878  12.226  0.3896  0.6689  0.5348
  302MOL0     O39767  -2.869   6.859  12.283 -0.3104 -0.0456  0.2770
  302MOL0     C39768  -2.968   6.957  12.248  0.9467  0.3261 -0.6272
  302MOL0     C39769  -3.106   6.907  12.293 -0.6926  0.2729 -0.0419
  302MOL0     C39770  -3.207   7.013  12.277  0.1360 -0.0074 -0.0024
  302MOL0     C39771  -3.339   6.955  12.322 -0.5281 -0.6796  0.2813
  302MOL0     C39772  -3.447   7.063  12.294  0.1598  0.4213 -0.0715
  302MOL0     C39773  -3.595   7.009  12.313  0.5094 -0.4912  0.1428
  302MOL0     C39774  -3.682   7.136  12.315 -0.0511 -0.2371 -0.0011
  302MOL0     C39775  -3.823   7.109  12.355 -0.0434 -0.1894  0.0912
  302MOL0    Cl39776  -3.897   7.012  12.210 -0.3064  0.0171 -0.1336
  302MOL0     C39777  -2.648   6.780  12.250  0.3367  0.0082 -0.3097
  302MOL0     C39778  -2.528   6.764  12.186  0.7963 -0.4163  0.6633
  302MOL0     O39779  -2.461   6.820  11.840  0.0202 -0.2634 -0.0605
  302MOL0     C39780  -2.128   6.917  11.911  0.4308 -0.5303  0.4088
  302MOL0     C39781  -2.008   6.952  11.847  0.7830 -0.4436  0.1036
  302MOL0     N39782  -1.516   6.590  11.340 -0.6199 -0.6041  0.0848
  302MOL0     N39783  -1.399   6.556  11.374  0.3263 -0.1157  0.0014
  302MOL0     C39784  -0.260   6.755  11.521 -0.7727  0.4946  1.0052
  302MOL0     C39785  -0.139   6.687  11.481  1.1585 -0.1236  0.5221
  302MOL0     C39786   0.258   6.498  11.405 -0.3822 -0.2303  0.0621
  302MOL0     C39787   0.362   6.543  11.490  0.2963 -0.4912  0.1252
  302MOL0     C39788   0.484   6.487  11.482 -0.8565 -1.2095  0.5063
  302MOL0     C39789   0.509   6.378  11.406  0.0948  0.0921  0.5558
  302MOL0     O39790   0.638   6.326  11.405  0.5928 -0.0676 -1.3012
  302MOL0     C39791   0.651   6.192  11.370 -0.2162 -0.6916 -0.1766
  302MOL0     C39792   0.776   6.139  11.442  0.5452 -0.0802 -0.0842
  302MOL0     C39793   0.839   6.017  11.379 -0.7126 -1.0904 -0.7506
  302MOL0     C39794   0.962   6.058  11.302 -1.2190 -0.1213  0.4177
  302MOL0     C39795   1.083   6.053  11.389 -1.4537 -0.8431 -0.3600
  302MOL0     C39796   1.171   6.071  11.471  0.9536  0.5317  0.0615
  302MOL0     C39797   0.415   6.331  11.315 -0.1238 -0.5945 -0.2791
  302MOL0     C39798   0.284   6.392  11.321 -0.6958  0.6249  0.3860
  302MOL0     H39799   0.096   6.881  11.622 -1.4843  2.2951  0.9853
  302MOL0     H39800  -0.109   6.995  11.706  3.6438  0.3955  0.3354
  302MOL0     H39801  -0.552   6.927  11.733  2.5007 -0.2776  1.2997
  302MOL0     H39802  -0.512   6.771  11.659 -0.1487 -0.3657 -0.3094
  302MOL0     H39803  -0.528   6.895  11.427 -2.1974 -0.0463 -1.2288
  302MOL0     H39804  -0.546   7.045  11.512  0.5960 -0.6555  0.5200
  302MOL0     H39805  -0.773   6.985  11.474  0.9874  0.7428 -0.4570
  302MOL0     H39806  -0.748   6.961  11.646 -0.5812  0.8726 -0.0632
  302MOL0     H39807  -0.745   6.749  11.416 -0.7620 -0.8759 -0.7696
  302MOL0     H39808  -0.716   6.708  11.583 -1.6555 -0.5357  0.2851
  302MOL0     H39809  -0.983   6.840  11.479 -2.5446 -0.0986  1.0723
  302MOL0     H39810  -0.931   6.833  11.637 -0.1826  0.1040 -0.1142
  302MOL0     H39811  -0.966   6.611  11.655  1.4501  1.8331  0.7240
  302MOL0     H39812  -0.954   6.571  11.474 -3.0488 -1.0958  1.3080
  302MOL0     H39813  -1.186   6.551  11.582 -0.3249  0.6910  1.5661
  302MOL0     H39814  -1.177   6.719  11.615 -1.4021 -1.9360  2.0629
  302MOL0     H39815  -1.130   6.585  11.334 -0.1599 -1.0373  0.8283
  302MOL0     H39816  -1.129   6.757  11.356  0.7420 -0.1090  0.1501
  302MOL0     H39817  -1.390   6.880  11.388  2.0057  0.1854 -0.8437
  302MOL0     H39818  -1.745   6.724  11.300  0.6771 -0.7315 -0.3148
  302MOL0     H39819  -1.652   6.861  11.251  1.4915 -1.5820 -1.9184
  302MOL0     H39820  -1.611   6.954  11.471  4.1577 -4.1487 -0.5935
  302MOL0     H39821  -1.713   6.816  11.543 -1.7025 -1.3781 -0.7602
  302MOL0     H39822  -1.816   7.015  11.317 -0.9946  0.9559  0.2790
  302MOL0     H39823  -1.908   6.904  11.424  0.9812  0.4626  0.0322
  302MOL0     H39824  -1.939   7.135  11.505  0.0715 -0.5264  0.7959
  302MOL0     H39825  -1.757   7.119  11.535  0.2531 -1.7936  2.6483
  302MOL0     H39826  -2.116   6.972  11.533  4.0460  0.8279  0.6898
  302MOL0     H39827  -2.343   6.939  11.649 -0.7144  1.7156 -0.9449
  302MOL0     H39828  -2.539   7.085  12.058  0.3847 -1.2526 -0.2655
  302MOL0     H39829  -2.780   7.068  12.126 -1.2685 -0.9558  0.4329
  302MOL0     H39830  -2.968   6.969  12.139  1.2703  1.2957 -0.5264
  302MOL0     H39831  -2.946   7.052  12.295 -0.3322  1.7595 -2.7392
  302MOL0     H39832  -3.104   6.888  12.401  0.2171 -1.8719 -0.3844
  302MOL0     H39833  -3.128   6.813  12.242 -0.3931  0.8593 -1.2837
  302MOL0     H39834  -3.215   7.028  12.169 -0.8772  2.2787  0.3412
  302MOL0     H39835  -3.167   7.099  12.332 -2.2320  2.0298 -1.2761
  302MOL0     H39836  -3.352   6.857  12.275  2.0939 -0.6851 -0.5852
  302MOL0     H39837  -3.348   6.945  12.431 -1.0452  0.2568  0.3342
  302MOL0     H39838  -3.444   7.111  12.195 -0.4606  0.4747 -0.0685
  302MOL0     H39839  -3.431   7.144  12.365  0.4745 -0.0187  0.3599
  302MOL0     H39840  -3.615   6.964  12.410 -1.9166  3.8540  1.9541
  302MOL0     H39841  -3.625   6.934  12.239 -0.6120 -0.1590  0.2412
  302MOL0     H39842  -3.634   7.194  12.394 -1.4227 -0.1089  0.7781
  302MOL0     H39843  -3.680   7.192  12.221 -2.4589 -0.4050 -0.2239
  302MOL0     H39844  -3.883   7.200  12.357 -2.0137 -1.4449  1.9830
  302MOL0     H39845  -3.843   7.068  12.454  1.7708  1.6322  1.2734
  302MOL0     H39846  -2.681   6.703  12.319  3.1960 -0.5452  0.5949
  302MOL0     H39847  -2.466   6.677  12.207  2.0219  0.0839 -0.7221
  302MOL0     H39848  -2.127   6.875  12.012  1.0515 -3.2240 -0.6347
  302MOL0     H39849  -1.912   6.960  11.898  2.1128 -0.7294 -2.2320
  302MOL0     H39850  -0.356   6.710  11.496 -2.0126  1.9636  2.8177
  302MOL0     H39851  -0.145   6.600  11.416 -2.7201  0.4318 -0.0807
  302MOL0     H39852   0.345   6.622  11.562  1.0178  2.0670 -2.3264
  302MOL0     H39853   0.556   6.531  11.550 -3.1023  1.6099  1.2766
  302MOL0     H39854   0.672   6.200  11.263 -0.4598  1.5498 -0.0989
  302MOL0     H39855   0.564   6.131  11.395 -0.3449 -0.4611 -0.0570
  302MOL0     H39856   0.851   6.214  11.466 -0.0345  1.1920 -2.0046
  302MOL0     H39857   0.740   6.091  11.533 -0.8960  1.0863  0.0014
  302MOL0     H39858   0.766   5.967  11.315 -3.5817 -0.6006  1.9438
  302MOL0     H39859   0.878   5.942  11.449  0.5443 -0.4690 -0.7439
  302MOL0     H39860   0.973   5.999  11.210  1.7328  1.1367 -0.1531
  302MOL0     H39861   0.950   6.156  11.255 -1.5778  0.7156  2.1873
  302MOL0     H39862   1.257   6.092  11.530  0.2411  5.1355 -0.1216
  302MOL0     H39863   0.433   6.256  11.239  0.2396 -1.6257  0.7891
  302MOL0     H39864   0.207   6.376  11.246 -0.2216  1.7927 -0.3781
  303MOL0     O39865   4.832   5.509   3.007 -0.6142  0.4653  0.2366
  303MOL0     C39866   4.888   5.405   3.033  0.2655  0.1646  0.2562
  303MOL0     O39867   4.965   5.323   2.948 -0.7140  0.0851  0.3487
  303MOL0     C39868   4.949   5.338   2.810 -0.6181 -0.4870  0.2460
  303MOL0     C39869   4.956   5.461   2.743 -0.0571  0.1320  0.4241
  303MOL0     C39870   4.931   5.468   2.598  0.4482 -0.6305 -0.3975
  303MOL0     C39871   4.888   5.355   2.533 -0.0303  0.1538 -0.1290
  303MOL0     O39872   4.868   5.346   2.396 -0.2705 -0.1669  0.0457
  303MOL0     C39873   4.878   5.467   2.320 -0.5963 -0.5785  1.0865
  303MOL0     C39874   4.853   5.432   2.168  0.1710  0.1363  0.4436
  303MOL0     C39875   4.831   5.561   2.081 -0.2489 -0.8021 -0.0188
  303MOL0     C39876   4.718   5.651   2.123  0.1256 -1.1225  1.0015
  303MOL0     C39877   4.687   5.772   2.026 -0.3124 -0.2474 -0.4055
  303MOL0     C39878   4.809   5.866   1.984  0.1431  0.1829  0.4704
  303MOL0     C39879   4.750   6.003   1.940  0.7170  0.3756 -0.3942
  303MOL0     C39880   4.861   6.102   1.930  0.3774 -0.6940  0.5596
  303MOL0     N39881   4.804   6.219   1.854 -0.6317 -0.9079 -0.4281
  303MOL0     C39882   4.699   6.298   1.900  0.4749  0.6027 -0.6760
  303MOL0     C39883   4.673   6.386   1.807 -0.1036 -0.4317  1.0467
  303MOL0     C39884   4.573   6.494   1.810  0.5594  0.3840 -0.6207
  303MOL0     C39885   4.431   6.458   1.832  0.2371  0.1289 -0.2931
  303MOL0     C39886   4.330   6.574   1.873  0.3547  0.4056 -0.4418
  303MOL0     C39887   4.188   6.516   1.871  0.1952 -0.5438 -0.4842
  303MOL0     O39888   4.140   6.497   1.735 -0.5269 -0.3283  0.5818
  303MOL0     C39889   4.004   6.477   1.730 -0.1011  0.3590  0.7572
  303MOL0     C39890   3.923   6.483   1.846  0.1152  0.2589 -0.7451
  303MOL0     C39891   3.786   6.460   1.847 -0.3692 -1.1717  0.2792
  303MOL0     C39892   3.725   6.426   1.730  0.0673  0.2512  0.7317
  303MOL0     C39893   3.576   6.420   1.725  0.4910 -0.8579 -0.6083
  303MOL0     O39894   3.512   6.426   1.852 -0.0160 -0.1113 -0.5522
  303MOL0     C39895   3.376   6.419   1.870 -0.3426  1.4289 -0.6193
  303MOL0     C39896   3.337   6.454   1.997 -0.3493  1.1660  0.0803
  303MOL0     C39897   3.200   6.430   2.039  0.2821  0.0083 -0.6857
  303MOL0     C39898   3.101   6.389   1.959  0.3724  1.0787 -0.0259
  303MOL0     O39899   2.980   6.376   2.023  0.0590  0.2753  0.0856
  303MOL0     C39900   2.903   6.270   1.975 -0.0928  0.5350 -0.4804
  303MOL0     C39901   2.791   6.251   2.066 -0.0481 -1.0140 -0.2620
  303MOL0     C39902   2.701   6.131   2.043 -0.1401  0.1923 -0.4349
  303MOL0     C39903   2.615   6.153   1.914  0.7132  0.0089 -1.0965
  303MOL0     C39904   2.468   6.141   1.924 -0.3115  0.5320  0.0380
  303MOL0     C39905   2.409   6.149   1.782  0.5292 -0.4057  0.4622
  303MOL0     C39906   2.264   6.161   1.812 -0.4386 -0.4126 -0.1733
  303MOL0     C39907   2.174   6.199   1.687 -0.6590  0.0270 -0.3533
  303MOL0    Cl39908   2.181   6.066   1.560  0.0502  0.0896 -0.0121
  303MOL0     C39909   3.141   6.359   1.822 -0.1798  0.2710 -0.3864
  303MOL0     C39910   3.279   6.365   1.780  0.3891  0.1934 -0.8892
  303MOL0     O39911   3.519   6.417   1.616  0.4441  0.2134 -0.2651
  303MOL0     C39912   3.798   6.403   1.616  0.2621  0.3787 -0.3085
  303MOL0     C39913   3.939   6.425   1.622 -0.0893  0.0598  0.5600
  303MOL0     N39914   4.759   6.363   1.701  0.0399  0.5395  0.0693
  303MOL0     N39915   4.839   6.264   1.726 -0.3722  0.5076  0.0381
  303MOL0     C39916   4.898   5.234   2.604 -0.0179 -0.6186  0.1320
  303MOL0     C39917   4.926   5.224   2.741  0.4034  0.3354  0.4733
  303MOL0     C39918   4.848   5.341   3.165 -1.0759 -0.2950 -0.4170
  303MOL0     C39919   4.840   5.417   3.280 -0.1515 -0.8625 -0.5229
  303MOL0     C39920   4.795   5.362   3.401 -0.3740 -0.2118 -0.4122
  303MOL0     C39921   4.800   5.224   3.417  0.7473  1.5999  0.0094
  303MOL0     O39922   4.786   5.161   3.544 -0.0199  0.5494 -0.8600
  303MOL0     C39923   4.745   5.248   3.658  0.1204  0.6405  0.2356
  303MOL0     C39924   4.600   5.296   3.649  0.1718 -0.4488 -0.1655
  303MOL0     C39925   4.548   5.321   3.786 -0.6648 -0.3746  0.0094
  303MOL0     C39926   4.409   5.382   3.810 -0.6787 -0.2942  0.5585
  303MOL0     C39927   4.318   5.277   3.760  0.2820  0.9616  0.2609
  303MOL0     C39928   4.255   5.183   3.731 -0.8953 -0.2917 -0.6209
  303MOL0     C39929   4.806   5.146   3.303  0.1834  0.4269  0.1135
  303MOL0     C39930   4.843   5.207   3.175  0.4523 -0.0025  0.0883
  303MOL0     H39931   4.985   5.544   2.806 -0.7649 -0.5758  1.7275
  303MOL0     H39932   4.950   5.559   2.543  3.2584 -0.5063  0.6504
  303MOL0     H39933   4.971   5.526   2.328 -0.1820 -1.1531  0.6302
  303MOL0     H39934   4.789   5.520   2.353 -1.3917 -0.7152 -0.6865
  303MOL0     H39935   4.768   5.363   2.157 -0.2334  0.7251 -0.2320
  303MOL0     H39936   4.946   5.384   2.137 -1.3045 -2.7545  0.0632
  303MOL0     H39937   4.818   5.532   1.977 -1.5120  2.6784 -0.9635
  303MOL0     H39938   4.918   5.627   2.088 -1.4597  0.8743 -0.0278
  303MOL0     H39939   4.622   5.600   2.133 -1.1466  1.3986  2.7851
  303MOL0     H39940   4.735   5.690   2.224  0.7955 -1.4026  1.0050
  303MOL0     H39941   4.609   5.834   2.072  0.6397  1.0222 -0.4632
  303MOL0     H39942   4.635   5.745   1.934 -4.1289  2.9351  0.5459
  303MOL0     H39943   4.864   5.832   1.896 -1.0466  0.3972 -0.3800
  303MOL0     H39944   4.870   5.888   2.072  1.3708  1.9346 -0.7445
  303MOL0     H39945   4.682   5.989   1.856 -3.2140 -1.1914  2.6847
  303MOL0     H39946   4.680   6.047   2.012 -0.1726  1.2078 -1.7323
  303MOL0     H39947   4.937   6.057   1.865 -1.4719  0.0482 -2.2790
  303MOL0     H39948   4.901   6.141   2.024 -0.6449 -0.7262  1.0153
  303MOL0     H39949   4.648   6.308   1.995  1.8324  2.6891 -0.1203
  303MOL0     H39950   4.580   6.549   1.716 -0.1479  1.3618 -0.1166
  303MOL0     H39951   4.587   6.562   1.894 -0.8620  1.0042 -0.8566
  303MOL0     H39952   4.431   6.381   1.910  2.2943  0.5878  0.2208
  303MOL0     H39953   4.397   6.420   1.735  0.1846 -1.6830  0.3862
  303MOL0     H39954   4.341   6.609   1.976 -1.0289  0.9189 -0.4492
  303MOL0     H39955   4.331   6.654   1.798  0.6957  0.6333 -0.1965
  303MOL0     H39956   4.132   6.593   1.925 -1.0641  1.0757 -3.8391
  303MOL0     H39957   4.192   6.427   1.935  1.2376  0.2724  0.6151
  303MOL0     H39958   3.962   6.510   1.944 -3.3339 -1.1527  1.1817
  303MOL0     H39959   3.728   6.469   1.938 -0.4844 -3.8261  0.5443
  303MOL0     H39960   3.412   6.502   2.058  2.3366  1.1931 -2.9783
  303MOL0     H39961   3.174   6.453   2.142 -4.3919 -1.1698 -1.4030
  303MOL0     H39962   2.964   6.179   1.968  1.7490  1.7664 -1.1253
  303MOL0     H39963   2.862   6.302   1.879  1.4953 -1.5159 -1.9254
  303MOL0     H39964   2.738   6.346   2.057 -0.2428 -1.2036 -1.1658
  303MOL0     H39965   2.827   6.247   2.169 -2.3942  0.3681  0.6865
  303MOL0     H39966   2.637   6.120   2.131  2.1788 -2.6709  1.1011
  303MOL0     H39967   2.753   6.034   2.041 -0.5679 -0.1910  2.5144
  303MOL0     H39968   2.658   6.240   1.864  1.0926 -0.1883 -1.1151
  303MOL0     H39969   2.642   6.073   1.845 -3.4291 -0.1076 -2.9138
  303MOL0     H39970   2.432   6.216   1.995  1.7156 -0.2763  2.0602
  303MOL0     H39971   2.441   6.045   1.970  0.0830  0.0194 -0.7803
  303MOL0     H39972   2.428   6.070   1.709  0.6493  2.3195 -2.6536
  303MOL0     H39973   2.445   6.240   1.735  0.7971 -1.1683 -0.8484
  303MOL0     H39974   2.231   6.063   1.848 -1.1005 -0.6784 -1.4512
  303MOL0     H39975   2.236   6.229   1.892  1.7258 -0.9271  1.1088
  303MOL0     H39976   2.203   6.298   1.652 -1.2805  0.3523  0.0458
  303MOL0     H39977   2.067   6.206   1.709 -0.4915 -1.8460  1.4472
  303MOL0     H39978   3.058   6.332   1.757  0.0526 -3.4167  0.6296
  303MOL0     H39979   3.301   6.331   1.679 -1.7784 -2.1163 -0.6903
  303MOL0     H39980   3.749   6.374   1.524 -2.3921 -2.0419  1.6601
  303MOL0     H39981   3.998   6.401   1.533 -1.1616 -0.0515 -0.1374
  303MOL0     H39982   4.874   5.143   2.550 -0.4447 -1.7242  2.0969
  303MOL0     H39983   4.927   5.128   2.791  2.6177  0.3760  0.5990
  303MOL0     H39984   4.865   5.522   3.288  0.4653 -0.7212 -3.1785
  303MOL0     H39985   4.788   5.428   3.487 -3.1971  0.4943 -1.0679
  303MOL0     H39986   4.811   5.334   3.670  1.4030 -0.4260  1.1208
  303MOL0     H39987   4.762   5.184   3.745 -0.2630  1.5354  0.9840
  303MOL0     H39988   4.589   5.385   3.586  1.2305  0.7587  1.2865
  303MOL0     H39989   4.545   5.216   3.597  1.4890 -2.5139  1.4295
  303MOL0     H39990   4.617   5.400   3.819 -1.6534  0.1846  0.8083
  303MOL0     H39991   4.565   5.234   3.849 -0.5460  0.8819  1.7909
  303MOL0     H39992   4.410   5.400   3.918  0.1349 -0.0388  0.5189
  303MOL0     H39993   4.394   5.474   3.752  1.3571  0.0370  0.4965
  303MOL0     H39994   4.192   5.102   3.698 -0.0508 -1.2924  0.1529
  303MOL0     H39995   4.796   5.039   3.321 -1.7421  0.4848 -0.3195
  303MOL0     H39996   4.868   5.145   3.090 -0.6873 -1.9285  1.1061
  304MOL0     O39997   7.101   4.715   5.733  1.2927 -0.1255 -0.4183
  304MOL0     C39998   7.160   4.672   5.635 -0.3553 -0.5663  0.9803
  304MOL0     O39999   7.101   4.627   5.522 -0.1252  0.0932  0.5627
  304MOL0     C40000   6.974   4.654   5.477  0.1492 -0.5871 -0.0153
  304MOL0     C40001   6.885   4.756   5.515 -0.5304 -0.8508  0.6312
  304MOL0     C40002   6.773   4.781   5.432 -0.1201 -1.0024  0.0683
  304MOL0     C40003   6.731   4.704   5.322 -0.8579 -0.0695 -0.2489
  304MOL0     O40004   6.625   4.743   5.244 -0.1885 -0.1487  0.4403
  304MOL0     C40005   6.499   4.777   5.297 -0.0193 -0.6443  0.4259
  304MOL0     C40006   6.405   4.660   5.261  0.0089  0.8266  1.4268
  304MOL0     C40007   6.370   4.652   5.108 -0.2530 -0.5316  0.7874
  304MOL0     C40008   6.246   4.561   5.089 -0.6969 -0.1369 -0.2529
  304MOL0     C40009   6.132   4.652   5.066  0.2005 -0.3345 -0.0701
  304MOL0     C40010   5.996   4.593   5.063 -0.3924  0.5902 -0.1442
  304MOL0     C40011   5.904   4.701   5.013 -0.4185  0.1394  1.0247
  304MOL0     C40012   5.814   4.642   4.903  0.7380  0.3534  0.7508
  304MOL0     N40013   5.728   4.540   4.958  0.1683  0.4544  0.0899
  304MOL0     C40014   5.639   4.571   5.057 -0.3244  0.6920 -0.5700
  304MOL0     C40015   5.584   4.462   5.102  0.0140  0.9222 -0.1434
  304MOL0     C40016   5.474   4.454   5.204 -0.8910 -0.5968 -0.5745
  304MOL0     C40017   5.347   4.525   5.170 -0.5630 -0.0367  0.4240
  304MOL0     C40018   5.236   4.523   5.285 -0.3319 -0.4284  0.4626
  304MOL0     C40019   5.096   4.508   5.225 -0.6144 -0.3340  0.3260
  304MOL0     O40020   5.069   4.621   5.136 -0.1081 -0.3273  0.1484
  304MOL0     C40021   4.936   4.623   5.077  0.4389  0.1341  0.1687
  304MOL0     C40022   4.863   4.508   5.055 -0.3721  0.4144  0.1143
  304MOL0     C40023   4.727   4.508   5.017 -0.3111  0.2844 -0.4604
  304MOL0     C40024   4.665   4.635   4.992 -0.5168 -0.4873  0.2696
  304MOL0     C40025   4.518   4.639   4.978 -0.2293 -0.0711 -0.0803
  304MOL0     O40026   4.449   4.527   5.018 -0.4858 -0.3063  0.0115
  304MOL0     C40027   4.315   4.508   4.990 -0.5197 -0.0420 -0.5402
  304MOL0     C40028   4.255   4.432   5.086 -0.4187  0.3945 -0.1162
  304MOL0     C40029   4.116   4.394   5.064  0.0291  1.0555  0.1957
  304MOL0     C40030   4.048   4.424   4.947 -0.0301  1.2337  0.3089
  304MOL0     O40031   3.923   4.394   4.917  0.9427 -0.1150  0.3830
  304MOL0     C40032   3.856   4.282   4.970  0.1739  0.1486 -0.1626
  304MOL0     C40033   3.751   4.229   4.864 -1.1898 -0.5895  0.5318
  304MOL0     C40034   3.675   4.104   4.903 -0.0321  0.5313 -0.0250
  304MOL0     C40035   3.591   4.052   4.783  0.6897  0.9690 -0.4285
  304MOL0     C40036   3.475   3.939   4.815 -0.5934  0.5739  0.2431
  304MOL0     C40037   3.528   3.821   4.897  0.4493  0.0184  0.6710
  304MOL0     C40038   3.618   3.734   4.803  0.4788  0.5000 -0.0999
  304MOL0     C40039   3.681   3.617   4.884  0.2066  0.2043 -0.0514
  304MOL0    Cl40040   3.794   3.665   5.015 -0.1319  0.7894  0.4968
  304MOL0     C40041   4.109   4.511   4.859 -0.6413 -0.2255 -0.6123
  304MOL0     C40042   4.250   4.551   4.877 -0.0310 -0.3265 -0.3282
  304MOL0     O40043   4.472   4.737   4.930 -0.4466  0.1880  0.6460
  304MOL0     C40044   4.750   4.752   4.993  1.1920  0.2861 -0.3543
  304MOL0     C40045   4.887   4.742   5.028  0.3400  0.5672 -0.0781
  304MOL0     N40046   5.652   4.357   5.027  0.4096 -0.0287 -0.4135
  304MOL0     N40047   5.736   4.405   4.946  0.8850 -0.4125  0.3585
  304MOL0     C40048   6.822   4.601   5.297  0.3350 -0.0025  0.7538
  304MOL0     C40049   6.949   4.585   5.357  0.4146 -0.0378 -0.5257
  304MOL0     C40050   7.309   4.686   5.640  0.0094  0.5157  0.8454
  304MOL0     C40051   7.378   4.756   5.746 -0.2582 -0.1507  0.0188
  304MOL0     C40052   7.523   4.761   5.758  0.6788 -0.9307  0.0651
  304MOL0     C40053   7.598   4.698   5.660 -0.2297 -0.9557  0.2078
  304MOL0     O40054   7.738   4.702   5.673  0.3613 -0.0697  0.1951
  304MOL0     C40055   7.827   4.714   5.556  0.1359 -0.6573 -0.3072
  304MOL0     C40056   7.954   4.766   5.611 -0.1881  0.2249  0.7715
  304MOL0     C40057   8.019   4.656   5.690 -0.4535  0.1533 -0.4626
  304MOL0     C40058   8.155   4.705   5.738  0.0157  0.1676 -0.2818
  304MOL0     C40059   8.238   4.753   5.629 -0.6708  0.2688  0.3998
  304MOL0     C40060   8.337   4.767   5.553 -0.1308 -0.4817 -0.5454
  304MOL0     C40061   7.538   4.626   5.551  0.1312 -0.0763 -1.0303
  304MOL0     C40062   7.393   4.629   5.539  0.4521  0.2588 -0.0019
  304MOL0     H40063   6.904   4.821   5.600  1.2050 -1.3599  0.6728
  304MOL0     H40064   6.705   4.863   5.454  2.2267  1.1428 -0.1611
  304MOL0     H40065   6.458   4.865   5.247 -4.0162 -2.0389  0.8782
  304MOL0     H40066   6.505   4.803   5.403 -3.6805  0.5668  0.4612
  304MOL0     H40067   6.309   4.674   5.313 -1.3671  0.1805 -0.7792
  304MOL0     H40068   6.445   4.561   5.282 -1.3581  0.2224  1.2899
  304MOL0     H40069   6.446   4.603   5.047 -1.2647  0.5187 -1.4494
  304MOL0     H40070   6.359   4.747   5.054 -4.2591 -1.5760 -0.4887
  304MOL0     H40071   6.251   4.504   4.995  0.4421 -2.0641  0.9094
  304MOL0     H40072   6.234   4.495   5.175 -0.7146 -0.0657 -0.2007
  304MOL0     H40073   6.156   4.702   4.972  0.9769  0.7733  0.6847
  304MOL0     H40074   6.129   4.730   5.143 -2.8506 -0.2272 -0.1726
  304MOL0     H40075   5.955   4.551   5.156 -1.4962 -0.7868 -1.2041
  304MOL0     H40076   5.992   4.517   4.984 -0.5384  1.9607 -1.5065
  304MOL0     H40077   5.856   4.744   5.101 -2.2822 -0.0484  0.1531
  304MOL0     H40078   5.946   4.792   4.969 -1.8206  0.8218  1.0469
  304MOL0     H40079   5.880   4.613   4.821 -0.5383  0.0541 -0.1959
  304MOL0     H40080   5.747   4.719   4.863  1.3841 -0.6593 -2.6035
  304MOL0     H40081   5.619   4.670   5.097 -0.4396 -0.8859  3.7643
  304MOL0     H40082   5.518   4.483   5.300 -1.4281 -1.9427  0.0979
  304MOL0     H40083   5.449   4.348   5.201 -1.0550 -0.5551 -3.4337
  304MOL0     H40084   5.321   4.471   5.079  3.1092 -0.5273 -0.4787
  304MOL0     H40085   5.359   4.628   5.135  0.4640 -0.4584 -0.4979
  304MOL0     H40086   5.246   4.439   5.355  2.7579 -0.1504  0.4938
  304MOL0     H40087   5.241   4.613   5.348  0.2673  0.4128 -0.7456
  304MOL0     H40088   5.032   4.518   5.314 -1.8418 -1.7486 -0.3588
  304MOL0     H40089   5.084   4.410   5.178 -2.8823 -1.4919  3.0289
  304MOL0     H40090   4.906   4.410   5.077 -2.1770 -0.5832 -0.5224
  304MOL0     H40091   4.670   4.419   4.992  0.1583 -0.3923  0.7879
  304MOL0     H40092   4.308   4.407   5.178 -0.3561 -2.1570 -0.7660
  304MOL0     H40093   4.064   4.341   5.142  1.0028  0.2709  0.3329
  304MOL0     H40094   3.804   4.321   5.058 -0.8395  1.1141 -1.1552
  304MOL0     H40095   3.922   4.198   4.991 -1.4487 -1.1631 -0.1401
  304MOL0     H40096   3.808   4.213   4.773  2.2612 -0.4141  2.5102
  304MOL0     H40097   3.680   4.313   4.858  0.8691  1.2228  0.3696
  304MOL0     H40098   3.614   4.126   4.991 -0.6229 -0.4786 -0.1588
  304MOL0     H40099   3.739   4.022   4.936 -4.0002 -1.8466  2.6819
  304MOL0     H40100   3.540   4.136   4.734 -1.4289 -0.1816 -0.3026
  304MOL0     H40101   3.652   4.006   4.705 -2.7793 -0.8929 -2.2673
  304MOL0     H40102   3.428   3.918   4.718  1.2597  0.7011 -0.7437
  304MOL0     H40103   3.412   3.997   4.883  0.6844  0.2348  1.7709
  304MOL0     H40104   3.448   3.775   4.956  0.3647 -2.2344 -1.0655
  304MOL0     H40105   3.601   3.853   4.972  0.7884 -1.2380  0.9065
  304MOL0     H40106   3.550   3.691   4.729  0.1883  1.9293 -0.6905
  304MOL0     H40107   3.698   3.786   4.750  0.1483  3.3077  1.9312
  304MOL0     H40108   3.742   3.555   4.817  2.3213 -0.7242  2.5596
  304MOL0     H40109   3.608   3.547   4.927 -0.8554  1.9699  1.1189
  304MOL0     H40110   4.051   4.552   4.777 -1.8676 -3.0550 -1.2439
  304MOL0     H40111   4.310   4.613   4.810  1.0218  0.5572  1.3600
  304MOL0     H40112   4.704   4.847   4.970 -2.0732  0.7985  6.1750
  304MOL0     H40113   4.948   4.831   5.030  1.2512 -0.0419  0.9544
  304MOL0     H40114   6.806   4.538   5.210 -1.6363  2.6212 -0.9635
  304MOL0     H40115   7.022   4.513   5.322 -0.5639 -0.4553 -1.7951
  304MOL0     H40116   7.311   4.804   5.817 -3.4675 -0.9124 -2.3125
  304MOL0     H40117   7.570   4.824   5.832  0.8416 -2.4254  1.2985
  304MOL0     H40118   7.785   4.784   5.482  0.8755 -2.0567 -2.1256
  304MOL0     H40119   7.841   4.617   5.508 -3.2645 -2.9746  2.8138
  304MOL0     H40120   8.014   4.796   5.525  3.0525 -0.3615  2.6820
  304MOL0     H40121   7.936   4.849   5.679  1.7433 -0.0681  1.6839
  304MOL0     H40122   8.033   4.568   5.626 -1.9717 -0.5927  0.1521
  304MOL0     H40123   7.958   4.637   5.780 -0.0487 -1.1270 -0.4294
  304MOL0     H40124   8.141   4.792   5.804 -2.0280  2.0487 -2.9623
  304MOL0     H40125   8.203   4.622   5.791 -2.2409 -0.0027  1.6776
  304MOL0     H40126   8.433   4.787   5.510  0.9248 -0.8553  1.5293
  304MOL0     H40127   7.603   4.573   5.481  1.6941  0.5186 -0.0936
  304MOL0     H40128   7.358   4.582   5.447  1.3523  0.9069 -0.6979
  305MOL0     O40129   3.327   7.342   9.190 -0.5573 -0.5598  0.2044
  305MOL0     C40130   3.308   7.237   9.133  1.1320  1.0223  1.0003
  305MOL0     O40131   3.394   7.135   9.131  0.1628 -0.5451  0.5748
  305MOL0     C40132   3.515   7.158   9.193 -0.2595  0.0650 -0.6674
  305MOL0     C40133   3.551   7.084   9.307  0.0012  0.4531  0.3944
  305MOL0     C40134   3.661   7.119   9.382 -0.0876  0.0743  0.0621
  305MOL0     C40135   3.756   7.204   9.339 -0.1706 -0.5735  0.7889
  305MOL0     O40136   3.865   7.234   9.419 -0.6085  0.0722  0.6874
  305MOL0     C40137   3.983   7.257   9.345  0.1424  0.3969  0.1245
  305MOL0     C40138   4.080   7.140   9.358 -0.4267  0.6739  0.4115
  305MOL0     C40139   4.173   7.148   9.478  0.2342  0.9905  0.0248
  305MOL0     C40140   4.293   7.231   9.463  0.0875  0.1749  1.6152
  305MOL0     C40141   4.407   7.177   9.554  0.2205 -0.0974  1.1014
  305MOL0     C40142   4.386   7.203   9.704  0.1495 -0.2171 -0.1670
  305MOL0     C40143   4.364   7.352   9.748 -0.6417 -0.1716  0.4037
  305MOL0     C40144   4.498   7.440   9.731 -0.4101  0.0353 -0.2610
  305MOL0     N40145   4.484   7.551   9.822 -0.3739 -0.2247 -1.1458
  305MOL0     C40146   4.510   7.567   9.958  0.1724 -0.4326  0.6131
  305MOL0     C40147   4.471   7.687   9.991 -1.0786 -0.5971 -0.8128
  305MOL0     C40148   4.495   7.744  10.128  0.5356 -0.4297 -0.6715
  305MOL0     C40149   4.382   7.697  10.218  0.2958  0.2635  0.8500
  305MOL0     C40150   4.324   7.815  10.296  0.1971  0.3026 -0.3307
  305MOL0     C40151   4.202   7.861  10.219 -0.6677 -0.5918 -0.0526
  305MOL0     O40152   4.135   7.977  10.290  0.0195 -0.0863 -0.6639
  305MOL0     C40153   4.012   8.023  10.249  0.2367  0.4924  0.4728
  305MOL0     C40154   3.949   8.113  10.332  0.2567  0.2405  0.4064
  305MOL0     C40155   3.815   8.160  10.315 -0.8195  0.9546 -0.5109
  305MOL0     C40156   3.755   8.112  10.198 -0.0218  0.7373  0.3714
  305MOL0     C40157   3.610   8.148  10.162  0.5170  1.1355  0.3378
  305MOL0     O40158   3.519   8.175  10.257 -0.2667  0.8132 -0.2327
  305MOL0     C40159   3.400   8.222  10.222  0.0648 -0.1024 -0.7736
  305MOL0     C40160   3.367   8.356  10.260 -0.6192 -0.1230  1.0805
  305MOL0     C40161   3.238   8.415  10.226 -0.2380 -0.0855  0.2330
  305MOL0     C40162   3.145   8.334  10.148  0.1036  0.4158 -0.6814
  305MOL0     O40163   3.029   8.384  10.106 -0.8105 -0.2210  0.7069
  305MOL0     C40164   2.976   8.508  10.147 -0.2455  0.0570 -0.5027
  305MOL0     C40165   2.849   8.533  10.071  0.1952 -0.9384  0.5189
  305MOL0     C40166   2.738   8.432  10.094  0.6170 -0.6148 -0.1483
  305MOL0     C40167   2.636   8.448   9.986 -0.2118  0.2102 -0.2850
  305MOL0     C40168   2.516   8.364  10.034  0.1608  0.0014  0.1771
  305MOL0     C40169   2.404   8.382   9.940  0.1520  0.4021  0.0160
  305MOL0     C40170   2.286   8.276   9.948 -0.3762  1.1967  0.5966
  305MOL0     C40171   2.151   8.339   9.903  0.0428  0.4054 -0.4493
  305MOL0    Cl40172   2.097   8.477  10.017 -0.2824  0.2921 -0.2870
  305MOL0     C40173   3.183   8.203  10.108  0.8667  0.5256  0.5214
  305MOL0     C40174   3.305   8.149  10.148  0.2322 -0.5657  0.4069
  305MOL0     O40175   3.589   8.150  10.045  0.1493 -0.3095 -0.1564
  305MOL0     C40176   3.821   8.018  10.113 -0.2793  0.1253 -1.0154
  305MOL0     C40177   3.947   7.969  10.132  0.3758 -0.2589 -1.1496
  305MOL0     N40178   4.403   7.749   9.886 -0.0555  0.6599  0.3275
  305MOL0     N40179   4.408   7.663   9.791 -0.1174  0.3877  0.8401
  305MOL0     C40180   3.724   7.280   9.226 -0.8408  1.2486  0.1919
  305MOL0     C40181   3.607   7.252   9.153  0.4811 -0.1528  0.7358
  305MOL0     C40182   3.186   7.221   9.047  0.6051 -0.1338  0.3130
  305MOL0     C40183   3.105   7.327   9.020 -0.0981  0.5111 -0.2990
  305MOL0     C40184   2.990   7.309   8.940  0.1844  0.0008  0.4621
  305MOL0     C40185   2.941   7.192   8.891 -1.4649  0.2144  0.3410
  305MOL0     O40186   2.833   7.201   8.818  0.3576  0.4225  0.3029
  305MOL0     C40187   2.751   7.087   8.809  1.3003  1.0718  0.2012
  305MOL0     C40188   2.607   7.112   8.751 -0.3211 -1.0659  0.2225
  305MOL0     C40189   2.531   7.222   8.822  0.1411  0.3037 -0.2630
  305MOL0     C40190   2.378   7.208   8.814  0.2047 -0.7981 -0.4105
  305MOL0     C40191   2.337   7.210   8.674  1.6275 -0.5643 -0.3847
  305MOL0     C40192   2.299   7.207   8.559  0.2961  0.5044  0.0070
  305MOL0     C40193   3.020   7.076   8.923  0.4829  0.1210 -0.4900
  305MOL0     C40194   3.140   7.091   9.003  0.5032 -0.3551 -0.3527
  305MOL0     H40195   3.493   6.999   9.341  0.5840  0.0413  0.3699
  305MOL0     H40196   3.686   7.064   9.473  0.3759 -0.5435 -0.4287
  305MOL0     H40197   4.028   7.348   9.385  0.6247  0.5618 -0.7723
  305MOL0     H40198   3.965   7.265   9.237  1.1649 -1.8830 -0.2791
  305MOL0     H40199   4.133   7.123   9.263 -0.8752  0.8886  0.1173
  305MOL0     H40200   4.024   7.048   9.374  0.9952 -0.5239 -1.1111
  305MOL0     H40201   4.193   7.044   9.506 -0.5855  0.6728 -0.5334
  305MOL0     H40202   4.115   7.181   9.565 -1.2171 -0.7289 -0.2313
  305MOL0     H40203   4.325   7.244   9.359 -2.6111  2.2109  0.9249
  305MOL0     H40204   4.269   7.332   9.497  1.3417  0.6514  1.1494
  305MOL0     H40205   4.495   7.234   9.521 -0.8952  0.1430 -1.6647
  305MOL0     H40206   4.422   7.076   9.516 -0.0040  1.0649 -2.3923
  305MOL0     H40207   4.483   7.173   9.745 -0.1754 -1.7157 -0.4685
  305MOL0     H40208   4.299   7.144   9.731 -1.9734  1.3421 -3.0992
  305MOL0     H40209   4.279   7.397   9.698 -1.0786 -0.0004  1.2759
  305MOL0     H40210   4.324   7.354   9.850  1.4717  2.0323  1.2995
  305MOL0     H40211   4.495   7.476   9.628  0.4627 -0.0132 -0.3054
  305MOL0     H40212   4.586   7.377   9.745 -0.6218  0.1305  1.7502
  305MOL0     H40213   4.577   7.508  10.019 -1.6686 -1.2534  1.9270
  305MOL0     H40214   4.501   7.853  10.119 -3.1107 -0.0671 -0.1936
  305MOL0     H40215   4.592   7.716  10.172 -0.1879  1.1847  2.2411
  305MOL0     H40216   4.428   7.620  10.280 -2.5742 -1.8629  0.5272
  305MOL0     H40217   4.302   7.641  10.168  0.8820 -3.0893  3.3194
  305MOL0     H40218   4.285   7.780  10.392  0.1235  2.5531  0.5128
  305MOL0     H40219   4.397   7.895  10.308 -1.8442  2.1798  0.1091
  305MOL0     H40220   4.135   7.776  10.209  2.4348 -3.1699 -0.5843
  305MOL0     H40221   4.240   7.901  10.124  0.2648  0.6096  0.7873
  305MOL0     H40222   4.008   8.145  10.417  1.1667  0.0357 -0.1376
  305MOL0     H40223   3.765   8.228  10.383 -0.1318 -0.9901  2.1268
  305MOL0     H40224   3.418   8.417  10.334 -3.4368 -0.9689  3.9418
  305MOL0     H40225   3.221   8.516  10.261  0.3598  0.8724 -2.0135
  305MOL0     H40226   3.045   8.590  10.123 -0.2426 -0.7129 -3.4530
  305MOL0     H40227   2.965   8.510  10.256 -1.4926 -0.7086 -0.6056
  305MOL0     H40228   2.867   8.527   9.963 -1.8130 -4.1578  0.2376
  305MOL0     H40229   2.812   8.634  10.090  1.2725  0.0664 -2.1527
  305MOL0     H40230   2.685   8.450  10.188 -2.0350 -2.5370 -1.1443
  305MOL0     H40231   2.771   8.328  10.092  3.1337  0.1279 -1.5552
  305MOL0     H40232   2.605   8.553   9.987  1.6315  0.8328  2.3917
  305MOL0     H40233   2.661   8.411   9.886  2.8989 -2.4587  1.2867
  305MOL0     H40234   2.485   8.397  10.133  1.3268 -1.9864  1.2646
  305MOL0     H40235   2.549   8.260  10.044 -0.8575 -0.4699 -1.0328
  305MOL0     H40236   2.439   8.377   9.836 -1.3189  1.3060 -0.5669
  305MOL0     H40237   2.361   8.483   9.950 -1.1925 -0.3897  4.5344
  305MOL0     H40238   2.304   8.192   9.880 -0.5127  1.2135  0.5396
  305MOL0     H40239   2.255   8.236  10.045  0.4545 -1.4612 -0.1559
  305MOL0     H40240   2.071   8.265   9.897  0.0109  0.4949 -1.2505
  305MOL0     H40241   2.178   8.387   9.808  1.4956 -0.3730 -0.4518
  305MOL0     H40242   3.111   8.157  10.041  2.3437  0.1169 -0.8420
  305MOL0     H40243   3.321   8.046  10.118 -0.9439 -0.1147 -1.9545
  305MOL0     H40244   3.764   7.975  10.031  0.6594  0.0142 -1.6252
  305MOL0     H40245   3.986   7.890  10.068  3.0713  2.1796 -2.7628
  305MOL0     H40246   3.790   7.360   9.196 -0.5270  0.4661 -1.2819
  305MOL0     H40247   3.568   7.323   9.081  1.3733 -0.3566  0.0163
  305MOL0     H40248   3.111   7.428   9.058 -3.3632  0.8186 -0.3178
  305MOL0     H40249   2.932   7.397   8.914 -1.6625 -0.5446  2.4083
  305MOL0     H40250   2.739   7.044   8.908  4.4941 -0.1573  0.1470
  305MOL0     H40251   2.801   7.013   8.746  4.5198  2.6899  0.6701
  305MOL0     H40252   2.614   7.129   8.643  3.2469 -0.3494  0.4559
  305MOL0     H40253   2.559   7.014   8.761 -0.2988 -0.9632  1.4153
  305MOL0     H40254   2.561   7.321   8.788 -3.5990  2.3310  1.6021
  305MOL0     H40255   2.563   7.208   8.926 -0.8049  1.9599  0.2957
  305MOL0     H40256   2.352   7.113   8.861 -1.3750  0.7228  2.0424
  305MOL0     H40257   2.331   7.288   8.872  4.0464  0.6872  0.9555
  305MOL0     H40258   2.263   7.192   8.459 -0.3373  3.9199 -0.3720
  305MOL0     H40259   2.989   6.979   8.885  0.3895 -1.4356  3.1855
  305MOL0     H40260   3.205   7.010   9.035  2.0469  0.8784 -0.2372
  306MOL0     O40261   1.765   8.750  10.087  0.6067 -0.4156  0.2489
  306MOL0     C40262   1.851   8.774  10.006 -0.0700 -0.2585 -0.1196
  306MOL0     O40263   1.858   8.727   9.874  0.1766 -0.1972 -0.7650
  306MOL0     C40264   1.746   8.662   9.820  0.0652  0.2890 -0.6707
  306MOL0     C40265   1.680   8.560   9.878 -0.6310 -0.0805  0.1181
  306MOL0     C40266   1.555   8.528   9.831 -0.5346  0.2224  0.5487
  306MOL0     C40267   1.509   8.575   9.708  0.3650 -0.5053  0.1566
  306MOL0     O40268   1.392   8.539   9.649  0.2515  0.0785 -0.5660
  306MOL0     C40269   1.328   8.414   9.687 -0.7060 -0.1935  0.7410
  306MOL0     C40270   1.218   8.454   9.782  0.2276 -0.6966 -0.2507
  306MOL0     C40271   1.136   8.340   9.822  0.4221  0.7103  0.0782
  306MOL0     C40272   1.011   8.387   9.898  0.0362 -0.0179 -0.2692
  306MOL0     C40273   0.919   8.276   9.945  0.5677 -0.0643 -0.9415
  306MOL0     C40274   0.977   8.189  10.058 -0.2452 -0.1630 -0.5422
  306MOL0     C40275   0.866   8.095  10.108  1.0925  0.5875 -0.2259
  306MOL0     C40276   0.912   7.995  10.211 -0.2811 -0.0802 -0.8640
  306MOL0     N40277   1.036   7.927  10.183  0.0480 -0.2395 -0.1211
  306MOL0     C40278   1.157   7.969  10.225  0.2194  0.7028  0.7954
  306MOL0     C40279   1.238   7.860  10.220 -0.2336  0.4294 -0.6172
  306MOL0     C40280   1.385   7.853  10.266 -0.0324  0.8196 -0.1516
  306MOL0     C40281   1.425   7.953  10.378 -0.0866  0.3343  0.2199
  306MOL0     C40282   1.568   7.921  10.429  0.1384  0.7843  0.0152
  306MOL0     C40283   1.620   8.024  10.534 -0.5997 -0.2147 -0.0523
  306MOL0     O40284   1.538   8.028  10.655 -0.3651  0.2290  0.1273
  306MOL0     C40285   1.554   7.930  10.753 -0.0549 -0.6249 -0.0720
  306MOL0     C40286   1.469   7.944  10.863  0.5709 -0.0193 -0.1945
  306MOL0     C40287   1.491   7.865  10.979  0.4112  0.1431 -0.9043
  306MOL0     C40288   1.603   7.780  10.984  0.1308 -0.9126  0.2385
  306MOL0     C40289   1.631   7.712  11.112  0.3235  0.0122 -0.2775
  306MOL0     O40290   1.564   7.741  11.224 -0.7250 -0.1479  0.9655
  306MOL0     C40291   1.594   7.659  11.333  0.4522  0.1999  0.1671
  306MOL0     C40292   1.683   7.700  11.431  1.1086  0.0683 -0.0341
  306MOL0     C40293   1.690   7.628  11.553  0.2617  0.7765 -0.3815
  306MOL0     C40294   1.618   7.512  11.572  0.1839 -0.6522  0.5448
  306MOL0     O40295   1.644   7.453  11.693 -0.2333 -0.6354 -0.4755
  306MOL0     C40296   1.584   7.327  11.726  0.8112  0.6237 -0.2534
  306MOL0     C40297   1.593   7.319  11.881 -0.2625  0.5967  0.5264
  306MOL0     C40298   1.463   7.361  11.949  0.2931 -0.0356 -0.8494
  306MOL0     C40299   1.447   7.515  11.934 -0.5499  0.6591  0.4798
  306MOL0     C40300   1.343   7.547  12.036  0.1567 -0.3374 -0.4902
  306MOL0     C40301   1.319   7.699  12.036 -0.5568  0.3600  0.2343
  306MOL0     C40302   1.240   7.745  11.919  0.3352 -0.5571 -0.7594
  306MOL0     C40303   1.093   7.690  11.922  0.0760  0.3043  0.4972
  306MOL0    Cl40304   0.994   7.831  11.878  0.3128 -0.2897 -0.2941
  306MOL0     C40305   1.532   7.466  11.462  0.0904 -0.1350  0.0015
  306MOL0     C40306   1.517   7.548  11.348 -0.1397 -0.8321 -0.9339
  306MOL0     O40307   1.736   7.641  11.115  0.9206  0.4893  0.2246
  306MOL0     C40308   1.682   7.762  10.868 -0.5901  0.2432 -0.1538
  306MOL0     C40309   1.657   7.840  10.758 -0.0079 -0.1655  0.1064
  306MOL0     N40310   1.167   7.753  10.170 -0.0388  0.5851  0.6379
  306MOL0     N40311   1.043   7.795  10.157  0.4139 -0.0690 -0.1593
  306MOL0     C40312   1.593   8.651   9.633 -0.9474  0.0103 -0.1687
  306MOL0     C40313   1.706   8.711   9.696  0.1311  0.4298  0.9376
  306MOL0     C40314   1.954   8.869  10.048 -0.4247 -0.8736 -0.0472
  306MOL0     C40315   2.071   8.902   9.972 -0.4086  0.6427  0.5623
  306MOL0     C40316   2.167   8.992  10.012 -0.2010 -0.1129  0.2325
  306MOL0     C40317   2.140   9.063  10.124  0.0241 -0.0253  0.3099
  306MOL0     O40318   2.233   9.151  10.172 -0.3197 -0.6888 -0.5248
  306MOL0     C40319   2.305   9.224  10.078 -0.1471 -0.2498 -0.4505
  306MOL0     C40320   2.359   9.341  10.140  0.3120 -0.6574  0.6690
  306MOL0     C40321   2.472   9.318  10.247  0.2479 -0.0532  0.6353
  306MOL0     C40322   2.596   9.240  10.211  0.0760 -0.8106  0.2244
  306MOL0     C40323   2.679   9.216  10.328  0.7001 -0.7166 -0.6840
  306MOL0     C40324   2.742   9.192  10.430  0.7801 -0.0941  0.1959
  306MOL0     C40325   2.029   9.045  10.201 -0.0668  0.3317 -0.5009
  306MOL0     C40326   1.935   8.945  10.164  0.7074  0.6543  1.0930
  306MOL0     H40327   1.720   8.514   9.968 -0.3367 -1.5190 -0.7025
  306MOL0     H40328   1.484   8.480   9.898 -0.9518  1.0474  0.7118
  306MOL0     H40329   1.397   8.340   9.729  1.1297  0.5009 -0.8956
  306MOL0     H40330   1.290   8.372   9.594  0.1532  0.4010  0.1123
  306MOL0     H40331   1.141   8.518   9.738 -1.2529 -3.3491 -1.8024
  306MOL0     H40332   1.263   8.511   9.864 -1.0879  1.2674 -0.8052
  306MOL0     H40333   1.185   8.273   9.893 -0.0617  0.5784  0.2924
  306MOL0     H40334   1.120   8.278   9.733  2.0219  1.1513 -0.5497
  306MOL0     H40335   1.049   8.444   9.983  1.5967 -2.3291  0.6842
  306MOL0     H40336   0.949   8.451   9.834 -1.3462  0.5399  1.5402
  306MOL0     H40337   0.873   8.227   9.859  5.2147 -0.5998 -3.4077
  306MOL0     H40338   0.842   8.333   9.999 -0.4729  0.3219 -2.7611
  306MOL0     H40339   1.016   8.254  10.136  1.6517 -0.2715 -1.3391
  306MOL0     H40340   1.063   8.131  10.023 -0.4619 -0.4438 -0.6147
  306MOL0     H40341   0.786   8.151  10.157  1.7580 -1.9734  4.2840
  306MOL0     H40342   0.828   8.046  10.018 -1.4120 -0.3063  1.2330
  306MOL0     H40343   0.830   7.926  10.236  1.7515 -2.8526 -1.4163
  306MOL0     H40344   0.923   8.044  10.309 -0.5654  0.6255 -1.1779
  306MOL0     H40345   1.189   8.064  10.267  0.3624  0.7395  0.6056
  306MOL0     H40346   1.452   7.875  10.182  0.9272 -1.1717  0.0141
  306MOL0     H40347   1.406   7.750  10.299  1.6114  1.1296 -0.1638
  306MOL0     H40348   1.369   7.960  10.472  1.2232  1.3083  0.9735
  306MOL0     H40349   1.431   8.055  10.338  1.1340 -0.0571 -0.6160
  306MOL0     H40350   1.565   7.819  10.469  2.7006  0.5359 -0.2344
  306MOL0     H40351   1.630   7.927  10.339  1.7893 -1.4312  0.9205
  306MOL0     H40352   1.610   8.116  10.476 -2.2365 -0.4057 -0.1336
  306MOL0     H40353   1.724   8.022  10.566 -1.4388 -1.0140  2.9337
  306MOL0     H40354   1.402   8.030  10.871  3.1570  2.0148  0.9183
  306MOL0     H40355   1.434   7.896  11.066  1.8719 -0.7529  0.4153
  306MOL0     H40356   1.749   7.786  11.422 -0.8004  1.9642  2.5285
  306MOL0     H40357   1.752   7.658  11.637 -0.6402 -1.1365  1.0454
  306MOL0     H40358   1.638   7.248  11.673 -2.5052 -0.5960 -2.1048
  306MOL0     H40359   1.479   7.326  11.693  1.3771 -0.7037 -2.1510
  306MOL0     H40360   1.673   7.386  11.914  1.0380 -0.0963 -1.0983
  306MOL0     H40361   1.611   7.218  11.920 -0.7759 -0.2779 -1.3650
  306MOL0     H40362   1.472   7.337  12.056  0.1089 -0.1038 -0.8490
  306MOL0     H40363   1.375   7.308  11.912 -0.0580 -2.2362  2.6091
  306MOL0     H40364   1.543   7.561  11.958 -0.5494  0.4086  0.9702
  306MOL0     H40365   1.430   7.538  11.828  1.3472 -1.2893 -0.3317
  306MOL0     H40366   1.376   7.531  12.139 -2.2194 -2.1904  0.0967
  306MOL0     H40367   1.246   7.501  12.016  0.0972 -0.6357  0.4366
  306MOL0     H40368   1.416   7.750  12.028  0.3975 -1.3388  0.5954
  306MOL0     H40369   1.282   7.732  12.134 -0.5649  1.5325 -0.1452
  306MOL0     H40370   1.241   7.853  11.930  1.5229 -0.4494 -1.7251
  306MOL0     H40371   1.288   7.719  11.824 -2.2442 -0.1094 -2.3002
  306MOL0     H40372   1.064   7.656  12.022 -0.7801  1.6282  0.7245
  306MOL0     H40373   1.072   7.620  11.840 -1.8745  0.5005  0.7852
  306MOL0     H40374   1.475   7.374  11.462 -1.3742  0.7276  1.0198
  306MOL0     H40375   1.459   7.518  11.261 -2.0274  0.2989 -0.1280
  306MOL0     H40376   1.753   7.679  10.871  0.4876  1.1353  2.1941
  306MOL0     H40377   1.722   7.821  10.673 -0.5453  0.6595 -0.4970
  306MOL0     H40378   1.545   8.666   9.536 -0.4458 -1.8771 -0.7429
  306MOL0     H40379   1.777   8.778   9.649  1.8899 -1.0180  1.3981
  306MOL0     H40380   2.095   8.845   9.882  1.1654  0.4978  1.0356
  306MOL0     H40381   2.258   8.989   9.953  0.3728  0.0799  1.0966
  306MOL0     H40382   2.239   9.259   9.998  1.5755 -0.3088 -1.9645
  306MOL0     H40383   2.386   9.171  10.027  0.2470 -0.5729  0.4901
  306MOL0     H40384   2.384   9.414  10.063 -2.0633 -2.3139 -1.8531
  306MOL0     H40385   2.282   9.397  10.194  0.8621  1.7529 -0.9162
  306MOL0     H40386   2.425   9.270  10.334 -1.3432  1.6159  0.7422
  306MOL0     H40387   2.484   9.415  10.296 -1.0880 -0.9109  2.8580
  306MOL0     H40388   2.557   9.149  10.164  4.7508 -4.4614  2.6150
  306MOL0     H40389   2.656   9.290  10.135 -0.4271 -4.5739 -2.9770
  306MOL0     H40390   2.802   9.182  10.518 -0.4632 -1.9570  0.8809
  306MOL0     H40391   2.016   9.104  10.290 -0.2793  0.5791 -0.6968
  306MOL0     H40392   1.841   8.927  10.216  0.1522  1.3910  0.3603
  307MOL0     O40393   3.678   3.800   2.038 -0.0878  0.1194  0.1418
  307MOL0     C40394   3.755   3.760   2.133  0.5985 -0.1132  0.7803
  307MOL0     O40395   3.729   3.664   2.226  1.1951  0.2191 -0.2778
  307MOL0     C40396   3.608   3.617   2.232  0.8124  0.5222  0.3372
  307MOL0     C40397   3.585   3.494   2.188 -0.0674  0.9306  0.7073
  307MOL0     C40398   3.460   3.433   2.198 -0.7406  0.3609  0.2145
  307MOL0     C40399   3.349   3.503   2.237  0.6995  0.3068 -0.4580
  307MOL0     O40400   3.236   3.428   2.242 -0.8027 -0.1714  0.6785
  307MOL0     C40401   3.127   3.502   2.297  0.3303 -0.1852 -0.1152
  307MOL0     C40402   3.005   3.406   2.288 -0.8784  0.9766  0.3037
  307MOL0     C40403   2.977   3.381   2.145 -0.6634 -0.0840  0.7289
  307MOL0     C40404   2.848   3.307   2.117 -0.0326  0.6007  0.1375
  307MOL0     C40405   2.734   3.401   2.146  1.3731  1.1301 -0.5960
  307MOL0     C40406   2.701   3.499   2.026  0.4607  0.1148 -0.7804
  307MOL0     C40407   2.558   3.548   2.025 -0.2095  0.0475 -0.4355
  307MOL0     C40408   2.513   3.616   1.899 -0.0526 -0.3182 -0.0382
  307MOL0     N40409   2.378   3.668   1.921  0.1141 -0.0926 -0.0434
  307MOL0     C40410   2.338   3.805   1.919  0.0636  0.3221 -0.2676
  307MOL0     C40411   2.208   3.798   1.947 -0.2729  0.9982 -0.9694
  307MOL0     C40412   2.124   3.918   1.980 -0.2288 -0.4381 -0.0944
  307MOL0     C40413   1.984   3.887   2.045 -1.3270 -0.0018  0.8389
  307MOL0     C40414   1.979   3.878   2.198 -0.0372  0.1582 -0.2694
  307MOL0     C40415   1.838   3.908   2.240  0.2695 -0.0338 -0.5365
  307MOL0     O40416   1.824   3.912   2.382 -0.5395  0.3259 -0.2467
  307MOL0     C40417   1.703   3.963   2.428 -0.0378 -0.8998  0.6061
  307MOL0     C40418   1.693   4.008   2.555  0.3884 -0.4176 -0.6847
  307MOL0     C40419   1.564   4.057   2.601 -0.6440  0.5045  0.4011
  307MOL0     C40420   1.453   4.061   2.517 -0.4430  0.5721  0.1465
  307MOL0     C40421   1.318   4.110   2.556 -0.2985 -1.1470 -0.5840
  307MOL0     O40422   1.303   4.138   2.688  0.1839 -0.2263 -0.6178
  307MOL0     C40423   1.186   4.103   2.754  0.1916 -0.2282 -0.2231
  307MOL0     C40424   1.191   4.108   2.893 -0.5222  0.4871  0.0411
  307MOL0     C40425   1.076   4.076   2.963 -0.2987  0.3015  0.0658
  307MOL0     C40426   0.954   4.037   2.901 -0.3328 -0.8218  0.0949
  307MOL0     O40427   0.840   4.012   2.969  0.3765 -0.4891 -0.5342
  307MOL0     C40428   0.841   3.988   3.111  0.2112 -0.3272  0.7715
  307MOL0     C40429   0.732   3.889   3.174 -0.1415  0.0372  0.3386
  307MOL0     C40430   0.741   3.883   3.327  0.4385  0.0872 -0.0608
  307MOL0     C40431   0.698   4.018   3.381 -0.1108 -0.8298 -0.8286
  307MOL0     C40432   0.685   4.019   3.537  0.1798  0.1422  0.0077
  307MOL0     C40433   0.648   4.160   3.589 -0.3258  0.0763 -0.4382
  307MOL0     C40434   0.531   4.161   3.696  0.6506  0.4949  0.4006
  307MOL0     C40435   0.526   4.302   3.754 -0.3231 -1.0506 -0.2079
  307MOL0    Cl40436   0.389   4.306   3.871  0.0388 -0.1484 -0.2412
  307MOL0     C40437   0.947   4.037   2.765 -0.6242  0.3430 -0.0837
  307MOL0     C40438   1.060   4.067   2.688 -0.5967  0.0710  0.6995
  307MOL0     O40439   1.239   4.129   2.461 -0.2374  0.3244  0.1164
  307MOL0     C40440   1.478   4.018   2.383  1.0336 -0.7509  0.0728
  307MOL0     C40441   1.594   3.960   2.343  0.0051  0.2839  0.5040
  307MOL0     N40442   2.168   3.664   1.938  0.1729  0.6458  0.0826
  307MOL0     N40443   2.265   3.589   1.913  0.1941 -0.9664  0.1500
  307MOL0     C40444   3.371   3.635   2.288 -0.1439  0.3539 -0.0047
  307MOL0     C40445   3.498   3.684   2.279 -0.1835 -0.4879  0.1056
  307MOL0     C40446   3.898   3.808   2.110  0.7160 -0.1866 -1.2485
  307MOL0     C40447   3.930   3.923   2.036 -0.4716  0.1836 -0.1111
  307MOL0     C40448   4.050   3.986   2.035  0.0976 -0.3569  0.8737
  307MOL0     C40449   4.150   3.936   2.115 -0.5582 -0.3967 -0.3588
  307MOL0     O40450   4.269   4.013   2.114  0.6407 -0.7520  0.4222
  307MOL0     C40451   4.374   3.994   2.209  0.0867 -0.4136  0.1473
  307MOL0     C40452   4.445   4.132   2.238  1.0559 -0.2400  0.9510
  307MOL0     C40453   4.572   4.139   2.324 -0.1960 -0.1200 -0.2040
  307MOL0     C40454   4.675   4.035   2.273  0.3458  0.1997  0.9341
  307MOL0     C40455   4.817   4.067   2.325  0.5820 -0.3563 -1.1263
  307MOL0     C40456   4.920   4.103   2.374  0.0362  0.4878 -0.9406
  307MOL0     C40457   4.129   3.812   2.191 -1.2181  0.0106  0.3908
  307MOL0     C40458   4.001   3.752   2.185 -0.4792  0.0283 -0.1181
  307MOL0     H40459   3.668   3.430   2.162 -1.3244 -1.1461  1.5776
  307MOL0     H40460   3.455   3.326   2.179  1.4101  0.3061 -0.2401
  307MOL0     H40461   3.106   3.589   2.234  2.2172 -1.1024 -2.1650
  307MOL0     H40462   3.155   3.543   2.394  1.3976  0.9175 -0.8569
  307MOL0     H40463   2.921   3.454   2.339 -1.5935  0.4207 -0.3187
  307MOL0     H40464   3.020   3.309   2.336 -0.8870  1.3513  1.0867
  307MOL0     H40465   3.054   3.317   2.102 -2.5194 -0.3451 -2.5699
  307MOL0     H40466   2.993   3.479   2.100 -0.6931  0.6599  2.2706
  307MOL0     H40467   2.856   3.263   2.017  2.1817 -0.6218  0.7736
  307MOL0     H40468   2.829   3.231   2.193 -0.1237 -1.8357 -2.1745
  307MOL0     H40469   2.732   3.452   2.243  0.8323  0.3108 -0.1686
  307MOL0     H40470   2.651   3.330   2.148 -0.7239  3.3408  2.4148
  307MOL0     H40471   2.723   3.442   1.935 -0.1930 -3.1644  0.9498
  307MOL0     H40472   2.764   3.589   2.024  1.8021 -0.7391  0.7156
  307MOL0     H40473   2.489   3.465   2.044 -1.5144  1.0451 -0.6642
  307MOL0     H40474   2.543   3.616   2.110  0.9153  0.9999 -0.9665
  307MOL0     H40475   2.519   3.551   1.811  0.5281 -2.1246  1.2789
  307MOL0     H40476   2.572   3.707   1.890 -2.8871  1.7814  1.1248
  307MOL0     H40477   2.401   3.892   1.904 -0.7776  0.9613 -0.1499
  307MOL0     H40478   2.109   3.968   1.884 -2.0111 -1.1115 -0.1988
  307MOL0     H40479   2.186   3.977   2.048 -2.4870 -0.9874  2.5974
  307MOL0     H40480   1.937   3.794   2.013 -2.4170 -0.3759  3.3384
  307MOL0     H40481   1.916   3.971   2.025 -2.7675 -1.4277 -0.5301
  307MOL0     H40482   2.004   3.774   2.222  3.2977  0.9726  0.2125
  307MOL0     H40483   2.047   3.944   2.251  0.2426  0.6282 -1.1945
  307MOL0     H40484   1.774   3.832   2.193  1.2998 -0.2869 -1.5813
  307MOL0     H40485   1.810   4.006   2.199 -1.0975  0.4897  1.5251
  307MOL0     H40486   1.777   3.991   2.621 -0.0706 -0.4316 -0.0905
  307MOL0     H40487   1.551   4.082   2.706  1.8825 -2.3041  1.5575
  307MOL0     H40488   1.289   4.123   2.939 -0.0196 -1.2759 -0.3717
  307MOL0     H40489   1.078   4.090   3.071  1.0242  2.9411 -0.2213
  307MOL0     H40490   0.826   4.088   3.154 -4.1356  0.2104 -1.3899
  307MOL0     H40491   0.935   3.937   3.129  1.2770  1.2694 -0.0287
  307MOL0     H40492   0.763   3.786   3.155 -1.5270  0.0300 -2.4945
  307MOL0     H40493   0.629   3.912   3.145 -0.4026 -0.7582  0.6236
  307MOL0     H40494   0.843   3.855   3.356  0.6732  1.5328  0.6025
  307MOL0     H40495   0.670   3.811   3.369 -1.9021  1.8014 -0.9472
  307MOL0     H40496   0.770   4.097   3.357 -1.3924  0.9215  0.7708
  307MOL0     H40497   0.596   4.036   3.347 -0.9231 -1.9153  0.9022
  307MOL0     H40498   0.782   3.994   3.582  1.2150  3.9156  0.1834
  307MOL0     H40499   0.608   3.944   3.560  0.0727  0.6249  1.2471
  307MOL0     H40500   0.618   4.235   3.515  0.7769  1.8187  0.7854
  307MOL0     H40501   0.732   4.196   3.649 -0.8044 -0.6389  0.6977
  307MOL0     H40502   0.439   4.135   3.644  1.2340 -2.0977  0.4883
  307MOL0     H40503   0.537   4.086   3.776  3.1018  2.0576  1.8370
  307MOL0     H40504   0.513   4.373   3.671  1.3666  2.0597  1.9779
  307MOL0     H40505   0.621   4.327   3.803 -1.4122  3.3247  0.1394
  307MOL0     H40506   0.853   4.014   2.716  0.5383  0.0115 -2.3219
  307MOL0     H40507   1.037   4.066   2.582  0.4649  2.9115  0.3496
  307MOL0     H40508   1.404   4.025   2.304 -1.3131 -0.7057  2.1441
  307MOL0     H40509   1.587   3.919   2.243 -3.2295  0.3109  0.6128
  307MOL0     H40510   3.291   3.691   2.335 -0.3843  1.7343 -1.9518
  307MOL0     H40511   3.516   3.787   2.306 -1.3145  0.4563 -2.4135
  307MOL0     H40512   3.859   3.980   1.976 -1.7282 -2.5689 -1.4326
  307MOL0     H40513   4.071   4.075   1.978 -0.9860 -1.5121 -1.4891
  307MOL0     H40514   4.442   3.917   2.172  2.1040  2.1676 -1.9141
  307MOL0     H40515   4.354   3.962   2.312 -2.0226  1.1645  0.2865
  307MOL0     H40516   4.468   4.175   2.140  2.8688 -0.5289  1.2066
  307MOL0     H40517   4.367   4.189   2.289 -1.5167 -4.3841  2.0659
  307MOL0     H40518   4.543   4.109   2.426 -1.7138 -1.1772 -0.9024
  307MOL0     H40519   4.603   4.244   2.320  1.6188 -0.6150 -4.3976
  307MOL0     H40520   4.635   3.935   2.293 -0.1156  0.2390  0.2191
  307MOL0     H40521   4.684   4.044   2.165  0.8449  0.9074  1.0323
  307MOL0     H40522   5.015   4.134   2.414 -0.0930  0.8812 -0.9381
  307MOL0     H40523   4.210   3.780   2.256  2.5563  0.4430 -3.5890
  307MOL0     H40524   3.973   3.672   2.253  0.9980 -2.3267 -2.1203
  308MOL0     O40525   6.305   3.140   0.237 -0.4142 -0.0339 -0.3629
  308MOL0     C40526   6.229   3.237   0.218 -0.3286  0.8025 -1.1893
  308MOL0     O40527   6.251   3.363   0.247  0.2999 -0.0996  0.4416
  308MOL0     C40528   6.370   3.391   0.310  0.6304 -1.2894  0.0568
  308MOL0     C40529   6.462   3.467   0.245 -0.0561  0.0732  0.7156
  308MOL0     C40530   6.586   3.501   0.304 -0.4656 -0.2640 -0.5190
  308MOL0     C40531   6.614   3.459   0.439  0.5641 -0.1027 -0.3759
  308MOL0     O40532   6.718   3.493   0.523  0.4474 -0.0982  0.3557
  308MOL0     C40533   6.794   3.598   0.459  0.9714  0.9226 -0.5215
  308MOL0     C40534   6.922   3.629   0.536 -0.4509  0.7264 -0.3171
  308MOL0     C40535   7.033   3.522   0.527  0.3786 -0.5950 -0.2122
  308MOL0     C40536   7.135   3.543   0.634  0.1899 -0.0684 -0.4853
  308MOL0     C40537   7.188   3.686   0.664 -0.2886  1.2721  0.2396
  308MOL0     C40538   7.247   3.755   0.545  0.4452  0.0326 -0.7709
  308MOL0     C40539   7.360   3.688   0.460  0.5816  0.4296  0.6037
  308MOL0     C40540   7.390   3.776   0.340 -1.1336 -0.5831  0.0390
  308MOL0     N40541   7.274   3.765   0.248  0.7088  0.2512  0.1067
  308MOL0     C40542   7.258   3.665   0.156 -0.1830  0.0362 -0.7187
  308MOL0     C40543   7.154   3.702   0.083  0.0101  0.1667 -0.3078
  308MOL0     C40544   7.081   3.626  -0.032  0.4464 -0.0197  0.5299
  308MOL0     C40545   6.960   3.541   0.024 -0.2438 -0.1667  0.6282
  308MOL0     C40546   6.906   3.457  -0.096 -0.0992  0.1796  0.7378
  308MOL0     C40547   6.773   3.379  -0.087  0.1922  0.4836  0.5572
  308MOL0     O40548   6.649   3.464  -0.077  0.0157 -0.2367  0.5496
  308MOL0     C40549   6.530   3.403  -0.111 -0.5408  1.4238 -0.4722
  308MOL0     C40550   6.513   3.258  -0.090  1.5943 -0.3816  0.6647
  308MOL0     C40551   6.382   3.214  -0.105 -0.3093  0.1870  0.0075
  308MOL0     C40552   6.273   3.295  -0.145 -0.6028 -0.7100  0.6232
  308MOL0     C40553   6.147   3.231  -0.167  0.5886  0.2630  0.2030
  308MOL0     O40554   6.149   3.091  -0.146 -0.0127 -0.2482 -0.2762
  308MOL0     C40555   6.050   3.003  -0.174 -0.1437  0.9580 -0.0577
  308MOL0     C40556   5.916   3.024  -0.183  0.8758  0.3715 -0.3714
  308MOL0     C40557   5.826   2.921  -0.206  0.2259 -1.0775  1.3379
  308MOL0     C40558   5.865   2.789  -0.216 -0.9436  0.2395  0.1685
  308MOL0     O40559   5.782   2.676  -0.237 -0.5006 -0.8641  0.8890
  308MOL0     C40560   5.647   2.691  -0.201  0.2876 -0.7772 -0.6730
  308MOL0     C40561   5.563   2.569  -0.202 -0.4966 -1.0680 -0.4855
  308MOL0     C40562   5.429   2.600  -0.136  0.3881 -0.3310 -0.3283
  308MOL0     C40563   5.334   2.694  -0.212  0.4740  0.0819  0.4036
  308MOL0     C40564   5.195   2.702  -0.154  0.7277  0.0676  0.0585
  308MOL0     C40565   5.097   2.779  -0.241  0.4289 -1.3275 -0.0069
  308MOL0     C40566   4.955   2.770  -0.176 -0.3891 -0.8675 -0.3041
  308MOL0     C40567   4.864   2.849  -0.258 -1.0104  0.5782 -0.2987
  308MOL0    Cl40568   4.694   2.797  -0.194 -0.6056  0.2963  0.0159
  308MOL0     C40569   6.008   2.760  -0.208 -0.3046 -0.4369 -0.8275
  308MOL0     C40570   6.097   2.867  -0.182 -0.1310 -0.2593 -0.3861
  308MOL0     O40571   6.056   3.294  -0.209  0.2654  0.3641 -0.3888
  308MOL0     C40572   6.298   3.434  -0.172 -1.0647  0.3619  0.3095
  308MOL0     C40573   6.423   3.481  -0.152  0.0569 -0.1200  0.2713
  308MOL0     N40574   7.104   3.824   0.135  0.4698 -0.4682  0.2392
  308MOL0     N40575   7.179   3.859   0.229 -0.3983 -0.7076 -0.3916
  308MOL0     C40576   6.520   3.367   0.497  0.8584 -0.4027 -0.9708
  308MOL0     C40577   6.396   3.334   0.441 -0.3332  0.2709  0.2333
  308MOL0     C40578   6.092   3.206   0.177 -0.1957  0.0833 -0.2287
  308MOL0     C40579   5.991   3.299   0.182  0.6741  0.7227 -0.2780
  308MOL0     C40580   5.854   3.256   0.176  0.8529  0.0135 -0.2315
  308MOL0     C40581   5.820   3.124   0.159  0.4442  0.2130  0.6139
  308MOL0     O40582   5.688   3.086   0.145 -0.0097 -0.1472  0.1100
  308MOL0     C40583   5.578   3.162   0.191 -0.4043 -0.3854  0.2319
  308MOL0     C40584   5.465   3.069   0.217 -0.0406  0.0440  0.4757
  308MOL0     C40585   5.331   3.152   0.233  0.4080  0.3948  0.0985
  308MOL0     C40586   5.271   3.189   0.093  0.7517  0.3976 -1.0559
  308MOL0     C40587   5.125   3.223   0.105 -0.1577  0.0707 -0.2911
  308MOL0     C40588   5.006   3.248   0.105  0.6869 -0.5321 -0.8828
  308MOL0     C40589   5.921   3.035   0.131 -0.0849  1.5242 -0.0855
  308MOL0     C40590   6.056   3.076   0.148 -1.3391 -0.1614  0.3292
  308MOL0     H40591   6.437   3.478   0.140  1.2090  0.5395  0.4428
  308MOL0     H40592   6.659   3.559   0.249 -1.1430 -0.1641 -1.3308
  308MOL0     H40593   6.732   3.689   0.458  0.8996  0.8938  0.3348
  308MOL0     H40594   6.833   3.572   0.361  2.5711 -0.9346  0.5502
  308MOL0     H40595   6.892   3.617   0.640 -1.3297 -3.4266 -0.8812
  308MOL0     H40596   6.959   3.730   0.515 -1.2659  0.5738 -2.7723
  308MOL0     H40597   7.089   3.531   0.433  2.9551 -2.0981  1.0459
  308MOL0     H40598   6.996   3.419   0.523 -3.0666  0.3637  2.4199
  308MOL0     H40599   7.077   3.514   0.723 -2.2885  0.9700 -1.6556
  308MOL0     H40600   7.221   3.477   0.620  1.6369  1.0698  2.2335
  308MOL0     H40601   7.247   3.673   0.755 -3.3740 -2.7280  1.9360
  308MOL0     H40602   7.102   3.740   0.703 -2.4728  0.4435 -3.0077
  308MOL0     H40603   7.287   3.852   0.576 -3.1367  1.1902  0.6963
  308MOL0     H40604   7.159   3.771   0.482  1.1581  0.8019 -1.6103
  308MOL0     H40605   7.455   3.671   0.512  1.0146 -2.8620 -1.0014
  308MOL0     H40606   7.324   3.595   0.416  0.5594  1.1788 -1.0542
  308MOL0     H40607   7.476   3.742   0.281 -1.8822 -1.1537 -0.7642
  308MOL0     H40608   7.405   3.881   0.366 -0.4603 -0.6980  0.1232
  308MOL0     H40609   7.316   3.574   0.147  0.6196  0.4474  0.1790
  308MOL0     H40610   7.153   3.555  -0.073  0.7515  0.3974  0.3451
  308MOL0     H40611   7.042   3.694  -0.108  2.0709 -1.1844 -1.4165
  308MOL0     H40612   6.884   3.612   0.058  0.2511  0.6693  0.0223
  308MOL0     H40613   6.977   3.475   0.110  0.5093 -1.1397 -0.2449
  308MOL0     H40614   6.883   3.529  -0.175 -2.2321 -1.9945 -0.7714
  308MOL0     H40615   6.988   3.387  -0.117  1.4856  2.4499 -1.2071
  308MOL0     H40616   6.788   3.307  -0.007  1.0791 -1.9699 -1.6635
  308MOL0     H40617   6.763   3.319  -0.178 -1.6262  0.9725  0.3938
  308MOL0     H40618   6.585   3.204  -0.029  2.8786  0.9882  0.4435
  308MOL0     H40619   6.370   3.109  -0.081  2.0757 -0.6454 -2.0709
  308MOL0     H40620   5.879   3.124  -0.162  0.9187 -0.2344  3.1441
  308MOL0     H40621   5.723   2.946  -0.231  1.0409  2.3869  0.9822
  308MOL0     H40622   5.605   2.766  -0.269 -1.3579 -0.7828  0.2858
  308MOL0     H40623   5.644   2.739  -0.102 -0.8648 -0.6723 -0.7462
  308MOL0     H40624   5.598   2.474  -0.161  0.3825 -2.0395 -3.2232
  308MOL0     H40625   5.545   2.547  -0.308  0.0191 -2.2036 -0.3538
  308MOL0     H40626   5.450   2.646  -0.038 -2.7126 -3.1144  1.8928
  308MOL0     H40627   5.385   2.500  -0.120 -0.5112 -0.1597 -1.5847
  308MOL0     H40628   5.377   2.794  -0.223 -1.1616  1.1365  2.8227
  308MOL0     H40629   5.317   2.666  -0.316  0.5427 -1.2530  0.7398
  308MOL0     H40630   5.198   2.753  -0.057 -0.9743  0.0208  0.1532
  308MOL0     H40631   5.156   2.600  -0.149  1.4420 -0.2741 -0.9252
  308MOL0     H40632   5.101   2.745  -0.345 -0.7404 -1.4561 -0.0291
  308MOL0     H40633   5.127   2.884  -0.238  1.0320 -1.5156  1.0545
  308MOL0     H40634   4.923   2.666  -0.173  0.8194 -1.2449  0.9156
  308MOL0     H40635   4.958   2.802  -0.071  3.0051 -3.9734  0.7745
  308MOL0     H40636   4.880   2.813  -0.361 -0.0897 -4.5415  1.3330
  308MOL0     H40637   4.878   2.955  -0.236 -3.2377  0.3849  2.5697
  308MOL0     H40638   6.045   2.661  -0.230 -0.4211 -0.4501 -0.9642
  308MOL0     H40639   6.203   2.843  -0.182 -0.3555 -1.4456 -2.1511
  308MOL0     H40640   6.219   3.506  -0.192 -0.8282  0.7735  0.8357
  308MOL0     H40641   6.454   3.584  -0.166 -2.0037  0.7496  1.7141
  308MOL0     H40642   6.530   3.351   0.604  3.3584  5.0513 -0.0215
  308MOL0     H40643   6.315   3.281   0.490  0.2580  0.7808  1.8227
  308MOL0     H40644   6.007   3.406   0.188  1.3469  0.5667  1.0318
  308MOL0     H40645   5.774   3.326   0.197  1.5599 -0.0332  3.1911
  308MOL0     H40646   5.542   3.234   0.117 -2.1295 -1.9867 -0.5821
  308MOL0     H40647   5.603   3.212   0.285  0.1675  0.9292 -0.5952
  308MOL0     H40648   5.449   2.988   0.146  1.6009 -0.3996  0.5733
  308MOL0     H40649   5.492   3.021   0.312 -1.6919 -0.4399  0.7325
  308MOL0     H40650   5.354   3.244   0.288  0.5346  0.8143 -0.6396
  308MOL0     H40651   5.255   3.097   0.290 -0.1201  0.5189 -0.4846
  308MOL0     H40652   5.320   3.274   0.045 -2.2548  1.9202 -1.7073
  308MOL0     H40653   5.280   3.106   0.022  1.1107 -0.0800 -0.4570
  308MOL0     H40654   4.903   3.273   0.117  1.0312  0.0162  1.5750
  308MOL0     H40655   5.907   2.931   0.104  1.0323  1.4263 -0.3176
  308MOL0     H40656   6.129   2.998   0.130  5.1048  5.0354  0.0830
  309MOL0     O40657   8.812  10.568   2.838 -0.1172 -0.2390 -0.0869
  309MOL0     C40658   8.748  10.669   2.820 -0.1433 -1.0353 -0.5462
  309MOL0     O40659   8.797  10.791   2.847  0.9319 -0.4131  0.6725
  309MOL0     C40660   8.929  10.801   2.869 -0.6861 -0.4839 -0.7662
  309MOL0     C40661   9.030  10.761   2.782 -0.0035 -0.8537  0.4327
  309MOL0     C40662   9.154  10.794   2.807  0.3957  0.1413  0.6808
  309MOL0     C40663   9.190  10.863   2.925  0.4305 -0.4593 -0.0830
  309MOL0     O40664   9.321  10.894   2.953  0.1638 -0.6593 -0.1474
  309MOL0     C40665   9.392  10.948   2.848 -0.1831 -0.9930 -0.2310
  309MOL0     C40666   9.521  10.999   2.911  0.1109 -0.4246 -0.3907
  309MOL0     C40667   9.624  11.039   2.812  0.0218  1.4041  0.4918
  309MOL0     C40668   9.756  11.107   2.853  0.0366  1.1337 -0.2073
  309MOL0     C40669   9.842  11.163   2.745 -0.4024 -0.1836  0.3692
  309MOL0     C40670   9.949  11.268   2.779 -0.3178 -0.3924  0.3160
  309MOL0     C40671   9.888  11.405   2.828 -0.1952 -0.1730 -0.0990
  309MOL0     C40672   9.986  11.516   2.865 -0.3471 -0.3286 -0.5759
  309MOL0     N40673   9.918  11.632   2.921  0.4413  0.1831 -0.0267
  309MOL0     C40674   9.920  11.672   3.046 -0.5060  0.7301  1.1239
  309MOL0     C40675   9.813  11.757   3.058 -0.3917  0.6358 -0.3602
  309MOL0     C40676   9.779  11.842   3.176  0.7731 -0.3211  0.0989
  309MOL0     C40677   9.648  11.808   3.248 -0.2087  1.1113 -0.5147
  309MOL0     C40678   9.533  11.870   3.164 -0.6664 -0.0651  0.5244
  309MOL0     C40679   9.403  11.866   3.252  0.6105 -0.4749 -0.5049
  309MOL0     O40680   9.388  11.992   3.326 -1.1629 -0.5352 -0.5334
  309MOL0     C40681   9.266  12.024   3.382 -0.4471  0.4030 -0.5210
  309MOL0     C40682   9.172  11.923   3.414  1.2108  0.2723 -0.2736
  309MOL0     C40683   9.044  11.962   3.473 -0.0119  1.2429 -0.2058
  309MOL0     C40684   9.018  12.095   3.511 -0.1613 -0.1521 -0.4309
  309MOL0     C40685   8.906  12.127   3.594  0.3545 -0.6689 -0.4513
  309MOL0     O40686   8.830  12.019   3.632 -0.1384  0.2743 -0.3275
  309MOL0     C40687   8.707  12.037   3.697 -0.6197 -0.3875  0.2038
  309MOL0     C40688   8.596  12.045   3.609  0.3305 -0.1263  0.1426
  309MOL0     C40689   8.477  12.069   3.672  0.0978 -0.2112 -0.1559
  309MOL0     C40690   8.461  12.074   3.814  0.2237  0.7934  0.3587
  309MOL0     O40691   8.344  12.098   3.884 -0.5323  0.3809  0.4296
  309MOL0     C40692   8.220  12.068   3.825 -0.2186 -0.2740  0.3053
  309MOL0     C40693   8.103  12.111   3.926 -0.2458 -0.4258  0.1755
  309MOL0     C40694   8.101  12.011   4.041 -0.8317 -0.3138  0.6800
  309MOL0     C40695   7.979  12.028   4.124  0.9029 -0.3661 -0.7648
  309MOL0     C40696   7.999  11.982   4.270 -0.2494  0.2325 -0.2708
  309MOL0     C40697   8.004  11.834   4.271  0.0205  0.7598 -1.5308
  309MOL0     C40698   7.977  11.768   4.406 -0.2481 -0.9191 -0.8844
  309MOL0     C40699   8.072  11.648   4.425  0.1372  0.8405  0.2419
  309MOL0    Cl40700   7.968  11.522   4.334  0.6285 -0.5382 -0.2150
  309MOL0     C40701   8.574  12.077   3.890  0.2535  0.8809  0.5887
  309MOL0     C40702   8.700  12.052   3.835  1.1908 -1.0475 -0.2868
  309MOL0     O40703   8.890  12.246   3.635  0.3248 -0.1788 -0.1331
  309MOL0     C40704   9.117  12.188   3.487 -0.8424  0.7535  0.4223
  309MOL0     C40705   9.237  12.155   3.419  0.8290 -0.9842  0.8832
  309MOL0     N40706   9.755  11.771   2.939 -0.3879 -0.1124 -0.3155
  309MOL0     N40707   9.815  11.683   2.860  0.1430  0.4204 -0.0264
  309MOL0     C40708   9.091  10.894   3.014  0.7913  0.7059 -0.0968
  309MOL0     C40709   8.962  10.863   2.988 -0.0761 -0.4432  0.2993
  309MOL0     C40710   8.612  10.646   2.771 -0.1831 -0.9776 -0.2307
  309MOL0     C40711   8.527  10.757   2.741 -1.3504 -0.0997  0.4495
  309MOL0     C40712   8.396  10.739   2.700  0.0034  0.0052  0.2402
  309MOL0     C40713   8.343  10.611   2.686  0.0660 -0.3800  0.1823
  309MOL0     O40714   8.214  10.590   2.656 -0.4453 -0.7512  0.5391
  309MOL0     C40715   8.131  10.641   2.757 -0.1536  0.4621 -0.2398
  309MOL0     C40716   7.996  10.619   2.730  0.0906  0.6064  0.1788
  309MOL0     C40717   7.902  10.706   2.809 -0.3348  0.8015 -0.3855
  309MOL0     C40718   7.758  10.650   2.789  0.6470 -0.9378  0.4435
  309MOL0     C40719   7.655  10.708   2.879 -0.1757  0.7626 -0.4206
  309MOL0     C40720   7.574  10.745   2.962 -0.0792  0.1214  0.0909
  309MOL0     C40721   8.419  10.499   2.718  0.1267 -0.4250  0.3711
  309MOL0     C40722   8.553  10.520   2.747  0.9529  0.0794 -0.0906
  309MOL0     H40723   9.000  10.720   2.687  0.6802  2.0073 -1.1435
  309MOL0     H40724   9.230  10.758   2.738 -0.9767 -2.3256  0.3174
  309MOL0     H40725   9.342  11.035   2.805  2.9125  1.3101  0.4782
  309MOL0     H40726   9.421  10.872   2.776  1.0716  1.1034 -2.0684
  309MOL0     H40727   9.570  10.928   2.979  0.6751  0.1115 -0.2193
  309MOL0     H40728   9.498  11.090   2.967 -0.2124  0.3325 -1.7368
  309MOL0     H40729   9.585  11.105   2.733  1.4565 -0.1520 -1.6449
  309MOL0     H40730   9.651  10.949   2.756  1.1027  1.2733  1.1997
  309MOL0     H40731   9.737  11.188   2.924 -0.7739  0.9772 -0.2354
  309MOL0     H40732   9.819  11.040   2.912 -0.8695 -1.1583 -1.7230
  309MOL0     H40733   9.777  11.215   2.674 -0.3451 -0.2111  0.2969
  309MOL0     H40734   9.892  11.084   2.688 -1.7656  1.0457 -2.7580
  309MOL0     H40735  10.011  11.294   2.693 -0.9662  0.0085 -0.0332
  309MOL0     H40736  10.028  11.229   2.844 -0.4331  2.3991  2.3073
  309MOL0     H40737   9.830  11.442   2.743 -1.0513 -0.2792  0.4253
  309MOL0     H40738   9.814  11.386   2.907  0.6200 -0.5759  0.5887
  309MOL0     H40739  10.047  11.546   2.779 -0.5420 -1.0820 -0.9873
  309MOL0     H40740  10.054  11.468   2.936  0.1142  0.0543 -0.7496
  309MOL0     H40741   9.977  11.650   3.135  1.6690  0.4615 -0.2677
  309MOL0     H40742   9.797  11.949   3.161  2.6448 -0.6021  0.1094
  309MOL0     H40743   9.853  11.821   3.254 -1.0995 -0.3863  1.9208
  309MOL0     H40744   9.648  11.860   3.344  0.3208 -0.8226  0.5764
  309MOL0     H40745   9.633  11.701   3.265 -1.0462  1.4518  1.0855
  309MOL0     H40746   9.541  11.978   3.144  0.2033 -0.1679  0.3045
  309MOL0     H40747   9.516  11.813   3.072 -3.8932  0.9430  0.3779
  309MOL0     H40748   9.402  11.771   3.307  0.0216 -0.3391 -0.2687
  309MOL0     H40749   9.318  11.857   3.183 -1.8971  1.3678  2.1004
  309MOL0     H40750   9.186  11.815   3.402 -2.5772 -0.5980  1.6379
  309MOL0     H40751   8.973  11.883   3.493  0.8070  0.7510  0.8420
  309MOL0     H40752   8.610  12.040   3.502  1.7743 -1.8076  0.3559
  309MOL0     H40753   8.387  12.075   3.612  1.2118 -0.9314 -1.9937
  309MOL0     H40754   8.206  11.964   3.793  0.6740 -0.1602 -0.5238
  309MOL0     H40755   8.216  12.137   3.740 -2.6800  0.5364  1.0011
  309MOL0     H40756   8.012  12.110   3.866  0.6339 -0.7789 -1.1850
  309MOL0     H40757   8.125  12.208   3.973  2.5791 -0.7657 -0.2795
  309MOL0     H40758   8.192  12.014   4.102 -0.4370 -0.0888  0.0959
  309MOL0     H40759   8.097  11.907   4.009  1.1747 -0.5223  0.9637
  309MOL0     H40760   7.982  12.136   4.140  3.5127 -0.1280 -2.2676
  309MOL0     H40761   7.884  11.995   4.081 -0.7406  2.3322  0.5462
  309MOL0     H40762   7.925  12.014   4.344 -1.1030 -1.0077 -0.5494
  309MOL0     H40763   8.098  12.016   4.300 -1.3935  1.7720  2.0626
  309MOL0     H40764   8.089  11.783   4.224 -0.0277 -3.1489  1.9827
  309MOL0     H40765   7.935  11.791   4.198 -0.3035 -1.5743  0.0159
  309MOL0     H40766   8.005  11.850   4.473  1.4623  1.3133 -4.0920
  309MOL0     H40767   7.875  11.733   4.424 -0.3875 -0.3914 -0.6493
  309MOL0     H40768   8.090  11.624   4.530 -1.6996  0.2841  0.4710
  309MOL0     H40769   8.169  11.661   4.376  1.1104 -0.8536  1.6199
  309MOL0     H40770   8.557  12.092   3.996  0.1354  1.7290  0.4556
  309MOL0     H40771   8.783  12.047   3.903 -0.1657 -0.2426  1.5074
  309MOL0     H40772   9.098  12.293   3.507 -0.3106  1.6072 -2.9293
  309MOL0     H40773   9.314  12.228   3.398 -1.1704  1.7767  2.6098
  309MOL0     H40774   9.113  10.948   3.106 -0.7530 -1.3002  1.5421
  309MOL0     H40775   8.886  10.886   3.062  0.3100 -2.0032  1.2086
  309MOL0     H40776   8.549  10.862   2.756 -3.2724  0.4163 -0.0594
  309MOL0     H40777   8.347  10.833   2.680  1.7343  0.4811 -2.2563
  309MOL0     H40778   8.152  10.748   2.751 -0.6404  0.5052 -1.5900
  309MOL0     H40779   8.161  10.595   2.851  0.8268 -0.8071 -1.1318
  309MOL0     H40780   7.976  10.644   2.625 -0.0298  2.1516  0.5389
  309MOL0     H40781   7.977  10.513   2.748 -0.1702  1.0000  2.4982
  309MOL0     H40782   7.908  10.811   2.779  0.3698  0.6985 -0.6384
  309MOL0     H40783   7.927  10.688   2.914  0.3345 -0.8539 -0.7890
  309MOL0     H40784   7.731  10.674   2.685 -1.3714 -1.7267  0.7389
  309MOL0     H40785   7.754  10.541   2.794 -0.3309 -1.0703 -1.7108
  309MOL0     H40786   7.501  10.777   3.033 -0.5616  1.1352 -0.8294
  309MOL0     H40787   8.377  10.399   2.710  3.8023 -1.9830 -1.6635
  309MOL0     H40788   8.618  10.434   2.765  1.3025  0.5432  0.9507
  310MOL0     O40789   8.641   9.220   7.779 -0.3577  0.1758 -0.4531
  310MOL0     C40790   8.709   9.325   7.797 -1.1266 -0.2832 -0.0089
  310MOL0     O40791   8.676   9.452   7.775 -0.4742  0.2525 -0.8048
  310MOL0     C40792   8.541   9.486   7.766  0.0135 -0.3108  0.8247
  310MOL0     C40793   8.491   9.579   7.856  0.8107  0.1945 -0.3251
  310MOL0     C40794   8.351   9.606   7.865  0.8326  0.0383  0.1359
  310MOL0     C40795   8.263   9.557   7.765  0.1812  0.6812  0.6284
  310MOL0     O40796   8.131   9.563   7.753 -0.3256  0.4672  0.2727
  310MOL0     C40797   8.063   9.650   7.834  0.5644 -0.4451 -0.0568
  310MOL0     C40798   7.997   9.579   7.951  0.3146  0.0926 -0.3003
  310MOL0     C40799   7.883   9.480   7.920 -0.1657  0.1390 -0.7322
  310MOL0     C40800   7.833   9.412   8.047  0.2037 -0.1691 -0.6292
  310MOL0     C40801   7.691   9.356   8.035  0.1623 -0.4144 -0.4196
  310MOL0     C40802   7.578   9.461   8.051 -0.1279  0.1997 -0.3377
  310MOL0     C40803   7.435   9.415   8.045 -0.0185 -0.1771  0.2997
  310MOL0     C40804   7.382   9.324   7.932 -0.3416  0.4545  0.2968
  310MOL0     N40805   7.239   9.308   7.955 -0.2318  0.3412 -0.1917
  310MOL0     C40806   7.140   9.397   7.946 -0.3166 -0.1811  0.6840
  310MOL0     C40807   7.033   9.316   7.966 -0.4064  0.3283 -0.9239
  310MOL0     C40808   6.890   9.358   7.975  0.3471  0.7617 -0.3400
  310MOL0     C40809   6.801   9.311   7.859 -0.3199  1.1904  0.0078
  310MOL0     C40810   6.740   9.170   7.880 -0.1157  0.0080 -0.9496
  310MOL0     C40811   6.738   9.074   7.757 -0.0477  0.0790  0.9134
  310MOL0     O40812   6.642   8.966   7.783 -0.2763 -1.2193 -0.0270
  310MOL0     C40813   6.502   8.984   7.761 -0.3459 -0.0818  1.2355
  310MOL0     C40814   6.455   8.959   7.632 -0.1488  0.7531 -1.0549
  310MOL0     C40815   6.318   8.968   7.611 -0.2310 -0.4560  0.0507
  310MOL0     C40816   6.232   9.023   7.709 -0.1921  0.3502  0.7376
  310MOL0     C40817   6.087   9.032   7.671 -0.3667  0.4319  0.2160
  310MOL0     O40818   6.057   9.018   7.536 -0.7165  0.8794  0.0780
  310MOL0     C40819   5.943   9.059   7.473 -0.6413  0.6294  1.2011
  310MOL0     C40820   5.935   9.004   7.339 -0.6806  0.2480  0.0510
  310MOL0     C40821   5.822   9.026   7.260  0.9892 -0.5566  0.2675
  310MOL0     C40822   5.727   9.120   7.311 -0.6912  0.3621 -0.3049
  310MOL0     O40823   5.617   9.156   7.231  0.0709  0.8562 -0.2243
  310MOL0     C40824   5.565   9.048   7.145  0.2659 -0.4156  1.2777
  310MOL0     C40825   5.427   9.096   7.098  0.1306  0.1852  0.3736
  310MOL0     C40826   5.379   9.019   6.974  0.3009 -0.5203  0.0644
  310MOL0     C40827   5.238   9.066   6.935  0.8206  0.6142  0.0153
  310MOL0     C40828   5.127   9.035   7.034  0.8515 -0.9426  0.0056
  310MOL0     C40829   4.980   9.068   6.981 -0.0615  0.4881  0.3959
  310MOL0     C40830   4.867   9.013   7.074 -0.1812  0.2598  0.1897
  310MOL0     C40831   4.843   8.868   7.035  0.1740 -0.7133 -0.4895
  310MOL0    Cl40832   4.730   8.780   7.136  0.5255 -0.1166  0.4793
  310MOL0     C40833   5.741   9.179   7.437 -0.1131  0.0489  1.0852
  310MOL0     C40834   5.848   9.150   7.521 -0.2939  0.7645 -0.0934
  310MOL0     O40835   6.004   9.065   7.753 -0.0028  0.3204  0.7729
  310MOL0     C40836   6.288   9.058   7.834  0.1287  0.0845  0.1892
  310MOL0     C40837   6.418   9.026   7.858 -0.1913  0.7510 -0.3777
  310MOL0     N40838   7.069   9.182   7.972 -0.0195 -0.5898  0.3330
  310MOL0     N40839   7.196   9.181   7.971  0.5897  0.2767  1.1156
  310MOL0     C40840   8.330   9.479   7.665  0.0639  0.1250  0.1104
  310MOL0     C40841   8.466   9.450   7.655 -0.8289  0.2628  0.3940
  310MOL0     C40842   8.853   9.310   7.850  0.5075  0.3940  0.5489
  310MOL0     C40843   8.893   9.198   7.931  0.6209  0.0324  0.2908
  310MOL0     C40844   9.028   9.183   7.967 -0.4137  0.5636  0.3985
  310MOL0     C40845   9.126   9.268   7.914  0.4901 -0.0666  0.0680
  310MOL0     O40846   9.261   9.253   7.954  0.0863 -0.0144 -0.3832
  310MOL0     C40847   9.306   9.163   8.056 -0.0160 -0.0973 -1.2905
  310MOL0     C40848   9.449   9.184   8.080 -0.0443  0.4074  0.0917
  310MOL0     C40849   9.498   9.083   8.186  0.3406 -0.0003 -0.6964
  310MOL0     C40850   9.654   9.100   8.204 -0.0792 -0.0416  0.3166
  310MOL0     C40851   9.722   8.993   8.136  0.3861 -0.0718 -0.1204
  310MOL0     C40852   9.780   8.895   8.094  0.0818 -0.0950  0.3990
  310MOL0     C40853   9.089   9.379   7.843  0.0916  0.0933 -0.3331
  310MOL0     C40854   8.954   9.410   7.811 -0.6286  0.0624 -0.5394
  310MOL0     H40855   8.557   9.637   7.918  3.6367 -0.9599 -2.0595
  310MOL0     H40856   8.305   9.669   7.941 -0.7173  1.6311 -1.9726
  310MOL0     H40857   7.979   9.697   7.783 -0.7147 -3.1676 -0.6568
  310MOL0     H40858   8.127   9.732   7.868  0.6210  1.6517 -4.4949
  310MOL0     H40859   7.960   9.651   8.024 -0.1700 -1.8146  1.4266
  310MOL0     H40860   8.077   9.536   8.012  1.1335  1.2721 -0.4892
  310MOL0     H40861   7.919   9.420   7.836 -1.9303  0.8735 -2.0661
  310MOL0     H40862   7.806   9.542   7.874  0.5874  1.1288 -0.7095
  310MOL0     H40863   7.906   9.333   8.068 -1.0475 -1.9174 -2.5301
  310MOL0     H40864   7.830   9.480   8.134 -0.0990 -0.5275 -0.3585
  310MOL0     H40865   7.674   9.269   8.100 -0.5527 -3.1188 -3.9363
  310MOL0     H40866   7.685   9.308   7.937  0.0068 -1.8153  0.2485
  310MOL0     H40867   7.587   9.545   7.982 -1.5574 -1.0209 -2.0595
  310MOL0     H40868   7.584   9.506   8.151 -0.1901  0.4506 -0.4467
  310MOL0     H40869   7.405   9.369   8.139  1.7009 -1.8543  0.0874
  310MOL0     H40870   7.377   9.508   8.037  1.4409  0.6091 -3.9285
  310MOL0     H40871   7.434   9.228   7.927  0.2065  0.7043  1.0252
  310MOL0     H40872   7.396   9.370   7.833  0.7963  0.5424  0.4778
  310MOL0     H40873   7.134   9.503   7.924 -0.5631 -0.5105 -1.0167
  310MOL0     H40874   6.897   9.467   7.966 -1.0511  1.3099  3.2597
  310MOL0     H40875   6.844   9.349   8.074  0.6449  0.1557 -0.2510
  310MOL0     H40876   6.854   9.323   7.765 -1.0406  0.7066 -0.4793
  310MOL0     H40877   6.714   9.377   7.858 -0.9784  0.4249  1.7174
  310MOL0     H40878   6.786   9.116   7.964 -0.5303  1.0935  0.0087
  310MOL0     H40879   6.634   9.186   7.898 -0.4389 -0.8398 -2.0382
  310MOL0     H40880   6.838   9.030   7.747  0.2413  0.4445  2.0668
  310MOL0     H40881   6.704   9.123   7.665  0.9271  1.2944  1.1774
  310MOL0     H40882   6.526   8.925   7.557  0.7996  1.0559 -0.3257
  310MOL0     H40883   6.288   8.925   7.516 -2.0718 -2.5133  1.4479
  310MOL0     H40884   6.021   8.951   7.299 -1.2767 -1.8569  1.3929
  310MOL0     H40885   5.811   8.984   7.161 -2.4105 -1.5910  0.9512
  310MOL0     H40886   5.565   8.945   7.179 -1.9576 -1.1462 -0.6432
  310MOL0     H40887   5.627   9.060   7.056 -1.1694 -0.1427  0.2741
  310MOL0     H40888   5.443   9.201   7.075  0.7492 -0.1912 -1.0312
  310MOL0     H40889   5.347   9.088   7.173 -0.4075  5.3513  0.6870
  310MOL0     H40890   5.384   8.912   6.998  3.7213  0.1482  3.2934
  310MOL0     H40891   5.441   9.042   6.887 -1.1136  0.7052 -0.6656
  310MOL0     H40892   5.246   9.174   6.922 -0.6362  0.4924 -2.3065
  310MOL0     H40893   5.229   9.014   6.839 -1.3848 -3.5393  2.1566
  310MOL0     H40894   5.135   9.099   7.122  0.3927  0.9793 -1.2734
  310MOL0     H40895   5.134   8.934   7.075  0.0905 -0.6819  0.7977
  310MOL0     H40896   4.969   9.026   6.880 -3.5620  0.6342  0.5798
  310MOL0     H40897   4.965   9.176   6.967  0.6399  0.4443 -0.8027
  310MOL0     H40898   4.898   9.024   7.179  1.5505 -3.0913  0.1660
  310MOL0     H40899   4.779   9.078   7.068  1.1072  2.4446  2.7427
  310MOL0     H40900   4.942   8.823   7.047  0.1311 -0.4070  1.2298
  310MOL0     H40901   4.814   8.866   6.929 -2.4430  1.8507  0.0480
  310MOL0     H40902   5.664   9.250   7.466  1.7044  2.2585  0.7554
  310MOL0     H40903   5.840   9.198   7.618 -2.9354  0.2826 -0.0103
  310MOL0     H40904   6.222   9.102   7.908  0.2278  2.9721 -1.2930
  310MOL0     H40905   6.445   9.040   7.962 -1.9652 -1.2038  0.4044
  310MOL0     H40906   8.268   9.444   7.583 -1.9253  2.9995  0.2784
  310MOL0     H40907   8.506   9.395   7.571 -0.5011  0.7069  0.2584
  310MOL0     H40908   8.823   9.118   7.951  0.8329 -0.5391 -1.1191
  310MOL0     H40909   9.073   9.099   8.019  0.3909  0.3507 -0.5979
  310MOL0     H40910   9.288   9.059   8.026 -1.2573  0.0998 -1.2461
  310MOL0     H40911   9.244   9.181   8.144  2.0257  3.4229 -0.3889
  310MOL0     H40912   9.513   9.160   7.995  0.3146 -0.3817  0.5742
  310MOL0     H40913   9.464   9.289   8.107  0.6792  0.2069  0.5025
  310MOL0     H40914   9.485   8.983   8.145  3.2111 -0.0150 -1.8011
  310MOL0     H40915   9.444   9.085   8.281 -0.2447 -0.8720 -1.0051
  310MOL0     H40916   9.679   9.194   8.154  0.0743 -1.2239 -1.9815
  310MOL0     H40917   9.680   9.102   8.310  2.9446  0.2039 -0.3444
  310MOL0     H40918   9.841   8.812   8.064  0.3931 -0.1931  1.2712
  310MOL0     H40919   9.162   9.451   7.806  2.7404 -1.2676  1.9261
  310MOL0     H40920   8.931   9.494   7.746 -1.5733 -0.8361 -1.4094
  311MOL0     O40921   6.925   5.312   9.878 -0.3944  0.3403 -0.2362
  311MOL0     C40922   6.889   5.233   9.794 -0.5066 -0.3258  0.4754
  311MOL0     O40923   6.972   5.178   9.697  0.0589  0.6232 -0.1182
  311MOL0     C40924   7.102   5.212   9.685 -1.2163 -0.0870 -0.9205
  311MOL0     C40925   7.197   5.105   9.682 -0.2902 -0.0099  0.0805
  311MOL0     C40926   7.329   5.134   9.681 -0.0812  0.3071 -0.0763
  311MOL0     C40927   7.374   5.266   9.670 -0.0645 -0.0309 -0.0716
  311MOL0     O40928   7.508   5.286   9.660 -0.1665 -0.6734  0.2748
  311MOL0     C40929   7.545   5.384   9.556  0.7148 -0.9963  1.0754
  311MOL0     C40930   7.693   5.407   9.550  1.1909  0.1199  0.1808
  311MOL0     C40931   7.756   5.462   9.679 -1.0408 -0.4009 -0.2075
  311MOL0     C40932   7.909   5.483   9.661  0.0705  0.0985  0.0313
  311MOL0     C40933   7.990   5.462   9.792  0.9301  0.2282  0.3288
  311MOL0     C40934   7.974   5.565   9.905 -0.7690  0.0068 -1.2243
  311MOL0     C40935   8.002   5.711   9.869  0.0288 -0.1327 -0.0623
  311MOL0     C40936   8.153   5.729   9.854 -0.2674  0.0390  0.5092
  311MOL0     N40937   8.192   5.872   9.868  0.2649 -0.2974  0.4044
  311MOL0     C40938   8.141   5.962   9.966 -0.9834  0.0459 -0.3311
  311MOL0     C40939   8.192   6.084   9.927  0.2321 -0.6263 -0.5146
  311MOL0     C40940   8.179   6.220   9.986 -0.4334  0.1483 -0.2605
  311MOL0     C40941   8.080   6.307   9.910 -0.5074  0.9412 -0.0339
  311MOL0     C40942   7.932   6.279   9.933 -0.1421 -0.2920 -0.4697
  311MOL0     C40943   7.848   6.325   9.816  0.1889 -0.5406  0.3793
  311MOL0     O40944   7.859   6.224   9.713  0.6733  0.5748  1.3025
  311MOL0     C40945   7.737   6.153   9.697 -0.0175 -0.0606 -0.0288
  311MOL0     C40946   7.612   6.206   9.661 -0.1920 -0.8364 -0.3969
  311MOL0     C40947   7.499   6.123   9.659  0.2286 -0.8085  0.0709
  311MOL0     C40948   7.505   5.983   9.677  0.4864 -0.0363  0.8517
  311MOL0     C40949   7.384   5.897   9.674 -0.2928  0.2579  0.7058
  311MOL0     O40950   7.265   5.941   9.636 -0.6968 -0.4181 -0.5991
  311MOL0     C40951   7.174   5.856   9.595  0.1904 -0.3180 -0.3124
  311MOL0     C40952   7.037   5.879   9.608 -0.2687 -0.2197  0.3741
  311MOL0     C40953   6.937   5.807   9.551 -0.2974  0.2555 -0.3466
  311MOL0     C40954   6.967   5.716   9.458  0.6960  0.7260  1.7683
  311MOL0     O40955   6.870   5.636   9.407  0.1440  0.4360  0.3063
  311MOL0     C40956   6.867   5.497   9.436 -0.8093 -0.0215  0.1062
  311MOL0     C40957   6.737   5.440   9.371  0.3425 -0.2055 -1.0971
  311MOL0     C40958   6.616   5.499   9.445  0.2441  0.1144 -0.0615
  311MOL0     C40959   6.484   5.459   9.376  0.0955  0.5100  0.3029
  311MOL0     C40960   6.408   5.584   9.324 -0.0202  0.4307  1.2271
  311MOL0     C40961   6.287   5.539   9.244 -0.5859 -0.2360 -1.2331
  311MOL0     C40962   6.182   5.453   9.315 -0.1700 -0.3115 -0.4376
  311MOL0     C40963   6.057   5.429   9.231 -0.2343 -0.5237  0.4572
  311MOL0    Cl40964   6.111   5.374   9.072  0.1354 -0.2129 -0.0020
  311MOL0     C40965   7.102   5.686   9.422 -0.4467 -0.3321  0.8126
  311MOL0     C40966   7.200   5.761   9.492  0.2948  0.9886  0.0921
  311MOL0     O40967   7.411   5.777   9.705 -0.2069 -0.3190  0.1791
  311MOL0     C40968   7.634   5.922   9.685  0.0071 -0.2805  0.3183
  311MOL0     C40969   7.746   6.012   9.701 -0.4023 -0.2954  0.2594
  311MOL0     N40970   8.269   6.064   9.808 -0.5637  0.0526  0.7362
  311MOL0     N40971   8.267   5.938   9.768 -0.7189  0.6545 -0.5063
  311MOL0     C40972   7.279   5.373   9.664  0.1316 -0.3595  0.0718
  311MOL0     C40973   7.145   5.346   9.672  0.0470  1.1373 -0.1823
  311MOL0     C40974   6.757   5.181   9.800 -0.0587  0.3160 -0.5467
  311MOL0     C40975   6.714   5.087   9.706 -0.0616  0.7645  0.6450
  311MOL0     C40976   6.585   5.047   9.699  0.3248 -0.2799  0.1792
  311MOL0     C40977   6.490   5.087   9.794 -0.0284  0.0368 -0.5516
  311MOL0     O40978   6.363   5.048   9.774 -0.0787  0.1871  0.4722
  311MOL0     C40979   6.268   5.091   9.876  0.3082  0.0294  0.0390
  311MOL0     C40980   6.123   5.033   9.853 -0.5776  0.1380 -0.9189
  311MOL0     C40981   6.034   5.074   9.963  0.4574 -1.6049  0.1803
  311MOL0     C40982   5.892   5.040   9.929  0.1156 -0.8053 -0.4897
  311MOL0     C40983   5.855   4.907   9.964  0.7236  1.2956  0.9524
  311MOL0     C40984   5.817   4.790   9.974  0.9687  0.2744 -0.6781
  311MOL0     C40985   6.535   5.177   9.896  0.2034  0.0533  0.6127
  311MOL0     C40986   6.666   5.223   9.896 -0.4786 -0.9050 -0.8859
  311MOL0     H40987   7.164   5.001   9.685 -0.1008 -0.0762 -0.1261
  311MOL0     H40988   7.400   5.052   9.672 -1.1721 -0.6211 -0.4169
  311MOL0     H40989   7.505   5.485   9.570  1.3301 -0.8061  1.5045
  311MOL0     H40990   7.517   5.350   9.456 -2.5693 -0.1031  1.5616
  311MOL0     H40991   7.718   5.478   9.471 -0.5311  2.3368  1.5298
  311MOL0     H40992   7.744   5.312   9.530 -1.5761 -0.6745 -5.0617
  311MOL0     H40993   7.748   5.388   9.758  1.3843 -0.7956 -0.2533
  311MOL0     H40994   7.705   5.557   9.702 -2.1110 -1.8688  4.5806
  311MOL0     H40995   7.945   5.403   9.595  2.2545 -2.5259  4.0295
  311MOL0     H40996   7.927   5.583   9.621  0.3111 -0.0999 -0.3627
  311MOL0     H40997   8.091   5.474   9.751  0.2913 -1.3705 -1.9660
  311MOL0     H40998   7.982   5.359   9.828  3.4894  1.4991  5.4915
  311MOL0     H40999   8.046   5.521   9.975  1.8591  0.9917 -3.1347
  311MOL0     H41000   7.868   5.563   9.931 -1.2106  0.3113 -2.8868
  311MOL0     H41001   7.964   5.747   9.773 -0.6048  2.3356  1.0509
  311MOL0     H41002   7.952   5.776   9.942 -2.3662 -0.7979 -0.9896
  311MOL0     H41003   8.185   5.690   9.757  0.1595  3.7274 -0.9997
  311MOL0     H41004   8.212   5.674   9.928  0.0221 -4.6022 -2.7768
  311MOL0     H41005   8.086   5.962  10.059 -0.4294  4.6327  0.2583
  311MOL0     H41006   8.281   6.259   9.986 -0.6193  0.7751  2.0343
  311MOL0     H41007   8.154   6.211  10.092  1.8327 -2.1591  0.1584
  311MOL0     H41008   8.098   6.298   9.802  0.5728  0.7575  0.1457
  311MOL0     H41009   8.110   6.410   9.932  1.8116  0.1301  0.9110
  311MOL0     H41010   7.906   6.173   9.940 -0.1949 -0.5737 -3.5075
  311MOL0     H41011   7.902   6.338  10.020  1.4469 -0.1267 -0.0000
  311MOL0     H41012   7.879   6.427   9.791 -0.1920 -0.6159 -0.4280
  311MOL0     H41013   7.748   6.331   9.860 -1.4600 -0.5872 -3.0735
  311MOL0     H41014   7.609   6.311   9.636 -3.3876 -0.4075  1.2351
  311MOL0     H41015   7.409   6.176   9.631 -0.7615 -1.6768  1.4807
  311MOL0     H41016   7.030   5.966   9.673  5.1443 -1.3859  3.0912
  311MOL0     H41017   6.832   5.831   9.570 -0.2718 -0.7558  1.2404
  311MOL0     H41018   6.877   5.481   9.543  1.3788 -0.2670 -0.0810
  311MOL0     H41019   6.953   5.451   9.386  0.0448  4.4412 -3.0974
  311MOL0     H41020   6.726   5.331   9.368 -3.3147 -0.0112  0.4132
  311MOL0     H41021   6.732   5.459   9.264  2.1960 -0.4787 -1.2728
  311MOL0     H41022   6.618   5.608   9.441  1.9223  0.1008 -0.1638
  311MOL0     H41023   6.623   5.466   9.549 -0.0070  1.9765  0.5853
  311MOL0     H41024   6.495   5.384   9.298 -0.6620  0.8566 -0.1496
  311MOL0     H41025   6.417   5.427   9.457 -0.8272  2.7277  0.5009
  311MOL0     H41026   6.481   5.638   9.261  0.4223 -0.3388  1.0714
  311MOL0     H41027   6.377   5.643   9.411  2.5882 -0.9884  3.2424
  311MOL0     H41028   6.327   5.496   9.151  0.7004  0.0419 -0.8350
  311MOL0     H41029   6.234   5.628   9.208 -2.2247 -0.6230  0.1273
  311MOL0     H41030   6.225   5.353   9.324 -0.4752 -0.3816  0.3120
  311MOL0     H41031   6.160   5.487   9.417  2.0046  2.4070 -0.7458
  311MOL0     H41032   5.992   5.517   9.222 -1.3971 -1.5017 -1.6058
  311MOL0     H41033   6.008   5.349   9.286 -1.6289 -0.4183 -0.5787
  311MOL0     H41034   7.120   5.604   9.352 -0.3038 -2.9900  3.7397
  311MOL0     H41035   7.301   5.735   9.461  0.5572 -0.5884  2.0862
  311MOL0     H41036   7.637   5.817   9.713 -2.4189 -0.9105 -1.4057
  311MOL0     H41037   7.842   5.963   9.716 -1.0270 -2.5835 -2.4350
  311MOL0     H41038   7.318   5.474   9.661  2.9318 -1.3789 -1.2544
  311MOL0     H41039   7.066   5.420   9.663 -0.4739  0.3562 -3.6611
  311MOL0     H41040   6.779   5.045   9.629  0.2410  1.0855  0.7271
  311MOL0     H41041   6.551   4.967   9.633  2.9264 -1.2296 -0.1365
  311MOL0     H41042   6.258   5.200   9.873 -1.6476 -0.1372 -2.8131
  311MOL0     H41043   6.312   5.048   9.967  1.3264  2.6330  0.8818
  311MOL0     H41044   6.084   5.067   9.756  2.1725  1.5839 -1.6171
  311MOL0     H41045   6.131   4.924   9.852 -0.3915  0.1069  1.0714
  311MOL0     H41046   6.045   5.181   9.980  0.2398 -1.8451  2.0927
  311MOL0     H41047   6.063   5.024  10.056 -0.6402 -2.9422 -0.1672
  311MOL0     H41048   5.827   5.112   9.980  1.8659 -0.6404  1.6665
  311MOL0     H41049   5.857   5.063   9.828 -1.2424  1.4885  0.4052
  311MOL0     H41050   5.788   4.688   9.983  0.8092  0.2272 -1.5796
  311MOL0     H41051   6.460   5.216   9.964 -2.0356  0.2723 -1.8022
  311MOL0     H41052   6.710   5.303   9.956 -3.9750  0.8633 -0.4357
  312MOL0     O41053   8.266   1.148   2.169  0.1528 -0.8281 -0.5193
  312MOL0     C41054   8.302   1.159   2.288 -0.4650 -0.1461  0.0924
  312MOL0     O41055   8.225   1.120   2.394 -0.7779  0.3282 -0.1186
  312MOL0     C41056   8.100   1.088   2.366  1.5507  1.3441  0.5386
  312MOL0     C41057   8.007   1.147   2.447  0.6488  0.0645  0.1693
  312MOL0     C41058   7.869   1.112   2.449  0.0181 -0.1058  0.1642
  312MOL0     C41059   7.825   1.005   2.364 -0.8199 -0.1799  0.4028
  312MOL0     O41060   7.692   0.990   2.373  0.4959 -0.1291 -0.6181
  312MOL0     C41061   7.639   0.862   2.321 -0.2631  0.5765  0.2330
  312MOL0     C41062   7.485   0.871   2.373 -0.7000 -1.3446 -0.1778
  312MOL0     C41063   7.397   0.749   2.331 -0.5496 -0.7254  0.3548
  312MOL0     C41064   7.252   0.785   2.367 -0.3659 -0.4059 -0.1577
  312MOL0     C41065   7.162   0.746   2.257  0.1419 -0.0782 -0.9155
  312MOL0     C41066   7.133   0.601   2.268 -0.3053  0.5147  0.4722
  312MOL0     C41067   7.027   0.576   2.166  0.0364 -0.3502  0.6629
  312MOL0     C41068   7.025   0.432   2.111  0.2236  0.9333  0.0254
  312MOL0     N41069   6.925   0.423   2.009 -0.0772 -0.0004  0.3810
  312MOL0     C41070   6.833   0.317   1.997 -0.4141 -0.1598 -0.5256
  312MOL0     C41071   6.753   0.344   1.890  0.1468 -0.0503  0.3674
  312MOL0     C41072   6.639   0.258   1.857  0.4153  0.4147  0.0466
  312MOL0     C41073   6.676   0.160   1.743  0.5214  0.1576 -1.1076
  312MOL0     C41074   6.582   0.050   1.694  0.0926  0.0314  0.5697
  312MOL0     C41075   6.427   0.077   1.685  0.1683 -0.8670  0.8511
  312MOL0     O41076   6.377   0.122   1.807  0.7027  0.2218 -0.6389
  312MOL0     C41077   6.237   0.108   1.823  0.0079 -0.0426  0.0347
  312MOL0     C41078   6.184   0.088   1.952 -0.4231  1.3077 -0.3197
  312MOL0     C41079   6.048   0.081   1.977 -0.3564  1.8957 -0.3234
  312MOL0     C41080   5.948   0.091   1.882 -0.0095  0.3211 -0.1467
  312MOL0     C41081   5.801   0.084   1.915 -0.2754 -0.3025 -0.3293
  312MOL0     O41082   5.717   0.096   1.811 -0.3895  0.1049 -0.4607
  312MOL0     C41083   5.588   0.069   1.828  1.1757  0.2848  0.5591
  312MOL0     C41084   5.494   0.150   1.757  0.5842  0.1893 -1.3212
  312MOL0     C41085   5.352   0.140   1.755  0.0162  0.3393 -0.5964
  312MOL0     C41086   5.302   0.033   1.825 -0.2622 -0.4455 -0.8129
  312MOL0     O41087   5.166   0.038   1.836  0.7224 -0.4816  0.3574
  312MOL0     C41088   5.091  -0.088   1.848 -0.2440  0.2348  0.3591
  312MOL0     C41089   4.975  -0.069   1.749  0.0567 -0.3297  0.7056
  312MOL0     C41090   5.019  -0.063   1.594 -0.4200  0.7980 -0.5760
  312MOL0     C41091   4.913  -0.001   1.515 -0.1123 -0.0975  0.2209
  312MOL0     C41092   4.803  -0.100   1.472 -0.5694 -0.2274 -0.0994
  312MOL0     C41093   4.844  -0.209   1.375 -0.1969 -0.1246  0.5682
  312MOL0     C41094   4.717  -0.267   1.310 -0.6202  0.7859  0.6355
  312MOL0     C41095   4.750  -0.386   1.223  0.0009  0.0417 -0.1502
  312MOL0    Cl41096   4.796  -0.514   1.324  0.3089 -0.2391 -0.4486
  312MOL0     C41097   5.383  -0.052   1.904 -0.1482  0.2088  0.0002
  312MOL0     C41098   5.523  -0.034   1.893 -0.3944 -0.2214  0.0602
  312MOL0     O41099   5.768   0.074   2.034 -0.0240  0.4337 -0.1625
  312MOL0     C41100   6.002   0.103   1.743  0.4842  0.1879  0.6435
  312MOL0     C41101   6.144   0.107   1.720  0.5867  0.1249  0.6833
  312MOL0     N41102   6.807   0.457   1.826 -0.0789  0.6894  0.0683
  312MOL0     N41103   6.910   0.504   1.899  0.5530 -0.3787 -1.2390
  312MOL0     C41104   7.924   0.939   2.285  0.0877  0.3706  0.2739
  312MOL0     C41105   8.062   0.977   2.287  0.2192  0.0502  0.2842
  312MOL0     C41106   8.438   1.204   2.307  0.5324 -0.3365  0.3772
  312MOL0     C41107   8.505   1.186   2.417 -1.0320 -0.4399 -0.8670
  312MOL0     C41108   8.633   1.244   2.429 -0.1694  0.3764 -0.4221
  312MOL0     C41109   8.694   1.305   2.323 -0.7997  0.5962  0.0287
  312MOL0     O41110   8.820   1.353   2.338 -0.1699  0.3491  0.6466
  312MOL0     C41111   8.813   1.491   2.393  0.0510  0.8959 -0.9935
  312MOL0     C41112   8.807   1.592   2.282 -1.6475  0.2230 -0.2429
  312MOL0     C41113   8.937   1.580   2.195  0.1929 -0.1233  0.8216
  312MOL0     C41114   8.971   1.713   2.138  0.0735  0.0278  0.1460
  312MOL0     C41115   9.065   1.713   2.030 -1.0747  0.1856 -0.1179
  312MOL0     C41116   9.144   1.702   1.937 -0.0511  0.9061 -0.0331
  312MOL0     C41117   8.629   1.304   2.202  0.4507 -0.0499 -0.2171
  312MOL0     C41118   8.495   1.260   2.195 -1.0430 -0.7117  0.0100
  312MOL0     H41119   8.047   1.220   2.517 -0.9911  1.4743 -0.2877
  312MOL0     H41120   7.794   1.162   2.509 -0.9316  2.7751 -3.1257
  312MOL0     H41121   7.693   0.777   2.363 -0.4833  1.1140  1.6661
  312MOL0     H41122   7.632   0.862   2.212  0.0825 -1.7358  0.1691
  312MOL0     H41123   7.427   0.959   2.343  1.0164  0.4476  1.4206
  312MOL0     H41124   7.499   0.874   2.482  1.9184  2.2239 -0.4091
  312MOL0     H41125   7.422   0.649   2.368 -2.6164 -2.2950 -2.1830
  312MOL0     H41126   7.395   0.744   2.222 -2.1726 -1.4943  0.3799
  312MOL0     H41127   7.245   0.727   2.460  0.0431 -0.2220 -0.0124
  312MOL0     H41128   7.227   0.887   2.397 -3.8149  0.2442 -4.2520
  312MOL0     H41129   7.199   0.765   2.156 -2.1357 -3.6165 -2.6442
  312MOL0     H41130   7.064   0.795   2.265 -0.6111 -1.7543  1.1898
  312MOL0     H41131   7.100   0.562   2.364 -0.2605 -0.4577  0.1006
  312MOL0     H41132   7.226   0.546   2.250 -2.2323 -3.3190  1.2863
  312MOL0     H41133   6.931   0.598   2.214  0.5275  1.8721  0.7318
  312MOL0     H41134   7.045   0.640   2.079  0.1303 -3.6552 -1.9449
  312MOL0     H41135   7.000   0.362   2.192 -2.9464  2.0681  0.1713
  312MOL0     H41136   7.122   0.412   2.065 -0.2612  0.0400 -0.6584
  312MOL0     H41137   6.825   0.232   2.064 -0.1270  0.2833  0.0849
  312MOL0     H41138   6.561   0.325   1.820  0.5399  1.3710  1.4294
  312MOL0     H41139   6.607   0.202   1.945  4.3521 -2.3499 -0.0104
  312MOL0     H41140   6.772   0.114   1.768  1.4920  2.1373 -0.9805
  312MOL0     H41141   6.695   0.227   1.658  1.1403 -3.2881 -3.9261
  312MOL0     H41142   6.623   0.029   1.595  0.6899  0.5753  0.6973
  312MOL0     H41143   6.590  -0.041   1.755 -1.9716 -1.1275 -0.7582
  312MOL0     H41144   6.375  -0.007   1.637 -2.6074  1.2224 -0.0634
  312MOL0     H41145   6.411   0.160   1.616 -1.0579 -1.8762 -0.1271
  312MOL0     H41146   6.255   0.101   2.033  0.0389  1.8479 -0.7936
  312MOL0     H41147   6.025   0.058   2.081  0.4822  2.5367  0.0180
  312MOL0     H41148   5.532   0.231   1.696 -1.3685  0.6769 -1.9825
  312MOL0     H41149   5.282   0.203   1.701  0.7218  1.3204 -0.3943
  312MOL0     H41150   5.055  -0.116   1.947 -1.3726 -2.6390 -0.7486
  312MOL0     H41151   5.153  -0.174   1.823  1.3492  0.9642  1.6498
  312MOL0     H41152   4.922   0.025   1.767  2.1202  0.9249  0.5268
  312MOL0     H41153   4.908  -0.155   1.753  3.2567 -3.6328 -4.4081
  312MOL0     H41154   5.040  -0.165   1.560 -0.2564  0.9244 -0.8509
  312MOL0     H41155   5.114  -0.011   1.580 -0.4631  0.7104 -1.2097
  312MOL0     H41156   4.864   0.087   1.558 -2.2522 -0.4139 -1.3557
  312MOL0     H41157   4.948   0.039   1.419 -1.5613 -1.0088 -0.7387
  312MOL0     H41158   4.729  -0.047   1.410  0.7765  1.8940 -0.0003
  312MOL0     H41159   4.766  -0.151   1.561  1.4391  1.7183  1.9777
  312MOL0     H41160   4.910  -0.280   1.426  0.7110  0.8482  0.7828
  312MOL0     H41161   4.903  -0.157   1.299 -1.4136 -0.9717 -0.9814
  312MOL0     H41162   4.650  -0.299   1.390 -0.5450 -0.0301  0.3750
  312MOL0     H41163   4.683  -0.188   1.242 -1.6978  0.9037  1.2994
  312MOL0     H41164   4.824  -0.349   1.150  0.9779  2.6116  1.9713
  312MOL0     H41165   4.655  -0.419   1.181  0.4683 -0.3116 -0.9635
  312MOL0     H41166   5.343  -0.145   1.944  0.8476  0.0086  0.5721
  312MOL0     H41167   5.581  -0.109   1.946 -1.8750 -0.6476  1.1466
  312MOL0     H41168   5.932   0.092   1.660  1.4078  0.9967 -0.2757
  312MOL0     H41169   6.180   0.130   1.620  3.3087 -2.6338  0.8763
  312MOL0     H41170   7.890   0.856   2.223  2.4015 -1.5239  1.3458
  312MOL0     H41171   8.136   0.909   2.245  0.7504  0.0844  1.1319
  312MOL0     H41172   8.456   1.147   2.506  0.9452 -0.6487  0.1787
  312MOL0     H41173   8.673   1.229   2.529  0.7753 -1.3263 -0.9976
  312MOL0     H41174   8.896   1.507   2.462  0.3266  1.5612 -1.4694
  312MOL0     H41175   8.723   1.512   2.452  2.5288  3.0894  2.3240
  312MOL0     H41176   8.716   1.572   2.225 -0.6708 -2.8132 -0.9473
  312MOL0     H41177   8.819   1.687   2.335 -1.2098 -1.4291  2.8505
  312MOL0     H41178   8.926   1.503   2.118  2.7294 -1.1868  1.4248
  312MOL0     H41179   9.029   1.543   2.241  1.7205  2.3583 -0.0528
  312MOL0     H41180   8.881   1.763   2.102  1.4446  1.7496 -1.0728
  312MOL0     H41181   9.029   1.772   2.209 -2.5137  1.2589  1.3660
  312MOL0     H41182   9.214   1.683   1.858  0.8318  1.7645  0.5129
  312MOL0     H41183   8.687   1.349   2.122  1.0775  3.4615  2.0289
  312MOL0     H41184   8.440   1.282   2.104 -1.5267  1.7348  0.8375
  313MOL0     O41185   3.278   4.909   7.720  0.3110  0.0625  0.4225
  313MOL0     C41186   3.343   4.941   7.818 -0.0336  0.7360  0.7277
  313MOL0     O41187   3.320   5.042   7.899 -0.2739 -0.6919 -0.6356
  313MOL0     C41188   3.187   5.064   7.940 -0.6156 -0.0054 -0.0589
  313MOL0     C41189   3.080   4.977   7.923 -0.2968 -0.0940 -0.2916
  313MOL0     C41190   2.956   5.019   7.959  0.8516  0.3442  1.0632
  313MOL0     C41191   2.930   5.135   8.031 -0.2079  0.1312  0.1028
  313MOL0     O41192   2.802   5.169   8.070  0.5962  0.4698  0.0040
  313MOL0     C41193   2.738   5.278   8.004  0.6649  0.4425  0.3499
  313MOL0     C41194   2.586   5.262   8.023  0.3439 -0.4716 -0.6731
  313MOL0     C41195   2.514   5.153   7.947  0.6467  0.1873 -0.2415
  313MOL0     C41196   2.371   5.143   7.986 -0.5396 -0.2346  0.7309
  313MOL0     C41197   2.277   5.250   7.928  0.0457 -1.1279  0.2731
  313MOL0     C41198   2.130   5.223   7.911  0.3010 -0.0947 -0.1065
  313MOL0     C41199   2.095   5.130   7.806 -0.5588 -0.1361 -0.1664
  313MOL0     C41200   1.937   5.105   7.790 -0.1210 -0.5503  0.7207
  313MOL0     N41201   1.897   5.004   7.690 -0.0560 -0.0029  0.2868
  313MOL0     C41202   1.889   4.868   7.698 -0.1065 -0.3127 -0.7156
  313MOL0     C41203   1.842   4.833   7.576 -0.4817 -0.0122  0.5350
  313MOL0     C41204   1.799   4.695   7.524  0.2743 -0.5466 -0.3159
  313MOL0     C41205   1.914   4.596   7.488 -0.1773 -1.1504  0.0813
  313MOL0     C41206   1.989   4.642   7.359 -0.4992  0.0086 -0.3408
  313MOL0     C41207   2.075   4.524   7.299 -0.3109 -0.0026  0.2297
  313MOL0     O41208   2.182   4.474   7.387 -0.0230 -0.6303 -0.0622
  313MOL0     C41209   2.313   4.494   7.342  0.8085  0.6744  1.1486
  313MOL0     C41210   2.350   4.432   7.222  0.2355  0.3047  0.6490
  313MOL0     C41211   2.473   4.454   7.168 -0.2653 -0.5385  0.7409
  313MOL0     C41212   2.574   4.536   7.232 -1.0382  0.2431 -0.4890
  313MOL0     C41213   2.710   4.567   7.179 -0.6509 -0.4751  0.4631
  313MOL0     O41214   2.790   4.662   7.242 -0.0441  0.3082  0.4156
  313MOL0     C41215   2.912   4.673   7.190 -0.4338  0.9151  0.0770
  313MOL0     C41216   3.018   4.607   7.248  0.0132 -0.2459 -0.1210
  313MOL0     C41217   3.153   4.630   7.204 -0.0633  0.6797 -0.1188
  313MOL0     C41218   3.168   4.716   7.100 -0.5884 -0.2623 -0.0676
  313MOL0     O41219   3.290   4.738   7.054 -0.3405  0.2719  0.0325
  313MOL0     C41220   3.357   4.623   7.008 -0.1225 -0.1993  0.5497
  313MOL0     C41221   3.482   4.662   6.933 -0.2706  0.6090 -0.2520
  313MOL0     C41222   3.584   4.735   7.033  0.2202 -0.7310 -0.2092
  313MOL0     C41223   3.720   4.769   6.971  0.0888 -0.2896 -0.8098
  313MOL0     C41224   3.807   4.864   7.056 -0.2164  0.9627  0.2137
  313MOL0     C41225   3.948   4.865   7.007  0.0321  0.4570 -0.6664
  313MOL0     C41226   4.039   4.961   7.088 -0.0956  0.7749  0.4523
  313MOL0     C41227   4.191   4.970   7.055 -0.7727 -0.1476 -0.2030
  313MOL0    Cl41228   4.189   5.066   6.904  0.0442  0.1470  0.5135
  313MOL0     C41229   3.068   4.786   7.040 -0.4394  0.0179 -1.3731
  313MOL0     C41230   2.934   4.762   7.084  0.0550 -0.4078  0.8012
  313MOL0     O41231   2.739   4.510   7.073  0.1290 -0.1130  0.0145
  313MOL0     C41232   2.534   4.597   7.356 -0.1130 -0.7672  0.4510
  313MOL0     C41233   2.406   4.576   7.402  0.2765  0.0019 -0.2548
  313MOL0     N41234   1.844   4.942   7.494 -0.0185  0.1827  0.3157
  313MOL0     N41235   1.868   5.050   7.566  0.0356  0.2102  0.2170
  313MOL0     C41236   3.038   5.219   8.063  0.3766 -0.2756 -0.9618
  313MOL0     C41237   3.164   5.182   8.023  0.4450 -0.1810  0.1415
  313MOL0     C41238   3.474   4.872   7.828  0.1877 -0.5355  0.1772
  313MOL0     C41239   3.590   4.941   7.882 -0.1666  1.1629 -1.1361
  313MOL0     C41240   3.720   4.895   7.881 -0.3236 -0.7638  0.0262
  313MOL0     C41241   3.748   4.777   7.816  0.4439  0.4399  0.7045
  313MOL0     O41242   3.873   4.709   7.808 -0.1882 -0.5121  0.3978
  313MOL0     C41243   3.990   4.776   7.857  0.2625 -1.5089  0.5470
  313MOL0     C41244   4.109   4.693   7.799  0.6638 -0.7789 -0.2449
  313MOL0     C41245   4.133   4.569   7.885 -0.6458 -0.0851  0.2639
  313MOL0     C41246   4.155   4.445   7.789 -0.2034 -0.6097  0.7379
  313MOL0     C41247   4.029   4.405   7.729 -0.1225 -0.6467 -0.0719
  313MOL0     C41248   3.913   4.385   7.698 -0.2011  0.0683 -0.2456
  313MOL0     C41249   3.642   4.707   7.756 -0.3749 -0.4947 -0.1384
  313MOL0     C41250   3.506   4.747   7.766 -0.1463  0.9920 -0.5174
  313MOL0     H41251   3.097   4.886   7.865  0.3277 -2.0870  2.7623
  313MOL0     H41252   2.880   4.945   7.935 -0.6662  1.5037  2.1509
  313MOL0     H41253   2.766   5.298   7.900  0.5193  0.7754  0.3723
  313MOL0     H41254   2.762   5.377   8.045 -1.5934  1.8447 -1.4608
  313MOL0     H41255   2.549   5.361   7.994  3.4149  1.5751  1.7889
  313MOL0     H41256   2.562   5.270   8.130  0.4194  0.8042 -0.7437
  313MOL0     H41257   2.553   5.056   7.979  0.0577  0.0175 -0.0276
  313MOL0     H41258   2.521   5.168   7.839 -3.5191  0.3446 -0.6268
  313MOL0     H41259   2.326   5.050   7.950 -3.5210  1.7145 -1.0782
  313MOL0     H41260   2.369   5.144   8.095  2.3009 -0.8744  0.8583
  313MOL0     H41261   2.299   5.285   7.827  0.6533 -1.3457  0.3240
  313MOL0     H41262   2.279   5.345   7.982  4.9023 -0.1992 -1.0341
  313MOL0     H41263   2.076   5.316   7.891  0.5708 -0.1532 -1.1604
  313MOL0     H41264   2.094   5.186   8.008  2.1643 -0.9745  0.2967
  313MOL0     H41265   2.128   5.155   7.705  1.1949 -0.4868  0.2747
  313MOL0     H41266   2.133   5.028   7.819  0.0645 -0.2706 -2.6161
  313MOL0     H41267   1.894   5.204   7.771  2.8346  1.1950  2.3687
  313MOL0     H41268   1.892   5.069   7.883 -0.4806  1.8268  1.5430
  313MOL0     H41269   1.901   4.803   7.783  0.3680 -0.2605 -0.7407
  313MOL0     H41270   1.743   4.724   7.435 -0.2885 -0.9700 -0.1076
  313MOL0     H41271   1.731   4.658   7.601 -1.2804  0.0092 -1.3830
  313MOL0     H41272   1.885   4.491   7.483  1.0741 -1.4634 -1.1909
  313MOL0     H41273   1.991   4.608   7.565 -1.7309  2.5859  1.2597
  313MOL0     H41274   1.920   4.671   7.280 -1.2429 -1.4675 -0.2645
  313MOL0     H41275   2.050   4.733   7.364 -0.5991  0.3028 -3.0417
  313MOL0     H41276   2.113   4.564   7.204  2.1771  0.5529  1.3889
  313MOL0     H41277   2.011   4.440   7.274  0.6057 -0.3467 -1.0780
  313MOL0     H41278   2.277   4.383   7.158 -0.7169  1.6812  0.6366
  313MOL0     H41279   2.500   4.426   7.067  0.8056  1.5721  0.3832
  313MOL0     H41280   3.020   4.551   7.341  2.4933 -1.3021 -0.7425
  313MOL0     H41281   3.231   4.584   7.263 -1.0576  2.3615  2.7137
  313MOL0     H41282   3.287   4.571   6.943  0.4693  2.1061 -2.1078
  313MOL0     H41283   3.386   4.556   7.090  0.4601 -1.8300 -0.9411
  313MOL0     H41284   3.464   4.726   6.847  1.7033  0.2850 -0.9635
  313MOL0     H41285   3.529   4.574   6.887  1.3742  0.3759  1.6973
  313MOL0     H41286   3.611   4.669   7.115  0.6879 -0.2686  0.0151
  313MOL0     H41287   3.547   4.828   7.079  0.3719 -0.2286 -1.0718
  313MOL0     H41288   3.765   4.670   6.959  1.4528 -0.1595  2.3473
  313MOL0     H41289   3.697   4.801   6.869 -2.1708 -1.4296 -0.7301
  313MOL0     H41290   3.807   4.830   7.160  1.2478  3.6097  1.1817
  313MOL0     H41291   3.752   4.958   7.049  0.3835  1.4780  1.9040
  313MOL0     H41292   3.952   4.879   6.898  1.0797 -3.2189 -1.2475
  313MOL0     H41293   3.993   4.766   7.015  0.6657  0.8284  0.4913
  313MOL0     H41294   4.001   5.063   7.089 -0.6394  0.5999  2.8140
  313MOL0     H41295   4.028   4.927   7.191 -1.2289  0.1481  0.1480
  313MOL0     H41296   4.231   4.869   7.047  0.0541 -0.1582  2.8581
  313MOL0     H41297   4.245   5.023   7.134  1.0216 -3.1981  0.7809
  313MOL0     H41298   3.092   4.870   6.976 -0.9627  2.4018  1.3269
  313MOL0     H41299   2.856   4.826   7.044  1.1307  0.4381 -0.0225
  313MOL0     H41300   2.607   4.655   7.411 -2.1256  1.7822  0.5770
  313MOL0     H41301   2.365   4.623   7.491 -2.0153 -0.9300 -0.7624
  313MOL0     H41302   3.028   5.310   8.121 -2.9067 -0.8471 -0.4079
  313MOL0     H41303   3.242   5.245   8.065  0.3076 -0.4532  0.8160
  313MOL0     H41304   3.576   5.039   7.926  2.2028  1.9481 -2.0211
  313MOL0     H41305   3.791   4.966   7.924 -4.6456  3.1046  1.6225
  313MOL0     H41306   3.985   4.788   7.966  1.0325  0.4212  0.4071
  313MOL0     H41307   3.986   4.876   7.815 -2.3330 -1.5680  0.5157
  313MOL0     H41308   4.110   4.665   7.693  0.7433  3.1924 -1.4571
  313MOL0     H41309   4.203   4.746   7.818 -0.9362  2.2069 -0.0721
  313MOL0     H41310   4.043   4.549   7.943 -2.5075  0.0243 -2.4125
  313MOL0     H41311   4.220   4.588   7.949 -2.1417  1.0301  2.0618
  313MOL0     H41312   4.221   4.479   7.708 -1.1803 -0.8549 -0.1772
  313MOL0     H41313   4.195   4.364   7.851  0.3227  1.1614  2.8114
  313MOL0     H41314   3.815   4.348   7.677 -0.2814  0.8379 -1.3428
  313MOL0     H41315   3.659   4.613   7.705 -1.3204  0.3744 -2.2073
  313MOL0     H41316   3.431   4.684   7.720  1.1830 -0.1139 -1.2730
  314MOL0     O41317   5.203   4.327  10.285 -0.1591 -0.3793  0.0987
  314MOL0     C41318   5.179   4.434  10.340  0.3365  0.5402 -0.1566
  314MOL0     O41319   5.059   4.475  10.386  0.1538 -0.1246  0.0104
  314MOL0     C41320   4.949   4.401  10.357  0.7417  1.0155  0.8794
  314MOL0     C41321   4.891   4.325  10.459 -0.0510 -0.0991 -0.6641
  314MOL0     C41322   4.773   4.246  10.420 -0.7044  0.1359  0.1891
  314MOL0     C41323   4.712   4.265  10.299 -0.5843 -0.2242 -0.3824
  314MOL0     O41324   4.590   4.214  10.271 -0.0152  0.3003  0.8217
  314MOL0     C41325   4.561   4.086  10.328 -0.2593 -0.3059  0.4256
  314MOL0     C41326   4.439   4.040  10.252  0.5729  0.4261  0.8678
  314MOL0     C41327   4.450   3.997  10.104 -1.0896 -0.0409 -0.1225
  314MOL0     C41328   4.545   3.876  10.078 -0.4662 -0.0196 -0.0060
  314MOL0     C41329   4.585   3.866   9.927 -0.0028  0.4437  0.0188
  314MOL0     C41330   4.470   3.871   9.828  0.5767 -0.0294  0.1897
  314MOL0     C41331   4.371   3.749   9.825  0.7285 -0.0322  0.2984
  314MOL0     C41332   4.445   3.627   9.768 -0.1589 -0.5946 -0.0491
  314MOL0     N41333   4.338   3.536   9.716 -0.0286 -0.2579  0.1572
  314MOL0     C41334   4.262   3.552   9.604  0.2728 -0.0915  1.0864
  314MOL0     C41335   4.161   3.453   9.619 -0.7869  0.0971 -1.1838
  314MOL0     C41336   4.078   3.396   9.500  0.1671 -0.0638 -0.2132
  314MOL0     C41337   3.925   3.380   9.535  0.4017 -0.9005 -0.9492
  314MOL0     C41338   3.853   3.299   9.427 -0.3503  0.2852  0.0611
  314MOL0     C41339   3.707   3.278   9.459  0.1928 -0.2347 -0.6324
  314MOL0     O41340   3.655   3.400   9.504  0.2741  0.0941 -0.5422
  314MOL0     C41341   3.517   3.429   9.478  0.2981  0.0057 -0.4266
  314MOL0     C41342   3.405   3.340   9.472  0.0330 -0.7475 -0.1056
  314MOL0     C41343   3.277   3.378   9.460 -0.2204 -0.5043  0.0650
  314MOL0     C41344   3.252   3.513   9.458 -0.0913 -0.1199 -0.4421
  314MOL0     C41345   3.118   3.565   9.429 -0.5786 -1.1634 -0.0840
  314MOL0     O41346   3.018   3.471   9.416  0.0069  0.3095 -0.2097
  314MOL0     C41347   2.889   3.511   9.378  0.5645  0.0432 -0.4611
  314MOL0     C41348   2.866   3.602   9.270  0.4956 -0.0753 -0.6012
  314MOL0     C41349   2.739   3.632   9.229  0.7405 -0.1768  0.6317
  314MOL0     C41350   2.632   3.592   9.307 -0.2173 -0.9844 -0.6587
  314MOL0     O41351   2.497   3.604   9.283 -0.2095 -1.1198 -0.5302
  314MOL0     C41352   2.468   3.677   9.167 -0.2775 -0.0517 -0.3548
  314MOL0     C41353   2.318   3.709   9.172  0.1553 -0.1113  0.2858
  314MOL0     C41354   2.227   3.586   9.163  0.0566  0.6108  1.0860
  314MOL0     C41355   2.082   3.618   9.160 -0.5388 -0.0974 -1.0851
  314MOL0     C41356   1.989   3.512   9.109  0.4182 -0.0388  0.0105
  314MOL0     C41357   1.866   3.494   9.191 -0.0144  0.1716  0.9220
  314MOL0     C41358   1.798   3.625   9.207  0.1821  0.0261  0.0804
  314MOL0     C41359   1.682   3.591   9.290  0.0750 -0.6606  0.3592
  314MOL0    Cl41360   1.550   3.533   9.183  0.1833  0.3417  0.2396
  314MOL0     C41361   2.657   3.500   9.413  0.1909  0.1954  0.9355
  314MOL0     C41362   2.784   3.467   9.462  0.6282  0.3033  0.0630
  314MOL0     O41363   3.100   3.686   9.429  0.2379  0.1785 -0.7737
  314MOL0     C41364   3.353   3.606   9.463 -0.0383 -0.5574  0.5783
  314MOL0     C41365   3.488   3.561   9.479  1.4403 -0.6040 -0.8519
  314MOL0     N41366   4.181   3.388   9.735 -0.0257  0.8243  0.3835
  314MOL0     N41367   4.280   3.448   9.795  0.5447 -0.3446  0.0177
  314MOL0     C41368   4.767   4.354  10.208 -0.8481 -1.2803  1.0194
  314MOL0     C41369   4.886   4.424  10.226  0.4317 -0.4752 -0.2438
  314MOL0     C41370   5.291   4.527  10.354 -0.6915  0.6588 -0.5168
  314MOL0     C41371   5.285   4.652  10.421 -0.0207  0.3033  0.9947
  314MOL0     C41372   5.406   4.722  10.445  0.4161 -0.7498 -0.5839
  314MOL0     C41373   5.525   4.680  10.389 -0.2595 -0.2598 -0.2866
  314MOL0     O41374   5.639   4.754  10.409  0.4336  0.5449  0.4509
  314MOL0     C41375   5.719   4.785  10.295 -0.2323  0.4847  0.0680
  314MOL0     C41376   5.779   4.926  10.324  0.2137  0.2618 -0.2669
  314MOL0     C41377   5.900   4.901  10.418 -0.4345 -0.3265 -0.2300
  314MOL0     C41378   5.980   5.026  10.445 -0.5860 -0.0472  0.5512
  314MOL0     C41379   6.100   5.013  10.535 -0.7516  0.1297 -0.3186
  314MOL0     C41380   6.193   5.017  10.608 -0.3274 -0.4564  0.5545
  314MOL0     C41381   5.527   4.560  10.317 -0.8290 -0.6376  0.0273
  314MOL0     C41382   5.419   4.479  10.301 -0.0012  0.4015 -0.2484
  314MOL0     H41383   4.930   4.335  10.560 -1.3468  2.8431 -0.3508
  314MOL0     H41384   4.732   4.187  10.502  2.2452 -2.6284 -0.1302
  314MOL0     H41385   4.528   4.082  10.432 -0.5215  1.8607  0.4611
  314MOL0     H41386   4.651   4.025  10.318 -1.1150 -2.1303  2.8954
  314MOL0     H41387   4.366   4.122  10.257  1.2544  1.3506 -2.0213
  314MOL0     H41388   4.397   3.954  10.304 -1.4605  1.0530  0.3664
  314MOL0     H41389   4.492   4.088  10.060  0.6789  0.4011  2.2618
  314MOL0     H41390   4.353   3.974  10.060 -1.7478  0.3565  1.0589
  314MOL0     H41391   4.633   3.867  10.142 -1.3045 -0.0607  1.1657
  314MOL0     H41392   4.492   3.787  10.113 -0.4722 -0.2552 -0.6040
  314MOL0     H41393   4.635   3.769   9.920 -1.8818 -0.4428 -2.7532
  314MOL0     H41394   4.664   3.938   9.903 -0.2552  0.9375  0.6370
  314MOL0     H41395   4.513   3.877   9.727  0.6619  1.5153  0.2857
  314MOL0     H41396   4.415   3.965   9.837 -0.7309 -0.7716  0.1790
  314MOL0     H41397   4.333   3.740   9.928 -1.0176 -0.1039 -0.3223
  314MOL0     H41398   4.293   3.770   9.752  1.0132 -2.0417 -0.6580
  314MOL0     H41399   4.495   3.580   9.853 -2.1243 -0.4590  1.2397
  314MOL0     H41400   4.513   3.656   9.687 -0.4908  0.2951 -0.0149
  314MOL0     H41401   4.274   3.611   9.514 -1.8411 -0.1502  0.7358
  314MOL0     H41402   4.126   3.300   9.481  2.6187  1.2098 -0.8318
  314MOL0     H41403   4.094   3.459   9.412  1.4121 -0.9970 -0.6883
  314MOL0     H41404   3.873   3.476   9.539  2.0710  0.0208 -0.1135
  314MOL0     H41405   3.911   3.347   9.639 -1.9105 -1.3074 -1.3424
  314MOL0     H41406   3.872   3.356   9.335  0.0898 -2.7253 -1.8517
  314MOL0     H41407   3.893   3.199   9.413 -1.5370 -0.2193  0.1074
  314MOL0     H41408   3.708   3.205   9.540  0.0972 -1.4976 -1.7243
  314MOL0     H41409   3.660   3.234   9.370 -4.8704  0.8050  1.1688
  314MOL0     H41410   3.427   3.234   9.477  1.7286 -0.4098  0.6577
  314MOL0     H41411   3.200   3.302   9.453  0.4772 -1.0790 -2.4378
  314MOL0     H41412   2.951   3.628   9.209  0.1767 -0.3686 -1.1804
  314MOL0     H41413   2.726   3.683   9.134 -0.9933  0.9495  1.4157
  314MOL0     H41414   2.478   3.631   9.068  1.8093  0.7974 -0.5910
  314MOL0     H41415   2.530   3.766   9.154 -0.9068  0.3328 -0.7622
  314MOL0     H41416   2.295   3.765   9.081  0.2773 -2.9398 -1.6379
  314MOL0     H41417   2.303   3.757   9.268  0.2265 -2.2627  1.4432
  314MOL0     H41418   2.239   3.511   9.241 -2.3824  2.8511  3.8930
  314MOL0     H41419   2.239   3.537   9.065 -3.7555  0.1689  0.6773
  314MOL0     H41420   2.058   3.661   9.258 -0.8435  1.7902 -1.9499
  314MOL0     H41421   2.083   3.695   9.083  3.1040 -0.5061 -1.6114
  314MOL0     H41422   2.046   3.419   9.112  1.7440  0.7383  2.9866
  314MOL0     H41423   1.965   3.541   9.006  4.4186 -0.9449 -1.3527
  314MOL0     H41424   1.905   3.435   9.274  2.8183 -2.7281 -2.1215
  314MOL0     H41425   1.799   3.424   9.140  2.9919 -2.2133 -0.0591
  314MOL0     H41426   1.861   3.693   9.264  0.5476 -1.2775  1.3093
  314MOL0     H41427   1.770   3.667   9.111 -1.7862 -1.6157 -0.1375
  314MOL0     H41428   1.648   3.672   9.354  0.5506  1.6270 -2.1324
  314MOL0     H41429   1.707   3.518   9.367  1.0515  1.7437  2.4503
  314MOL0     H41430   2.571   3.463   9.468  0.5511 -0.5383  1.0115
  314MOL0     H41431   2.787   3.402   9.550  2.5493 -1.8092 -1.4490
  314MOL0     H41432   3.332   3.712   9.460  0.0174 -0.5359  0.9061
  314MOL0     H41433   3.558   3.644   9.481  0.3657  0.3484  1.1606
  314MOL0     H41434   4.719   4.369  10.111 -2.2077 -1.7190  1.5922
  314MOL0     H41435   4.929   4.499  10.161  2.6849 -0.5119  1.0999
  314MOL0     H41436   5.196   4.693  10.469 -1.4613  2.3708 -3.0154
  314MOL0     H41437   5.404   4.814  10.502  3.2578 -0.1994 -1.2229
  314MOL0     H41438   5.664   4.791  10.200  3.0737  0.0784 -2.0409
  314MOL0     H41439   5.802   4.715  10.282  0.9140  1.6291  0.9114
  314MOL0     H41440   5.808   4.973  10.229 -0.4728  0.1970 -0.5130
  314MOL0     H41441   5.709   4.992  10.377 -0.2868 -2.5625  2.9578
  314MOL0     H41442   5.962   4.832  10.360 -0.5949 -1.4480  0.8750
  314MOL0     H41443   5.865   4.848  10.508 -3.0188  1.6633  0.0659
  314MOL0     H41444   6.008   5.050  10.341  0.4706 -1.9195  0.3637
  314MOL0     H41445   5.921   5.112  10.478 -0.0721  1.2958 -1.8030
  314MOL0     H41446   6.286   5.005  10.659  0.8207 -2.3422 -1.8551
  314MOL0     H41447   5.628   4.546  10.282 -0.8521  0.8808 -0.7416
  314MOL0     H41448   5.442   4.383  10.256  2.3809 -0.1534  1.9474
  315MOL0     O41449   7.149  11.068   1.888 -0.1895  0.5021 -0.3165
  315MOL0     C41450   7.186  10.982   1.808 -0.1106  0.1444  0.4170
  315MOL0     O41451   7.110  10.876   1.771  0.4874 -0.1354 -0.0650
  315MOL0     C41452   6.973  10.849   1.814 -1.0114 -0.4450 -0.1662
  315MOL0     C41453   6.952  10.743   1.902  0.0604  0.6717  0.4865
  315MOL0     C41454   6.817  10.700   1.926  0.1819 -0.3455  0.1836
  315MOL0     C41455   6.712  10.773   1.871 -0.4695 -0.1068 -0.1867
  315MOL0     O41456   6.598  10.706   1.897  0.0540  0.0247  0.4361
  315MOL0     C41457   6.471  10.772   1.887  1.2631 -0.3902  0.3145
  315MOL0     C41458   6.373  10.718   1.996  0.8147  0.4752  1.5006
  315MOL0     C41459   6.247  10.805   1.995  0.8089 -0.5582  1.1193
  315MOL0     C41460   6.260  10.937   2.057 -0.0696  0.0938 -0.5399
  315MOL0     C41461   6.123  11.004   2.061  0.0032 -0.1581 -0.1772
  315MOL0     C41462   6.026  10.932   2.160 -0.6763  1.4646  0.3641
  315MOL0     C41463   5.915  11.020   2.205  0.0512 -0.4607 -0.2785
  315MOL0     C41464   5.821  10.970   2.306 -0.4108  0.1591  0.2720
  315MOL0     N41465   5.698  11.039   2.305  0.8022 -0.0129 -0.6298
  315MOL0     C41466   5.674  11.165   2.259  0.9467 -0.2791  0.8632
  315MOL0     C41467   5.556  11.198   2.316 -0.0285 -0.2238  0.2079
  315MOL0     C41468   5.499  11.334   2.321  0.7138  0.8856  0.0335
  315MOL0     C41469   5.381  11.356   2.413  0.2340  0.8295  0.0244
  315MOL0     C41470   5.405  11.322   2.569  0.0920 -0.4584  0.2920
  315MOL0     C41471   5.283  11.354   2.657 -0.4959 -0.0245  0.8740
  315MOL0     O41472   5.172  11.279   2.606 -0.6155 -1.1337  0.4574
  315MOL0     C41473   5.048  11.343   2.594 -0.0791  0.4654  0.2550
  315MOL0     C41474   5.025  11.482   2.604  0.8764 -0.2041 -0.8978
  315MOL0     C41475   4.892  11.528   2.571  1.2321 -0.5292  0.7925
  315MOL0     C41476   4.785  11.427   2.564 -0.2850 -0.7896  0.5128
  315MOL0     C41477   4.648  11.471   2.540  0.1123  0.3688 -0.2994
  315MOL0     O41478   4.559  11.379   2.497  0.2665 -0.2735  0.7746
  315MOL0     C41479   4.428  11.423   2.461 -0.1213  0.4154 -0.5745
  315MOL0     C41480   4.321  11.439   2.552  0.2647  0.5761 -0.2029
  315MOL0     C41481   4.195  11.472   2.501 -0.5363 -0.8665 -1.3498
  315MOL0     C41482   4.175  11.487   2.364 -0.4423  0.5842 -0.6566
  315MOL0     O41483   4.046  11.522   2.328 -0.1389  0.5768  0.5691
  315MOL0     C41484   4.025  11.562   2.191  0.2432  0.2635  0.4078
  315MOL0     C41485   3.885  11.629   2.180  0.6547 -0.3523  0.7300
  315MOL0     C41486   3.760  11.556   2.238 -0.0476 -0.1191 -0.1141
  315MOL0     C41487   3.767  11.509   2.380  1.9444 -0.3726  0.4752
  315MOL0     C41488   3.626  11.482   2.431  0.4918 -0.2622 -0.6754
  315MOL0     C41489   3.540  11.606   2.460  0.2118 -0.1814  0.3645
  315MOL0     C41490   3.399  11.561   2.448  0.4040  0.1374  0.3739
  315MOL0     C41491   3.299  11.672   2.502  0.3156  0.6172  0.9380
  315MOL0    Cl41492   3.132  11.613   2.465 -0.3470  0.1240  0.4593
  315MOL0     C41493   4.273  11.448   2.273 -0.1827 -0.7111 -0.5343
  315MOL0     C41494   4.405  11.433   2.320  0.2997  0.2793  0.8204
  315MOL0     O41495   4.615  11.584   2.587 -0.8309  0.0849 -0.1353
  315MOL0     C41496   4.817  11.284   2.557  0.2017  0.8056 -0.1832
  315MOL0     C41497   4.943  11.252   2.572 -0.9041 -0.7820 -0.5755
  315MOL0     N41498   5.497  11.083   2.373  0.1908 -0.1868 -0.0969
  315MOL0     N41499   5.585  10.990   2.370 -0.0445 -0.4963  0.0644
  315MOL0     C41500   6.731  10.888   1.798 -0.9206 -0.5723  0.8549
  315MOL0     C41501   6.865  10.920   1.764 -0.2570 -0.1314  0.7886
  315MOL0     C41502   7.309  10.997   1.722  0.3646 -0.0429 -0.0396
  315MOL0     C41503   7.337  10.897   1.630 -0.8153 -0.4100  0.8159
  315MOL0     C41504   7.452  10.904   1.545 -1.0551 -0.2438 -0.4092
  315MOL0     C41505   7.545  11.010   1.550 -0.0019  0.3458  0.0308
  315MOL0     O41506   7.653  10.997   1.467 -0.4062 -0.5838  0.2456
  315MOL0     C41507   7.778  11.054   1.497  0.0943  1.2384 -0.5634
  315MOL0     C41508   7.806  11.180   1.411 -0.7200 -0.6062 -0.8612
  315MOL0     C41509   7.951  11.241   1.438  0.2496 -0.1061  0.3276
  315MOL0     C41510   7.958  11.373   1.349 -0.1580 -0.8619 -0.5477
  315MOL0     C41511   8.009  11.333   1.213 -0.3565 -0.3477 -0.4800
  315MOL0     C41512   8.048  11.314   1.097 -0.6070  0.2334 -0.5607
  315MOL0     C41513   7.502  11.117   1.630  0.1825  0.4265 -0.5837
  315MOL0     C41514   7.393  11.118   1.721 -0.0386  0.1391 -0.2408
  315MOL0     H41515   7.034  10.685   1.943 -1.6319 -2.6905 -0.5511
  315MOL0     H41516   6.796  10.607   1.978 -1.4404  1.0320  2.1578
  315MOL0     H41517   6.427  10.752   1.789 -4.6518  0.5112  2.3983
  315MOL0     H41518   6.476  10.880   1.898 -4.0535 -0.0691  2.4085
  315MOL0     H41519   6.419  10.716   2.095  1.4853  1.4829  1.2337
  315MOL0     H41520   6.346  10.615   1.974 -1.1698  0.6358  2.9241
  315MOL0     H41521   6.167  10.750   2.047  0.6685  1.3959  3.1430
  315MOL0     H41522   6.226  10.828   1.891 -1.1770  6.1645  2.5430
  315MOL0     H41523   6.312  10.924   2.153 -1.2001  0.1543  0.0925
  315MOL0     H41524   6.312  11.006   1.990  0.1162  2.0693  1.4947
  315MOL0     H41525   6.070  11.013   1.966 -1.7370  1.9611  0.8961
  315MOL0     H41526   6.152  11.104   2.096 -0.9118  0.9246 -2.3114
  315MOL0     H41527   6.089  10.897   2.242 -0.4090 -1.5882 -1.0225
  315MOL0     H41528   5.991  10.836   2.122  0.0082  1.7794 -1.1271
  315MOL0     H41529   5.970  11.107   2.242  0.5099 -1.7239  2.2231
  315MOL0     H41530   5.854  11.042   2.117  0.5535 -0.3363 -0.5986
  315MOL0     H41531   5.863  10.974   2.407 -1.0923 -0.4748  0.5931
  315MOL0     H41532   5.791  10.866   2.287 -3.1978  0.8881  0.1867
  315MOL0     H41533   5.744  11.230   2.208  5.0278 -3.8245  1.2539
  315MOL0     H41534   5.455  11.341   2.221 -1.1309 -1.3713  0.5963
  315MOL0     H41535   5.571  11.416   2.321 -0.8748  2.3495 -1.0305
  315MOL0     H41536   5.299  11.290   2.384  0.4884  0.8721 -0.8036
  315MOL0     H41537   5.360  11.463   2.405 -0.7528  0.5722 -0.9696
  315MOL0     H41538   5.415  11.213   2.568  2.3857 -0.3017 -1.0890
  315MOL0     H41539   5.496  11.363   2.614  1.2756 -0.4249 -1.9757
  315MOL0     H41540   5.274  11.463   2.650  2.6686  0.2272 -1.7847
  315MOL0     H41541   5.280  11.321   2.761 -0.3060 -0.4644  0.7400
  315MOL0     H41542   5.091  11.559   2.642 -0.1205  0.1712  0.1183
  315MOL0     H41543   4.854  11.630   2.570  0.2982 -0.8580  1.1849
  315MOL0     H41544   4.328  11.438   2.661 -1.9441  1.6244  0.0011
  315MOL0     H41545   4.110  11.483   2.568 -0.9533 -1.0195 -1.8520
  315MOL0     H41546   4.043  11.490   2.111  1.0047  1.1650 -0.2550
  315MOL0     H41547   4.097  11.642   2.175  1.5115 -0.5807  1.6036
  315MOL0     H41548   3.856  11.684   2.090 -2.3604 -1.7976  0.7167
  315MOL0     H41549   3.909  11.704   2.257  1.1411 -1.9824  2.2477
  315MOL0     H41550   3.725  11.470   2.180 -0.2920 -0.3545  0.3760
  315MOL0     H41551   3.691  11.641   2.234 -0.3648 -0.2009  2.1704
  315MOL0     H41552   3.830  11.419   2.382  1.0765 -1.0027 -0.0472
  315MOL0     H41553   3.816  11.587   2.439 -0.0500  2.7488 -1.6980
  315MOL0     H41554   3.620  11.421   2.522  0.8309 -0.9259 -1.0901
  315MOL0     H41555   3.584  11.415   2.356 -2.5595  1.7549 -0.9279
  315MOL0     H41556   3.537  11.682   2.381 -1.6094 -2.1674 -1.6106
  315MOL0     H41557   3.562  11.652   2.556 -0.6575 -0.4696  0.7154
  315MOL0     H41558   3.378  11.536   2.344  0.3524  2.0082 -0.0975
  315MOL0     H41559   3.388  11.471   2.508  0.8633 -0.8111 -0.9240
  315MOL0     H41560   3.318  11.768   2.454  3.1720  0.3167  1.2986
  315MOL0     H41561   3.316  11.691   2.609  0.7948 -0.4348  1.0517
  315MOL0     H41562   4.265  11.447   2.165  2.7400 -2.7540 -0.8655
  315MOL0     H41563   4.486  11.416   2.249  1.5029 -1.9577  2.5794
  315MOL0     H41564   4.749  11.201   2.547 -0.9115  1.6749  0.0231
  315MOL0     H41565   4.980  11.150   2.568  2.0697  0.1933 -0.6081
  315MOL0     H41566   6.637  10.938   1.773 -0.5917  0.0806  0.8972
  315MOL0     H41567   6.883  11.006   1.700 -2.3312  0.5322  1.0262
  315MOL0     H41568   7.271  10.812   1.619 -1.6812  0.4261 -0.8330
  315MOL0     H41569   7.477  10.827   1.473 -0.0348 -0.2372 -0.0668
  315MOL0     H41570   7.858  10.982   1.474  1.4347  3.2982 -2.7139
  315MOL0     H41571   7.775  11.087   1.601 -0.1156 -3.5372  1.2380
  315MOL0     H41572   7.799  11.149   1.307  2.3555 -3.4975 -0.3946
  315MOL0     H41573   7.738  11.264   1.425  0.3443 -0.1172  2.4353
  315MOL0     H41574   8.026  11.166   1.413  2.9254  2.7108 -0.7583
  315MOL0     H41575   7.973  11.273   1.541 -0.2169  2.9705 -0.4403
  315MOL0     H41576   7.859  11.418   1.335  0.6040  0.7363 -1.0221
  315MOL0     H41577   8.024  11.450   1.389 -1.6055 -0.1992  0.6483
  315MOL0     H41578   8.065  11.314   0.991 -0.9158  0.7288 -0.6159
  315MOL0     H41579   7.570  11.201   1.623  1.7775 -0.3737  2.9229
  315MOL0     H41580   7.372  11.208   1.779 -0.8233 -0.0537 -0.2084
  316MOL0     O41581   0.833   3.417   5.823 -0.3240  0.1169  0.2603
  316MOL0     C41582   0.896   3.484   5.736  0.2697 -0.1317 -0.5462
  316MOL0     O41583   0.835   3.548   5.626 -0.0754 -1.0013  0.1812
  316MOL0     C41584   0.701   3.560   5.608  0.4424  0.1113 -0.0185
  316MOL0     C41585   0.604   3.467   5.650  0.3726  0.1598  0.3608
  316MOL0     C41586   0.468   3.487   5.614 -1.0044  1.2669 -0.4547
  316MOL0     C41587   0.432   3.599   5.539  0.0728  0.7895  0.1979
  316MOL0     O41588   0.303   3.628   5.510 -0.1161 -0.0164 -0.0089
  316MOL0     C41589   0.217   3.640   5.632  0.4404 -0.4517 -0.1658
  316MOL0     C41590   0.181   3.788   5.655  0.6578  0.9002  0.1304
  316MOL0     C41591   0.096   3.846   5.542  0.4753  0.6997 -0.4356
  316MOL0     C41592   0.006   3.956   5.605  0.3201  0.1844  0.2979
  316MOL0     C41593  -0.121   3.993   5.530 -0.2501  0.0244 -0.5656
  316MOL0     C41594  -0.188   4.095   5.621  0.2509 -1.2416 -0.3172
  316MOL0     C41595  -0.326   4.134   5.568  0.0432 -0.1373  1.1191
  316MOL0     C41596  -0.322   4.188   5.421  0.3991  0.6516  0.1463
  316MOL0     N41597  -0.455   4.232   5.370  0.9519 -0.8726 -0.0167
  316MOL0     C41598  -0.565   4.293   5.435  0.0323  0.0782 -0.0455
  316MOL0     C41599  -0.659   4.315   5.342 -0.1249  0.2514  0.5109
  316MOL0     C41600  -0.790   4.368   5.343 -0.5833 -0.0641 -0.1587
  316MOL0     C41601  -0.816   4.489   5.440  0.0341  0.6110 -0.0664
  316MOL0     C41602  -0.949   4.563   5.393  0.0695  0.2671 -0.4611
  316MOL0     C41603  -1.079   4.493   5.413 -0.0343 -0.0478 -0.1624
  316MOL0     O41604  -1.185   4.563   5.344 -0.1867 -0.1686  0.0138
  316MOL0     C41605  -1.310   4.507   5.344  0.1444 -0.3617  0.3597
  316MOL0     C41606  -1.342   4.374   5.375  0.2209 -0.5533 -0.0364
  316MOL0     C41607  -1.473   4.333   5.373 -0.4849 -0.2624 -0.7225
  316MOL0     C41608  -1.576   4.417   5.326  1.1475  0.2979  0.3276
  316MOL0     C41609  -1.716   4.373   5.307  0.3889  0.5983  0.1802
  316MOL0     O41610  -1.742   4.248   5.345  0.9857 -0.7157  0.1722
  316MOL0     C41611  -1.869   4.200   5.331  0.2145  0.1043 -0.1477
  316MOL0     C41612  -1.881   4.081   5.260 -0.8330  0.3070  0.0136
  316MOL0     C41613  -2.001   4.019   5.254  0.1684 -0.1305  0.2616
  316MOL0     C41614  -2.105   4.075   5.328 -0.4217 -0.0022 -0.5625
  316MOL0     O41615  -2.229   4.014   5.330  0.2201 -0.4576 -0.2288
  316MOL0     C41616  -2.255   3.888   5.270  0.2200 -0.6512 -1.0766
  316MOL0     C41617  -2.401   3.847   5.272  0.3126  0.1625 -0.2749
  316MOL0     C41618  -2.414   3.722   5.188  0.1309 -1.1122  0.3097
  316MOL0     C41619  -2.564   3.696   5.164 -0.1508 -0.0890 -0.4582
  316MOL0     C41620  -2.600   3.555   5.139  0.9864  0.1631 -0.0052
  316MOL0     C41621  -2.752   3.532   5.143 -0.5442  0.6369  0.5230
  316MOL0     C41622  -2.786   3.383   5.149 -0.1238 -0.3786 -0.5587
  316MOL0     C41623  -2.745   3.304   5.030  0.8750 -0.2125 -0.5924
  316MOL0    Cl41624  -2.869   3.310   4.910  0.1110  0.4984 -0.3764
  316MOL0     C41625  -2.088   4.191   5.406 -0.3717 -0.7021 -0.0650
  316MOL0     C41626  -1.973   4.258   5.402 -0.2351 -0.0823 -0.8390
  316MOL0     O41627  -1.790   4.444   5.244  0.1660 -0.1656 -1.0499
  316MOL0     C41628  -1.538   4.554   5.290 -0.4162  0.3348  0.8937
  316MOL0     C41629  -1.409   4.590   5.288 -0.4032  0.0168  0.0072
  316MOL0     N41630  -0.616   4.246   5.228  0.2322 -0.1305 -0.5760
  316MOL0     N41631  -0.501   4.204   5.244  0.4629  0.5511  0.3915
  316MOL0     C41632   0.526   3.692   5.498 -0.2285  0.8586 -1.0280
  316MOL0     C41633   0.658   3.666   5.526 -0.8083  0.9789  0.3028
  316MOL0     C41634   1.037   3.493   5.757 -0.3821 -0.6947  0.4331
  316MOL0     C41635   1.107   3.422   5.850 -0.5923 -0.0169  0.6431
  316MOL0     C41636   1.248   3.441   5.872 -0.6163  0.1106 -0.3484
  316MOL0     C41637   1.321   3.544   5.801  0.3215 -0.7432 -0.3986
  316MOL0     O41638   1.458   3.581   5.806  0.4303  0.0860 -0.7960
  316MOL0     C41639   1.534   3.520   5.912  0.2094 -0.1339 -0.5467
  316MOL0     C41640   1.659   3.605   5.947 -0.1014 -0.5470  0.7490
  316MOL0     C41641   1.766   3.529   6.023 -0.9036  0.1481  0.3655
  316MOL0     C41642   1.904   3.598   6.024 -0.1773 -0.1268  0.3635
  316MOL0     C41643   1.996   3.546   5.919  1.3564 -0.1987  0.1771
  316MOL0     C41644   2.050   3.476   5.841 -0.2617 -0.4537  0.9674
  316MOL0     C41645   1.243   3.620   5.704 -0.5496 -0.5417 -0.4429
  316MOL0     C41646   1.107   3.592   5.683 -0.0316 -0.0598  0.2625
  316MOL0     H41647   0.625   3.372   5.699  4.0391  0.4674 -0.3729
  316MOL0     H41648   0.398   3.407   5.635  1.1477 -0.5748  0.1221
  316MOL0     H41649   0.275   3.599   5.715 -1.4438 -2.7691  0.1321
  316MOL0     H41650   0.126   3.580   5.620  0.6035 -0.2324 -3.5790
  316MOL0     H41651   0.269   3.851   5.671 -0.6977  2.1947  3.3379
  316MOL0     H41652   0.134   3.787   5.754  0.6750 -1.1669  0.1620
  316MOL0     H41653   0.035   3.769   5.493  1.0868 -0.4775  0.5895
  316MOL0     H41654   0.156   3.889   5.461  2.1348 -0.0960  0.3069
  316MOL0     H41655  -0.031   3.915   5.700  0.2056 -0.2344  0.0752
  316MOL0     H41656   0.054   4.053   5.615 -2.4527  1.8008 -0.7758
  316MOL0     H41657  -0.189   3.908   5.515 -3.1591  2.5463 -3.2591
  316MOL0     H41658  -0.092   4.026   5.430  0.7328 -4.0041 -1.8219
  316MOL0     H41659  -0.127   4.186   5.631 -1.8618  0.2389 -0.2768
  316MOL0     H41660  -0.198   4.064   5.725 -2.7477  0.1229 -0.1069
  316MOL0     H41661  -0.391   4.046   5.574  2.3338 -1.8772  2.1675
  316MOL0     H41662  -0.362   4.224   5.620  0.8188  1.9785 -1.7565
  316MOL0     H41663  -0.294   4.112   5.348 -1.7470  0.2567 -0.3535
  316MOL0     H41664  -0.254   4.274   5.421 -0.0382  1.0065  1.1297
  316MOL0     H41665  -0.578   4.326   5.538  1.8844 -1.3304  0.7003
  316MOL0     H41666  -0.859   4.290   5.375 -1.0175  0.1094 -0.6585
  316MOL0     H41667  -0.813   4.395   5.239 -0.8902 -3.0027 -0.9571
  316MOL0     H41668  -0.736   4.563   5.432  0.7965 -0.1394  0.5030
  316MOL0     H41669  -0.833   4.447   5.540 -1.5540 -0.0206 -0.5666
  316MOL0     H41670  -0.953   4.664   5.435  0.0494  0.2360 -0.3881
  316MOL0     H41671  -0.938   4.575   5.285 -0.5549 -0.8519 -0.6721
  316MOL0     H41672  -1.110   4.476   5.517 -1.1433  1.4537 -0.2291
  316MOL0     H41673  -1.057   4.395   5.369  0.3938  0.5478 -1.3177
  316MOL0     H41674  -1.269   4.299   5.406  0.7788 -0.3980 -0.9527
  316MOL0     H41675  -1.488   4.232   5.408  0.3385  0.2335  1.2250
  316MOL0     H41676  -1.795   4.027   5.223  0.0375  0.8773  1.1315
  316MOL0     H41677  -2.006   3.929   5.194  2.3195 -0.1449  0.0088
  316MOL0     H41678  -2.205   3.813   5.331 -1.8652 -1.2662 -0.0335
  316MOL0     H41679  -2.226   3.880   5.165 -2.0830 -0.6911 -1.7708
  316MOL0     H41680  -2.451   3.926   5.216 -0.2134  0.6814  0.8807
  316MOL0     H41681  -2.442   3.832   5.372 -0.4013  3.2986  0.0118
  316MOL0     H41682  -2.383   3.646   5.260 -2.6630 -1.2518  1.5210
  316MOL0     H41683  -2.350   3.724   5.100 -1.9675 -0.8359 -1.3011
  316MOL0     H41684  -2.609   3.718   5.261 -3.3866 -3.6571 -0.9112
  316MOL0     H41685  -2.609   3.754   5.083  2.1498  1.5319 -0.6814
  316MOL0     H41686  -2.559   3.490   5.218  3.0568  0.8766 -0.4183
  316MOL0     H41687  -2.548   3.518   5.050  1.0951 -2.3203  0.9975
  316MOL0     H41688  -2.789   3.567   5.046 -2.0766 -1.8240  0.1330
  316MOL0     H41689  -2.803   3.588   5.221 -0.7172  0.7255  0.3471
  316MOL0     H41690  -2.746   3.347   5.244 -0.2635  0.1451 -0.3015
  316MOL0     H41691  -2.891   3.352   5.154 -0.1327 -1.0176 -3.1262
  316MOL0     H41692  -2.747   3.197   5.056  1.2910  0.2753  1.6195
  316MOL0     H41693  -2.650   3.338   4.989  1.0101 -1.7051 -1.6188
  316MOL0     H41694  -2.173   4.238   5.453  0.4715  1.0749 -0.2566
  316MOL0     H41695  -1.959   4.351   5.456 -3.0755  1.4084 -2.4375
  316MOL0     H41696  -1.599   4.629   5.242  2.2589  2.3195  0.3350
  316MOL0     H41697  -1.375   4.683   5.244 -1.8508  0.6776  0.2021
  316MOL0     H41698   0.496   3.784   5.450 -1.5394  3.9436  4.7605
  316MOL0     H41699   0.740   3.731   5.498 -1.7610  2.1789  0.2020
  316MOL0     H41700   1.055   3.348   5.910 -1.6910  1.1746  1.2093
  316MOL0     H41701   1.292   3.376   5.947  2.9508  2.1919 -0.4275
  316MOL0     H41702   1.569   3.421   5.879 -0.6908 -0.5597 -0.2772
  316MOL0     H41703   1.478   3.507   6.005  0.7141  1.3137 -0.0129
  316MOL0     H41704   1.691   3.641   5.849 -0.8089 -2.0535 -0.0799
  316MOL0     H41705   1.620   3.689   6.004 -0.6506  0.9504 -1.6864
  316MOL0     H41706   1.781   3.427   5.986 -1.6690 -0.5303  1.8231
  316MOL0     H41707   1.740   3.514   6.128  0.5019  0.8439  0.8223
  316MOL0     H41708   1.890   3.706   6.013  0.1694 -0.1016  0.1804
  316MOL0     H41709   1.967   3.574   6.110  2.4290 -2.8146 -2.1021
  316MOL0     H41710   2.084   3.415   5.760  0.2898 -2.3333  2.5492
  316MOL0     H41711   1.293   3.700   5.651 -0.0428  0.5872  1.6166
  316MOL0     H41712   1.078   3.656   5.600  0.7145  2.3726  1.7904
  317MOL0     O41713  10.999   7.681   2.290  0.5882  0.5511 -0.6945
  317MOL0     C41714  11.079   7.673   2.194 -0.7457 -0.3475  0.3618
  317MOL0     O41715  11.044   7.658   2.058  0.2641 -0.3067 -0.0963
  317MOL0     C41716  10.913   7.649   2.009  1.3326 -0.9327  0.2038
  317MOL0     C41717  10.883   7.706   1.878 -0.1028  1.0954 -0.0480
  317MOL0     C41718  10.747   7.704   1.830 -0.2154  0.1127  0.0654
  317MOL0     C41719  10.648   7.651   1.904 -0.3874  0.0547  0.5821
  317MOL0     O41720  10.527   7.652   1.854  0.2503  0.2491  0.5852
  317MOL0     C41721  10.445   7.533   1.874 -0.2885 -0.0967 -0.5814
  317MOL0     C41722  10.336   7.537   1.763 -0.4128 -0.4050 -0.3628
  317MOL0     C41723  10.251   7.663   1.782  0.0091  0.3385  0.5412
  317MOL0     C41724  10.148   7.681   1.676  0.2846 -0.3524  0.3631
  317MOL0     C41725  10.213   7.733   1.544 -0.0816  0.4280  1.0014
  317MOL0     C41726  10.112   7.792   1.449 -0.2643  0.3550 -0.1987
  317MOL0     C41727   9.997   7.692   1.432  0.4471  0.0291 -0.4385
  317MOL0     C41728   9.924   7.711   1.299 -0.4265 -0.5960  0.3386
  317MOL0     N41729   9.992   7.654   1.179  0.4906  0.4325  0.0692
  317MOL0     C41730  10.099   7.695   1.109  1.0393 -0.0486  1.1071
  317MOL0     C41731  10.114   7.612   0.997  0.5028 -0.9155  0.3190
  317MOL0     C41732  10.226   7.630   0.900 -0.4762 -0.1340 -0.6334
  317MOL0     C41733  10.368   7.594   0.959  0.9853 -0.7451  0.3407
  317MOL0     C41734  10.399   7.447   0.990  0.0745 -1.0531 -0.1443
  317MOL0     C41735  10.334   7.388   1.122 -0.1404 -0.9800 -0.0688
  317MOL0     O41736  10.363   7.482   1.230 -0.1507 -0.4557  1.1236
  317MOL0     C41737  10.493   7.490   1.280  0.8725  0.1053 -0.0574
  317MOL0     C41738  10.518   7.615   1.337  0.9233 -0.2301  0.6317
  317MOL0     C41739  10.651   7.633   1.390 -0.3134 -0.1851  0.2231
  317MOL0     C41740  10.753   7.533   1.370 -0.3178 -0.0994  0.4420
  317MOL0     C41741  10.890   7.565   1.398  0.6984 -0.2131 -0.0161
  317MOL0     O41742  10.917   7.665   1.470 -0.3242  0.2875  0.1531
  317MOL0     C41743  11.043   7.686   1.532  0.0665 -0.4795 -0.0476
  317MOL0     C41744  11.115   7.592   1.596 -0.3775  1.0314  0.2531
  317MOL0     C41745  11.217   7.632   1.678 -0.4240  0.2503  0.7416
  317MOL0     C41746  11.250   7.760   1.702 -0.0997 -1.3423  0.0252
  317MOL0     O41747  11.356   7.800   1.771 -0.2665  0.2230 -0.0449
  317MOL0     C41748  11.478   7.781   1.689  0.9780  0.1445  0.2849
  317MOL0     C41749  11.608   7.787   1.773  0.1651  0.0950 -0.8866
  317MOL0     C41750  11.637   7.663   1.860 -0.9896 -0.3513  1.5742
  317MOL0     C41751  11.766   7.686   1.940 -0.6406  0.6601  0.1562
  317MOL0     C41752  11.811   7.545   1.995 -1.2496 -0.0749  0.1368
  317MOL0     C41753  11.943   7.562   2.084  0.3433  0.0183  1.0708
  317MOL0     C41754  11.917   7.625   2.221 -0.2246  0.1736 -0.5579
  317MOL0     C41755  12.049   7.690   2.267 -0.0901  0.1975 -0.7230
  317MOL0    Cl41756  12.040   7.765   2.442  0.5912 -0.2708 -0.1910
  317MOL0     C41757  11.179   7.865   1.632  0.8919 -0.2555  0.4065
  317MOL0     C41758  11.072   7.822   1.557  0.2669 -0.3722  0.5151
  317MOL0     O41759  10.964   7.491   1.341 -0.1861 -0.6715  0.6768
  317MOL0     C41760  10.714   7.412   1.314 -0.0020  0.6474 -0.2552
  317MOL0     C41761  10.586   7.391   1.268  0.6815  0.0800  0.7185
  317MOL0     N41762  10.008   7.523   1.003 -0.1394  0.3344  0.3055
  317MOL0     N41763   9.934   7.554   1.106 -0.5855 -0.2865  0.5115
  317MOL0     C41764  10.670   7.622   2.039  0.0088 -0.3125 -0.1676
  317MOL0     C41765  10.798   7.615   2.090  0.3771 -0.1012 -0.8637
  317MOL0     C41766  11.222   7.695   2.222 -0.2820 -0.0748  0.4526
  317MOL0     C41767  11.264   7.679   2.351 -0.0891  0.8224 -0.2186
  317MOL0     C41768  11.388   7.707   2.380 -0.6338 -0.2263 -0.2405
  317MOL0     C41769  11.482   7.754   2.289 -1.3300 -0.8477  0.5824
  317MOL0     O41770  11.603   7.817   2.319 -0.9310  0.0844 -0.3143
  317MOL0     C41771  11.661   7.794   2.452 -0.3858 -0.0216  0.5950
  317MOL0     C41772  11.581   7.873   2.555 -0.2593 -0.6050  0.0219
  317MOL0     C41773  11.609   7.811   2.690  0.4385  0.6449 -0.2543
  317MOL0     C41774  11.589   7.910   2.802 -0.1718 -0.7621 -0.1473
  317MOL0     C41775  11.448   7.935   2.824  0.5216 -0.2704 -0.9765
  317MOL0     C41776  11.335   7.979   2.833 -0.3940  0.5201 -0.0184
  317MOL0     C41777  11.448   7.766   2.159  0.0764 -1.1323 -0.0138
  317MOL0     C41778  11.313   7.745   2.128  0.3396  1.1463  0.0321
  317MOL0     H41779  10.969   7.740   1.822  0.6255 -1.2193 -0.4158
  317MOL0     H41780  10.715   7.745   1.735 -1.8184  0.3604  0.6788
  317MOL0     H41781  10.402   7.537   1.975 -0.1720  2.3214 -0.5655
  317MOL0     H41782  10.500   7.439   1.873 -1.1092 -0.6011  0.1440
  317MOL0     H41783  10.269   7.451   1.774 -0.6357 -0.1823  0.0658
  317MOL0     H41784  10.392   7.532   1.669 -1.3162  1.9652 -1.0989
  317MOL0     H41785  10.314   7.752   1.785  1.8215 -0.7221 -1.8914
  317MOL0     H41786  10.197   7.657   1.876 -0.4640  1.5373  0.3740
  317MOL0     H41787  10.107   7.580   1.672 -1.1559  0.2357 -0.7480
  317MOL0     H41788  10.063   7.743   1.705  1.7747  2.1943 -0.4092
  317MOL0     H41789  10.281   7.662   1.496 -1.1067 -1.1957  1.8561
  317MOL0     H41790  10.257   7.831   1.566 -1.8984  2.5139 -3.4945
  317MOL0     H41791  10.169   7.817   1.359  1.4546  2.0055  1.2749
  317MOL0     H41792  10.076   7.890   1.484  0.5080  0.4674  0.2988
  317MOL0     H41793  10.034   7.589   1.430 -1.0391 -0.6801  2.3693
  317MOL0     H41794   9.923   7.686   1.513 -1.6540  0.4354 -2.2348
  317MOL0     H41795   9.914   7.820   1.290  0.9783 -0.4585  0.2105
  317MOL0     H41796   9.825   7.667   1.295 -0.2644 -0.9105 -0.4054
  317MOL0     H41797  10.155   7.788   1.114 -0.4852  0.8903  1.5633
  317MOL0     H41798  10.227   7.729   0.855  1.6428  0.1252 -0.1113
  317MOL0     H41799  10.211   7.559   0.819  2.0576 -1.3938 -0.1043
  317MOL0     H41800  10.391   7.662   1.041  2.6778 -0.5458 -0.2717
  317MOL0     H41801  10.426   7.616   0.870 -0.7625  0.7639 -0.4975
  317MOL0     H41802  10.365   7.388   0.904  1.9587 -1.2091 -0.8382
  317MOL0     H41803  10.508   7.433   0.999  0.3483  1.3768  1.0633
  317MOL0     H41804  10.371   7.287   1.145  1.0827 -0.6353 -0.4159
  317MOL0     H41805  10.225   7.376   1.121 -0.3718  0.8769 -0.1128
  317MOL0     H41806  10.438   7.687   1.340 -0.7880 -2.0345 -0.0298
  317MOL0     H41807  10.680   7.732   1.424 -1.1206  0.1507 -0.0540
  317MOL0     H41808  11.097   7.489   1.568  0.6166  0.7098  0.7652
  317MOL0     H41809  11.286   7.564   1.727 -2.6768 -1.3865  1.8715
  317MOL0     H41810  11.487   7.856   1.610  2.8056  1.2046  1.4484
  317MOL0     H41811  11.471   7.686   1.636  0.5632  0.4106 -0.1424
  317MOL0     H41812  11.594   7.875   1.836  0.8732  0.4017 -1.1467
  317MOL0     H41813  11.687   7.818   1.704  1.3058  0.3374  0.4890
  317MOL0     H41814  11.672   7.584   1.794  0.9176  2.5261 -1.1265
  317MOL0     H41815  11.552   7.633   1.921 -3.2174  0.3968 -0.9868
  317MOL0     H41816  11.840   7.744   1.884 -0.1717 -0.7007 -0.6793
  317MOL0     H41817  11.736   7.743   2.029 -2.7816 -2.9692  2.0005
  317MOL0     H41818  11.843   7.482   1.911 -2.4639  0.9800 -1.1645
  317MOL0     H41819  11.740   7.490   2.058 -3.1840  1.8348 -0.2554
  317MOL0     H41820  11.994   7.633   2.020 -1.4804 -1.4199 -2.2333
  317MOL0     H41821  11.988   7.462   2.082 -3.5666 -2.0102 -2.4992
  317MOL0     H41822  11.842   7.705   2.213  0.1089  0.4029 -1.4813
  317MOL0     H41823  11.879   7.556   2.297  1.8944 -0.2996  0.1257
  317MOL0     H41824  12.087   7.767   2.199  2.0058 -0.4488 -0.3542
  317MOL0     H41825  12.122   7.609   2.264  1.3641  1.4867 -2.8019
  317MOL0     H41826  11.199   7.970   1.648  1.1917  0.1577 -2.2657
  317MOL0     H41827  11.007   7.899   1.516 -0.3663 -0.6628  0.9411
  317MOL0     H41828  10.789   7.333   1.309  0.7349  1.1876  1.5604
  317MOL0     H41829  10.561   7.294   1.224 -1.7284  0.9471 -0.0253
  317MOL0     H41830  10.589   7.591   2.105 -0.3554 -0.5849 -0.7336
  317MOL0     H41831  10.809   7.586   2.194 -1.8309  1.7491 -0.0201
  317MOL0     H41832  11.195   7.644   2.427 -1.1075  1.5108 -0.8042
  317MOL0     H41833  11.414   7.690   2.484 -3.4197  0.6994  0.6877
  317MOL0     H41834  11.764   7.829   2.440  0.7320 -3.0164  0.5074
  317MOL0     H41835  11.667   7.688   2.480 -0.1180 -0.0737  0.3526
  317MOL0     H41836  11.618   7.976   2.557 -0.2314 -0.6229  1.5487
  317MOL0     H41837  11.474   7.883   2.533 -0.2762 -0.4658  0.1705
  317MOL0     H41838  11.714   7.782   2.699  0.3350 -0.6237 -2.3611
  317MOL0     H41839  11.540   7.729   2.711 -1.0956  1.9836  0.1602
  317MOL0     H41840  11.629   7.847   2.882 -1.3393 -1.4267 -0.0611
  317MOL0     H41841  11.647   8.000   2.784 -2.6276  0.8992 -0.1921
  317MOL0     H41842  11.235   8.017   2.831 -1.0187 -1.0715 -1.2909
  317MOL0     H41843  11.508   7.805   2.079 -0.9722 -0.7469 -0.6333
  317MOL0     H41844  11.293   7.758   2.023  2.2465  0.2879 -0.4921
  318MOL0     O41845  11.018   6.912   8.184 -0.6943  0.2435 -0.1282
  318MOL0     C41846  10.981   6.804   8.220 -0.3617 -0.5336  0.3743
  318MOL0     O41847  10.852   6.756   8.194  0.2293 -0.2286  0.1083
  318MOL0     C41848  10.744   6.831   8.136  0.7486 -0.6243 -0.0736
  318MOL0     C41849  10.613   6.810   8.180  0.3820 -0.5547 -0.7138
  318MOL0     C41850  10.513   6.889   8.126 -0.1773  0.7559 -0.5605
  318MOL0     C41851  10.534   6.984   8.029 -0.9408  0.4186 -0.1798
  318MOL0     O41852  10.433   7.060   7.978 -0.6818 -0.3307  0.3535
  318MOL0     C41853  10.305   7.053   8.030 -0.5614 -0.0981  0.1087
  318MOL0     C41854  10.196   7.101   7.937 -0.8710  0.4931 -0.1787
  318MOL0     C41855  10.113   7.217   7.982  0.6941 -0.5285  0.0598
  318MOL0     C41856  10.066   7.199   8.121  0.4677 -0.1043  0.2690
  318MOL0     C41857   9.907   7.177   8.121 -0.1074 -0.2191  0.2091
  318MOL0     C41858   9.865   7.101   8.250 -0.4867 -0.5259  0.8435
  318MOL0     C41859   9.712   7.107   8.259  0.3477 -0.3288 -0.4085
  318MOL0     C41860   9.662   7.051   8.397  0.4629  1.2769 -0.0918
  318MOL0     N41861   9.517   7.082   8.414 -0.3794  0.1860  0.3595
  318MOL0     C41862   9.428   6.990   8.368 -0.0422 -0.1890 -0.1137
  318MOL0     C41863   9.310   7.044   8.380  0.3253 -0.2694  0.3570
  318MOL0     C41864   9.180   7.006   8.311 -0.2528 -0.6714  0.8278
  318MOL0     C41865   9.094   6.925   8.409 -1.4945 -0.1879 -0.5774
  318MOL0     C41866   8.965   6.880   8.345 -1.2609 -0.2555 -0.0821
  318MOL0     C41867   8.829   6.911   8.420  0.0257  0.2453 -1.1543
  318MOL0     O41868   8.805   7.056   8.416 -0.0165 -0.4490  0.7320
  318MOL0     C41869   8.682   7.089   8.451  0.2258 -0.5580  0.2533
  318MOL0     C41870   8.667   7.220   8.480  0.5211  0.3743 -0.0482
  318MOL0     C41871   8.543   7.266   8.512  0.7655 -0.1660 -0.8040
  318MOL0     C41872   8.435   7.179   8.535  0.6065 -0.1343 -0.3232
  318MOL0     C41873   8.297   7.227   8.558  0.7184  0.2198  0.1030
  318MOL0     O41874   8.202   7.137   8.598  0.2385 -0.7290 -0.2940
  318MOL0     C41875   8.079   7.178   8.626  0.7831 -0.4372 -0.0878
  318MOL0     C41876   8.025   7.129   8.744 -0.1169  0.0571  0.6619
  318MOL0     C41877   7.899   7.186   8.777  0.7710  0.4105  0.7653
  318MOL0     C41878   7.822   7.262   8.692 -0.3900  0.5497 -0.0887
  318MOL0     O41879   7.702   7.294   8.745 -0.7324  0.1965 -0.4286
  318MOL0     C41880   7.610   7.361   8.651 -0.3490 -0.4846  0.5095
  318MOL0     C41881   7.471   7.403   8.715 -0.4583 -0.9650 -1.0214
  318MOL0     C41882   7.394   7.284   8.767 -0.5203 -0.1045  0.4401
  318MOL0     C41883   7.248   7.307   8.771 -0.1372 -0.1681  0.5520
  318MOL0     C41884   7.162   7.197   8.840  0.2003 -0.4757 -0.7330
  318MOL0     C41885   7.018   7.238   8.881  0.9765  0.7610  0.5330
  318MOL0     C41886   6.945   7.118   8.943 -0.1228  0.0367 -0.8749
  318MOL0     C41887   6.802   7.166   8.979 -0.4599  0.7253  0.3482
  318MOL0    Cl41888   6.738   7.046   9.089 -0.0873 -0.4827 -0.0478
  318MOL0     C41889   7.876   7.293   8.571  0.2695 -0.1208  0.2298
  318MOL0     C41890   8.008   7.254   8.538  0.5015 -0.0065  0.7687
  318MOL0     O41891   8.280   7.348   8.542  0.3008  0.4416  0.0812
  318MOL0     C41892   8.452   7.044   8.515 -1.0520 -0.8031 -0.5143
  318MOL0     C41893   8.574   7.000   8.463  0.5709  0.5307  1.0862
  318MOL0     N41894   9.322   7.166   8.437  0.7023  0.0555  0.3718
  318MOL0     N41895   9.450   7.189   8.464  0.4466 -0.1237  0.3663
  318MOL0     C41896  10.666   7.009   7.986  0.0329 -0.0594  0.5249
  318MOL0     C41897  10.770   6.931   8.038 -0.0090  0.7602 -0.5819
  318MOL0     C41898  11.065   6.717   8.303 -0.4837 -0.3692 -0.5199
  318MOL0     C41899  11.170   6.778   8.381  0.3450  0.0237  1.7792
  318MOL0     C41900  11.247   6.697   8.464  0.2693 -0.1133 -0.3356
  318MOL0     C41901  11.223   6.556   8.474 -0.4950 -0.0201  0.4933
  318MOL0     O41902  11.293   6.467   8.555 -0.1219  0.3691  0.0883
  318MOL0     C41903  11.435   6.473   8.541  1.7999  0.7282 -0.4464
  318MOL0     C41904  11.460   6.447   8.394 -0.6129  0.4158  0.9055
  318MOL0     C41905  11.616   6.419   8.371  1.1337 -0.2634  0.3523
  318MOL0     C41906  11.624   6.389   8.220  0.2055  0.3600 -0.4224
  318MOL0     C41907  11.764   6.347   8.196 -0.1025 -0.1535 -0.1838
  318MOL0     C41908  11.881   6.321   8.184  0.1135 -0.3012  0.1316
  318MOL0     C41909  11.120   6.494   8.401  0.2894  0.1808 -0.4245
  318MOL0     C41910  11.039   6.579   8.315 -1.1306 -0.3097  0.5434
  318MOL0     H41911  10.604   6.742   8.264  0.9441  0.0767 -0.1339
  318MOL0     H41912  10.422   6.886   8.185  0.6882 -0.2402  0.7873
  318MOL0     H41913  10.311   7.109   8.124  2.0619  0.6435 -0.4351
  318MOL0     H41914  10.276   6.951   8.058 -1.8031  0.4088  0.7967
  318MOL0     H41915  10.135   7.013   7.918  2.5288 -1.5435 -2.9468
  318MOL0     H41916  10.247   7.113   7.841  2.7981  2.3839  1.7699
  318MOL0     H41917  10.026   7.223   7.915  0.5484 -2.6205  0.0049
  318MOL0     H41918  10.162   7.313   7.963  0.6237 -0.8865 -2.2791
  318MOL0     H41919  10.114   7.117   8.175 -0.9045  0.0970  1.8412
  318MOL0     H41920  10.075   7.299   8.163 -1.4826  0.4631 -0.5343
  318MOL0     H41921   9.886   7.114   8.034  1.3106 -0.1858 -0.1754
  318MOL0     H41922   9.851   7.269   8.101 -0.7735 -0.4599  0.9184
  318MOL0     H41923   9.920   7.152   8.329  2.9255 -2.3536 -0.1517
  318MOL0     H41924   9.904   6.999   8.243 -0.2797 -0.4877  1.4288
  318MOL0     H41925   9.699   7.215   8.252  1.6635 -0.1816 -0.8217
  318MOL0     H41926   9.667   7.062   8.169 -1.3996  2.0241 -0.8047
  318MOL0     H41927   9.727   7.098   8.472  2.2952  1.5106 -1.7385
  318MOL0     H41928   9.678   6.943   8.409 -1.1478  0.6305 -2.9470
  318MOL0     H41929   9.447   6.906   8.302  3.2702  0.3364  0.0079
  318MOL0     H41930   9.194   6.952   8.217 -1.7069  1.2284 -0.5505
  318MOL0     H41931   9.122   7.095   8.284  0.5164 -0.5390 -0.4520
  318MOL0     H41932   9.067   6.988   8.494  1.7763  0.8786 -0.2052
  318MOL0     H41933   9.146   6.835   8.443 -2.6837 -1.6581 -2.4198
  318MOL0     H41934   8.961   6.918   8.242 -3.7204  2.3263  0.8409
  318MOL0     H41935   8.972   6.771   8.337 -1.0687 -0.1989 -0.7407
  318MOL0     H41936   8.830   6.863   8.518  2.5137  2.8269  0.2323
  318MOL0     H41937   8.753   6.857   8.362  1.9579 -2.0051 -1.7391
  318MOL0     H41938   8.755   7.282   8.469  0.1643  1.0966  1.0835
  318MOL0     H41939   8.521   7.368   8.541  2.2232  0.3082 -1.2609
  318MOL0     H41940   8.083   7.058   8.804 -1.5985 -0.2428  1.7918
  318MOL0     H41941   7.853   7.148   8.868 -0.8139 -1.2427 -0.6651
  318MOL0     H41942   7.598   7.293   8.566  0.3180  0.4729 -0.3824
  318MOL0     H41943   7.671   7.448   8.624  0.3041 -1.0944 -0.0326
  318MOL0     H41944   7.416   7.461   8.640 -0.9081 -0.0484 -0.0084
  318MOL0     H41945   7.500   7.469   8.797  0.7120 -3.6419  0.8661
  318MOL0     H41946   7.435   7.283   8.869  0.5899  0.3526  0.0237
  318MOL0     H41947   7.427   7.191   8.719 -1.7404 -0.1521 -0.3343
  318MOL0     H41948   7.226   7.406   8.811  0.6642  0.5888 -0.7945
  318MOL0     H41949   7.213   7.307   8.667  1.9484  0.6719 -0.1897
  318MOL0     H41950   7.219   7.190   8.934  2.0469 -0.4402 -1.8017
  318MOL0     H41951   7.159   7.113   8.770  1.5306  0.5476 -2.0732
  318MOL0     H41952   6.956   7.272   8.798 -2.1924 -2.0471  1.5164
  318MOL0     H41953   7.022   7.328   8.943 -1.1641  1.5477 -0.4066
  318MOL0     H41954   6.961   7.026   8.886  2.0715 -0.7382  0.8337
  318MOL0     H41955   6.995   7.087   9.035  1.2434  1.8392 -0.9447
  318MOL0     H41956   6.745   7.170   8.886  0.1043  2.7129  0.0433
  318MOL0     H41957   6.799   7.262   9.032 -0.1110  2.1465 -2.0790
  318MOL0     H41958   7.815   7.354   8.505  0.8217  1.8004  1.3955
  318MOL0     H41959   8.042   7.268   8.436 -2.9188 -2.2065 -0.8632
  318MOL0     H41960   8.368   6.978   8.532 -2.9557  1.7778  0.7607
  318MOL0     H41961   8.575   6.893   8.445 -2.0350  0.6922 -0.6248
  318MOL0     H41962  10.684   7.074   7.901 -0.5000  0.7899  1.0475
  318MOL0     H41963  10.874   6.955   8.015  0.9540 -1.8829  0.5987
  318MOL0     H41964  11.186   6.885   8.378 -0.6420  0.1675 -1.2983
  318MOL0     H41965  11.322   6.741   8.529 -2.0022  0.8485  1.7982
  318MOL0     H41966  11.480   6.382   8.581 -2.7351 -1.2714  0.6654
  318MOL0     H41967  11.476   6.566   8.580  1.8612  1.0982 -1.3644
  318MOL0     H41968  11.404   6.356   8.372  0.0013 -0.0079  1.0614
  318MOL0     H41969  11.418   6.520   8.325  0.0992 -0.3109 -0.3154
  318MOL0     H41970  11.649   6.333   8.431 -0.9479 -0.5225  1.2080
  318MOL0     H41971  11.677   6.506   8.394 -1.2192  1.1539  1.5679
  318MOL0     H41972  11.553   6.309   8.197  0.9308 -0.1970 -0.7817
  318MOL0     H41973  11.606   6.480   8.161  1.7292  0.3206 -0.9950
  318MOL0     H41974  11.982   6.290   8.171  0.1530 -0.4603  0.7821
  318MOL0     H41975  11.097   6.388   8.398 -1.0183  0.4655 -1.2519
  318MOL0     H41976  10.969   6.531   8.248 -2.0631 -1.6683  2.4132
  319MOL0     O41977  10.860   0.453   7.646 -0.0608 -0.5403  0.5031
  319MOL0     C41978  10.803   0.361   7.705 -1.5745  0.2407 -0.0184
  319MOL0     O41979  10.836   0.325   7.834 -0.8675 -0.4675  0.4295
  319MOL0     C41980  10.925   0.393   7.909  1.0024 -0.3300 -1.1516
  319MOL0     C41981  10.896   0.526   7.949  0.3216 -0.0320  0.5448
  319MOL0     C41982  11.003   0.592   8.005  0.2481 -0.3263 -0.2535
  319MOL0     C41983  11.137   0.534   8.031 -0.0967 -0.2795  0.3572
  319MOL0     O41984  11.244   0.607   8.076 -1.1464  1.2487 -0.2896
  319MOL0     C41985  11.223   0.735   8.136 -0.6127  0.3663  0.1456
  319MOL0     C41986  11.330   0.806   8.222 -0.2657  0.3911  0.0211
  319MOL0     C41987  11.293   0.947   8.257  0.0218 -0.0284  0.2414
  319MOL0     C41988  11.266   1.035   8.133  0.6798 -1.0891  0.3080
  319MOL0     C41989  11.250   1.195   8.150 -0.5578  0.2492  0.1970
  319MOL0     C41990  11.155   1.234   8.258 -0.0635 -0.2949 -1.2521
  319MOL0     C41991  11.127   1.385   8.227  0.4448 -0.1572  0.6793
  319MOL0     C41992  11.024   1.451   8.319  0.3065  1.3677  1.0662
  319MOL0     N41993  10.896   1.376   8.282 -0.6616  0.0737 -0.5017
  319MOL0     C41994  10.831   1.396   8.165  0.1343 -0.4362 -0.8031
  319MOL0     C41995  10.709   1.336   8.189 -0.2763  1.0881  0.5038
  319MOL0     C41996  10.590   1.333   8.093 -0.1290  0.6706 -0.3549
  319MOL0     C41997  10.507   1.203   8.103 -0.6564 -0.7292 -0.4462
  319MOL0     C41998  10.419   1.181   8.230 -0.2742 -0.2667 -0.2620
  319MOL0     C41999  10.298   1.273   8.240  0.6515 -0.6537  0.7137
  319MOL0     O42000  10.184   1.204   8.289 -0.5345 -0.0282 -0.1322
  319MOL0     C42001  10.064   1.266   8.303 -0.9648 -0.3886  1.4297
  319MOL0     C42002  10.032   1.390   8.263  0.2465  0.4216 -0.3674
  319MOL0     C42003   9.907   1.446   8.278 -0.0790 -0.3869 -0.5306
  319MOL0     C42004   9.802   1.373   8.337  0.8807  0.3414  0.2820
  319MOL0     C42005   9.670   1.424   8.388  0.1582  0.1335  0.7300
  319MOL0     O42006   9.584   1.346   8.462  0.4399  0.5720 -0.0174
  319MOL0     C42007   9.445   1.361   8.467 -0.5449 -0.2119 -0.3028
  319MOL0     C42008   9.368   1.417   8.366 -0.9680 -0.8537 -0.0417
  319MOL0     C42009   9.234   1.421   8.383  0.6175 -0.0802 -0.2621
  319MOL0     C42010   9.173   1.360   8.494  0.8686 -0.2655 -0.1135
  319MOL0     O42011   9.040   1.376   8.513 -0.2495 -0.1003 -0.9471
  319MOL0     C42012   8.948   1.264   8.459 -0.8052 -0.5354 -0.1614
  319MOL0     C42013   8.812   1.304   8.508  0.4421 -0.8619 -0.1064
  319MOL0     C42014   8.813   1.327   8.659 -0.4520 -0.2131 -0.2568
  319MOL0     C42015   8.671   1.312   8.715 -0.6049  0.1772 -0.1068
  319MOL0     C42016   8.657   1.316   8.870 -0.4844  1.3934  0.6365
  319MOL0     C42017   8.758   1.239   8.950 -0.3041 -0.1014 -0.0183
  319MOL0     C42018   8.737   1.090   8.946 -0.7500  0.1777 -0.1975
  319MOL0     C42019   8.629   1.035   9.032  0.5170  0.1042 -0.2733
  319MOL0    Cl42020   8.674   0.855   9.069  0.1347 -0.3670 -0.2226
  319MOL0     C42021   9.253   1.304   8.596 -0.8789  0.6988 -0.5197
  319MOL0     C42022   9.387   1.308   8.583 -0.5198  1.4022  1.0025
  319MOL0     O42023   9.643   1.536   8.343 -0.0522 -0.1101 -0.6759
  319MOL0     C42024   9.830   1.241   8.367 -0.4557  0.4297 -0.3508
  319MOL0     C42025   9.963   1.193   8.363  0.4897 -0.5658 -0.4498
  319MOL0     N42026  10.718   1.271   8.318  0.7976  0.4347 -0.1590
  319MOL0     N42027  10.826   1.300   8.367  0.6947  0.6989 -0.8637
  319MOL0     C42028  11.156   0.402   7.985 -0.2515  0.2917  0.3102
  319MOL0     C42029  11.044   0.328   7.926 -0.5225  0.5746  0.2330
  319MOL0     C42030  10.702   0.288   7.632 -0.3600 -0.4623 -0.8206
  319MOL0     C42031  10.672   0.329   7.500  0.6554 -0.0761  0.4424
  319MOL0     C42032  10.569   0.263   7.431  0.4179  0.0154  0.1404
  319MOL0     C42033  10.477   0.172   7.481 -0.7486  0.2521  0.1447
  319MOL0     O42034  10.372   0.135   7.397 -0.2759 -0.4527  0.0635
  319MOL0     C42035  10.278   0.039   7.440 -0.0885  0.8298  0.4342
  319MOL0     C42036  10.324  -0.105   7.465 -0.5574 -0.0849  0.1478
  319MOL0     C42037  10.333  -0.181   7.331  0.1036  0.1564 -0.5344
  319MOL0     C42038  10.200  -0.256   7.307  0.4797 -0.7706  0.1372
  319MOL0     C42039  10.189  -0.342   7.188  0.0651 -0.5404  0.2587
  319MOL0     C42040  10.200  -0.412   7.090  0.5040 -0.4751  0.0782
  319MOL0     C42041  10.515   0.125   7.618  0.2124 -0.5110 -0.2648
  319MOL0     C42042  10.611   0.190   7.691 -0.3167 -0.3301 -0.3549
  319MOL0     H42043  10.797   0.570   7.942  0.3987 -0.0287 -1.1172
  319MOL0     H42044  10.999   0.700   8.004  0.2840 -0.3088  0.8301
  319MOL0     H42045  11.131   0.719   8.193  0.5702  0.6603  2.2477
  319MOL0     H42046  11.187   0.804   8.059 -0.8271 -0.6712 -0.7075
  319MOL0     H42047  11.427   0.809   8.171 -0.7755 -0.4754 -1.0623
  319MOL0     H42048  11.331   0.737   8.306 -2.4865 -1.6831 -1.4910
  319MOL0     H42049  11.380   0.979   8.316  0.8440 -2.1159  0.2765
  319MOL0     H42050  11.202   0.943   8.317 -1.2329  0.6721 -1.5350
  319MOL0     H42051  11.343   1.013   8.059  0.6700  1.2267 -0.4737
  319MOL0     H42052  11.170   1.004   8.092  1.0029 -1.9147  0.1713
  319MOL0     H42053  11.209   1.215   8.051  0.9439 -1.5887 -0.8435
  319MOL0     H42054  11.342   1.254   8.159 -1.0973  1.0418  0.6508
  319MOL0     H42055  11.197   1.230   8.359 -3.5314  2.3747  0.5273
  319MOL0     H42056  11.068   1.167   8.249  1.0128 -1.7626 -1.1376
  319MOL0     H42057  11.214   1.452   8.231  1.3265 -1.3159  1.6465
  319MOL0     H42058  11.097   1.378   8.122  3.1462 -3.0120 -0.0454
  319MOL0     H42059  10.993   1.552   8.291 -0.2389  1.1390  0.8229
  319MOL0     H42060  11.053   1.447   8.425  0.0786  2.8344  1.1985
  319MOL0     H42061  10.862   1.452   8.077  2.5696 -1.3765 -0.6176
  319MOL0     H42062  10.624   1.354   7.991  0.7140  0.9849 -0.0164
  319MOL0     H42063  10.524   1.417   8.121 -0.5829  1.7482 -4.0940
  319MOL0     H42064  10.570   1.114   8.112 -2.8842 -2.2655  1.2472
  319MOL0     H42065  10.442   1.196   8.014  1.0025  1.6446 -1.9646
  319MOL0     H42066  10.387   1.077   8.237 -1.1384 -0.3407 -3.7277
  319MOL0     H42067  10.486   1.186   8.316 -0.7892 -3.1229  0.4143
  319MOL0     H42068  10.276   1.311   8.140  1.4290  0.5484  0.9825
  319MOL0     H42069  10.315   1.357   8.307  1.0360 -0.0792 -0.0880
  319MOL0     H42070  10.106   1.451   8.211 -0.1471  1.2554  0.0219
  319MOL0     H42071   9.886   1.550   8.253  0.4585  0.3443  1.7765
  319MOL0     H42072   9.417   1.460   8.280 -2.2885 -1.9342 -1.3920
  319MOL0     H42073   9.174   1.481   8.315 -1.2226 -3.0817 -1.4651
  319MOL0     H42074   8.981   1.180   8.521  2.3901  2.0141  1.8950
  319MOL0     H42075   8.955   1.248   8.351 -1.3944  1.5138 -0.5507
  319MOL0     H42076   8.745   1.218   8.496  2.0610 -2.4861  1.9085
  319MOL0     H42077   8.786   1.391   8.446  0.9310 -0.5193  0.1552
  319MOL0     H42078   8.853   1.425   8.686 -1.3444  0.2326 -0.5254
  319MOL0     H42079   8.879   1.253   8.706  0.2051  2.1203  2.8058
  319MOL0     H42080   8.596   1.381   8.675 -0.3248  0.4802 -0.1201
  319MOL0     H42081   8.643   1.211   8.684  2.3365 -0.3639 -1.4231
  319MOL0     H42082   8.560   1.279   8.904  0.8501 -2.2974  0.8342
  319MOL0     H42083   8.661   1.420   8.904  0.6980  1.8290 -0.7634
  319MOL0     H42084   8.768   1.286   9.049  2.5432  0.5695 -0.5152
  319MOL0     H42085   8.858   1.258   8.910  0.5810  0.2069  2.2018
  319MOL0     H42086   8.726   1.056   8.843 -0.2554  1.4411 -0.6858
  319MOL0     H42087   8.831   1.058   8.992 -0.2580  2.0832  0.2150
  319MOL0     H42088   8.541   1.036   8.967  0.7022 -1.6455 -0.6016
  319MOL0     H42089   8.622   1.100   9.120 -0.5594 -1.7573  1.1017
  319MOL0     H42090   9.209   1.275   8.690 -1.0676 -0.2518 -0.8921
  319MOL0     H42091   9.460   1.275   8.656  1.1676  2.6304 -0.0454
  319MOL0     H42092   9.758   1.182   8.422  1.2867 -0.2831  1.2609
  319MOL0     H42093   9.986   1.094   8.402 -2.4872 -0.5682  1.6353
  319MOL0     H42094  11.253   0.355   7.995 -0.6964 -0.8117 -0.3359
  319MOL0     H42095  11.060   0.229   7.883 -0.9099  0.6360 -0.0594
  319MOL0     H42096  10.724   0.404   7.441  0.7294 -0.9449 -0.6292
  319MOL0     H42097  10.547   0.301   7.332 -2.1996  0.3072  0.7542
  319MOL0     H42098  10.196   0.031   7.368 -1.2712  0.8799  1.7425
  319MOL0     H42099  10.227   0.069   7.531 -0.2561  0.5437  0.4352
  319MOL0     H42100  10.422  -0.101   7.513  1.1292  0.9580 -3.0639
  319MOL0     H42101  10.254  -0.154   7.533  1.1344 -0.4332  1.7234
  319MOL0     H42102  10.397  -0.267   7.351  0.2424 -0.3015 -2.6452
  319MOL0     H42103  10.367  -0.116   7.250 -0.4887 -0.6273 -1.4379
  319MOL0     H42104  10.184  -0.323   7.392  1.5570 -1.1966  0.0114
  319MOL0     H42105  10.120  -0.181   7.299 -1.7588 -2.8133  1.8723
  319MOL0     H42106  10.214  -0.472   7.003  1.7190  1.6205 -1.2748
  319MOL0     H42107  10.444   0.061   7.669 -1.2090  0.4459 -0.9884
  319MOL0     H42108  10.619   0.153   7.792 -0.8881  1.1031  0.2379
  320MOL0     O42109   5.621   0.760   4.649 -0.3223 -0.0684 -0.2793
  320MOL0     C42110   5.612   0.806   4.766  0.1438 -1.6554  0.3796
  320MOL0     O42111   5.520   0.766   4.869 -0.5984  0.7413 -0.0547
  320MOL0     C42112   5.444   0.655   4.853 -0.0782 -0.7375 -0.1176
  320MOL0     C42113   5.340   0.635   4.761  0.2536  0.0709 -0.7670
  320MOL0     C42114   5.261   0.515   4.760  0.5374 -0.6089  0.0184
  320MOL0     C42115   5.283   0.416   4.854  0.1799 -0.2155  0.3179
  320MOL0     O42116   5.211   0.297   4.861 -0.0088 -0.1891  0.5013
  320MOL0     C42117   5.096   0.281   4.776 -0.0298 -0.3294 -0.0248
  320MOL0     C42118   5.022   0.162   4.843 -0.2252  1.0027  0.9968
  320MOL0     C42119   4.879   0.182   4.806  0.5664 -0.5710 -0.2732
  320MOL0     C42120   4.846   0.145   4.664 -0.3507  0.7217  0.8554
  320MOL0     C42121   4.696   0.147   4.646  0.7439 -0.6326  0.5429
  320MOL0     C42122   4.658   0.141   4.503 -0.5815  0.3391 -0.2257
  320MOL0     C42123   4.497   0.147   4.466  0.4106  0.0413 -0.0430
  320MOL0     C42124   4.479   0.133   4.316 -0.1781  0.6988  0.3773
  320MOL0     N42125   4.337   0.164   4.264 -0.0603  0.3404 -0.6949
  320MOL0     C42126   4.296   0.255   4.170 -0.3445  0.4587  0.1872
  320MOL0     C42127   4.163   0.260   4.168  0.0338 -0.2282  0.3017
  320MOL0     C42128   4.076   0.337   4.069  0.4099 -0.4214 -0.5803
  320MOL0     C42129   4.061   0.239   3.947 -0.1254 -0.8614 -0.6331
  320MOL0     C42130   3.943   0.265   3.862  0.0477  0.7362 -0.5285
  320MOL0     C42131   3.811   0.217   3.928  0.2241 -0.2907  0.9816
  320MOL0     O42132   3.703   0.272   3.865 -0.0951 -0.3193  0.1421
  320MOL0     C42133   3.591   0.193   3.866 -0.2921  0.1833 -0.0828
  320MOL0     C42134   3.496   0.213   3.966  0.1694  0.2333 -0.2382
  320MOL0     C42135   3.382   0.126   3.974 -0.0279 -0.3134  0.1104
  320MOL0     C42136   3.364   0.018   3.878 -0.3300  0.3638 -0.5791
  320MOL0     C42137   3.237  -0.061   3.891 -0.5703  0.5178 -0.2181
  320MOL0     O42138   3.184  -0.081   4.018  0.0557 -0.2437  0.0445
  320MOL0     C42139   3.056  -0.144   4.023  0.2171 -1.0669 -0.4195
  320MOL0     C42140   3.019  -0.259   3.956 -0.6026  0.5051  1.1577
  320MOL0     C42141   2.890  -0.314   3.968  0.0891  0.0098  0.0126
  320MOL0     C42142   2.806  -0.267   4.072  0.7468  0.4894 -0.1989
  320MOL0     O42143   2.675  -0.314   4.070  0.1400 -0.3832  0.1973
  320MOL0     C42144   2.564  -0.258   4.148 -0.4222  1.4015  0.2936
  320MOL0     C42145   2.516  -0.114   4.095  0.9079  0.2026  0.2036
  320MOL0     C42146   2.490  -0.115   3.951  0.0735 -0.1048  0.6314
  320MOL0     C42147   2.426   0.009   3.908  0.0874 -0.1701 -0.2360
  320MOL0     C42148   2.403   0.037   3.761  0.3501 -0.7940  0.1589
  320MOL0     C42149   2.384   0.184   3.749 -0.5134 -0.3176 -0.2843
  320MOL0     C42150   2.325   0.216   3.613  0.0361 -0.4153  0.3644
  320MOL0     C42151   2.318   0.359   3.594 -0.5891 -1.0542  0.6963
  320MOL0    Cl42152   2.475   0.436   3.546  0.0354 -0.3155 -0.2475
  320MOL0     C42153   2.843  -0.152   4.139 -0.3465  0.8062 -0.5160
  320MOL0     C42154   2.966  -0.095   4.122 -0.2157 -0.4196  0.3302
  320MOL0     O42155   3.189  -0.099   3.786 -0.2559  0.4017  0.9471
  320MOL0     C42156   3.464  -0.002   3.776  0.2411  0.3731  0.3876
  320MOL0     C42157   3.575   0.088   3.771  0.2899 -0.9040 -0.0248
  320MOL0     N42158   4.118   0.171   4.266  0.3529 -0.5881 -0.7010
  320MOL0     N42159   4.222   0.107   4.314 -0.2619 -0.0509  0.0867
  320MOL0     C42160   5.383   0.437   4.943 -0.7269  0.6247  0.4277
  320MOL0     C42161   5.456   0.552   4.946  0.2101  0.0953  0.0579
  320MOL0     C42162   5.714   0.916   4.781 -0.9922 -0.0331 -0.8271
  320MOL0     C42163   5.820   0.936   4.685 -0.2687  0.1170  0.9238
  320MOL0     C42164   5.916   1.031   4.715 -0.1168 -0.4284  0.3148
  320MOL0     C42165   5.906   1.103   4.827  0.4648 -0.4070  0.0629
  320MOL0     O42166   6.013   1.186   4.854 -0.7485 -0.1043  0.5073
  320MOL0     C42167   6.019   1.265   4.972 -0.9832 -0.8847 -0.1519
  320MOL0     C42168   5.998   1.419   4.944 -1.0300  0.9012 -0.1589
  320MOL0     C42169   6.110   1.484   4.864 -1.0410  0.0965  0.0549
  320MOL0     C42170   6.120   1.635   4.892 -1.0922  0.0038 -0.4005
  320MOL0     C42171   5.999   1.702   4.846  0.6272 -0.0351  0.6370
  320MOL0     C42172   5.900   1.759   4.803  0.1658  0.6872 -0.7473
  320MOL0     C42173   5.812   1.075   4.923 -0.2976  0.4534  0.0429
  320MOL0     C42174   5.718   0.986   4.905  1.0685 -0.4871 -0.1535
  320MOL0     H42175   5.323   0.719   4.694  0.0804  1.0795  0.5199
  320MOL0     H42176   5.181   0.507   4.686 -3.3139  0.8727  3.6348
  320MOL0     H42177   5.116   0.261   4.670 -1.6591 -0.5627 -0.3243
  320MOL0     H42178   5.034   0.370   4.793  1.3397  0.4218  1.1719
  320MOL0     H42179   5.041   0.161   4.951 -4.9706  0.3877  2.0339
  320MOL0     H42180   5.056   0.064   4.807 -0.8591  0.0696  2.8341
  320MOL0     H42181   4.854   0.286   4.827  1.5258 -0.6058  1.1523
  320MOL0     H42182   4.813   0.125   4.872 -0.0170 -0.1541 -0.4895
  320MOL0     H42183   4.883   0.226   4.602 -0.9178 -0.4436 -1.0878
  320MOL0     H42184   4.891   0.052   4.627  0.7893  1.7882 -0.5220
  320MOL0     H42185   4.645   0.238   4.676  0.9887  0.0476 -1.0059
  320MOL0     H42186   4.652   0.058   4.693  0.2947 -0.5205  0.3355
  320MOL0     H42187   4.697   0.047   4.462  0.8785  0.1069  1.5460
  320MOL0     H42188   4.705   0.220   4.444 -0.5883  2.7435  2.7127
  320MOL0     H42189   4.454   0.068   4.529 -2.4353  1.7233  0.2673
  320MOL0     H42190   4.450   0.239   4.500  2.4953  0.6753  1.3224
  320MOL0     H42191   4.508   0.028   4.306  3.4750  1.6160 -0.1247
  320MOL0     H42192   4.556   0.194   4.267  1.1416 -2.8510 -2.3959
  320MOL0     H42193   4.366   0.307   4.105  1.6734 -0.4419  1.5078
  320MOL0     H42194   4.126   0.425   4.027 -3.6096  0.5462 -4.1307
  320MOL0     H42195   3.977   0.363   4.109 -0.0314 -1.8042 -0.7326
  320MOL0     H42196   4.050   0.140   3.992  2.3951 -0.5564  0.8775
  320MOL0     H42197   4.151   0.243   3.886 -0.0125 -0.5833 -0.4541
  320MOL0     H42198   3.932   0.374   3.850 -1.1464  0.7742  0.6075
  320MOL0     H42199   3.955   0.233   3.758 -1.2606  3.5582 -1.6858
  320MOL0     H42200   3.823   0.256   4.029 -1.7789  1.3340  0.6618
  320MOL0     H42201   3.814   0.108   3.919  2.0125 -0.3919  2.2230
  320MOL0     H42202   3.504   0.297   4.035 -0.8884 -0.9708  1.4434
  320MOL0     H42203   3.306   0.145   4.048 -0.5911  1.5413 -0.8939
  320MOL0     H42204   3.086  -0.303   3.883 -0.5023  1.9420  0.3398
  320MOL0     H42205   2.854  -0.398   3.909 -0.9126 -0.3727  1.1197
  320MOL0     H42206   2.605  -0.263   4.250 -2.3828  1.3078  1.1203
  320MOL0     H42207   2.485  -0.333   4.140 -1.6272  2.8433 -3.5180
  320MOL0     H42208   2.591  -0.041   4.126 -2.5485  3.9739  0.5405
  320MOL0     H42209   2.423  -0.091   4.148  0.2153 -0.5239 -0.6684
  320MOL0     H42210   2.438  -0.206   3.918 -1.3891  0.1747  2.0413
  320MOL0     H42211   2.586  -0.113   3.899  0.1421  3.6451  0.6869
  320MOL0     H42212   2.327   0.006   3.955  0.6607 -0.3585  1.0057
  320MOL0     H42213   2.478   0.093   3.955  1.5807 -3.0799  3.9328
  320MOL0     H42214   2.321  -0.020   3.716  1.3329  0.4791 -3.5890
  320MOL0     H42215   2.493   0.013   3.705  1.1410 -1.1484  1.5245
  320MOL0     H42216   2.477   0.235   3.774  0.2252 -1.1629 -1.2356
  320MOL0     H42217   2.319   0.220   3.829  0.8866  0.7612  0.4071
  320MOL0     H42218   2.392   0.176   3.536 -0.4139  0.9981 -0.8061
  320MOL0     H42219   2.228   0.167   3.607 -0.9501  1.5440 -0.2159
  320MOL0     H42220   2.275   0.406   3.683 -1.1882 -1.1489  0.4588
  320MOL0     H42221   2.249   0.397   3.517  0.8616  1.1138  0.3604
  320MOL0     H42222   2.772  -0.106   4.207  0.3882  0.5506  0.4476
  320MOL0     H42223   2.995  -0.000   4.167  1.3701  0.6941 -2.7347
  320MOL0     H42224   3.452  -0.074   3.696 -1.0513  1.0128 -0.0155
  320MOL0     H42225   3.641   0.087   3.685 -1.3255  2.6356 -1.4864
  320MOL0     H42226   5.381   0.354   5.014  1.6147  0.8738  0.8619
  320MOL0     H42227   5.528   0.565   5.025 -0.2443  1.3693  0.2831
  320MOL0     H42228   5.831   0.869   4.600 -3.4466  1.5875 -0.8264
  320MOL0     H42229   5.998   1.059   4.650 -0.3136  1.1852  0.7235
  320MOL0     H42230   6.114   1.241   5.020 -2.3748 -4.9116  1.0415
  320MOL0     H42231   5.950   1.226   5.048 -0.5484  0.6260  1.0658
  320MOL0     H42232   5.906   1.425   4.885 -0.9555  0.9276 -0.2719
  320MOL0     H42233   5.983   1.477   5.036 -1.1201  1.4076 -0.4886
  320MOL0     H42234   6.106   1.458   4.758 -1.4489  0.6339 -0.0686
  320MOL0     H42235   6.202   1.438   4.902 -1.0091 -1.0828 -1.3645
  320MOL0     H42236   6.148   1.648   4.997 -2.5905  3.2740 -0.2986
  320MOL0     H42237   6.198   1.681   4.831 -2.5239  1.2137 -1.3793
  320MOL0     H42238   5.810   1.809   4.773 -0.3790 -1.4643 -3.0622
  320MOL0     H42239   5.798   1.126   5.017 -1.3374 -1.2109  0.8276
  320MOL0     H42240   5.647   0.971   4.986  0.4710  2.2243 -0.0583
  321MOL0     O42241   8.348   7.247   9.918 -0.1013  0.3095  0.1626
  321MOL0     C42242   8.364   7.356   9.977  0.3212  0.0107  0.4776
  321MOL0     O42243   8.285   7.412  10.065  0.8199 -0.4894 -0.3352
  321MOL0     C42244   8.168   7.358  10.116 -0.4226 -0.6909  0.4737
  321MOL0     C42245   8.036   7.410  10.118  0.6161 -0.1874  1.0029
  321MOL0     C42246   7.931   7.336  10.172 -0.3946 -1.1435 -0.0431
  321MOL0     C42247   7.946   7.215  10.232 -0.8812  0.4158  0.6475
  321MOL0     O42248   7.831   7.161  10.278 -0.3173  0.1539 -0.4926
  321MOL0     C42249   7.842   7.087  10.403  0.5894 -0.6950  0.4002
  321MOL0     C42250   7.720   7.051  10.477 -0.3609 -0.6571 -0.1909
  321MOL0     C42251   7.597   7.043  10.389 -0.0153  0.1158 -0.2852
  321MOL0     C42252   7.463   7.015  10.454 -0.7460 -0.0312  0.1465
  321MOL0     C42253   7.346   6.997  10.362  0.8172 -0.2687  0.8684
  321MOL0     C42254   7.257   7.120  10.352  0.1224 -0.0120  0.3978
  321MOL0     C42255   7.133   7.085  10.271 -0.3015 -0.4459  0.2492
  321MOL0     C42256   7.044   6.978  10.344 -0.5703 -0.0996 -0.3328
  321MOL0     N42257   6.900   7.004  10.323  0.0335 -0.3299 -0.6640
  321MOL0     C42258   6.841   7.114  10.378 -0.3335 -0.2338 -1.0136
  321MOL0     C42259   6.707   7.095  10.360 -0.9781  0.1778 -0.1045
  321MOL0     C42260   6.590   7.185  10.404 -0.3092  0.2590  0.1758
  321MOL0     C42261   6.491   7.223  10.287 -0.3840  0.2236 -0.4640
  321MOL0     C42262   6.399   7.103  10.258 -0.0263  0.2669  0.3849
  321MOL0     C42263   6.277   7.095  10.346  0.1322  0.7341  0.0821
  321MOL0     O42264   6.167   7.061  10.257  0.5115  0.0396 -0.0719
  321MOL0     C42265   6.048   7.032  10.318 -0.5472 -0.6261  1.1117
  321MOL0     C42266   6.010   7.028  10.454  1.0314 -0.5135 -0.7480
  321MOL0     C42267   5.873   7.009  10.496 -0.1088  0.5476 -1.6176
  321MOL0     C42268   5.782   6.971  10.405  0.8328  0.3690  0.9028
  321MOL0     C42269   5.640   6.943  10.448 -0.5065 -0.1016 -0.4993
  321MOL0     O42270   5.549   6.914  10.353  0.1762 -0.3999  0.4434
  321MOL0     C42271   5.420   6.915  10.391  0.4103  0.0109 -0.5472
  321MOL0     C42272   5.349   7.035  10.393  0.3616 -0.0903 -0.9403
  321MOL0     C42273   5.212   7.028  10.411  0.0053  0.0090  0.4714
  321MOL0     C42274   5.146   6.906  10.436 -0.1547  0.1318  0.4292
  321MOL0     O42275   5.012   6.901  10.462  0.2852  0.5413  0.2426
  321MOL0     C42276   4.936   6.779  10.435  0.3974  0.3074 -0.3750
  321MOL0     C42277   4.943   6.711  10.296  0.5817  0.6364 -0.4023
  321MOL0     C42278   4.805   6.669  10.237  0.3477  0.9484 -0.3349
  321MOL0     C42279   4.722   6.577  10.336 -0.2291 -0.4700  0.8194
  321MOL0     C42280   4.574   6.565  10.296  0.0548 -0.3600 -0.1671
  321MOL0     C42281   4.545   6.537  10.146 -0.9696  0.7133  0.1320
  321MOL0     C42282   4.384   6.554  10.123  0.4303  0.2402 -0.9873
  321MOL0     C42283   4.360   6.531   9.970 -0.6997 -0.2167  0.5691
  321MOL0    Cl42284   4.383   6.350   9.929  0.3742 -0.4675  0.8355
  321MOL0     C42285   5.223   6.782  10.438 -1.1706  0.0381 -0.1271
  321MOL0     C42286   5.359   6.789  10.409 -0.9675 -0.2497  0.3104
  321MOL0     O42287   5.637   6.920  10.567  1.2428  0.2595  1.0461
  321MOL0     C42288   5.819   6.966  10.269  0.4644 -0.2217  0.5134
  321MOL0     C42289   5.950   6.992  10.223  0.1946 -0.1738 -0.7047
  321MOL0     N42290   6.695   6.972  10.288  0.0928 -0.0178 -0.4851
  321MOL0     N42291   6.810   6.927  10.257 -0.6185  0.8435  0.3774
  321MOL0     C42292   8.070   7.155  10.242  0.2679 -0.5649 -0.4614
  321MOL0     C42293   8.183   7.229  10.182 -0.0461  0.9806  0.5865
  321MOL0     C42294   8.493   7.424   9.956 -1.0764 -0.2535  0.1304
  321MOL0     C42295   8.530   7.543  10.020 -1.0083 -0.0008  0.5203
  321MOL0     C42296   8.647   7.606   9.988  0.0635  1.0201  0.3158
  321MOL0     C42297   8.748   7.551   9.905 -0.0910  0.4179  0.2881
  321MOL0     O42298   8.861   7.618   9.879  0.7181  0.4617 -0.8841
  321MOL0     C42299   8.961   7.561   9.805  0.1361  0.0027  0.7246
  321MOL0     C42300   9.066   7.666   9.793  0.9069  0.0052  0.3438
  321MOL0     C42301   9.139   7.700   9.926 -0.2465 -0.4651 -0.2714
  321MOL0     C42302   9.280   7.634   9.963  0.5679 -0.7890  0.1186
  321MOL0     C42303   9.258   7.497  10.013 -1.1724 -0.2617 -0.1636
  321MOL0     C42304   9.245   7.384  10.051 -0.3535  0.2053 -0.0857
  321MOL0     C42305   8.724   7.418   9.866  0.2662 -0.2583 -0.3206
  321MOL0     C42306   8.603   7.360   9.888  0.0148 -0.2638 -0.1162
  321MOL0     H42307   8.030   7.510  10.076 -1.1808  0.3202  2.3022
  321MOL0     H42308   7.829   7.366  10.150 -0.5183 -1.7963 -0.3493
  321MOL0     H42309   7.916   7.135  10.468  0.6662 -2.8104  1.9894
  321MOL0     H42310   7.888   6.991  10.378  0.0351 -0.1474 -3.3023
  321MOL0     H42311   7.700   7.118  10.561 -0.1009 -1.5452  0.5984
  321MOL0     H42312   7.749   6.954  10.517  3.1270 -0.2350 -1.3527
  321MOL0     H42313   7.607   6.975  10.304  2.4417 -0.5926  0.4978
  321MOL0     H42314   7.597   7.145  10.349  3.8358  0.0954 -0.6422
  321MOL0     H42315   7.477   6.924  10.512 -1.7523 -0.9557 -1.0000
  321MOL0     H42316   7.442   7.101  10.519  0.0068 -0.4575  0.9516
  321MOL0     H42317   7.283   6.924  10.415  1.6151 -0.7725  1.1433
  321MOL0     H42318   7.367   6.938  10.273 -2.9184  1.0895 -1.1372
  321MOL0     H42319   7.318   7.199  10.307  1.8578 -1.4025  0.1731
  321MOL0     H42320   7.226   7.140  10.455 -0.7212 -1.5883  0.4737
  321MOL0     H42321   7.079   7.177  10.246  1.2851 -0.5643 -4.7158
  321MOL0     H42322   7.168   7.046  10.175  3.3323 -0.6551  1.5110
  321MOL0     H42323   7.058   6.962  10.451  2.0848  0.7627 -0.4896
  321MOL0     H42324   7.082   6.882  10.309  2.8360 -0.0112  2.6010
  321MOL0     H42325   6.880   7.196  10.437  1.4917 -1.4792 -0.3580
  321MOL0     H42326   6.620   7.285  10.438 -1.2928 -0.7235  4.5588
  321MOL0     H42327   6.552   7.148  10.500 -0.0750  0.8899  0.5192
  321MOL0     H42328   6.548   7.244  10.196 -0.8774 -0.4478 -0.9388
  321MOL0     H42329   6.439   7.314  10.318  4.1161  2.8613  0.2681
  321MOL0     H42330   6.358   7.120  10.158  0.5031 -1.2618 -0.1279
  321MOL0     H42331   6.448   7.006  10.250  1.1121  0.9588 -1.8282
  321MOL0     H42332   6.257   7.192  10.393 -3.3262 -0.1314  0.7004
  321MOL0     H42333   6.286   7.017  10.423 -0.0623 -0.2301 -0.8486
  321MOL0     H42334   6.096   7.051  10.516  1.2862  0.2091 -1.3591
  321MOL0     H42335   5.843   7.013  10.600  0.1150  2.3720 -1.5918
  321MOL0     H42336   5.398   7.132  10.383 -2.8082  1.4409 -4.3172
  321MOL0     H42337   5.143   7.111  10.420 -0.9628 -0.2330 -3.1315
  321MOL0     H42338   4.834   6.812  10.456  0.6120  0.4153  0.5799
  321MOL0     H42339   4.964   6.710  10.515  0.6907  0.5053 -0.3014
  321MOL0     H42340   5.007   6.622  10.302 -0.2480  0.1201  2.0119
  321MOL0     H42341   4.983   6.785  10.227 -0.0711  1.1149 -0.2733
  321MOL0     H42342   4.808   6.629  10.135  0.6440  0.1308 -0.0202
  321MOL0     H42343   4.749   6.762  10.239 -1.5677 -0.1077  2.6784
  321MOL0     H42344   4.770   6.478  10.330 -3.3000 -2.0732  0.7523
  321MOL0     H42345   4.737   6.604  10.441  2.2051  1.3131  0.1031
  321MOL0     H42346   4.538   6.663  10.326  1.5135  0.8058 -1.9987
  321MOL0     H42347   4.528   6.485  10.355 -0.6648 -2.8295 -3.7169
  321MOL0     H42348   4.576   6.438  10.112  0.2839  1.1760 -0.1444
  321MOL0     H42349   4.592   6.608  10.077  1.1226 -1.1548 -0.5175
  321MOL0     H42350   4.321   6.502  10.195 -0.4704  1.1861 -1.0715
  321MOL0     H42351   4.356   6.657  10.146  5.5745  1.4254  1.4187
  321MOL0     H42352   4.436   6.590   9.919 -2.4415  0.2128 -1.6715
  321MOL0     H42353   4.264   6.572   9.937  1.1010  1.7539 -2.7471
  321MOL0     H42354   5.172   6.686  10.443 -0.3695 -0.5023 -1.6004
  321MOL0     H42355   5.420   6.699  10.408  1.9005  1.5216  1.4431
  321MOL0     H42356   5.734   6.936  10.208  0.1442  0.9141  0.3714
  321MOL0     H42357   5.976   7.001  10.118  0.2239  0.6655 -0.6321
  321MOL0     H42358   8.078   7.060  10.294 -0.1153 -2.0598 -2.9542
  321MOL0     H42359   8.282   7.184  10.178  1.0704  3.2637  0.6956
  321MOL0     H42360   8.460   7.588  10.089 -1.9445  0.8817 -0.9471
  321MOL0     H42361   8.678   7.698  10.036  4.6939  0.3922 -1.0149
  321MOL0     H42362   8.918   7.547   9.705 -1.7167  0.6052  1.3826
  321MOL0     H42363   8.985   7.461   9.841  0.3657  0.0549  0.7180
  321MOL0     H42364   9.148   7.645   9.723 -0.4097  1.9659 -1.9352
  321MOL0     H42365   9.016   7.752   9.748  0.6510 -1.3418 -2.1593
  321MOL0     H42366   9.074   7.674  10.011  0.1877  0.2593  0.2900
  321MOL0     H42367   9.170   7.804   9.925  1.4568 -0.9354  0.3849
  321MOL0     H42368   9.354   7.635   9.882  0.1157 -2.6556 -0.3822
  321MOL0     H42369   9.323   7.698  10.041  1.6944  1.0829 -1.9348
  321MOL0     H42370   9.239   7.287  10.096 -0.8103 -0.7129 -2.0205
  321MOL0     H42371   8.794   7.347   9.822 -0.4245 -1.7470  0.8681
  321MOL0     H42372   8.589   7.256   9.860  0.7999 -0.0800 -1.2531
  322MOL0     O42373  10.362   5.093   6.600  0.0720 -0.0468 -0.1024
  322MOL0     C42374  10.350   5.113   6.479 -0.0919  0.1118  0.0783
  322MOL0     O42375  10.224   5.116   6.419 -0.1555  0.1939 -0.2705
  322MOL0     C42376  10.113   5.066   6.489 -0.0896  0.3449 -0.8032
  322MOL0     C42377   9.994   5.145   6.505 -0.2590 -0.1998  0.5631
  322MOL0     C42378   9.880   5.095   6.574  0.2358  0.1006 -0.2801
  322MOL0     C42379   9.885   4.965   6.628  0.9824 -0.6682  0.3534
  322MOL0     O42380   9.776   4.922   6.705  0.8251  0.2543  0.4807
  322MOL0     C42381   9.692   4.819   6.650  0.3971 -0.9082  0.3549
  322MOL0     C42382   9.596   4.864   6.538 -0.1610 -0.6917  0.2342
  322MOL0     C42383   9.477   4.931   6.599 -0.4015  0.4141  0.6947
  322MOL0     C42384   9.379   4.959   6.489  0.3799 -0.2524 -0.4840
  322MOL0     C42385   9.239   4.985   6.547  0.7819  0.4717 -0.5472
  322MOL0     C42386   9.187   4.881   6.645  0.6847 -0.7454  0.6830
  322MOL0     C42387   9.028   4.893   6.676 -0.4584  0.6621 -0.0824
  322MOL0     C42388   8.974   5.020   6.742 -0.0783  0.3964 -0.1585
  322MOL0     N42389   8.825   5.008   6.753 -0.3972  0.0145  0.1098
  322MOL0     C42390   8.756   4.997   6.873 -0.3170  0.7679 -0.3824
  322MOL0     C42391   8.636   5.007   6.826 -0.5542  0.5744  0.7785
  322MOL0     C42392   8.520   4.995   6.911 -0.3284 -0.4287 -0.7658
  322MOL0     C42393   8.433   4.868   6.883  0.4748  0.5108  0.3096
  322MOL0     C42394   8.370   4.861   6.747  0.4300 -0.2585  0.4880
  322MOL0     C42395   8.277   4.736   6.725  0.4338  0.9867 -0.1590
  322MOL0     O42396   8.163   4.738   6.813  0.9014 -0.3238 -0.0618
  322MOL0     C42397   8.040   4.699   6.765  0.3966 -0.2975 -0.3384
  322MOL0     C42398   7.931   4.740   6.847 -0.0884 -0.3569 -0.7654
  322MOL0     C42399   7.802   4.702   6.832  0.1245 -0.6758  0.7561
  322MOL0     C42400   7.771   4.626   6.722  0.2207 -0.1661  0.4555
  322MOL0     C42401   7.637   4.580   6.705  0.0861  0.0710  0.5903
  322MOL0     O42402   7.618   4.494   6.594 -0.0543  0.3911 -0.4281
  322MOL0     C42403   7.500   4.438   6.567  0.3818 -0.0965 -0.5219
  322MOL0     C42404   7.378   4.512   6.575 -0.7540  0.0968 -0.9390
  322MOL0     C42405   7.255   4.453   6.552 -0.6041  0.1383 -0.1762
  322MOL0     C42406   7.256   4.325   6.497  0.5353  0.0406  0.1615
  322MOL0     O42407   7.139   4.266   6.481 -0.3045  0.2421  0.3536
  322MOL0     C42408   7.118   4.169   6.382 -0.1686 -1.0913 -0.6699
  322MOL0     C42409   6.969   4.123   6.382 -0.7273 -0.9624 -0.7084
  322MOL0     C42410   6.913   4.083   6.243 -0.1802 -0.2274 -0.2296
  322MOL0     C42411   6.762   4.047   6.254 -0.8222  0.2399  0.3337
  322MOL0     C42412   6.704   4.012   6.116 -0.3544 -0.1871 -0.3484
  322MOL0     C42413   6.549   4.008   6.136 -0.7217  0.2533  0.3072
  322MOL0     C42414   6.473   3.970   6.007 -0.2023  0.5022  0.0287
  322MOL0     C42415   6.331   3.936   6.035  0.2992  0.1774  0.0658
  322MOL0    Cl42416   6.330   3.790   6.137 -0.1421 -0.3305 -0.3266
  322MOL0     C42417   7.376   4.248   6.489 -0.1846 -0.1516  0.3392
  322MOL0     C42418   7.490   4.309   6.515 -0.0237  0.3305 -0.1661
  322MOL0     O42419   7.551   4.617   6.784  0.5139  0.1608  0.0695
  322MOL0     C42420   7.867   4.597   6.624  0.0433  0.3265  0.1100
  322MOL0     C42421   8.003   4.625   6.644  0.6311  0.4203  0.2267
  322MOL0     N42422   8.632   5.040   6.689 -0.7916 -0.3945 -1.3290
  322MOL0     N42423   8.749   5.047   6.650  0.0645  0.6589 -0.6776
  322MOL0     C42424  10.004   4.891   6.609 -0.4508  0.6808 -0.1550
  322MOL0     C42425  10.117   4.934   6.550  0.5101 -0.0709 -0.2156
  322MOL0     C42426  10.475   5.122   6.393 -0.0900  0.4136  0.0982
  322MOL0     C42427  10.475   5.106   6.257  0.0722 -0.0872 -0.4856
  322MOL0     C42428  10.586   5.141   6.183  0.3640 -0.6686  0.5523
  322MOL0     C42429  10.706   5.176   6.244  0.0947 -0.4748 -0.1629
  322MOL0     O42430  10.809   5.209   6.155  1.3300  0.2315 -0.9232
  322MOL0     C42431  10.937   5.139   6.166  0.3002  0.3147  0.3068
  322MOL0     C42432  11.043   5.220   6.105  0.4187 -0.8238 -0.3017
  322MOL0     C42433  11.173   5.180   6.179 -0.2961  0.5803  0.1727
  322MOL0     C42434  11.287   5.256   6.119 -0.4791 -0.5071  0.7513
  322MOL0     C42435  11.423   5.226   6.173  0.9593 -0.8039 -0.2981
  322MOL0     C42436  11.541   5.211   6.186  0.2289 -0.7079 -0.2099
  322MOL0     C42437  10.718   5.166   6.382 -0.1745  0.9125 -0.8350
  322MOL0     C42438  10.599   5.143   6.456 -0.1545 -0.5404  0.1140
  322MOL0     H42439  10.002   5.246   6.464 -1.6668 -0.7976 -1.2974
  322MOL0     H42440   9.792   5.158   6.586 -0.6813 -0.7854 -2.0186
  322MOL0     H42441   9.635   4.764   6.725 -1.4177 -2.1526 -1.8123
  322MOL0     H42442   9.754   4.748   6.594 -1.1237 -1.0061 -1.2947
  322MOL0     H42443   9.563   4.773   6.487 -1.2407 -0.4112  0.4029
  322MOL0     H42444   9.648   4.935   6.473  0.1342  0.6784  1.8808
  322MOL0     H42445   9.489   5.032   6.639 -2.9475  0.2541  2.0665
  322MOL0     H42446   9.439   4.870   6.682  1.5277 -4.4419 -1.6151
  322MOL0     H42447   9.417   5.049   6.438  2.6130 -0.0501  1.3524
  322MOL0     H42448   9.369   4.872   6.423 -0.5874 -0.5408  0.0386
  322MOL0     H42449   9.175   4.987   6.459  0.1125 -0.6810 -0.1025
  322MOL0     H42450   9.252   5.081   6.597 -0.6310 -0.0468  0.9182
  322MOL0     H42451   9.238   4.889   6.741  0.9160  0.1153  0.4967
  322MOL0     H42452   9.211   4.782   6.605  0.3128 -0.9743  1.0184
  322MOL0     H42453   8.975   4.889   6.581  1.2517 -1.3304 -1.0369
  322MOL0     H42454   9.003   4.808   6.741 -0.2912 -0.3974 -1.3674
  322MOL0     H42455   9.002   5.114   6.692  0.1935  2.4516  3.5205
  322MOL0     H42456   9.013   5.032   6.843  0.2925  1.7289 -0.4353
  322MOL0     H42457   8.804   4.971   6.968 -0.6644 -0.8649 -0.6205
  322MOL0     H42458   8.458   5.085   6.908 -2.2823 -1.6856 -0.2875
  322MOL0     H42459   8.573   4.987   7.006  2.1169 -2.2528 -2.1613
  322MOL0     H42460   8.359   4.868   6.964  0.2645  0.1211  0.1227
  322MOL0     H42461   8.484   4.773   6.903  2.0585  1.3046  0.2425
  322MOL0     H42462   8.318   4.955   6.726  1.2421  0.3721  1.2254
  322MOL0     H42463   8.443   4.844   6.667 -2.0616 -0.7007 -1.8301
  322MOL0     H42464   8.321   4.638   6.744 -0.1106  0.9094  0.7283
  322MOL0     H42465   8.241   4.747   6.622  4.3904  3.2111 -1.5580
  322MOL0     H42466   7.937   4.788   6.944 -2.6334 -0.8832 -0.2576
  322MOL0     H42467   7.725   4.736   6.900  1.8840  2.3206  1.4340
  322MOL0     H42468   7.378   4.616   6.608 -2.3844 -0.0300 -0.4511
  322MOL0     H42469   7.167   4.516   6.556 -1.0924 -0.5277 -0.1747
  322MOL0     H42470   7.185   4.083   6.382  1.5177  0.1674 -0.6189
  322MOL0     H42471   7.154   4.214   6.289 -1.3852 -2.3626 -1.7973
  322MOL0     H42472   6.903   4.202   6.419 -0.8354 -2.0623  1.6325
  322MOL0     H42473   6.961   4.036   6.449  2.2179 -1.3836 -0.7723
  322MOL0     H42474   6.970   3.998   6.204  0.4857  0.5302 -0.9695
  322MOL0     H42475   6.938   4.165   6.175  1.5820  1.0453  1.7830
  322MOL0     H42476   6.736   3.969   6.327 -1.2050 -0.5454 -0.6046
  322MOL0     H42477   6.714   4.136   6.296 -3.3976 -0.8387 -0.1210
  322MOL0     H42478   6.744   3.919   6.076  0.4581  0.2146 -0.4893
  322MOL0     H42479   6.714   4.092   6.042 -1.2262  0.4301  0.1729
  322MOL0     H42480   6.510   4.108   6.158 -2.0156  0.2094 -1.6243
  322MOL0     H42481   6.521   3.939   6.216 -1.1924  1.2371  1.0175
  322MOL0     H42482   6.474   4.052   5.933 -2.0585  2.1023  1.6580
  322MOL0     H42483   6.524   3.888   5.955  1.8031  1.1962  0.8387
  322MOL0     H42484   6.283   3.916   5.939  1.3381 -3.2336  0.0922
  322MOL0     H42485   6.282   4.018   6.087 -0.5589 -0.1145 -0.2731
  322MOL0     H42486   7.388   4.147   6.451 -0.3058 -0.6649  1.6071
  322MOL0     H42487   7.582   4.252   6.511 -0.5092 -0.5927  1.0042
  322MOL0     H42488   7.841   4.528   6.545  1.7548 -0.0004 -0.2093
  322MOL0     H42489   8.078   4.591   6.574  1.8669  2.7271  0.3552
  322MOL0     H42490  10.012   4.790   6.650 -0.5604 -1.0983 -4.0700
  322MOL0     H42491  10.202   4.867   6.542  0.3137 -0.1310 -2.7308
  322MOL0     H42492  10.384   5.076   6.206 -0.8142 -0.2674  1.1334
  322MOL0     H42493  10.589   5.132   6.075  1.8988  1.8357  0.3000
  322MOL0     H42494  10.934   5.043   6.113 -1.4957 -0.3188  1.4613
  322MOL0     H42495  10.965   5.120   6.270 -2.7191 -0.0420  1.1471
  322MOL0     H42496  11.050   5.210   5.996 -2.4626  4.5851 -1.3124
  322MOL0     H42497  11.036   5.326   6.129  0.5828 -1.1944  1.5573
  322MOL0     H42498  11.181   5.071   6.173 -0.7786  0.5522 -0.0518
  322MOL0     H42499  11.161   5.210   6.284 -2.2832  0.7426 -0.0576
  322MOL0     H42500  11.304   5.249   6.011  0.1719 -0.2750  0.8311
  322MOL0     H42501  11.262   5.361   6.138 -1.2344 -0.6841  0.7820
  322MOL0     H42502  11.648   5.202   6.177  0.3062 -0.2391  0.2007
  322MOL0     H42503  10.807   5.180   6.443 -0.9763  1.5940  0.2007
  322MOL0     H42504  10.615   5.134   6.563  1.9199  0.4007 -0.0705
  323MOL0     O42505   3.792  11.092   5.611 -1.0175  0.3638 -0.2427
  323MOL0     C42506   3.710  11.141   5.682 -0.4103 -0.2350 -0.3893
  323MOL0     O42507   3.703  11.264   5.751 -0.0981  0.0788  0.5663
  323MOL0     C42508   3.812  11.343   5.748  0.4241 -0.5826  0.2077
  323MOL0     C42509   3.932  11.292   5.783 -0.2112  0.5081 -0.6554
  323MOL0     C42510   4.037  11.391   5.797 -0.5044 -0.1375  0.7153
  323MOL0     C42511   4.028  11.528   5.771  0.8794  0.0403  0.2403
  323MOL0     O42512   4.114  11.632   5.794  0.5282 -0.2977  0.0949
  323MOL0     C42513   4.219  11.606   5.885 -0.3330  0.4711 -0.2090
  323MOL0     C42514   4.277  11.739   5.924  0.5354  0.5456  0.1503
  323MOL0     C42515   4.395  11.721   6.019 -0.8952  0.7149  0.1664
  323MOL0     C42516   4.525  11.650   5.967 -0.2655  0.3946  0.1638
  323MOL0     C42517   4.641  11.637   6.075  0.3789  1.0079  0.3018
  323MOL0     C42518   4.678  11.756   6.150 -0.1838  0.7263 -0.1400
  323MOL0     C42519   4.802  11.712   6.240 -0.7889 -0.3997  0.1107
  323MOL0     C42520   4.938  11.645   6.185 -0.1495  1.1665  0.8993
  323MOL0     N42521   5.048  11.631   6.290 -0.2617  0.1766 -0.4049
  323MOL0     C42522   5.120  11.512   6.302  1.1061 -0.3059  1.3263
  323MOL0     C42523   5.210  11.556   6.389  0.2925  0.2026  0.2812
  323MOL0     C42524   5.333  11.485   6.451 -0.2418 -0.5733  1.0809
  323MOL0     C42525   5.385  11.535   6.585 -0.2135 -0.0693  0.1106
  323MOL0     C42526   5.495  11.440   6.635  0.1562 -0.5392  0.4132
  323MOL0     C42527   5.628  11.451   6.567 -0.5365  0.4938  0.3895
  323MOL0     O42528   5.709  11.341   6.616  0.0548  0.4021  0.8887
  323MOL0     C42529   5.833  11.310   6.571 -0.4733 -0.3242 -0.7746
  323MOL0     C42530   5.909  11.404   6.487  0.1743 -0.0812 -0.2064
  323MOL0     C42531   6.037  11.384   6.454  0.0393 -0.3374  0.7181
  323MOL0     C42532   6.107  11.284   6.516  0.4795  0.1869  0.2984
  323MOL0     C42533   6.257  11.281   6.498 -0.0121  0.9278  0.0999
  323MOL0     O42534   6.318  11.390   6.441  0.6582 -0.2461  0.2133
  323MOL0     C42535   6.448  11.405   6.412  0.2525  0.5839 -0.5588
  323MOL0     C42536   6.552  11.363   6.498  0.6088 -0.2180  0.3076
  323MOL0     C42537   6.687  11.409   6.483 -0.5108 -0.4753  0.4669
  323MOL0     C42538   6.721  11.491   6.371  0.3488  0.7773 -0.3146
  323MOL0     O42539   6.844  11.544   6.347 -0.1032 -0.7414 -0.1574
  323MOL0     C42540   6.957  11.474   6.394 -0.2955  0.0267  0.4470
  323MOL0     C42541   7.064  11.493   6.294 -0.1315  0.0831 -0.2459
  323MOL0     C42542   7.025  11.468   6.146 -0.4409 -0.3017  0.3473
  323MOL0     C42543   6.969  11.320   6.126 -0.7314 -0.4317  0.5653
  323MOL0     C42544   6.877  11.323   5.994 -0.6901  0.7707  0.0626
  323MOL0     C42545   6.933  11.358   5.856 -0.1946  0.0788  0.6689
  323MOL0     C42546   7.070  11.290   5.848  0.4708 -0.3815  0.4637
  323MOL0     C42547   7.118  11.267   5.701 -0.0331  0.2907  0.6056
  323MOL0    Cl42548   6.995  11.196   5.594 -0.3904  0.3939  0.1109
  323MOL0     C42549   6.619  11.527   6.288 -0.6664  0.0910  1.3011
  323MOL0     C42550   6.495  11.485   6.309  0.2546 -0.3521 -0.2896
  323MOL0     O42551   6.314  11.181   6.532 -0.3283  0.0983  0.9631
  323MOL0     C42552   6.031  11.191   6.602 -1.2751  0.9467 -0.2127
  323MOL0     C42553   5.894  11.196   6.604  0.4657  0.5905 -0.7538
  323MOL0     N42554   5.185  11.686   6.433  0.2364  0.1264  0.6609
  323MOL0     N42555   5.083  11.729   6.378  0.4287  0.1036  0.2632
  323MOL0     C42556   3.900  11.565   5.724  0.1126 -0.8726  1.2005
  323MOL0     C42557   3.791  11.476   5.713 -0.4927  0.4492  0.8948
  323MOL0     C42558   3.602  11.049   5.730  0.0139  0.8550 -0.0180
  323MOL0     C42559   3.501  11.097   5.816 -0.7725 -0.1915  0.0893
  323MOL0     C42560   3.400  11.023   5.871 -0.9067  0.8092 -0.5320
  323MOL0     C42561   3.399  10.887   5.837  0.0108  0.4685 -0.3809
  323MOL0     O42562   3.306  10.798   5.897 -0.4441 -0.5261 -0.0134
  323MOL0     C42563   3.194  10.759   5.817 -0.0506  0.5901 -0.2073
  323MOL0     C42564   3.149  10.617   5.861  0.4766  1.1607  0.5268
  323MOL0     C42565   3.016  10.576   5.790  0.4640 -0.1249  0.0484
  323MOL0     C42566   2.984  10.430   5.824 -0.7798 -0.2726  0.4040
  323MOL0     C42567   3.039  10.341   5.720 -0.2123 -0.7367 -0.8253
  323MOL0     C42568   3.091  10.275   5.636  0.3242 -0.0730  0.4655
  323MOL0     C42569   3.490  10.837   5.748  0.1563 -0.6439 -0.6620
  323MOL0     C42570   3.599  10.910   5.706 -0.2656 -0.1983  0.8141
  323MOL0     H42571   3.937  11.186   5.809  0.3052  0.4819 -0.8584
  323MOL0     H42572   4.136  11.354   5.823  1.0446  1.5184 -2.3050
  323MOL0     H42573   4.295  11.542   5.841  1.5177  0.8699  2.2169
  323MOL0     H42574   4.189  11.571   5.984  1.2807  0.1175  0.1790
  323MOL0     H42575   4.203  11.803   5.973  0.5354 -1.1270  2.4744
  323MOL0     H42576   4.319  11.787   5.835  1.8803  1.8732  1.4402
  323MOL0     H42577   4.359  11.670   6.109 -2.9459  0.8186 -0.5449
  323MOL0     H42578   4.415  11.824   6.052  1.7417  0.5423 -0.7013
  323MOL0     H42579   4.509  11.549   5.928  2.5826  0.0366 -0.2970
  323MOL0     H42580   4.571  11.711   5.888  1.3545  0.9436  1.4684
  323MOL0     H42581   4.732  11.617   6.018  1.0034  0.6687  1.3892
  323MOL0     H42582   4.623  11.552   6.141 -2.4336  0.4120 -1.0842
  323MOL0     H42583   4.606  11.781   6.228  0.9891  1.4119  0.7589
  323MOL0     H42584   4.695  11.847   6.092  0.7906 -0.6225 -2.0924
  323MOL0     H42585   4.835  11.805   6.287  0.3838 -0.9850  0.4708
  323MOL0     H42586   4.764  11.651   6.323 -1.1292  0.6144  0.7237
  323MOL0     H42587   4.969  11.708   6.101  0.3122 -0.1677  0.0304
  323MOL0     H42588   4.926  11.546   6.141  0.9954  1.4953 -0.2046
  323MOL0     H42589   5.122  11.420   6.245 -2.2797 -0.6194  1.5257
  323MOL0     H42590   5.410  11.505   6.377  1.2581 -1.6705  2.2679
  323MOL0     H42591   5.303  11.380   6.462 -0.5980 -0.7291 -0.9568
  323MOL0     H42592   5.306  11.545   6.660 -0.3080  0.1811 -0.0197
  323MOL0     H42593   5.418  11.638   6.575 -1.6964  0.3230 -0.9872
  323MOL0     H42594   5.496  11.459   6.743  0.1164  1.5828  0.0744
  323MOL0     H42595   5.461  11.336   6.632 -0.9508 -0.2532  1.8490
  323MOL0     H42596   5.674  11.546   6.596  1.0770 -0.5047  1.2399
  323MOL0     H42597   5.611  11.462   6.459 -3.4478  2.6957  0.9616
  323MOL0     H42598   5.860  11.487   6.438  2.5484  0.3911 -1.9572
  323MOL0     H42599   6.083  11.450   6.380 -0.3088 -1.1237 -0.2300
  323MOL0     H42600   6.529  11.313   6.592  2.2665 -1.6394  0.0032
  323MOL0     H42601   6.760  11.385   6.559  1.1335  3.5227  0.3960
  323MOL0     H42602   6.932  11.367   6.395 -1.0248  0.1860 -0.3554
  323MOL0     H42603   6.978  11.515   6.494  1.3636 -0.1281  0.1935
  323MOL0     H42604   7.159  11.446   6.322 -0.6904  0.8801  3.5372
  323MOL0     H42605   7.085  11.600   6.292  0.0519  0.0574  0.2147
  323MOL0     H42606   7.109  11.495   6.083 -2.0028  1.2887 -1.1583
  323MOL0     H42607   6.946  11.541   6.127  1.5141  2.1062  1.0567
  323MOL0     H42608   7.055  11.254   6.105 -0.9863 -0.9444  1.0978
  323MOL0     H42609   6.908  11.285   6.210 -1.0655 -1.9159 -0.2545
  323MOL0     H42610   6.794  11.390   6.018 -1.0930  0.7982 -1.3487
  323MOL0     H42611   6.827  11.226   6.002  0.2103  0.4392  5.0403
  323MOL0     H42612   6.953  11.465   5.841  1.4924 -0.3981 -0.7468
  323MOL0     H42613   6.860  11.332   5.779  1.7672  0.8375 -1.5640
  323MOL0     H42614   7.141  11.351   5.904  1.1451  0.7960 -1.5865
  323MOL0     H42615   7.058  11.188   5.887  1.2720 -1.5538 -2.1680
  323MOL0     H42616   7.200  11.195   5.701 -1.2831 -1.1984  1.5861
  323MOL0     H42617   7.153  11.364   5.666  1.7921 -0.8355 -0.8594
  323MOL0     H42618   6.641  11.582   6.197 -0.3313 -3.8649 -1.2542
  323MOL0     H42619   6.416  11.520   6.243  0.6247 -2.9269 -2.2511
  323MOL0     H42620   6.079  11.113   6.659 -0.3408 -0.8033 -3.1494
  323MOL0     H42621   5.839  11.120   6.659 -1.5951  1.9085 -0.9187
  323MOL0     H42622   3.883  11.669   5.698 -2.3340 -1.6085 -0.4831
  323MOL0     H42623   3.687  11.489   5.684 -0.6832 -1.6524  0.4875
  323MOL0     H42624   3.499  11.201   5.849  0.6610 -0.1661  0.1566
  323MOL0     H42625   3.325  11.059   5.942  0.0176  0.6158  0.5637
  323MOL0     H42626   3.214  10.770   5.710 -2.0021  0.4229 -0.6164
  323MOL0     H42627   3.107  10.823   5.834 -2.7488 -3.3386  2.3285
  323MOL0     H42628   3.231  10.547   5.841 -0.5511 -1.2505  3.8425
  323MOL0     H42629   3.140  10.610   5.969  1.1607  2.5812  0.6988
  323MOL0     H42630   3.018  10.588   5.681  3.8293 -1.9838 -0.2106
  323MOL0     H42631   2.943  10.635   5.846  0.6373 -2.0650  2.4972
  323MOL0     H42632   3.025  10.401   5.921  0.0014 -0.8442 -0.0899
  323MOL0     H42633   2.875  10.434   5.829 -0.7983 -0.8789  0.5063
  323MOL0     H42634   3.126  10.214   5.555 -2.6102 -0.2444 -0.8220
  323MOL0     H42635   3.486  10.730   5.728 -1.1600 -0.8145  0.3286
  323MOL0     H42636   3.674  10.869   5.639 -0.6580 -0.8170  0.7488
  324MOL0     O42637   9.187   3.625   2.980 -0.8070 -0.0336  0.1315
  324MOL0     C42638   9.214   3.544   2.892 -0.7498 -0.1132 -0.0983
  324MOL0     O42639   9.129   3.461   2.833 -0.4635 -0.3340  0.1759
  324MOL0     C42640   9.005   3.439   2.893  0.2634 -0.3022  0.3029
  324MOL0     C42641   8.890   3.435   2.808 -0.2483 -0.0110 -0.5852
  324MOL0     C42642   8.769   3.382   2.853  0.2080 -1.0321 -0.6516
  324MOL0     C42643   8.754   3.348   2.991  0.1436  1.3428  0.2807
  324MOL0     O42644   8.627   3.299   3.023 -0.1949 -0.3710  0.6248
  324MOL0     C42645   8.574   3.300   3.152  0.3538  0.5860 -0.2058
  324MOL0     C42646   8.494   3.177   3.161  0.1785  0.3666 -0.2973
  324MOL0     C42647   8.346   3.201   3.120 -0.1732  0.6225  0.8871
  324MOL0     C42648   8.243   3.080   3.151  0.5638 -0.0653 -0.6013
  324MOL0     C42649   8.104   3.139   3.160 -1.5683 -0.4939 -0.1886
  324MOL0     C42650   8.050   3.215   3.038 -0.2032  0.2826 -0.4110
  324MOL0     C42651   8.041   3.136   2.897  0.1797 -0.4290 -0.1890
  324MOL0     C42652   7.959   3.223   2.792 -0.3124  0.9159  0.5661
  324MOL0     N42653   7.929   3.154   2.664 -0.0464  0.2596 -0.4204
  324MOL0     C42654   8.015   3.159   2.557  0.8643  0.1214 -0.9347
  324MOL0     C42655   7.948   3.104   2.447  0.4411  0.7719 -1.0706
  324MOL0     C42656   8.004   3.096   2.312 -0.2891 -0.0348 -1.0176
  324MOL0     C42657   7.911   3.147   2.209  0.1335 -0.0892 -0.5828
  324MOL0     C42658   7.889   3.302   2.233  0.4044  0.1141  0.3432
  324MOL0     C42659   7.737   3.328   2.234  0.0649  0.7182  0.7301
  324MOL0     O42660   7.684   3.294   2.102 -0.5284 -0.4132  0.4459
  324MOL0     C42661   7.553   3.317   2.084 -0.7676  0.1904  0.0758
  324MOL0     C42662   7.484   3.438   2.075 -0.0210  0.0124 -0.4507
  324MOL0     C42663   7.340   3.444   2.059  0.1735 -0.5828  0.7360
  324MOL0     C42664   7.268   3.327   2.057 -0.0331  0.5282 -0.1034
  324MOL0     C42665   7.119   3.331   2.059  0.4863  0.3076 -0.1457
  324MOL0     O42666   7.058   3.445   2.008  0.5664  0.0848  0.0268
  324MOL0     C42667   6.922   3.458   1.988  0.0320 -0.2573  0.2082
  324MOL0     C42668   6.829   3.406   2.080  0.5285 -0.0690  0.0453
  324MOL0     C42669   6.688   3.424   2.058  0.3879  0.4386 -0.0277
  324MOL0     C42670   6.638   3.476   1.946  0.3187  0.3584  0.3759
  324MOL0     O42671   6.500   3.487   1.930 -0.1159  0.4150  0.0258
  324MOL0     C42672   6.433   3.370   1.877 -0.2582  0.0314 -0.7090
  324MOL0     C42673   6.456   3.358   1.729  0.3113 -1.1690 -0.8470
  324MOL0     C42674   6.418   3.482   1.654  0.3938 -0.8302  0.2986
  324MOL0     C42675   6.353   3.446   1.518  0.6611 -0.0616  0.3224
  324MOL0     C42676   6.230   3.536   1.514 -0.0001  0.7523 -0.2310
  324MOL0     C42677   6.126   3.489   1.416 -0.1870  0.6676 -0.2695
  324MOL0     C42678   6.177   3.481   1.279 -0.6044 -0.1913 -0.4742
  324MOL0     C42679   6.070   3.480   1.178  0.4655  0.0900  0.5387
  324MOL0    Cl42680   6.121   3.469   1.010 -0.0531 -0.3623 -0.7460
  324MOL0     C42681   6.732   3.521   1.852  0.0986 -0.6230  0.7636
  324MOL0     C42682   6.872   3.522   1.873  0.2144  0.6066  0.0253
  324MOL0     O42683   7.055   3.226   2.079 -0.2793 -0.0974 -0.5568
  324MOL0     C42684   7.340   3.203   2.069 -0.0073  0.4566  0.0607
  324MOL0     C42685   7.479   3.197   2.081 -0.4159 -0.1888 -0.2379
  324MOL0     N42686   7.820   3.073   2.491 -0.0304  0.2792 -0.9141
  324MOL0     N42687   7.807   3.110   2.621  0.7987 -0.3713 -0.3409
  324MOL0     C42688   8.863   3.358   3.075 -0.6759 -0.9776 -0.8667
  324MOL0     C42689   8.990   3.395   3.027  0.3186  0.2186  0.7150
  324MOL0     C42690   9.356   3.543   2.849 -0.7296  0.4705 -0.4975
  324MOL0     C42691   9.397   3.447   2.750 -0.1545  0.1105 -0.8197
  324MOL0     C42692   9.537   3.444   2.708  0.0723  0.6030 -0.3204
  324MOL0     C42693   9.632   3.538   2.751 -1.0678 -0.3114 -0.0069
  324MOL0     O42694   9.760   3.536   2.704  0.7391  0.4657 -1.3742
  324MOL0     C42695   9.825   3.660   2.681  0.3862 -0.2555  0.5888
  324MOL0     C42696   9.925   3.646   2.573 -0.3164  0.0571 -0.4692
  324MOL0     C42697   9.983   3.774   2.529 -0.6734 -0.7477  0.4540
  324MOL0     C42698  10.107   3.743   2.442 -0.2629  0.3588  0.2317
  324MOL0     C42699  10.082   3.693   2.302  0.1956  0.4769 -0.1303
  324MOL0     C42700  10.073   3.645   2.187 -0.0480 -0.0757 -0.4061
  324MOL0     C42701   9.577   3.629   2.837  0.5905  0.8713  0.1529
  324MOL0     C42702   9.449   3.627   2.895 -0.4051 -0.8560  0.3926
  324MOL0     H42703   8.907   3.465   2.705  2.5739  0.6617  0.0023
  324MOL0     H42704   8.682   3.380   2.787 -1.6841 -2.3094  1.7200
  324MOL0     H42705   8.517   3.393   3.165  1.0184  1.6802 -3.9983
  324MOL0     H42706   8.649   3.303   3.231  0.0359  0.6032  0.1007
  324MOL0     H42707   8.502   3.153   3.267  0.8391  4.2432  0.6855
  324MOL0     H42708   8.526   3.090   3.103 -1.5697 -0.1269 -0.5866
  324MOL0     H42709   8.348   3.213   3.012 -2.5305 -2.3451  0.4094
  324MOL0     H42710   8.305   3.282   3.181 -1.9277 -0.8214  1.6895
  324MOL0     H42711   8.251   3.007   3.070 -0.5638 -0.1868 -0.6170
  324MOL0     H42712   8.271   3.037   3.248  2.5893 -0.5333 -1.3363
  324MOL0     H42713   8.099   3.206   3.246 -0.4331  1.8977 -1.8426
  324MOL0     H42714   8.028   3.064   3.182 -1.2748  0.1129  3.6215
  324MOL0     H42715   8.094   3.315   3.045 -2.8183  1.5779 -0.8760
  324MOL0     H42716   7.945   3.235   3.063  0.2503  0.1627  1.7503
  324MOL0     H42717   8.140   3.116   2.855  0.4707 -3.2113  1.5438
  324MOL0     H42718   7.991   3.040   2.915 -1.1608  0.2350 -0.2151
  324MOL0     H42719   8.018   3.309   2.761 -0.4559  0.1053 -2.2525
  324MOL0     H42720   7.864   3.258   2.835 -0.9789 -0.0645 -0.0551
  324MOL0     H42721   8.107   3.216   2.556  0.3193  1.1245  0.9958
  324MOL0     H42722   8.051   3.006   2.272 -0.3679 -0.0643 -1.0461
  324MOL0     H42723   8.089   3.165   2.323 -2.5484  2.6853  1.0798
  324MOL0     H42724   7.818   3.089   2.208  0.6197 -1.0582  2.0672
  324MOL0     H42725   7.951   3.141   2.108  2.0131 -1.6538  0.2044
  324MOL0     H42726   7.930   3.316   2.334  3.3170 -2.1661 -0.3794
  324MOL0     H42727   7.944   3.361   2.160 -1.1176 -0.3375 -1.2237
  324MOL0     H42728   7.714   3.433   2.258  0.5581  1.2544 -1.0208
  324MOL0     H42729   7.685   3.253   2.294  0.2362 -3.1408 -3.4741
  324MOL0     H42730   7.545   3.527   2.066 -3.8684  2.7999 -1.9917
  324MOL0     H42731   7.282   3.535   2.044  0.9225 -0.0696  0.8812
  324MOL0     H42732   6.864   3.360   2.171  2.0852 -1.6815 -1.2946
  324MOL0     H42733   6.619   3.390   2.135  1.1227 -3.3399 -0.8148
  324MOL0     H42734   6.327   3.376   1.902  0.0155  0.6989  0.3999
  324MOL0     H42735   6.467   3.281   1.930 -0.0834 -0.7122 -2.0377
  324MOL0     H42736   6.401   3.270   1.696 -0.9598  0.3652 -3.1000
  324MOL0     H42737   6.565   3.358   1.716  0.2863  0.1873 -1.2566
  324MOL0     H42738   6.510   3.538   1.635 -0.4663  0.7679  0.6254
  324MOL0     H42739   6.354   3.555   1.705 -0.4356 -0.1079 -1.7074
  324MOL0     H42740   6.429   3.476   1.446  1.4714 -1.9314  0.3229
  324MOL0     H42741   6.333   3.340   1.497  2.8156 -0.1539 -1.6845
  324MOL0     H42742   6.264   3.637   1.489 -0.6036  0.8275 -0.7911
  324MOL0     H42743   6.163   3.535   1.601  0.9578 -1.5883  0.5724
  324MOL0     H42744   6.043   3.559   1.424  0.4100  1.8252 -3.2276
  324MOL0     H42745   6.094   3.388   1.446  1.3655  0.9915  2.9962
  324MOL0     H42746   6.230   3.574   1.256 -0.8577  0.6474  2.0677
  324MOL0     H42747   6.240   3.393   1.266 -2.0597 -1.3593  0.1426
  324MOL0     H42748   6.021   3.576   1.192  0.8495  0.4287 -0.3796
  324MOL0     H42749   6.000   3.396   1.187  2.8559 -1.8886  2.0927
  324MOL0     H42750   6.697   3.575   1.764 -0.6337  0.2029  1.5426
  324MOL0     H42751   6.945   3.561   1.803  1.2659 -3.6280 -1.5449
  324MOL0     H42752   7.286   3.110   2.077  1.8906 -0.6741  0.4100
  324MOL0     H42753   7.517   3.096   2.094 -2.6468 -0.7631  3.5865
  324MOL0     H42754   8.846   3.314   3.172 -1.7735 -0.0816 -0.6253
  324MOL0     H42755   9.079   3.384   3.087  2.6633  0.3551 -2.5043
  324MOL0     H42756   9.334   3.375   2.698 -0.4114  1.1331 -1.9507
  324MOL0     H42757   9.558   3.368   2.634  1.3697 -0.3462  0.9607
  324MOL0     H42758   9.878   3.682   2.775  2.1928  2.2766 -0.8766
  324MOL0     H42759   9.753   3.740   2.659 -0.3995 -1.4446 -1.4320
  324MOL0     H42760   9.995   3.569   2.606  0.4063  1.0299  0.3262
  324MOL0     H42761   9.871   3.598   2.491 -1.4581 -1.4002  1.0702
  324MOL0     H42762  10.023   3.825   2.617 -2.0248  2.2071 -0.5158
  324MOL0     H42763   9.908   3.840   2.485  0.6083  0.7437  0.4237
  324MOL0     H42764  10.162   3.837   2.433 -0.9444  0.7644  0.1819
  324MOL0     H42765  10.178   3.679   2.494 -3.0419 -1.3121  2.2818
  324MOL0     H42766  10.075   3.590   2.095  2.3979 -0.2338 -0.3255
  324MOL0     H42767   9.637   3.703   2.889 -2.4906  1.3447  3.4215
  324MOL0     H42768   9.425   3.712   2.958 -1.6262  0.0036 -1.1687
  325MOL0     O42769  10.101   8.829   2.340  0.0359 -0.7170 -0.0422
  325MOL0     C42770  10.143   8.748   2.420  0.1344  0.5635  0.6958
  325MOL0     O42771  10.077   8.658   2.480 -0.0572  0.1679  0.3426
  325MOL0     C42772   9.943   8.637   2.456  0.6232 -1.4193  0.3533
  325MOL0     C42773   9.851   8.741   2.485  0.8008  0.7686 -0.6581
  325MOL0     C42774   9.710   8.708   2.469  0.1284 -1.6364  0.4086
  325MOL0     C42775   9.670   8.587   2.426 -0.4811  0.3218  0.0769
  325MOL0     O42776   9.538   8.565   2.416  0.9510  0.5088 -0.2926
  325MOL0     C42777   9.443   8.676   2.386 -0.0471  0.2134 -0.2053
  325MOL0     C42778   9.312   8.612   2.352  0.0981 -0.3631  0.6095
  325MOL0     C42779   9.202   8.713   2.321 -0.5402 -0.9730 -0.0427
  325MOL0     C42780   9.075   8.647   2.290  0.7983 -0.3914 -0.4879
  325MOL0     C42781   8.947   8.740   2.302 -0.2593  0.3603  0.5238
  325MOL0     C42782   8.821   8.657   2.277 -0.1997 -0.7234  0.0609
  325MOL0     C42783   8.690   8.731   2.294 -0.2581 -0.3563 -0.9810
  325MOL0     C42784   8.575   8.686   2.200 -0.4732 -0.7351  0.1507
  325MOL0     N42785   8.448   8.763   2.220 -0.9702 -0.2106  0.2965
  325MOL0     C42786   8.375   8.842   2.127  0.1646  0.1148 -0.2190
  325MOL0     C42787   8.276   8.891   2.207  1.0378  0.3756 -0.5495
  325MOL0     C42788   8.170   8.982   2.154  0.0134  0.4743  0.2474
  325MOL0     C42789   8.038   9.004   2.222  0.4806  0.2122 -0.2539
  325MOL0     C42790   7.940   8.883   2.201  0.9557 -0.0557 -0.5595
  325MOL0     C42791   7.801   8.925   2.256 -0.9617 -0.9384 -0.1296
  325MOL0     O42792   7.723   9.006   2.161 -0.1036 -0.0769  0.6364
  325MOL0     C42793   7.581   9.017   2.173 -0.4091 -0.0998 -0.5402
  325MOL0     C42794   7.507   8.928   2.249 -0.5754  0.3342 -0.6984
  325MOL0     C42795   7.370   8.921   2.225  0.1603 -0.1315  0.3469
  325MOL0     C42796   7.301   9.022   2.134 -0.3770  0.1534  0.1240
  325MOL0     C42797   7.151   9.031   2.127 -0.0240 -0.0688  0.4603
  325MOL0     O42798   7.072   8.956   2.211  0.4535  0.1237  0.0690
  325MOL0     C42799   6.941   8.992   2.231 -0.2077  0.0931 -0.6910
  325MOL0     C42800   6.828   8.964   2.148  0.1954  0.2035  0.3138
  325MOL0     C42801   6.700   8.994   2.186  0.1809 -0.3092 -0.6417
  325MOL0     C42802   6.671   9.050   2.313  0.3814  0.7939 -0.2522
  325MOL0     O42803   6.553   9.095   2.349  0.3063 -0.2064 -0.4578
  325MOL0     C42804   6.443   9.101   2.262 -0.4679  0.5412  0.4381
  325MOL0     C42805   6.315   9.116   2.354  0.1299  0.1450  0.0600
  325MOL0     C42806   6.199   9.153   2.262 -0.7615  0.3456  0.1987
  325MOL0     C42807   6.122   9.044   2.184 -0.5883 -0.0760 -0.4863
  325MOL0     C42808   6.047   8.957   2.289 -0.3433 -0.0212  1.2163
  325MOL0     C42809   5.915   9.026   2.338  0.9774 -1.1292 -0.0530
  325MOL0     C42810   5.840   8.914   2.400  1.2710  1.2264  0.2912
  325MOL0     C42811   5.742   8.963   2.507 -0.1244 -0.9804 -0.2007
  325MOL0    Cl42812   5.585   8.992   2.431  0.7520  0.0453 -0.3818
  325MOL0     C42813   6.780   9.069   2.401  1.0309  0.3209  0.2734
  325MOL0     C42814   6.911   9.038   2.366  0.3619  0.6913 -0.4426
  325MOL0     O42815   7.111   9.111   2.043  0.1533 -0.0091 -0.6239
  325MOL0     C42816   7.380   9.122   2.075 -0.0408 -0.2941 -0.1210
  325MOL0     C42817   7.517   9.112   2.085 -0.3232  0.1309 -0.5004
  325MOL0     N42818   8.290   8.839   2.337  0.1581  1.1091 -0.3896
  325MOL0     N42819   8.387   8.754   2.336 -1.0070 -0.1661  0.2289
  325MOL0     C42820   9.765   8.490   2.400  0.2027  0.3336  0.4568
  325MOL0     C42821   9.897   8.515   2.413  0.1879 -1.1183 -0.1724
  325MOL0     C42822  10.283   8.766   2.460  0.0276 -0.6111  0.3114
  325MOL0     C42823  10.387   8.783   2.365  0.1896  0.6361  0.9243
  325MOL0     C42824  10.516   8.825   2.395  0.0294  0.7135 -0.8108
  325MOL0     C42825  10.559   8.827   2.528  0.2298  0.2886 -0.0818
  325MOL0     O42826  10.690   8.857   2.546 -0.8909 -0.2123 -0.6934
  325MOL0     C42827  10.725   8.868   2.696  0.2674  0.1623 -0.0586
  325MOL0     C42828  10.874   8.907   2.690  0.1908 -0.2846  0.4386
  325MOL0     C42829  10.961   8.803   2.622  0.6005  0.3722  0.3977
  325MOL0     C42830  11.112   8.835   2.653  1.3132 -0.3817 -0.5072
  325MOL0     C42831  11.162   8.963   2.593  0.0551  0.5530 -0.1603
  325MOL0     C42832  11.194   9.065   2.536  0.0379  0.5983  0.0037
  325MOL0     C42833  10.461   8.795   2.622 -0.2639  0.4659  0.9812
  325MOL0     C42834  10.329   8.764   2.592 -0.2031  0.5556  0.1422
  325MOL0     H42835   9.886   8.841   2.509 -0.4534  1.0023  0.2812
  325MOL0     H42836   9.650   8.797   2.482 -0.2284 -1.4776 -1.8726
  325MOL0     H42837   9.467   8.741   2.301  0.1593  0.3874 -0.0159
  325MOL0     H42838   9.438   8.738   2.476  1.0055 -2.2817  1.6896
  325MOL0     H42839   9.280   8.555   2.440  0.1641 -2.6251 -0.7295
  325MOL0     H42840   9.329   8.538   2.273  0.4740  1.6784 -1.3255
  325MOL0     H42841   9.243   8.780   2.245 -0.4547 -0.9077  0.0622
  325MOL0     H42842   9.188   8.777   2.408  1.4603 -3.0775  1.9808
  325MOL0     H42843   9.085   8.592   2.196 -1.3673 -0.8567 -0.4920
  325MOL0     H42844   9.054   8.573   2.367 -1.5031 -1.8342 -2.3680
  325MOL0     H42845   8.955   8.824   2.233 -0.9248 -0.1573 -0.1965
  325MOL0     H42846   8.933   8.777   2.404 -2.9602 -0.6935  0.6245
  325MOL0     H42847   8.825   8.565   2.335  2.6396 -0.8675 -0.2087
  325MOL0     H42848   8.819   8.640   2.169  0.5344 -1.9887  0.2278
  325MOL0     H42849   8.665   8.725   2.401 -2.5778 -2.1282 -1.5149
  325MOL0     H42850   8.700   8.838   2.277 -3.5733  0.8633  2.8682
  325MOL0     H42851   8.559   8.580   2.219 -1.4838 -0.8722 -1.2916
  325MOL0     H42852   8.599   8.693   2.093  1.4360  2.6105  0.6524
  325MOL0     H42853   8.408   8.854   2.025  1.5157  1.7253  0.3481
  325MOL0     H42854   8.138   8.933   2.062 -0.4552 -4.7745  2.8125
  325MOL0     H42855   8.211   9.080   2.130 -0.0404  0.2564 -0.7577
  325MOL0     H42856   8.007   9.099   2.177 -0.3287 -0.2360 -0.6418
  325MOL0     H42857   8.064   9.022   2.327 -1.2241 -0.6338  0.3371
  325MOL0     H42858   7.926   8.872   2.093 -0.6423  1.3836 -0.5411
  325MOL0     H42859   7.981   8.789   2.239 -1.6426 -1.5159 -1.1719
  325MOL0     H42860   7.821   8.983   2.347 -1.3526  0.6579 -1.0182
  325MOL0     H42861   7.754   8.830   2.283  0.2382 -1.9501 -1.4536
  325MOL0     H42862   7.550   8.867   2.327  0.3037  0.7544 -0.8418
  325MOL0     H42863   7.311   8.850   2.282 -1.2233  0.9057  0.2579
  325MOL0     H42864   6.866   8.922   2.056 -3.1576 -1.8492 -0.3132
  325MOL0     H42865   6.619   8.988   2.114 -4.0626  0.5779  3.5278
  325MOL0     H42866   6.426   9.013   2.200 -2.1244  1.7665 -0.9324
  325MOL0     H42867   6.456   9.189   2.199 -2.3895  0.9738  0.5887
  325MOL0     H42868   6.329   9.204   2.417  1.3726 -0.4309  0.6208
  325MOL0     H42869   6.303   9.021   2.408  0.8161  0.0510  0.0599
  325MOL0     H42870   6.247   9.224   2.194  0.5282 -0.7591 -0.0979
  325MOL0     H42871   6.130   9.209   2.326 -3.7945 -1.6458 -1.0923
  325MOL0     H42872   6.065   9.090   2.102  0.9723 -0.5266 -1.8929
  325MOL0     H42873   6.195   8.974   2.140  0.1232 -1.2670  2.3678
  325MOL0     H42874   6.116   8.925   2.369  0.1453  2.2191  1.7615
  325MOL0     H42875   6.019   8.869   2.231 -0.7714  0.6639  0.3702
  325MOL0     H42876   5.851   9.073   2.263  0.3036 -2.4360 -0.3095
  325MOL0     H42877   5.935   9.108   2.408  2.6463 -0.5820 -1.1135
  325MOL0     H42878   5.769   8.872   2.328  1.7544  1.1726 -0.1560
  325MOL0     H42879   5.897   8.826   2.433 -0.7720 -0.6131 -0.7509
  325MOL0     H42880   5.788   9.050   2.554 -1.4158 -0.0030 -0.6984
  325MOL0     H42881   5.735   8.889   2.588 -1.8623  1.9378  2.5455
  325MOL0     H42882   6.750   9.115   2.494 -0.1856  0.4408 -0.1653
  325MOL0     H42883   6.996   9.045   2.434  1.4120 -2.3517 -1.2646
  325MOL0     H42884   7.337   9.204   2.017 -2.6270 -0.6858  1.1021
  325MOL0     H42885   7.582   9.181   2.031 -0.6365  1.6924  1.0075
  325MOL0     H42886   9.732   8.390   2.374 -2.1172  1.8435 -3.2569
  325MOL0     H42887   9.976   8.445   2.388  1.6134 -1.9080  5.2362
  325MOL0     H42888  10.367   8.767   2.259  1.8260 -1.4727  0.8711
  325MOL0     H42889  10.575   8.849   2.308 -1.0416 -1.5174 -2.2425
  325MOL0     H42890  10.712   8.774   2.751  3.1373 -0.9143 -0.9897
  325MOL0     H42891  10.668   8.954   2.730  3.2135  2.5482 -0.7482
  325MOL0     H42892  10.882   9.005   2.641 -3.7567 -0.7828 -1.5720
  325MOL0     H42893  10.907   8.918   2.793 -0.6793  0.9812  0.6058
  325MOL0     H42894  10.944   8.800   2.514  1.0195  0.0567  0.3374
  325MOL0     H42895  10.927   8.704   2.655  0.0648  0.8944  1.4716
  325MOL0     H42896  11.127   8.839   2.762  0.5047  1.2185 -0.4264
  325MOL0     H42897  11.175   8.757   2.610  2.7112 -0.9033  2.2015
  325MOL0     H42898  11.235   9.147   2.481  2.6915  0.9641  2.3124
  325MOL0     H42899  10.489   8.810   2.726 -2.3174  0.5726  1.5623
  325MOL0     H42900  10.246   8.751   2.661 -0.2152  0.1446  0.0522
  326MOL0     O42901   5.062   8.422   2.681 -0.5540 -0.1188  0.7357
  326MOL0     C42902   4.987   8.514   2.696 -0.8432 -1.1088  0.4411
  326MOL0     O42903   4.983   8.636   2.618 -0.4677 -0.2923 -0.4029
  326MOL0     C42904   5.062   8.658   2.519 -0.4232 -1.1484  0.8862
  326MOL0     C42905   5.044   8.793   2.476 -1.4381  0.4848 -0.0216
  326MOL0     C42906   5.098   8.837   2.357 -0.4489 -0.0588 -0.3502
  326MOL0     C42907   5.188   8.747   2.286 -0.1343  0.3902  0.4308
  326MOL0     O42908   5.269   8.812   2.196  0.3028 -0.2259 -0.6133
  326MOL0     C42909   5.413   8.787   2.191  0.0015 -0.0638 -0.4295
  326MOL0     C42910   5.482   8.881   2.093  0.1805 -1.0882 -0.6919
  326MOL0     C42911   5.628   8.849   2.059 -0.5701 -0.0640 -0.0969
  326MOL0     C42912   5.691   8.945   1.961 -0.1592  0.3468  0.5189
  326MOL0     C42913   5.821   8.874   1.905 -0.0511 -0.2839 -0.4596
  326MOL0     C42914   5.924   8.974   1.844 -0.5049 -0.0066  0.3325
  326MOL0     C42915   6.057   8.891   1.832 -0.4879  0.4885  0.2716
  326MOL0     C42916   6.189   8.963   1.782  0.6333  0.7421 -0.3717
  326MOL0     N42917   6.163   9.060   1.688  0.3930 -0.1935  0.3226
  326MOL0     C42918   6.182   9.048   1.558 -0.6501 -0.3376 -1.1940
  326MOL0     C42919   6.180   9.169   1.498 -0.2150 -0.0008  0.2360
  326MOL0     C42920   6.152   9.189   1.345  0.4443 -0.6489 -0.8471
  326MOL0     C42921   6.001   9.207   1.319  0.2569  0.3433  0.2691
  326MOL0     C42922   5.905   9.104   1.385  0.6822  0.2416 -0.1025
  326MOL0     C42923   5.817   9.151   1.498 -0.1517  0.5335  1.0089
  326MOL0     O42924   5.721   9.048   1.524  0.4928  0.5266  0.1233
  326MOL0     C42925   5.582   9.073   1.541 -0.3196  0.4062  0.6365
  326MOL0     C42926   5.485   8.978   1.505 -0.1051  0.5033 -0.0002
  326MOL0     C42927   5.346   9.008   1.507 -0.9558 -0.3474 -0.4998
  326MOL0     C42928   5.308   9.134   1.548  0.3598  0.3292 -0.7985
  326MOL0     C42929   5.156   9.167   1.537  0.2929 -0.3622 -0.6195
  326MOL0     O42930   5.071   9.062   1.523 -0.0106 -0.0134  0.4429
  326MOL0     C42931   4.940   9.074   1.528 -0.0129 -0.0572 -0.1745
  326MOL0     C42932   4.870   9.184   1.589 -0.1051 -0.1994 -0.1050
  326MOL0     C42933   4.733   9.181   1.584 -0.3429 -0.0998  0.6249
  326MOL0     C42934   4.656   9.079   1.540 -0.2053  0.2648  0.1461
  326MOL0     O42935   4.518   9.094   1.549  0.7292  0.1852 -0.4973
  326MOL0     C42936   4.437   8.973   1.565 -0.1688 -0.8871  0.5401
  326MOL0     C42937   4.289   9.012   1.531 -0.3273 -0.5871 -0.2749
  326MOL0     C42938   4.201   8.892   1.553  0.2793 -0.2581  0.4512
  326MOL0     C42939   4.067   8.947   1.525 -0.0727 -0.0161 -0.3678
  326MOL0     C42940   3.963   8.862   1.596  0.2080  0.1485  0.0024
  326MOL0     C42941   3.820   8.905   1.580  0.4273 -0.9727  0.6779
  326MOL0     C42942   3.708   8.813   1.625 -0.2084 -0.1689  0.3331
  326MOL0     C42943   3.580   8.904   1.641  0.9004  0.3686 -0.1298
  326MOL0    Cl42944   3.445   8.803   1.681  0.7035 -0.2116  0.2242
  326MOL0     C42945   4.722   8.972   1.474  0.4908  0.0529  0.4093
  326MOL0     C42946   4.855   8.971   1.465 -0.1311 -0.5660 -0.4380
  326MOL0     O42947   5.129   9.289   1.559 -0.0583 -1.1159 -0.1410
  326MOL0     C42948   5.401   9.229   1.596  0.3528  0.0872  0.8445
  326MOL0     C42949   5.539   9.193   1.594 -0.1249 -0.1271 -0.4977
  326MOL0     N42950   6.164   9.264   1.594  0.0491  1.0296  0.2545
  326MOL0     N42951   6.163   9.195   1.711 -1.1014 -0.1894 -0.0035
  326MOL0     C42952   5.204   8.612   2.323 -0.1177 -0.0694 -0.4990
  326MOL0     C42953   5.139   8.570   2.441  0.5694 -0.0614  0.0202
  326MOL0     C42954   4.910   8.511   2.820 -0.8474  0.6121 -0.3387
  326MOL0     C42955   4.848   8.628   2.856 -0.3979  0.1155  0.1854
  326MOL0     C42956   4.766   8.625   2.965 -0.5849  0.2086 -0.6635
  326MOL0     C42957   4.743   8.512   3.044  0.6132  0.7808  0.2541
  326MOL0     O42958   4.646   8.502   3.145 -0.3649  0.2009  0.3165
  326MOL0     C42959   4.564   8.609   3.181  0.3616  0.4798  1.3707
  326MOL0     C42960   4.636   8.694   3.284  0.4207 -0.7451 -0.1176
  326MOL0     C42961   4.595   8.838   3.298 -0.3308  0.5898  0.5300
  326MOL0     C42962   4.444   8.861   3.324 -0.3783 -0.4275  0.4716
  326MOL0     C42963   4.398   8.785   3.441  0.1599 -0.0858 -0.7684
  326MOL0     C42964   4.366   8.744   3.550  0.1728 -0.0415  0.0576
  326MOL0     C42965   4.814   8.398   3.021 -0.0968  0.1297  0.4518
  326MOL0     C42966   4.897   8.394   2.908 -0.6625 -0.1899  0.0765
  326MOL0     H42967   4.980   8.862   2.531 -0.6499 -0.0721  1.6544
  326MOL0     H42968   5.088   8.941   2.327 -0.6692 -0.8427 -3.3155
  326MOL0     H42969   5.414   8.685   2.153 -1.2798 -1.8151  3.6818
  326MOL0     H42970   5.459   8.770   2.288 -1.0711  1.6869  0.4440
  326MOL0     H42971   5.485   8.976   2.148 -1.6887 -2.3817  1.8266
  326MOL0     H42972   5.419   8.890   2.004 -0.1846  2.8761 -0.2083
  326MOL0     H42973   5.635   8.747   2.019  0.3626 -0.2546  0.5058
  326MOL0     H42974   5.697   8.852   2.143  1.6290 -1.7010 -1.7108
  326MOL0     H42975   5.619   8.959   1.879 -1.4857 -0.5931  1.4883
  326MOL0     H42976   5.713   9.038   2.013 -2.6454  0.2264  1.9233
  326MOL0     H42977   5.785   8.804   1.829 -1.7206 -0.2912  0.2774
  326MOL0     H42978   5.873   8.821   1.985  0.8825 -0.0982 -0.9367
  326MOL0     H42979   5.933   9.073   1.890 -2.9825  1.6601 -2.3682
  326MOL0     H42980   5.904   9.022   1.747  3.1707  0.3313 -0.3918
  326MOL0     H42981   6.087   8.838   1.922 -0.4298  0.3874  0.1929
  326MOL0     H42982   6.040   8.813   1.757 -0.5291  1.1532 -0.4219
  326MOL0     H42983   6.257   8.890   1.738 -1.3928  0.6618 -3.7166
  326MOL0     H42984   6.232   9.009   1.872  1.8242  0.1428 -0.6236
  326MOL0     H42985   6.196   8.958   1.497  2.7820 -1.3069  0.7545
  326MOL0     H42986   6.194   9.107   1.287  1.8676 -1.6577  1.4761
  326MOL0     H42987   6.211   9.279   1.322  0.1712  0.4512  2.1814
  326MOL0     H42988   5.987   9.213   1.211  1.7270  3.9141  0.1339
  326MOL0     H42989   5.977   9.305   1.361 -1.9250 -0.4387  0.9971
  326MOL0     H42990   5.833   9.062   1.315  0.1902 -0.9543  1.0743
  326MOL0     H42991   5.959   9.016   1.422 -0.1503 -0.9992 -1.7300
  326MOL0     H42992   5.759   9.234   1.457 -2.8356 -1.2994  0.7936
  326MOL0     H42993   5.877   9.182   1.584  1.2579  0.8960 -0.0715
  326MOL0     H42994   5.539   8.895   1.461  2.7616  3.6563 -3.0738
  326MOL0     H42995   5.274   8.929   1.486 -0.6325 -0.8616  0.2969
  326MOL0     H42996   4.919   9.265   1.644 -4.6765  3.0958 -0.2736
  326MOL0     H42997   4.670   9.253   1.636  1.6783  0.9466  1.7389
  326MOL0     H42998   4.445   8.926   1.664  2.4985  0.4306  1.0482
  326MOL0     H42999   4.468   8.905   1.484  1.4478  1.7153 -1.1792
  326MOL0     H43000   4.293   9.050   1.429  3.4375 -0.1478 -0.1164
  326MOL0     H43001   4.267   9.083   1.611 -1.3493  2.1429 -2.7898
  326MOL0     H43002   4.213   8.846   1.651  5.9187  1.1650  0.7613
  326MOL0     H43003   4.240   8.818   1.483  0.0639 -0.8604  0.9643
  326MOL0     H43004   4.050   9.051   1.556 -0.0953  0.1074 -0.7880
  326MOL0     H43005   4.045   8.947   1.418  2.4410 -0.1432 -0.9451
  326MOL0     H43006   3.979   8.883   1.703  0.4931  0.5025 -0.1082
  326MOL0     H43007   3.968   8.757   1.567 -0.0409  0.6837 -2.0743
  326MOL0     H43008   3.804   8.919   1.473 -1.6831 -1.7667  0.8287
  326MOL0     H43009   3.802   8.997   1.638  1.0085 -1.0893  1.0477
  326MOL0     H43010   3.696   8.723   1.564  0.2862  0.0850 -0.1338
  326MOL0     H43011   3.726   8.766   1.723 -1.0366 -1.7427 -0.2258
  326MOL0     H43012   3.560   8.959   1.548 -0.7691  0.4877  0.2668
  326MOL0     H43013   3.584   8.974   1.725 -1.7783 -1.7966  2.0072
  326MOL0     H43014   4.673   8.886   1.430  2.6240 -0.5732 -0.9022
  326MOL0     H43015   4.904   8.886   1.418  2.0341 -0.3059  1.2027
  326MOL0     H43016   5.369   9.328   1.624 -1.6563  0.9137 -3.5766
  326MOL0     H43017   5.614   9.263   1.628 -0.2721 -1.3986  2.8155
  326MOL0     H43018   5.259   8.543   2.260  1.2556 -0.4789  1.0711
  326MOL0     H43019   5.153   8.464   2.463 -3.6769 -0.7939 -0.0062
  326MOL0     H43020   4.861   8.719   2.797  0.3136 -1.6136 -2.5023
  326MOL0     H43021   4.716   8.720   2.984  0.4315  0.6719 -0.2199
  326MOL0     H43022   4.469   8.564   3.210  0.1864 -0.9509 -1.1451
  326MOL0     H43023   4.535   8.666   3.092 -0.4730 -0.3306  1.1167
  326MOL0     H43024   4.646   8.639   3.378  0.9338 -1.9627 -0.8645
  326MOL0     H43025   4.738   8.694   3.243  0.9863  2.3127  1.0161
  326MOL0     H43026   4.627   8.893   3.209  0.5981 -0.1207  0.4148
  326MOL0     H43027   4.657   8.860   3.385 -0.5830 -1.4204  1.2988
  326MOL0     H43028   4.425   8.968   3.337 -0.3045 -0.6075  2.3211
  326MOL0     H43029   4.383   8.839   3.236  0.8730  1.1417 -0.8478
  326MOL0     H43030   4.337   8.723   3.651  0.2180 -2.5392 -0.4000
  326MOL0     H43031   4.792   8.310   3.081 -1.1860  1.1669  1.6230
  326MOL0     H43032   4.947   8.304   2.875  1.4257  2.6100 -5.8899
  327MOL0     O43033   5.957   3.123  10.369  0.2523  0.6094  0.5559
  327MOL0     C43034   6.003   3.010  10.349  0.1180 -0.0694 -0.0595
  327MOL0     O43035   5.935   2.903  10.296  0.0592  0.3273 -0.6937
  327MOL0     C43036   5.806   2.918  10.248 -0.0975 -0.5495  0.1022
  327MOL0     C43037   5.719   2.823  10.290  1.0160 -0.0415  0.5368
  327MOL0     C43038   5.586   2.807  10.221  0.2333  0.1833 -0.9346
  327MOL0     C43039   5.544   2.900  10.118 -0.5954 -0.9988 -0.7432
  327MOL0     O43040   5.430   2.874  10.044 -0.5121 -0.9017  0.2160
  327MOL0     C43041   5.379   2.991   9.971 -0.3508 -1.1663 -0.7422
  327MOL0     C43042   5.278   2.946   9.864 -0.8254 -0.1791  0.1081
  327MOL0     C43043   5.152   2.863   9.914  0.5003 -0.1449  0.6174
  327MOL0     C43044   5.040   2.853   9.811  0.0569  0.1484  0.2479
  327MOL0     C43045   4.938   2.738   9.831 -0.9413  0.1234 -0.4304
  327MOL0     C43046   4.859   2.751   9.960  0.4894 -0.5970  0.0600
  327MOL0     C43047   4.743   2.649   9.961  0.5449 -1.0465 -0.2779
  327MOL0     C43048   4.624   2.697  10.044 -0.5142  0.4932  0.0246
  327MOL0     N43049   4.538   2.575  10.052  0.9563  0.2374  0.5517
  327MOL0     C43050   4.518   2.495  10.161 -0.8743 -0.6230 -0.0920
  327MOL0     C43051   4.409   2.418  10.127  0.0832  0.9003 -0.1148
  327MOL0     C43052   4.363   2.298  10.202  0.3491 -0.0901 -0.9518
  327MOL0     C43053   4.312   2.324  10.343  0.2962 -0.5145 -0.4870
  327MOL0     C43054   4.260   2.201  10.422  0.0877 -0.4112 -0.0696
  327MOL0     C43055   4.138   2.139  10.356  0.7934 -0.0639 -0.4502
  327MOL0     O43056   4.032   2.234  10.358 -0.5427 -0.7495 -0.1390
  327MOL0     C43057   3.907   2.184  10.347  0.0340 -0.0213 -0.3378
  327MOL0     C43058   3.801   2.269  10.387  0.2712 -1.4212 -0.4909
  327MOL0     C43059   3.662   2.228  10.390 -0.3592  0.4558 -0.0437
  327MOL0     C43060   3.631   2.102  10.333  1.0065  0.4306 -0.3452
  327MOL0     C43061   3.488   2.053  10.339 -0.5391  0.0527  0.3429
  327MOL0     O43062   3.393   2.139  10.302  0.8216  0.2543  0.1095
  327MOL0     C43063   3.259   2.102  10.315 -0.4921 -0.2134 -0.6072
  327MOL0     C43064   3.182   2.054  10.202 -0.0490 -0.6705 -0.3749
  327MOL0     C43065   3.046   2.016  10.227 -0.6529  0.0269 -0.5875
  327MOL0     C43066   2.989   2.022  10.351  0.0078 -0.2027  0.4348
  327MOL0     O43067   2.862   1.975  10.366 -0.7893 -0.3189 -0.5168
  327MOL0     C43068   2.846   1.879  10.470  0.8583  0.6473 -0.1883
  327MOL0     C43069   2.787   1.939  10.601 -0.3090 -0.6791  0.4306
  327MOL0     C43070   2.767   1.832  10.703 -0.0969  0.7474  0.3519
  327MOL0     C43071   2.676   1.892  10.818 -0.3112  0.6209  0.9070
  327MOL0     C43072   2.587   1.786  10.889 -0.0239  0.0761  0.4000
  327MOL0     C43073   2.672   1.666  10.949 -0.3163 -0.2837  0.8598
  327MOL0     C43074   2.565   1.566  11.000  0.2868  0.6430 -0.3844
  327MOL0     C43075   2.639   1.450  11.052  0.5472  0.5159 -0.1344
  327MOL0    Cl43076   2.742   1.522  11.188  0.0156  0.2106  0.6794
  327MOL0     C43077   3.063   2.081  10.461 -0.3915 -0.0303  0.0793
  327MOL0     C43078   3.203   2.111  10.441  0.6730  0.5383  0.2154
  327MOL0     O43079   3.465   1.932  10.356 -0.5383 -0.4657 -0.0442
  327MOL0     C43080   3.737   2.020  10.286 -0.0358  0.3270  0.3357
  327MOL0     C43081   3.873   2.060  10.297 -0.1367  0.0694 -0.3896
  327MOL0     N43082   4.377   2.449   9.999  0.0713  0.3903  0.6019
  327MOL0     N43083   4.447   2.545   9.958 -0.2854  0.6117  0.5098
  327MOL0     C43084   5.633   3.007  10.101 -0.0185  0.0938 -0.4792
  327MOL0     C43085   5.761   3.019  10.170  1.0366  0.7624 -0.4176
  327MOL0     C43086   6.144   2.987  10.375  0.2733  0.1040 -0.2041
  327MOL0     C43087   6.201   2.857  10.386 -0.9489 -0.3984  0.2631
  327MOL0     C43088   6.333   2.836  10.424 -0.4168 -0.9130  0.1026
  327MOL0     C43089   6.415   2.950  10.461  0.3309  0.0039  0.1806
  327MOL0     O43090   6.542   2.945  10.504  0.7156 -0.0794 -0.5618
  327MOL0     C43091   6.602   2.815  10.528 -0.7872 -0.2054 -1.1891
  327MOL0     C43092   6.745   2.848  10.598 -0.4918 -0.2083 -0.0034
  327MOL0     C43093   6.719   2.930  10.720  0.5389  0.1708 -0.1429
  327MOL0     C43094   6.771   2.863  10.850  0.2169  0.5885  0.1406
  327MOL0     C43095   6.700   2.910  10.973  0.0624  0.0417  0.2634
  327MOL0     C43096   6.642   2.957  11.066 -0.4633  0.3894 -0.0753
  327MOL0     C43097   6.358   3.076  10.448 -0.4165  0.1905 -0.2724
  327MOL0     C43098   6.227   3.096  10.417 -0.2875  0.0458  1.3728
  327MOL0     H43099   5.745   2.759  10.374  0.0434 -0.5373  0.4723
  327MOL0     H43100   5.529   2.722  10.259 -0.4150  1.7755  1.9411
  327MOL0     H43101   5.450   3.047   9.911 -0.4422 -1.6705 -1.3347
  327MOL0     H43102   5.343   3.060  10.048  2.1423  0.4148 -0.8838
  327MOL0     H43103   5.326   2.888   9.786  0.4852  2.9486 -1.5988
  327MOL0     H43104   5.242   3.040   9.820  0.8429  0.6673  0.4706
  327MOL0     H43105   5.109   2.912  10.002  0.7773  4.1534 -1.4215
  327MOL0     H43106   5.181   2.758   9.923 -0.4299 -0.9417 -3.5108
  327MOL0     H43107   4.980   2.945   9.805 -2.4030 -1.4397 -1.9612
  327MOL0     H43108   5.084   2.843   9.711  0.7354  1.8163  0.3487
  327MOL0     H43109   4.997   2.648   9.845  0.6084  1.2143  0.3823
  327MOL0     H43110   4.873   2.741   9.743 -2.4863  0.1400  0.6529
  327MOL0     H43111   4.809   2.848   9.955  1.4205 -0.1573 -0.9947
  327MOL0     H43112   4.915   2.741  10.054 -0.5445 -0.1207  0.7509
  327MOL0     H43113   4.714   2.634   9.857 -1.3236 -1.5388  0.2803
  327MOL0     H43114   4.785   2.557  10.004  2.3012 -0.4137 -0.5484
  327MOL0     H43115   4.576   2.780   9.991 -0.1100 -0.3545 -1.7450
  327MOL0     H43116   4.657   2.734  10.142 -1.2045  1.4426 -0.0898
  327MOL0     H43117   4.582   2.492  10.248 -0.2460 -1.2166 -0.5705
  327MOL0     H43118   4.445   2.226  10.203  1.1500  0.8058  0.0844
  327MOL0     H43119   4.280   2.247  10.152 -0.4050 -1.5618  1.6272
  327MOL0     H43120   4.228   2.393  10.335  0.0841 -0.6024  0.7367
  327MOL0     H43121   4.390   2.361  10.410  1.0913 -3.1565  0.1557
  327MOL0     H43122   4.339   2.125  10.428 -0.4526 -0.8760  2.0600
  327MOL0     H43123   4.237   2.226  10.525 -0.9024  0.1603 -0.4183
  327MOL0     H43124   4.109   2.052  10.417 -0.4403  0.6880  0.0745
  327MOL0     H43125   4.163   2.096  10.259  1.1568  1.2112 -0.9379
  327MOL0     H43126   3.822   2.369  10.423 -1.6888 -0.6129 -1.4435
  327MOL0     H43127   3.582   2.289  10.432 -1.6426 -0.1299 -1.4912
  327MOL0     H43128   3.225   2.047  10.103  1.2230  1.1076  0.0024
  327MOL0     H43129   2.992   1.981  10.140 -1.0915 -0.9776  0.0805
  327MOL0     H43130   2.940   1.826  10.485  0.6306 -1.1551 -3.8464
  327MOL0     H43131   2.775   1.803  10.437 -1.8919 -0.0329  6.0171
  327MOL0     H43132   2.696   1.993  10.572 -0.6297 -2.0747 -1.3505
  327MOL0     H43133   2.856   2.010  10.646  3.4080 -1.8581 -2.8997
  327MOL0     H43134   2.864   1.806  10.747  0.4107  0.6024 -0.8304
  327MOL0     H43135   2.717   1.743  10.665  0.9579 -0.0153  0.6925
  327MOL0     H43136   2.729   1.957  10.888 -1.4150  0.0213  2.3280
  327MOL0     H43137   2.600   1.959  10.777 -0.0871  0.8462  0.8520
  327MOL0     H43138   2.533   1.742  10.805  2.2495 -0.9787 -0.5858
  327MOL0     H43139   2.521   1.824  10.968 -0.7833 -1.4482  0.5228
  327MOL0     H43140   2.747   1.703  11.019 -1.6498  2.1085  1.1328
  327MOL0     H43141   2.720   1.609  10.868  2.2158  0.2943  1.8555
  327MOL0     H43142   2.503   1.609  11.079  2.0818  2.3701  0.1734
  327MOL0     H43143   2.506   1.547  10.909  1.4019  0.4283 -1.0822
  327MOL0     H43144   2.692   1.386  10.980  0.0760  0.4171 -0.4011
  327MOL0     H43145   2.567   1.381  11.097  1.4826  0.3604  1.1622
  327MOL0     H43146   3.034   2.092  10.565 -0.1272  1.3403  0.0218
  327MOL0     H43147   3.266   2.153  10.518  0.8375  1.7105 -0.5406
  327MOL0     H43148   3.702   1.922  10.257 -0.2420  0.2547  0.8130
  327MOL0     H43149   3.943   1.981  10.275 -0.7728 -0.7109  0.2828
  327MOL0     H43150   5.613   3.085  10.028 -0.2650 -1.3738 -2.0449
  327MOL0     H43151   5.825   3.104  10.147  1.7854 -0.1287 -1.7766
  327MOL0     H43152   6.143   2.766  10.387 -1.3904 -0.1587  2.7664
  327MOL0     H43153   6.370   2.735  10.434  1.1759 -0.2281  1.7241
  327MOL0     H43154   6.610   2.766  10.431  0.0883  0.1469 -1.3094
  327MOL0     H43155   6.534   2.758  10.590 -2.1746 -0.1131 -2.5707
  327MOL0     H43156   6.778   2.745  10.613 -4.3074 -2.2142 -3.2051
  327MOL0     H43157   6.815   2.896  10.529  2.3258 -2.6099  1.0157
  327MOL0     H43158   6.612   2.951  10.731 -0.0942 -1.8342 -1.8392
  327MOL0     H43159   6.781   3.019  10.702  2.7890 -1.5582 -1.5295
  327MOL0     H43160   6.755   2.754  10.848  3.0683 -0.0224  2.6628
  327MOL0     H43161   6.879   2.877  10.860  0.4193  0.5675 -1.7758
  327MOL0     H43162   6.597   3.004  11.151  0.5340 -1.1751  1.3778
  327MOL0     H43163   6.412   3.158  10.494  1.2143 -0.3808 -1.1080
  327MOL0     H43164   6.184   3.196  10.417  1.4374  0.8793 -1.1059
  328MOL0     O43165  10.890   2.716   5.474 -0.6046 -1.0095  0.1958
  328MOL0     C43166  10.987   2.678   5.538  0.8020  0.2849 -0.5177
  328MOL0     O43167  11.000   2.677   5.673  0.0002  0.6590 -0.7746
  328MOL0     C43168  10.911   2.740   5.755 -0.1827  0.3340 -1.0010
  328MOL0     C43169  10.799   2.815   5.727 -0.5766 -0.1426 -0.7519
  328MOL0     C43170  10.726   2.889   5.817  0.1269 -0.7687  0.1085
  328MOL0     C43171  10.752   2.861   5.951  0.3623 -0.6173 -0.2483
  328MOL0     O43172  10.659   2.917   6.041  0.2182 -0.1726  0.6348
  328MOL0     C43173  10.658   2.868   6.178 -0.0198  0.0288  0.3145
  328MOL0     C43174  10.532   2.908   6.258 -0.3585 -0.4603 -0.6132
  328MOL0     C43175  10.412   2.869   6.177  1.4756 -0.3429 -0.5769
  328MOL0     C43176  10.285   2.923   6.245  0.1337 -0.1163 -0.0126
  328MOL0     C43177  10.173   2.827   6.259  0.0235 -0.3756  0.9149
  328MOL0     C43178  10.083   2.859   6.380  0.6310 -0.7154 -0.3879
  328MOL0     C43179   9.951   2.785   6.371 -0.4607 -0.7474 -0.3438
  328MOL0     C43180   9.854   2.792   6.496  0.7299  0.3327  0.1478
  328MOL0     N43181   9.715   2.768   6.471 -0.5832  0.1335  1.0447
  328MOL0     C43182   9.635   2.849   6.395 -0.0341 -0.5970  0.1115
  328MOL0     C43183   9.508   2.816   6.426  0.5533 -0.0801  0.4094
  328MOL0     C43184   9.390   2.896   6.374  0.0030 -0.0950  0.3084
  328MOL0     C43185   9.280   2.937   6.477  1.2253  0.0038  0.4334
  328MOL0     C43186   9.194   2.815   6.506  0.5983  0.0615  0.1864
  328MOL0     C43187   9.087   2.842   6.611 -0.3661  0.9580  0.5261
  328MOL0     O43188   9.038   2.967   6.605  1.0123 -0.1518 -0.2247
  328MOL0     C43189   8.914   2.979   6.548  0.2389  0.0328 -0.9194
  328MOL0     C43190   8.799   2.921   6.601 -0.3145  0.2472  0.2213
  328MOL0     C43191   8.670   2.964   6.552  0.2544 -0.3136  0.3264
  328MOL0     C43192   8.655   3.049   6.439  0.0982 -1.3513 -0.3179
  328MOL0     C43193   8.521   3.077   6.380 -0.3138 -0.5216 -0.2712
  328MOL0     O43194   8.525   3.164   6.266  0.1115  0.3584 -0.3928
  328MOL0     C43195   8.408   3.212   6.228  0.1511 -0.0635  1.1079
  328MOL0     C43196   8.355   3.325   6.288 -0.3290 -0.5220 -0.3625
  328MOL0     C43197   8.225   3.375   6.251  0.5465 -0.2053 -0.2182
  328MOL0     C43198   8.153   3.315   6.151 -0.7446  0.4221  0.4352
  328MOL0     O43199   8.026   3.350   6.120 -0.3683 -0.1809  0.4492
  328MOL0     C43200   7.941   3.236   6.086 -0.6054 -0.4992 -0.0753
  328MOL0     C43201   7.797   3.272   6.091  0.8083  0.3891 -0.7333
  328MOL0     C43202   7.718   3.157   6.032  0.4419  0.2597 -0.1414
  328MOL0     C43203   7.569   3.194   6.014 -0.4007  0.1925 -0.7491
  328MOL0     C43204   7.487   3.087   5.937 -0.6458 -0.4775 -0.5384
  328MOL0     C43205   7.430   2.964   6.009 -0.5682 -1.2562 -0.2743
  328MOL0     C43206   7.544   2.864   6.048 -0.2639  0.3352  0.4245
  328MOL0     C43207   7.484   2.738   6.098 -0.7242  0.0562  0.5326
  328MOL0    Cl43208   7.441   2.625   5.966  0.0523  0.3800 -0.1859
  328MOL0     C43209   8.214   3.210   6.086  0.2152  0.1666  0.0576
  328MOL0     C43210   8.339   3.159   6.116  0.2572  0.0850  0.9079
  328MOL0     O43211   8.422   3.019   6.434  0.3617  0.0585 -0.3885
  328MOL0     C43212   8.775   3.099   6.388 -0.3113 -1.1028 -0.9731
  328MOL0     C43213   8.906   3.066   6.443  0.1267  0.0129  0.6551
  328MOL0     N43214   9.519   2.711   6.525  0.2599  0.3958  0.7567
  328MOL0     N43215   9.643   2.681   6.540  0.3909  0.5643 -0.3562
  328MOL0     C43216  10.858   2.782   5.988  0.2678  0.0958  0.2780
  328MOL0     C43217  10.941   2.725   5.893 -0.0388  1.7829 -0.1697
  328MOL0     C43218  11.102   2.629   5.463  0.0952  0.9955  0.1557
  328MOL0     C43219  11.099   2.624   5.322 -0.3409  0.5501  0.5501
  328MOL0     C43220  11.202   2.558   5.249  0.7560  0.3593 -0.3677
  328MOL0     C43221  11.309   2.512   5.314  0.1307 -1.3299 -0.4518
  328MOL0     O43222  11.429   2.471   5.259 -0.2988  0.2478  0.2114
  328MOL0     C43223  11.453   2.481   5.122  0.2415 -0.5037 -0.3325
  328MOL0     C43224  11.605   2.438   5.097  0.1523  0.1878 -0.0601
  328MOL0     C43225  11.703   2.538   5.142 -0.3037 -0.5438  0.6188
  328MOL0     C43226  11.816   2.546   5.044 -0.7865  0.3774 -0.2054
  328MOL0     C43227  11.906   2.654   5.082  0.5957  0.8122 -0.4750
  328MOL0     C43228  11.973   2.751   5.109  0.3692 -0.5485  0.8229
  328MOL0     C43229  11.322   2.520   5.453  0.3692 -0.5153 -0.1586
  328MOL0     C43230  11.222   2.577   5.524  1.1125 -0.7135 -0.4423
  328MOL0     H43231  10.775   2.839   5.624 -1.2529  1.2711 -0.2909
  328MOL0     H43232  10.647   2.959   5.795  0.1131 -0.7811  0.1184
  328MOL0     H43233  10.746   2.900   6.235 -0.1585 -1.0124  1.1380
  328MOL0     H43234  10.662   2.759   6.170 -3.1637 -0.3708  2.4379
  328MOL0     H43235  10.523   3.016   6.269  0.5701 -0.4532  0.1815
  328MOL0     H43236  10.545   2.862   6.357  0.0021 -0.8991 -0.8630
  328MOL0     H43237  10.417   2.759   6.174 -2.3766 -0.6660  0.0459
  328MOL0     H43238  10.413   2.893   6.070 -0.3162 -1.6844 -0.9472
  328MOL0     H43239  10.320   2.952   6.344  2.0370  3.3871 -1.5303
  328MOL0     H43240  10.251   3.016   6.199  2.5926  0.6055 -0.5255
  328MOL0     H43241  10.211   2.725   6.272  0.7591 -0.2238  0.0611
  328MOL0     H43242  10.123   2.824   6.162  1.5111 -0.5991  0.1332
  328MOL0     H43243  10.073   2.967   6.392  2.6280 -0.4083 -1.1296
  328MOL0     H43244  10.140   2.842   6.471  2.8662  2.9391 -0.8937
  328MOL0     H43245   9.906   2.832   6.284  1.7986  1.6266 -0.3437
  328MOL0     H43246   9.980   2.681   6.351  0.6168 -0.2962 -1.2307
  328MOL0     H43247   9.850   2.896   6.528 -1.0175  0.0971  0.8247
  328MOL0     H43248   9.886   2.720   6.572  0.8570 -1.2535 -1.3466
  328MOL0     H43249   9.671   2.931   6.334  2.0926 -1.3966  0.1982
  328MOL0     H43250   9.337   2.841   6.296 -1.0352 -0.7691  1.4522
  328MOL0     H43251   9.421   2.987   6.323 -0.2782  0.5273  1.2252
  328MOL0     H43252   9.217   3.018   6.440  0.1042  0.6560  3.4510
  328MOL0     H43253   9.321   2.983   6.568 -2.9723 -0.7191  2.9460
  328MOL0     H43254   9.140   2.783   6.417  2.6886  1.7085 -1.8007
  328MOL0     H43255   9.260   2.733   6.537  1.0836  0.2585 -0.2875
  328MOL0     H43256   9.132   2.836   6.711 -0.4896  2.5966  0.7075
  328MOL0     H43257   9.012   2.764   6.599  1.4122 -0.6889 -0.4729
  328MOL0     H43258   8.800   2.850   6.683 -1.6423  1.4152  1.2981
  328MOL0     H43259   8.579   2.926   6.599  1.1839 -1.0570  1.5942
  328MOL0     H43260   8.417   3.376   6.361 -1.4181  1.7318 -0.8905
  328MOL0     H43261   8.193   3.464   6.306  1.2697 -0.6162  0.8867
  328MOL0     H43262   7.965   3.152   6.151  0.3546  0.1459  0.4445
  328MOL0     H43263   7.964   3.212   5.981  2.8373  2.2893 -0.1561
  328MOL0     H43264   7.782   3.367   6.039  4.6977  1.0527 -0.9198
  328MOL0     H43265   7.774   3.293   6.196  3.5392 -0.8729  0.2008
  328MOL0     H43266   7.729   3.081   6.110 -0.5151  0.5065  0.2467
  328MOL0     H43267   7.764   3.121   5.940  1.4757 -0.5998  0.6882
  328MOL0     H43268   7.514   3.191   6.109 -1.8544  1.4651 -1.5001
  328MOL0     H43269   7.564   3.293   5.967 -3.1002 -0.3675 -1.8433
  328MOL0     H43270   7.558   3.056   5.859  0.5964  0.9847 -0.0541
  328MOL0     H43271   7.405   3.148   5.899 -2.2424 -1.1167  1.6946
  328MOL0     H43272   7.373   2.909   5.934  0.7434 -2.6483 -0.2978
  328MOL0     H43273   7.360   2.996   6.087 -0.9097  1.7927 -1.6504
  328MOL0     H43274   7.607   2.853   5.959 -1.0918  0.7171 -0.2391
  328MOL0     H43275   7.616   2.910   6.116 -0.4703  1.3601 -0.0174
  328MOL0     H43276   7.403   2.758   6.169 -0.4312 -0.7663  1.1038
  328MOL0     H43277   7.566   2.686   6.149 -0.9695 -0.9603 -0.0870
  328MOL0     H43278   8.167   3.164   5.999  0.8939  1.5681 -1.1069
  328MOL0     H43279   8.371   3.070   6.064  0.5092 -0.1886  1.5199
  328MOL0     H43280   8.780   3.174   6.310 -1.4623  1.2630  1.1088
  328MOL0     H43281   8.990   3.103   6.385 -1.2938 -0.7312 -2.0803
  328MOL0     H43282  10.871   2.768   6.095 -2.1312  2.2604  0.9541
  328MOL0     H43283  11.027   2.671   5.931 -0.6515  1.3798  0.6836
  328MOL0     H43284  11.006   2.651   5.273  0.2584 -0.4621 -1.2271
  328MOL0     H43285  11.199   2.552   5.140  0.0641 -1.3027 -0.2881
  328MOL0     H43286  11.445   2.580   5.075  0.4484 -0.8479 -1.1117
  328MOL0     H43287  11.393   2.411   5.063  1.6355 -3.0665  1.1561
  328MOL0     H43288  11.624   2.348   5.156  1.8586 -2.0634 -3.6962
  328MOL0     H43289  11.611   2.406   4.992 -3.2333  0.3427 -0.4136
  328MOL0     H43290  11.748   2.508   5.238  5.8805  3.0833 -0.5956
  328MOL0     H43291  11.673   2.640   5.166  0.4731 -0.2266  0.2713
  328MOL0     H43292  11.872   2.453   5.059  4.2952  3.3031  1.7899
  328MOL0     H43293  11.782   2.552   4.940 -0.4615  1.3518 -0.2713
  328MOL0     H43294  12.020   2.843   5.138 -0.0289 -0.3497  0.8472
  328MOL0     H43295  11.417   2.495   5.499 -1.4357 -5.0094  1.6444
  328MOL0     H43296  11.229   2.571   5.632 -0.2982 -1.7059 -0.3862
  329MOL0     O43297   5.413   6.347   4.849 -0.0058 -0.3860 -0.6396
  329MOL0     C43298   5.484   6.247   4.827 -0.0413 -0.1682  0.0919
  329MOL0     O43299   5.457   6.152   4.728 -0.5664 -0.0615  0.3417
  329MOL0     C43300   5.350   6.171   4.638  0.0202 -0.9823 -0.4396
  329MOL0     C43301   5.297   6.302   4.594  0.0949  0.1758  1.6930
  329MOL0     C43302   5.184   6.301   4.509  0.9952  0.9690  0.4873
  329MOL0     C43303   5.125   6.181   4.467  0.1138 -0.1532 -1.2080
  329MOL0     O43304   5.007   6.180   4.395  0.0784  0.1620 -0.2246
  329MOL0     C43305   5.027   6.195   4.261 -0.2940 -1.1168 -0.1795
  329MOL0     C43306   5.048   6.339   4.219  1.5492 -0.5739  0.1021
  329MOL0     C43307   5.048   6.358   4.064 -0.0337 -0.5850 -0.7618
  329MOL0     C43308   5.097   6.497   4.024 -0.0295 -0.2472 -0.6323
  329MOL0     C43309   5.122   6.510   3.874 -0.8225  0.3880  0.3268
  329MOL0     C43310   5.151   6.657   3.833  0.0251  0.1013 -0.6841
  329MOL0     C43311   5.121   6.685   3.688 -1.0650  0.1334  0.4617
  329MOL0     C43312   5.209   6.589   3.596  0.2481 -0.3899 -0.3469
  329MOL0     N43313   5.356   6.600   3.619  0.4272  0.4679  0.1424
  329MOL0     C43314   5.433   6.711   3.639 -0.0368 -1.0748  0.3893
  329MOL0     C43315   5.557   6.658   3.633 -0.4500 -1.3762 -0.1063
  329MOL0     C43316   5.684   6.732   3.638 -0.4165  0.3752  0.2502
  329MOL0     C43317   5.792   6.687   3.538  0.6035  0.1714 -0.4748
  329MOL0     C43318   5.749   6.681   3.388  0.1306 -0.0432 -0.3427
  329MOL0     C43319   5.720   6.808   3.303  0.0875 -0.1788 -0.1155
  329MOL0     O43320   5.689   6.757   3.174 -0.2190 -0.1001  0.0329
  329MOL0     C43321   5.558   6.722   3.143 -0.2623  0.6717 -0.3703
  329MOL0     C43322   5.447   6.711   3.227  0.7191 -0.2430 -0.9471
  329MOL0     C43323   5.313   6.685   3.183  0.2402 -0.2919 -0.9004
  329MOL0     C43324   5.295   6.645   3.049 -1.0484 -0.2803  0.0706
  329MOL0     C43325   5.165   6.601   2.991  0.2896  0.0406  0.0431
  329MOL0     O43326   5.163   6.568   2.860 -0.0755 -0.3203 -0.3384
  329MOL0     C43327   5.049   6.512   2.813  0.1823  0.0064  0.5400
  329MOL0     C43328   4.941   6.585   2.748 -0.9155 -0.1824  0.4389
  329MOL0     C43329   4.832   6.516   2.689  0.7343 -0.1454 -0.4572
  329MOL0     C43330   4.824   6.380   2.673 -0.1338  0.2824 -1.0410
  329MOL0     O43331   4.729   6.314   2.604 -0.0704  0.0007  0.2657
  329MOL0     C43332   4.762   6.180   2.564  0.0800 -0.8107  0.4096
  329MOL0     C43333   4.657   6.104   2.485  0.2671  0.5954 -0.2455
  329MOL0     C43334   4.612   6.173   2.359 -0.2461  0.6359 -0.8316
  329MOL0     C43335   4.476   6.130   2.303  0.1464 -0.5814  0.7987
  329MOL0     C43336   4.441   6.221   2.182  0.4850 -0.6204 -1.1814
  329MOL0     C43337   4.297   6.216   2.149  0.2852 -0.3661  0.4522
  329MOL0     C43338   4.257   6.080   2.070 -0.0739 -0.1240  0.0283
  329MOL0     C43339   4.342   6.057   1.945  0.4788 -0.6322 -0.6362
  329MOL0    Cl43340   4.264   6.127   1.800  0.3667 -0.0799  0.0058
  329MOL0     C43341   4.929   6.312   2.736  0.2526  0.4601  1.2208
  329MOL0     C43342   5.041   6.373   2.802 -0.0165  0.4492 -0.9204
  329MOL0     O43343   5.066   6.589   3.068 -0.1790 -1.0363  0.3432
  329MOL0     C43344   5.416   6.635   2.971  0.7243  0.0504  0.2937
  329MOL0     C43345   5.539   6.680   3.010 -0.7822  0.7242 -0.3686
  329MOL0     N43346   5.549   6.524   3.624 -0.1127 -0.5377 -0.3341
  329MOL0     N43347   5.430   6.489   3.616 -0.2367  0.5613  0.2731
  329MOL0     C43348   5.180   6.058   4.508 -0.0951 -0.4407  0.1905
  329MOL0     C43349   5.288   6.054   4.591  0.5242 -0.2348  0.1793
  329MOL0     C43350   5.604   6.236   4.909 -0.1264 -0.2402 -0.0655
  329MOL0     C43351   5.655   6.343   4.985  0.2565 -0.3368  0.7593
  329MOL0     C43352   5.792   6.343   5.024 -0.3029  0.5021 -0.1420
  329MOL0     C43353   5.877   6.240   4.996  0.1812  0.2054 -0.1467
  329MOL0     O43354   6.011   6.257   5.028 -0.0938 -0.5913 -0.2793
  329MOL0     C43355   6.096   6.145   5.005  0.8075 -0.6397  0.6869
  329MOL0     C43356   6.246   6.180   5.025  0.0813  0.7724 -0.6192
  329MOL0     C43357   6.280   6.245   5.152  0.1867  0.2596 -0.5405
  329MOL0     C43358   6.426   6.270   5.160  0.8409  0.3140 -0.6993
  329MOL0     C43359   6.475   6.301   5.295 -0.7384  0.2765  0.4396
  329MOL0     C43360   6.506   6.326   5.410  0.3669 -0.1793 -0.7179
  329MOL0     C43361   5.814   6.122   4.954 -0.6066  0.4694 -0.6786
  329MOL0     C43362   5.689   6.124   4.903  0.9935  0.4225 -0.3254
  329MOL0     H43363   5.353   6.392   4.614  1.3935  0.1188 -1.1784
  329MOL0     H43364   5.130   6.392   4.486  2.1766  1.2520 -1.3695
  329MOL0     H43365   4.940   6.147   4.214 -1.4817  0.2987  0.5140
  329MOL0     H43366   5.120   6.143   4.234  0.9073 -0.1760  1.9167
  329MOL0     H43367   5.136   6.388   4.261  0.3215  1.0341  0.8893
  329MOL0     H43368   4.956   6.394   4.240  1.7063  0.0011 -0.6462
  329MOL0     H43369   4.949   6.328   4.029  0.9810 -4.2611 -0.9925
  329MOL0     H43370   5.116   6.282   4.024  0.8624 -0.9600  1.3464
  329MOL0     H43371   5.032   6.580   4.050  2.2565  2.1653 -2.0790
  329MOL0     H43372   5.188   6.526   4.078 -1.2868 -0.8207  1.9379
  329MOL0     H43373   5.047   6.454   3.817 -1.4931  0.4119  1.1756
  329MOL0     H43374   5.223   6.469   3.863 -0.9482  0.2479 -0.3354
  329MOL0     H43375   5.250   6.690   3.867  0.5426 -0.0619 -1.9653
  329MOL0     H43376   5.084   6.722   3.890 -1.9897 -1.5350 -1.1004
  329MOL0     H43377   5.018   6.661   3.661 -1.5203  2.5294 -0.1273
  329MOL0     H43378   5.149   6.790   3.675  0.9231  0.2398  4.3206
  329MOL0     H43379   5.177   6.610   3.493 -2.4016  0.1964  0.5021
  329MOL0     H43380   5.181   6.484   3.606 -0.2569 -0.2765 -0.5134
  329MOL0     H43381   5.409   6.817   3.642 -0.7908 -1.2336  0.1920
  329MOL0     H43382   5.724   6.705   3.736  1.5610  1.1082 -0.3062
  329MOL0     H43383   5.681   6.841   3.649  5.8846  1.0727 -0.9359
  329MOL0     H43384   5.815   6.587   3.577  1.0118  1.5225  3.0561
  329MOL0     H43385   5.877   6.754   3.547 -0.8581  1.8933  1.5377
  329MOL0     H43386   5.823   6.627   3.328 -1.6557 -0.7454 -1.9908
  329MOL0     H43387   5.657   6.622   3.382  0.2430 -0.1339 -1.2315
  329MOL0     H43388   5.817   6.858   3.299 -0.2312  0.4600  0.0646
  329MOL0     H43389   5.639   6.866   3.349 -0.8821  0.4764 -2.5195
  329MOL0     H43390   5.452   6.731   3.333 -4.1287  2.5268 -0.9335
  329MOL0     H43391   5.229   6.702   3.249 -1.3029 -2.6677 -2.0849
  329MOL0     H43392   4.944   6.694   2.746 -3.5807 -0.0116  1.7341
  329MOL0     H43393   4.758   6.575   2.637  0.2669  0.1235  0.4888
  329MOL0     H43394   4.783   6.109   2.645  0.5458 -3.4852 -1.8858
  329MOL0     H43395   4.845   6.185   2.493  0.3487 -1.0295  0.7015
  329MOL0     H43396   4.573   6.096   2.554  0.2432  0.0902 -0.3332
  329MOL0     H43397   4.693   6.002   2.469 -1.0915 -0.4920  2.9091
  329MOL0     H43398   4.692   6.166   2.285  1.2819  0.5932  0.7513
  329MOL0     H43399   4.603   6.273   2.401 -0.7586 -0.5294  2.0405
  329MOL0     H43400   4.468   6.024   2.279 -1.5606 -0.1839 -0.5980
  329MOL0     H43401   4.408   6.146   2.388  0.1208  0.8182  0.5529
  329MOL0     H43402   4.509   6.191   2.102  2.3088 -0.8031  0.3405
  329MOL0     H43403   4.459   6.325   2.212 -2.3399 -0.4892  0.3967
  329MOL0     H43404   4.263   6.298   2.085 -2.2653 -1.5417  0.1502
  329MOL0     H43405   4.240   6.226   2.242  0.1630 -1.7865  0.5564
  329MOL0     H43406   4.266   5.989   2.131  1.3268  1.3006  2.0546
  329MOL0     H43407   4.154   6.080   2.031  0.1851 -0.4642 -0.6718
  329MOL0     H43408   4.343   5.949   1.930 -4.7235 -1.7180  3.8509
  329MOL0     H43409   4.446   6.091   1.951 -0.0496  0.9459  0.1523
  329MOL0     H43410   4.935   6.204   2.741  1.3089  0.2194 -2.2515
  329MOL0     H43411   5.126   6.320   2.843 -1.5603 -0.2845  1.5579
  329MOL0     H43412   5.398   6.589   2.874 -2.5308 -0.0309  0.8125
  329MOL0     H43413   5.617   6.671   2.934  0.9595  1.6928  1.2026
  329MOL0     H43414   5.139   5.964   4.472  0.7485 -0.0003 -2.1463
  329MOL0     H43415   5.324   5.958   4.626  0.5307  0.2930  1.6899
  329MOL0     H43416   5.589   6.423   5.018  0.9487 -0.1792  1.8460
  329MOL0     H43417   5.842   6.431   5.062 -1.7823  2.0695 -1.5907
  329MOL0     H43418   6.079   6.105   4.905 -0.8897 -0.2615  0.8043
  329MOL0     H43419   6.055   6.072   5.075  0.6742 -0.6020  0.6481
  329MOL0     H43420   6.294   6.082   5.012  0.5958  0.8694  0.4148
  329MOL0     H43421   6.283   6.240   4.941 -0.3549  1.4327 -0.3471
  329MOL0     H43422   6.251   6.189   5.241  1.8660 -0.0707 -0.1706
  329MOL0     H43423   6.229   6.342   5.153  1.6707  1.1268  2.5499
  329MOL0     H43424   6.476   6.177   5.135  0.7390 -0.1096  0.5788
  329MOL0     H43425   6.455   6.351   5.092 -1.3916  1.0403 -0.8866
  329MOL0     H43426   6.531   6.348   5.512 -1.5673 -1.2353  0.0331
  329MOL0     H43427   5.875   6.033   4.952 -1.6030 -0.2375 -0.8507
  329MOL0     H43428   5.655   6.039   4.844  1.5013  0.1459 -0.2307
  330MOL0     O43429   1.957   4.156  10.787 -0.5370 -0.0368 -0.3654
  330MOL0     C43430   1.978   4.272  10.819 -0.5569  0.2089 -0.2360
  330MOL0     O43431   1.895   4.382  10.804 -0.7439  0.6900  0.0771
  330MOL0     C43432   1.768   4.357  10.760  0.2309  1.2260  0.1798
  330MOL0     C43433   1.659   4.400  10.830  0.1231  0.7967 -0.1355
  330MOL0     C43434   1.523   4.363  10.796 -0.2225  0.1112 -0.3028
  330MOL0     C43435   1.499   4.303  10.676  0.9738 -0.0960 -0.3277
  330MOL0     O43436   1.375   4.271  10.624  0.8643 -0.6465  0.4870
  330MOL0     C43437   1.271   4.231  10.720  0.3806  0.5006 -0.1214
  330MOL0     C43438   1.178   4.347  10.755  0.9970 -0.1095 -0.5833
  330MOL0     C43439   1.104   4.411  10.634 -0.4436 -0.5722 -0.5522
  330MOL0     C43440   0.988   4.504  10.680  0.5145  0.1429 -0.3704
  330MOL0     C43441   0.904   4.550  10.562  0.0286  0.0853  0.1678
  330MOL0     C43442   0.777   4.627  10.604 -0.2168 -0.2016 -0.4578
  330MOL0     C43443   0.661   4.545  10.664  0.1078 -0.3044 -0.0655
  330MOL0     C43444   0.558   4.632  10.730 -0.7316  0.1390 -0.5358
  330MOL0     N43445   0.510   4.754  10.653 -0.0147  0.3370  0.2831
  330MOL0     C43446   0.390   4.751  10.586  0.3555 -1.1655  0.4273
  330MOL0     C43447   0.365   4.884  10.553 -0.3441 -0.1823  0.1533
  330MOL0     C43448   0.248   4.951  10.493  0.5409 -0.0855 -0.8190
  330MOL0     C43449   0.163   5.021  10.596  0.5833  0.4144 -0.2376
  330MOL0     C43450   0.082   4.922  10.683  0.3103 -0.0392  1.5305
  330MOL0     C43451  -0.004   5.001  10.786 -0.0371  0.1604  0.4607
  330MOL0     O43452  -0.138   4.963  10.794  0.8788  0.0286  0.0092
  330MOL0     C43453  -0.228   5.044  10.733 -0.2472  0.6271 -0.0025
  330MOL0     C43454  -0.332   5.103  10.808  0.2348 -0.6809 -0.0399
  330MOL0     C43455  -0.423   5.194  10.746 -0.2813 -0.6374  0.5256
  330MOL0     C43456  -0.414   5.220  10.613 -0.2755 -0.5062  0.0880
  330MOL0     C43457  -0.500   5.310  10.538 -0.2151 -0.2089 -0.5346
  330MOL0     O43458  -0.528   5.275  10.408 -0.0425  0.1622  0.9924
  330MOL0     C43459  -0.627   5.335  10.340 -0.3348 -0.3466  0.6695
  330MOL0     C43460  -0.598   5.343  10.207  0.8458 -0.0345  0.0423
  330MOL0     C43461  -0.693   5.396  10.117  1.0190  0.2452 -0.2369
  330MOL0     C43462  -0.811   5.461  10.159  0.3261 -0.2125 -0.9539
  330MOL0     O43463  -0.891   5.521  10.060  0.4650  0.5487  0.4477
  330MOL0     C43464  -0.994   5.612  10.101  0.1003 -0.5423 -0.9511
  330MOL0     C43465  -1.118   5.581  10.020  1.0662 -0.3042  0.3071
  330MOL0     C43466  -1.246   5.657  10.071  0.4928  0.0329  0.5307
  330MOL0     C43467  -1.375   5.625   9.989 -0.3014  0.3083 -0.6496
  330MOL0     C43468  -1.503   5.645  10.073  1.2129  0.7392 -0.1706
  330MOL0     C43469  -1.627   5.604   9.997  0.6650  0.6518 -0.2592
  330MOL0     C43470  -1.747   5.625  10.101  1.1499  0.2061  0.3629
  330MOL0     C43471  -1.886   5.600  10.044  0.0780 -0.4771 -0.7982
  330MOL0    Cl43472  -1.919   5.448   9.975 -0.3180  0.2963 -0.6002
  330MOL0     C43473  -0.840   5.457  10.300 -0.2456  0.6614 -0.5826
  330MOL0     C43474  -0.742   5.402  10.385 -0.1944  0.3337 -0.0222
  330MOL0     O43475  -0.535   5.417  10.591  0.1152 -0.7382  0.0310
  330MOL0     C43476  -0.314   5.158  10.542 -0.4065  0.0431  0.5127
  330MOL0     C43477  -0.233   5.064  10.598  0.1480  0.3719  0.0171
  330MOL0     N43478   0.482   4.951  10.586  0.2904 -0.6368  0.2577
  330MOL0     N43479   0.563   4.874  10.647  0.1026  0.3483 -0.7970
  330MOL0     C43480   1.609   4.272  10.595 -0.7773 -0.9150  0.0606
  330MOL0     C43481   1.740   4.293  10.635 -0.3637 -0.5852  0.0561
  330MOL0     C43482   2.104   4.290  10.898 -0.8013  0.7438  0.7580
  330MOL0     C43483   2.106   4.398  10.984  0.0089  0.4292  0.4136
  330MOL0     C43484   2.215   4.413  11.070  0.6663 -0.1549  0.6663
  330MOL0     C43485   2.319   4.323  11.077  0.5281  0.3103 -0.8264
  330MOL0     O43486   2.422   4.345  11.165 -0.2280  0.1282 -0.3369
  330MOL0     C43487   2.529   4.254  11.174  0.8141 -0.9122  0.1286
  330MOL0     C43488   2.630   4.291  11.268 -0.4845 -0.1006  0.0811
  330MOL0     C43489   2.762   4.219  11.256 -0.4285 -0.3458 -0.6273
  330MOL0     C43490   2.818   4.204  11.116 -0.2943 -0.0948  0.2148
  330MOL0     C43491   2.959   4.154  11.124 -0.2582 -0.2601  0.0447
  330MOL0     C43492   3.062   4.097  11.146  0.1873 -0.2134  0.4647
  330MOL0     C43493   2.317   4.213  10.995 -0.7996  0.3044  0.3937
  330MOL0     C43494   2.210   4.197  10.905 -0.8699 -0.9221  1.1256
  330MOL0     H43495   1.688   4.449  10.922 -0.0146 -2.4840  1.8274
  330MOL0     H43496   1.445   4.402  10.861  1.3819  0.7230  1.3410
  330MOL0     H43497   1.318   4.189  10.810 -1.7130 -0.2759  0.6734
  330MOL0     H43498   1.217   4.147  10.674  1.8630 -0.4171 -0.2634
  330MOL0     H43499   1.240   4.420  10.809  2.5883 -2.2153  0.5622
  330MOL0     H43500   1.108   4.300  10.824  0.4408  0.6331 -0.6199
  330MOL0     H43501   1.064   4.329  10.574  0.9685 -3.3032  2.0212
  330MOL0     H43502   1.173   4.471  10.573  0.0684  2.2087  2.4845
  330MOL0     H43503   0.929   4.439  10.745 -0.2266 -0.9492 -2.0621
  330MOL0     H43504   1.025   4.591  10.736 -1.7195  0.5817  0.5042
  330MOL0     H43505   0.868   4.466  10.503 -3.1667  1.8068 -0.5696
  330MOL0     H43506   0.970   4.608  10.496 -3.5207  1.4239 -2.5548
  330MOL0     H43507   0.743   4.694  10.525 -3.6661 -1.2624 -0.0371
  330MOL0     H43508   0.811   4.695  10.683  1.4313 -1.7594  0.2508
  330MOL0     H43509   0.615   4.516  10.569 -3.2135 -2.1591  1.9252
  330MOL0     H43510   0.709   4.464  10.721  1.0699 -0.2317 -0.7477
  330MOL0     H43511   0.596   4.666  10.827  0.6333  3.1506 -2.0015
  330MOL0     H43512   0.466   4.573  10.735 -0.1852 -0.6706  0.3774
  330MOL0     H43513   0.318   4.676  10.556 -1.0197 -0.3827  1.6649
  330MOL0     H43514   0.191   4.880  10.432 -0.6977  2.6898 -3.1447
  330MOL0     H43515   0.289   5.021  10.420 -0.5300 -0.6328 -1.9851
  330MOL0     H43516   0.091   5.087  10.546 -0.7578  1.1124  2.4443
  330MOL0     H43517   0.229   5.075  10.663 -0.5529 -0.7345  1.9000
  330MOL0     H43518   0.027   4.856  10.616  0.9748 -0.1101  1.0468
  330MOL0     H43519   0.151   4.860  10.741  0.4114 -0.3759  1.0529
  330MOL0     H43520  -0.003   5.108  10.763 -1.2776 -0.2077 -1.5772
  330MOL0     H43521   0.049   4.981  10.880  2.0724 -2.3763 -1.1242
  330MOL0     H43522  -0.336   5.088  10.916 -0.8950  1.7697  0.3202
  330MOL0     H43523  -0.503   5.250  10.794  0.6575 -1.1572  2.8848
  330MOL0     H43524  -0.514   5.291  10.162  0.3309  0.0321 -1.0052
  330MOL0     H43525  -0.688   5.389  10.009 -1.7668 -2.3925 -0.3419
  330MOL0     H43526  -0.965   5.714  10.075  2.1074 -0.4254  1.3779
  330MOL0     H43527  -1.016   5.606  10.208  1.7896  0.0009 -0.5416
  330MOL0     H43528  -1.141   5.474  10.025 -0.3317  0.0248  1.6595
  330MOL0     H43529  -1.103   5.599   9.913  0.2783 -1.2019  0.0316
  330MOL0     H43530  -1.243   5.765  10.057  1.0922 -0.3267 -2.9513
  330MOL0     H43531  -1.264   5.626  10.175 -1.2794  0.3381  0.3522
  330MOL0     H43532  -1.371   5.690   9.901  1.6990 -0.3258 -1.0650
  330MOL0     H43533  -1.365   5.522   9.955  2.7212  0.3350 -0.1020
  330MOL0     H43534  -1.520   5.745  10.112  0.8647 -0.0258  1.7641
  330MOL0     H43535  -1.494   5.578  10.159  2.2634 -0.2620 -1.0150
  330MOL0     H43536  -1.615   5.501   9.963 -1.5224  0.1598  0.2764
  330MOL0     H43537  -1.638   5.674   9.913  3.0974  0.6246 -0.6745
  330MOL0     H43538  -1.744   5.547  10.178 -1.7439 -2.4359 -1.8901
  330MOL0     H43539  -1.746   5.726  10.141  1.9728  0.2917  0.1324
  330MOL0     H43540  -1.904   5.673   9.965  1.3109  0.2178 -0.4553
  330MOL0     H43541  -1.958   5.613  10.127  1.9989  2.1514  0.6243
  330MOL0     H43542  -0.924   5.504  10.351 -0.2409  3.3563 -2.8754
  330MOL0     H43543  -0.766   5.400  10.490 -1.0190  0.6104 -0.1972
  330MOL0     H43544  -0.300   5.175  10.436 -1.7045 -1.1180  0.1244
  330MOL0     H43545  -0.166   5.005  10.536  0.3147 -1.7877  2.0804
  330MOL0     H43546   1.591   4.233  10.495 -1.5420  1.3467 -0.7442
  330MOL0     H43547   1.813   4.242  10.573  0.2045 -1.0731  1.1044
  330MOL0     H43548   2.023   4.466  10.973 -0.6288 -0.5740 -1.6109
  330MOL0     H43549   2.207   4.506  11.127  0.3875 -0.5071  1.2145
  330MOL0     H43550   2.575   4.259  11.075 -1.5172  1.6716 -0.9310
  330MOL0     H43551   2.492   4.152  11.193  1.3354 -0.7057  2.6429
  330MOL0     H43552   2.642   4.399  11.256 -1.2496 -0.1561 -1.4178
  330MOL0     H43553   2.603   4.258  11.369  0.1059 -1.1148 -0.0753
  330MOL0     H43554   2.750   4.122  11.304 -1.2471 -0.7609 -1.6283
  330MOL0     H43555   2.831   4.283  11.312 -2.5634  2.8316 -1.3561
  330MOL0     H43556   2.760   4.133  11.056  5.4290 -3.4819 -2.0746
  330MOL0     H43557   2.817   4.302  11.066 -0.1956 -1.3149 -2.3707
  330MOL0     H43558   3.154   4.047  11.167  0.6789 -0.4871 -2.1222
  330MOL0     H43559   2.384   4.130  11.015 -0.3113  0.0973 -1.8402
  330MOL0     H43560   2.210   4.104  10.848 -0.7577 -1.2635  1.6703
  331MOL0     O43561   9.747   6.853   3.742 -0.2865  0.1619  0.3590
  331MOL0     C43562   9.714   6.752   3.681  0.0034  0.7550 -1.0452
  331MOL0     O43563   9.595   6.739   3.601 -0.1919 -0.2160 -0.3347
  331MOL0     C43564   9.516   6.848   3.553 -0.0971 -0.0719 -0.4694
  331MOL0     C43565   9.395   6.810   3.487 -0.4637 -0.5352  0.5099
  331MOL0     C43566   9.312   6.909   3.436 -1.1827 -1.1753  0.5025
  331MOL0     C43567   9.340   7.052   3.456 -0.5841 -0.3202 -0.4456
  331MOL0     O43568   9.249   7.150   3.416  0.7427 -0.1505  0.3808
  331MOL0     C43569   9.294   7.283   3.378 -0.9361  0.1643 -0.3498
  331MOL0     C43570   9.207   7.348   3.269  0.1363  0.2132  0.8032
  331MOL0     C43571   9.064   7.377   3.314 -0.2512  0.7073  0.3248
  331MOL0     C43572   8.965   7.405   3.196 -0.6548 -0.4663  0.2255
  331MOL0     C43573   8.823   7.358   3.250 -0.6711  0.2631  0.3733
  331MOL0     C43574   8.719   7.456   3.193  0.2994  0.2476  0.1183
  331MOL0     C43575   8.586   7.443   3.260 -0.0791  0.3238  0.0964
  331MOL0     C43576   8.483   7.542   3.202 -0.2496  0.1820 -0.3457
  331MOL0     N43577   8.453   7.524   3.062 -0.4196 -0.7824 -0.7944
  331MOL0     C43578   8.340   7.463   3.017  0.0907 -0.5372 -0.8072
  331MOL0     C43579   8.352   7.456   2.884 -0.6066 -0.3666 -0.7215
  331MOL0     C43580   8.253   7.396   2.795 -0.1703 -0.4123  0.4480
  331MOL0     C43581   8.103   7.443   2.805  0.0302  0.1482  0.4557
  331MOL0     C43582   8.078   7.586   2.757 -0.6797  0.2904 -0.9986
  331MOL0     C43583   7.926   7.614   2.732  0.7413 -0.5411 -0.3877
  331MOL0     O43584   7.901   7.736   2.669 -0.1210 -0.2949  0.7085
  331MOL0     C43585   7.777   7.754   2.607  0.8412  0.5637 -0.2074
  331MOL0     C43586   7.654   7.692   2.651 -0.4496 -0.0413  0.7663
  331MOL0     C43587   7.527   7.737   2.605  0.1952 -0.4439  0.7996
  331MOL0     C43588   7.518   7.861   2.538  0.3825 -0.0238 -1.2650
  331MOL0     C43589   7.391   7.908   2.491  0.1453  0.0975  0.5901
  331MOL0     O43590   7.285   7.809   2.494 -0.4876 -0.1832 -1.1321
  331MOL0     C43591   7.165   7.853   2.454  0.7361 -0.8096 -0.2587
  331MOL0     C43592   7.094   7.940   2.535 -0.4212 -0.3346 -0.4562
  331MOL0     C43593   6.966   7.987   2.498 -0.0372  0.2900 -0.5722
  331MOL0     C43594   6.908   7.952   2.376  0.4705 -0.2731  0.4006
  331MOL0     O43595   6.772   7.992   2.356 -0.5447  0.5014  0.6850
  331MOL0     C43596   6.697   7.912   2.265  0.4119  0.1948  0.4712
  331MOL0     C43597   6.549   7.924   2.306 -0.8226 -0.3091 -0.8001
  331MOL0     C43598   6.462   7.913   2.188  0.2869  0.0690 -0.2473
  331MOL0     C43599   6.318   7.967   2.209  0.2527 -0.3307  0.2877
  331MOL0     C43600   6.241   7.914   2.330 -1.6039  0.1580 -0.7401
  331MOL0     C43601   6.117   8.004   2.343  0.3249 -0.0341  0.8588
  331MOL0     C43602   6.051   7.971   2.476  0.0617  0.9157 -0.6291
  331MOL0     C43603   5.899   7.959   2.479  0.7124 -0.2738  0.2195
  331MOL0    Cl43604   5.828   8.094   2.386 -0.0358 -0.3401 -0.1371
  331MOL0     C43605   6.989   7.875   2.281  0.6124 -0.2365 -0.8494
  331MOL0     C43606   7.112   7.828   2.328 -0.0495 -0.0535 -0.6247
  331MOL0     O43607   7.380   8.030   2.461  0.2408 -1.0729  0.1864
  331MOL0     C43608   7.642   7.909   2.479  0.5678 -0.2256  0.2553
  331MOL0     C43609   7.765   7.864   2.523  0.2914  0.8145  0.2503
  331MOL0     N43610   8.463   7.535   2.848  0.2539  0.2133  0.1409
  331MOL0     N43611   8.526   7.571   2.956  0.8885 -0.4522 -0.1899
  331MOL0     C43612   9.451   7.084   3.538 -0.1397 -0.0240  0.4933
  331MOL0     C43613   9.540   6.989   3.579 -0.2758  0.6227  0.4241
  331MOL0     C43614   9.811   6.638   3.688  0.2397 -0.8757  0.0409
  331MOL0     C43615   9.786   6.515   3.626 -0.1201 -0.6875 -0.0415
  331MOL0     C43616   9.867   6.406   3.654  0.7079 -1.0016 -0.0566
  331MOL0     C43617   9.986   6.416   3.730 -0.5267 -0.0921 -0.4534
  331MOL0     O43618  10.077   6.317   3.754 -0.0869  0.1815 -0.2891
  331MOL0     C43619  10.022   6.182   3.734 -0.3200 -0.2294 -0.6861
  331MOL0     C43620  10.105   6.067   3.804  0.2470  0.8207 -0.1186
  331MOL0     C43621  10.262   6.100   3.812 -0.1977 -0.1568  0.5215
  331MOL0     C43622  10.335   5.966   3.828  0.1691 -0.4767  0.6558
  331MOL0     C43623  10.361   5.906   3.700  0.2738 -0.6145 -0.0703
  331MOL0     C43624  10.383   5.857   3.590  0.2571  0.6785  0.1615
  331MOL0     C43625  10.032   6.544   3.773  1.0804 -0.1299  0.5735
  331MOL0     C43626   9.938   6.650   3.754 -0.0795 -0.4141 -0.4557
  331MOL0     H43627   9.367   6.708   3.464 -2.1437 -0.2210  0.9790
  331MOL0     H43628   9.220   6.883   3.384  0.7464 -4.3089 -1.7044
  331MOL0     H43629   9.392   7.278   3.330 -0.7409 -1.7576  0.1703
  331MOL0     H43630   9.315   7.348   3.464  2.3092 -1.6310  0.3840
  331MOL0     H43631   9.199   7.279   3.184 -0.6556  0.5382  0.6050
  331MOL0     H43632   9.258   7.438   3.234 -2.0107  2.0329  2.0541
  331MOL0     H43633   9.070   7.462   3.381  2.8160 -0.7197  2.0816
  331MOL0     H43634   9.028   7.283   3.357 -0.0069 -0.5405 -2.0137
  331MOL0     H43635   8.981   7.509   3.167  2.4970 -0.4325  1.6771
  331MOL0     H43636   8.994   7.346   3.108  1.9432  2.5528 -1.1326
  331MOL0     H43637   8.815   7.355   3.359  1.7733 -1.8584  0.5886
  331MOL0     H43638   8.792   7.258   3.218  4.0519 -0.9261 -1.3934
  331MOL0     H43639   8.708   7.447   3.084  2.2642  1.5890 -0.2586
  331MOL0     H43640   8.765   7.555   3.198 -1.3778  1.0933 -0.4272
  331MOL0     H43641   8.544   7.344   3.243  2.1163 -1.1111  2.4315
  331MOL0     H43642   8.599   7.463   3.366  0.3218  2.1713 -0.2605
  331MOL0     H43643   8.534   7.639   3.202  3.3422 -1.5180 -0.0777
  331MOL0     H43644   8.398   7.548   3.271 -0.0863 -2.3009  0.1512
  331MOL0     H43645   8.262   7.424   3.082  0.3333 -1.4330 -1.0331
  331MOL0     H43646   8.258   7.292   2.829  1.1575 -0.0454  1.4737
  331MOL0     H43647   8.280   7.414   2.691  2.1638 -1.2780  0.8557
  331MOL0     H43648   8.062   7.423   2.904 -2.2300 -2.2428 -0.8239
  331MOL0     H43649   8.039   7.382   2.740 -0.6547 -0.8324  1.9813
  331MOL0     H43650   8.125   7.657   2.826  0.8857 -2.5297  1.1026
  331MOL0     H43651   8.126   7.599   2.660 -4.2186  0.2660 -2.8946
  331MOL0     H43652   7.871   7.607   2.826 -0.4954 -2.2005 -1.1756
  331MOL0     H43653   7.881   7.529   2.679 -0.6466 -2.3470  3.2839
  331MOL0     H43654   7.648   7.608   2.719 -0.6707 -0.2584  0.4804
  331MOL0     H43655   7.437   7.680   2.624 -0.6671  0.3883 -0.6289
  331MOL0     H43656   7.130   7.963   2.634 -1.0676 -1.2224 -0.0085
  331MOL0     H43657   6.915   8.041   2.578 -0.5152 -0.5081 -0.3175
  331MOL0     H43658   6.720   7.806   2.263  0.7333  0.2201 -3.4269
  331MOL0     H43659   6.716   7.950   2.164 -2.8470  0.0024 -0.3260
  331MOL0     H43660   6.536   8.022   2.354  1.0161 -0.4943  0.1874
  331MOL0     H43661   6.524   7.859   2.391  1.9173 -1.4822 -0.7833
  331MOL0     H43662   6.450   7.805   2.172  1.6174 -0.2164  0.5096
  331MOL0     H43663   6.514   7.955   2.102  2.6135 -2.0819 -0.0202
  331MOL0     H43664   6.329   8.075   2.221  0.1585 -0.0161 -2.0861
  331MOL0     H43665   6.247   7.960   2.126 -2.2303 -1.6030  2.3578
  331MOL0     H43666   6.304   7.910   2.419  1.1247 -0.3066 -2.5767
  331MOL0     H43667   6.213   7.810   2.310  1.3387 -2.1694  4.8413
  331MOL0     H43668   6.038   7.985   2.270  0.7814 -0.3775  0.4437
  331MOL0     H43669   6.149   8.109   2.339  0.0923  0.0566  1.3129
  331MOL0     H43670   6.079   7.870   2.509 -0.6214  0.2914 -1.9029
  331MOL0     H43671   6.082   8.041   2.555 -2.6132 -0.2276  1.5852
  331MOL0     H43672   5.862   7.967   2.582 -0.2170 -1.5161  0.0020
  331MOL0     H43673   5.876   7.863   2.431  1.5144 -1.3426  1.8759
  331MOL0     H43674   6.938   7.843   2.191 -2.8940 -0.0207  0.8570
  331MOL0     H43675   7.173   7.766   2.264  1.9230  1.2436 -0.1103
  331MOL0     H43676   7.631   7.987   2.404 -4.7808  0.5566  1.4072
  331MOL0     H43677   7.851   7.897   2.465 -0.7878  1.9540 -0.7841
  331MOL0     H43678   9.470   7.189   3.557 -3.6615  1.2947 -2.1947
  331MOL0     H43679   9.622   7.016   3.645  0.2297  0.1634 -0.0142
  331MOL0     H43680   9.696   6.498   3.568  1.3396 -1.9791 -2.0797
  331MOL0     H43681   9.838   6.317   3.600  0.2067  0.6714 -2.7541
  331MOL0     H43682  10.038   6.159   3.628 -0.6237  1.5439 -1.1418
  331MOL0     H43683   9.923   6.161   3.775  0.3174 -2.7990 -0.2985
  331MOL0     H43684  10.082   6.039   3.908 -0.2230 -2.0625 -0.8962
  331MOL0     H43685  10.069   5.975   3.757 -1.4837  3.2283 -3.9193
  331MOL0     H43686  10.287   6.172   3.890 -1.5673  0.9283  0.0035
  331MOL0     H43687  10.286   6.146   3.716 -0.5002  3.0739  1.8690
  331MOL0     H43688  10.438   5.994   3.851 -0.0675  0.3931  0.7135
  331MOL0     H43689  10.293   5.895   3.899 -0.8968 -0.2308  0.2919
  331MOL0     H43690  10.389   5.808   3.494 -0.3123  2.5141 -0.8575
  331MOL0     H43691  10.127   6.553   3.824  0.7037  0.7676  1.1586
  331MOL0     H43692   9.972   6.741   3.801 -0.6393 -1.2325  1.6606
  332MOL0     O43693   0.214   3.196   5.518 -0.0324  0.1237  0.3198
  332MOL0     C43694   0.173   3.080   5.533  0.0183  0.6431  0.1516
  332MOL0     O43695   0.048   3.027   5.494  0.0433 -0.3753  0.1594
  332MOL0     C43696  -0.067   3.099   5.481 -0.1161 -0.6976 -0.0193
  332MOL0     C43697  -0.190   3.028   5.522 -0.3781  0.0205 -0.1356
  332MOL0     C43698  -0.316   3.088   5.504 -0.5306 -0.0915  0.2415
  332MOL0     C43699  -0.314   3.221   5.461 -0.8343  0.3765 -0.6183
  332MOL0     O43700  -0.440   3.286   5.464 -0.3521 -0.0856  0.2340
  332MOL0     C43701  -0.543   3.221   5.381  0.5844  0.1184  0.1091
  332MOL0     C43702  -0.661   3.315   5.372 -0.2066  0.2326 -0.1299
  332MOL0     C43703  -0.775   3.300   5.478 -0.7560 -0.2936 -0.8205
  332MOL0     C43704  -0.919   3.347   5.436 -0.7970  0.3615 -0.0843
  332MOL0     C43705  -1.018   3.277   5.529 -0.1975 -0.2636 -1.0824
  332MOL0     C43706  -1.160   3.295   5.490  0.3546 -0.3879  0.6599
  332MOL0     C43707  -1.259   3.270   5.602  0.1845 -0.3664 -0.4115
  332MOL0     C43708  -1.375   3.365   5.602 -0.2797 -0.9398 -0.7902
  332MOL0     N43709  -1.479   3.318   5.702  0.7684  0.2837 -0.7083
  332MOL0     C43710  -1.555   3.200   5.706 -0.1033 -0.4484 -0.2479
  332MOL0     C43711  -1.630   3.207   5.815  0.2374  0.0090  0.2879
  332MOL0     C43712  -1.732   3.110   5.863  0.6425  0.3405  0.0899
  332MOL0     C43713  -1.865   3.172   5.914 -0.6907 -0.4210  0.1948
  332MOL0     C43714  -1.971   3.072   5.971 -0.3673 -0.1168 -0.2953
  332MOL0     C43715  -2.079   3.154   6.048 -0.5056 -0.4167  0.1975
  332MOL0     O43716  -2.156   3.059   6.128 -0.7970 -0.2592 -0.0478
  332MOL0     C43717  -2.285   3.022   6.083  0.0013 -0.0534 -0.7069
  332MOL0     C43718  -2.361   3.073   5.970  0.0055  0.2608 -0.0293
  332MOL0     C43719  -2.489   3.034   5.948 -0.0627 -0.3163 -0.1658
  332MOL0     C43720  -2.548   2.939   6.029  1.1116  0.2555 -1.7129
  332MOL0     C43721  -2.682   2.882   6.002 -0.5050  0.2120  1.5386
  332MOL0     O43722  -2.727   2.787   6.093 -0.3093  0.0018 -0.4274
  332MOL0     C43723  -2.853   2.737   6.066 -0.9705  0.7072  0.1486
  332MOL0     C43724  -2.885   2.669   5.949  0.5541  0.1542 -0.2354
  332MOL0     C43725  -3.018   2.615   5.929  0.2885 -0.2041 -0.0716
  332MOL0     C43726  -3.107   2.633   6.036  0.8562 -0.0828  0.5771
  332MOL0     O43727  -3.234   2.578   6.004 -0.6142  0.2476 -0.2344
  332MOL0     C43728  -3.301   2.545   6.118  0.5925 -0.5815 -1.0574
  332MOL0     C43729  -3.429   2.452   6.091  0.7352  0.2367 -0.3725
  332MOL0     C43730  -3.400   2.301   6.082  0.3500 -0.1223  0.4264
  332MOL0     C43731  -3.526   2.233   6.024 -0.1547  0.0401 -0.4454
  332MOL0     C43732  -3.585   2.126   6.115 -0.2952  0.2357  0.5306
  332MOL0     C43733  -3.738   2.123   6.085 -0.1398  0.6210  0.6015
  332MOL0     C43734  -3.763   2.069   5.937  0.1005  0.3553 -0.1390
  332MOL0     C43735  -3.808   2.163   5.828 -0.1171 -0.6528  0.5907
  332MOL0    Cl43736  -3.948   2.252   5.888 -0.3512 -1.3701  0.4430
  332MOL0     C43737  -3.078   2.697   6.155  0.5862  0.0940 -0.1764
  332MOL0     C43738  -2.943   2.740   6.168  0.5939  0.4501 -0.4789
  332MOL0     O43739  -2.738   2.917   5.903  0.4791 -0.5105 -0.6851
  332MOL0     C43740  -2.472   2.880   6.137  0.2188  0.7184 -0.7044
  332MOL0     C43741  -2.336   2.918   6.150 -0.0920 -0.0966 -0.6435
  332MOL0     N43742  -1.601   3.326   5.881 -0.7754 -0.5501 -0.0704
  332MOL0     N43743  -1.510   3.383   5.817  0.2954 -0.3005 -1.0754
  332MOL0     C43744  -0.192   3.295   5.435 -0.4144 -0.3076  0.6666
  332MOL0     C43745  -0.066   3.237   5.446  0.8824  0.1748 -0.0832
  332MOL0     C43746   0.263   2.985   5.605 -0.3341  0.2203  0.8597
  332MOL0     C43747   0.349   3.025   5.705 -0.2955  0.3465 -0.0696
  332MOL0     C43748   0.439   2.938   5.776  0.6697 -0.5615 -0.0400
  332MOL0     C43749   0.429   2.796   5.749 -0.6595  0.5906  0.4642
  332MOL0     O43750   0.503   2.712   5.827 -0.2292 -0.1303  0.8692
  332MOL0     C43751   0.485   2.569   5.818 -0.0850 -0.0245  0.2089
  332MOL0     C43752   0.347   2.500   5.852  0.5082  0.7861  0.3486
  332MOL0     C43753   0.353   2.359   5.792 -0.2660 -0.0194  0.3680
  332MOL0     C43754   0.221   2.292   5.814 -0.0105 -0.4041  0.4649
  332MOL0     C43755   0.226   2.145   5.787 -0.8571  0.1616  0.1692
  332MOL0     C43756   0.226   2.027   5.764  0.0771 -0.4212 -0.2743
  332MOL0     C43757   0.349   2.755   5.638 -0.0303  0.5055  0.0577
  332MOL0     C43758   0.254   2.844   5.583 -0.3029 -0.5994  0.2190
  332MOL0     H43759  -0.188   2.926   5.558 -1.0896 -1.1151 -2.9909
  332MOL0     H43760  -0.405   3.037   5.540  0.0791  0.4169  2.6384
  332MOL0     H43761  -0.586   3.130   5.426 -2.3070  0.3771 -1.8590
  332MOL0     H43762  -0.496   3.191   5.287 -1.0325 -0.2786 -0.6177
  332MOL0     H43763  -0.714   3.284   5.281 -2.7005  3.8860 -0.1332
  332MOL0     H43764  -0.619   3.414   5.353  2.0990 -1.0562 -2.4869
  332MOL0     H43765  -0.753   3.356   5.570 -0.3468 -1.8446  0.0619
  332MOL0     H43766  -0.771   3.200   5.523  4.5272  0.2788  0.6433
  332MOL0     H43767  -0.926   3.456   5.439  1.3212  0.6542 -2.4029
  332MOL0     H43768  -0.947   3.314   5.335  1.2877  1.4202 -1.0596
  332MOL0     H43769  -0.999   3.305   5.633  2.3272  0.4954 -1.6568
  332MOL0     H43770  -1.002   3.170   5.518  0.5986 -0.1529 -1.0628
  332MOL0     H43771  -1.181   3.231   5.404  1.7283  0.0209 -0.0136
  332MOL0     H43772  -1.172   3.400   5.461  1.5216 -0.3334  0.3417
  332MOL0     H43773  -1.291   3.166   5.594  1.9530 -0.8644 -1.7415
  332MOL0     H43774  -1.211   3.284   5.699 -0.2117  1.8205 -0.4703
  332MOL0     H43775  -1.427   3.382   5.508 -0.6129  0.0033 -0.4457
  332MOL0     H43776  -1.330   3.463   5.622 -1.3186 -0.5879 -0.0187
  332MOL0     H43777  -1.546   3.116   5.638  4.0091 -0.6410  0.2878
  332MOL0     H43778  -1.690   3.042   5.938 -0.5046 -0.7960 -0.2640
  332MOL0     H43779  -1.757   3.046   5.778 -0.3990 -0.3236  0.8810
  332MOL0     H43780  -1.916   3.215   5.827 -2.7889 -2.8329  0.1386
  332MOL0     H43781  -1.831   3.255   5.977  2.4419 -1.1605 -0.3933
  332MOL0     H43782  -2.006   3.007   5.891 -3.2681  0.1447  0.6284
  332MOL0     H43783  -1.921   3.009   6.045 -2.4605 -0.9548  0.4888
  332MOL0     H43784  -2.143   3.206   5.975 -2.7766 -3.1222  0.0872
  332MOL0     H43785  -2.026   3.225   6.111  0.4264 -0.0150 -0.9987
  332MOL0     H43786  -2.312   3.143   5.904  1.6317 -1.5802 -0.8947
  332MOL0     H43787  -2.544   3.066   5.860  0.7215  1.5251 -0.0241
  332MOL0     H43788  -2.815   2.641   5.870 -0.2266  1.6663 -1.5316
  332MOL0     H43789  -3.047   2.547   5.850 -0.2857 -0.8904  0.7134
  332MOL0     H43790  -3.331   2.642   6.160 -0.5333 -0.1180 -2.8073
  332MOL0     H43791  -3.241   2.483   6.184 -2.2992 -0.3561  2.0571
  332MOL0     H43792  -3.490   2.491   6.009 -2.2581 -0.8732  1.1827
  332MOL0     H43793  -3.499   2.451   6.175  0.3597 -1.4738 -0.6807
  332MOL0     H43794  -3.380   2.255   6.179  0.6527 -0.6047  0.1363
  332MOL0     H43795  -3.317   2.289   6.012  0.3398 -2.1067  0.6732
  332MOL0     H43796  -3.601   2.298   5.979 -0.7380 -0.2881  0.0412
  332MOL0     H43797  -3.494   2.177   5.935  1.1122 -0.4669  0.2964
  332MOL0     H43798  -3.569   2.164   6.217 -3.9005  1.7264  0.7015
  332MOL0     H43799  -3.544   2.026   6.100  0.6848  0.5313  1.1761
  332MOL0     H43800  -3.772   2.226   6.098  0.2524  0.5369  2.5140
  332MOL0     H43801  -3.787   2.056   6.156 -0.3867 -2.0069 -1.8458
  332MOL0     H43802  -3.670   2.020   5.907  0.0479  0.2196 -0.0797
  332MOL0     H43803  -3.853   2.011   5.957 -0.2516  1.5270  1.9590
  332MOL0     H43804  -3.828   2.103   5.738  0.6257  0.3037 -0.2342
  332MOL0     H43805  -3.724   2.227   5.801  0.9906 -1.7504  1.3092
  332MOL0     H43806  -3.147   2.718   6.236 -0.1818  2.0903 -1.2592
  332MOL0     H43807  -2.908   2.778   6.263  2.5507  1.4716 -1.5335
  332MOL0     H43808  -2.504   2.793   6.194  0.2977  0.3143 -1.2649
  332MOL0     H43809  -2.273   2.864   6.220 -1.7746 -4.3586 -2.0834
  332MOL0     H43810  -0.189   3.395   5.393 -1.1278 -0.4842  0.1805
  332MOL0     H43811   0.017   3.301   5.420 -0.2275  0.8486 -2.2398
  332MOL0     H43812   0.336   3.128   5.737 -2.2458 -0.0788  0.7010
  332MOL0     H43813   0.517   2.979   5.839 -1.1432 -0.3956  2.2187
  332MOL0     H43814   0.565   2.517   5.872 -0.8399  1.2666  2.7302
  332MOL0     H43815   0.502   2.535   5.715  0.2358 -1.1925  0.6261
  332MOL0     H43816   0.330   2.499   5.960  0.0951  2.3404  0.3169
  332MOL0     H43817   0.263   2.563   5.820 -0.1743 -0.5293 -0.5350
  332MOL0     H43818   0.427   2.304   5.850 -1.7630  0.5785  3.0358
  332MOL0     H43819   0.376   2.371   5.686 -2.3593  3.4529  0.1477
  332MOL0     H43820   0.188   2.317   5.915 -0.7146  1.1915 -0.1225
  332MOL0     H43821   0.145   2.341   5.752 -1.0265  0.5097  2.3396
  332MOL0     H43822   0.212   1.924   5.736 -1.5506 -0.6564  1.2465
  332MOL0     H43823   0.342   2.649   5.615 -1.1218 -0.0285  2.4912
  332MOL0     H43824   0.192   2.808   5.502 -3.6377 -1.1009  2.7466
  333MOL0     O43825   2.433   0.810   7.374  0.9800 -0.5278  0.3308
  333MOL0     C43826   2.473   0.742   7.279 -0.2868 -0.1422 -1.1001
  333MOL0     O43827   2.390   0.647   7.222 -0.3885  0.1285  0.3890
  333MOL0     C43828   2.276   0.613   7.284  0.1673 -0.4779 -0.2689
  333MOL0     C43829   2.265   0.552   7.409 -0.0065  0.0359 -0.0514
  333MOL0     C43830   2.144   0.514   7.463  0.2016  0.6982 -0.1890
  333MOL0     C43831   2.021   0.547   7.395  0.6235 -0.1799  0.8168
  333MOL0     O43832   1.886   0.543   7.442  0.0664 -0.9034 -0.1733
  333MOL0     C43833   1.859   0.433   7.525 -0.1982 -0.2016  0.0098
  333MOL0     C43834   1.878   0.303   7.446  1.4879  0.8878 -0.0108
  333MOL0     C43835   1.824   0.188   7.531 -0.2695 -0.4191  0.4226
  333MOL0     C43836   1.771   0.074   7.451  0.5708  0.2557  0.6297
  333MOL0     C43837   1.726  -0.030   7.549 -0.0398  0.0354 -0.5917
  333MOL0     C43838   1.656  -0.152   7.488 -0.0748 -0.0791 -0.4564
  333MOL0     C43839   1.657  -0.265   7.600  0.9619  0.1490  0.9279
  333MOL0     C43840   1.581  -0.397   7.558  0.7969  0.3198 -0.1780
  333MOL0     N43841   1.628  -0.448   7.424  0.1501 -0.4726 -1.1982
  333MOL0     C43842   1.584  -0.420   7.292 -0.3012  0.0633 -0.1427
  333MOL0     C43843   1.669  -0.479   7.202  0.4899  0.2218 -0.5796
  333MOL0     C43844   1.656  -0.492   7.058  0.2053  0.1089 -0.2930
  333MOL0     C43845   1.530  -0.587   7.040 -0.3949  1.0666  0.0685
  333MOL0     C43846   1.554  -0.728   7.089 -0.3358 -1.2759  0.4811
  333MOL0     C43847   1.438  -0.827   7.067 -0.4457 -0.2741 -0.6334
  333MOL0     O43848   1.413  -0.821   6.924  0.9052  0.0274 -0.2846
  333MOL0     C43849   1.315  -0.903   6.881 -0.1794 -0.3534 -0.5515
  333MOL0     C43850   1.226  -0.977   6.963 -0.3090 -0.0562 -0.2472
  333MOL0     C43851   1.117  -1.054   6.908  0.4688 -0.8127  0.3809
  333MOL0     C43852   1.097  -1.053   6.771  0.0066  0.3883 -0.0935
  333MOL0     C43853   0.986  -1.132   6.701 -0.1579  0.6024  0.2773
  333MOL0     O43854   0.951  -1.087   6.570  0.0025  0.8076 -0.0383
  333MOL0     C43855   0.856  -1.160   6.518 -0.2260 -0.1182  0.0606
  333MOL0     C43856   0.875  -1.289   6.479 -0.8648  0.2138 -0.5091
  333MOL0     C43857   0.777  -1.361   6.421 -0.9459  0.1556  0.0622
  333MOL0     C43858   0.646  -1.305   6.383 -0.6093 -0.5597 -0.9253
  333MOL0     O43859   0.544  -1.382   6.328  0.0826 -0.6333 -0.3533
  333MOL0     C43860   0.406  -1.353   6.359 -0.0525  0.6293 -0.4101
  333MOL0     C43861   0.311  -1.462   6.314 -0.3539 -0.1029  0.0249
  333MOL0     C43862   0.163  -1.440   6.354  0.4451 -0.3556 -0.8490
  333MOL0     C43863   0.089  -1.559   6.302  0.5521 -0.4334 -0.3681
  333MOL0     C43864  -0.062  -1.554   6.273  0.1247 -0.1418 -0.0018
  333MOL0     C43865  -0.119  -1.417   6.228 -0.1057 -0.4356 -0.1822
  333MOL0     C43866  -0.131  -1.388   6.081 -0.4177 -0.7644 -0.3697
  333MOL0     C43867  -0.002  -1.326   6.021 -0.0249  0.3211  0.6330
  333MOL0    Cl43868  -0.027  -1.297   5.846 -0.2223 -0.0292 -0.2858
  333MOL0     C43869   0.623  -1.180   6.430 -0.7071 -0.7475 -0.2509
  333MOL0     C43870   0.733  -1.101   6.492  0.7879  0.3460  0.8378
  333MOL0     O43871   0.933  -1.227   6.761 -0.3635  0.0403  0.2620
  333MOL0     C43872   1.187  -0.976   6.687 -0.2547 -0.1180  0.8190
  333MOL0     C43873   1.291  -0.897   6.747  0.4770  1.2409  0.1122
  333MOL0     N43874   1.774  -0.525   7.279 -0.3840  0.2839 -0.0547
  333MOL0     N43875   1.748  -0.510   7.406  0.1949  0.1431  0.1785
  333MOL0     C43876   2.037   0.600   7.266  0.0146 -0.2929 -1.4094
  333MOL0     C43877   2.164   0.639   7.215  0.2836 -0.1468 -0.0459
  333MOL0     C43878   2.615   0.736   7.238  0.4607 -0.1874 -0.3918
  333MOL0     C43879   2.646   0.662   7.124  0.9670  0.8229 -0.2234
  333MOL0     C43880   2.776   0.669   7.072 -0.7221 -0.1351 -0.7739
  333MOL0     C43881   2.874   0.751   7.129 -0.2814 -0.1189  0.4897
  333MOL0     O43882   3.001   0.770   7.076  0.0429 -0.8995  0.3125
  333MOL0     C43883   3.041   0.906   7.067 -0.1457  0.2921 -0.5805
  333MOL0     C43884   3.145   0.909   6.954  0.5814  0.1041  0.0706
  333MOL0     C43885   3.274   0.826   6.980  0.2743 -0.0479 -0.6416
  333MOL0     C43886   3.362   0.885   7.088  0.6986  0.5028  0.0132
  333MOL0     C43887   3.425   1.008   7.039  0.4152  0.1107  0.2288
  333MOL0     C43888   3.471   1.112   6.999 -0.4510 -0.0465 -0.0735
  333MOL0     C43889   2.845   0.808   7.256 -0.2234 -0.8364 -0.2182
  333MOL0     C43890   2.713   0.806   7.308 -0.1737 -0.4613  0.3332
  333MOL0     H43891   2.352   0.533   7.470  1.4236  0.0788 -1.9631
  333MOL0     H43892   2.137   0.470   7.562 -0.1890 -0.6752 -0.8105
  333MOL0     H43893   1.761   0.445   7.572  0.4440  5.8152  0.4783
  333MOL0     H43894   1.934   0.428   7.604  0.5104  0.1176 -0.6326
  333MOL0     H43895   1.976   0.281   7.403  1.1494  2.6262 -1.7674
  333MOL0     H43896   1.809   0.307   7.362  1.7834  0.8815 -0.2549
  333MOL0     H43897   1.749   0.230   7.598 -0.6352  3.6914 -2.2030
  333MOL0     H43898   1.907   0.144   7.586  1.1696  1.0435 -0.4812
  333MOL0     H43899   1.695   0.107   7.380  0.8988 -0.6927 -0.1907
  333MOL0     H43900   1.846   0.030   7.386 -0.7713  0.0192 -0.8091
  333MOL0     H43901   1.651   0.015   7.615 -0.9875 -0.2298 -1.4582
  333MOL0     H43902   1.814  -0.060   7.607 -0.9090  0.9577  1.2941
  333MOL0     H43903   1.703  -0.184   7.394 -0.2724  0.2863 -0.6837
  333MOL0     H43904   1.551  -0.133   7.467 -0.8412 -0.8239  2.3257
  333MOL0     H43905   1.761  -0.294   7.614  0.8571 -0.6985  0.0456
  333MOL0     H43906   1.615  -0.240   7.698 -0.1091 -1.9408  1.0523
  333MOL0     H43907   1.474  -0.381   7.542  0.8145 -0.2671 -0.9032
  333MOL0     H43908   1.594  -0.472   7.638 -0.7980 -1.6777 -1.6619
  333MOL0     H43909   1.489  -0.381   7.258 -1.4358 -2.8158 -0.5823
  333MOL0     H43910   1.748  -0.535   7.019  1.7839  4.7847 -2.5841
  333MOL0     H43911   1.634  -0.398   7.005 -2.3627 -0.3828 -0.2134
  333MOL0     H43912   1.507  -0.583   6.933 -1.4492  1.9697  0.3067
  333MOL0     H43913   1.443  -0.532   7.078  1.0306  2.4326  1.5477
  333MOL0     H43914   1.642  -0.774   7.043  0.6967 -0.3301  1.4235
  333MOL0     H43915   1.577  -0.718   7.196  1.6171  0.5099 -0.0270
  333MOL0     H43916   1.358  -0.801   7.136  1.3786 -0.0996  1.5243
  333MOL0     H43917   1.472  -0.927   7.097  0.2565 -0.4555 -1.9241
  333MOL0     H43918   1.254  -0.986   7.068  1.6647 -1.3168 -0.8429
  333MOL0     H43919   1.059  -1.113   6.978  0.5752  0.2583  1.4032
  333MOL0     H43920   0.969  -1.339   6.502 -1.8643 -0.2177  3.4576
  333MOL0     H43921   0.801  -1.464   6.402  4.1469  1.5953 -3.1295
  333MOL0     H43922   0.353  -1.268   6.315 -3.2171 -0.7495  0.4596
  333MOL0     H43923   0.399  -1.347   6.468 -0.9111  2.0604 -0.5194
  333MOL0     H43924   0.349  -1.557   6.355 -1.2553 -0.1098  0.8975
  333MOL0     H43925   0.305  -1.459   6.205 -1.1505  1.9868  0.0931
  333MOL0     H43926   0.118  -1.356   6.300 -2.0327 -2.2251 -1.8870
  333MOL0     H43927   0.137  -1.435   6.461 -0.4923  1.6634 -1.1318
  333MOL0     H43928   0.138  -1.587   6.208 -0.6689  0.5758 -1.3411
  333MOL0     H43929   0.104  -1.652   6.359 -1.3069  0.2010  1.2756
  333MOL0     H43930  -0.112  -1.584   6.365 -1.3202  0.9930 -0.3727
  333MOL0     H43931  -0.101  -1.632   6.208 -1.0715 -0.9182  1.5775
  333MOL0     H43932  -0.072  -1.334   6.282 -0.8451 -0.7429  0.9881
  333MOL0     H43933  -0.220  -1.418   6.270 -0.4004 -2.5767 -0.8158
  333MOL0     H43934  -0.143  -1.488   6.037 -0.0060 -0.5597 -0.9676
  333MOL0     H43935  -0.222  -1.331   6.062  1.3671  2.0971 -0.9027
  333MOL0     H43936   0.091  -1.384   6.023 -0.7382 -0.8713  0.2360
  333MOL0     H43937   0.019  -1.240   6.085 -1.3303 -1.4178  3.5954
  333MOL0     H43938   0.523  -1.139   6.420 -0.1815  0.5505 -0.4107
  333MOL0     H43939   0.713  -0.996   6.506 -1.7267  0.2162 -1.1498
  333MOL0     H43940   1.185  -0.977   6.578  0.9113 -0.3497  0.7884
  333MOL0     H43941   1.352  -0.839   6.678 -1.0225  0.7058 -1.7721
  333MOL0     H43942   1.955   0.637   7.205 -3.2796 -3.1320  0.9544
  333MOL0     H43943   2.173   0.674   7.113  0.9062 -0.1321  0.0070
  333MOL0     H43944   2.571   0.605   7.070  1.2117 -0.1962  0.4841
  333MOL0     H43945   2.790   0.619   6.976 -0.5618 -0.2311 -0.7014
  333MOL0     H43946   3.079   0.941   7.163  0.1427 -0.4952 -0.3967
  333MOL0     H43947   2.955   0.970   7.048 -0.4564  0.2691  0.6663
  333MOL0     H43948   3.105   0.859   6.865  1.2096 -3.6764  1.7184
  333MOL0     H43949   3.179   1.008   6.921 -1.7541  1.0694  0.4162
  333MOL0     H43950   3.334   0.809   6.890 -1.5398 -0.5345 -1.8011
  333MOL0     H43951   3.240   0.725   7.004  2.1876 -0.9332 -1.4149
  333MOL0     H43952   3.307   0.893   7.182  0.3984  0.7885 -0.1844
  333MOL0     H43953   3.445   0.818   7.110  0.6211  0.0184 -1.0827
  333MOL0     H43954   3.501   1.201   6.948  1.8284 -1.2199 -0.9470
  333MOL0     H43955   2.925   0.856   7.312  0.6346 -0.4052 -1.7742
  333MOL0     H43956   2.696   0.845   7.408  0.6121 -3.0649  1.5560
  334MOL0     O43957  10.582   9.149   8.417  0.4570  0.0920 -0.3397
  334MOL0     C43958  10.623   9.040   8.466 -0.3775  0.0855  0.0274
  334MOL0     O43959  10.561   8.918   8.428 -0.1176  0.0795  0.2973
  334MOL0     C43960  10.435   8.909   8.362  1.2416  1.1819 -0.0432
  334MOL0     C43961  10.402   8.766   8.355  0.0439 -0.2024  0.1690
  334MOL0     C43962  10.281   8.730   8.310 -0.2393 -0.1134  0.1105
  334MOL0     C43963  10.185   8.823   8.262 -0.2326 -0.7060 -0.3745
  334MOL0     O43964  10.061   8.784   8.226 -0.0994  0.1873 -0.3533
  334MOL0     C43965   9.977   8.740   8.339 -1.2008 -0.6271 -0.0423
  334MOL0     C43966   9.903   8.608   8.301  0.2189  0.2334  0.7700
  334MOL0     C43967   9.981   8.505   8.221  0.0639 -0.8144 -0.4721
  334MOL0     C43968   9.883   8.403   8.162  0.7179 -0.3165  0.4306
  334MOL0     C43969   9.941   8.304   8.072 -0.2164 -0.2172 -0.1030
  334MOL0     C43970   9.947   8.360   7.929 -0.3533 -0.5328  0.3577
  334MOL0     C43971  10.002   8.261   7.830  0.6363  0.0124 -0.9158
  334MOL0     C43972  10.021   8.301   7.684  0.5644  0.2651  0.4991
  334MOL0     N43973  10.088   8.193   7.603 -0.9319  0.4138  0.0587
  334MOL0     C43974  10.224   8.154   7.596 -0.6570  0.4660 -0.4258
  334MOL0     C43975  10.231   8.060   7.503  0.5571 -0.0331 -0.3367
  334MOL0     C43976  10.353   8.001   7.450  0.6336 -0.5604 -0.4576
  334MOL0     C43977  10.415   8.090   7.345 -0.4833  0.3704  1.5788
  334MOL0     C43978  10.495   8.217   7.383 -0.4045 -0.5157  0.1422
  334MOL0     C43979  10.629   8.237   7.311  0.7740  0.3326 -0.7149
  334MOL0     O43980  10.617   8.267   7.169 -0.2141 -0.2023  0.7736
  334MOL0     C43981  10.568   8.391   7.135  0.0918  0.2466  0.5272
  334MOL0     C43982  10.604   8.513   7.206  0.0231  0.5633  0.0928
  334MOL0     C43983  10.532   8.631   7.188 -0.5384 -0.2108  0.6958
  334MOL0     C43984  10.435   8.645   7.091  0.4235  0.5288  0.7182
  334MOL0     C43985  10.355   8.762   7.063  0.2922 -0.1188  0.0355
  334MOL0     O43986  10.275   8.770   6.948  0.5561 -0.2488 -0.2447
  334MOL0     C43987  10.246   8.898   6.908  0.3290 -0.1884  0.1870
  334MOL0     C43988  10.113   8.949   6.899 -0.3589  0.1046  0.5268
  334MOL0     C43989  10.088   9.072   6.835  0.4737  0.7160 -0.6987
  334MOL0     C43990  10.191   9.147   6.787 -0.2184 -0.9047 -0.1074
  334MOL0     O43991  10.169   9.269   6.717  0.1034  1.0753  0.7720
  334MOL0     C43992  10.048   9.343   6.736 -0.1114  0.2268 -0.2724
  334MOL0     C43993  10.066   9.469   6.655 -0.3900  0.4192  1.1655
  334MOL0     C43994   9.965   9.581   6.700 -0.5700  0.3061 -1.4450
  334MOL0     C43995  10.015   9.658   6.823  1.0126  0.2417  0.3185
  334MOL0     C43996   9.916   9.773   6.860  0.2382 -0.0903 -0.1717
  334MOL0     C43997   9.956   9.841   6.994 -0.5830  0.2779 -0.3751
  334MOL0     C43998   9.837   9.902   7.067 -0.3493  0.1046 -0.0830
  334MOL0     C43999   9.776   9.808   7.169 -0.5467  0.6431  1.0424
  334MOL0    Cl44000   9.650   9.902   7.237  0.1277 -0.0544  0.0567
  334MOL0     C44001  10.320   9.092   6.806 -0.5609 -1.3204  0.1355
  334MOL0     C44002  10.345   8.970   6.863 -0.4389 -0.0173  0.0883
  334MOL0     O44003  10.372   8.856   7.136 -0.5533 -0.3146  0.6804
  334MOL0     C44004  10.402   8.531   7.011 -0.2380 -0.0508  0.1968
  334MOL0     C44005  10.465   8.410   7.043 -0.6521  0.3187 -0.2639
  334MOL0     N44006  10.106   8.035   7.451  0.3242 -0.1523  0.2816
  334MOL0     N44007  10.019   8.108   7.516 -0.2033  0.7720 -0.5544
  334MOL0     C44008  10.218   8.958   8.255  0.0487  0.3100  1.0160
  334MOL0     C44009  10.340   9.004   8.304 -0.3102  0.3753 -0.1760
  334MOL0     C44010  10.743   9.034   8.548  0.1898  0.3253 -0.1081
  334MOL0     C44011  10.818   9.149   8.589  0.4637  0.6190 -0.9451
  334MOL0     C44012  10.930   9.131   8.661  0.6967  0.3505 -0.1478
  334MOL0     C44013  10.988   9.011   8.699 -0.7782  0.3047 -1.0213
  334MOL0     O44014  11.102   9.019   8.782  0.0954  0.1309 -0.0482
  334MOL0     C44015  11.113   8.923   8.885 -0.2014  0.4345 -0.7769
  334MOL0     C44016  11.001   8.959   8.987 -0.5351 -0.0449  0.5492
  334MOL0     C44017  10.988   8.856   9.093  0.0583  0.1573  0.9073
  334MOL0     C44018  11.087   8.893   9.205  0.4481 -0.4979 -0.1613
  334MOL0     C44019  11.052   8.827   9.332  0.7946  0.3549 -0.2097
  334MOL0     C44020  11.003   8.779   9.435 -0.4951  0.2428 -0.5634
  334MOL0     C44021  10.927   8.893   8.652 -0.4005  0.2818 -0.4013
  334MOL0     C44022  10.806   8.904   8.578 -0.2508  0.4814 -0.1236
  334MOL0     H44023  10.476   8.699   8.397 -0.0689  0.7448  1.9748
  334MOL0     H44024  10.253   8.627   8.332  3.9005 -1.2085  1.0407
  334MOL0     H44025   9.921   8.830   8.369  0.9947  0.6992  0.3053
  334MOL0     H44026  10.038   8.717   8.427 -0.6092 -1.2268 -0.5971
  334MOL0     H44027   9.805   8.615   8.253  0.6218  1.5190  0.0992
  334MOL0     H44028   9.883   8.565   8.400  1.0503 -2.6898 -0.2076
  334MOL0     H44029  10.052   8.451   8.283  1.3706 -0.1294 -1.3324
  334MOL0     H44030  10.037   8.558   8.143  0.1158  2.1800  1.4321
  334MOL0     H44031   9.835   8.349   8.245  3.0585 -3.1095  0.1213
  334MOL0     H44032   9.808   8.462   8.108  1.1927  1.9401  2.0588
  334MOL0     H44033   9.880   8.214   8.070 -2.4745  1.2150  0.6700
  334MOL0     H44034  10.039   8.277   8.114  1.0529  1.1470 -2.0114
  334MOL0     H44035  10.016   8.445   7.931  2.4460 -2.6168 -0.6226
  334MOL0     H44036   9.843   8.386   7.907 -1.8886 -2.5189  4.2892
  334MOL0     H44037  10.095   8.217   7.868 -0.0538  0.4691  1.4494
  334MOL0     H44038   9.940   8.171   7.833 -3.0867  2.3903  1.9712
  334MOL0     H44039  10.068   8.399   7.683  1.2390 -0.0472  1.0323
  334MOL0     H44040   9.922   8.321   7.641  0.1141  1.2421  1.9146
  334MOL0     H44041  10.311   8.190   7.649 -0.6185 -1.2216  0.7636
  334MOL0     H44042  10.340   7.901   7.406  1.0942 -2.2320  2.8840
  334MOL0     H44043  10.420   7.981   7.534 -0.2844 -0.3148  0.3608
  334MOL0     H44044  10.341   8.104   7.265  2.1030 -1.7047 -1.4534
  334MOL0     H44045  10.478   8.031   7.277 -2.6277  0.1926 -0.3950
  334MOL0     H44046  10.445   8.315   7.379  1.0813  0.6720  4.6207
  334MOL0     H44047  10.510   8.207   7.491 -0.1948 -1.7896  0.0085
  334MOL0     H44048  10.684   8.144   7.324  0.6581  0.7135  3.9911
  334MOL0     H44049  10.690   8.311   7.364 -1.4911  2.1570 -0.4760
  334MOL0     H44050  10.682   8.491   7.277  1.7510 -3.4363 -2.6886
  334MOL0     H44051  10.567   8.713   7.250  3.3657  0.2288 -1.7652
  334MOL0     H44052  10.035   8.885   6.940 -0.6634 -0.5591 -1.0047
  334MOL0     H44053   9.988   9.112   6.830  1.1200  2.9095  1.6380
  334MOL0     H44054  10.048   9.360   6.844  2.2845  2.6275 -0.5218
  334MOL0     H44055   9.964   9.281   6.705  1.6197 -3.2338  1.4727
  334MOL0     H44056  10.064   9.446   6.548  3.3104 -2.0969  1.4566
  334MOL0     H44057  10.168   9.498   6.678  0.1583 -2.0605  2.1619
  334MOL0     H44058   9.873   9.530   6.731  0.6640 -2.8086 -2.5153
  334MOL0     H44059   9.950   9.652   6.619  1.7311 -0.1663 -2.3703
  334MOL0     H44060  10.028   9.582   6.901 -1.2477 -2.3849 -1.6304
  334MOL0     H44061  10.117   9.687   6.795  1.0215 -0.7766 -0.7989
  334MOL0     H44062   9.812   9.738   6.859 -0.7560  2.3041 -4.4575
  334MOL0     H44063   9.922   9.839   6.773  0.6065  0.3854  0.2071
  334MOL0     H44064  10.030   9.921   6.982 -1.2047  0.9007 -0.0974
  334MOL0     H44065   9.991   9.762   7.062  0.2282  2.2406  1.6546
  334MOL0     H44066   9.862   9.996   7.116  0.3962 -0.2276  0.1863
  334MOL0     H44067   9.755   9.926   6.998  0.0573  7.6857  1.2428
  334MOL0     H44068   9.850   9.783   7.245  2.2221  2.2309 -0.9150
  334MOL0     H44069   9.732   9.721   7.119  2.9812 -1.2097  0.8733
  334MOL0     H44070  10.393   9.165   6.771  0.0675 -1.5371  0.9555
  334MOL0     H44071  10.446   8.932   6.861 -1.4298 -3.2604  2.5455
  334MOL0     H44072  10.331   8.524   6.930 -1.7561  1.1516  1.3606
  334MOL0     H44073  10.433   8.331   6.976 -0.1820 -0.6080  0.5725
  334MOL0     H44074  10.149   9.036   8.225  2.3413  1.4978 -1.7464
  334MOL0     H44075  10.364   9.109   8.314 -4.4535  1.6936 -1.9479
  334MOL0     H44076  10.780   9.243   8.553  1.2889  0.4617 -2.2804
  334MOL0     H44077  10.987   9.220   8.686  1.4705 -0.9171  3.0482
  334MOL0     H44078  11.213   8.923   8.929 -0.4837 -4.0134  0.4360
  334MOL0     H44079  11.109   8.817   8.855 -1.5898 -0.3435  1.8788
  334MOL0     H44080  11.017   9.058   9.030 -1.9625  0.8692 -0.9089
  334MOL0     H44081  10.906   8.957   8.933  0.0463 -1.5225 -0.5101
  334MOL0     H44082  11.006   8.754   9.060 -1.1553 -0.2375  1.4053
  334MOL0     H44083  10.884   8.869   9.125 -0.8053  0.9017 -1.9297
  334MOL0     H44084  11.189   8.867   9.177  2.0919  3.4455  1.4211
  334MOL0     H44085  11.076   9.000   9.222  1.3465 -0.5697  1.0161
  334MOL0     H44086  10.965   8.736   9.525  0.3524  1.6617  0.5078
  334MOL0     H44087  10.966   8.794   8.674  1.4175  0.7609 -1.2656
  334MOL0     H44088  10.772   8.813   8.530  3.3169 -0.3145 -1.4166
  335MOL0     O44089   2.787  11.170   0.414  0.3420  0.1189  0.5841
  335MOL0     C44090   2.731  11.146   0.302  0.4903  0.3135 -0.2987
  335MOL0     O44091   2.791  11.087   0.189  0.6226  0.4047  0.0713
  335MOL0     C44092   2.915  11.038   0.203 -0.4331  0.6866  1.0808
  335MOL0     C44093   2.933  10.900   0.184  0.2758 -0.1559 -0.3196
  335MOL0     C44094   3.058  10.846   0.174  0.2737  0.3344 -0.7170
  335MOL0     C44095   3.174  10.919   0.202 -0.3050 -0.2143  0.5461
  335MOL0     O44096   3.296  10.849   0.214  0.3530 -0.3529  0.2064
  335MOL0     C44097   3.402  10.897   0.289 -0.4885 -0.5220  0.2738
  335MOL0     C44098   3.492  10.789   0.343  0.2425 -0.5815 -0.4178
  335MOL0     C44099   3.602  10.756   0.240  0.5941  0.1036 -0.2018
  335MOL0     C44100   3.681  10.637   0.284  0.0683 -0.3046  0.3386
  335MOL0     C44101   3.803  10.611   0.193 -0.4149  0.5213 -0.2696
  335MOL0     C44102   3.931  10.583   0.285  0.0575  0.6895 -0.7999
  335MOL0     C44103   4.045  10.529   0.186  0.4198 -1.2856  0.9835
  335MOL0     C44104   4.167  10.615   0.204 -0.1343 -0.3719 -0.0417
  335MOL0     N44105   4.270  10.592   0.107 -1.2015 -0.5433  1.0345
  335MOL0     C44106   4.386  10.511   0.140  0.0177 -0.0172 -0.3074
  335MOL0     C44107   4.474  10.519   0.036  0.2852  1.1875 -0.3937
  335MOL0     C44108   4.592  10.428   0.014  0.0074  0.0740 -0.6263
  335MOL0     C44109   4.724  10.498  -0.013  0.1398  0.7659 -0.0273
  335MOL0     C44110   4.743  10.627   0.072  0.9722  0.0620  0.2728
  335MOL0     C44111   4.886  10.681   0.039 -0.1081  0.3691  0.3995
  335MOL0     O44112   4.992  10.585   0.078 -0.3774  0.8655 -0.3163
  335MOL0     C44113   5.123  10.630   0.090  1.5469  1.1305  0.3173
  335MOL0     C44114   5.174  10.759   0.096 -0.2030  0.3419 -0.6572
  335MOL0     C44115   5.307  10.787   0.141  0.8684 -0.4564 -0.1354
  335MOL0     C44116   5.403  10.685   0.165 -0.4360  0.7070  0.5161
  335MOL0     C44117   5.541  10.719   0.209  0.0704  0.2818 -0.1626
  335MOL0     O44118   5.624  10.607   0.221 -0.1553 -0.5522 -0.1291
  335MOL0     C44119   5.761  10.623   0.254 -0.6753 -0.9410 -0.0351
  335MOL0     C44120   5.845  10.718   0.187  0.7138  0.8684 -0.2493
  335MOL0     C44121   5.984  10.711   0.200  0.5301 -0.0519 -0.3034
  335MOL0     C44122   6.040  10.629   0.302  0.5446  0.1480 -0.1967
  335MOL0     O44123   6.172  10.632   0.330  0.5453  0.0158 -0.2415
  335MOL0     C44124   6.243  10.754   0.310  0.4146  0.1655  0.3822
  335MOL0     C44125   6.366  10.757   0.394  0.3538 -0.1417 -1.0542
  335MOL0     C44126   6.471  10.855   0.358 -0.0498 -0.6996  0.0540
  335MOL0     C44127   6.597  10.870   0.448  0.2094 -0.4421  0.3201
  335MOL0     C44128   6.693  10.971   0.387 -0.3222  0.6161  0.0986
  335MOL0     C44129   6.807  10.987   0.478 -0.1123  0.1164  0.3992
  335MOL0     C44130   6.773  11.022   0.618  0.3150  0.3881 -0.6523
  335MOL0     C44131   6.892  11.086   0.694 -0.4335  0.4004 -0.7254
  335MOL0    Cl44132   6.829  11.144   0.853  0.1318 -0.3418  0.0314
  335MOL0     C44133   5.958  10.544   0.370  0.3201 -1.0757 -0.2470
  335MOL0     C44134   5.826  10.539   0.347 -0.2292 -0.5864  0.3050
  335MOL0     O44135   5.565  10.833   0.242 -0.3358 -0.0606  0.0595
  335MOL0     C44136   5.357  10.556   0.145 -0.5091  0.0752  0.0691
  335MOL0     C44137   5.224  10.531   0.112  0.2025  0.2239  0.6132
  335MOL0     N44138   4.417  10.596  -0.058  0.5222 -0.0798 -0.3998
  335MOL0     N44139   4.293  10.640  -0.022  0.1554  0.3153 -0.4614
  335MOL0     C44140   3.161  11.055   0.219 -0.0708  0.3508 -0.2170
  335MOL0     C44141   3.032  11.112   0.225 -0.3774  0.1769  0.1463
  335MOL0     C44142   2.587  11.166   0.300  0.5133  0.3992 -0.5561
  335MOL0     C44143   2.524  11.197   0.176  0.2944  0.0403  0.3246
  335MOL0     C44144   2.382  11.224   0.179  0.8467 -0.2865  0.3671
  335MOL0     C44145   2.309  11.218   0.298  1.3943 -0.5681 -0.4786
  335MOL0     O44146   2.177  11.232   0.282  0.3987 -0.0446 -0.3235
  335MOL0     C44147   2.102  11.264   0.401 -0.7901  0.2715 -0.3920
  335MOL0     C44148   1.951  11.264   0.369 -0.6559 -0.7490  0.1916
  335MOL0     C44149   1.869  11.289   0.487 -0.5965  0.0475 -0.7771
  335MOL0     C44150   1.720  11.270   0.444 -0.0372  0.3334  0.6392
  335MOL0     C44151   1.621  11.305   0.547  0.4398 -0.1947  1.1406
  335MOL0     C44152   1.565  11.342   0.643  0.5144  0.6763 -1.0412
  335MOL0     C44153   2.373  11.188   0.417 -0.8531 -0.2302  0.4343
  335MOL0     C44154   2.512  11.176   0.421 -0.0676  1.4404 -0.6420
  335MOL0     H44155   2.856  10.826   0.168  0.4662 -0.3730 -0.2461
  335MOL0     H44156   3.066  10.738   0.165 -2.6791 -0.1554  0.9515
  335MOL0     H44157   3.348  10.920   0.382 -2.2773 -4.5171  0.4212
  335MOL0     H44158   3.463  10.975   0.242  2.2878 -3.6776 -1.8133
  335MOL0     H44159   3.437  10.700   0.376  2.5547 -1.0991  2.4344
  335MOL0     H44160   3.532  10.816   0.441 -1.8468 -0.2024  0.3745
  335MOL0     H44161   3.667  10.845   0.241  1.8883 -0.8069  0.9906
  335MOL0     H44162   3.568  10.743   0.137  1.4325 -3.9971 -0.1396
  335MOL0     H44163   3.709  10.658   0.388 -0.5380 -0.8574  0.6198
  335MOL0     H44164   3.619  10.547   0.278 -2.2360  1.2461 -0.4089
  335MOL0     H44165   3.829  10.699   0.134  2.2130  1.4692  2.0883
  335MOL0     H44166   3.775  10.525   0.132 -2.1870  0.9057 -0.0567
  335MOL0     H44167   3.910  10.526   0.376  1.4696  0.5387 -0.5422
  335MOL0     H44168   3.962  10.680   0.323  1.0967  0.3831 -0.8290
  335MOL0     H44169   4.066  10.426   0.216 -0.4814 -2.0405 -0.8550
  335MOL0     H44170   4.009  10.534   0.083 -2.1985  0.2930  1.8779
  335MOL0     H44171   4.209  10.601   0.304 -0.9651 -0.3202  0.3175
  335MOL0     H44172   4.132  10.719   0.200 -1.7282 -0.8110  1.2990
  335MOL0     H44173   4.409  10.451   0.228  2.2223  0.6313 -0.3651
  335MOL0     H44174   4.562  10.369  -0.073 -0.8607 -1.2593  0.5295
  335MOL0     H44175   4.606  10.379   0.111  0.7054  1.6817  0.1379
  335MOL0     H44176   4.734  10.520  -0.120 -0.6930  0.6704 -0.1341
  335MOL0     H44177   4.802  10.426   0.013 -1.0870  0.6755  4.1957
  335MOL0     H44178   4.666  10.702   0.052 -0.5335 -0.5507  3.2551
  335MOL0     H44179   4.735  10.608   0.179 -0.9720  2.0317  0.5423
  335MOL0     H44180   4.889  10.774   0.096 -2.1036  0.0693  1.0622
  335MOL0     H44181   4.898  10.695  -0.069  0.9335  1.8495  0.6792
  335MOL0     H44182   5.114  10.845   0.072  2.1910  3.0022  2.0469
  335MOL0     H44183   5.314  10.894   0.157  0.9119 -0.4746 -0.0239
  335MOL0     H44184   5.811  10.794   0.119 -1.0979  2.9461  2.7225
  335MOL0     H44185   6.048  10.773   0.138 -1.7497 -0.2077 -3.0027
  335MOL0     H44186   6.169  10.832   0.333 -1.1451 -0.4909 -2.0295
  335MOL0     H44187   6.264  10.762   0.203 -1.1618  1.0389  0.0923
  335MOL0     H44188   6.406  10.655   0.390  3.5118  0.9990 -1.9810
  335MOL0     H44189   6.337  10.775   0.498  3.2525 -1.1948  0.0578
  335MOL0     H44190   6.421  10.948   0.331  0.9093 -1.0760 -3.6904
  335MOL0     H44191   6.516  10.815   0.266  2.1133  1.2189  0.1999
  335MOL0     H44192   6.549  10.911   0.538 -1.0331 -0.0066 -0.5171
  335MOL0     H44193   6.643  10.772   0.463 -1.4536 -1.6745 -2.0259
  335MOL0     H44194   6.630  11.060   0.382  0.0533  0.8756 -0.1243
  335MOL0     H44195   6.738  10.938   0.293 -1.3537 -1.9717  0.4448
  335MOL0     H44196   6.869  11.061   0.426 -2.0499  0.7474 -1.1327
  335MOL0     H44197   6.877  10.903   0.478  0.1314  0.3157  0.1754
  335MOL0     H44198   6.687  11.089   0.621  2.0707  2.7257  1.3577
  335MOL0     H44199   6.745  10.925   0.660 -2.4474  1.7167  0.8974
  335MOL0     H44200   6.940  11.172   0.648 -0.5074  0.5808 -0.4728
  335MOL0     H44201   6.970  11.014   0.718 -2.3603 -0.6786  3.2935
  335MOL0     H44202   5.994  10.478   0.449 -1.4989 -0.1547  1.4711
  335MOL0     H44203   5.754  10.472   0.392 -2.1895  0.8394 -0.5904
  335MOL0     H44204   5.421  10.468   0.150 -0.7880 -0.0802  0.9960
  335MOL0     H44205   5.195  10.426   0.114  1.3762 -0.1235  0.4684
  335MOL0     H44206   3.256  11.105   0.236  1.7836 -3.0065  0.0867
  335MOL0     H44207   3.014  11.217   0.245  1.7271  0.2479  1.9614
  335MOL0     H44208   2.582  11.209   0.085 -0.4221 -1.2574 -0.3276
  335MOL0     H44209   2.332  11.238   0.083  2.9799 -0.6969 -0.8804
  335MOL0     H44210   2.136  11.367   0.416 -0.1173  0.2612 -1.7242
  335MOL0     H44211   2.130  11.190   0.476  1.3991  0.5443 -0.8865
  335MOL0     H44212   1.924  11.340   0.295 -0.5852  0.3086  1.2413
  335MOL0     H44213   1.928  11.171   0.315 -0.0787 -0.1730 -1.0986
  335MOL0     H44214   1.887  11.393   0.514 -2.8634  0.3616 -0.2235
  335MOL0     H44215   1.894  11.220   0.569 -3.7036 -0.5049 -0.1719
  335MOL0     H44216   1.697  11.339   0.362 -1.1379  1.5601  1.9144
  335MOL0     H44217   1.696  11.172   0.402 -0.3899  0.8160 -0.3152
  335MOL0     H44218   1.515  11.359   0.736  0.2464 -2.1116 -0.6175
  335MOL0     H44219   2.326  11.162   0.512 -0.6055 -0.7977  0.4081
  335MOL0     H44220   2.574  11.159   0.509  1.0514 -0.5343 -1.7360
  336MOL0     O44221   8.916   0.107   7.327  0.8488 -0.0431  0.0069
  336MOL0     C44222   8.941   0.121   7.207  0.4803 -0.0732  0.0398
  336MOL0     O44223   8.861   0.086   7.108 -0.0765  1.0412 -0.3167
  336MOL0     C44224   8.738   0.044   7.121  1.1667  0.4661  0.3990
  336MOL0     C44225   8.708  -0.089   7.165 -0.1635  0.0747 -0.0948
  336MOL0     C44226   8.578  -0.145   7.177 -0.4974 -0.0081 -0.9523
  336MOL0     C44227   8.467  -0.058   7.167  1.0161 -0.7872 -0.2327
  336MOL0     O44228   8.341  -0.109   7.178 -0.6078  0.5583  0.2418
  336MOL0     C44229   8.231  -0.052   7.105  0.0750 -0.4285  0.7771
  336MOL0     C44230   8.099  -0.124   7.118  0.6218  0.3014 -0.0431
  336MOL0     C44231   8.017  -0.076   7.238  0.8357 -0.1201  0.5994
  336MOL0     C44232   7.876  -0.126   7.223  0.0328 -0.0081 -0.1132
  336MOL0     C44233   7.791  -0.049   7.327 -0.4861 -0.3032  0.0057
  336MOL0     C44234   7.639  -0.090   7.335 -0.1988  0.5102 -0.1041
  336MOL0     C44235   7.563   0.005   7.439 -0.4111 -0.2760 -0.4618
  336MOL0     C44236   7.419  -0.034   7.453  0.2170  0.3447 -0.9972
  336MOL0     N44237   7.355   0.025   7.327 -0.5425  0.0297  0.2318
  336MOL0     C44238   7.329  -0.052   7.213 -0.0542 -0.0005  0.0842
  336MOL0     C44239   7.311   0.043   7.118  0.3999 -0.1488 -0.7254
  336MOL0     C44240   7.299   0.021   6.968 -0.2303 -0.3977 -0.9520
  336MOL0     C44241   7.157  -0.000   6.935  1.0829  0.6974 -0.1634
  336MOL0     C44242   7.082   0.136   6.945  0.4288  0.3711 -0.3859
  336MOL0     C44243   6.924   0.133   6.918 -0.2812  0.0353  0.1394
  336MOL0     O44244   6.859   0.027   6.991  0.4466 -0.2249 -0.8144
  336MOL0     C44245   6.724   0.013   6.968  0.8224 -0.2704 -0.5258
  336MOL0     C44246   6.676  -0.117   6.976  0.3070 -0.6416  0.1962
  336MOL0     C44247   6.542  -0.147   6.959  0.4889 -0.5600  0.2494
  336MOL0     C44248   6.447  -0.042   6.924 -1.2359  1.2376 -0.1442
  336MOL0     C44249   6.307  -0.072   6.895  1.2756 -0.4580  0.7609
  336MOL0     O44250   6.252  -0.183   6.955 -0.1727  0.1907 -0.0205
  336MOL0     C44251   6.115  -0.200   6.964 -1.1306  0.3209  0.8969
  336MOL0     C44252   6.007  -0.113   6.937  0.1259  0.7986  0.8893
  336MOL0     C44253   5.869  -0.157   6.961  0.3847 -0.0902 -0.5046
  336MOL0     C44254   5.838  -0.298   6.981  0.0376  0.6556  0.0629
  336MOL0     O44255   5.709  -0.341   7.010 -0.5240 -0.1122  0.2511
  336MOL0     C44256   5.640  -0.384   6.894 -0.2634 -0.4141  0.2217
  336MOL0     C44257   5.511  -0.465   6.941 -0.6950  0.1136  0.3481
  336MOL0     C44258   5.414  -0.358   7.007  0.3341 -0.1700 -0.8895
  336MOL0     C44259   5.283  -0.414   7.050  0.4010 -0.0553  0.1473
  336MOL0     C44260   5.210  -0.293   7.127  0.2894 -0.2175  0.1055
  336MOL0     C44261   5.071  -0.343   7.163  0.3110 -0.3456  0.2718
  336MOL0     C44262   5.010  -0.264   7.271  0.3146  0.5364  0.7607
  336MOL0     C44263   4.894  -0.325   7.356 -0.1610 -1.1002  0.6143
  336MOL0    Cl44264   4.763  -0.398   7.250  0.3379 -0.0010  0.6841
  336MOL0     C44265   5.949  -0.381   7.004  0.3553  0.1384  0.4567
  336MOL0     C44266   6.081  -0.335   7.007  0.6924  0.1891  0.6415
  336MOL0     O44267   6.254  -0.003   6.810  0.3189  0.2760  0.8079
  336MOL0     C44268   6.495   0.085   6.917 -0.1919 -0.9204 -0.2850
  336MOL0     C44269   6.632   0.119   6.941  0.4295 -0.1305 -0.4471
  336MOL0     N44270   7.322   0.167   7.172 -0.8708 -0.4391  0.1443
  336MOL0     N44271   7.342   0.159   7.298  0.3778 -0.4547 -1.1651
  336MOL0     C44272   8.495   0.076   7.135  0.0754 -0.1545  0.5249
  336MOL0     C44273   8.622   0.128   7.098  0.5084  0.5050  0.6145
  336MOL0     C44274   9.078   0.169   7.168 -0.3078  0.6459 -0.4496
  336MOL0     C44275   9.105   0.209   7.045  0.8791  0.2517  1.1347
  336MOL0     C44276   9.234   0.246   6.997  0.8882 -0.9102  0.8212
  336MOL0     C44277   9.343   0.258   7.087  0.2979 -0.8444 -0.1048
  336MOL0     O44278   9.471   0.299   7.058 -0.3662 -0.1549 -1.1180
  336MOL0     C44279   9.533   0.231   6.950 -0.4456  0.9254  0.5156
  336MOL0     C44280   9.661   0.307   6.931 -0.4112  0.1559  0.7236
  336MOL0     C44281   9.754   0.316   7.054 -0.7688 -0.9411  0.4012
  336MOL0     C44282   9.901   0.356   7.018 -0.2690 -0.7438 -0.3466
  336MOL0     C44283   9.995   0.353   7.138 -0.2444  0.0542  0.3979
  336MOL0     C44284  10.069   0.352   7.238 -0.0810 -0.1880  0.1692
  336MOL0     C44285   9.315   0.224   7.226 -0.4770  0.6717  0.7168
  336MOL0     C44286   9.182   0.176   7.258 -0.8084 -0.1605 -0.0779
  336MOL0     H44287   8.795  -0.153   7.173  1.0903 -0.1400 -7.5732
  336MOL0     H44288   8.558  -0.248   7.203 -2.4572  0.4537 -0.4179
  336MOL0     H44289   8.258  -0.070   7.000 -3.0836  4.4700 -1.2321
  336MOL0     H44290   8.223   0.056   7.116  1.7823 -0.2248  0.3262
  336MOL0     H44291   8.107  -0.232   7.125  0.8106  0.1972 -1.5696
  336MOL0     H44292   8.040  -0.110   7.027  2.0649  0.2842 -1.0059
  336MOL0     H44293   8.004   0.033   7.246 -0.1522 -0.1705 -0.1439
  336MOL0     H44294   8.072  -0.103   7.329  0.1225  0.4382  1.2203
  336MOL0     H44295   7.838  -0.101   7.123 -1.8740  1.1104  0.8197
  336MOL0     H44296   7.871  -0.229   7.257  0.4094  0.3483  1.0705
  336MOL0     H44297   7.801   0.060   7.324  0.8950 -0.3499  1.5488
  336MOL0     H44298   7.835  -0.087   7.420  1.3476 -1.9463 -1.4429
  336MOL0     H44299   7.624  -0.193   7.366  2.0291 -0.1927 -1.1137
  336MOL0     H44300   7.593  -0.078   7.236 -0.8633  1.2486  0.2878
  336MOL0     H44301   7.603  -0.012   7.539  0.8474 -0.6496 -1.0030
  336MOL0     H44302   7.579   0.112   7.420  3.8182 -0.9903 -2.0742
  336MOL0     H44303   7.376  -0.004   7.549 -0.3943 -3.5535  0.1319
  336MOL0     H44304   7.411  -0.143   7.462  0.5832  0.4548  1.3197
  336MOL0     H44305   7.331  -0.159   7.196  0.5366  0.2629 -1.6320
  336MOL0     H44306   7.360  -0.065   6.940  3.0775  0.9237  1.4794
  336MOL0     H44307   7.350   0.102   6.917  0.0927 -0.0488 -0.1030
  336MOL0     H44308   7.125  -0.078   7.005 -0.7173  0.2490 -1.4460
  336MOL0     H44309   7.155  -0.038   6.833 -0.3814  1.1534 -0.3210
  336MOL0     H44310   7.075   0.160   7.051 -0.8223 -1.8711  0.1012
  336MOL0     H44311   7.144   0.209   6.892  1.5799  0.9728  1.6627
  336MOL0     H44312   6.903   0.111   6.813  2.5769  2.1918 -1.0310
  336MOL0     H44313   6.881   0.230   6.944 -1.6032 -0.8412  1.3417
  336MOL0     H44314   6.746  -0.199   6.991 -2.5980 -3.5653 -1.0089
  336MOL0     H44315   6.508  -0.250   6.958 -1.7481  0.1105 -2.0142
  336MOL0     H44316   6.025  -0.007   6.921  0.5262  0.3620 -2.0324
  336MOL0     H44317   5.788  -0.085   6.954 -0.0232 -0.6007 -1.1719
  336MOL0     H44318   5.701  -0.456   6.839  1.7663 -1.2428  3.2667
  336MOL0     H44319   5.616  -0.304   6.823  0.4792 -0.4920 -0.1312
  336MOL0     H44320   5.537  -0.547   7.009 -0.0470  0.5976  0.6970
  336MOL0     H44321   5.465  -0.500   6.848 -0.7435 -1.2821  0.8796
  336MOL0     H44322   5.409  -0.273   6.938  2.3924 -1.5837 -2.9392
  336MOL0     H44323   5.466  -0.326   7.098  1.6417 -0.9753 -1.3159
  336MOL0     H44324   5.227  -0.455   6.965 -0.9130 -1.2707  1.5513
  336MOL0     H44325   5.305  -0.496   7.119 -0.6465 -1.5263 -1.1642
  336MOL0     H44326   5.216  -0.209   7.057  1.7655 -1.8087 -1.7878
  336MOL0     H44327   5.258  -0.274   7.224 -1.4678 -0.1960  1.0119
  336MOL0     H44328   5.068  -0.447   7.197  1.2071 -0.7510 -0.8375
  336MOL0     H44329   5.007  -0.355   7.075  0.0022 -1.7620  0.6629
  336MOL0     H44330   5.075  -0.209   7.340 -0.8307  1.1120  1.4201
  336MOL0     H44331   4.953  -0.190   7.214 -0.9984 -0.4251  0.7887
  336MOL0     H44332   4.849  -0.241   7.409 -2.2682 -3.1213  2.2314
  336MOL0     H44333   4.938  -0.394   7.428  1.6137  1.0594  1.7175
  336MOL0     H44334   5.942  -0.486   7.031  5.7007 -0.8714 -0.9609
  336MOL0     H44335   6.168  -0.400   7.017 -0.3336 -1.7371 -1.7245
  336MOL0     H44336   6.448   0.180   6.895  4.7356  2.8468  3.1943
  336MOL0     H44337   6.675   0.219   6.948 -0.7637  0.2796  1.7126
  336MOL0     H44338   8.409   0.141   7.141  0.6303  0.5996  0.3897
  336MOL0     H44339   8.627   0.226   7.052  2.5483 -1.1758 -3.2146
  336MOL0     H44340   9.025   0.190   6.973 -1.7167  1.0488  3.6383
  336MOL0     H44341   9.243   0.273   6.892  0.3546 -3.7882 -0.0518
  336MOL0     H44342   9.481   0.228   6.854  3.1669  1.8951 -1.7026
  336MOL0     H44343   9.569   0.132   6.981  1.1902  1.5723  0.7943
  336MOL0     H44344   9.721   0.267   6.849 -1.5276  0.3054 -0.1886
  336MOL0     H44345   9.640   0.411   6.905  2.8440  0.8746  0.6183
  336MOL0     H44346   9.762   0.227   7.118  0.1436 -1.3675 -0.2872
  336MOL0     H44347   9.708   0.397   7.111 -1.5777  0.3058 -1.8957
  336MOL0     H44348   9.941   0.289   6.941  0.1125 -0.8564 -0.0546
  336MOL0     H44349   9.889   0.457   6.977 -2.3555 -0.9657 -0.4314
  336MOL0     H44350  10.127   0.356   7.327 -2.8948  0.0452  2.1317
  336MOL0     H44351   9.392   0.231   7.302 -0.3410  3.9867  0.4310
  336MOL0     H44352   9.169   0.153   7.363 -2.0637 -1.1200 -0.4069
  337MOL0     O44353   7.275   2.346   4.936  0.2369  0.7518 -0.4559
  337MOL0     C44354   7.225   2.385   5.036 -0.4272  0.0693 -0.1462
  337MOL0     O44355   7.093   2.403   5.052 -0.3569  0.4915  0.3269
  337MOL0     C44356   7.004   2.390   4.952 -0.1064 -0.4769 -0.3750
  337MOL0     C44357   7.020   2.315   4.831  0.0896  0.3310  0.0622
  337MOL0     C44358   6.914   2.327   4.737  0.9733  0.7506  0.2636
  337MOL0     C44359   6.794   2.402   4.759 -0.7065 -0.1962 -0.4391
  337MOL0     O44360   6.691   2.403   4.677  0.2049 -0.2737  0.2188
  337MOL0     C44361   6.703   2.425   4.529  0.7669 -0.7094  0.4026
  337MOL0     C44362   6.574   2.373   4.447  0.3609 -0.1696  0.6106
  337MOL0     C44363   6.446   2.399   4.522  0.8108 -0.4379  0.2896
  337MOL0     C44364   6.323   2.336   4.449 -0.7452  0.7339  0.5466
  337MOL0     C44365   6.205   2.328   4.544 -0.0910  0.0853 -1.0266
  337MOL0     C44366   6.076   2.265   4.497  0.7642 -0.0635  0.3562
  337MOL0     C44367   5.955   2.279   4.590  0.3860 -0.2103 -0.3930
  337MOL0     C44368   5.981   2.208   4.723  0.6316  0.2700  0.1768
  337MOL0     N44369   5.863   2.161   4.792 -0.5405 -0.2971 -0.8937
  337MOL0     C44370   5.886   2.081   4.903 -0.2193  0.4293 -0.4112
  337MOL0     C44371   5.774   2.074   4.968  0.8560  1.1489  0.0533
  337MOL0     C44372   5.752   1.991   5.098  0.3737  0.8202  0.1705
  337MOL0     C44373   5.626   2.046   5.174 -0.3993 -0.0143 -0.2461
  337MOL0     C44374   5.590   1.965   5.295  0.3004  0.0613 -0.1072
  337MOL0     C44375   5.705   1.902   5.375 -0.4319 -0.0272  0.0338
  337MOL0     O44376   5.804   1.992   5.414 -0.0391 -0.1603  0.1577
  337MOL0     C44377   5.928   1.946   5.463 -0.2618 -1.4304 -0.3820
  337MOL0     C44378   6.047   2.021   5.442  0.0240 -0.5052 -0.1942
  337MOL0     C44379   6.167   1.991   5.504 -0.5513 -0.0483  0.3230
  337MOL0     C44380   6.173   1.876   5.584  0.4322 -0.2770 -0.7573
  337MOL0     C44381   6.296   1.845   5.659  0.0502 -0.2724 -0.7958
  337MOL0     O44382   6.409   1.909   5.617 -0.5641  1.4514  0.2522
  337MOL0     C44383   6.539   1.895   5.662 -0.6345 -0.2735  0.2163
  337MOL0     C44384   6.618   2.005   5.635  0.1610  0.5834 -0.0789
  337MOL0     C44385   6.755   2.004   5.676  0.5181 -1.1777 -0.0545
  337MOL0     C44386   6.804   1.910   5.755 -0.1509  0.1231  0.9120
  337MOL0     O44387   6.933   1.920   5.808  0.7051 -0.0299  0.1906
  337MOL0     C44388   6.970   1.837   5.921  1.1898 -0.3500  0.5786
  337MOL0     C44389   7.092   1.901   5.990 -0.5714  0.2912 -0.4808
  337MOL0     C44390   7.045   2.019   6.073 -0.1513 -0.9214 -0.3812
  337MOL0     C44391   7.152   2.072   6.174 -0.3069  0.7076 -0.2706
  337MOL0     C44392   7.099   2.183   6.268 -0.4106 -0.6185 -0.2177
  337MOL0     C44393   7.206   2.204   6.375 -0.4308 -0.4841  0.9948
  337MOL0     C44394   7.346   2.275   6.332 -0.2387  0.0109 -0.0648
  337MOL0     C44395   7.429   2.302   6.465 -0.0158  0.0318  1.0027
  337MOL0    Cl44396   7.575   2.401   6.414 -0.0480 -0.1185 -0.2968
  337MOL0     C44397   6.719   1.805   5.789  0.3177  0.3237  0.0529
  337MOL0     C44398   6.590   1.795   5.743  0.4869 -0.2261 -0.2925
  337MOL0     O44399   6.288   1.754   5.739  0.0997  0.5065 -0.3043
  337MOL0     C44400   6.061   1.801   5.599  0.5047 -0.1253 -0.4184
  337MOL0     C44401   5.941   1.832   5.540 -0.0395 -0.0171 -1.1549
  337MOL0     N44402   5.692   2.167   4.915  0.0310  1.0137  0.3981
  337MOL0     N44403   5.743   2.220   4.815  0.4497  0.1294 -0.1666
  337MOL0     C44404   6.789   2.469   4.879  0.1678 -0.0000 -0.2551
  337MOL0     C44405   6.891   2.470   4.973 -0.6111 -0.0467  1.0145
  337MOL0     C44406   7.322   2.400   5.148  0.9648  0.6212  0.4899
  337MOL0     C44407   7.274   2.448   5.275 -0.4769  0.2326 -0.1139
  337MOL0     C44408   7.371   2.491   5.371  0.0837  0.9437  0.9604
  337MOL0     C44409   7.507   2.478   5.348  0.0379  0.4513  0.3013
  337MOL0     O44410   7.603   2.525   5.439  0.1845  0.2942 -0.3886
  337MOL0     C44411   7.635   2.437   5.548  0.2314  0.2618 -0.4188
  337MOL0     C44412   7.733   2.485   5.654 -0.8517 -0.4035  0.2727
  337MOL0     C44413   7.866   2.542   5.595 -0.3478 -0.8659  0.4369
  337MOL0     C44414   7.974   2.533   5.700 -0.4754  0.8306  0.1347
  337MOL0     C44415   8.095   2.583   5.634  0.3397 -0.2592 -1.1245
  337MOL0     C44416   8.193   2.634   5.587 -0.9165 -0.2912 -0.1905
  337MOL0     C44417   7.553   2.422   5.226 -0.1677  0.9222 -0.7372
  337MOL0     C44418   7.458   2.390   5.132 -1.1005 -0.5040  0.8134
  337MOL0     H44419   7.108   2.254   4.814  1.4151  0.8020  4.0702
  337MOL0     H44420   6.917   2.281   4.639 -0.7741  1.7157 -0.2865
  337MOL0     H44421   6.800   2.394   4.490  0.3986  0.1810 -1.3171
  337MOL0     H44422   6.713   2.533   4.518  1.6669 -0.7517  0.7568
  337MOL0     H44423   6.580   2.265   4.431  1.4529  0.2338 -2.3073
  337MOL0     H44424   6.575   2.426   4.351 -0.7576 -4.2302 -1.9243
  337MOL0     H44425   6.443   2.509   4.529  2.4668 -0.4479  2.7006
  337MOL0     H44426   6.447   2.363   4.625  1.0341 -0.9560  0.1074
  337MOL0     H44427   6.298   2.387   4.355 -1.0706 -0.3779  0.0023
  337MOL0     H44428   6.353   2.233   4.423 -0.8494  0.7151  0.4989
  337MOL0     H44429   6.174   2.419   4.596 -4.0840 -1.7144  0.1841
  337MOL0     H44430   6.242   2.265   4.626 -0.1557  1.1389 -0.1614
  337MOL0     H44431   6.088   2.159   4.472 -1.3651 -0.1367 -0.5595
  337MOL0     H44432   6.040   2.326   4.414  0.9967 -0.0621  0.2543
  337MOL0     H44433   5.949   2.387   4.602 -0.7405  0.1441 -3.3239
  337MOL0     H44434   5.866   2.249   4.534 -0.9282 -0.0561  1.5195
  337MOL0     H44435   6.052   2.263   4.786  0.1871 -0.6659  1.5527
  337MOL0     H44436   6.036   2.116   4.702  1.5099  0.3875  1.7822
  337MOL0     H44437   5.973   2.019   4.925 -2.1972 -2.6854 -0.8070
  337MOL0     H44438   5.837   2.004   5.165  1.3107 -1.4305 -0.4766
  337MOL0     H44439   5.739   1.887   5.068 -0.4611  0.5583  1.3639
  337MOL0     H44440   5.535   2.062   5.116  0.6028 -1.1580 -2.2265
  337MOL0     H44441   5.645   2.152   5.192  1.2863 -0.5706  1.6056
  337MOL0     H44442   5.537   2.042   5.351  2.3055  0.6677  1.0242
  337MOL0     H44443   5.525   1.877   5.286  0.2042  0.0628  0.5626
  337MOL0     H44444   5.754   1.826   5.313  0.7436 -0.7220  1.7317
  337MOL0     H44445   5.672   1.847   5.463  0.5752 -1.6705 -0.5572
  337MOL0     H44446   6.047   2.102   5.369 -1.8096 -1.0231 -0.8229
  337MOL0     H44447   6.246   2.065   5.492 -1.3626  0.5704 -1.6122
  337MOL0     H44448   6.574   2.091   5.584 -0.7596  0.0919 -0.1263
  337MOL0     H44449   6.821   2.088   5.657 -1.0900  0.6304  1.8762
  337MOL0     H44450   7.007   1.743   5.878  3.5929  0.5779  0.4940
  337MOL0     H44451   6.888   1.811   5.988  1.1612 -0.0837  0.6451
  337MOL0     H44452   7.163   1.928   5.911  1.7492 -0.2572  1.3329
  337MOL0     H44453   7.145   1.821   6.043  1.1889  0.1552 -2.3045
  337MOL0     H44454   6.964   1.982   6.136  0.5840 -1.4938  0.2396
  337MOL0     H44455   6.998   2.097   6.011  1.4494  0.6886  0.3520
  337MOL0     H44456   7.186   1.988   6.236 -0.1703  0.5225 -0.5974
  337MOL0     H44457   7.239   2.107   6.119  0.1124  1.3372  0.7675
  337MOL0     H44458   7.005   2.150   6.314 -0.4428  1.1681  1.0721
  337MOL0     H44459   7.097   2.276   6.211  0.9492 -0.9169 -0.7981
  337MOL0     H44460   7.237   2.103   6.405  3.6871 -0.0261 -1.0711
  337MOL0     H44461   7.162   2.260   6.458  2.5667  1.2645  1.5417
  337MOL0     H44462   7.415   2.215   6.272 -0.4280  0.7343 -1.0305
  337MOL0     H44463   7.326   2.367   6.278  0.0566 -0.9018 -1.8011
  337MOL0     H44464   7.455   2.209   6.517 -0.7069  0.2914  1.8291
  337MOL0     H44465   7.367   2.364   6.531  2.0938  0.4674  2.6465
  337MOL0     H44466   6.740   1.731   5.866  2.3571  2.2303  1.4487
  337MOL0     H44467   6.523   1.717   5.779  0.0345 -0.5398 -1.7412
  337MOL0     H44468   6.074   1.716   5.665  0.4858  0.0417 -0.1991
  337MOL0     H44469   5.853   1.773   5.563 -0.2832  0.9248  0.4947
  337MOL0     H44470   6.704   2.532   4.899  1.6011  1.6734  0.8319
  337MOL0     H44471   6.881   2.541   5.054 -0.7356  0.0907  0.8790
  337MOL0     H44472   7.170   2.450   5.306 -0.0566 -1.7795  1.6277
  337MOL0     H44473   7.341   2.524   5.470  3.2983 -0.0659  2.3961
  337MOL0     H44474   7.662   2.338   5.509 -1.9359 -1.0746  1.2853
  337MOL0     H44475   7.546   2.404   5.601  0.0600  0.7694 -0.3814
  337MOL0     H44476   7.689   2.566   5.712 -0.3471  0.2046 -0.1782
  337MOL0     H44477   7.766   2.405   5.721  1.1583 -0.6942 -0.9794
  337MOL0     H44478   7.856   2.648   5.573  0.8084 -1.1012 -1.4203
  337MOL0     H44479   7.890   2.478   5.509 -1.7412  0.9908 -1.4387
  337MOL0     H44480   7.947   2.580   5.795 -2.2015 -0.1136  0.1675
  337MOL0     H44481   7.987   2.429   5.729  0.4319  0.7966 -0.3669
  337MOL0     H44482   8.289   2.669   5.556 -0.9304  1.8838  1.9557
  337MOL0     H44483   7.657   2.418   5.197  0.1680 -1.4335  0.5474
  337MOL0     H44484   7.492   2.358   5.034  0.4428  1.1076  0.7693
  338MOL0     O44485  10.127   1.695  10.365 -0.1987 -0.0160 -0.1897
  338MOL0     C44486  10.062   1.800  10.382 -0.6613  0.0150 -0.0471
  338MOL0     O44487  10.102   1.926  10.371  0.2391 -0.5341  0.1176
  338MOL0     C44488  10.232   1.948  10.325 -0.0912 -0.0470 -0.2311
  338MOL0     C44489  10.339   2.010  10.400 -0.1335 -0.1670 -0.1324
  338MOL0     C44490  10.465   2.031  10.344  0.0441 -0.1090  0.2404
  338MOL0     C44491  10.499   1.978  10.214 -0.3782 -0.6870 -0.7126
  338MOL0     O44492  10.627   1.984  10.159  0.7092  0.1635 -0.1790
  338MOL0     C44493  10.726   2.051  10.239  0.1127 -0.6233 -0.4145
  338MOL0     C44494  10.851   2.078  10.158 -0.8228  0.1102  0.0116
  338MOL0     C44495  10.911   1.939  10.118 -0.4256  0.5929 -0.5053
  338MOL0     C44496  11.035   1.946  10.033 -0.6943 -0.2052  0.5050
  338MOL0     C44497  11.102   1.805  10.020 -0.0776  0.2820  0.5350
  338MOL0     C44498  11.196   1.812   9.906  0.0068 -0.8711  0.8692
  338MOL0     C44499  11.283   1.687   9.916 -0.4645 -0.3512 -0.0992
  338MOL0     C44500  11.385   1.669   9.802 -0.4186  0.0317  0.0421
  338MOL0     N44501  11.470   1.784   9.778 -0.4728 -0.7346 -0.5854
  338MOL0     C44502  11.448   1.916   9.733  0.7976  0.5601  0.5886
  338MOL0     C44503  11.560   1.983   9.749  0.8503 -0.7317 -0.4280
  338MOL0     C44504  11.569   2.133   9.717  0.0159 -0.5622  1.0960
  338MOL0     C44505  11.684   2.156   9.620  0.2388 -0.3753 -0.2861
  338MOL0     C44506  11.667   2.270   9.527 -0.3759  0.4208  0.8035
  338MOL0     C44507  11.656   2.229   9.374 -0.6225 -0.8127 -0.3414
  338MOL0     O44508  11.594   2.311   9.287  0.2672 -0.3686 -0.0549
  338MOL0     C44509  11.457   2.331   9.313 -1.2198  0.4206 -0.5696
  338MOL0     C44510  11.367   2.226   9.305  1.7707  0.3699  0.5665
  338MOL0     C44511  11.233   2.251   9.333  0.0873  0.2430 -1.3896
  338MOL0     C44512  11.187   2.376   9.377  0.2320 -1.1904  0.5607
  338MOL0     C44513  11.047   2.403   9.414  1.3814 -0.6393  0.1844
  338MOL0     O44514  10.968   2.298   9.427  0.3973 -0.5137 -0.2726
  338MOL0     C44515  10.833   2.310   9.412  0.7496 -0.3924  0.8490
  338MOL0     C44516  10.766   2.217   9.477 -0.3902  0.9104 -0.6961
  338MOL0     C44517  10.628   2.212   9.486  0.2644  1.2172  0.0538
  338MOL0     C44518  10.556   2.315   9.419 -0.2085  0.1625 -0.3371
  338MOL0     O44519  10.419   2.321   9.418 -0.1794 -0.1601 -0.1976
  338MOL0     C44520  10.329   2.239   9.490 -0.2120  0.3880 -0.7802
  338MOL0     C44521  10.260   2.322   9.601  0.8851  0.5637 -0.4474
  338MOL0     C44522  10.131   2.239   9.658 -0.9303 -0.0342  0.0130
  338MOL0     C44523  10.099   2.303   9.784  0.6579  0.2062 -0.0633
  338MOL0     C44524  10.023   2.213   9.891 -0.9249 -0.6361 -0.0859
  338MOL0     C44525   9.895   2.142   9.861 -1.2306 -0.5014  0.7430
  338MOL0     C44526   9.847   2.041   9.961 -0.4736 -0.1699  0.7844
  338MOL0     C44527   9.925   1.914   9.951 -0.0309 -0.9752 -0.4006
  338MOL0    Cl44528   9.845   1.786  10.040 -0.3468  0.0589 -0.0832
  338MOL0     C44529  10.621   2.425   9.352  0.0905  0.2555 -0.3074
  338MOL0     C44530  10.761   2.414   9.344  0.3215  0.4135 -0.8161
  338MOL0     O44531  11.012   2.522   9.436  0.4326 -0.6697 -0.3493
  338MOL0     C44532  11.281   2.477   9.387  0.0742 -0.2261  1.0713
  338MOL0     C44533  11.421   2.455   9.366  0.7458  0.3905  0.3252
  338MOL0     N44534  11.658   1.895   9.792  0.2498 -0.1746  0.5456
  338MOL0     N44535  11.604   1.779   9.811  0.4607 -0.1043 -0.1298
  338MOL0     C44536  10.390   1.927  10.143  0.7667 -0.4281 -0.4292
  338MOL0     C44537  10.259   1.916  10.193 -0.6107  1.2883  0.7362
  338MOL0     C44538   9.918   1.783  10.416  0.7805  0.3179  0.3476
  338MOL0     C44539   9.834   1.898  10.460 -0.1507  0.6878 -0.4553
  338MOL0     C44540   9.697   1.878  10.478 -0.2359  0.3463  0.7060
  338MOL0     C44541   9.640   1.752  10.463 -0.3085 -0.3984  0.3427
  338MOL0     O44542   9.511   1.708  10.488 -0.1437  0.0858 -0.0510
  338MOL0     C44543   9.412   1.807  10.537  0.5172 -0.4428 -0.5076
  338MOL0     C44544   9.421   1.820  10.687 -0.0298 -0.0866 -0.0468
  338MOL0     C44545   9.329   1.729  10.759 -0.2553  0.3111  0.5977
  338MOL0     C44546   9.185   1.789  10.779  0.6500  0.9926 -0.0443
  338MOL0     C44547   9.105   1.823  10.658 -0.2222  0.3275 -0.7069
  338MOL0     C44548   9.046   1.845  10.557 -0.5520 -0.9459 -0.5900
  338MOL0     C44549   9.722   1.645  10.427  0.7564  0.0598  0.2111
  338MOL0     C44550   9.857   1.660  10.403  0.7367  0.0897 -0.6641
  338MOL0     H44551  10.310   2.035  10.501  1.3640  2.7845 -0.3227
  338MOL0     H44552  10.538   2.079  10.409 -0.4129  2.9539 -1.3142
  338MOL0     H44553  10.748   1.985  10.323 -3.6200 -0.8250  0.5904
  338MOL0     H44554  10.695   2.149  10.276 -1.0955 -0.9035 -0.6561
  338MOL0     H44555  10.916   2.138  10.222 -0.3248 -0.7949  0.3727
  338MOL0     H44556  10.839   2.143  10.071  0.0951  1.8782  1.1611
  338MOL0     H44557  10.843   1.880  10.056 -0.2997 -0.7804  0.6097
  338MOL0     H44558  10.938   1.877  10.205 -0.6059  0.4129 -0.5770
  338MOL0     H44559  11.009   1.992   9.937 -0.2194  0.2514  0.5849
  338MOL0     H44560  11.113   2.014  10.070 -0.3022  0.5864 -1.6306
  338MOL0     H44561  11.031   1.727   9.989  1.5653 -0.6303 -1.1544
  338MOL0     H44562  11.152   1.774  10.112 -0.9641 -1.2912  0.5279
  338MOL0     H44563  11.254   1.905   9.916 -0.0070 -0.9582  1.8275
  338MOL0     H44564  11.135   1.816   9.816  0.0019  0.0991  0.9036
  338MOL0     H44565  11.338   1.682  10.011 -0.4331 -3.5150 -0.1558
  338MOL0     H44566  11.215   1.602   9.907 -0.0584 -0.4949 -2.4236
  338MOL0     H44567  11.318   1.651   9.718 -1.2554  1.3867  0.3954
  338MOL0     H44568  11.459   1.592   9.828  0.4576  1.2863  1.4211
  338MOL0     H44569  11.346   1.952   9.723  0.9062  1.3038  1.9832
  338MOL0     H44570  11.584   2.191   9.808 -2.2144  0.2167  1.0017
  338MOL0     H44571  11.473   2.164   9.676  0.1527 -0.9404  0.4542
  338MOL0     H44572  11.701   2.059   9.571  1.5991 -1.4592  2.0956
  338MOL0     H44573  11.770   2.184   9.683 -1.3942  4.8840  0.0810
  338MOL0     H44574  11.581   2.329   9.559 -1.4865 -0.1271 -1.0434
  338MOL0     H44575  11.756   2.332   9.544 -0.6129  0.4093  2.2830
  338MOL0     H44576  11.625   2.124   9.365 -0.1300 -0.8627 -1.8688
  338MOL0     H44577  11.761   2.224   9.342 -0.1006  0.6963  1.0437
  338MOL0     H44578  11.405   2.130   9.272 -1.1474 -0.1643 -1.6551
  338MOL0     H44579  11.155   2.175   9.328 -1.0849  0.9700  2.5017
  338MOL0     H44580  10.820   2.134   9.521 -1.9935 -1.1688 -2.4380
  338MOL0     H44581  10.596   2.124   9.540 -1.9533  1.1767 -1.1929
  338MOL0     H44582  10.366   2.149   9.539 -1.0753  0.8036  0.6915
  338MOL0     H44583  10.249   2.209   9.422  1.4149 -1.9779 -1.8253
  338MOL0     H44584  10.223   2.412   9.550  0.9576 -0.1899 -1.9041
  338MOL0     H44585  10.321   2.343   9.689 -2.6419  1.0840  2.1078
  338MOL0     H44586  10.166   2.140   9.688 -0.0809  0.5142  0.8647
  338MOL0     H44587  10.058   2.227   9.577 -1.1176 -0.3146  0.2213
  338MOL0     H44588  10.190   2.336   9.834  0.6577 -0.7961  0.6135
  338MOL0     H44589  10.036   2.392   9.770  0.2326 -0.2956 -1.6041
  338MOL0     H44590  10.013   2.265   9.987 -0.6432 -2.1381  0.7922
  338MOL0     H44591  10.093   2.132   9.913  0.0592  0.1003 -0.4741
  338MOL0     H44592   9.911   2.096   9.763  0.6014 -1.2709  1.3474
  338MOL0     H44593   9.812   2.210   9.840 -2.5928 -2.2108  0.3157
  338MOL0     H44594   9.858   2.080  10.062 -1.7660  1.4680  0.3392
  338MOL0     H44595   9.743   2.016   9.937 -1.2972  3.4493 -0.0301
  338MOL0     H44596  10.032   1.932   9.970  0.5012 -1.3686 -2.7311
  338MOL0     H44597   9.924   1.887   9.845 -1.4172  0.2264 -0.7148
  338MOL0     H44598  10.565   2.505   9.305 -0.9349 -0.6855 -0.7195
  338MOL0     H44599  10.821   2.492   9.298 -1.3725  1.0880 -2.0041
  338MOL0     H44600  11.254   2.577   9.418 -0.8502  0.0975 -0.6423
  338MOL0     H44601  11.484   2.542   9.384  1.4205  0.2459 -1.2346
  338MOL0     H44602  10.421   1.898  10.043  0.9110 -0.0258 -0.5042
  338MOL0     H44603  10.189   1.882  10.116  2.3683 -3.4155 -0.2887
  338MOL0     H44604   9.868   2.001  10.467 -0.7159  0.7853  1.4005
  338MOL0     H44605   9.640   1.967  10.504 -1.0300  0.0298  0.1134
  338MOL0     H44606   9.308   1.779  10.518  0.1503 -0.6429  1.5180
  338MOL0     H44607   9.427   1.908  10.496  0.7156  0.1866  1.0311
  338MOL0     H44608   9.525   1.806  10.716 -0.2811 -2.9959 -0.2926
  338MOL0     H44609   9.400   1.927  10.698  0.5578  0.1011 -0.6925
  338MOL0     H44610   9.376   1.711  10.856  0.2997  1.9475  0.6780
  338MOL0     H44611   9.324   1.638  10.700 -1.6135  0.6752  0.1016
  338MOL0     H44612   9.124   1.719  10.838 -2.9043  1.7136 -2.5545
  338MOL0     H44613   9.196   1.879  10.842 -1.1038 -0.4972  2.5835
  338MOL0     H44614   8.991   1.886  10.475 -0.6106  0.6667  0.2197
  338MOL0     H44615   9.674   1.548  10.436  1.3018 -0.1491  0.9478
  338MOL0     H44616   9.923   1.577  10.379  0.1877 -0.8945  1.0264
  339MOL0     O44617   4.699   4.574   0.943  0.0723  0.4354 -0.1584
  339MOL0     C44618   4.782   4.501   0.993  0.4389  0.0095  0.5356
  339MOL0     O44619   4.758   4.372   1.010  0.1875  0.8691 -0.0975
  339MOL0     C44620   4.653   4.315   0.950  0.7575 -0.1411 -0.0892
  339MOL0     C44621   4.619   4.310   0.815  0.0484 -0.0813  1.2006
  339MOL0     C44622   4.512   4.225   0.770  0.3941  0.2361 -0.3770
  339MOL0     C44623   4.436   4.153   0.856  0.3347 -0.2372 -0.1334
  339MOL0     O44624   4.348   4.056   0.811  0.2940 -0.0247 -0.3883
  339MOL0     C44625   4.282   4.075   0.677  0.3426  0.9722  0.5273
  339MOL0     C44626   4.159   3.979   0.664  0.3276 -0.3081 -0.1742
  339MOL0     C44627   4.041   4.043   0.751 -0.4382  0.1547  0.4129
  339MOL0     C44628   3.917   3.957   0.715  0.1807 -0.0411 -0.0320
  339MOL0     C44629   3.787   4.027   0.758 -0.3168  0.2985  0.9883
  339MOL0     C44630   3.674   4.013   0.659 -1.1155  0.7459  1.1030
  339MOL0     C44631   3.552   4.103   0.687  0.1493  0.1918  1.1350
  339MOL0     C44632   3.469   4.119   0.562  0.3405 -0.0481 -0.5014
  339MOL0     N44633   3.401   3.995   0.535  0.3054  0.7370  0.1350
  339MOL0     C44634   3.269   3.989   0.500  0.2992  0.1835  0.3676
  339MOL0     C44635   3.246   3.864   0.449  0.1071  0.0599  0.0938
  339MOL0     C44636   3.121   3.801   0.411  0.5197 -0.8874 -0.0449
  339MOL0     C44637   3.017   3.823   0.524  0.1085  0.0630 -0.8181
  339MOL0     C44638   2.873   3.800   0.498  1.0712  1.2988 -0.8859
  339MOL0     C44639   2.796   3.797   0.632  0.1479  0.1010  1.0597
  339MOL0     O44640   2.703   3.695   0.618  0.6319 -0.8057 -0.5872
  339MOL0     C44641   2.615   3.682   0.723 -0.5940 -0.7302 -0.6730
  339MOL0     C44642   2.506   3.602   0.696  0.5161 -0.3493  0.5199
  339MOL0     C44643   2.400   3.582   0.778  0.9310 -0.0642 -0.4717
  339MOL0     C44644   2.402   3.656   0.901  0.1436  0.1286  0.5668
  339MOL0     C44645   2.280   3.657   0.977 -0.4073  0.3142 -0.0980
  339MOL0     O44646   2.196   3.556   0.973  0.3280 -0.2152 -0.2312
  339MOL0     C44647   2.077   3.564   1.046 -0.0709 -0.3171 -0.1746
  339MOL0     C44648   2.079   3.550   1.189 -0.2117 -0.5357 -0.3609
  339MOL0     C44649   1.957   3.570   1.257 -0.4616 -0.2774  0.6963
  339MOL0     C44650   1.835   3.609   1.187  0.4736 -0.1349 -1.0191
  339MOL0     O44651   1.719   3.641   1.258  1.6620  0.6454 -0.0808
  339MOL0     C44652   1.685   3.553   1.363  0.3034  0.8232 -0.4479
  339MOL0     C44653   1.529   3.555   1.390  0.6998  0.3907 -0.1827
  339MOL0     C44654   1.435   3.571   1.267 -0.5027  0.1334  0.9629
  339MOL0     C44655   1.283   3.540   1.295  0.5370 -0.3950  0.2893
  339MOL0     C44656   1.192   3.576   1.180  0.4096  1.0241 -0.1786
  339MOL0     C44657   1.174   3.729   1.154 -0.0038 -0.6429  0.0501
  339MOL0     C44658   1.068   3.768   1.047  0.0161 -0.5232 -0.6540
  339MOL0     C44659   0.987   3.874   1.096  0.2877 -0.2488 -0.8961
  339MOL0    Cl44660   0.894   3.802   1.242 -0.3428 -0.1786  0.2034
  339MOL0     C44661   1.839   3.620   1.053 -0.0236 -0.2733 -0.1708
  339MOL0     C44662   1.958   3.594   0.978  0.4141  0.3968  0.3049
  339MOL0     O44663   2.258   3.766   1.022  0.2110  0.1088  0.5750
  339MOL0     C44664   2.510   3.738   0.932  0.5339 -0.7432 -0.5682
  339MOL0     C44665   2.626   3.746   0.847  0.9625  0.4642 -0.3942
  339MOL0     N44666   3.365   3.800   0.444  0.0399 -0.5272  0.4947
  339MOL0     N44667   3.452   3.875   0.491  0.3440  1.1304  0.2806
  339MOL0     C44668   4.461   4.169   0.998 -1.1214 -0.1304 -0.3279
  339MOL0     C44669   4.569   4.249   1.042 -0.7791 -0.6657 -0.0453
  339MOL0     C44670   4.918   4.556   1.024 -0.2523  0.2064 -0.4195
  339MOL0     C44671   5.007   4.475   1.092  0.3100 -0.8278  0.7527
  339MOL0     C44672   5.131   4.531   1.127 -0.4272 -0.2039  0.7447
  339MOL0     C44673   5.165   4.663   1.112  0.1737  0.1219  0.8806
  339MOL0     O44674   5.286   4.713   1.152 -0.1390  1.4732 -0.4713
  339MOL0     C44675   5.330   4.849   1.137 -0.1482  0.6465  0.1012
  339MOL0     C44676   5.472   4.859   1.174 -1.0664 -0.6994 -0.3468
  339MOL0     C44677   5.514   4.792   1.307 -0.8589  0.1247 -0.2448
  339MOL0     C44678   5.643   4.692   1.303  0.3371  0.7548  0.2271
  339MOL0     C44679   5.775   4.749   1.285 -1.1039  0.1764  0.4451
  339MOL0     C44680   5.893   4.785   1.283 -0.1978 -0.7343  0.3074
  339MOL0     C44681   5.065   4.746   1.061  0.6388 -0.1595  0.9543
  339MOL0     C44682   4.947   4.696   1.004 -0.2727  0.0235  0.3310
  339MOL0     H44683   4.682   4.360   0.742 -2.1753  0.4150 -0.5219
  339MOL0     H44684   4.505   4.204   0.664  2.0969 -1.4158 -0.2058
  339MOL0     H44685   4.349   4.045   0.596 -1.3955  2.8211 -1.6926
  339MOL0     H44686   4.250   4.179   0.672  0.9496  1.1176 -0.5357
  339MOL0     H44687   4.189   3.877   0.689  2.8387  0.1705 -0.9443
  339MOL0     H44688   4.118   3.972   0.562 -1.4877  0.2489  0.4768
  339MOL0     H44689   4.019   4.148   0.731 -0.6684  0.2510  1.1219
  339MOL0     H44690   4.060   4.033   0.859 -0.3946 -1.5321  0.2717
  339MOL0     H44691   3.909   3.943   0.607 -1.6897  2.6883 -0.3379
  339MOL0     H44692   3.928   3.862   0.769 -1.1229  1.1801  2.5116
  339MOL0     H44693   3.812   4.133   0.766  0.5179  0.2560 -0.6114
  339MOL0     H44694   3.753   3.992   0.856 -0.9259  0.2250  0.7592
  339MOL0     H44695   3.634   3.911   0.658 -0.0944  0.3258 -1.1820
  339MOL0     H44696   3.715   4.033   0.560 -2.5720  0.3483  0.3866
  339MOL0     H44697   3.483   4.064   0.762 -3.4846 -0.0068 -2.0575
  339MOL0     H44698   3.581   4.205   0.715 -1.8326  1.3280 -0.6768
  339MOL0     H44699   3.529   4.147   0.475  2.9584  1.7072  1.6791
  339MOL0     H44700   3.402   4.205   0.569 -1.2955 -1.0838 -2.2928
  339MOL0     H44701   3.198   4.066   0.526  0.5811  1.0738 -1.3263
  339MOL0     H44702   3.131   3.694   0.391  2.5895 -1.1463  1.9386
  339MOL0     H44703   3.082   3.840   0.316  1.1947 -3.4154 -1.4734
  339MOL0     H44704   3.023   3.929   0.552  2.0706  0.1073 -1.2760
  339MOL0     H44705   3.053   3.769   0.612 -1.4209  0.2854 -0.0197
  339MOL0     H44706   2.824   3.874   0.434  0.4569  1.3503 -0.3691
  339MOL0     H44707   2.843   3.705   0.452 -3.6721  2.6753 -1.1922
  339MOL0     H44708   2.747   3.891   0.661 -0.6666 -0.4465  1.5132
  339MOL0     H44709   2.862   3.766   0.714 -0.2311 -2.1205  0.5880
  339MOL0     H44710   2.507   3.556   0.597  2.9035  2.7093 -1.0343
  339MOL0     H44711   2.319   3.521   0.740 -1.6675  1.6414  1.9336
  339MOL0     H44712   2.176   3.547   1.238  0.4171  3.5149 -0.9911
  339MOL0     H44713   1.960   3.559   1.365 -0.5864 -1.9835  0.5503
  339MOL0     H44714   1.742   3.576   1.453 -0.0656  1.5806 -0.4002
  339MOL0     H44715   1.715   3.449   1.346  0.0940  0.5642  0.6721
  339MOL0     H44716   1.506   3.650   1.439  1.6481 -0.1739  1.4348
  339MOL0     H44717   1.494   3.473   1.454 -1.4993  1.1790 -0.3100
  339MOL0     H44718   1.459   3.505   1.183 -2.5219 -0.0339  0.4775
  339MOL0     H44719   1.454   3.672   1.230  0.6683 -0.7852 -1.1153
  339MOL0     H44720   1.265   3.439   1.333 -3.7415 -0.6137 -1.6787
  339MOL0     H44721   1.255   3.603   1.380  1.7438  0.3217  0.1789
  339MOL0     H44722   1.096   3.526   1.197  1.4817 -0.1190  3.3136
  339MOL0     H44723   1.220   3.524   1.087 -0.8332  0.0598 -0.0474
  339MOL0     H44724   1.267   3.781   1.130  0.6378 -2.5645 -2.0192
  339MOL0     H44725   1.148   3.775   1.250 -0.6614 -0.5821 -0.1585
  339MOL0     H44726   1.114   3.817   0.961 -0.3878  1.0080 -0.0263
  339MOL0     H44727   1.014   3.675   1.025  1.9412 -1.4819 -1.6031
  339MOL0     H44728   0.916   3.916   1.025 -1.8808  2.1513  2.4230
  339MOL0     H44729   1.050   3.957   1.130  0.0347  1.0548 -3.3579
  339MOL0     H44730   1.754   3.655   0.995 -0.5659  1.6840  1.6690
  339MOL0     H44731   1.960   3.586   0.870 -1.9098  1.5526  0.1130
  339MOL0     H44732   2.495   3.804   1.016 -0.3096  1.6097 -2.4572
  339MOL0     H44733   2.702   3.817   0.877  1.2352  0.0743 -0.1606
  339MOL0     H44734   4.398   4.129   1.077 -0.3030 -0.2861  0.2478
  339MOL0     H44735   4.591   4.266   1.147  2.4210 -0.5142 -0.6239
  339MOL0     H44736   4.995   4.371   1.120  2.2897 -1.9654 -2.2058
  339MOL0     H44737   5.208   4.472   1.176  1.7327  0.9398 -1.0181
  339MOL0     H44738   5.263   4.914   1.193 -0.4471  0.5262 -0.1123
  339MOL0     H44739   5.311   4.874   1.032  2.1269 -3.7128 -1.6022
  339MOL0     H44740   5.537   4.805   1.105  0.9322 -1.2749  1.8377
  339MOL0     H44741   5.502   4.964   1.183 -1.4988 -0.5783 -0.3284
  339MOL0     H44742   5.432   4.730   1.344  0.7565 -0.9370  1.7844
  339MOL0     H44743   5.552   4.842   1.397  0.9309 -1.6637  0.0758
  339MOL0     H44744   5.656   4.633   1.394  0.9099  0.3352 -0.1221
  339MOL0     H44745   5.620   4.619   1.224  1.9242  1.6042 -1.0744
  339MOL0     H44746   5.995   4.820   1.284 -0.5175  0.2822 -0.3963
  339MOL0     H44747   5.087   4.851   1.046 -0.9738  0.4696  2.5916
  339MOL0     H44748   4.878   4.767   0.961  2.0050  1.7029 -0.7541
  340MOL0     O44749   2.438   0.413   1.426 -0.6196 -0.1205 -0.6796
  340MOL0     C44750   2.436   0.302   1.370 -0.1102  0.5359 -0.8919
  340MOL0     O44751   2.331   0.249   1.298 -0.5435 -0.2238 -0.1652
  340MOL0     C44752   2.217   0.325   1.265 -0.5774  0.8334  0.0932
  340MOL0     C44753   2.142   0.396   1.362 -0.0280 -0.4978  1.1698
  340MOL0     C44754   2.034   0.477   1.329  0.5403 -0.1922  0.2546
  340MOL0     C44755   1.996   0.489   1.190 -0.6303  0.7915 -1.0478
  340MOL0     O44756   1.892   0.570   1.149 -0.4822 -0.3058 -0.1708
  340MOL0     C44757   1.824   0.655   1.250 -0.0834 -0.7276  0.8202
  340MOL0     C44758   1.692   0.690   1.193  0.5587 -0.6614  0.0923
  340MOL0     C44759   1.634   0.807   1.280 -0.2432 -0.0331  0.5428
  340MOL0     C44760   1.682   0.941   1.233 -0.7126 -0.5126 -0.3655
  340MOL0     C44761   1.649   0.968   1.082  0.0620 -1.3209  0.6664
  340MOL0     C44762   1.526   1.058   1.063  0.3795  0.8872  0.6933
  340MOL0     C44763   1.417   0.992   0.968  0.5055 -0.8731  0.0263
  340MOL0     C44764   1.311   1.100   0.927  0.1063 -0.4954 -0.1250
  340MOL0     N44765   1.201   1.043   0.845 -0.0777  0.2649 -0.0946
  340MOL0     C44766   1.106   0.976   0.903  0.9720  0.3824  0.0627
  340MOL0     C44767   1.040   0.906   0.809 -1.0852 -0.3557  0.9458
  340MOL0     C44768   0.921   0.819   0.825  0.6481 -0.4238 -0.3597
  340MOL0     C44769   0.800   0.906   0.833  0.3649 -0.5694 -0.2732
  340MOL0     C44770   0.799   1.003   0.945 -0.5941 -0.0396 -0.0870
  340MOL0     C44771   0.675   1.085   0.941 -0.2969  0.2489  0.3980
  340MOL0     O44772   0.554   1.000   0.932 -0.1764 -0.1062  1.1306
  340MOL0     C44773   0.437   1.050   0.973  0.0700 -0.1084 -0.5098
  340MOL0     C44774   0.343   0.949   1.013 -0.2478  0.3508 -0.5247
  340MOL0     C44775   0.221   0.984   1.064 -0.5040  0.6113  0.5457
  340MOL0     C44776   0.184   1.118   1.074 -0.1396  0.9564 -0.2115
  340MOL0     C44777   0.053   1.150   1.133  0.5879 -0.1984  0.1222
  340MOL0     O44778  -0.052   1.062   1.129  0.2192  0.5905  0.3396
  340MOL0     C44779  -0.184   1.094   1.176 -0.2509  0.7182  0.4467
  340MOL0     C44780  -0.250   1.206   1.119 -0.3710 -0.5029 -1.3270
  340MOL0     C44781  -0.385   1.239   1.147 -0.4672  0.3115  0.0954
  340MOL0     C44782  -0.449   1.161   1.245  0.8990  0.2572  0.2639
  340MOL0     O44783  -0.573   1.196   1.287 -0.2715 -0.6445  0.2268
  340MOL0     C44784  -0.624   1.147   1.413  0.2907  0.2479  0.0136
  340MOL0     C44785  -0.724   1.240   1.477  0.7570  0.6481  0.2110
  340MOL0     C44786  -0.700   1.278   1.626 -0.0881 -0.1670  0.5483
  340MOL0     C44787  -0.831   1.315   1.695 -0.0327  1.2032  1.1118
  340MOL0     C44788  -0.822   1.374   1.836  0.6878 -0.3791 -1.1715
  340MOL0     C44789  -0.970   1.403   1.902  0.0418  0.0803  0.3441
  340MOL0     C44790  -1.044   1.526   1.824  0.7015  0.0257 -0.0723
  340MOL0     C44791  -1.164   1.580   1.908 -0.2792  1.0248  0.3137
  340MOL0    Cl44792  -1.278   1.446   1.955 -0.1516  0.1866 -0.4728
  340MOL0     C44793  -0.387   1.046   1.293 -0.1320  0.0495 -0.1694
  340MOL0     C44794  -0.252   1.012   1.258  0.3599 -0.1518 -0.3060
  340MOL0     O44795   0.049   1.267   1.167  0.5397 -0.1387 -0.0443
  340MOL0     C44796   0.279   1.219   1.040 -0.6800  0.2760  0.3546
  340MOL0     C44797   0.409   1.183   0.995  0.3832  0.7740  0.3509
  340MOL0     N44798   1.107   0.929   0.692  0.2966 -0.6240 -0.1142
  340MOL0     N44799   1.197   1.021   0.712 -1.3569  0.8782  0.3442
  340MOL0     C44800   2.072   0.421   1.088 -0.6152 -0.6954 -0.8063
  340MOL0     C44801   2.168   0.334   1.133 -0.4681 -0.1536 -0.3194
  340MOL0     C44802   2.567   0.233   1.356 -0.4694 -1.2740  0.3868
  340MOL0     C44803   2.679   0.273   1.425 -0.2492 -0.0702 -0.2899
  340MOL0     C44804   2.805   0.212   1.411  0.1116  0.8983 -1.4508
  340MOL0     C44805   2.819   0.098   1.328  0.7215 -0.5262  0.2883
  340MOL0     O44806   2.932   0.022   1.322  0.1121  0.4173 -0.2369
  340MOL0     C44807   3.011  -0.007   1.443 -0.0529 -0.7875  0.5671
  340MOL0     C44808   3.144  -0.078   1.381 -0.1197 -0.5676  0.1302
  340MOL0     C44809   3.261  -0.083   1.479 -0.1063 -0.6563 -0.1328
  340MOL0     C44810   3.352  -0.202   1.452 -0.9875  0.1811  0.8163
  340MOL0     C44811   3.482  -0.169   1.517  0.1447  1.8923  0.3527
  340MOL0     C44812   3.586  -0.154   1.581  0.7985  0.8572 -0.0318
  340MOL0     C44813   2.703   0.061   1.248 -0.6905 -0.2181 -0.5455
  340MOL0     C44814   2.581   0.128   1.265 -0.2651 -0.9749 -0.1299
  340MOL0     H44815   2.160   0.379   1.468 -0.2305 -0.2638  1.2424
  340MOL0     H44816   1.970   0.521   1.404 -1.1684 -0.0842 -1.2142
  340MOL0     H44817   1.888   0.743   1.260  1.1111 -1.5068  0.1542
  340MOL0     H44818   1.802   0.605   1.345 -1.3380 -0.9507  0.4297
  340MOL0     H44819   1.622   0.609   1.217  1.3396 -0.2407  4.6766
  340MOL0     H44820   1.697   0.705   1.085 -4.1154  1.6041 -0.0547
  340MOL0     H44821   1.659   0.795   1.386 -0.7996 -0.5927  0.6150
  340MOL0     H44822   1.525   0.812   1.281 -0.1882  1.7060  0.8223
  340MOL0     H44823   1.649   1.017   1.305 -2.2572 -2.0574  0.6428
  340MOL0     H44824   1.790   0.951   1.245 -0.5580 -0.6815 -1.4697
  340MOL0     H44825   1.657   0.886   1.010  1.8902  0.7588 -1.6972
  340MOL0     H44826   1.729   1.038   1.056 -1.5094  2.0670  4.0379
  340MOL0     H44827   1.556   1.152   1.017 -1.1401  0.9970 -0.1167
  340MOL0     H44828   1.486   1.070   1.164  0.3628 -0.5922  0.8886
  340MOL0     H44829   1.463   0.956   0.876  0.2406  0.0480 -0.4718
  340MOL0     H44830   1.359   0.911   1.015 -1.5125  0.1239 -0.6333
  340MOL0     H44831   1.354   1.180   0.867 -1.7171  0.8215  0.2810
  340MOL0     H44832   1.274   1.144   1.020 -3.3119 -2.1528 -0.5525
  340MOL0     H44833   1.090   0.963   1.010  1.0851  1.6533  0.2439
  340MOL0     H44834   0.948   0.760   0.913 -1.0976  0.6036  0.8983
  340MOL0     H44835   0.910   0.759   0.734  1.9976 -0.4835 -0.5053
  340MOL0     H44836   0.709   0.846   0.826  1.3384 -2.0124 -0.9878
  340MOL0     H44837   0.799   0.964   0.740 -0.6824  0.3687  0.3000
  340MOL0     H44838   0.791   0.947   1.039 -1.4385  0.1457 -0.0371
  340MOL0     H44839   0.891   1.061   0.953  1.1646 -2.5508 -0.9467
  340MOL0     H44840   0.682   1.157   0.859  0.0219 -1.7371 -1.4168
  340MOL0     H44841   0.666   1.142   1.034  0.7109 -3.0563  2.6940
  340MOL0     H44842   0.363   0.843   1.001 -2.2644 -0.1178 -0.1719
  340MOL0     H44843   0.143   0.912   1.085 -2.8121  1.6875 -3.3329
  340MOL0     H44844  -0.199   1.275   1.052 -1.9701  1.2127 -0.8519
  340MOL0     H44845  -0.423   1.329   1.101  1.7891  1.8476  1.0806
  340MOL0     H44846  -0.539   1.139   1.481  0.9390 -1.9853 -0.9774
  340MOL0     H44847  -0.659   1.044   1.407  3.1493 -1.0578  2.7486
  340MOL0     H44848  -0.819   1.185   1.481  1.5015 -0.5975  2.5287
  340MOL0     H44849  -0.725   1.339   1.429 -1.1049  1.5964  2.0278
  340MOL0     H44850  -0.634   1.363   1.641 -0.1283 -0.4797  2.8202
  340MOL0     H44851  -0.659   1.186   1.669  1.0749 -0.0888 -0.3229
  340MOL0     H44852  -0.865   1.401   1.637  1.4400  1.5870  0.7578
  340MOL0     H44853  -0.904   1.234   1.689 -0.2146  1.4166  0.2413
  340MOL0     H44854  -0.763   1.466   1.836 -0.3176  0.3004 -0.0123
  340MOL0     H44855  -0.782   1.297   1.903 -1.6334 -0.6888 -0.0263
  340MOL0     H44856  -0.958   1.423   2.009  0.7485  1.0807  0.0920
  340MOL0     H44857  -1.036   1.316   1.895  2.0104 -1.8375  3.4355
  340MOL0     H44858  -0.986   1.618   1.816 -2.9584  2.5329 -0.5261
  340MOL0     H44859  -1.075   1.491   1.725  3.3595 -0.4593 -0.8143
  340MOL0     H44860  -1.220   1.652   1.848 -0.5998 -2.0906 -3.4801
  340MOL0     H44861  -1.116   1.608   2.003  1.5787 -5.0579  1.6025
  340MOL0     H44862  -0.440   0.980   1.362  1.2847 -1.6918 -0.6894
  340MOL0     H44863  -0.196   0.925   1.289  0.3381  0.8659  2.9926
  340MOL0     H44864   0.249   1.324   1.045 -1.6151  0.0345  0.0413
  340MOL0     H44865   0.477   1.263   0.966  0.0835  1.0993  0.5323
  340MOL0     H44866   2.062   0.435   0.981 -2.7871  2.8662 -0.3030
  340MOL0     H44867   2.229   0.290   1.054  1.6519  2.9043 -0.6041
  340MOL0     H44868   2.660   0.341   1.507 -3.6735  0.7140 -1.5540
  340MOL0     H44869   2.888   0.254   1.466 -1.2517  0.9891  0.6427
  340MOL0     H44870   2.958  -0.077   1.509 -1.3569 -0.3301  0.0413
  340MOL0     H44871   3.044   0.086   1.490  0.7524 -1.0870  0.5977
  340MOL0     H44872   3.126  -0.181   1.349 -0.8733 -1.5485  3.3697
  340MOL0     H44873   3.174  -0.012   1.298 -1.8483  0.4855  0.2888
  340MOL0     H44874   3.240  -0.087   1.586 -0.9044  1.9149 -0.1076
  340MOL0     H44875   3.324   0.004   1.459  2.0476 -1.9844  0.5051
  340MOL0     H44876   3.314  -0.293   1.498 -3.0022  0.3784 -0.3508
  340MOL0     H44877   3.354  -0.226   1.345 -3.7252 -0.6526  0.8854
  340MOL0     H44878   3.677  -0.138   1.635 -0.0468 -0.1536  1.7809
  340MOL0     H44879   2.715  -0.013   1.170  0.0410 -2.3148  1.4582
  340MOL0     H44880   2.502   0.104   1.194  0.4135 -1.0413 -0.8719
  341MOL0     O44881   5.215   2.697   8.182  0.6330 -0.6453 -0.2319
  341MOL0     C44882   5.195   2.810   8.226  0.4188 -0.7073  0.7708
  341MOL0     O44883   5.077   2.872   8.230  0.1173 -0.8571  0.9453
  341MOL0     C44884   4.973   2.806   8.167  0.3243  0.0847 -1.2739
  341MOL0     C44885   4.952   2.812   8.032  0.3150  0.1058 -0.2183
  341MOL0     C44886   4.862   2.728   7.967 -0.5470 -0.2614  0.7900
  341MOL0     C44887   4.784   2.639   8.045 -0.6377  1.0795 -0.5982
  341MOL0     O44888   4.697   2.533   8.007 -0.1292  0.1189  0.1541
  341MOL0     C44889   4.670   2.517   7.862 -0.7697  0.0908 -0.6209
  341MOL0     C44890   4.674   2.377   7.841 -0.6571  0.6247  0.8011
  341MOL0     C44891   4.563   2.306   7.927 -0.5452 -0.0813  0.3137
  341MOL0     C44892   4.536   2.162   7.865  0.4363  0.4419  0.0263
  341MOL0     C44893   4.449   2.160   7.742  0.7079  0.4402  0.5693
  341MOL0     C44894   4.306   2.105   7.764  0.3467 -0.0124  0.3964
  341MOL0     C44895   4.282   1.971   7.697  0.4258 -0.5696 -0.4363
  341MOL0     C44896   4.246   1.997   7.552  0.5121  0.0309  0.6466
  341MOL0     N44897   4.230   1.876   7.477 -0.2386 -0.0058  0.3564
  341MOL0     C44898   4.318   1.770   7.470  0.9739 -0.5742  0.1488
  341MOL0     C44899   4.262   1.696   7.369  0.0741  0.0361 -0.9359
  341MOL0     C44900   4.308   1.587   7.295 -0.9337  1.3899  0.0551
  341MOL0     C44901   4.213   1.469   7.309 -0.4707  0.1464 -0.3329
  341MOL0     C44902   4.300   1.333   7.291 -0.5047 -0.1800 -0.4248
  341MOL0     C44903   4.220   1.211   7.316 -0.2805 -0.3589 -0.6981
  341MOL0     O44904   4.198   1.199   7.461 -1.2880  0.5940  0.2146
  341MOL0     C44905   4.135   1.085   7.512  0.0143  0.1830 -0.4485
  341MOL0     C44906   4.197   0.958   7.502 -0.0047  0.0890 -0.3117
  341MOL0     C44907   4.160   0.847   7.570  0.2292  0.7680  0.4687
  341MOL0     C44908   4.035   0.845   7.637  0.0207 -0.9822  0.5899
  341MOL0     C44909   3.985   0.717   7.690  0.1150 -0.9967 -0.2668
  341MOL0     O44910   3.851   0.721   7.709 -0.6341 -0.0432 -0.3990
  341MOL0     C44911   3.788   0.606   7.687 -0.5982 -0.2819  0.8406
  341MOL0     C44912   3.837   0.506   7.605  0.3229  0.6743  0.7594
  341MOL0     C44913   3.756   0.386   7.592  0.3080 -0.3750  0.2292
  341MOL0     C44914   3.622   0.371   7.630 -0.1010 -0.7637 -0.4654
  341MOL0     O44915   3.561   0.255   7.599 -0.1980  0.5392  0.9177
  341MOL0     C44916   3.422   0.243   7.643  0.4078 -0.1348 -0.3996
  341MOL0     C44917   3.349   0.132   7.580  1.0871  0.8883 -0.3414
  341MOL0     C44918   3.228   0.112   7.669 -0.0889 -0.1534 -0.4187
  341MOL0     C44919   3.135  -0.004   7.620 -0.4996  0.6807  0.2239
  341MOL0     C44920   3.032   0.062   7.527  0.2525 -0.2847  0.1120
  341MOL0     C44921   2.924  -0.049   7.502 -0.1895 -0.0009 -0.0973
  341MOL0     C44922   2.805   0.004   7.425 -1.2071  0.0048 -0.4188
  341MOL0     C44923   2.712  -0.111   7.403  0.1819  0.2488 -0.4806
  341MOL0    Cl44924   2.628  -0.143   7.554  0.0606  0.0770 -0.1238
  341MOL0     C44925   3.580   0.482   7.709  0.0028 -0.1482  0.6826
  341MOL0     C44926   3.657   0.596   7.725  0.1058 -0.2599 -0.0049
  341MOL0     O44927   4.059   0.624   7.711  0.2522  0.4784  0.7462
  341MOL0     C44928   3.964   0.967   7.649 -0.0257 -0.3368 -0.7170
  341MOL0     C44929   4.018   1.084   7.589  0.6167 -0.3608  0.8175
  341MOL0     N44930   4.150   1.760   7.324 -0.0765 -0.1388 -0.4330
  341MOL0     N44931   4.127   1.863   7.396 -0.0091  0.0100 -0.4685
  341MOL0     C44932   4.796   2.653   8.189  0.3525  0.5326 -0.3547
  341MOL0     C44933   4.884   2.742   8.250 -0.4321  0.5054  0.2685
  341MOL0     C44934   5.304   2.876   8.295 -0.2165 -0.6443  0.0023
  341MOL0     C44935   5.429   2.817   8.289  1.2734 -1.0819  1.2054
  341MOL0     C44936   5.535   2.863   8.366 -0.9152 -0.2734 -0.1487
  341MOL0     C44937   5.520   2.980   8.447  0.3129 -0.0768  1.0584
  341MOL0     O44938   5.637   3.026   8.513 -0.6875  0.3108  0.7738
  341MOL0     C44939   5.625   3.133   8.611  0.0708  0.5395 -0.2060
  341MOL0     C44940   5.758   3.182   8.674 -0.1151  0.6145  0.3630
  341MOL0     C44941   5.848   3.244   8.564  0.0564  0.5488 -0.0871
  341MOL0     C44942   5.948   3.159   8.491  0.5552  0.2856 -0.0245
  341MOL0     C44943   6.044   3.224   8.407  0.3483 -0.6267 -0.0732
  341MOL0     C44944   6.117   3.284   8.332 -0.1547  0.7693 -0.1357
  341MOL0     C44945   5.392   3.039   8.443 -0.2354  0.3088 -0.1567
  341MOL0     C44946   5.292   2.989   8.375 -0.8866  0.5861 -0.1817
  341MOL0     H44947   5.018   2.885   7.985 -1.7017  3.2214  1.4621
  341MOL0     H44948   4.857   2.732   7.858 -1.0293  1.6534  0.8492
  341MOL0     H44949   4.745   2.565   7.799  0.6299 -2.2191 -0.8494
  341MOL0     H44950   4.571   2.548   7.827 -0.3144 -0.1773 -2.2067
  341MOL0     H44951   4.776   2.339   7.855 -0.4351 -0.7641 -3.3919
  341MOL0     H44952   4.649   2.351   7.738 -0.8529 -0.1966  1.0473
  341MOL0     H44953   4.470   2.362   7.931 -0.9067 -0.6857  0.5516
  341MOL0     H44954   4.597   2.292   8.030  0.6859 -0.6947 -0.1521
  341MOL0     H44955   4.633   2.116   7.844  1.0510  2.0999 -0.8660
  341MOL0     H44956   4.495   2.090   7.937  0.3089 -1.6018 -1.9944
  341MOL0     H44957   4.504   2.090   7.678  0.4528  0.0024  0.8234
  341MOL0     H44958   4.453   2.258   7.693  0.0221 -0.5180 -1.5453
  341MOL0     H44959   4.233   2.180   7.730  0.1664 -0.4372 -0.1697
  341MOL0     H44960   4.284   2.098   7.871 -0.3699  2.3147  0.4716
  341MOL0     H44961   4.380   1.923   7.705  2.1776  2.5765 -1.1525
  341MOL0     H44962   4.194   1.918   7.735 -0.2115  1.5222  1.2116
  341MOL0     H44963   4.327   2.057   7.511 -0.3963  1.3562  0.7485
  341MOL0     H44964   4.157   2.058   7.542  1.0862  1.1195  1.8408
  341MOL0     H44965   4.414   1.754   7.517  0.8702 -3.7531 -0.5068
  341MOL0     H44966   4.413   1.566   7.315 -1.0877 -0.4845 -0.7920
  341MOL0     H44967   4.310   1.631   7.195  3.0950  3.7523  0.9742
  341MOL0     H44968   4.136   1.454   7.233 -0.0117 -1.8728 -0.4745
  341MOL0     H44969   4.178   1.466   7.412  0.3121 -2.3338 -0.0692
  341MOL0     H44970   4.336   1.316   7.189 -1.3294  0.4243 -0.8180
  341MOL0     H44971   4.385   1.325   7.360 -0.2763 -2.1130 -0.8551
  341MOL0     H44972   4.260   1.115   7.281  0.4621 -1.1391  1.9801
  341MOL0     H44973   4.125   1.226   7.263 -0.4339  1.5958  0.0449
  341MOL0     H44974   4.284   0.951   7.438 -1.1929 -2.2194 -1.7940
  341MOL0     H44975   4.222   0.760   7.554 -0.0523  0.7099 -0.3200
  341MOL0     H44976   3.935   0.504   7.558 -0.0181  0.8819  0.0291
  341MOL0     H44977   3.804   0.295   7.557 -0.6125 -1.4940  1.7990
  341MOL0     H44978   3.366   0.327   7.600 -1.7080 -1.4354 -0.3243
  341MOL0     H44979   3.421   0.244   7.752  1.9126  0.5984 -0.3722
  341MOL0     H44980   3.417   0.046   7.586  2.3000  1.8250 -0.4066
  341MOL0     H44981   3.333   0.153   7.474  2.0627  0.8500 -0.5034
  341MOL0     H44982   3.173   0.206   7.685  0.1849  0.2574 -1.7430
  341MOL0     H44983   3.262   0.085   7.769 -1.2533 -2.6017 -0.6206
  341MOL0     H44984   3.198  -0.076   7.567 -1.6448 -0.1603 -0.0233
  341MOL0     H44985   3.097  -0.067   7.701 -2.3269 -3.7386 -3.6023
  341MOL0     H44986   3.062   0.103   7.430 -0.5039  1.8489  0.7396
  341MOL0     H44987   2.990   0.153   7.570  0.9038  0.2604 -0.3781
  341MOL0     H44988   2.886  -0.092   7.595 -2.4938 -1.4166 -1.6006
  341MOL0     H44989   2.971  -0.133   7.451 -4.5075 -2.8537  0.0483
  341MOL0     H44990   2.747   0.084   7.473 -1.1078  1.3589 -2.4303
  341MOL0     H44991   2.837   0.044   7.329  0.7643 -0.2329  0.0885
  341MOL0     H44992   2.758  -0.202   7.365 -1.5215 -1.0224  0.3781
  341MOL0     H44993   2.630  -0.095   7.333  0.4683  0.2051 -0.8296
  341MOL0     H44994   3.478   0.486   7.746 -0.5317  0.2173 -0.7473
  341MOL0     H44995   3.610   0.680   7.776 -1.5305 -0.3710 -1.2664
  341MOL0     H44996   3.873   0.977   7.708  1.8628  1.4936  2.1596
  341MOL0     H44997   3.972   1.180   7.610  2.6580  0.8707 -0.0522
  341MOL0     H44998   4.748   2.583   8.256  3.1116 -0.4113  0.8166
  341MOL0     H44999   4.912   2.743   8.355 -0.0004 -0.0790  0.1645
  341MOL0     H45000   5.448   2.722   8.240  3.8566  0.5263 -1.1937
  341MOL0     H45001   5.634   2.820   8.357 -0.4730  0.5100  0.8294
  341MOL0     H45002   5.553   3.105   8.688  0.3865  0.1686 -0.0436
  341MOL0     H45003   5.583   3.213   8.549 -1.9170 -0.1698  0.1455
  341MOL0     H45004   5.728   3.258   8.747  0.0572 -0.3878  1.4960
  341MOL0     H45005   5.811   3.099   8.721 -3.8849 -1.4952  1.2261
  341MOL0     H45006   5.902   3.329   8.607 -0.3985  1.1468 -0.6779
  341MOL0     H45007   5.781   3.288   8.490  0.5283 -0.6574 -1.2731
  341MOL0     H45008   5.997   3.107   8.574  0.4866 -1.2757 -0.9199
  341MOL0     H45009   5.899   3.079   8.434  3.2828  0.7660 -3.4047
  341MOL0     H45010   6.192   3.320   8.264  0.6102 -1.8960 -0.8033
  341MOL0     H45011   5.366   3.133   8.492 -0.2993  0.7577 -1.0459
  341MOL0     H45012   5.189   3.017   8.391 -1.7455  0.1805 -4.0309
  342MOL0     O45013   6.275   2.212   0.837 -0.5413 -0.7732 -0.4777
  342MOL0     C45014   6.352   2.113   0.859 -0.3316  0.4944  0.7412
  342MOL0     O45015   6.484   2.113   0.863 -0.2412  0.2539 -0.1240
  342MOL0     C45016   6.535   2.246   0.873 -0.1606  0.1211  0.2329
  342MOL0     C45017   6.545   2.310   0.994 -0.3409 -0.6283 -0.5213
  342MOL0     C45018   6.591   2.437   0.996  0.4833 -1.0226 -0.2149
  342MOL0     C45019   6.636   2.500   0.879 -0.0093 -0.6883 -0.4972
  342MOL0     O45020   6.678   2.630   0.881  0.8262  0.0144  0.1304
  342MOL0     C45021   6.807   2.654   0.829 -0.2816 -0.0415  0.2857
  342MOL0     C45022   6.872   2.765   0.903  0.0855 -0.0306 -0.3163
  342MOL0     C45023   6.874   2.748   1.056  0.4171 -0.1778  0.2233
  342MOL0     C45024   6.902   2.881   1.119  0.4338  0.0684  0.9296
  342MOL0     C45025   7.048   2.921   1.091  0.3510  0.4919 -0.0710
  342MOL0     C45026   7.089   3.021   1.189 -0.0279 -0.1763  0.3569
  342MOL0     C45027   7.232   3.069   1.171 -0.5575  0.0600  0.1556
  342MOL0     C45028   7.273   3.167   1.288  0.0567 -0.1163  0.2991
  342MOL0     N45029   7.394   3.245   1.267  0.5123  0.7793 -0.1657
  342MOL0     C45030   7.427   3.327   1.165  0.2089  0.7762  0.2216
  342MOL0     C45031   7.560   3.348   1.160  1.1021 -0.0431 -0.8864
  342MOL0     C45032   7.636   3.440   1.061 -0.4393 -0.2478  0.2542
  342MOL0     C45033   7.604   3.401   0.915  0.5052  0.1574 -0.4195
  342MOL0     C45034   7.718   3.425   0.814 -0.2287  0.3562  0.3310
  342MOL0     C45035   7.729   3.565   0.766 -0.4293  0.3894  0.1813
  342MOL0     O45036   7.747   3.656   0.874  0.1405  0.2558  0.5043
  342MOL0     C45037   7.876   3.681   0.934 -0.6270 -0.1120 -0.0637
  342MOL0     C45038   7.990   3.609   0.916  0.4446  0.3321  0.1819
  342MOL0     C45039   8.117   3.654   0.967 -0.5023  0.5649 -0.6029
  342MOL0     C45040   8.122   3.764   1.051  0.4958  0.4428 -0.4677
  342MOL0     C45041   8.239   3.815   1.108 -0.4011  0.1807  0.5690
  342MOL0     O45042   8.357   3.738   1.077  0.2955  0.2914 -0.3165
  342MOL0     C45043   8.484   3.767   1.123 -0.0246 -0.8699  0.0313
  342MOL0     C45044   8.546   3.892   1.112  0.5237  0.7026 -0.8367
  342MOL0     C45045   8.678   3.915   1.160  1.0117  0.1732  0.5141
  342MOL0     C45046   8.743   3.816   1.212 -0.4219  0.0158 -0.6249
  342MOL0     O45047   8.872   3.844   1.247  0.1888  0.5602  0.5684
  342MOL0     C45048   8.970   3.730   1.258  0.9518 -0.6085 -0.3031
  342MOL0     C45049   9.097   3.805   1.286  0.1990 -0.4664  0.0369
  342MOL0     C45050   9.237   3.757   1.233  0.0668 -0.1979 -0.0537
  342MOL0     C45051   9.337   3.850   1.309  1.0492 -0.5381  0.4942
  342MOL0     C45052   9.487   3.811   1.306 -0.1983 -0.4226 -0.0363
  342MOL0     C45053   9.509   3.677   1.365 -1.7789  0.6705  0.0098
  342MOL0     C45054   9.663   3.639   1.389  0.5512  1.1417  0.4963
  342MOL0     C45055   9.744   3.724   1.487  0.5810 -0.6691  0.5162
  342MOL0    Cl45056   9.891   3.646   1.535 -0.3687  0.0427 -0.2819
  342MOL0     C45057   8.687   3.686   1.220 -0.2799  0.1431 -0.0390
  342MOL0     C45058   8.561   3.661   1.169 -0.0236  0.0898  0.2324
  342MOL0     O45059   8.239   3.920   1.172 -0.6713 -0.1957 -0.6606
  342MOL0     C45060   8.003   3.833   1.076  0.2773 -0.1159  0.0461
  342MOL0     C45061   7.879   3.789   1.023 -0.3767  0.8031  0.2616
  342MOL0     N45062   7.612   3.272   1.273  0.2449  0.3502  0.1414
  342MOL0     N45063   7.513   3.209   1.325  0.5385 -0.3317 -0.5696
  342MOL0     C45064   6.627   2.435   0.758 -0.0920 -0.3966 -0.9788
  342MOL0     C45065   6.576   2.303   0.754 -0.6293 -0.4469  0.4539
  342MOL0     C45066   6.276   1.986   0.882 -0.2555 -1.2121  0.0821
  342MOL0     C45067   6.135   1.987   0.885  0.6339 -0.5363 -0.1491
  342MOL0     C45068   6.062   1.864   0.894 -0.6564 -0.8050  0.7145
  342MOL0     C45069   6.133   1.743   0.910 -0.1359  1.1511  0.4115
  342MOL0     O45070   6.075   1.616   0.917  0.0792 -0.1240 -0.1350
  342MOL0     C45071   5.938   1.609   0.956  0.4571 -0.2393  0.1201
  342MOL0     C45072   5.905   1.462   1.001 -0.8274  0.3658  0.0956
  342MOL0     C45073   5.764   1.438   1.052  0.2672 -0.0055  0.4288
  342MOL0     C45074   5.654   1.460   0.958  0.7373 -0.7031  0.2642
  342MOL0     C45075   5.692   1.389   0.831 -0.4553  0.5468  0.0084
  342MOL0     C45076   5.730   1.336   0.725 -0.3050  0.0802  0.3241
  342MOL0     C45077   6.275   1.743   0.920 -0.4778 -0.5957 -0.5624
  342MOL0     C45078   6.346   1.861   0.898 -0.2892  0.4991  0.8090
  342MOL0     H45079   6.516   2.265   1.088  2.5217 -1.6797 -0.0506
  342MOL0     H45080   6.576   2.506   1.079  0.3622  2.1045 -2.6600
  342MOL0     H45081   6.793   2.687   0.726  1.9706  0.9701  0.2292
  342MOL0     H45082   6.859   2.558   0.830 -1.0752 -0.5758 -2.2411
  342MOL0     H45083   6.798   2.842   0.877 -0.9328 -1.2048 -1.0363
  342MOL0     H45084   6.964   2.802   0.858 -0.2670  2.0597  0.5638
  342MOL0     H45085   6.946   2.668   1.080 -2.0920 -2.2719  1.2746
  342MOL0     H45086   6.777   2.719   1.097 -0.1278  3.4210  1.8299
  342MOL0     H45087   6.831   2.955   1.082  0.6712  0.3839  1.0991
  342MOL0     H45088   6.883   2.862   1.225 -3.5075  2.7160  0.8807
  342MOL0     H45089   7.067   2.961   0.991  1.9876 -1.8317 -0.7825
  342MOL0     H45090   7.115   2.835   1.102 -0.2001 -0.1306 -1.2890
  342MOL0     H45091   7.076   2.971   1.285 -0.1270 -1.3309 -0.2488
  342MOL0     H45092   7.025   3.109   1.175  0.9419  0.0044 -5.7850
  342MOL0     H45093   7.300   2.985   1.183  0.2283  0.6335 -0.1604
  342MOL0     H45094   7.253   3.122   1.077 -2.3957  0.6499  0.0429
  342MOL0     H45095   7.295   3.110   1.379  0.9436  2.3441  1.7117
  342MOL0     H45096   7.191   3.238   1.306 -0.7138 -0.1692 -2.4945
  342MOL0     H45097   7.354   3.362   1.092 -2.0801 -0.7349  1.6686
  342MOL0     H45098   7.741   3.423   1.087 -0.6843  0.1355  1.5942
  342MOL0     H45099   7.602   3.541   1.084 -1.9788 -1.0161  1.5995
  342MOL0     H45100   7.512   3.456   0.894 -0.0211 -0.7399 -0.5199
  342MOL0     H45101   7.573   3.297   0.907 -0.3658  0.4664 -1.3429
  342MOL0     H45102   7.811   3.389   0.858  0.8309  1.9935 -0.5028
  342MOL0     H45103   7.696   3.358   0.730  0.5062  0.0894  0.3459
  342MOL0     H45104   7.641   3.601   0.713 -1.3551 -1.1594  0.5974
  342MOL0     H45105   7.811   3.562   0.693 -1.0465 -5.0884 -0.7251
  342MOL0     H45106   7.986   3.531   0.840 -2.1658  1.2945 -0.7831
  342MOL0     H45107   8.202   3.597   0.932 -2.0958 -0.9140 -2.3000
  342MOL0     H45108   8.485   3.977   1.084 -2.5563  0.2623  3.4050
  342MOL0     H45109   8.717   4.016   1.168 -0.2567  0.7905 -0.7393
  342MOL0     H45110   8.981   3.700   1.153 -0.4398  2.8434 -1.5888
  342MOL0     H45111   8.946   3.651   1.330 -0.6388  1.5391  1.6571
  342MOL0     H45112   9.112   3.809   1.395  1.3345  1.6197 -0.1410
  342MOL0     H45113   9.076   3.911   1.272  0.1826 -0.4924 -0.1356
  342MOL0     H45114   9.248   3.753   1.125 -0.4279 -4.3905 -0.1108
  342MOL0     H45115   9.253   3.657   1.274 -0.5859 -0.1980  0.2171
  342MOL0     H45116   9.333   3.953   1.272  0.9408 -0.2177  1.3653
  342MOL0     H45117   9.308   3.856   1.414 -2.4765  1.7280 -0.4398
  342MOL0     H45118   9.546   3.874   1.373  1.3880 -0.1161 -1.6417
  342MOL0     H45119   9.526   3.812   1.204  1.6164 -4.1742  0.4453
  342MOL0     H45120   9.453   3.604   1.306 -2.5095  1.3667 -0.1919
  342MOL0     H45121   9.462   3.668   1.463 -0.5486 -3.5061  0.3879
  342MOL0     H45122   9.656   3.537   1.428 -0.6082  1.4540  1.1465
  342MOL0     H45123   9.717   3.623   1.295 -0.8111  0.6052 -0.2348
  342MOL0     H45124   9.679   3.730   1.575 -0.6914 -1.4087 -0.3403
  342MOL0     H45125   9.748   3.827   1.450 -1.0026 -1.2274 -1.3843
  342MOL0     H45126   8.732   3.594   1.256 -2.1940 -0.6545  0.4549
  342MOL0     H45127   8.517   3.564   1.189 -2.9751  0.6321 -2.7672
  342MOL0     H45128   7.994   3.906   1.156  0.0744  0.0787 -0.1532
  342MOL0     H45129   7.785   3.836   1.047  0.2432  2.7123 -0.8581
  342MOL0     H45130   6.658   2.486   0.667 -0.2854 -0.0166 -0.8329
  342MOL0     H45131   6.571   2.263   0.653 -0.6240  0.9928 -0.1436
  342MOL0     H45132   6.078   2.077   0.864 -1.5403 -1.4420  1.4941
  342MOL0     H45133   5.954   1.860   0.897 -0.7990  1.1663 -0.0574
  342MOL0     H45134   5.875   1.639   0.871 -2.0851  0.4703  2.1320
  342MOL0     H45135   5.913   1.676   1.038  2.9149  1.0016 -0.0684
  342MOL0     H45136   5.933   1.390   0.923  2.8088 -0.6063  2.0925
  342MOL0     H45137   5.970   1.451   1.088 -1.0169 -3.3727 -0.0745
  342MOL0     H45138   5.741   1.499   1.140  1.6201  0.7875  0.2636
  342MOL0     H45139   5.760   1.331   1.075  0.4829 -0.6212 -2.1635
  342MOL0     H45140   5.567   1.408   1.000  1.4230 -0.1203  2.5172
  342MOL0     H45141   5.635   1.565   0.934 -1.7354 -1.3826 -1.1605
  342MOL0     H45142   5.743   1.290   0.630  2.2011 -1.8584  1.4842
  342MOL0     H45143   6.335   1.654   0.931  0.0407 -0.0501  1.4660
  342MOL0     H45144   6.454   1.860   0.898 -0.2449  1.8265  1.4681
  343MOL0     O45145   0.721   2.468   7.721  1.4118  0.2569 -0.5377
  343MOL0     C45146   0.701   2.363   7.662 -0.2269  1.0502 -0.3797
  343MOL0     O45147   0.792   2.304   7.578  0.4415  0.0334 -0.1925
  343MOL0     C45148   0.898   2.375   7.531  0.2101  0.4437  0.3258
  343MOL0     C45149   1.027   2.324   7.557  0.2977 -0.8758  0.7406
  343MOL0     C45150   1.140   2.393   7.525  0.4099 -0.1089  0.0552
  343MOL0     C45151   1.125   2.522   7.469 -0.5074 -0.6224 -1.4064
  343MOL0     O45152   1.234   2.587   7.412  0.4426  0.0214 -0.0154
  343MOL0     C45153   1.360   2.571   7.462  0.4305  0.1462 -1.0496
  343MOL0     C45154   1.460   2.680   7.409 -0.5084 -0.4826 -0.0399
  343MOL0     C45155   1.602   2.658   7.450  0.1338  0.3161 -0.2914
  343MOL0     C45156   1.688   2.755   7.366 -0.4236  0.0911 -0.5385
  343MOL0     C45157   1.834   2.772   7.412 -0.2070  0.0611 -0.2525
  343MOL0     C45158   1.910   2.885   7.334  0.1623  0.3209 -0.5592
  343MOL0     C45159   2.061   2.864   7.342 -0.5957 -0.2061 -0.0785
  343MOL0     C45160   2.164   2.978   7.331  0.5751 -0.0895 -0.0441
  343MOL0     N45161   2.143   3.033   7.196  0.9166 -0.2452 -0.4122
  343MOL0     C45162   2.061   3.143   7.167 -0.5908  0.7082  0.7910
  343MOL0     C45163   2.076   3.164   7.031 -0.6689  1.2280 -0.8584
  343MOL0     C45164   1.994   3.251   6.949  0.1437  0.4461  0.3272
  343MOL0     C45165   1.846   3.244   6.968  0.2741  0.3422 -0.1235
  343MOL0     C45166   1.779   3.119   6.904  0.1455  1.1626  0.1313
  343MOL0     C45167   1.630   3.130   6.918 -0.8405  0.6536 -0.4450
  343MOL0     O45168   1.582   3.128   7.048  0.2675 -0.2996  0.9239
  343MOL0     C45169   1.457   3.087   7.065  1.2181  0.5812  0.4266
  343MOL0     C45170   1.417   3.017   7.175 -0.6032 -0.0945  0.3800
  343MOL0     C45171   1.285   2.958   7.188  0.6485  0.7715 -1.0980
  343MOL0     C45172   1.199   2.961   7.076  0.1648  0.0473 -0.3194
  343MOL0     C45173   1.061   2.908   7.095 -0.7537 -0.7268  0.1361
  343MOL0     O45174   0.972   2.934   6.986  0.1645 -0.3621  0.0388
  343MOL0     C45175   0.856   2.865   7.002 -0.1172  1.0955  0.3728
  343MOL0     C45176   0.740   2.943   7.018  0.0574 -0.3531 -0.3347
  343MOL0     C45177   0.615   2.885   7.039  0.3130  0.2229  0.3805
  343MOL0     C45178   0.602   2.742   7.039  0.0211  0.8038  0.3849
  343MOL0     O45179   0.480   2.687   7.071 -0.5972  0.5039 -0.0967
  343MOL0     C45180   0.471   2.542   7.052 -0.3678  0.1186  0.1973
  343MOL0     C45181   0.329   2.503   7.015 -0.8834 -0.5106 -0.5719
  343MOL0     C45182   0.241   2.526   7.151 -0.3938 -0.3759  0.4377
  343MOL0     C45183   0.121   2.442   7.148  0.2788 -0.0356  0.3574
  343MOL0     C45184   0.012   2.533   7.217  0.2056 -0.3828  0.0459
  343MOL0     C45185  -0.109   2.449   7.265  0.3073 -0.1811  0.1119
  343MOL0     C45186  -0.204   2.538   7.351 -0.8330  0.0497  0.6093
  343MOL0     C45187  -0.318   2.447   7.382  0.6557  1.3472  0.6106
  343MOL0    Cl45188  -0.426   2.552   7.467 -0.0122  0.2460  0.1298
  343MOL0     C45189   0.731   2.667   7.023  0.1861  0.1260  0.6214
  343MOL0     C45190   0.853   2.730   7.012  0.3438 -0.4682  0.4573
  343MOL0     O45191   1.037   2.846   7.199  0.5439  0.4372 -0.0693
  343MOL0     C45192   1.234   3.022   6.960 -0.1265  0.5737 -0.0730
  343MOL0     C45193   1.355   3.088   6.961 -0.0104 -2.0371 -0.0165
  343MOL0     N45194   2.168   3.070   6.985 -0.4369  0.0071 -0.1512
  343MOL0     N45195   2.221   3.006   7.084  0.2973  0.2339  0.3529
  343MOL0     C45196   1.005   2.576   7.453 -0.3771  0.0032  0.9871
  343MOL0     C45197   0.888   2.505   7.487  0.1025  0.3708  0.3221
  343MOL0     C45198   0.568   2.290   7.675 -0.0021 -1.0447  0.3392
  343MOL0     C45199   0.536   2.176   7.600 -0.4159 -0.4371  0.4702
  343MOL0     C45200   0.413   2.118   7.624 -1.1824 -0.3336  0.1709
  343MOL0     C45201   0.318   2.180   7.700  0.2030 -0.5761 -0.2678
  343MOL0     O45202   0.204   2.106   7.702  0.0679 -0.6041  0.3405
  343MOL0     C45203   0.084   2.163   7.757  0.3869 -0.1905  0.1095
  343MOL0     C45204  -0.004   2.231   7.638 -0.1467 -0.3391 -0.2605
  343MOL0     C45205  -0.120   2.307   7.703  0.4618 -0.0936 -0.0233
  343MOL0     C45206  -0.084   2.433   7.790 -0.0090  0.0420  0.0011
  343MOL0     C45207  -0.194   2.460   7.879 -1.1911 -0.5825  0.1537
  343MOL0     C45208  -0.296   2.502   7.933 -0.1270 -0.0924 -0.6377
  343MOL0     C45209   0.345   2.303   7.766  0.2530  0.1248  0.4103
  343MOL0     C45210   0.476   2.351   7.766 -0.5508  0.9504 -0.5115
  343MOL0     H45211   1.035   2.229   7.609 -0.4309 -0.6866  1.2181
  343MOL0     H45212   1.236   2.351   7.552  1.6300  0.9946 -2.2833
  343MOL0     H45213   1.388   2.468   7.437  0.7487 -0.6961  2.2413
  343MOL0     H45214   1.362   2.584   7.571 -2.1244  0.0267 -0.9243
  343MOL0     H45215   1.428   2.780   7.439 -0.6436 -1.3847  3.2226
  343MOL0     H45216   1.452   2.669   7.300 -1.1295  0.2197 -0.0754
  343MOL0     H45217   1.633   2.555   7.430  1.3777 -0.0867  3.1061
  343MOL0     H45218   1.621   2.670   7.557  2.7703  0.5842 -0.7273
  343MOL0     H45219   1.698   2.724   7.261  1.4648 -1.6695  0.0998
  343MOL0     H45220   1.646   2.855   7.376 -3.4262 -1.2350  1.5861
  343MOL0     H45221   1.884   2.677   7.390  0.6131 -0.3447  2.7889
  343MOL0     H45222   1.833   2.792   7.520  0.0666 -2.2963  0.2541
  343MOL0     H45223   1.875   2.981   7.372 -2.4667 -1.0024  0.6603
  343MOL0     H45224   1.877   2.888   7.230  3.7813 -2.5837 -2.0562
  343MOL0     H45225   2.067   2.805   7.434 -2.5404  2.9074  2.2745
  343MOL0     H45226   2.081   2.790   7.265  2.5311 -2.1600  2.3659
  343MOL0     H45227   2.266   2.939   7.326  0.3152 -0.6370 -2.9213
  343MOL0     H45228   2.156   3.057   7.405 -0.1996 -0.1429 -0.0580
  343MOL0     H45229   1.989   3.185   7.236  1.6202  2.9470  1.8615
  343MOL0     H45230   2.013   3.240   6.842  3.3860 -0.4646  0.9037
  343MOL0     H45231   2.016   3.356   6.971 -1.5889  1.0816 -0.7331
  343MOL0     H45232   1.799   3.324   6.910 -0.3284 -0.4122 -0.6740
  343MOL0     H45233   1.820   3.274   7.070 -1.0122  0.0844 -0.3655
  343MOL0     H45234   1.818   3.106   6.802 -2.5881  1.0520 -0.9901
  343MOL0     H45235   1.816   3.031   6.958  0.9228  1.8867  0.8037
  343MOL0     H45236   1.597   3.041   6.864  4.7877 -0.0025 -3.6071
  343MOL0     H45237   1.607   3.217   6.856  4.7343  2.4542 -0.5043
  343MOL0     H45238   1.480   3.007   7.263 -0.6057 -0.8249  0.3118
  343MOL0     H45239   1.252   2.896   7.271  2.9517 -1.0414 -1.4209
  343MOL0     H45240   0.747   3.051   7.014 -1.1067 -0.2350  0.3543
  343MOL0     H45241   0.522   2.939   7.055  1.3981  1.7778  1.9452
  343MOL0     H45242   0.494   2.502   7.151  0.1573  0.5875  0.2703
  343MOL0     H45243   0.531   2.498   6.972 -0.2309 -0.4829  0.6253
  343MOL0     H45244   0.312   2.402   6.977 -0.4561 -0.1362 -1.7881
  343MOL0     H45245   0.299   2.585   6.949  0.3966  0.5876  0.1455
  343MOL0     H45246   0.218   2.633   7.149  0.2013 -0.2461  0.0265
  343MOL0     H45247   0.301   2.493   7.236 -0.7313 -0.8994  0.4716
  343MOL0     H45248   0.083   2.419   7.048  2.5854  0.1164 -0.5958
  343MOL0     H45249   0.134   2.359   7.218 -2.0329  1.0820  2.2545
  343MOL0     H45250  -0.021   2.606   7.143 -0.3724  3.5478  3.7829
  343MOL0     H45251   0.050   2.585   7.306  1.3835 -0.5252 -0.3641
  343MOL0     H45252  -0.079   2.360   7.321 -2.1444 -1.1776 -0.0353
  343MOL0     H45253  -0.170   2.410   7.183  0.4095  1.0095 -0.5549
  343MOL0     H45254  -0.154   2.585   7.437 -0.1682 -0.3131  0.4232
  343MOL0     H45255  -0.240   2.619   7.287  2.5430 -0.0889 -1.7076
  343MOL0     H45256  -0.303   2.357   7.443 -2.1669  0.4187  0.0891
  343MOL0     H45257  -0.364   2.418   7.288  1.6068 -1.3760  0.9054
  343MOL0     H45258   0.729   2.558   7.029 -1.6826 -0.0384 -1.4475
  343MOL0     H45259   0.947   2.676   7.001  0.8575  0.4482  0.2663
  343MOL0     H45260   1.161   3.031   6.881 -3.6145 -3.8029  2.2015
  343MOL0     H45261   1.376   3.148   6.873 -3.7096  1.1789  1.0021
  343MOL0     H45262   0.988   2.668   7.397  1.4022  0.4414  1.1062
  343MOL0     H45263   0.789   2.548   7.473 -1.2148 -2.7590 -0.9202
  343MOL0     H45264   0.607   2.122   7.539  1.7586 -1.5804  3.7751
  343MOL0     H45265   0.390   2.027   7.570 -1.3602 -0.1194 -0.1207
  343MOL0     H45266   0.100   2.237   7.835  0.3271 -0.8291  0.7357
  343MOL0     H45267   0.019   2.085   7.798 -1.8018  1.9387  0.8809
  343MOL0     H45268   0.060   2.296   7.579  1.3147 -1.5013 -0.0308
  343MOL0     H45269  -0.045   2.148   7.579  0.7016 -2.2608  1.7108
  343MOL0     H45270  -0.168   2.236   7.771 -0.3809  1.7902  1.4688
  343MOL0     H45271  -0.205   2.322   7.636 -0.4294  0.5946  1.2034
  343MOL0     H45272   0.002   2.413   7.854  0.8318 -0.7129 -1.3141
  343MOL0     H45273  -0.058   2.523   7.733 -1.2387  0.6301  0.3270
  343MOL0     H45274  -0.388   2.542   7.971  0.1026 -0.4336  0.3087
  343MOL0     H45275   0.265   2.350   7.822 -1.5963 -0.2928 -1.7680
  343MOL0     H45276   0.498   2.450   7.805  0.7117  1.9314 -3.4691
  344MOL0     O45277   7.490   1.756   3.759  0.2462 -0.6340 -0.6182
  344MOL0     C45278   7.513   1.866   3.814  0.1698 -0.6573  0.2194
  344MOL0     O45279   7.417   1.948   3.881 -0.2137  1.1205 -0.2170
  344MOL0     C45280   7.289   1.899   3.900  0.7795  0.5727 -0.9853
  344MOL0     C45281   7.223   1.820   3.801 -0.4142 -0.4865 -0.4317
  344MOL0     C45282   7.095   1.774   3.827  0.0213 -0.0540 -1.1398
  344MOL0     C45283   7.022   1.823   3.934  0.6935 -0.3293  0.0552
  344MOL0     O45284   6.900   1.767   3.966 -0.5180 -0.0125 -0.2582
  344MOL0     C45285   6.798   1.751   3.864 -1.1414  0.0765  0.2465
  344MOL0     C45286   6.661   1.737   3.935  0.1332 -0.1935 -0.2547
  344MOL0     C45287   6.641   1.850   4.052 -0.1727  0.1710  0.3933
  344MOL0     C45288   6.521   1.831   4.134  0.6198  0.6817  0.5939
  344MOL0     C45289   6.526   1.916   4.265 -0.0699  0.5406  0.3807
  344MOL0     C45290   6.420   1.860   4.358 -0.2989  0.5937 -0.8306
  344MOL0     C45291   6.425   1.941   4.489 -0.1367 -0.3134 -0.6459
  344MOL0     C45292   6.305   1.928   4.578  0.3439  0.1900  0.8607
  344MOL0     N45293   6.317   1.989   4.707 -0.5506  0.5810  0.1363
  344MOL0     C45294   6.421   2.069   4.749 -0.0700 -0.4155 -0.3033
  344MOL0     C45295   6.382   2.097   4.877 -0.3216 -0.6668  0.7038
  344MOL0     C45296   6.444   2.189   4.974 -0.3949 -0.1410 -0.5634
  344MOL0     C45297   6.387   2.327   4.953  0.0526  0.6897  0.3208
  344MOL0     C45298   6.428   2.423   5.064  0.2695  0.2680 -0.7834
  344MOL0     C45299   6.383   2.378   5.205  0.2408 -0.5376 -0.2764
  344MOL0     O45300   6.253   2.319   5.205 -0.2702  0.4270 -0.4676
  344MOL0     C45301   6.149   2.391   5.169  0.0910 -0.5870  0.0309
  344MOL0     C45302   6.140   2.535   5.181 -0.6557  0.1933 -0.2808
  344MOL0     C45303   6.025   2.597   5.134 -0.4332 -1.1035 -0.9838
  344MOL0     C45304   5.913   2.526   5.082 -1.1564 -0.9071  0.3208
  344MOL0     C45305   5.800   2.594   5.016 -0.5816  0.3472 -0.4127
  344MOL0     O45306   5.701   2.512   4.960 -0.4396  0.2890  0.0903
  344MOL0     C45307   5.586   2.559   4.918 -0.3978 -0.4712  0.0570
  344MOL0     C45308   5.496   2.459   4.872 -0.5632  0.6445  0.6585
  344MOL0     C45309   5.377   2.494   4.818  0.3065  0.3727  1.1652
  344MOL0     C45310   5.342   2.626   4.785  0.4577 -0.6784 -0.5624
  344MOL0     O45311   5.223   2.674   4.732 -0.1797  0.0203 -0.1402
  344MOL0     C45312   5.112   2.585   4.724  0.8158  0.0106 -0.2070
  344MOL0     C45313   4.987   2.661   4.683 -0.1463  0.0892  0.2128
  344MOL0     C45314   4.933   2.607   4.535 -0.0443 -0.5984 -0.4967
  344MOL0     C45315   4.815   2.687   4.480 -0.1274  0.6917  0.3710
  344MOL0     C45316   4.801   2.657   4.331  0.6861  1.6734 -1.2381
  344MOL0     C45317   4.691   2.739   4.261  0.7885 -0.2504  0.6947
  344MOL0     C45318   4.679   2.697   4.110  0.6550 -0.6776 -0.1626
  344MOL0     C45319   4.622   2.804   4.024 -0.3911  0.3894 -0.7479
  344MOL0    Cl45320   4.466   2.872   4.078 -0.0110 -0.1651  0.1860
  344MOL0     C45321   5.428   2.726   4.819 -0.1981 -0.0198 -0.1360
  344MOL0     C45322   5.545   2.697   4.887 -1.0838  0.3211 -0.3936
  344MOL0     O45323   5.812   2.712   5.005 -0.3583  0.1449  0.3902
  344MOL0     C45324   5.921   2.383   5.089 -0.0498  0.2351  0.6859
  344MOL0     C45325   6.040   2.318   5.121 -0.4440  0.2676 -0.5293
  344MOL0     N45326   6.264   2.035   4.901  0.1047 -0.8810 -0.1294
  344MOL0     N45327   6.222   1.977   4.797  0.0951  0.0729  0.2235
  344MOL0     C45328   7.079   1.904   4.025  0.4186 -0.5421 -0.4244
  344MOL0     C45329   7.208   1.940   4.006 -0.3074 -0.3704 -0.6073
  344MOL0     C45330   7.654   1.913   3.816 -0.0713 -1.1663  0.5406
  344MOL0     C45331   7.682   2.043   3.811 -0.4336 -1.4446  0.2355
  344MOL0     C45332   7.815   2.086   3.792  2.0323 -0.0225 -0.1820
  344MOL0     C45333   7.916   1.999   3.769  0.3639  0.2557 -0.2289
  344MOL0     O45334   8.038   2.051   3.730  0.1661  0.8606  0.3830
  344MOL0     C45335   8.111   1.967   3.643 -1.2992  0.1307 -0.9059
  344MOL0     C45336   8.197   2.068   3.566 -0.5959  0.0938  0.8692
  344MOL0     C45337   8.317   2.003   3.496 -0.8684 -0.6733  0.4050
  344MOL0     C45338   8.381   2.099   3.390 -0.5469  0.4982  0.1049
  344MOL0     C45339   8.293   2.136   3.277  0.2960 -0.4964 -1.0700
  344MOL0     C45340   8.211   2.148   3.185 -0.3904  0.4255  0.5783
  344MOL0     C45341   7.896   1.860   3.794 -0.6814 -0.4596 -0.2884
  344MOL0     C45342   7.765   1.817   3.812  0.1493 -0.1993 -0.3472
  344MOL0     H45343   7.255   1.771   3.709 -2.4290  0.6497 -1.8246
  344MOL0     H45344   7.055   1.698   3.760 -1.5497 -0.1123 -0.1811
  344MOL0     H45345   6.816   1.664   3.800  0.7425  1.5619 -1.3480
  344MOL0     H45346   6.802   1.838   3.799 -0.2334 -2.0005 -2.6706
  344MOL0     H45347   6.632   1.640   3.978 -0.5040  0.1059  0.0028
  344MOL0     H45348   6.596   1.754   3.849  1.4403  0.4730 -1.1397
  344MOL0     H45349   6.640   1.945   3.999 -3.2500  0.5893  1.0172
  344MOL0     H45350   6.725   1.857   4.122 -0.2232  1.7177  0.3301
  344MOL0     H45351   6.435   1.847   4.068  1.0382  1.2942  0.1842
  344MOL0     H45352   6.515   1.725   4.161 -1.6067  0.4221 -0.6844
  344MOL0     H45353   6.521   2.024   4.253  1.6297  0.7407  1.2112
  344MOL0     H45354   6.623   1.894   4.310  0.2134 -1.7550 -1.1417
  344MOL0     H45355   6.443   1.755   4.378 -1.2999 -0.5420 -4.7974
  344MOL0     H45356   6.317   1.868   4.322 -0.3547  0.9723 -0.5931
  344MOL0     H45357   6.504   1.911   4.559 -1.4945  0.0112  1.1042
  344MOL0     H45358   6.434   2.048   4.468  0.2790 -0.2606 -0.2134
  344MOL0     H45359   6.274   1.824   4.591  1.2111 -0.2347 -0.3171
  344MOL0     H45360   6.217   1.973   4.532  0.4222 -1.4512 -1.0494
  344MOL0     H45361   6.497   2.115   4.687 -0.4685 -0.5925 -0.9257
  344MOL0     H45362   6.552   2.191   4.955  0.7614 -1.2061  4.4938
  344MOL0     H45363   6.437   2.150   5.075  1.2344  0.0018 -0.3642
  344MOL0     H45364   6.277   2.329   4.952 -0.1068 -2.4179  0.7781
  344MOL0     H45365   6.432   2.361   4.860  3.2403  0.3759  1.6309
  344MOL0     H45366   6.537   2.427   5.067  0.3871 -1.7332 -0.6561
  344MOL0     H45367   6.393   2.524   5.041  0.7314  0.4256 -0.8082
  344MOL0     H45368   6.388   2.461   5.276  2.2883 -0.1973 -0.7767
  344MOL0     H45369   6.456   2.303   5.237  0.8397 -0.4117 -1.3194
  344MOL0     H45370   6.224   2.594   5.217  0.2250 -1.6252  0.7756
  344MOL0     H45371   6.039   2.705   5.136 -0.6032 -1.0857  0.2131
  344MOL0     H45372   5.516   2.353   4.883  0.2681  0.8086  0.7841
  344MOL0     H45373   5.308   2.412   4.801 -0.6353  1.6395 -1.7687
  344MOL0     H45374   5.090   2.538   4.820  0.9246 -3.2304 -1.6099
  344MOL0     H45375   5.136   2.505   4.652  0.1333  0.0685 -0.5090
  344MOL0     H45376   5.008   2.769   4.688 -0.1402  0.2332 -2.0032
  344MOL0     H45377   4.918   2.643   4.765  0.9262  2.3823  1.7541
  344MOL0     H45378   4.905   2.502   4.530 -1.8641 -0.1197 -1.1909
  344MOL0     H45379   5.016   2.622   4.466  0.0967  0.7061 -0.0775
  344MOL0     H45380   4.726   2.674   4.542  1.1544  2.3275  2.7388
  344MOL0     H45381   4.846   2.791   4.491  1.8599  0.0069  1.8633
  344MOL0     H45382   4.785   2.550   4.313  0.6401  1.4403  0.0833
  344MOL0     H45383   4.896   2.682   4.283  1.8223 -0.0543 -0.0055
  344MOL0     H45384   4.721   2.843   4.270  2.1063 -0.5463 -0.0130
  344MOL0     H45385   4.599   2.729   4.320 -0.1363  3.2588  0.0457
  344MOL0     H45386   4.768   2.651   4.066  0.7856 -0.7524  0.1699
  344MOL0     H45387   4.603   2.619   4.117 -3.7945  3.2293 -0.0017
  344MOL0     H45388   4.614   2.746   3.932  1.8501 -0.7494 -0.3019
  344MOL0     H45389   4.690   2.889   4.021  0.5713 -0.3398 -0.3155
  344MOL0     H45390   5.390   2.826   4.802 -0.4969  0.0606  0.9573
  344MOL0     H45391   5.617   2.773   4.915  1.2734 -2.3519  1.3418
  344MOL0     H45392   5.837   2.325   5.054  2.0638 -2.6335 -0.0609
  344MOL0     H45393   6.051   2.212   5.099 -0.0601  0.8238 -3.5283
  344MOL0     H45394   7.027   1.924   4.118  1.2261  0.0430 -0.0842
  344MOL0     H45395   7.259   1.999   4.081 -0.5577 -0.8951 -0.0115
  344MOL0     H45396   7.608   2.119   3.832  0.5489 -0.1990 -0.6454
  344MOL0     H45397   7.839   2.191   3.786 -1.3022  0.7717 -2.1230
  344MOL0     H45398   8.055   1.900   3.578 -1.3715 -0.3817 -0.3265
  344MOL0     H45399   8.173   1.897   3.700 -1.0738 -0.7754 -2.2214
  344MOL0     H45400   8.134   2.119   3.493 -0.5426  1.3805  1.6900
  344MOL0     H45401   8.238   2.137   3.640 -1.5637  0.2192  1.3091
  344MOL0     H45402   8.272   1.912   3.455  1.0567 -0.0216 -3.6306
  344MOL0     H45403   8.391   1.972   3.570 -0.7015  1.6410  1.2977
  344MOL0     H45404   8.424   2.187   3.439 -1.9370  0.2753  1.8553
  344MOL0     H45405   8.463   2.044   3.344 -1.1461 -0.4176  0.1030
  344MOL0     H45406   8.155   2.127   3.096  1.1809  3.9437 -1.4272
  344MOL0     H45407   7.979   1.791   3.787 -0.2325  0.2824 -3.3769
  344MOL0     H45408   7.750   1.709   3.806  4.0068 -0.9521  0.3447
  345MOL0     O45409   9.286   8.864   4.777 -0.4606  0.4453 -0.6504
  345MOL0     C45410   9.366   8.781   4.730  0.4711  0.8634 -0.5794
  345MOL0     O45411   9.502   8.802   4.708 -0.1692  0.7322  0.0792
  345MOL0     C45412   9.565   8.912   4.761 -0.7291 -1.1106 -0.0661
  345MOL0     C45413   9.672   8.973   4.694 -0.3872  0.0004  0.0252
  345MOL0     C45414   9.752   9.065   4.764 -0.1389  0.6227 -0.0018
  345MOL0     C45415   9.728   9.105   4.894 -0.8130  0.4177  0.0089
  345MOL0     O45416   9.806   9.197   4.963  0.6024 -0.3299  0.0432
  345MOL0     C45417   9.801   9.317   4.897  0.6832 -0.1835  0.6900
  345MOL0     C45418   9.677   9.405   4.902 -0.5952 -0.2108 -0.0065
  345MOL0     C45419   9.632   9.426   5.050  0.4809 -0.3351  0.5957
  345MOL0     C45420   9.511   9.519   5.049 -0.1955 -0.2385 -0.4105
  345MOL0     C45421   9.449   9.563   5.176 -0.0594 -0.1226 -0.3453
  345MOL0     C45422   9.408   9.460   5.286  0.0053 -0.5546 -1.0794
  345MOL0     C45423   9.411   9.515   5.425  0.1904 -0.7963  0.4140
  345MOL0     C45424   9.308   9.632   5.461 -1.4662  1.1074 -0.5169
  345MOL0     N45425   9.170   9.613   5.441 -0.5011 -0.2663 -0.3026
  345MOL0     C45426   9.091   9.673   5.342  1.1363  0.6248 -0.2010
  345MOL0     C45427   8.962   9.632   5.382  0.3999 -0.0997  0.5690
  345MOL0     C45428   8.849   9.675   5.300 -0.6316  0.7578 -0.1374
  345MOL0     C45429   8.831   9.577   5.183 -0.4873  0.2013 -0.5017
  345MOL0     C45430   8.799   9.645   5.053  1.1621  0.0471  0.5185
  345MOL0     C45431   8.695   9.744   5.049 -0.5588  0.0382 -0.2687
  345MOL0     O45432   8.580   9.690   5.119 -0.2845  0.2298 -0.5750
  345MOL0     C45433   8.474   9.773   5.154 -0.6885 -0.3211 -0.5181
  345MOL0     C45434   8.368   9.714   5.224 -0.2790  0.1420 -0.4988
  345MOL0     C45435   8.245   9.778   5.260  0.1555  0.2074  0.6318
  345MOL0     C45436   8.225   9.907   5.214 -0.1610  0.0886 -0.5493
  345MOL0     C45437   8.103   9.982   5.245 -0.1520  0.9302 -0.0866
  345MOL0     O45438   8.017   9.927   5.336  0.4959  0.2000  0.3802
  345MOL0     C45439   7.908  10.003   5.367 -0.0351  0.4730  0.5807
  345MOL0     C45440   7.784   9.927   5.358 -0.2084 -0.8276  0.3904
  345MOL0     C45441   7.661   9.990   5.399  0.1833 -0.1225 -0.0037
  345MOL0     C45442   7.658  10.121   5.445  0.7388 -0.8556 -1.1680
  345MOL0     O45443   7.540  10.192   5.479  0.6316  0.7964  0.3682
  345MOL0     C45444   7.416  10.112   5.494  0.1823 -0.1097 -0.5003
  345MOL0     C45445   7.295  10.203   5.520 -0.6224 -0.8934 -0.8098
  345MOL0     C45446   7.315  10.259   5.660 -0.0992  0.0284 -0.1523
  345MOL0     C45447   7.192  10.325   5.718  0.1526  0.2504  0.1887
  345MOL0     C45448   7.223  10.450   5.807  0.3512 -0.3410  0.8441
  345MOL0     C45449   7.094  10.524   5.853  0.1280 -0.3514  0.0647
  345MOL0     C45450   7.137  10.658   5.918  0.2644 -1.1067  0.1158
  345MOL0     C45451   7.036  10.770   5.912  0.7426  0.4750  0.0039
  345MOL0    Cl45452   7.101  10.910   5.992  0.1080 -0.5637 -0.0806
  345MOL0     C45453   7.785  10.189   5.462 -1.1010  0.5964  0.4653
  345MOL0     C45454   7.907  10.129   5.425 -0.0542 -0.1810  0.5113
  345MOL0     O45455   8.086  10.089   5.189 -0.6943 -0.4772 -0.4847
  345MOL0     C45456   8.329   9.971   5.143 -0.1516 -0.2463 -0.0351
  345MOL0     C45457   8.450   9.908   5.119  0.7968  0.3467  0.3051
  345MOL0     N45458   8.967   9.561   5.500  0.1875 -0.2878 -0.4236
  345MOL0     N45459   9.091   9.546   5.527  0.5013  0.9352 -0.1360
  345MOL0     C45460   9.630   9.038   4.969  0.6420  0.7007  0.0831
  345MOL0     C45461   9.554   8.937   4.899  0.3211 -0.1055 -1.0513
  345MOL0     C45462   9.300   8.660   4.683 -0.6665  0.3415  0.5764
  345MOL0     C45463   9.376   8.559   4.614  0.0650 -0.7306 -0.3623
  345MOL0     C45464   9.330   8.443   4.571  0.4712  0.0563  1.0647
  345MOL0     C45465   9.201   8.414   4.587 -0.1124  0.5043 -0.4967
  345MOL0     O45466   9.139   8.296   4.542 -0.9645  0.0616  0.2016
  345MOL0     C45467   9.208   8.179   4.508  0.1268 -0.5194  0.3960
  345MOL0     C45468   9.279   8.109   4.624 -0.0417  0.0318 -0.1159
  345MOL0     C45469   9.360   7.984   4.590  0.3022  0.6132  0.1093
  345MOL0     C45470   9.498   8.013   4.530  0.1142 -0.9009 -0.7204
  345MOL0     C45471   9.591   8.026   4.652  0.2196 -0.3772  1.1178
  345MOL0     C45472   9.664   8.042   4.741  0.2942  0.4691 -0.1873
  345MOL0     C45473   9.113   8.510   4.642 -0.3785  0.0222 -0.1615
  345MOL0     C45474   9.160   8.634   4.692 -0.3125 -0.0564  0.0804
  345MOL0     H45475   9.691   8.938   4.593  3.0403  1.6260 -0.0619
  345MOL0     H45476   9.835   9.105   4.706 -0.3353 -1.1498 -1.6191
  345MOL0     H45477   9.818   9.313   4.789  3.0662 -0.8170  1.0292
  345MOL0     H45478   9.884   9.375   4.938  0.0574  0.8984  0.4705
  345MOL0     H45479   9.598   9.360   4.841 -1.7314  3.1586 -1.2318
  345MOL0     H45480   9.694   9.502   4.856 -0.2209  0.2929  1.1589
  345MOL0     H45481   9.719   9.472   5.098 -1.2998  3.3332  0.6279
  345MOL0     H45482   9.609   9.329   5.095  0.1086 -1.5352 -2.0027
  345MOL0     H45483   9.541   9.606   4.989 -4.2692  0.7568 -1.3078
  345MOL0     H45484   9.440   9.475   4.978  0.1759  1.3571 -1.8274
  345MOL0     H45485   9.360   9.622   5.152 -1.9185 -2.5339  0.2125
  345MOL0     H45486   9.520   9.634   5.219 -0.0791  1.4388 -2.7013
  345MOL0     H45487   9.488   9.385   5.286  1.6719  1.1526 -0.1256
  345MOL0     H45488   9.312   9.409   5.274 -0.7682  0.4947  0.3377
  345MOL0     H45489   9.396   9.440   5.503 -0.9579  1.8667  2.9190
  345MOL0     H45490   9.509   9.562   5.437 -0.0967  0.4321 -1.5969
  345MOL0     H45491   9.344   9.718   5.404  1.6564  1.5209  1.8530
  345MOL0     H45492   9.315   9.655   5.567  0.6500  0.4308 -0.4790
  345MOL0     H45493   9.122   9.732   5.256 -2.7571  2.6614 -0.4284
  345MOL0     H45494   8.868   9.775   5.258  0.0493  0.3352 -0.8639
  345MOL0     H45495   8.750   9.684   5.346 -0.6418  0.7148 -0.1509
  345MOL0     H45496   8.763   9.496   5.213  0.8693 -0.7582  0.1007
  345MOL0     H45497   8.930   9.532   5.170 -0.0628  0.6938  0.8180
  345MOL0     H45498   8.887   9.699   5.018 -0.2631  2.4757  0.4419
  345MOL0     H45499   8.768   9.570   4.979 -0.7266  1.2393  0.0399
  345MOL0     H45500   8.676   9.773   4.946 -4.2191  3.8652  1.1853
  345MOL0     H45501   8.736   9.830   5.104  0.6758 -1.0752  0.6435
  345MOL0     H45502   8.393   9.612   5.249  1.0652  0.9378  1.5828
  345MOL0     H45503   8.170   9.729   5.321 -0.1355  0.6853  0.6637
  345MOL0     H45504   7.782   9.824   5.325 -1.0937 -1.1502  1.3963
  345MOL0     H45505   7.570   9.932   5.399 -0.2938  0.6064  0.2168
  345MOL0     H45506   7.430  10.046   5.580  1.2860  1.1573  0.3270
  345MOL0     H45507   7.385  10.055   5.406 -1.1933  1.1089 -0.8474
  345MOL0     H45508   7.212  10.132   5.508 -0.3015 -1.4782  0.2400
  345MOL0     H45509   7.292  10.281   5.444 -0.4048 -0.0756  0.0095
  345MOL0     H45510   7.400  10.327   5.651 -0.5070  0.2784 -4.4078
  345MOL0     H45511   7.331  10.176   5.729  0.6391  0.4971  0.2453
  345MOL0     H45512   7.122  10.353   5.639 -2.0938 -0.7716  1.6748
  345MOL0     H45513   7.145  10.241   5.770  1.0356  1.4955  3.2191
  345MOL0     H45514   7.285  10.523   5.754 -2.0141 -0.7538 -2.8870
  345MOL0     H45515   7.272  10.402   5.892 -1.8813 -1.3628  1.6132
  345MOL0     H45516   7.044  10.468   5.932 -3.3441  1.7727 -0.4196
  345MOL0     H45517   7.018  10.540   5.776 -0.4148  2.5726  1.0965
  345MOL0     H45518   7.166  10.646   6.022 -1.9564  0.9384  1.0814
  345MOL0     H45519   7.225  10.700   5.868  0.0216  3.5563  3.0083
  345MOL0     H45520   6.946  10.745   5.969 -0.3825  1.1703 -1.3876
  345MOL0     H45521   7.001  10.788   5.810  1.6468  0.4694 -0.3157
  345MOL0     H45522   7.786  10.291   5.501 -2.2282  0.3270  1.2645
  345MOL0     H45523   7.994  10.193   5.438  0.1370 -0.1791 -0.6746
  345MOL0     H45524   8.306  10.070   5.106 -0.2714 -0.1159  0.3747
  345MOL0     H45525   8.510   9.972   5.055  1.1557  1.1395  1.4013
  345MOL0     H45526   9.611   9.062   5.073 -0.4608  0.7495 -0.1159
  345MOL0     H45527   9.486   8.873   4.955  1.0132  1.4911  1.7898
  345MOL0     H45528   9.483   8.576   4.617 -0.1420  0.5950  1.0811
  345MOL0     H45529   9.400   8.374   4.525  1.0222  1.7489 -0.7878
  345MOL0     H45530   9.274   8.205   4.425 -0.1762  0.4923  0.4614
  345MOL0     H45531   9.147   8.093   4.478  1.5971 -2.7096  3.1111
  345MOL0     H45532   9.348   8.181   4.670  1.9784 -1.1281 -1.2130
  345MOL0     H45533   9.219   8.076   4.710 -1.3310  1.6652 -0.3400
  345MOL0     H45534   9.298   7.935   4.514  0.4107  1.6561 -0.6760
  345MOL0     H45535   9.368   7.923   4.680 -1.7947  0.1987  0.0671
  345MOL0     H45536   9.521   7.928   4.465 -3.5339 -0.9406 -2.1870
  345MOL0     H45537   9.487   8.103   4.468  0.0405 -0.9917 -0.8397
  345MOL0     H45538   9.743   8.046   4.813 -1.3587 -0.1782  1.7373
  345MOL0     H45539   9.008   8.488   4.658 -0.2445 -0.5133 -0.0201
  345MOL0     H45540   9.094   8.703   4.744 -0.7037 -0.4193  0.0679
  346MOL0     O45541   2.058   8.564   3.037  0.8175  0.1796  0.1388
  346MOL0     C45542   2.099   8.546   2.927 -0.3526  1.2949  0.8241
  346MOL0     O45543   2.038   8.484   2.824  0.3376 -0.1313 -0.0896
  346MOL0     C45544   1.924   8.418   2.856  0.5849 -0.7114 -0.1320
  346MOL0     C45545   1.939   8.311   2.949  0.7371 -0.0422 -0.6615
  346MOL0     C45546   1.829   8.236   2.994  0.5427 -0.3280  0.4918
  346MOL0     C45547   1.701   8.273   2.948 -0.6336 -0.2597  0.4228
  346MOL0     O45548   1.591   8.209   2.983 -0.2112  0.7114  0.0899
  346MOL0     C45549   1.595   8.066   2.954 -1.3438 -0.4799 -0.4955
  346MOL0     C45550   1.460   8.026   2.896  0.4856  0.7544  0.0254
  346MOL0     C45551   1.412   8.097   2.763 -0.1293 -0.2207  0.3913
  346MOL0     C45552   1.263   8.099   2.744  0.7842 -0.0899 -0.1000
  346MOL0     C45553   1.191   7.959   2.728 -0.1338 -1.1036 -0.1718
  346MOL0     C45554   1.139   7.898   2.861 -0.8124 -0.1980  0.1715
  346MOL0     C45555   1.067   7.760   2.875 -0.1671 -0.8354  0.8524
  346MOL0     C45556   0.928   7.747   2.811  0.7141  0.9172 -0.5121
  346MOL0     N45557   0.887   7.610   2.794 -0.4788 -0.0635 -0.6305
  346MOL0     C45558   0.753   7.572   2.801  0.2016  0.3974  0.4607
  346MOL0     C45559   0.749   7.447   2.735 -0.5755 -0.6944 -0.1451
  346MOL0     C45560   0.634   7.356   2.703  0.2576  0.1521  1.2197
  346MOL0     C45561   0.623   7.367   2.546 -0.0809  1.1552  0.0295
  346MOL0     C45562   0.554   7.243   2.486  0.0509  0.1533  0.2819
  346MOL0     C45563   0.521   7.250   2.336  0.3660 -0.1181 -0.3270
  346MOL0     O45564   0.397   7.325   2.323  0.5512 -0.3296 -0.4836
  346MOL0     C45565   0.319   7.308   2.218  0.3985  0.0293  0.4720
  346MOL0     C45566   0.200   7.383   2.220 -0.1507 -0.9260  0.4217
  346MOL0     C45567   0.101   7.377   2.118 -0.7622  0.2980 -0.7512
  346MOL0     C45568   0.105   7.267   2.032 -0.0506  0.0862  0.2348
  346MOL0     C45569   0.008   7.255   1.920  0.6100 -0.3179  0.6536
  346MOL0     O45570  -0.117   7.294   1.961  0.4402 -0.2309  0.5418
  346MOL0     C45571  -0.233   7.259   1.897  1.0544 -0.0572  0.4212
  346MOL0     C45572  -0.344   7.345   1.874 -1.2702  0.5361  0.0987
  346MOL0     C45573  -0.461   7.301   1.811 -0.7386 -0.6951  0.3019
  346MOL0     C45574  -0.467   7.167   1.752 -0.6232 -0.0249 -0.5944
  346MOL0     O45575  -0.571   7.118   1.679 -0.2433  0.4053 -0.1668
  346MOL0     C45576  -0.695   7.183   1.689  0.4938  0.1684 -0.1921
  346MOL0     C45577  -0.804   7.113   1.605 -0.3249 -0.2640 -0.6699
  346MOL0     C45578  -0.924   7.195   1.568 -0.2267  0.0731  0.2098
  346MOL0     C45579  -1.007   7.142   1.444  0.2490 -0.0818  0.6779
  346MOL0     C45580  -1.151   7.208   1.440  0.5429 -1.0002 -0.4422
  346MOL0     C45581  -1.231   7.161   1.309 -0.6215 -0.4632 -0.2234
  346MOL0     C45582  -1.353   7.255   1.280 -0.1053 -0.2600  0.2788
  346MOL0     C45583  -1.420   7.218   1.144  0.4426  0.3272 -0.6828
  346MOL0    Cl45584  -1.519   7.073   1.176 -0.9031  0.4031 -0.0581
  346MOL0     C45585  -0.361   7.076   1.786  1.0600  0.0388 -0.3389
  346MOL0     C45586  -0.251   7.123   1.859  0.3410 -0.7602  0.2877
  346MOL0     O45587   0.042   7.207   1.811  0.2863 -0.3004  0.4514
  346MOL0     C45588   0.209   7.178   2.037  0.2827 -1.1353  0.6118
  346MOL0     C45589   0.319   7.199   2.122  0.2862  0.6486  0.3430
  346MOL0     N45590   0.877   7.407   2.693  0.4910  0.4852 -0.1309
  346MOL0     N45591   0.951   7.508   2.727 -0.3697 -0.0329  0.7361
  346MOL0     C45592   1.680   8.381   2.871  0.3453 -0.4386  0.7914
  346MOL0     C45593   1.789   8.458   2.819 -0.2079 -0.0285 -0.2140
  346MOL0     C45594   2.236   8.585   2.899 -0.0130 -1.2421 -0.2702
  346MOL0     C45595   2.312   8.659   2.995  0.4095 -0.5491  0.6848
  346MOL0     C45596   2.448   8.685   2.964  0.1020 -0.5119 -0.5464
  346MOL0     C45597   2.504   8.644   2.840 -0.1430 -1.1187 -0.7198
  346MOL0     O45598   2.644   8.646   2.848  0.0624 -0.2161  0.8990
  346MOL0     C45599   2.716   8.611   2.726 -0.1838  0.2876 -0.2945
  346MOL0     C45600   2.870   8.583   2.745 -0.3336 -0.1023 -0.3930
  346MOL0     C45601   2.942   8.721   2.748  0.3933  1.1015 -1.1780
  346MOL0     C45602   3.063   8.728   2.846  0.3536 -0.2272 -0.5814
  346MOL0     C45603   3.176   8.796   2.797 -0.1326  0.8477  1.0195
  346MOL0     C45604   3.284   8.849   2.753 -0.2270  0.3600  0.0292
  346MOL0     C45605   2.420   8.599   2.740 -0.5488  0.6621  0.1561
  346MOL0     C45606   2.290   8.569   2.771  0.1960 -0.4971  0.1073
  346MOL0     H45607   2.041   8.272   2.957  0.1936 -1.3897  0.0844
  346MOL0     H45608   1.853   8.147   3.050  2.0385  0.6231  1.4460
  346MOL0     H45609   1.604   8.013   3.049 -2.6494 -0.3829 -0.2933
  346MOL0     H45610   1.669   8.034   2.880 -1.0550 -3.1263  0.7998
  346MOL0     H45611   1.391   8.052   2.977 -0.0699 -3.6737  1.2463
  346MOL0     H45612   1.458   7.919   2.872 -1.9633  0.8239 -0.3459
  346MOL0     H45613   1.461   8.041   2.683 -2.6279 -2.3004  0.1811
  346MOL0     H45614   1.449   8.200   2.757  2.8454 -1.1078  1.6345
  346MOL0     H45615   1.221   8.158   2.826 -1.3593 -2.8602  0.9588
  346MOL0     H45616   1.251   8.157   2.652  3.1968  2.8773  1.2741
  346MOL0     H45617   1.267   7.895   2.683  1.0142 -0.8328  1.3025
  346MOL0     H45618   1.113   7.955   2.651 -2.2921 -2.1733  1.9170
  346MOL0     H45619   1.075   7.978   2.898  1.8486  1.3055  1.8643
  346MOL0     H45620   1.220   7.898   2.935 -0.4136 -2.6126 -0.1709
  346MOL0     H45621   1.140   7.691   2.833  0.7090 -2.8395  5.1155
  346MOL0     H45622   1.065   7.727   2.979 -1.4545  2.1147  1.8553
  346MOL0     H45623   0.923   7.784   2.708 -0.9488 -0.6598 -1.0426
  346MOL0     H45624   0.857   7.798   2.877  0.4075 -1.5286  1.1295
  346MOL0     H45625   0.664   7.621   2.838 -0.9259  0.2287 -1.8135
  346MOL0     H45626   0.538   7.394   2.739 -0.5071 -1.8015  1.4154
  346MOL0     H45627   0.646   7.252   2.735  0.3725  0.6785  2.9798
  346MOL0     H45628   0.719   7.358   2.494  0.2922  2.3000  0.4833
  346MOL0     H45629   0.578   7.463   2.521  1.5119  1.1062 -3.6094
  346MOL0     H45630   0.633   7.168   2.492 -0.6069 -0.5517  0.3600
  346MOL0     H45631   0.473   7.202   2.547 -0.9855  1.5630 -0.1016
  346MOL0     H45632   0.500   7.150   2.296  0.2046 -1.5337  2.9427
  346MOL0     H45633   0.593   7.301   2.271 -0.8823  2.1214 -0.0503
  346MOL0     H45634   0.186   7.454   2.301 -2.2482 -0.6976 -0.0807
  346MOL0     H45635   0.015   7.443   2.116 -0.5655  0.5416 -1.7556
  346MOL0     H45636  -0.332   7.441   1.923 -3.2590  0.6366  0.4430
  346MOL0     H45637  -0.548   7.365   1.822 -1.5922 -1.5763 -1.0828
  346MOL0     H45638  -0.685   7.285   1.652  2.5940 -0.0282 -0.2582
  346MOL0     H45639  -0.718   7.179   1.796 -0.7648 -1.9533 -0.4673
  346MOL0     H45640  -0.827   7.023   1.662  1.7258 -0.5644 -0.2302
  346MOL0     H45641  -0.760   7.081   1.510 -1.2105 -0.6586 -0.9581
  346MOL0     H45642  -0.893   7.296   1.541  0.0660 -0.5680 -2.0226
  346MOL0     H45643  -0.985   7.201   1.659  2.9606 -0.0370  2.5314
  346MOL0     H45644  -0.951   7.165   1.353  0.1520  1.6828  1.0140
  346MOL0     H45645  -1.019   7.034   1.448  1.2841 -0.1837  3.0278
  346MOL0     H45646  -1.144   7.317   1.436  2.7865 -1.1292 -2.1215
  346MOL0     H45647  -1.205   7.184   1.532  1.7369  0.7904  0.7957
  346MOL0     H45648  -1.269   7.060   1.327  0.6681 -0.7697  0.9977
  346MOL0     H45649  -1.157   7.163   1.229 -0.1615  4.4773  0.0377
  346MOL0     H45650  -1.435   7.259   1.353  0.1608 -1.6841  0.6934
  346MOL0     H45651  -1.314   7.357   1.274  1.2998 -0.4983  3.4770
  346MOL0     H45652  -1.347   7.193   1.067  3.1434 -2.6646  2.4947
  346MOL0     H45653  -1.485   7.303   1.120  1.1695  2.6043  4.1024
  346MOL0     H45654  -0.358   6.969   1.770 -2.2426 -0.3535  0.8627
  346MOL0     H45655  -0.164   7.060   1.875 -0.3111 -1.6766  0.3212
  346MOL0     H45656   0.221   7.095   1.968 -2.6260 -0.0107 -1.4382
  346MOL0     H45657   0.402   7.131   2.116  0.1442  0.6019 -2.0660
  346MOL0     H45658   1.582   8.416   2.841  0.6884  0.0551  0.2313
  346MOL0     H45659   1.780   8.549   2.761 -1.3846 -0.4690 -0.7427
  346MOL0     H45660   2.290   8.681   3.099  2.0871 -2.2501  1.4422
  346MOL0     H45661   2.502   8.721   3.051 -1.5306  0.3525  0.1703
  346MOL0     H45662   2.702   8.693   2.655  1.0603  1.2444  0.5309
  346MOL0     H45663   2.678   8.513   2.696 -0.5725  0.6197 -0.9320
  346MOL0     H45664   2.878   8.537   2.844 -4.9019 -1.8091 -0.5635
  346MOL0     H45665   2.900   8.520   2.661 -3.1561  1.7194 -2.9862
  346MOL0     H45666   2.871   8.792   2.790 -1.9778 -1.1821 -1.0406
  346MOL0     H45667   2.980   8.743   2.648 -0.0102  1.3350 -1.2811
  346MOL0     H45668   3.024   8.770   2.939 -2.4193 -1.0039 -1.2985
  346MOL0     H45669   3.099   8.626   2.865 -0.4114 -0.2146  1.1770
  346MOL0     H45670   3.382   8.872   2.718  0.1257 -0.5816  0.3557
  346MOL0     H45671   2.447   8.579   2.637  2.8330 -1.4208  1.2759
  346MOL0     H45672   2.234   8.533   2.686  2.5217 -0.5627 -1.5167
  347MOL0     O45673   3.443   7.433  10.199  0.2039 -0.3969  0.5529
  347MOL0     C45674   3.396   7.548  10.223 -0.1971  0.5983  0.2393
  347MOL0     O45675   3.265   7.587  10.204 -0.4989  1.0125  0.0463
  347MOL0     C45676   3.166   7.498  10.167 -0.1574  0.3142 -0.5543
  347MOL0     C45677   3.180   7.418  10.055 -0.0148  0.7552 -0.4982
  347MOL0     C45678   3.075   7.344  10.007 -0.0461 -0.1831 -0.2999
  347MOL0     C45679   2.944   7.348  10.066 -0.6077  0.4165  0.0214
  347MOL0     O45680   2.839   7.278  10.013 -0.8202  0.5095 -0.2734
  347MOL0     C45681   2.768   7.342   9.910 -0.7160  0.1257 -0.6757
  347MOL0     C45682   2.633   7.282   9.900 -0.6026 -0.1728 -0.3790
  347MOL0     C45683   2.570   7.266  10.043 -0.1354 -0.2112 -0.1289
  347MOL0     C45684   2.445   7.172  10.028 -0.0190  0.2859  0.5272
  347MOL0     C45685   2.399   7.126  10.164 -0.6297 -0.1101  0.0089
  347MOL0     C45686   2.311   7.007  10.160  0.3911  0.7171  0.3386
  347MOL0     C45687   2.198   7.007  10.062 -0.0167  0.3081 -0.3983
  347MOL0     C45688   2.093   7.124  10.082  0.0850  0.1795 -0.1826
  347MOL0     N45689   2.007   7.095  10.202  0.6727  0.4608 -0.6257
  347MOL0     C45690   1.947   6.979  10.233  0.8293 -1.1282  0.2249
  347MOL0     C45691   1.852   7.010  10.317 -0.3147 -0.6218  0.4514
  347MOL0     C45692   1.757   6.919  10.385 -0.4351 -0.5707 -0.1911
  347MOL0     C45693   1.613   6.930  10.336  0.0901 -0.1046  0.6845
  347MOL0     C45694   1.534   7.072  10.342 -0.1602  0.4811  0.7766
  347MOL0     C45695   1.414   7.071  10.249  0.7797  0.2049 -0.3088
  347MOL0     O45696   1.366   7.206  10.244 -0.3991  0.1912  0.7934
  347MOL0     C45697   1.267   7.229  10.159  0.4920 -0.4447 -1.0692
  347MOL0     C45698   1.188   7.135  10.091 -0.4334 -0.2137  0.5322
  347MOL0     C45699   1.078   7.170  10.014  0.6308  0.2542 -0.3049
  347MOL0     C45700   1.030   7.296  10.011  0.2075 -1.0823 -0.1869
  347MOL0     C45701   0.901   7.334   9.949 -0.8752  0.0517 -0.6433
  347MOL0     O45702   0.842   7.451   9.993 -0.2004 -0.4688 -0.9110
  347MOL0     C45703   0.718   7.475   9.955  0.4872 -0.5747 -0.4106
  347MOL0     C45704   0.603   7.425  10.019 -0.7767 -0.2151 -0.4187
  347MOL0     C45705   0.476   7.483  10.000 -0.3377  0.0377  0.9351
  347MOL0     C45706   0.467   7.585   9.899  0.8058 -0.4664  0.1094
  347MOL0     O45707   0.348   7.657   9.872 -0.9463  0.7500  0.1586
  347MOL0     C45708   0.232   7.609   9.941  0.1301 -0.4611 -0.3937
  347MOL0     C45709   0.124   7.714   9.901 -0.8202 -0.4495  0.3259
  347MOL0     C45710  -0.008   7.677   9.952  1.5017 -0.0585  0.4189
  347MOL0     C45711  -0.100   7.794   9.898 -0.3088 -0.2294 -0.3110
  347MOL0     C45712  -0.215   7.739   9.835  0.8181  0.1023 -0.8147
  347MOL0     C45713  -0.326   7.842   9.821  0.4870 -0.4433  0.0321
  347MOL0     C45714  -0.461   7.788   9.767 -0.6792 -0.6944  0.5570
  347MOL0     C45715  -0.558   7.885   9.696 -0.2320 -0.4789  0.4281
  347MOL0    Cl45716  -0.458   7.964   9.568 -0.2447 -0.1622 -0.4383
  347MOL0     C45717   0.581   7.644   9.844 -0.1584 -0.0006 -0.7132
  347MOL0     C45718   0.703   7.590   9.876  0.3606 -0.0877 -0.4097
  347MOL0     O45719   0.848   7.262   9.871  0.0107 -0.1089 -0.6593
  347MOL0     C45720   1.104   7.392  10.081 -0.1237  0.7991 -0.1069
  347MOL0     C45721   1.219   7.358  10.157 -0.0599  1.2663 -0.5966
  347MOL0     N45722   1.847   7.148  10.343  0.2350  0.3684  1.2269
  347MOL0     N45723   1.953   7.195  10.277  0.3683  0.1310  0.7728
  347MOL0     C45724   2.925   7.418  10.185 -0.0998  0.3415 -0.4693
  347MOL0     C45725   3.037   7.495  10.235 -0.0172 -0.0581  0.0944
  347MOL0     C45726   3.482   7.637  10.293  0.7129 -1.1604  0.2777
  347MOL0     C45727   3.444   7.773  10.305 -0.3579 -0.3010 -1.0666
  347MOL0     C45728   3.522   7.870  10.373 -0.3506  0.5774  1.1441
  347MOL0     C45729   3.640   7.826  10.423  0.1760  0.6983 -0.0760
  347MOL0     O45730   3.694   7.925  10.502 -0.1892  0.5862  0.7669
  347MOL0     C45731   3.802   7.901  10.595 -0.0397  0.0962 -0.3265
  347MOL0     C45732   3.747   7.846  10.728  0.4472  0.7119  0.8048
  347MOL0     C45733   3.625   7.916  10.794 -0.8521  0.9827 -0.0207
  347MOL0     C45734   3.643   8.060  10.825  0.6429  0.4968  0.3544
  347MOL0     C45735   3.543   8.109  10.921 -0.7120 -0.0084 -0.7156
  347MOL0     C45736   3.471   8.159  11.004 -0.1808  0.7188  0.2518
  347MOL0     C45737   3.681   7.687  10.422  0.4683 -0.2213 -0.1517
  347MOL0     C45738   3.597   7.596  10.358 -0.6880 -0.0266  0.7846
  347MOL0     H45739   3.271   7.404   9.999  0.0870 -3.1785  0.3981
  347MOL0     H45740   3.076   7.274   9.924 -2.0906  0.8045 -1.2317
  347MOL0     H45741   2.829   7.330   9.820  2.4438 -0.8354  1.4153
  347MOL0     H45742   2.762   7.449   9.929 -2.4617  0.1526 -1.2442
  347MOL0     H45743   2.627   7.189   9.843 -3.1731 -0.7195  0.6490
  347MOL0     H45744   2.573   7.351   9.840 -2.9020 -0.6471  1.2163
  347MOL0     H45745   2.535   7.359  10.088  0.2252  0.5166 -1.2971
  347MOL0     H45746   2.631   7.219  10.120 -1.8767 -0.3620  1.2128
  347MOL0     H45747   2.365   7.216   9.968  0.1765  1.7319  1.2881
  347MOL0     H45748   2.466   7.075   9.983 -0.6050  0.1679  0.4977
  347MOL0     H45749   2.352   7.209  10.218  0.7485  1.2539 -0.8030
  347MOL0     H45750   2.487   7.096  10.222 -1.0111 -0.7133  0.2932
  347MOL0     H45751   2.270   7.004  10.261  1.2141  2.1273  0.7362
  347MOL0     H45752   2.359   6.911  10.140  1.5841  1.1600  0.9754
  347MOL0     H45753   2.237   7.024   9.961  2.0614  1.3517  0.5186
  347MOL0     H45754   2.145   6.911  10.068  0.5707  0.0307  0.5843
  347MOL0     H45755   2.027   7.141   9.997  0.4266 -0.0130 -0.4890
  347MOL0     H45756   2.149   7.216  10.102 -0.4783  0.7465 -1.2009
  347MOL0     H45757   1.950   6.878  10.193 -0.3802 -1.5203  1.0704
  347MOL0     H45758   1.758   6.930  10.494  0.9798  4.0690 -0.4226
  347MOL0     H45759   1.800   6.821  10.363  3.6498  0.8212  0.7993
  347MOL0     H45760   1.550   6.862  10.395  3.3413 -1.7686  2.5116
  347MOL0     H45761   1.601   6.885  10.237 -2.0713 -2.4425  1.8796
  347MOL0     H45762   1.507   7.116  10.438  0.7348  4.4258 -0.6000
  347MOL0     H45763   1.601   7.142  10.291 -2.6768  1.3988 -1.4844
  347MOL0     H45764   1.330   7.018  10.296  0.3707  0.4938 -0.7000
  347MOL0     H45765   1.432   7.028  10.150 -0.9692  1.7079 -1.3614
  347MOL0     H45766   1.215   7.030  10.100  0.7474  0.0729  0.5599
  347MOL0     H45767   1.028   7.087   9.964 -1.1092  1.7791 -1.1955
  347MOL0     H45768   0.607   7.356  10.103 -2.4606 -1.0010 -0.9382
  347MOL0     H45769   0.386   7.460  10.057  1.3034  0.9366  4.1643
  347MOL0     H45770   0.245   7.614  10.049 -0.1265  1.1033 -0.4129
  347MOL0     H45771   0.216   7.503   9.922  2.6921 -1.6487  3.1343
  347MOL0     H45772   0.124   7.717   9.792 -3.1170 -0.6458  0.2720
  347MOL0     H45773   0.152   7.814   9.934  0.6988 -0.4754 -0.7700
  347MOL0     H45774   0.004   7.671  10.061  2.5510 -1.1631  0.2673
  347MOL0     H45775  -0.039   7.576   9.923  0.4927 -0.2872  2.1352
  347MOL0     H45776  -0.128   7.856   9.984  0.7335 -1.1756  0.7440
  347MOL0     H45777  -0.058   7.866   9.827 -3.4135  1.3831 -0.7148
  347MOL0     H45778  -0.259   7.661   9.898  1.9119  1.8484  2.3031
  347MOL0     H45779  -0.197   7.703   9.733  0.2418 -0.9666 -0.5570
  347MOL0     H45780  -0.289   7.915   9.748 -2.5234  1.8642  0.6206
  347MOL0     H45781  -0.343   7.884   9.921  2.1658 -0.7326  0.4801
  347MOL0     H45782  -0.426   7.719   9.691 -1.5574  2.6963 -3.2586
  347MOL0     H45783  -0.509   7.737   9.851  2.9970 -0.8301  2.8012
  347MOL0     H45784  -0.592   7.958   9.770 -1.6534  1.9994 -2.4550
  347MOL0     H45785  -0.647   7.833   9.660 -1.7263  0.9801  1.8325
  347MOL0     H45786   0.562   7.730   9.782  2.7789  0.9156 -0.5236
  347MOL0     H45787   0.791   7.631   9.827  1.5656 -1.3363  0.6339
  347MOL0     H45788   1.057   7.489  10.083 -1.7882  0.0214  1.7256
  347MOL0     H45789   1.272   7.434  10.214 -1.6219  0.5278  1.9701
  347MOL0     H45790   2.832   7.406  10.240 -0.7557  0.8614 -1.4300
  347MOL0     H45791   3.018   7.554  10.325  0.5951  2.1432 -1.1542
  347MOL0     H45792   3.353   7.820  10.269 -0.6175 -0.6785 -0.9185
  347MOL0     H45793   3.496   7.975  10.377  0.8040  0.8370  2.9924
  347MOL0     H45794   3.861   7.991  10.613  2.1648 -1.0770 -1.3446
  347MOL0     H45795   3.868   7.820  10.561 -1.0344 -1.5460  1.4787
  347MOL0     H45796   3.718   7.744  10.702 -4.0210  1.5935  1.5119
  347MOL0     H45797   3.831   7.846  10.799 -0.0097  2.1145  1.3826
  347MOL0     H45798   3.601   7.861  10.885 -1.8814  0.8798 -0.3428
  347MOL0     H45799   3.544   7.884  10.728 -0.5877  1.9722 -0.8462
  347MOL0     H45800   3.738   8.078  10.876  0.8719  0.4687 -0.0574
  347MOL0     H45801   3.633   8.117  10.732 -0.1311  0.2526  0.2852
  347MOL0     H45802   3.404   8.218  11.063 -2.9373 -1.9002  0.0048
  347MOL0     H45803   3.764   7.658  10.486  0.4931 -2.3915 -1.0826
  347MOL0     H45804   3.620   7.490  10.352  0.9351  0.2668  1.2984
  348MOL0     O45805   3.534  10.510   1.220  0.2037 -0.1335  0.2936
  348MOL0     C45806   3.620  10.431   1.270  0.6715  0.3028 -0.6580
  348MOL0     O45807   3.587  10.302   1.302 -0.0115  0.0644  0.1358
  348MOL0     C45808   3.459  10.256   1.281  0.4558 -0.1408 -1.2233
  348MOL0     C45809   3.344  10.324   1.329  0.5650  0.6014  0.1356
  348MOL0     C45810   3.219  10.259   1.319 -0.1115 -0.2715  0.3903
  348MOL0     C45811   3.199  10.138   1.266  0.2388  0.8721  0.5021
  348MOL0     O45812   3.080  10.067   1.268 -0.1937 -0.2418  0.1209
  348MOL0     C45813   2.965  10.141   1.303  0.6889  1.1432 -0.3356
  348MOL0     C45814   2.851  10.037   1.293  0.6880 -0.8027  0.0820
  348MOL0     C45815   2.710  10.092   1.321 -0.5820  0.2336  0.5169
  348MOL0     C45816   2.630   9.980   1.362 -0.3693 -0.3502 -0.2110
  348MOL0     C45817   2.487  10.026   1.384 -0.1584 -0.3745 -1.1191
  348MOL0     C45818   2.457  10.042   1.538  0.5490 -1.1848 -0.6930
  348MOL0     C45819   2.313  10.109   1.545  0.0896  0.5454  0.4568
  348MOL0     C45820   2.200  10.009   1.533  0.0086 -0.2339 -0.2911
  348MOL0     N45821   2.086  10.089   1.541  0.3976 -0.4337 -0.7345
  348MOL0     C45822   2.010  10.125   1.434 -0.5231  0.7193 -0.7349
  348MOL0     C45823   1.893  10.164   1.487 -0.3847 -0.2439 -0.0326
  348MOL0     C45824   1.772  10.220   1.412  0.6913  0.5047  0.0147
  348MOL0     C45825   1.646  10.235   1.505 -0.7043  0.6765  0.5417
  348MOL0     C45826   1.540  10.332   1.446 -0.3696  0.6134 -0.1513
  348MOL0     C45827   1.586  10.480   1.457 -0.0388 -0.7985  0.3686
  348MOL0     O45828   1.579  10.559   1.333  0.5362  1.0874 -0.4195
  348MOL0     C45829   1.457  10.604   1.302 -0.0275  0.0169 -0.7627
  348MOL0     C45830   1.450  10.662   1.177 -0.0584  1.1725  0.3697
  348MOL0     C45831   1.332  10.728   1.133  0.3961  0.0415  0.2967
  348MOL0     C45832   1.227  10.752   1.234 -0.0355 -0.4194  0.2862
  348MOL0     C45833   1.098  10.812   1.193  0.3504  0.4259 -0.0260
  348MOL0     O45834   1.012  10.871   1.283 -0.1036  0.2620 -0.2809
  348MOL0     C45835   0.883  10.890   1.248 -0.0779  0.2533 -0.0433
  348MOL0     C45836   0.821  11.005   1.285 -0.3735 -1.5876 -0.8414
  348MOL0     C45837   0.687  11.029   1.268  0.1014 -0.0648 -0.2099
  348MOL0     C45838   0.608  10.936   1.206  0.5610 -0.4624 -0.3469
  348MOL0     O45839   0.467  10.947   1.207  0.0411 -0.2487 -0.1785
  348MOL0     C45840   0.376  10.844   1.143 -1.0012 -0.0808 -0.1768
  348MOL0     C45841   0.235  10.894   1.141  0.4003 -0.3024 -0.7524
  348MOL0     C45842   0.207  11.036   1.175 -0.3103  0.1136 -0.3995
  348MOL0     C45843   0.066  11.077   1.183  0.5428 -0.0804 -0.0774
  348MOL0     C45844   0.056  11.226   1.161 -0.0144 -0.4809 -0.3405
  348MOL0     C45845  -0.091  11.275   1.155 -0.4025  0.6769  0.7989
  348MOL0     C45846  -0.089  11.425   1.110  0.2164  0.0470  0.3161
  348MOL0     C45847  -0.217  11.484   1.046  0.6348 -1.7801  0.2750
  348MOL0    Cl45848  -0.357  11.450   1.141 -0.0357 -0.0248  0.2143
  348MOL0     C45849   0.666  10.820   1.162  1.3105  0.3265 -0.2442
  348MOL0     C45850   0.798  10.795   1.177 -0.1139 -0.6276 -0.7307
  348MOL0     O45851   1.079  10.817   1.074  0.3219 -0.3052  0.5385
  348MOL0     C45852   1.229  10.693   1.363  0.3439 -0.6729  0.1833
  348MOL0     C45853   1.349  10.621   1.398 -0.7689  0.2067  0.6758
  348MOL0     N45854   1.903  10.156   1.622  0.2889 -0.3763 -1.0628
  348MOL0     N45855   2.021  10.112   1.656  0.0407  0.4633 -0.0174
  348MOL0     C45856   3.304  10.066   1.212  0.6637 -0.3473 -0.5926
  348MOL0     C45857   3.440  10.125   1.224  1.0685  0.1917 -0.0050
  348MOL0     C45858   3.765  10.481   1.263  0.6499  0.3463  0.6883
  348MOL0     C45859   3.873  10.396   1.305  0.6120  0.3155  0.1959
  348MOL0     C45860   4.005  10.431   1.283 -0.1355  0.1416 -0.2522
  348MOL0     C45861   4.036  10.544   1.210  0.4732 -1.0056  0.0218
  348MOL0     O45862   4.175  10.555   1.185 -0.0452  0.0442  0.6387
  348MOL0     C45863   4.214  10.686   1.131  0.2659 -0.3717  0.3669
  348MOL0     C45864   4.343  10.667   1.062  0.3921 -0.1325 -0.1326
  348MOL0     C45865   4.448  10.632   1.175 -0.8911  0.7285  0.2226
  348MOL0     C45866   4.562  10.552   1.115  0.5422  0.1064 -0.1390
  348MOL0     C45867   4.652  10.631   1.029 -0.1725 -0.4364 -0.6489
  348MOL0     C45868   4.744  10.687   0.961  0.2200  0.6884 -0.1100
  348MOL0     C45869   3.931  10.619   1.165  0.4625  0.1832 -0.2758
  348MOL0     C45870   3.797  10.587   1.183  0.4806 -0.3670  0.2587
  348MOL0     H45871   3.350  10.416   1.386 -1.1495  0.0860  1.2218
  348MOL0     H45872   3.139  10.312   1.370 -0.0307 -1.6634  2.0534
  348MOL0     H45873   2.943  10.225   1.236 -2.7862 -0.2275 -1.1252
  348MOL0     H45874   2.968  10.185   1.403  2.5556  2.7348 -1.0133
  348MOL0     H45875   2.870   9.962   1.370 -0.2813 -0.1036  1.0400
  348MOL0     H45876   2.854   9.977   1.202 -1.1028 -0.5170 -0.1979
  348MOL0     H45877   2.678  10.125   1.222  0.2986 -0.2198  0.0670
  348MOL0     H45878   2.711  10.180   1.386  0.6626 -1.0457  2.3359
  348MOL0     H45879   2.619   9.899   1.289  1.8916 -1.1912  0.2770
  348MOL0     H45880   2.662   9.919   1.447  0.3548  0.2010 -0.0782
  348MOL0     H45881   2.408   9.968   1.336  0.2588 -0.6258 -1.4970
  348MOL0     H45882   2.475  10.125   1.338  0.2839  1.2793  2.0108
  348MOL0     H45883   2.522  10.117   1.583 -3.6748  0.7829  2.9859
  348MOL0     H45884   2.458   9.945   1.588 -0.1527 -0.6762  0.3377
  348MOL0     H45885   2.307  10.177   1.631  1.2367  1.8677 -0.4774
  348MOL0     H45886   2.312  10.181   1.463  0.3902 -2.0576 -1.9821
  348MOL0     H45887   2.202   9.933   1.611 -2.9568  1.5157  1.7063
  348MOL0     H45888   2.217   9.963   1.436  1.2078 -0.7590  0.1488
  348MOL0     H45889   2.043  10.122   1.331 -1.5042 -0.5927 -1.0444
  348MOL0     H45890   1.747  10.155   1.327  2.5754  2.2390 -1.9939
  348MOL0     H45891   1.801  10.316   1.370  3.0730 -0.1017  0.1170
  348MOL0     H45892   1.683  10.271   1.601  0.3698 -1.6979  1.0865
  348MOL0     H45893   1.601  10.136   1.512 -0.8437  0.3539 -2.9965
  348MOL0     H45894   1.525  10.312   1.339 -0.4534  0.4219 -0.1042
  348MOL0     H45895   1.443  10.321   1.495  0.0194  0.4732  0.5952
  348MOL0     H45896   1.692  10.464   1.480  0.2390 -2.2019 -1.6268
  348MOL0     H45897   1.545  10.537   1.540 -2.3030 -0.8168 -0.6683
  348MOL0     H45898   1.540  10.654   1.115 -0.1803  1.2959  0.1762
  348MOL0     H45899   1.325  10.765   1.032  0.2084  0.7876  0.5737
  348MOL0     H45900   0.872  11.083   1.341 -1.4282 -1.5653  0.1127
  348MOL0     H45901   0.648  11.127   1.295  2.2012  1.0057 -0.8368
  348MOL0     H45902   0.375  10.753   1.205 -1.2366  1.7822  2.7854
  348MOL0     H45903   0.407  10.828   1.040 -0.8651  1.3386 -0.3790
  348MOL0     H45904   0.172  10.821   1.193  2.9345 -1.7712  0.4320
  348MOL0     H45905   0.203  10.876   1.038  0.5058 -1.1604 -0.6429
  348MOL0     H45906   0.253  11.074   1.083 -2.6475 -1.9197 -2.5431
  348MOL0     H45907   0.256  11.076   1.264  0.1369  2.3917 -1.5930
  348MOL0     H45908   0.025  11.035   1.091  3.3896 -0.4407 -1.2851
  348MOL0     H45909   0.012  11.043   1.271  3.9906 -2.2889  1.3733
  348MOL0     H45910   0.114  11.258   1.074  0.1794  1.3634  0.4128
  348MOL0     H45911   0.101  11.271   1.250  2.8132 -1.3183 -1.2312
  348MOL0     H45912  -0.137  11.256   1.252  0.9182  1.2658  1.5773
  348MOL0     H45913  -0.149  11.219   1.081 -0.9353 -0.0598  1.7637
  348MOL0     H45914  -0.075  11.484   1.201 -0.7487  1.0534 -0.1610
  348MOL0     H45915  -0.006  11.450   1.043  2.1413  2.2738  3.2554
  348MOL0     H45916  -0.232  11.451   0.942  1.1016 -2.0447  0.2877
  348MOL0     H45917  -0.211  11.592   1.035  1.0257 -1.8401 -0.1321
  348MOL0     H45918   0.609  10.760   1.092 -0.6758  1.5987  0.1986
  348MOL0     H45919   0.849  10.710   1.133  1.2668  0.6900 -1.7918
  348MOL0     H45920   1.151  10.725   1.431  1.6115  1.4759  0.7423
  348MOL0     H45921   1.340  10.573   1.495 -3.7069  1.2697  1.0171
  348MOL0     H45922   3.273   9.966   1.185 -2.1131  1.3388 -4.7014
  348MOL0     H45923   3.532  10.069   1.208  1.4951 -0.8762  4.5767
  348MOL0     H45924   3.846  10.314   1.371  0.2756  1.4125  1.4495
  348MOL0     H45925   4.085  10.372   1.326  0.1778 -2.3447 -3.7879
  348MOL0     H45926   4.218  10.767   1.205 -0.6410 -0.4064  0.4595
  348MOL0     H45927   4.142  10.727   1.060  0.4759 -0.9752 -0.1966
  348MOL0     H45928   4.333  10.582   0.993  0.2071 -0.6442  0.5193
  348MOL0     H45929   4.366  10.755   1.001 -0.5137  0.5562  0.5110
  348MOL0     H45930   4.411  10.554   1.243  0.7792 -2.2190 -2.0364
  348MOL0     H45931   4.490  10.721   1.222  0.5448 -0.4186  1.1827
  348MOL0     H45932   4.619  10.514   1.201  1.1078  0.6190 -0.2854
  348MOL0     H45933   4.528  10.463   1.060  2.0646  1.0644 -2.8217
  348MOL0     H45934   4.804  10.733   0.885  0.3331 -2.1859 -1.9259
  348MOL0     H45935   3.965  10.710   1.117 -0.9302  0.6080 -0.4964
  348MOL0     H45936   3.725  10.657   1.141 -1.0808 -1.6228  0.7255
  349MOL0     O45937  10.661   5.487   6.511  0.7556 -1.2056 -0.8783
  349MOL0     C45938  10.630   5.541   6.409  0.0658 -0.1289 -0.4168
  349MOL0     O45939  10.726   5.582   6.318  0.4029  0.6702  0.2291
  349MOL0     C45940  10.866   5.564   6.340  0.5394  0.0150 -0.2098
  349MOL0     C45941  10.957   5.649   6.280  0.1828 -0.3621  0.8400
  349MOL0     C45942  11.099   5.638   6.294 -0.3244  0.6198 -0.5822
  349MOL0     C45943  11.151   5.533   6.371 -1.5137 -0.2081  0.8471
  349MOL0     O45944  11.276   5.532   6.420  0.1522 -0.3359  0.5581
  349MOL0     C45945  11.383   5.592   6.343 -0.3789  0.4367 -0.7298
  349MOL0     C45946  11.523   5.536   6.389 -0.1878 -0.5893 -0.9291
  349MOL0     C45947  11.634   5.585   6.296  0.2705  0.9909 -0.1517
  349MOL0     C45948  11.765   5.515   6.331  0.4299 -0.5995 -0.4869
  349MOL0     C45949  11.882   5.542   6.232 -0.2115 -0.0476  0.0760
  349MOL0     C45950  11.847   5.524   6.085 -1.0247 -0.2667 -0.3613
  349MOL0     C45951  11.963   5.494   5.988 -0.5435 -0.1205 -0.4468
  349MOL0     C45952  12.072   5.596   5.985  0.1867 -0.7518  0.0826
  349MOL0     N45953  12.041   5.733   5.938  0.2833  0.1897  0.8497
  349MOL0     C45954  11.968   5.816   6.015  1.3109  1.1788  0.5194
  349MOL0     C45955  11.921   5.905   5.928 -0.3917 -0.2300 -0.4129
  349MOL0     C45956  11.851   6.033   5.967  0.4604  1.4693 -0.0184
  349MOL0     C45957  11.701   6.010   5.981 -0.4078  0.6514 -0.1135
  349MOL0     C45958  11.667   5.914   6.093 -0.4162 -0.7811  0.1213
  349MOL0     C45959  11.536   5.940   6.160  0.1369  0.5281  0.2793
  349MOL0     O45960  11.428   5.928   6.059  0.3410  0.7180 -0.5786
  349MOL0     C45961  11.302   5.950   6.105  0.0880 -0.7400 -0.3765
  349MOL0     C45962  11.190   5.934   6.029  0.1333 -0.2288  0.2676
  349MOL0     C45963  11.055   5.950   6.081  0.1532  0.2887  0.6757
  349MOL0     C45964  11.039   6.001   6.210 -0.1744  1.0169  0.6661
  349MOL0     C45965  10.907   6.028   6.267  0.7871  0.4463 -0.1246
  349MOL0     O45966  10.802   5.971   6.205  1.3740  0.1382 -0.0868
  349MOL0     C45967  10.680   5.983   6.268 -0.3046 -0.0229 -0.4606
  349MOL0     C45968  10.580   6.059   6.213  0.0095  0.6748 -0.0757
  349MOL0     C45969  10.460   6.072   6.282 -0.7149 -0.2822  0.5426
  349MOL0     C45970  10.433   6.023   6.412 -0.2197  0.4739  0.4624
  349MOL0     O45971  10.305   6.045   6.455 -0.8952 -0.3647 -0.2614
  349MOL0     C45972  10.259   5.974   6.575  0.3518  0.8831  0.5183
  349MOL0     C45973  10.104   5.983   6.573  0.2426  0.4279  0.9479
  349MOL0     C45974  10.052   5.967   6.709  1.0809  0.1007 -0.1315
  349MOL0     C45975   9.895   5.979   6.697 -0.4855  0.0393  0.3781
  349MOL0     C45976   9.821   5.956   6.832  0.6552 -0.0241 -0.7020
  349MOL0     C45977   9.665   5.943   6.809 -0.2597  0.4066 -0.4917
  349MOL0     C45978   9.588   5.931   6.941 -0.2607 -1.3470  0.0582
  349MOL0     C45979   9.438   5.914   6.915 -0.1196  0.0871  0.1625
  349MOL0    Cl45980   9.421   5.758   6.833 -0.0954  0.3663  0.1738
  349MOL0     C45981  10.541   5.961   6.480  0.8343  0.3161  1.1631
  349MOL0     C45982  10.661   5.939   6.402  0.2687 -0.9328 -0.2468
  349MOL0     O45983  10.902   6.101   6.366  0.7100  0.5518 -1.1304
  349MOL0     C45984  11.154   6.040   6.279  0.0253 -0.1210 -0.7669
  349MOL0     C45985  11.274   5.996   6.237 -1.1618  0.2853  0.3652
  349MOL0     N45986  11.985   5.877   5.809 -0.1895 -0.5155 -0.0255
  349MOL0     N45987  12.060   5.777   5.812  0.6307 -0.8984 -0.2491
  349MOL0     C45988  11.069   5.439   6.431 -0.2141 -1.0882  0.3438
  349MOL0     C45989  10.935   5.452   6.411  0.3736  0.3831  0.6875
  349MOL0     C45990  10.490   5.563   6.371 -0.4216 -0.2828  0.6687
  349MOL0     C45991  10.463   5.670   6.281 -0.3111  0.6723 -0.4449
  349MOL0     C45992  10.328   5.680   6.244 -1.2264  0.5963  0.8841
  349MOL0     C45993  10.220   5.608   6.291  0.6330  0.1131  0.6164
  349MOL0     O45994  10.093   5.608   6.248  0.0173 -0.3162  0.0284
  349MOL0     C45995  10.043   5.708   6.154 -0.0052 -0.2838 -0.4532
  349MOL0     C45996  10.002   5.823   6.238  0.0586  0.1985  0.1837
  349MOL0     C45997   9.944   5.931   6.155  0.6939 -0.8380  0.2378
  349MOL0     C45998   9.792   5.907   6.121 -0.1509 -0.7312 -0.3626
  349MOL0     C45999   9.776   5.806   6.019 -0.0035  0.1104  0.4624
  349MOL0     C46000   9.734   5.722   5.936 -0.0511 -0.2065 -0.2901
  349MOL0     C46001  10.255   5.500   6.371  0.1223  1.3916 -0.0573
  349MOL0     C46002  10.383   5.477   6.416 -0.2479 -0.5198  0.3397
  349MOL0     H46003  10.917   5.732   6.222  0.8396 -0.1626  0.6557
  349MOL0     H46004  11.171   5.714   6.268 -1.9555  3.2527  1.9866
  349MOL0     H46005  11.378   5.701   6.329  0.2438  0.2528 -2.7521
  349MOL0     H46006  11.370   5.554   6.241 -0.0606 -1.2516 -0.1689
  349MOL0     H46007  11.524   5.427   6.394  0.2147 -0.6817 -2.6035
  349MOL0     H46008  11.542   5.579   6.488  0.2675 -1.9853 -0.3811
  349MOL0     H46009  11.640   5.694   6.302  2.3916  0.8247  2.6926
  349MOL0     H46010  11.613   5.549   6.195  0.1846 -0.0048  0.2100
  349MOL0     H46011  11.797   5.550   6.430  2.2194  0.5239 -1.4186
  349MOL0     H46012  11.735   5.411   6.346 -1.6286 -0.1227 -0.9816
  349MOL0     H46013  11.968   5.479   6.255  1.1382  1.2010 -1.2976
  349MOL0     H46014  11.906   5.647   6.250 -0.6757  0.0835 -0.0537
  349MOL0     H46015  11.784   5.608   6.053 -1.0812  0.9181  2.4678
  349MOL0     H46016  11.776   5.441   6.090 -0.7581 -0.4373  1.5847
  349MOL0     H46017  12.008   5.399   6.017  0.1887  0.6553  1.0914
  349MOL0     H46018  11.923   5.474   5.888  0.5178  0.8085 -1.0932
  349MOL0     H46019  12.150   5.559   5.918  2.2213  0.2714  1.7670
  349MOL0     H46020  12.121   5.600   6.083  0.9818  0.6749 -0.3294
  349MOL0     H46021  11.949   5.805   6.121 -2.1081  0.1664 -0.0972
  349MOL0     H46022  11.860   6.101   5.882 -1.5491  1.0020 -0.6699
  349MOL0     H46023  11.900   6.082   6.051 -1.8958 -0.2097  2.5562
  349MOL0     H46024  11.644   5.979   5.893  1.0287 -3.9796  0.3074
  349MOL0     H46025  11.664   6.108   6.012  2.6001  0.9815  3.0847
  349MOL0     H46026  11.660   5.813   6.050  1.4517 -0.1398 -1.8398
  349MOL0     H46027  11.736   5.917   6.178 -1.0321  0.5188  0.5954
  349MOL0     H46028  11.549   6.031   6.220  0.3872 -1.4786  3.4631
  349MOL0     H46029  11.526   5.863   6.236  1.7011 -0.2221 -0.2321
  349MOL0     H46030  11.201   5.901   5.926 -1.0566  1.7137 -0.5466
  349MOL0     H46031  10.966   5.920   6.027  0.3829 -0.1241  0.5168
  349MOL0     H46032  10.603   6.090   6.112  0.0693  0.4400 -0.1349
  349MOL0     H46033  10.384   6.139   6.243 -0.8564 -1.7527 -1.9128
  349MOL0     H46034  10.291   6.019   6.669 -1.3747 -0.2620  1.7050
  349MOL0     H46035  10.289   5.869   6.576  1.4112  1.1023 -1.5419
  349MOL0     H46036  10.068   5.898   6.514  1.9319 -0.6300  1.3687
  349MOL0     H46037  10.069   6.076   6.526 -1.3149  0.2916  1.7605
  349MOL0     H46038  10.084   6.050   6.773 -1.6636 -1.0468  3.0653
  349MOL0     H46039  10.073   5.870   6.756 -2.0374 -0.7427 -0.1953
  349MOL0     H46040   9.874   6.079   6.658  1.1302  0.0606 -0.4867
  349MOL0     H46041   9.853   5.904   6.630  0.9412 -1.0334  0.6371
  349MOL0     H46042   9.827   6.041   6.900 -0.0115 -0.4523 -0.0886
  349MOL0     H46043   9.867   5.878   6.893 -0.0591  0.4596  0.4880
  349MOL0     H46044   9.643   5.858   6.743 -2.1052  0.2057  0.3223
  349MOL0     H46045   9.637   6.039   6.764  1.7248  1.0035 -0.5501
  349MOL0     H46046   9.624   5.844   6.995 -1.5273 -1.1491  1.2719
  349MOL0     H46047   9.598   6.018   7.007  2.3747  0.3670 -2.3679
  349MOL0     H46048   9.391   6.000   6.867  0.5637  0.7707  0.6830
  349MOL0     H46049   9.385   5.900   7.010 -0.9356 -0.4343 -0.3644
  349MOL0     H46050  10.526   5.926   6.582 -2.6240 -1.0261  0.3271
  349MOL0     H46051  10.746   5.900   6.457 -0.1859 -2.4233 -0.5345
  349MOL0     H46052  11.143   6.085   6.377 -0.2526  2.4343 -1.9088
  349MOL0     H46053  11.349   6.015   6.313 -0.2860  0.6259 -0.5514
  349MOL0     H46054  11.112   5.365   6.497 -1.7532 -1.4872  0.9287
  349MOL0     H46055  10.880   5.369   6.454 -0.0062 -1.9900 -3.8127
  349MOL0     H46056  10.542   5.736   6.248  1.2254 -0.4284  0.8488
  349MOL0     H46057  10.317   5.755   6.167 -1.5011  0.5506  0.8756
  349MOL0     H46058   9.954   5.667   6.106 -0.7325 -0.8338  1.3102
  349MOL0     H46059  10.121   5.739   6.083  1.5152 -2.5800  0.1151
  349MOL0     H46060   9.935   5.780   6.314 -0.0172 -1.2033 -0.6339
  349MOL0     H46061  10.087   5.869   6.289 -0.4427  1.7456 -0.3281
  349MOL0     H46062  10.008   5.932   6.066 -0.8178  1.4433 -0.9115
  349MOL0     H46063   9.934   6.022   6.214  0.4057  0.7899 -2.1849
  349MOL0     H46064   9.755   5.873   6.219  2.5492  0.3592  1.1460
  349MOL0     H46065   9.739   5.999   6.096  1.8703  0.7652  0.5949
  349MOL0     H46066   9.707   5.633   5.882 -2.2464 -0.2458  0.7881
  349MOL0     H46067  10.183   5.425   6.399 -0.1947  2.3986  1.9903
  349MOL0     H46068  10.403   5.398   6.488  0.7744 -1.1785 -0.6324
  350MOL0     O46069   6.870   7.239  11.245  0.4952  0.1214 -0.0466
  350MOL0     C46070   6.836   7.191  11.344  0.3585  0.4323 -0.1955
  350MOL0     O46071   6.714   7.200  11.396 -0.2219  0.7120 -0.3527
  350MOL0     C46072   6.602   7.260  11.348  0.4443 -0.0600 -0.7358
  350MOL0     C46073   6.581   7.295  11.217  0.3863 -0.3745 -0.0247
  350MOL0     C46074   6.458   7.341  11.168 -0.4482  0.3498  0.8147
  350MOL0     C46075   6.348   7.349  11.261 -0.1337  0.7428 -0.8126
  350MOL0     O46076   6.223   7.390  11.230  0.6837  0.1744  0.0320
  350MOL0     C46077   6.185   7.375  11.097  0.2028 -0.2236  0.3944
  350MOL0     C46078   6.031   7.353  11.091 -0.4350  0.4326 -0.5989
  350MOL0     C46079   5.954   7.469  11.163 -0.7090 -0.2528  0.5114
  350MOL0     C46080   5.803   7.455  11.154  0.5115  0.7864 -0.2316
  350MOL0     C46081   5.727   7.555  11.232  0.3245 -0.3864  0.6363
  350MOL0     C46082   5.569   7.525  11.219 -0.5116 -0.4500  0.1898
  350MOL0     C46083   5.474   7.636  11.296 -0.2505 -0.2301 -0.0716
  350MOL0     C46084   5.524   7.667  11.443  0.3201 -0.7336  0.0641
  350MOL0     N46085   5.406   7.687  11.535 -0.4399 -0.7304  0.1137
  350MOL0     C46086   5.323   7.789  11.562  0.4868  0.4414 -0.3523
  350MOL0     C46087   5.206   7.741  11.621  0.1648  0.4069 -0.0907
  350MOL0     C46088   5.088   7.833  11.659  0.5678  0.8743  0.7997
  350MOL0     C46089   4.958   7.758  11.619  0.6625  0.3232 -0.2862
  350MOL0     C46090   4.894   7.803  11.490 -0.3734 -0.3366 -0.0965
  350MOL0     C46091   4.984   7.764  11.367  0.1922  0.0582  0.1065
  350MOL0     O46092   4.953   7.618  11.354 -0.6408 -0.1138  0.4970
  350MOL0     C46093   4.953   7.575  11.227  0.0200 -0.0792 -0.2366
  350MOL0     C46094   5.077   7.550  11.157  1.0234  0.0679 -0.9359
  350MOL0     C46095   5.079   7.495  11.029 -0.9767 -0.3634 -0.9770
  350MOL0     C46096   4.959   7.469  10.965  0.4773 -0.7128 -0.4792
  350MOL0     C46097   4.952   7.417  10.822 -0.7080 -0.1774 -0.3554
  350MOL0     O46098   4.828   7.374  10.778  0.6905  0.3145 -0.2693
  350MOL0     C46099   4.809   7.311  10.648  0.5565 -0.2294  0.3019
  350MOL0     C46100   4.907   7.262  10.555  0.2105  0.0113  0.1291
  350MOL0     C46101   4.879   7.223  10.419 -0.2125 -0.2892 -0.0836
  350MOL0     C46102   4.749   7.249  10.369 -0.5336 -1.1556 -0.8841
  350MOL0     O46103   4.711   7.202  10.251  0.0659  0.8599 -0.2476
  350MOL0     C46104   4.698   7.062  10.238 -0.6416 -0.0446  0.8579
  350MOL0     C46105   4.549   7.034  10.263 -0.0078 -0.1225  0.5611
  350MOL0     C46106   4.456   7.127  10.189 -0.1054 -0.4772 -0.2558
  350MOL0     C46107   4.310   7.122  10.224 -0.2685  0.2168  0.6761
  350MOL0     C46108   4.226   7.228  10.163 -0.6785 -0.6307  0.2149
  350MOL0     C46109   4.264   7.372  10.208 -0.2803 -0.2706 -0.4983
  350MOL0     C46110   4.237   7.399  10.355  0.1260 -0.5346 -0.3387
  350MOL0     C46111   4.085   7.412  10.382  0.1990  0.1143  0.3047
  350MOL0    Cl46112   4.003   7.537  10.281 -0.0561 -0.5512 -0.4536
  350MOL0     C46113   4.652   7.313  10.449  0.0877 -0.4876  0.4529
  350MOL0     C46114   4.686   7.341  10.582  0.3096  0.8128  0.0231
  350MOL0     O46115   5.057   7.418  10.752  0.0732 -0.7807 -0.0278
  350MOL0     C46116   4.836   7.491  11.043  0.4040 -0.6382  0.3443
  350MOL0     C46117   4.838   7.530  11.172 -0.2475  0.1784 -0.4060
  350MOL0     N46118   5.233   7.606  11.639 -0.8525  0.5205 -0.5325
  350MOL0     N46119   5.345   7.584  11.595 -0.3516  0.4734 -0.4475
  350MOL0     C46120   6.371   7.329  11.399 -0.2580  0.2873  0.3056
  350MOL0     C46121   6.502   7.285  11.438  0.0826 -1.1364 -0.3277
  350MOL0     C46122   6.946   7.117  11.409 -0.2578 -0.2471 -0.2349
  350MOL0     C46123   6.918   7.039  11.516  0.5972 -0.3073  0.7308
  350MOL0     C46124   7.009   6.943  11.573  0.1124  0.5114  0.6213
  350MOL0     C46125   7.139   6.929  11.514 -0.2120  0.0283  0.7853
  350MOL0     O46126   7.239   6.841  11.553 -0.6702 -0.0018 -0.4641
  350MOL0     C46127   7.196   6.731  11.638 -0.5813  0.1364  0.0128
  350MOL0     C46128   7.290   6.621  11.593 -0.4218 -0.6134 -0.0581
  350MOL0     C46129   7.434   6.653  11.627  0.5354 -0.4576  0.3371
  350MOL0     C46130   7.512   6.531  11.656 -0.2624  0.5371 -0.4099
  350MOL0     C46131   7.659   6.569  11.657  1.6971 -0.9574 -0.3097
  350MOL0     C46132   7.777   6.588  11.670 -0.6653  1.5186 -1.0641
  350MOL0     C46133   7.162   7.013  11.402  0.1383 -0.5885 -0.4360
  350MOL0     C46134   7.075   7.103  11.357  0.4915 -0.4403  0.0536
  350MOL0     H46135   6.658   7.277  11.142 -0.9921  1.6224 -2.0612
  350MOL0     H46136   6.451   7.366  11.063  0.8952  0.8881  0.8341
  350MOL0     H46137   6.222   7.280  11.057 -2.2884 -1.0629 -0.1334
  350MOL0     H46138   6.220   7.458  11.036  0.6847  1.1455  2.4308
  350MOL0     H46139   6.005   7.255  11.133 -4.5028  1.6193  0.1269
  350MOL0     H46140   5.993   7.350  10.988 -1.4942  3.7169 -0.4093
  350MOL0     H46141   5.969   7.567  11.117 -0.6180 -0.1211  0.8220
  350MOL0     H46142   6.000   7.469  11.262  3.9851  0.4050 -1.3734
  350MOL0     H46143   5.770   7.465  11.050 -2.1950 -0.3830  0.4228
  350MOL0     H46144   5.769   7.357  11.188  1.0362 -0.2559 -2.4794
  350MOL0     H46145   5.740   7.653  11.185 -1.1054 -0.2636  0.4445
  350MOL0     H46146   5.749   7.555  11.340  2.1300  1.0235  0.3171
  350MOL0     H46147   5.539   7.425  11.250  1.2318 -0.5904  1.6236
  350MOL0     H46148   5.547   7.534  11.112  0.3288 -2.2276 -0.1701
  350MOL0     H46149   5.469   7.726  11.234  2.5538 -0.1668 -0.3249
  350MOL0     H46150   5.374   7.592  11.306 -0.2464 -0.1367  0.3740
  350MOL0     H46151   5.575   7.764  11.437 -2.2101  0.5775 -3.2279
  350MOL0     H46152   5.598   7.596  11.483  1.0355 -0.7234 -1.1990
  350MOL0     H46153   5.342   7.894  11.538  1.6941 -0.0265 -1.6219
  350MOL0     H46154   5.096   7.925  11.601  1.1202  0.8725  0.8684
  350MOL0     H46155   5.083   7.860  11.765  0.6437 -3.3457  2.0866
  350MOL0     H46156   4.898   7.782  11.707 -1.3709 -2.6018 -0.7219
  350MOL0     H46157   4.973   7.650  11.610  1.8426  0.3136  1.3864
  350MOL0     H46158   4.798   7.754  11.468 -0.4458  1.1302 -3.8483
  350MOL0     H46159   4.877   7.910  11.503 -3.7993 -0.7893  0.1424
  350MOL0     H46160   5.091   7.785  11.371 -0.4585  4.1401  2.1147
  350MOL0     H46161   4.939   7.828  11.291  0.5394  3.7554  2.7730
  350MOL0     H46162   5.172   7.575  11.201  0.9198  1.3949 -1.4399
  350MOL0     H46163   5.173   7.483  10.976 -0.3536 -0.1490  0.0499
  350MOL0     H46164   5.008   7.232  10.580 -0.1254 -0.9890  0.3466
  350MOL0     H46165   4.943   7.176  10.345 -2.1095 -1.0877 -1.2825
  350MOL0     H46166   4.756   7.002  10.310  1.2417  2.5966  1.6993
  350MOL0     H46167   4.737   7.041  10.138  0.0272  2.7505  0.4645
  350MOL0     H46168   4.526   7.032  10.370  0.3593 -4.0671  0.7135
  350MOL0     H46169   4.521   6.932  10.237 -0.5062 -1.1528  4.4945
  350MOL0     H46170   4.465   7.109  10.081 -1.7910 -0.6436 -0.3965
  350MOL0     H46171   4.483   7.230  10.212  0.4121 -0.9681  1.4393
  350MOL0     H46172   4.273   7.021  10.200 -1.1001  0.5551  0.5058
  350MOL0     H46173   4.311   7.135  10.333  1.2659  0.2861  0.6669
  350MOL0     H46174   4.125   7.206  10.198 -0.4051  1.7289  2.8818
  350MOL0     H46175   4.230   7.226  10.054  1.5759 -1.4571  0.2466
  350MOL0     H46176   4.213   7.446  10.145  1.3164  0.3770 -1.0894
  350MOL0     H46177   4.368   7.393  10.183 -0.5059  1.1417 -0.3064
  350MOL0     H46178   4.295   7.330  10.418  0.0060  0.9896  1.5610
  350MOL0     H46179   4.282   7.495  10.383 -1.0222 -0.2992  0.8140
  350MOL0     H46180   4.061   7.440  10.485 -2.8665 -0.5405 -0.1385
  350MOL0     H46181   4.030   7.319  10.365 -0.1016  0.4712 -0.7671
  350MOL0     H46182   4.557   7.338  10.402  0.3101 -0.5531 -0.0392
  350MOL0     H46183   4.610   7.395  10.639  2.3912  1.0933  2.7580
  350MOL0     H46184   4.743   7.463  10.995  1.5950 -1.7543 -1.3924
  350MOL0     H46185   4.747   7.535  11.230 -3.0123  0.5841 -4.3953
  350MOL0     H46186   6.301   7.351  11.479 -2.4279 -3.4619 -0.3237
  350MOL0     H46187   6.511   7.263  11.544  0.3260 -0.1208 -0.1266
  350MOL0     H46188   6.819   7.059  11.556  0.7118 -0.0275  0.8748
  350MOL0     H46189   6.981   6.879  11.656 -1.2680  0.6597  0.2904
  350MOL0     H46190   7.095   6.704  11.609 -0.6672  1.5994 -1.1223
  350MOL0     H46191   7.193   6.756  11.745  2.7742 -0.5420  0.3898
  350MOL0     H46192   7.262   6.532  11.650  2.3238 -0.9351  0.9137
  350MOL0     H46193   7.277   6.604  11.486 -4.7015  1.5206 -0.0969
  350MOL0     H46194   7.434   6.731  11.704  1.2489  1.2119 -1.2664
  350MOL0     H46195   7.467   6.700  11.534  1.7583 -4.0943 -1.2228
  350MOL0     H46196   7.484   6.487  11.752 -0.5139  1.5769  0.0124
  350MOL0     H46197   7.490   6.463  11.574 -0.8961  2.9816 -2.3822
  350MOL0     H46198   7.884   6.588  11.665 -0.3839 -0.5405  1.9044
  350MOL0     H46199   7.257   7.014  11.350  1.9089  3.8623  2.3093
  350MOL0     H46200   7.101   7.139  11.258  1.3319  1.3219  0.8799
  351MOL0     O46201   6.387   0.684   7.975 -0.0783 -0.5471 -0.3412
  351MOL0     C46202   6.333   0.583   7.935  0.7978 -0.3488 -0.1444
  351MOL0     O46203   6.379   0.496   7.841 -0.3405  0.6002  0.6651
  351MOL0     C46204   6.515   0.483   7.817  0.7430  0.0453 -0.0503
  351MOL0     C46205   6.563   0.386   7.729  0.3973  0.3780  0.0064
  351MOL0     C46206   6.696   0.346   7.714 -0.0344 -0.8208 -0.1439
  351MOL0     C46207   6.796   0.425   7.771 -0.3671 -0.0233 -0.5139
  351MOL0     O46208   6.936   0.390   7.754  0.0835  0.3342  0.3976
  351MOL0     C46209   7.020   0.425   7.863  0.1271  0.4123  0.3831
  351MOL0     C46210   7.136   0.319   7.874  0.8834  0.0444  0.2908
  351MOL0     C46211   7.259   0.372   7.945  0.0749 -0.1022  0.5334
  351MOL0     C46212   7.382   0.278   7.937 -0.5934  0.1705 -0.0232
  351MOL0     C46213   7.515   0.349   7.975 -0.2395  0.1550 -0.4002
  351MOL0     C46214   7.636   0.252   7.963 -0.7838  0.4996  0.3405
  351MOL0     C46215   7.698   0.278   7.826 -0.6458  0.4266  0.4138
  351MOL0     C46216   7.804   0.172   7.780  0.6805 -0.2525  0.2142
  351MOL0     N46217   7.890   0.128   7.887  0.2106 -0.2150 -0.4599
  351MOL0     C46218   7.990   0.208   7.940  0.5246 -0.0304 -0.7550
  351MOL0     C46219   8.041   0.140   8.046 -0.6423 -0.1761  0.3702
  351MOL0     C46220   8.152   0.162   8.137 -0.4491  0.8766  0.3042
  351MOL0     C46221   8.259   0.046   8.129 -0.4334  0.1806 -0.0438
  351MOL0     C46222   8.340   0.062   7.999 -0.7722 -0.0840  0.3191
  351MOL0     C46223   8.476  -0.001   8.002 -1.2561 -0.2687 -0.3419
  351MOL0     O46224   8.557   0.078   8.093  0.0349 -0.7538  0.1030
  351MOL0     C46225   8.695   0.064   8.097  0.5839 -0.5214  0.0839
  351MOL0     C46226   8.752  -0.062   8.091  0.3758 -0.0485 -0.1485
  351MOL0     C46227   8.892  -0.087   8.095  0.4822  0.4908 -0.0690
  351MOL0     C46228   8.972   0.030   8.081 -0.4409 -0.6410  1.1034
  351MOL0     C46229   9.118   0.013   8.065 -0.5378  0.3651  0.1521
  351MOL0     O46230   9.191   0.118   8.020 -0.2087  0.3317  0.3814
  351MOL0     C46231   9.331   0.121   8.021  0.1949  0.9257  0.3168
  351MOL0     C46232   9.382   0.247   8.001  0.3792  0.6963 -0.1371
  351MOL0     C46233   9.515   0.271   7.964  1.1095  0.5199  0.0276
  351MOL0     C46234   9.612   0.177   7.975  0.2571  0.4342 -0.3592
  351MOL0     O46235   9.742   0.211   7.939  0.3382  0.4454 -0.2807
  351MOL0     C46236   9.841   0.108   7.941  0.5786  0.0807 -0.5089
  351MOL0     C46237   9.829   0.031   7.803 -0.2863 -0.4995  0.5778
  351MOL0     C46238   9.924  -0.075   7.771  0.2949 -0.7944  0.5859
  351MOL0     C46239   9.897  -0.120   7.626 -1.1076 -0.4055  0.0283
  351MOL0     C46240   9.761  -0.181   7.599 -0.5416  0.3804  0.4675
  351MOL0     C46241   9.759  -0.270   7.480  0.3412  0.3127 -0.1129
  351MOL0     C46242   9.621  -0.292   7.416 -0.1387  0.6433  1.3282
  351MOL0     C46243   9.535  -0.409   7.461 -0.2369  0.3674 -0.7749
  351MOL0    Cl46244   9.616  -0.572   7.480  0.3113 -0.2870 -0.0538
  351MOL0     C46245   9.574   0.049   8.007  0.0859 -0.1592  1.1331
  351MOL0     C46246   9.434   0.020   8.032  0.5690  0.6167  0.8290
  351MOL0     O46247   9.171  -0.093   8.098  0.0725  0.7621 -0.2466
  351MOL0     C46248   8.909   0.157   8.071  0.0027 -0.2071  0.2552
  351MOL0     C46249   8.774   0.174   8.083  0.1829 -0.6429  0.7005
  351MOL0     N46250   7.976   0.019   8.053 -0.6790 -0.1379  0.6123
  351MOL0     N46251   7.883   0.017   7.964 -0.1419  0.2119  1.5219
  351MOL0     C46252   6.757   0.531   7.853  1.2172  1.0569  0.1026
  351MOL0     C46253   6.615   0.559   7.877 -0.8069 -0.4767 -0.0278
  351MOL0     C46254   6.188   0.583   7.972  0.5889  0.1790 -0.3277
  351MOL0     C46255   6.123   0.695   8.033 -0.1013  0.3520  0.1605
  351MOL0     C46256   5.988   0.680   8.070  0.1105  0.1950  0.0646
  351MOL0     C46257   5.910   0.565   8.033  0.4128  0.3372  0.6905
  351MOL0     O46258   5.783   0.536   8.072 -0.2933 -0.6154 -0.3853
  351MOL0     C46259   5.702   0.614   8.161  0.9346  0.3385  0.6822
  351MOL0     C46260   5.611   0.529   8.244 -0.1256  0.3819 -0.9859
  351MOL0     C46261   5.535   0.432   8.165 -0.1303 -0.1198 -0.4006
  351MOL0     C46262   5.430   0.496   8.066 -0.8430  0.2988  0.6183
  351MOL0     C46263   5.342   0.602   8.124  0.1446  0.1622 -0.7196
  351MOL0     C46264   5.269   0.699   8.161  0.2561 -0.2944  0.1488
  351MOL0     C46265   5.981   0.457   7.974 -0.0819  0.2122  0.1618
  351MOL0     C46266   6.114   0.463   7.944 -0.2329 -0.4425 -0.2547
  351MOL0     H46267   6.487   0.325   7.680 -0.0307 -1.7441  3.0604
  351MOL0     H46268   6.728   0.269   7.645 -2.4618  0.1543 -2.5532
  351MOL0     H46269   6.959   0.415   7.953 -0.9815  0.8175 -0.3086
  351MOL0     H46270   7.070   0.522   7.861  1.3623 -0.2110 -0.3307
  351MOL0     H46271   7.163   0.283   7.775 -1.6155 -2.4038  0.3589
  351MOL0     H46272   7.104   0.228   7.926  0.2055  0.7204  1.0892
  351MOL0     H46273   7.236   0.389   8.051  3.2495 -0.9083  1.4906
  351MOL0     H46274   7.279   0.471   7.902  0.6405 -0.3972  0.1026
  351MOL0     H46275   7.361   0.190   7.999 -1.0975  0.0994 -0.2841
  351MOL0     H46276   7.394   0.235   7.837  1.6121 -1.0987  0.7084
  351MOL0     H46277   7.522   0.382   8.079  3.5262 -0.2867 -0.4050
  351MOL0     H46278   7.532   0.442   7.920 -0.6698 -0.2025 -1.1582
  351MOL0     H46279   7.601   0.149   7.970  0.4164 -0.0465 -1.2026
  351MOL0     H46280   7.712   0.266   8.040  1.0537  0.8410 -1.4480
  351MOL0     H46281   7.625   0.279   7.744 -0.4965 -1.1137  0.2190
  351MOL0     H46282   7.749   0.373   7.843 -0.0120  0.9699 -3.5130
  351MOL0     H46283   7.859   0.208   7.693  0.1725  2.3169  0.8719
  351MOL0     H46284   7.756   0.077   7.754  0.2400 -2.1276  6.2732
  351MOL0     H46285   8.019   0.305   7.901  0.4122  1.5158  2.6263
  351MOL0     H46286   8.122   0.152   8.242 -2.5269 -1.8001 -0.3987
  351MOL0     H46287   8.193   0.262   8.119 -2.3373  1.2534 -2.5602
  351MOL0     H46288   8.214  -0.054   8.122 -1.9923  0.9781 -4.4763
  351MOL0     H46289   8.329   0.053   8.213 -0.7025  0.0999  0.1866
  351MOL0     H46290   8.278   0.038   7.912 -1.2217 -0.0363  0.6208
  351MOL0     H46291   8.361   0.169   7.989 -1.3331  0.0655  0.7180
  351MOL0     H46292   8.523   0.009   7.903 -1.5865 -1.7612 -0.6767
  351MOL0     H46293   8.487  -0.106   8.031  0.2826  0.3779  1.6131
  351MOL0     H46294   8.686  -0.148   8.097 -1.9414  1.6112 -0.5839
  351MOL0     H46295   8.934  -0.186   8.106 -1.3035 -0.7162 -2.9469
  351MOL0     H46296   9.314   0.331   7.987  0.6763  1.0208  0.3042
  351MOL0     H46297   9.526   0.375   7.933 -1.8503  2.0904  3.5796
  351MOL0     H46298   9.827   0.040   8.025 -2.0069 -1.2973 -1.9223
  351MOL0     H46299   9.937   0.159   7.948 -0.7278  2.8962 -1.7402
  351MOL0     H46300   9.833   0.109   7.726 -4.8175  0.1397  0.6942
  351MOL0     H46301   9.727  -0.007   7.787  0.0790 -0.2379 -3.4316
  351MOL0     H46302   9.911  -0.162   7.837 -3.5697 -1.4786 -0.8158
  351MOL0     H46303  10.020  -0.028   7.793 -0.8712  0.3684  3.8572
  351MOL0     H46304   9.918  -0.028   7.570 -0.1341  0.2448  1.3994
  351MOL0     H46305   9.977  -0.188   7.596 -2.6709 -1.5020 -1.8272
  351MOL0     H46306   9.691  -0.097   7.588  0.5241  1.5688  2.2613
  351MOL0     H46307   9.730  -0.230   7.693 -0.7506  4.6607  2.8719
  351MOL0     H46308   9.812  -0.364   7.500  2.3623  1.4292  0.1434
  351MOL0     H46309   9.818  -0.216   7.404  0.8468  2.8525  1.9356
  351MOL0     H46310   9.564  -0.199   7.421 -0.6286  0.3194  1.9222
  351MOL0     H46311   9.642  -0.321   7.313  0.6911  1.0096  1.3840
  351MOL0     H46312   9.443  -0.431   7.405 -1.2504  3.0113 -0.3038
  351MOL0     H46313   9.504  -0.379   7.562 -0.0554 -1.0843 -0.2591
  351MOL0     H46314   9.638  -0.039   8.008  2.4195  1.3856 -1.1672
  351MOL0     H46315   9.413  -0.084   8.053 -0.2019  0.9127  1.5715
  351MOL0     H46316   8.979   0.240   8.064 -0.9571  0.5189 -4.3402
  351MOL0     H46317   8.728   0.272   8.095  0.7648 -0.3607  0.6698
  351MOL0     H46318   6.838   0.591   7.892 -0.3523  4.7966 -1.9055
  351MOL0     H46319   6.598   0.648   7.936 -2.8573 -0.2122 -0.9262
  351MOL0     H46320   6.178   0.779   8.074 -1.1341  1.9928 -1.6903
  351MOL0     H46321   5.948   0.760   8.131 -3.5648 -1.3685 -0.0282
  351MOL0     H46322   5.638   0.679   8.101  1.1119  0.2086  0.3556
  351MOL0     H46323   5.764   0.679   8.222  2.5765  0.1157 -0.6896
  351MOL0     H46324   5.676   0.480   8.317  0.5727  1.5602 -0.7862
  351MOL0     H46325   5.543   0.596   8.297 -1.2420  0.5709 -2.5630
  351MOL0     H46326   5.469   0.374   8.230 -0.3380  2.6320  2.0515
  351MOL0     H46327   5.596   0.369   8.100  1.5259 -1.5457  2.3595
  351MOL0     H46328   5.485   0.546   7.985  1.3750  0.3645  2.0896
  351MOL0     H46329   5.368   0.418   8.021 -0.1600 -1.0858  1.9708
  351MOL0     H46330   5.212   0.785   8.188  1.0734  0.0596  0.7887
  351MOL0     H46331   5.920   0.368   7.959 -0.6269  0.1235  2.5277
  351MOL0     H46332   6.159   0.374   7.904  2.0673 -0.3543  1.8583
  352MOL0     O46333   7.388   5.966   6.308  0.1330 -0.4721  0.6196
  352MOL0     C46334   7.374   5.850   6.274  0.0602  0.1761 -0.0464
  352MOL0     O46335   7.471   5.762   6.262 -0.5481  0.7673 -0.4688
  352MOL0     C46336   7.599   5.798   6.278 -0.3892 -0.4377  0.0968
  352MOL0     C46337   7.691   5.761   6.181 -0.8290  0.2762 -0.5359
  352MOL0     C46338   7.830   5.796   6.192 -0.0010  0.3723 -0.8170
  352MOL0     C46339   7.883   5.853   6.307  0.6130 -0.6813 -0.1520
  352MOL0     O46340   8.020   5.867   6.332  0.0481  0.5805  0.7054
  352MOL0     C46341   8.117   5.796   6.248 -0.0194  1.1030  0.2068
  352MOL0     C46342   8.249   5.809   6.323 -0.7790 -0.5903 -0.2397
  352MOL0     C46343   8.369   5.737   6.271 -0.6270  0.2392  0.5560
  352MOL0     C46344   8.497   5.791   6.335  0.5729 -0.1991  0.1896
  352MOL0     C46345   8.616   5.703   6.299  0.0144  0.2631  0.3237
  352MOL0     C46346   8.737   5.718   6.389  0.3075 -0.5269  0.7176
  352MOL0     C46347   8.800   5.860   6.387  0.2092  0.0249  0.0699
  352MOL0     C46348   8.872   5.886   6.251  0.3348  0.4627 -0.5831
  352MOL0     N46349   8.919   6.023   6.223 -0.1906 -0.0626 -0.4797
  352MOL0     C46350   9.007   6.098   6.295 -0.7282 -0.1153 -0.6108
  352MOL0     C46351   9.002   6.220   6.237 -0.5936  0.1522 -0.8241
  352MOL0     C46352   9.089   6.339   6.271  0.1690  0.4880 -0.0186
  352MOL0     C46353   9.066   6.419   6.398 -0.8566 -0.4025 -0.3133
  352MOL0     C46354   8.985   6.545   6.393  0.7648 -0.9986 -0.5090
  352MOL0     C46355   8.846   6.526   6.329  0.6065  0.6667 -1.2565
  352MOL0     O46356   8.743   6.623   6.353  0.0710  0.1199  0.5669
  352MOL0     C46357   8.609   6.585   6.330 -0.1799 -1.6688  0.2110
  352MOL0     C46358   8.567   6.479   6.250  0.0685 -0.4281  0.7382
  352MOL0     C46359   8.431   6.444   6.240 -0.0185 -0.4466 -0.4490
  352MOL0     C46360   8.338   6.525   6.311  0.1808 -0.0371 -0.3206
  352MOL0     C46361   8.190   6.499   6.300 -0.3138 -0.5245  0.6686
  352MOL0     O46362   8.148   6.403   6.211  0.9370  0.4067  0.7436
  352MOL0     C46363   8.015   6.386   6.212 -1.2456 -0.1126 -0.5386
  352MOL0     C46364   7.932   6.483   6.172  0.1825  0.4808 -0.8830
  352MOL0     C46365   7.800   6.480   6.165  0.0184  0.3228 -0.0374
  352MOL0     C46366   7.732   6.366   6.218 -0.0434 -1.0248  0.0994
  352MOL0     O46367   7.595   6.367   6.217  0.1408  0.1470  0.6471
  352MOL0     C46368   7.539   6.300   6.336  0.8048  0.8387  0.6383
  352MOL0     C46369   7.455   6.405   6.420  1.2495  0.1808 -0.4697
  352MOL0     C46370   7.540   6.522   6.471 -0.2648 -0.3424  0.3228
  352MOL0     C46371   7.456   6.612   6.564  0.0483  0.8110  0.1353
  352MOL0     C46372   7.542   6.713   6.654  0.1634  0.4347  0.4911
  352MOL0     C46373   7.582   6.656   6.791 -0.2643  0.3518  0.2760
  352MOL0     C46374   7.678   6.749   6.863 -0.4075  1.0504 -0.4731
  352MOL0     C46375   7.682   6.720   7.013 -0.6921 -1.3141  0.1424
  352MOL0    Cl46376   7.536   6.793   7.099  0.0023 -0.1496  0.0020
  352MOL0     C46377   7.817   6.251   6.259  0.8901  0.6324 -0.4058
  352MOL0     C46378   7.958   6.263   6.249  0.1017  0.1558 -0.1486
  352MOL0     O46379   8.121   6.573   6.366 -0.2902 -0.1062  0.5226
  352MOL0     C46380   8.380   6.632   6.383 -0.5958  0.6167 -0.3271
  352MOL0     C46381   8.513   6.658   6.401  0.2994  0.3713 -0.1677
  352MOL0     N46382   8.906   6.218   6.131  0.0332 -0.0487 -0.0230
  352MOL0     N46383   8.855   6.101   6.128  0.3923 -0.0041  0.6094
  352MOL0     C46384   7.793   5.885   6.408 -0.3701  0.0552 -0.2716
  352MOL0     C46385   7.650   5.867   6.390  0.2041 -0.1841  0.1442
  352MOL0     C46386   7.235   5.792   6.255 -0.9082 -0.7531 -0.5693
  352MOL0     C46387   7.123   5.872   6.271 -0.6842  0.1787 -0.0610
  352MOL0     C46388   6.995   5.823   6.241 -0.2659 -0.6214 -0.2229
  352MOL0     C46389   6.970   5.687   6.210 -0.3494  0.6691 -0.0445
  352MOL0     O46390   6.843   5.651   6.176  0.5348  0.5486  0.0372
  352MOL0     C46391   6.811   5.520   6.135  0.0649 -0.5819  0.1931
  352MOL0     C46392   6.666   5.500   6.116  0.0891  0.4251 -0.1944
  352MOL0     C46393   6.599   5.375   6.174 -0.3842 -0.3748 -1.1290
  352MOL0     C46394   6.615   5.388   6.333  0.0084 -0.0770 -0.0947
  352MOL0     C46395   6.510   5.307   6.398  0.2724  0.7907  1.0817
  352MOL0     C46396   6.433   5.245   6.464  0.4127  0.9259  0.2549
  352MOL0     C46397   7.087   5.607   6.185  0.1703 -0.0928  0.0984
  352MOL0     C46398   7.216   5.661   6.202 -0.2400  0.8709  0.8413
  352MOL0     H46399   7.652   5.700   6.100 -1.1305 -1.1323  0.6320
  352MOL0     H46400   7.901   5.763   6.116 -1.4508 -0.3699 -1.8962
  352MOL0     H46401   8.133   5.845   6.152  1.6182  1.3588  0.5649
  352MOL0     H46402   8.089   5.691   6.237 -1.2200  1.7157 -5.5919
  352MOL0     H46403   8.245   5.778   6.428 -2.2923  2.2954  0.6625
  352MOL0     H46404   8.271   5.917   6.326 -0.1220 -0.7258  2.0353
  352MOL0     H46405   8.382   5.755   6.164 -0.5649 -1.6957  0.2040
  352MOL0     H46406   8.353   5.629   6.275 -2.7983  0.5637  2.8990
  352MOL0     H46407   8.526   5.887   6.292  1.6054  0.6145  2.5623
  352MOL0     H46408   8.476   5.792   6.442  3.6004  1.5954  0.8791
  352MOL0     H46409   8.639   5.716   6.193 -0.8663  3.3272  0.4022
  352MOL0     H46410   8.593   5.597   6.315  3.0201 -0.7912 -1.6174
  352MOL0     H46411   8.819   5.653   6.355 -1.7906 -2.1140 -1.6611
  352MOL0     H46412   8.724   5.694   6.495 -3.6031  2.5375  1.1469
  352MOL0     H46413   8.716   5.928   6.402  0.2472 -0.4460  3.1188
  352MOL0     H46414   8.870   5.873   6.470 -2.6456  1.7490  2.3979
  352MOL0     H46415   8.822   5.840   6.166  0.7847 -0.9000 -0.1451
  352MOL0     H46416   8.963   5.826   6.254 -0.7032 -1.2574 -1.9177
  352MOL0     H46417   9.070   6.073   6.379  1.5293  2.4503 -1.4109
  352MOL0     H46418   9.083   6.414   6.192 -2.5605  1.3132  0.8532
  352MOL0     H46419   9.191   6.300   6.284 -0.2240 -0.1232  1.5305
  352MOL0     H46420   9.168   6.448   6.423 -1.1076 -0.5311  0.8830
  352MOL0     H46421   9.020   6.355   6.474  0.4352 -0.7500  0.2127
  352MOL0     H46422   8.984   6.584   6.496 -0.0306 -2.1006 -0.0703
  352MOL0     H46423   9.030   6.630   6.342 -0.2689 -1.4708 -2.2983
  352MOL0     H46424   8.811   6.429   6.367  4.1702  0.1255  1.1522
  352MOL0     H46425   8.862   6.526   6.221  3.0316 -2.7689 -1.0721
  352MOL0     H46426   8.638   6.423   6.189  1.1773  0.4796  1.1386
  352MOL0     H46427   8.398   6.354   6.189 -3.3670 -0.1610  0.9909
  352MOL0     H46428   7.978   6.576   6.141  0.1189  0.2111 -1.8367
  352MOL0     H46429   7.739   6.566   6.137 -0.1492 -0.3691 -1.9602
  352MOL0     H46430   7.622   6.262   6.397  0.6669 -0.9687 -0.2481
  352MOL0     H46431   7.468   6.228   6.296  0.1843  1.9096 -0.2163
  352MOL0     H46432   7.405   6.346   6.498  0.9456 -0.7323 -1.3459
  352MOL0     H46433   7.382   6.449   6.352 -1.2837  0.3441  2.1768
  352MOL0     H46434   7.574   6.582   6.386  0.4081  1.0867  1.5540
  352MOL0     H46435   7.632   6.488   6.519  0.0085  2.6216  2.1085
  352MOL0     H46436   7.382   6.665   6.503 -0.4884  0.2606  0.3091
  352MOL0     H46437   7.404   6.545   6.632 -1.5121  0.4989 -1.3081
  352MOL0     H46438   7.468   6.791   6.674 -2.4127 -1.4265 -1.1483
  352MOL0     H46439   7.621   6.753   6.589 -0.0226 -0.7546 -0.5042
  352MOL0     H46440   7.613   6.551   6.791  0.4156  0.4842 -2.3933
  352MOL0     H46441   7.487   6.655   6.845 -2.7897  1.1112 -3.7725
  352MOL0     H46442   7.773   6.719   6.817 -0.3758  0.9662 -0.3536
  352MOL0     H46443   7.654   6.854   6.846 -5.2389  0.3984  1.0368
  352MOL0     H46444   7.769   6.770   7.056  1.4161 -0.8696 -4.1115
  352MOL0     H46445   7.675   6.612   7.024 -2.1314 -1.1743  0.7812
  352MOL0     H46446   7.773   6.153   6.269  2.1512  0.0221 -0.5730
  352MOL0     H46447   8.028   6.186   6.281  1.7318  1.8630  0.6086
  352MOL0     H46448   8.309   6.695   6.436 -1.4202 -1.5254  1.2944
  352MOL0     H46449   8.560   6.729   6.468  2.2297 -0.6834 -0.3508
  352MOL0     H46450   7.829   5.931   6.500 -0.4818 -2.5496  1.1628
  352MOL0     H46451   7.579   5.894   6.466  0.2353  3.5883 -0.9875
  352MOL0     H46452   7.114   5.973   6.310 -2.6237  0.9139 -2.1446
  352MOL0     H46453   6.902   5.879   6.236  0.0412 -0.1555 -0.8342
  352MOL0     H46454   6.844   5.450   6.212 -0.7057  0.2116  1.2624
  352MOL0     H46455   6.863   5.494   6.042  1.5179  0.3532  0.7201
  352MOL0     H46456   6.616   5.590   6.152 -2.5452 -1.1913  0.4338
  352MOL0     H46457   6.651   5.505   6.008  0.4492  0.8555 -0.2281
  352MOL0     H46458   6.644   5.288   6.126 -1.1640 -0.2181 -2.1881
  352MOL0     H46459   6.495   5.381   6.138 -1.1565 -2.0646  0.6442
  352MOL0     H46460   6.710   5.348   6.369 -0.4147 -0.5572  0.5270
  352MOL0     H46461   6.603   5.489   6.372 -0.1108 -1.4946  3.9485
  352MOL0     H46462   6.366   5.203   6.537  0.2296 -0.1642 -0.5227
  352MOL0     H46463   7.081   5.502   6.159  1.0103 -0.2237  0.4028
  352MOL0     H46464   7.294   5.588   6.181 -2.7936 -1.7112 -0.3759
  353MOL0     O46465  11.138   9.432   8.516  0.2826 -0.3185  0.1775
  353MOL0     C46466  11.126   9.552   8.533 -1.2161  1.1816 -0.3291
  353MOL0     O46467  11.019   9.625   8.499 -0.4571 -1.0617 -0.2569
  353MOL0     C46468  10.927   9.588   8.412 -0.7145 -0.9357 -0.3871
  353MOL0     C46469  10.822   9.506   8.451  0.3212 -0.4619  0.0360
  353MOL0     C46470  10.738   9.458   8.352 -0.4252 -0.7176  0.1842
  353MOL0     C46471  10.738   9.512   8.224  0.6870 -0.0633  0.4270
  353MOL0     O46472  10.641   9.500   8.137  0.1529  0.3793  0.0317
  353MOL0     C46473  10.547   9.388   8.147 -0.6250  0.2474  1.1816
  353MOL0     C46474  10.470   9.371   8.016 -0.1233  0.2521 -1.0304
  353MOL0     C46475  10.351   9.275   8.036  0.1474  0.3405 -0.1777
  353MOL0     C46476  10.274   9.264   7.898 -1.2327 -0.3084  0.0411
  353MOL0     C46477  10.145   9.180   7.928 -0.0886 -0.0068  0.1090
  353MOL0     C46478  10.084   9.125   7.799  0.1979  0.4877  0.5945
  353MOL0     C46479   9.968   9.019   7.819 -0.2175 -1.4557  0.2446
  353MOL0     C46480   9.935   8.933   7.693 -0.5741 -0.3310 -0.1403
  353MOL0     N46481   9.852   8.822   7.744 -0.5278  0.6484 -0.6493
  353MOL0     C46482   9.715   8.814   7.735 -0.0972  0.6768  0.0593
  353MOL0     C46483   9.680   8.685   7.746 -0.2178 -0.4672 -0.7433
  353MOL0     C46484   9.541   8.634   7.754 -0.2856  0.6014 -0.0716
  353MOL0     C46485   9.498   8.642   7.895 -0.2336 -0.8028  0.1266
  353MOL0     C46486   9.340   8.664   7.902 -0.5434 -0.0249  0.3593
  353MOL0     C46487   9.295   8.672   8.048  0.5886  0.4100  0.0852
  353MOL0     O46488   9.162   8.730   8.054  0.5182 -0.6400  0.8582
  353MOL0     C46489   9.046   8.665   8.085  0.6532  0.0358  0.4341
  353MOL0     C46490   8.929   8.738   8.062  0.7196  0.8194 -0.1816
  353MOL0     C46491   8.802   8.691   8.096 -0.3940  0.1667  0.2507
  353MOL0     C46492   8.777   8.565   8.145 -0.1967 -0.0871 -0.4433
  353MOL0     C46493   8.639   8.519   8.178 -0.2546 -0.5307 -0.2758
  353MOL0     O46494   8.529   8.608   8.164 -0.8707 -0.2593  0.3353
  353MOL0     C46495   8.402   8.575   8.207 -0.4041 -0.1027  0.2963
  353MOL0     C46496   8.371   8.475   8.297  0.4271 -0.8396  0.2284
  353MOL0     C46497   8.237   8.452   8.335  0.9710 -0.8752 -0.2199
  353MOL0     C46498   8.137   8.524   8.285  0.4430  0.2620 -0.2559
  353MOL0     O46499   8.008   8.499   8.337  0.1352  0.2853 -0.6297
  353MOL0     C46500   7.897   8.575   8.298 -0.0233  0.3129  0.3472
  353MOL0     C46501   7.775   8.527   8.385  0.4410  0.3474 -0.2504
  353MOL0     C46502   7.668   8.628   8.355 -0.7497  0.2251  0.1140
  353MOL0     C46503   7.545   8.590   8.426  0.5629 -0.3943  0.1400
  353MOL0     C46504   7.442   8.711   8.398  0.3031 -0.5378  0.3340
  353MOL0     C46505   7.425   8.745   8.249 -0.1775 -1.0575 -0.3721
  353MOL0     C46506   7.302   8.846   8.235  0.4084  0.2181 -0.2191
  353MOL0     C46507   7.344   8.987   8.288 -0.6713  0.6355  0.6375
  353MOL0    Cl46508   7.478   9.048   8.176 -0.1142 -0.1480  0.0964
  353MOL0     C46509   8.169   8.624   8.192 -0.3917  0.4552  0.8357
  353MOL0     C46510   8.297   8.640   8.151 -0.4043 -0.0509 -0.4983
  353MOL0     O46511   8.637   8.404   8.219  0.2653  0.7249 -0.2667
  353MOL0     C46512   8.897   8.487   8.161  0.2681 -0.0335  0.3388
  353MOL0     C46513   9.029   8.537   8.132  0.3406  0.3963  0.2508
  353MOL0     N46514   9.797   8.611   7.773 -0.1429  0.5140  0.6442
  353MOL0     N46515   9.898   8.693   7.769 -0.4053  0.5064 -0.1486
  353MOL0     C46516  10.845   9.600   8.186 -0.5290  0.2858 -0.0016
  353MOL0     C46517  10.944   9.632   8.278  0.4262  0.6597 -0.4247
  353MOL0     C46518  11.235   9.611   8.605  0.0692  0.2017 -0.4530
  353MOL0     C46519  11.288   9.574   8.727 -0.0144 -0.1914  0.7347
  353MOL0     C46520  11.383   9.661   8.793 -0.2213  0.1060  0.0249
  353MOL0     C46521  11.425   9.778   8.732  1.0049 -0.5700 -0.9984
  353MOL0     O46522  11.500   9.875   8.785  0.0650  0.2487 -0.2255
  353MOL0     C46523  11.594   9.832   8.886 -0.6137 -0.9716  0.3866
  353MOL0     C46524  11.703   9.930   8.935  0.5920  0.5093 -0.3606
  353MOL0     C46525  11.728  10.042   8.841 -0.2846  0.0715  0.3399
  353MOL0     C46526  11.782   9.994   8.706 -0.6728  0.2050  0.3433
  353MOL0     C46527  11.889   9.895   8.712 -1.0305  0.6314 -0.0596
  353MOL0     C46528  11.982   9.813   8.714  0.5275  0.1631  0.0122
  353MOL0     C46529  11.378   9.803   8.605  0.0127  0.7549 -0.2680
  353MOL0     C46530  11.275   9.728   8.550  0.2384  0.6327  0.7250
  353MOL0     H46531  10.793   9.493   8.555  0.1762  0.4280  0.1172
  353MOL0     H46532  10.660   9.398   8.397  2.4721 -4.2767  0.9524
  353MOL0     H46533  10.464   9.405   8.216 -1.4490  0.2829  0.2110
  353MOL0     H46534  10.595   9.293   8.172  2.1989  0.4788 -2.4899
  353MOL0     H46535  10.541   9.353   7.934  0.5070  0.4484 -0.5335
  353MOL0     H46536  10.430   9.470   7.989 -0.5780  0.1631 -0.6890
  353MOL0     H46537  10.289   9.308   8.120 -0.5352  2.0078 -1.2980
  353MOL0     H46538  10.386   9.175   8.064 -0.4112  0.1742 -0.0729
  353MOL0     H46539  10.246   9.362   7.858  0.3959 -0.2802 -1.1398
  353MOL0     H46540  10.334   9.208   7.826 -0.5427 -1.6352  1.5836
  353MOL0     H46541  10.079   9.241   7.990  1.0244  0.5514  0.7982
  353MOL0     H46542  10.169   9.102   8.001 -1.0023 -0.3315  0.0693
  353MOL0     H46543  10.155   9.068   7.738 -1.8636 -2.5210  0.7599
  353MOL0     H46544  10.067   9.208   7.730  0.5895 -0.5880 -0.8473
  353MOL0     H46545   9.984   8.954   7.905 -1.7532 -0.8747  1.0133
  353MOL0     H46546   9.873   9.071   7.835 -0.3480 -0.6912 -2.4677
  353MOL0     H46547  10.024   8.893   7.643 -0.9639 -2.5254  0.7984
  353MOL0     H46548   9.873   8.989   7.623  2.3270  0.7332 -2.0314
  353MOL0     H46549   9.644   8.896   7.724  1.1083  1.7754  0.1693
  353MOL0     H46550   9.545   8.533   7.714  3.1332  0.9307 -0.8962
  353MOL0     H46551   9.479   8.704   7.697  1.7886  4.1301  1.6739
  353MOL0     H46552   9.550   8.730   7.934 -2.3150 -0.1945  1.7176
  353MOL0     H46553   9.536   8.551   7.942  1.6185 -1.1110 -1.8230
  353MOL0     H46554   9.323   8.766   7.868  0.1477 -0.1356 -0.3326
  353MOL0     H46555   9.283   8.583   7.855  2.1524 -2.9250  1.7413
  353MOL0     H46556   9.379   8.728   8.089  0.4489  0.2986  0.5246
  353MOL0     H46557   9.296   8.576   8.100 -0.5340  1.2435  1.7502
  353MOL0     H46558   8.934   8.843   8.035 -2.2521  1.4425  1.2364
  353MOL0     H46559   8.720   8.762   8.088 -0.7291 -0.0341  1.6410
  353MOL0     H46560   8.438   8.415   8.359 -0.7888 -0.2388  2.2088
  353MOL0     H46561   8.229   8.368   8.404 -0.6328 -0.2067  0.4477
  353MOL0     H46562   7.878   8.574   8.190 -1.2967 -0.8954  0.5416
  353MOL0     H46563   7.909   8.676   8.336 -2.1057  0.1403  1.6477
  353MOL0     H46564   7.809   8.546   8.487  1.6252  1.7796 -0.8722
  353MOL0     H46565   7.743   8.424   8.367 -1.5661  0.9877 -0.5093
  353MOL0     H46566   7.650   8.637   8.247  3.4498  2.0771 -0.6442
  353MOL0     H46567   7.703   8.721   8.402  0.4413 -1.5577  3.0425
  353MOL0     H46568   7.500   8.508   8.369  0.6819  0.4475 -1.2115
  353MOL0     H46569   7.551   8.568   8.533 -2.8535 -0.4448  0.4299
  353MOL0     H46570   7.488   8.802   8.437  1.9283 -0.3982 -1.7136
  353MOL0     H46571   7.345   8.697   8.447 -0.9021 -1.1917 -2.0640
  353MOL0     H46572   7.397   8.655   8.194 -1.3251 -1.0175  0.1048
  353MOL0     H46573   7.510   8.786   8.194  0.0277 -4.8099 -3.2543
  353MOL0     H46574   7.289   8.861   8.127  1.0223 -1.5992 -0.5820
  353MOL0     H46575   7.212   8.805   8.282 -0.0102  3.2169  1.9221
  353MOL0     H46576   7.393   8.985   8.386  0.4231 -0.1684  0.0897
  353MOL0     H46577   7.260   9.056   8.297  0.5386  2.1808  0.6497
  353MOL0     H46578   8.096   8.669   8.125  1.2952  0.9120 -0.7784
  353MOL0     H46579   8.316   8.718   8.078 -1.2525 -1.1238 -1.9212
  353MOL0     H46580   8.883   8.393   8.214  2.0775 -0.2615  0.4601
  353MOL0     H46581   9.112   8.472   8.159  0.2978  0.3316  0.2271
  353MOL0     H46582  10.852   9.633   8.083  0.1724  0.9349  0.2505
  353MOL0     H46583  11.020   9.697   8.236  3.2915 -1.7913  0.6213
  353MOL0     H46584  11.266   9.479   8.774 -1.1449 -0.6602 -0.6756
  353MOL0     H46585  11.430   9.621   8.882  0.2594 -0.0690 -0.3055
  353MOL0     H46586  11.642   9.749   8.833  0.4191  0.0994 -0.4074
  353MOL0     H46587  11.543   9.796   8.976 -1.8661  0.0806  0.1335
  353MOL0     H46588  11.677   9.971   9.033 -0.3122 -0.0242 -0.3675
  353MOL0     H46589  11.791   9.867   8.952 -1.6493 -1.9923  3.2104
  353MOL0     H46590  11.796  10.120   8.878  0.1330  1.5517 -3.1347
  353MOL0     H46591  11.635  10.098   8.834 -0.7314 -0.4433  1.8071
  353MOL0     H46592  11.697   9.948   8.654 -2.0420 -0.3248  2.8687
  353MOL0     H46593  11.813  10.073   8.637 -2.7590 -0.1809 -1.1494
  353MOL0     H46594  12.060   9.741   8.701  2.0294  2.1559 -3.0188
  353MOL0     H46595  11.433   9.882   8.555  0.3816  0.0442 -1.0142
  353MOL0     H46596  11.263   9.747   8.444  1.0443  1.7434  0.8170
  354MOL0     O46597   3.157   7.417   4.020 -0.2265 -0.3336 -0.2392
  354MOL0     C46598   3.225   7.488   4.094  0.5102 -0.2630 -1.4679
  354MOL0     O46599   3.177   7.594   4.168 -0.3912  0.1908 -0.7866
  354MOL0     C46600   3.045   7.623   4.204 -0.1239  1.2327  0.5367
  354MOL0     C46601   2.938   7.528   4.183 -0.5076 -0.2169  0.7062
  354MOL0     C46602   2.809   7.567   4.213  0.2870 -0.0308  0.7861
  354MOL0     C46603   2.778   7.690   4.271 -0.4352 -0.0492  0.4150
  354MOL0     O46604   2.644   7.719   4.286  0.4552  0.6902  0.9786
  354MOL0     C46605   2.599   7.850   4.237 -0.2765 -0.1259 -0.4871
  354MOL0     C46606   2.570   7.866   4.086 -0.0727 -0.1503 -0.1141
  354MOL0     C46607   2.508   7.739   4.023 -0.1209 -0.3016 -0.2726
  354MOL0     C46608   2.372   7.688   4.090 -0.8251 -0.1034  0.3949
  354MOL0     C46609   2.264   7.787   4.069  0.3719  0.2977 -0.5325
  354MOL0     C46610   2.127   7.712   4.073  0.4337  0.1462 -0.0957
  354MOL0     C46611   2.112   7.626   4.196 -0.2244  0.7206  0.2582
  354MOL0     C46612   1.979   7.568   4.224 -0.4069 -0.7370 -0.0571
  354MOL0     N46613   1.912   7.486   4.112  0.1399  0.4385 -0.8008
  354MOL0     C46614   1.812   7.531   4.030 -0.2849  0.5253  0.6292
  354MOL0     C46615   1.783   7.427   3.950  0.1646 -0.5938 -0.7713
  354MOL0     C46616   1.668   7.415   3.856 -0.0183  0.2071  0.6325
  354MOL0     C46617   1.526   7.440   3.918  0.0137 -0.4343 -0.5759
  354MOL0     C46618   1.471   7.568   3.874  0.0931  0.6718  0.0679
  354MOL0     C46619   1.444   7.592   3.722 -0.2494 -0.1932 -0.3740
  354MOL0     O46620   1.380   7.479   3.660 -0.1171 -1.1462 -0.7715
  354MOL0     C46621   1.241   7.466   3.662 -0.2887 -0.1052  1.3154
  354MOL0     C46622   1.152   7.567   3.706 -1.0886 -0.4018 -0.6023
  354MOL0     C46623   1.016   7.562   3.685  0.1872  1.3882  0.4513
  354MOL0     C46624   0.960   7.446   3.631  0.3466  0.5041  0.8942
  354MOL0     C46625   0.813   7.425   3.627 -0.1414 -0.4273 -0.4874
  354MOL0     O46626   0.764   7.296   3.649 -0.6275  0.8923 -0.2286
  354MOL0     C46627   0.650   7.258   3.589 -0.1505 -0.7608 -0.0869
  354MOL0     C46628   0.524   7.281   3.659  0.3742 -0.4399  0.0712
  354MOL0     C46629   0.396   7.246   3.607 -0.7034 -0.0610 -0.2723
  354MOL0     C46630   0.391   7.174   3.484 -0.3948  0.1198 -0.4952
  354MOL0     O46631   0.269   7.128   3.440  0.7795 -0.6898  0.5463
  354MOL0     C46632   0.167   7.115   3.540  0.8886  0.1614  0.4774
  354MOL0     C46633   0.048   7.041   3.474 -0.0034 -0.2870  0.2453
  354MOL0     C46634  -0.049   6.956   3.568  0.7119 -0.2513 -1.0260
  354MOL0     C46635  -0.164   6.890   3.490  0.0294 -0.1691  0.3007
  354MOL0     C46636  -0.265   6.815   3.580  0.2591  0.0236  0.0538
  354MOL0     C46637  -0.394   6.791   3.495 -0.1255 -0.3002 -0.9358
  354MOL0     C46638  -0.494   6.718   3.589  0.2898 -0.8520  0.1683
  354MOL0     C46639  -0.637   6.765   3.534  0.5277 -0.1609  0.8326
  354MOL0    Cl46640  -0.673   6.665   3.393 -0.0027  0.2758  0.3990
  354MOL0     C46641   0.515   7.155   3.417 -0.3647  0.0790 -0.1315
  354MOL0     C46642   0.641   7.188   3.470  1.3026 -0.3992  0.1804
  354MOL0     O46643   0.744   7.522   3.602 -0.9768  0.0293  0.2146
  354MOL0     C46644   1.055   7.344   3.589  0.2281 -0.0234 -0.6315
  354MOL0     C46645   1.194   7.347   3.609  0.0075  0.0592  0.0164
  354MOL0     N46646   1.885   7.331   3.965 -0.4666 -0.2024 -0.0150
  354MOL0     N46647   1.967   7.363   4.066  0.4485 -0.2870 -0.6811
  354MOL0     C46648   2.888   7.779   4.297 -0.6214 -0.1538  0.3086
  354MOL0     C46649   3.015   7.747   4.266  0.6840  0.6147  0.4513
  354MOL0     C46650   3.363   7.460   4.094  0.2979  1.3982 -0.2514
  354MOL0     C46651   3.429   7.385   3.994  0.6478  0.1379  0.2112
  354MOL0     C46652   3.559   7.340   3.999 -0.6363 -0.0402  0.0241
  354MOL0     C46653   3.646   7.388   4.100  0.4395  0.0668  0.2405
  354MOL0     O46654   3.786   7.380   4.111  0.5026 -0.0667 -0.4336
  354MOL0     C46655   3.858   7.309   4.010 -0.3695  0.1132 -0.0107
  354MOL0     C46656   4.016   7.324   4.018  1.0782 -0.1727 -0.8030
  354MOL0     C46657   4.071   7.470   4.003  0.4755 -0.9361 -1.0114
  354MOL0     C46658   4.124   7.523   3.875 -0.6866 -0.5216  1.1239
  354MOL0     C46659   4.010   7.515   3.778 -0.1964  0.0354 -0.1300
  354MOL0     C46660   3.928   7.494   3.695 -0.0071  0.4581  0.1773
  354MOL0     C46661   3.593   7.475   4.198 -0.0890  1.1085 -0.3307
  354MOL0     C46662   3.457   7.504   4.192  0.2085  0.2821 -0.0516
  354MOL0     H46663   2.968   7.434   4.138  1.5916  0.4779  0.5611
  354MOL0     H46664   2.720   7.507   4.196  0.5574 -0.0323 -0.8211
  354MOL0     H46665   2.657   7.938   4.267 -1.5473  1.7291 -3.0225
  354MOL0     H46666   2.499   7.871   4.277  0.0123  0.9838 -0.3227
  354MOL0     H46667   2.669   7.880   4.041  1.0954 -1.9706  1.6980
  354MOL0     H46668   2.521   7.960   4.059  1.4482  0.5223 -0.6498
  354MOL0     H46669   2.577   7.654   4.030  1.5833  1.1347  2.1021
  354MOL0     H46670   2.486   7.752   3.917  0.7418 -1.3431 -0.6039
  354MOL0     H46671   2.344   7.602   4.029 -1.8238  1.3101 -1.2335
  354MOL0     H46672   2.389   7.656   4.193 -0.0836 -1.6074 -0.1733
  354MOL0     H46673   2.275   7.830   3.969  0.0473 -1.9322 -1.5775
  354MOL0     H46674   2.269   7.860   4.151 -0.4386 -0.5365  0.2717
  354MOL0     H46675   2.108   7.649   3.986 -0.4148 -1.4867  1.2424
  354MOL0     H46676   2.060   7.798   4.072  2.3411  1.7452  0.8586
  354MOL0     H46677   2.182   7.547   4.167  0.0894  1.4560 -1.0294
  354MOL0     H46678   2.146   7.686   4.281  1.7538  0.5377 -0.3474
  354MOL0     H46679   1.913   7.651   4.249 -0.6497 -0.5195 -1.3255
  354MOL0     H46680   1.975   7.514   4.319 -0.0976 -0.9377 -0.1574
  354MOL0     H46681   1.766   7.629   4.033 -0.8894  0.2421  0.5738
  354MOL0     H46682   1.675   7.308   3.832  0.8485  0.1351  1.1677
  354MOL0     H46683   1.677   7.473   3.764  1.8967  1.0917  1.3341
  354MOL0     H46684   1.534   7.425   4.026 -0.5532 -1.4691 -0.6652
  354MOL0     H46685   1.459   7.366   3.872 -2.1550  1.7341 -1.0891
  354MOL0     H46686   1.369   7.590   3.908 -0.0890 -0.7703  0.5175
  354MOL0     H46687   1.537   7.651   3.901 -0.9104  1.5287 -0.0229
  354MOL0     H46688   1.543   7.605   3.676  0.3736 -1.2454  0.6108
  354MOL0     H46689   1.401   7.689   3.697  2.2163  0.7219 -1.5079
  354MOL0     H46690   1.186   7.659   3.753  0.2487 -1.8092  1.3845
  354MOL0     H46691   0.953   7.642   3.722 -1.4115  0.3609  0.0160
  354MOL0     H46692   0.525   7.338   3.751 -2.3205  0.4996 -0.4085
  354MOL0     H46693   0.311   7.253   3.675  1.1699 -2.5953  2.5818
  354MOL0     H46694   0.133   7.211   3.581 -0.7561  1.2971 -3.2009
  354MOL0     H46695   0.205   7.060   3.627  0.6796 -0.3575  0.2389
  354MOL0     H46696   0.079   6.979   3.388 -2.5962 -0.8644 -0.3547
  354MOL0     H46697  -0.018   7.114   3.426  1.0030  0.1061 -0.5854
  354MOL0     H46698  -0.096   7.014   3.648  0.5783 -2.1850  0.3745
  354MOL0     H46699   0.003   6.879   3.626 -0.8643 -1.7298 -1.4707
  354MOL0     H46700  -0.210   6.970   3.433  1.5630 -0.7753 -1.9220
  354MOL0     H46701  -0.131   6.817   3.415 -2.1204  0.2292 -1.1057
  354MOL0     H46702  -0.281   6.870   3.673  3.5907  0.1465  0.6742
  354MOL0     H46703  -0.222   6.718   3.608 -3.1486 -1.1890  1.7075
  354MOL0     H46704  -0.370   6.738   3.402 -0.4831  0.1796 -1.3124
  354MOL0     H46705  -0.430   6.888   3.459  0.0335  0.0043 -0.2738
  354MOL0     H46706  -0.495   6.608   3.585 -2.7367 -0.9726  1.5385
  354MOL0     H46707  -0.487   6.738   3.696 -3.2227 -2.1845  0.7884
  354MOL0     H46708  -0.634   6.872   3.512  2.8202  0.0864  2.0314
  354MOL0     H46709  -0.709   6.743   3.614 -3.1049 -0.6484 -2.2843
  354MOL0     H46710   0.496   7.114   3.319 -0.9989  0.0265  0.0081
  354MOL0     H46711   0.732   7.145   3.429  1.5390 -1.6028  1.8301
  354MOL0     H46712   1.013   7.249   3.557 -2.7632  1.6634 -2.1464
  354MOL0     H46713   1.265   7.275   3.569  0.3353  1.5861 -2.3655
  354MOL0     H46714   2.859   7.864   4.358 -0.2803  0.1752  0.0126
  354MOL0     H46715   3.094   7.818   4.285 -1.0527  4.4300 -4.4447
  354MOL0     H46716   3.368   7.356   3.910  1.9478  0.1094 -0.7498
  354MOL0     H46717   3.580   7.273   3.915 -3.2202 -0.6737 -0.2115
  354MOL0     H46718   3.825   7.342   3.912  0.4070 -1.7355 -0.9502
  354MOL0     H46719   3.855   7.200   4.019  0.2813 -0.0377 -1.3857
  354MOL0     H46720   4.046   7.277   4.112 -1.4290 -1.3060 -0.5203
  354MOL0     H46721   4.060   7.264   3.938 -1.4176  1.2045 -3.3999
  354MOL0     H46722   4.149   7.487   4.077  0.7475  0.5575 -1.6120
  354MOL0     H46723   3.988   7.537   4.029  0.1506 -2.1651  1.4229
  354MOL0     H46724   4.147   7.630   3.875 -3.7162  0.2273 -0.0438
  354MOL0     H46725   4.208   7.460   3.842 -1.1481 -0.2248 -0.6909
  354MOL0     H46726   3.860   7.489   3.613 -2.1300 -0.9229  1.9060
  354MOL0     H46727   3.646   7.503   4.288 -0.8279 -3.0698  1.6603
  354MOL0     H46728   3.419   7.583   4.256 -0.4367 -1.6284  2.0667
  355MOL0     O46729   3.102   5.134  11.175 -0.3049 -0.2862  0.7172
  355MOL0     C46730   3.169   5.124  11.282 -0.0743 -0.4305 -0.5242
  355MOL0     O46731   3.118   5.133  11.403 -0.0080  0.0569  0.4102
  355MOL0     C46732   2.978   5.131  11.417 -0.0114 -0.2127  0.1700
  355MOL0     C46733   2.911   5.012  11.404  0.5261  0.4239 -0.1062
  355MOL0     C46734   2.775   4.999  11.408 -0.2394 -0.4048  0.2999
  355MOL0     C46735   2.694   5.118  11.411 -0.0534 -0.3384  0.8040
  355MOL0     O46736   2.560   5.141  11.381 -0.1488 -0.8652  0.3885
  355MOL0     C46737   2.476   5.034  11.366 -0.3665  0.5654  0.0162
  355MOL0     C46738   2.331   5.070  11.365  0.7181  0.3354  0.5721
  355MOL0     C46739   2.247   4.967  11.292  0.6180 -0.4108 -0.4121
  355MOL0     C46740   2.098   5.002  11.303  0.1843 -1.1362 -0.2893
  355MOL0     C46741   2.005   4.885  11.252 -0.3237 -0.6363  0.0794
  355MOL0     C46742   1.860   4.909  11.287  0.8213  0.8322  0.2511
  355MOL0     C46743   1.765   4.804  11.231  0.5400  0.0215  0.5736
  355MOL0     C46744   1.615   4.820  11.261 -0.0917 -0.1571 -0.6493
  355MOL0     N46745   1.533   4.784  11.146 -0.6251  0.9303  0.0302
  355MOL0     C46746   1.457   4.874  11.072  0.5120  0.0483  0.5484
  355MOL0     C46747   1.387   4.792  10.991  0.1610  0.8183 -0.9193
  355MOL0     C46748   1.267   4.839  10.906 -0.2465  0.7477  0.1215
  355MOL0     C46749   1.164   4.923  10.984  0.6430  0.0291 -0.0924
  355MOL0     C46750   1.074   4.834  11.077  0.0065  0.7632 -0.8262
  355MOL0     C46751   0.952   4.911  11.140 -0.0454  0.3270 -0.2560
  355MOL0     O46752   0.883   4.971  11.028  0.5977  1.5391 -0.3412
  355MOL0     C46753   0.751   5.005  11.051 -0.8710  0.3911 -0.5812
  355MOL0     C46754   0.667   5.046  10.947 -0.2406  0.1297 -0.2277
  355MOL0     C46755   0.537   5.098  10.971 -1.4733  0.1782 -0.3212
  355MOL0     C46756   0.486   5.099  11.101  0.2281 -0.1061  0.0852
  355MOL0     C46757   0.344   5.131  11.134  0.3357 -0.2544  0.2848
  355MOL0     O46758   0.273   5.164  11.022  0.0580  0.2677 -0.5410
  355MOL0     C46759   0.159   5.241  11.030  0.0796  0.9465 -0.6203
  355MOL0     C46760   0.138   5.310  10.909  0.2677  0.6538 -0.6091
  355MOL0     C46761   0.017   5.385  10.893 -0.1997 -0.6362  1.1783
  355MOL0     C46762  -0.069   5.407  10.998  0.9252 -0.8668 -0.3527
  355MOL0     O46763  -0.188   5.477  10.995  0.4356 -0.6425 -0.1702
  355MOL0     C46764  -0.222   5.534  10.871  0.0252 -0.9498 -0.4337
  355MOL0     C46765  -0.361   5.610  10.868  0.5362 -0.3388 -0.0577
  355MOL0     C46766  -0.344   5.765  10.912 -0.2333 -0.3399 -0.1969
  355MOL0     C46767  -0.471   5.849  10.907 -0.0134  0.0528 -1.1158
  355MOL0     C46768  -0.452   5.985  10.981 -0.3991  0.3604  0.0530
  355MOL0     C46769  -0.569   6.064  11.020 -0.3259 -0.6875 -0.2799
  355MOL0     C46770  -0.655   6.008  11.128  0.2628 -0.4310  1.3243
  355MOL0     C46771  -0.645   6.097  11.258  0.3050 -0.7201  0.2233
  355MOL0    Cl46772  -0.705   6.002  11.385  0.3335  0.3446  0.6817
  355MOL0     C46773  -0.043   5.325  11.119 -0.1259 -0.4421  0.0069
  355MOL0     C46774   0.064   5.243  11.137 -0.2429 -0.4924 -0.2928
  355MOL0     O46775   0.304   5.141  11.245  0.7234  0.1114 -0.4587
  355MOL0     C46776   0.571   5.062  11.205 -1.0751 -0.6310 -0.7028
  355MOL0     C46777   0.702   5.018  11.181  0.3894  0.9894  0.1717
  355MOL0     N46778   1.425   4.657  11.004 -0.1633 -0.1052 -0.9462
  355MOL0     N46779   1.505   4.656  11.109 -0.8911  0.3579  0.5618
  355MOL0     C46780   2.758   5.239  11.436 -0.0470  0.1197  0.5224
  355MOL0     C46781   2.899   5.243  11.449 -0.8606 -0.2230  0.3687
  355MOL0     C46782   3.326   5.112  11.283  1.6943  0.1091 -0.8881
  355MOL0     C46783   3.403   5.112  11.396 -0.0404  0.4199 -0.8739
  355MOL0     C46784   3.541   5.101  11.405 -0.1797 -0.4737  0.3611
  355MOL0     C46785   3.608   5.106  11.282 -0.2566 -0.2783  0.8052
  355MOL0     O46786   3.746   5.093  11.280  0.1972 -0.4555 -0.4669
  355MOL0     C46787   3.830   5.115  11.161 -0.6335  0.7209 -0.6082
  355MOL0     C46788   3.863   5.265  11.148 -0.0807  0.2211  0.1513
  355MOL0     C46789   3.996   5.299  11.074 -0.3183  0.3995  0.1577
  355MOL0     C46790   3.981   5.443  11.036 -1.1434  0.0963 -0.1216
  355MOL0     C46791   4.111   5.510  11.007  0.1615  0.1554 -0.1502
  355MOL0     C46792   4.220   5.557  10.990 -0.5023 -0.8819 -0.4626
  355MOL0     C46793   3.535   5.103  11.160  0.0455 -0.4886 -0.3782
  355MOL0     C46794   3.393   5.103  11.166 -0.8315 -0.0185 -0.1957
  355MOL0     H46795   2.972   4.926  11.378 -1.2750 -0.7722 -0.5194
  355MOL0     H46796   2.735   4.903  11.377 -0.2536  0.3445 -2.2301
  355MOL0     H46797   2.493   4.950  11.433 -0.1719 -0.8788 -1.7711
  355MOL0     H46798   2.507   4.995  11.268  0.2522 -0.6781  0.6880
  355MOL0     H46799   2.312   5.152  11.296  0.3710 -2.1366 -2.5142
  355MOL0     H46800   2.297   5.084  11.468  3.8683  0.7797  1.6540
  355MOL0     H46801   2.262   4.868  11.337 -1.5402 -1.4796 -1.9044
  355MOL0     H46802   2.280   4.961  11.188  0.3582 -2.4067 -0.4234
  355MOL0     H46803   2.078   5.022  11.409 -2.0175  1.1774 -1.0454
  355MOL0     H46804   2.088   5.097  11.249  2.4858 -0.2199  0.7997
  355MOL0     H46805   2.034   4.787  11.292  0.5447 -0.8730 -1.0945
  355MOL0     H46806   2.014   4.888  11.143  1.8901  0.9550  0.2405
  355MOL0     H46807   1.827   4.997  11.231 -1.2154  0.2674  0.4988
  355MOL0     H46808   1.857   4.926  11.395 -0.3614  2.3854 -0.0030
  355MOL0     H46809   1.783   4.801  11.123  1.6128  0.0276  0.7453
  355MOL0     H46810   1.795   4.708  11.275  0.1719 -0.6173 -0.5153
  355MOL0     H46811   1.584   4.915  11.305 -0.8376 -2.4353  4.5703
  355MOL0     H46812   1.579   4.739  11.325 -0.3191 -1.9223 -2.8841
  355MOL0     H46813   1.445   4.981  11.083 -0.5644  0.2606 -2.0451
  355MOL0     H46814   1.218   4.754  10.858 -0.3553  0.4069  0.8270
  355MOL0     H46815   1.308   4.912  10.835  1.4841 -0.6192 -0.3470
  355MOL0     H46816   1.099   4.973  10.912 -0.3235 -1.6826 -0.4707
  355MOL0     H46817   1.215   5.005  11.035  1.5951 -0.9456  0.5874
  355MOL0     H46818   1.028   4.755  11.016 -1.6039  0.5263  0.6258
  355MOL0     H46819   1.130   4.788  11.158 -1.0188 -5.3206 -3.0258
  355MOL0     H46820   0.990   4.972  11.222  1.0759 -3.1014  1.9599
  355MOL0     H46821   0.891   4.838  11.194 -0.0560  0.0916 -0.5840
  355MOL0     H46822   0.696   5.032  10.843 -4.1017 -0.0534 -1.4619
  355MOL0     H46823   0.477   5.121  10.884  2.3766 -0.9548 -3.6048
  355MOL0     H46824   0.204   5.289  10.827 -0.6744 -0.1305 -1.1908
  355MOL0     H46825   0.013   5.433  10.795  1.4522  0.5541  1.6335
  355MOL0     H46826  -0.227   5.448  10.802 -0.9923  1.2407 -3.3240
  355MOL0     H46827  -0.150   5.607  10.833 -2.0430  1.1632 -0.5570
  355MOL0     H46828  -0.422   5.553  10.938  1.3994 -0.9027  0.2521
  355MOL0     H46829  -0.383   5.621  10.762  2.7085  2.9106 -0.3235
  355MOL0     H46830  -0.271   5.812  10.846 -3.0442  1.1030 -2.5239
  355MOL0     H46831  -0.317   5.761  11.018  1.9907 -0.5210 -0.7110
  355MOL0     H46832  -0.489   5.873  10.802  0.3642  2.2626 -0.7255
  355MOL0     H46833  -0.555   5.797  10.954  0.4065 -0.8017 -1.2937
  355MOL0     H46834  -0.370   6.042  10.934  1.0585  0.8729  2.9710
  355MOL0     H46835  -0.403   5.954  11.073 -1.4575 -0.4687  0.3523
  355MOL0     H46836  -0.638   6.074  10.936 -0.4123  0.1668 -0.1137
  355MOL0     H46837  -0.531   6.164  11.045  1.2709 -0.6810 -2.3756
  355MOL0     H46838  -0.759   5.994  11.099  0.5743 -3.8225  1.4309
  355MOL0     H46839  -0.636   5.904  11.154 -2.2588 -0.8934  1.5684
  355MOL0     H46840  -0.695   6.192  11.235  2.1691  0.1216 -0.5888
  355MOL0     H46841  -0.544   6.126  11.286  0.1682 -0.2233  0.2165
  355MOL0     H46842  -0.118   5.324  11.196  0.3545 -1.9657  0.4988
  355MOL0     H46843   0.067   5.177  11.223  2.4611  1.1125  0.9566
  355MOL0     H46844   0.540   5.075  11.308  0.8827  2.4997 -0.3643
  355MOL0     H46845   0.759   4.988  11.268 -0.0399  1.3405  0.5819
  355MOL0     H46846   2.698   5.325  11.465  0.8272  1.2641 -0.9531
  355MOL0     H46847   2.943   5.341  11.464 -0.3607 -0.2547 -0.8037
  355MOL0     H46848   3.362   5.111  11.497 -0.9222 -1.5984 -1.2019
  355MOL0     H46849   3.607   5.072  11.486  1.4785 -3.9411 -1.9552
  355MOL0     H46850   3.785   5.068  11.073 -2.1176 -0.1663  0.5714
  355MOL0     H46851   3.930   5.071  11.173 -0.0423  1.9252 -1.0299
  355MOL0     H46852   3.769   5.311  11.115 -0.0253 -0.4520 -1.0043
  355MOL0     H46853   3.874   5.296  11.252  1.4827  0.7890 -0.1652
  355MOL0     H46854   3.995   5.232  10.987 -0.8762  2.8545 -1.8783
  355MOL0     H46855   4.080   5.279  11.141 -1.2419 -2.3946  0.5922
  355MOL0     H46856   3.914   5.440  10.949 -1.4427  4.6121 -0.2508
  355MOL0     H46857   3.936   5.502  11.116 -2.5116 -1.1515  0.0983
  355MOL0     H46858   4.320   5.592  10.975  0.2830 -2.5636  0.5471
  355MOL0     H46859   3.571   5.087  11.059 -0.3980  0.5850 -0.7285
  355MOL0     H46860   3.343   5.090  11.071 -1.1594 -2.6549  0.2629
  356MOL0     O46861   3.522   9.108   1.318 -0.4091 -0.3932 -0.1371
  356MOL0     C46862   3.570   9.121   1.206 -0.5995 -0.5834  0.2321
  356MOL0     O46863   3.490   9.158   1.090 -0.1090 -0.4883 -0.4629
  356MOL0     C46864   3.350   9.193   1.103 -0.5198  0.3502  0.6842
  356MOL0     C46865   3.300   9.260   0.996  0.2885 -0.1705  1.1285
  356MOL0     C46866   3.165   9.308   0.985  0.1260  0.9370  0.3705
  356MOL0     C46867   3.084   9.274   1.087 -0.1616  1.1548  0.2643
  356MOL0     O46868   2.943   9.297   1.090 -0.2780 -0.6102 -0.3484
  356MOL0     C46869   2.873   9.271   0.970  0.8187 -0.7987  0.0140
  356MOL0     C46870   2.723   9.271   0.994 -0.3653  0.6860 -0.3197
  356MOL0     C46871   2.673   9.129   1.028  0.1019  0.3492  0.2714
  356MOL0     C46872   2.526   9.136   1.056  0.2762  0.1212  0.5883
  356MOL0     C46873   2.461   8.995   1.043  0.6089 -0.0470 -0.5209
  356MOL0     C46874   2.317   8.984   1.077  0.1874 -0.8862  0.5114
  356MOL0     C46875   2.292   9.038   1.217  0.6931  0.6014  0.5268
  356MOL0     C46876   2.154   9.006   1.255 -0.8010  0.4887  0.1494
  356MOL0     N46877   2.127   8.993   1.398 -0.1620  0.3369  0.6194
  356MOL0     C46878   2.214   9.024   1.502  0.0456 -0.4741  0.1570
  356MOL0     C46879   2.155   8.974   1.612 -0.8462  0.5252 -0.2301
  356MOL0     C46880   2.221   9.005   1.749  1.0320  0.1399  0.3235
  356MOL0     C46881   2.120   9.007   1.861  0.2610  0.4518 -0.1560
  356MOL0     C46882   2.179   9.018   2.003  0.9094  1.2518 -0.2754
  356MOL0     C46883   2.240   9.153   2.028 -0.1701 -0.4265 -0.9280
  356MOL0     O46884   2.365   9.170   1.962  0.2857  0.3008 -0.3898
  356MOL0     C46885   2.480   9.143   2.033  0.3027  0.2751 -0.4739
  356MOL0     C46886   2.589   9.205   1.984 -1.0866  0.8844  0.4208
  356MOL0     C46887   2.711   9.170   2.032  0.6801  0.2886 -0.7927
  356MOL0     C46888   2.727   9.082   2.148  0.4173 -0.5745  0.8891
  356MOL0     C46889   2.859   9.040   2.192 -0.6956 -0.6201 -0.2058
  356MOL0     O46890   2.873   8.955   2.300  0.5198  0.8661  0.0371
  356MOL0     C46891   2.998   8.899   2.302 -0.3720  0.7372  0.4301
  356MOL0     C46892   3.094   8.949   2.393  0.9109  1.0864  1.9467
  356MOL0     C46893   3.217   8.878   2.406  0.1032 -0.0155 -0.0175
  356MOL0     C46894   3.236   8.756   2.336 -0.1438 -0.6904 -0.3432
  356MOL0     O46895   3.348   8.680   2.341 -0.3822  0.4548  0.1533
  356MOL0     C46896   3.474   8.740   2.387 -0.3762  0.1785 -0.2623
  356MOL0     C46897   3.573   8.627   2.395 -0.8520  0.3154 -0.0721
  356MOL0     C46898   3.704   8.647   2.467 -0.4160 -0.5747 -0.2398
  356MOL0     C46899   3.774   8.512   2.491  0.0105 -0.5551 -0.7015
  356MOL0     C46900   3.913   8.529   2.562  0.6037  0.1517 -0.3157
  356MOL0     C46901   3.911   8.548   2.712  0.8714  0.6701  0.7827
  356MOL0     C46902   4.054   8.579   2.768  1.3087  0.6288  0.7497
  356MOL0     C46903   4.042   8.625   2.921 -0.4845 -0.4953 -0.1480
  356MOL0    Cl46904   3.947   8.499   3.002  0.0314 -0.1681  0.7052
  356MOL0     C46905   3.128   8.709   2.250 -0.4858  1.1509 -0.0034
  356MOL0     C46906   3.003   8.780   2.232  0.1418  0.1735  0.3454
  356MOL0     O46907   2.951   9.094   2.143  0.2075 -0.5829  0.1705
  356MOL0     C46908   2.611   9.029   2.206 -0.0159 -0.3142 -0.7471
  356MOL0     C46909   2.485   9.058   2.152  0.0506  0.0332  0.2505
  356MOL0     N46910   2.039   8.913   1.581 -0.9689  0.7520  0.3417
  356MOL0     N46911   2.023   8.920   1.455  0.6512 -0.9311  0.8612
  356MOL0     C46912   3.129   9.212   1.206  0.3955  0.5622 -0.0306
  356MOL0     C46913   3.264   9.185   1.219  1.0142  0.2965 -0.7464
  356MOL0     C46914   3.713   9.117   1.190  0.4245 -0.4111 -0.2291
  356MOL0     C46915   3.763   9.085   1.069  0.2293  0.3611  0.2473
  356MOL0     C46916   3.901   9.097   1.048 -0.3206  0.0864 -0.7262
  356MOL0     C46917   3.991   9.135   1.151  0.2304  0.0640 -0.2201
  356MOL0     O46918   4.121   9.175   1.127 -0.0353  0.2912 -0.5952
  356MOL0     C46919   4.181   9.142   0.997  0.6354  0.2504  0.4954
  356MOL0     C46920   4.333   9.137   1.014  0.6917 -0.0970  0.4288
  356MOL0     C46921   4.392   9.272   1.049 -0.4983 -0.4066  0.4574
  356MOL0     C46922   4.506   9.265   1.152  0.3251 -0.7285  0.2238
  356MOL0     C46923   4.630   9.192   1.108 -0.2116 -0.6183  0.0546
  356MOL0     C46924   4.729   9.125   1.093  0.7779 -0.8647  0.6379
  356MOL0     C46925   3.940   9.150   1.277  0.3796  0.2650  0.1643
  356MOL0     C46926   3.806   9.139   1.294 -0.0139  0.1705 -0.8048
  356MOL0     H46927   3.367   9.295   0.919 -0.1398  0.0052  0.8279
  356MOL0     H46928   3.129   9.385   0.917 -1.1628 -1.0921 -1.3804
  356MOL0     H46929   2.909   9.181   0.919  0.8775 -0.8857  0.2086
  356MOL0     H46930   2.882   9.365   0.915 -1.4707  0.6312  1.9089
  356MOL0     H46931   2.676   9.286   0.896 -0.4390 -2.4082 -0.8685
  356MOL0     H46932   2.689   9.346   1.065 -0.8137 -0.8261  1.1383
  356MOL0     H46933   2.723   9.088   1.116 -0.0801  2.6415  1.5140
  356MOL0     H46934   2.685   9.061   0.943 -0.4442 -0.6722  0.9971
  356MOL0     H46935   2.503   9.174   1.156 -0.1435  0.7636  0.2543
  356MOL0     H46936   2.471   9.200   0.986 -1.5568 -1.8145  0.1325
  356MOL0     H46937   2.507   8.926   1.115  2.6426  2.6510  0.9455
  356MOL0     H46938   2.477   8.970   0.938 -2.3838  2.1676 -1.6703
  356MOL0     H46939   2.287   8.879   1.071 -0.8025 -0.5396 -1.2514
  356MOL0     H46940   2.269   9.048   1.003  0.1734 -0.9251  0.4874
  356MOL0     H46941   2.364   8.988   1.282  1.1983  0.5214 -0.0894
  356MOL0     H46942   2.295   9.147   1.215 -0.9733  0.6498 -1.3750
  356MOL0     H46943   2.126   8.908   1.216 -1.2933  1.4638 -2.0970
  356MOL0     H46944   2.082   9.075   1.211  1.5110  2.8641 -0.1569
  356MOL0     H46945   2.290   9.101   1.492 -2.3357  1.8453 -1.7576
  356MOL0     H46946   2.276   9.098   1.737  3.0894 -1.1229 -0.6612
  356MOL0     H46947   2.304   8.938   1.774  0.0246 -1.1856  0.2482
  356MOL0     H46948   2.055   8.920   1.851 -0.9189  1.4678 -1.8543
  356MOL0     H46949   2.054   9.095   1.859 -1.4363 -0.7582 -0.1378
  356MOL0     H46950   2.094   8.996   2.069  1.2247 -1.9236 -0.7280
  356MOL0     H46951   2.251   8.937   2.020  2.0795  2.4719  0.7322
  356MOL0     H46952   2.239   9.178   2.135 -1.9719 -0.4018 -0.9275
  356MOL0     H46953   2.171   9.224   1.982 -1.1425 -0.0090  1.0360
  356MOL0     H46954   2.592   9.279   1.905  0.2036  1.5976  1.1112
  356MOL0     H46955   2.799   9.214   1.986  1.5606  1.2124  1.6120
  356MOL0     H46956   3.070   9.039   2.448  0.9773  2.0303  0.4911
  356MOL0     H46957   3.291   8.918   2.475 -0.1215 -0.8227  0.7070
  356MOL0     H46958   3.461   8.764   2.492  1.6472 -3.0621  0.8918
  356MOL0     H46959   3.499   8.828   2.327  1.3165 -0.4065 -0.4907
  356MOL0     H46960   3.601   8.604   2.292  3.2714  0.5225  0.8337
  356MOL0     H46961   3.522   8.538   2.434  3.7976 -1.8707  1.7902
  356MOL0     H46962   3.692   8.692   2.566 -0.2675 -1.7459  0.3196
  356MOL0     H46963   3.772   8.714   2.413 -1.7483  1.2078  0.1994
  356MOL0     H46964   3.703   8.454   2.551 -0.7237 -0.1298 -1.1423
  356MOL0     H46965   3.787   8.469   2.391  1.2372 -1.6251 -0.1180
  356MOL0     H46966   3.967   8.612   2.516  1.3758  1.8349  3.2950
  356MOL0     H46967   3.976   8.441   2.545  1.0847  0.5432 -0.5745
  356MOL0     H46968   3.865   8.455   2.748 -0.1464  0.4495 -0.9436
  356MOL0     H46969   3.857   8.642   2.727 -0.2167  0.2169 -0.0629
  356MOL0     H46970   4.100   8.480   2.768  2.1631  0.9984 -0.4062
  356MOL0     H46971   4.122   8.647   2.715  2.6506 -2.6178 -2.0757
  356MOL0     H46972   3.990   8.720   2.938 -0.1542 -0.5399  1.1653
  356MOL0     H46973   4.144   8.638   2.959 -0.3038  0.4815 -0.9137
  356MOL0     H46974   3.134   8.605   2.218  0.8486  0.9612  0.7982
  356MOL0     H46975   2.932   8.731   2.166 -1.0110  1.9781  0.1757
  356MOL0     H46976   2.621   8.964   2.293  3.7349 -0.7783 -1.3514
  356MOL0     H46977   2.387   9.020   2.179 -1.3705 -0.1205 -4.2972
  356MOL0     H46978   3.065   9.212   1.293  1.1584  0.0937  0.5401
  356MOL0     H46979   3.306   9.166   1.317  0.4575  1.9574 -0.1550
  356MOL0     H46980   3.694   9.054   0.991  1.1587  0.5110 -0.6687
  356MOL0     H46981   3.934   9.102   0.945  2.0206 -1.8943 -0.1761
  356MOL0     H46982   4.149   9.216   0.923  0.1280 -1.6317 -1.2427
  356MOL0     H46983   4.153   9.039   0.974 -0.5715  0.5679  0.4304
  356MOL0     H46984   4.360   9.053   1.079  0.8735 -0.0085  0.4688
  356MOL0     H46985   4.383   9.103   0.922  0.0269 -2.5280  0.8777
  356MOL0     H46986   4.308   9.334   1.081 -1.6834 -0.0972 -2.8761
  356MOL0     H46987   4.440   9.317   0.962  1.9271 -1.4527  1.1509
  356MOL0     H46988   4.523   9.370   1.181 -0.5294 -0.5993  0.2838
  356MOL0     H46989   4.467   9.219   1.243 -1.0874  0.7176  0.3903
  356MOL0     H46990   4.806   9.053   1.079 -0.8147 -2.5902  0.4379
  356MOL0     H46991   4.000   9.181   1.363  3.2372  0.5776 -1.8258
  356MOL0     H46992   3.758   9.158   1.389  2.1756  1.1645  0.1696
  357MOL0     O46993   4.351   4.090   9.181 -0.3620  0.1265  0.0311
  357MOL0     C46994   4.411   4.189   9.221  0.7800 -0.2819 -0.5896
  357MOL0     O46995   4.354   4.315   9.249  0.2668 -0.9010 -0.0996
  357MOL0     C46996   4.223   4.355   9.241  0.2731 -0.9037 -1.3134
  357MOL0     C46997   4.106   4.271   9.217 -0.4985 -0.0175 -0.3051
  357MOL0     C46998   3.977   4.326   9.206  0.3243  0.3842 -0.6427
  357MOL0     C46999   3.956   4.463   9.208 -1.0093  0.0182 -1.1531
  357MOL0     O47000   3.830   4.510   9.193 -0.4262 -0.2567 -0.6643
  357MOL0     C47001   3.811   4.625   9.105  0.1306  0.6172  0.0644
  357MOL0     C47002   3.660   4.665   9.091  0.3829  0.1971  0.2868
  357MOL0     C47003   3.561   4.552   9.077 -0.0752 -0.0890  0.0775
  357MOL0     C47004   3.599   4.454   8.964  0.3440  0.0233 -0.5635
  357MOL0     C47005   3.483   4.359   8.918 -0.2735 -0.0579 -0.4128
  357MOL0     C47006   3.455   4.262   9.032  0.3426  0.9404 -0.2239
  357MOL0     C47007   3.354   4.144   9.001  0.4310 -0.7812 -0.3239
  357MOL0     C47008   3.210   4.199   9.004  0.9158  0.2718  0.3811
  357MOL0     N47009   3.114   4.102   8.943 -0.4089 -0.8577 -0.0045
  357MOL0     C47010   2.985   4.132   8.905 -0.3179 -0.2775 -0.1305
  357MOL0     C47011   2.935   4.012   8.859 -0.1710  0.7369  0.8224
  357MOL0     C47012   2.800   3.989   8.798  0.7848 -0.1397 -0.3992
  357MOL0     C47013   2.780   3.995   8.653  0.1701 -0.4585  0.0238
  357MOL0     C47014   2.627   3.981   8.629  0.2195 -0.4953 -0.0561
  357MOL0     C47015   2.571   3.980   8.484 -0.3923 -0.2640  0.8852
  357MOL0     O47016   2.423   3.955   8.481  0.0646  0.6893 -0.2455
  357MOL0     C47017   2.343   4.062   8.452 -0.2411 -0.8403 -0.8274
  357MOL0     C47018   2.219   4.028   8.392  0.2866  0.3151  0.0875
  357MOL0     C47019   2.121   4.122   8.375  0.2820 -0.1821  0.2208
  357MOL0     C47020   2.144   4.256   8.397 -0.2485  0.7072 -0.2818
  357MOL0     C47021   2.049   4.363   8.389  0.8526  0.1682 -0.0594
  357MOL0     O47022   2.077   4.483   8.445  0.1079  0.4445 -0.2291
  357MOL0     C47023   1.977   4.583   8.429 -0.4170  0.1072  0.4749
  357MOL0     C47024   1.994   4.698   8.351 -0.0106  0.2817 -0.4430
  357MOL0     C47025   1.902   4.798   8.321 -0.7118  0.3323  0.3158
  357MOL0     C47026   1.772   4.784   8.375 -0.8768 -0.4030 -0.2129
  357MOL0     O47027   1.669   4.866   8.356  0.2739  0.0763 -0.1098
  357MOL0     C47028   1.686   5.008   8.377  0.5568 -0.4705  1.2051
  357MOL0     C47029   1.548   5.076   8.336 -0.2309  0.1871  0.3124
  357MOL0     C47030   1.572   5.217   8.283  0.6378 -0.2714 -1.0696
  357MOL0     C47031   1.441   5.280   8.237  0.1062 -0.4254 -0.5224
  357MOL0     C47032   1.447   5.406   8.158  0.8871 -0.3816 -0.3558
  357MOL0     C47033   1.311   5.474   8.135 -0.3389 -0.2278  0.1954
  357MOL0     C47034   1.210   5.394   8.058 -0.0759  0.3558 -1.5609
  357MOL0     C47035   1.244   5.377   7.912 -0.2471  0.7366 -0.5969
  357MOL0    Cl47036   1.246   5.521   7.818  0.0634 -0.2446 -0.3943
  357MOL0     C47037   1.750   4.672   8.453  0.4301 -1.3316 -0.1422
  357MOL0     C47038   1.847   4.572   8.474 -0.8502 -0.2038  0.1686
  357MOL0     O47039   1.950   4.344   8.321 -0.0774 -0.0178  0.2749
  357MOL0     C47040   2.283   4.293   8.438 -0.3898  0.2347 -0.1306
  357MOL0     C47041   2.369   4.191   8.472 -1.2546  0.0478 -0.6441
  357MOL0     N47042   3.038   3.921   8.867  0.1255  0.2748 -0.0667
  357MOL0     N47043   3.139   3.973   8.908 -1.3479 -0.2002 -0.2058
  357MOL0     C47044   4.065   4.548   9.238 -0.4542  0.1615  0.4102
  357MOL0     C47045   4.200   4.494   9.254  0.8457  0.3288  0.0342
  357MOL0     C47046   4.552   4.169   9.248  0.2385 -0.5887 -0.4022
  357MOL0     C47047   4.621   4.059   9.195 -0.7013 -1.3437 -0.0488
  357MOL0     C47048   4.759   4.041   9.208 -0.1224  0.3802 -0.0458
  357MOL0     C47049   4.828   4.132   9.289 -0.6556  0.0182  0.2226
  357MOL0     O47050   4.963   4.132   9.310 -0.0837 -0.2309 -0.3574
  357MOL0     C47051   5.045   4.054   9.218  0.3977  0.0509 -0.4152
  357MOL0     C47052   5.188   4.079   9.244 -0.1424 -1.1146 -0.6467
  357MOL0     C47053   5.232   4.040   9.386  1.0883  0.0078  0.2059
  357MOL0     C47054   5.381   4.031   9.411  0.1310  0.6745  0.0810
  357MOL0     C47055   5.457   3.934   9.323  0.5930  0.0145  0.4576
  357MOL0     C47056   5.527   3.854   9.263 -0.1150 -0.8225  0.7244
  357MOL0     C47057   4.762   4.241   9.342  0.3310 -0.1151  0.0710
  357MOL0     C47058   4.624   4.270   9.322 -0.0211  0.2098 -0.0638
  357MOL0     H47059   4.115   4.163   9.220  0.3264 -0.0223 -1.7260
  357MOL0     H47060   3.887   4.267   9.194  0.7229 -0.1123 -1.2748
  357MOL0     H47061   3.860   4.587   9.015  2.6649  2.1271  0.6882
  357MOL0     H47062   3.861   4.715   9.142  2.5000 -1.3036  1.8787
  357MOL0     H47063   3.656   4.719   8.996  2.9320  0.6860  0.3898
  357MOL0     H47064   3.640   4.736   9.172 -1.3700  1.3143 -1.0482
  357MOL0     H47065   3.454   4.574   9.070 -0.2534 -0.6905  0.7762
  357MOL0     H47066   3.566   4.482   9.161  0.1036  0.8410  0.8655
  357MOL0     H47067   3.630   4.514   8.878 -0.2330 -1.8418 -2.1375
  357MOL0     H47068   3.684   4.393   8.995  0.5075  1.5722  2.4609
  357MOL0     H47069   3.512   4.299   8.831  2.2016 -3.3262  2.3824
  357MOL0     H47070   3.390   4.415   8.901 -0.7567 -0.8055 -0.3146
  357MOL0     H47071   3.406   4.307   9.119 -0.5532 -3.9794  2.1627
  357MOL0     H47072   3.549   4.213   9.061 -0.0231  0.0572 -0.4962
  357MOL0     H47073   3.385   4.092   8.910  1.7668  1.7688 -1.4392
  357MOL0     H47074   3.358   4.067   9.078 -0.9278 -0.5125  0.0363
  357MOL0     H47075   3.195   4.300   8.965  1.7350  0.8172  1.4374
  357MOL0     H47076   3.189   4.214   9.111 -0.6584  0.2970  0.0986
  357MOL0     H47077   2.935   4.228   8.917  2.4955  1.0819  2.0990
  357MOL0     H47078   2.737   4.066   8.844  3.5406  0.7751  2.1420
  357MOL0     H47079   2.778   3.885   8.825 -0.6080  0.2527  0.0430
  357MOL0     H47080   2.834   3.920   8.594 -0.6893  0.0903 -1.5316
  357MOL0     H47081   2.815   4.094   8.620  0.8222 -1.0176 -1.0231
  357MOL0     H47082   2.592   3.885   8.669  0.1758 -0.0581  0.9791
  357MOL0     H47083   2.597   4.071   8.683  5.1510  0.5218  1.5002
  357MOL0     H47084   2.604   3.898   8.419 -1.2231  0.6735 -0.7987
  357MOL0     H47085   2.600   4.070   8.427 -1.0075 -2.4082 -3.2307
  357MOL0     H47086   2.194   3.927   8.358  0.2967  0.0956  0.7165
  357MOL0     H47087   2.023   4.095   8.338  0.2971 -2.0774  1.4392
  357MOL0     H47088   2.096   4.720   8.321  0.5493 -1.2452  0.2034
  357MOL0     H47089   1.935   4.885   8.264  0.5965 -0.4728 -0.2190
  357MOL0     H47090   1.775   5.041   8.323  0.3238  0.6238  1.4772
  357MOL0     H47091   1.702   5.043   8.479  0.7419 -2.4153  1.8991
  357MOL0     H47092   1.486   5.066   8.426 -0.2666 -2.9911  0.0453
  357MOL0     H47093   1.517   5.008   8.257  0.9345 -1.9162  1.5544
  357MOL0     H47094   1.633   5.224   8.192 -1.5645 -1.7170 -2.7710
  357MOL0     H47095   1.616   5.278   8.363  3.4410 -4.3414  0.8555
  357MOL0     H47096   1.402   5.202   8.171  0.6762 -1.7658  0.6466
  357MOL0     H47097   1.367   5.285   8.318 -0.1946 -0.5690 -0.7861
  357MOL0     H47098   1.487   5.367   8.064 -2.5462 -1.2360 -1.6273
  357MOL0     H47099   1.519   5.478   8.199 -1.0983  1.6604 -0.2638
  357MOL0     H47100   1.341   5.564   8.080  1.4125 -0.8592  0.0379
  357MOL0     H47101   1.270   5.509   8.230  0.8499 -1.3260  1.1602
  357MOL0     H47102   1.195   5.294   8.100 -0.7136  1.1104  0.1195
  357MOL0     H47103   1.114   5.446   8.053 -0.7293 -0.8302 -1.7057
  357MOL0     H47104   1.181   5.304   7.863 -1.5599  2.0086 -0.8678
  357MOL0     H47105   1.344   5.333   7.902  0.4944  2.3071 -0.4885
  357MOL0     H47106   1.663   4.665   8.517  0.3887  1.8872  0.2976
  357MOL0     H47107   1.824   4.485   8.534 -1.5650  1.9041  3.1890
  357MOL0     H47108   2.317   4.393   8.463  2.8003 -1.8235  5.4975
  357MOL0     H47109   2.463   4.225   8.516 -0.1245 -3.6484  0.0910
  357MOL0     H47110   4.050   4.656   9.239  1.2438  0.4057  1.4299
  357MOL0     H47111   4.288   4.556   9.266  0.7359  0.1105  2.4124
  357MOL0     H47112   4.572   3.989   9.128 -1.0980 -0.4130 -0.7658
  357MOL0     H47113   4.808   3.957   9.159  1.9520  0.3600  1.8990
  357MOL0     H47114   5.015   4.058   9.112 -0.6676  1.1337 -0.0989
  357MOL0     H47115   5.025   3.952   9.253  0.9160 -0.9134 -2.7425
  357MOL0     H47116   5.250   4.025   9.171 -1.7801 -2.3086 -1.2054
  357MOL0     H47117   5.199   4.186   9.226 -0.7329 -1.0872 -0.8665
  357MOL0     H47118   5.179   3.946   9.402 -1.0750  1.2713  0.9907
  357MOL0     H47119   5.189   4.116   9.453  1.8686  2.4749 -1.9218
  357MOL0     H47120   5.424   4.132   9.408 -0.5817  0.9575 -2.1997
  357MOL0     H47121   5.399   4.008   9.517 -1.9952 -0.1546  0.3122
  357MOL0     H47122   5.579   3.779   9.208  0.4835 -0.1539  0.3656
  357MOL0     H47123   4.820   4.314   9.398 -2.6245  0.6529  2.4084
  357MOL0     H47124   4.584   4.368   9.349 -3.5894 -1.1202 -0.0351
  358MOL0     O47125   8.958   2.861   3.538  0.3533 -0.5929 -0.4250
  358MOL0     C47126   9.028   2.848   3.441 -0.7779 -0.3238  0.4372
  358MOL0     O47127   8.994   2.804   3.320 -0.1742  0.6952 -0.0691
  358MOL0     C47128   8.866   2.764   3.305 -0.3703  0.9907  0.6970
  358MOL0     C47129   8.837   2.630   3.299  0.5539 -0.3875 -0.0667
  358MOL0     C47130   8.707   2.597   3.270  0.1995 -0.0636  0.5041
  358MOL0     C47131   8.601   2.690   3.243 -0.4636  0.5986  0.1690
  358MOL0     O47132   8.474   2.642   3.224  0.6460 -0.2264 -0.0763
  358MOL0     C47133   8.386   2.727   3.150 -0.3788 -1.2703 -0.4554
  358MOL0     C47134   8.283   2.633   3.103  0.4038 -0.7227  0.7705
  358MOL0     C47135   8.187   2.703   3.000 -0.4363 -0.5429 -0.3714
  358MOL0     C47136   8.058   2.623   2.965  1.2675  0.0629  0.2327
  358MOL0     C47137   7.977   2.710   2.867  0.3787 -1.3609 -0.5990
  358MOL0     C47138   7.893   2.635   2.765 -0.6056 -0.2656 -0.0177
  358MOL0     C47139   7.819   2.723   2.666  0.6932  0.3320  0.0363
  358MOL0     C47140   7.690   2.654   2.607 -1.0686  0.2709  0.3534
  358MOL0     N47141   7.608   2.744   2.525 -0.4087  0.6885 -0.4208
  358MOL0     C47142   7.549   2.861   2.567 -0.0333  0.4437  0.2662
  358MOL0     C47143   7.528   2.931   2.446 -0.8516  0.7042  0.1595
  358MOL0     C47144   7.455   3.063   2.443 -0.0961  0.1020 -0.4665
  358MOL0     C47145   7.305   3.063   2.473 -0.5514  0.1903  0.4477
  358MOL0     C47146   7.239   2.951   2.385 -0.0861 -0.6894 -0.9800
  358MOL0     C47147   7.095   2.996   2.341 -0.1720 -0.1978  0.8864
  358MOL0     O47148   6.995   3.002   2.448  0.2693  0.3993 -0.2039
  358MOL0     C47149   6.867   2.965   2.414  0.0152  1.0597  0.9573
  358MOL0     C47150   6.774   2.927   2.516 -0.1501  0.0342 -0.2545
  358MOL0     C47151   6.645   2.884   2.487  0.7642 -0.2115  0.5224
  358MOL0     C47152   6.613   2.864   2.348 -0.3728  0.2182  0.3683
  358MOL0     C47153   6.486   2.797   2.309  0.7194 -1.1862  0.3242
  358MOL0     O47154   6.399   2.780   2.408 -0.0412  0.7991 -0.2764
  358MOL0     C47155   6.280   2.717   2.374 -0.1127 -0.7928  0.3567
  358MOL0     C47156   6.184   2.782   2.289 -0.0279  0.5146  0.4627
  358MOL0     C47157   6.066   2.719   2.255 -0.0941  0.5017 -0.4865
  358MOL0     C47158   6.030   2.597   2.318  0.0757 -0.3904  0.4284
  358MOL0     O47159   5.907   2.528   2.301 -0.7212 -0.1668  0.4291
  358MOL0     C47160   5.813   2.570   2.393 -0.0730 -0.4055  0.3486
  358MOL0     C47161   5.681   2.514   2.357  0.5372 -1.5468  0.3669
  358MOL0     C47162   5.571   2.534   2.456  0.8168  0.4887 -0.1660
  358MOL0     C47163   5.442   2.462   2.429  0.2787 -0.1499 -0.7372
  358MOL0     C47164   5.345   2.455   2.546  0.7794  0.4127 -0.9042
  358MOL0     C47165   5.207   2.409   2.511 -0.4122 -0.0458 -0.7158
  358MOL0     C47166   5.117   2.408   2.635  0.7264  0.2776  0.4546
  358MOL0     C47167   4.999   2.315   2.614 -0.5646 -0.3798  0.6510
  358MOL0    Cl47168   4.881   2.297   2.747 -0.3174 -0.5636  0.4574
  358MOL0     C47169   6.121   2.541   2.402  0.5343 -0.4590  0.4507
  358MOL0     C47170   6.250   2.592   2.419 -0.5447 -1.0294 -0.4912
  358MOL0     O47171   6.471   2.764   2.188  0.0791 -0.6088 -0.4108
  358MOL0     C47172   6.707   2.906   2.247  0.8054  0.4153  0.1037
  358MOL0     C47173   6.828   2.968   2.277  0.2598 -0.5637  0.4292
  358MOL0     N47174   7.560   2.838   2.343 -1.0159  0.7472  0.4169
  358MOL0     N47175   7.607   2.725   2.392  0.7720 -0.2813  0.2761
  358MOL0     C47176   8.639   2.824   3.246  0.7170  0.1167  0.5622
  358MOL0     C47177   8.770   2.854   3.280 -0.4569 -1.1721 -0.6151
  358MOL0     C47178   9.179   2.866   3.450  0.4259 -0.2827  0.7780
  358MOL0     C47179   9.257   2.839   3.337  0.1464 -0.0169  0.0993
  358MOL0     C47180   9.382   2.883   3.324  0.0324  0.3960 -0.9208
  358MOL0     C47181   9.444   2.936   3.438 -0.1179  0.0549 -1.4024
  358MOL0     O47182   9.579   2.965   3.420 -0.2667  0.8111  1.0189
  358MOL0     C47183   9.657   3.028   3.529 -0.1036 -0.1868  0.0504
  358MOL0     C47184   9.810   3.016   3.506  0.9887 -0.4316 -0.2688
  358MOL0     C47185   9.870   3.132   3.427 -0.5836  0.1503  0.5967
  358MOL0     C47186  10.024   3.121   3.419 -0.2428 -0.8420  0.1579
  358MOL0     C47187  10.084   3.257   3.397  0.0628 -0.2037  0.0898
  358MOL0     C47188  10.136   3.367   3.410  0.3660  0.9303  0.9469
  358MOL0     C47189   9.378   2.942   3.564 -0.3657 -0.2465  0.0733
  358MOL0     C47190   9.244   2.901   3.565 -0.1196 -0.1426  0.4382
  358MOL0     H47191   8.919   2.565   3.329  2.2971  2.0005  0.5941
  358MOL0     H47192   8.678   2.493   3.271  1.4874 -0.4385  0.8831
  358MOL0     H47193   8.424   2.785   3.066  0.5900 -0.9352  0.1955
  358MOL0     H47194   8.354   2.806   3.218  0.1091 -0.0809 -1.5762
  358MOL0     H47195   8.226   2.602   3.192 -0.7607 -0.4941  0.1247
  358MOL0     H47196   8.323   2.537   3.070  2.8731 -0.1908  1.9736
  358MOL0     H47197   8.255   2.724   2.916  1.5935 -0.3792  1.2461
  358MOL0     H47198   8.153   2.797   3.046  1.0912  0.4217 -1.1288
  358MOL0     H47199   8.073   2.526   2.917 -2.3884 -1.2099  1.2732
  358MOL0     H47200   7.995   2.610   3.053  0.9464 -0.9710 -0.1381
  358MOL0     H47201   8.046   2.779   2.816  0.6051 -2.4398 -1.8012
  358MOL0     H47202   7.924   2.775   2.936  2.5709 -0.1743  0.0862
  358MOL0     H47203   7.819   2.568   2.811 -0.4931 -0.6818 -0.4332
  358MOL0     H47204   7.958   2.561   2.716 -2.4242 -1.9200 -0.0454
  358MOL0     H47205   7.787   2.814   2.719  1.6816  0.3611  0.6184
  358MOL0     H47206   7.887   2.746   2.584 -0.5244 -0.1435 -1.1403
  358MOL0     H47207   7.630   2.617   2.690 -0.7309  0.0649  0.5095
  358MOL0     H47208   7.730   2.571   2.547 -0.2878 -0.7302  2.1933
  358MOL0     H47209   7.535   2.887   2.671  2.1459 -0.3030  0.7818
  358MOL0     H47210   7.450   3.093   2.338 -1.0725 -2.0216 -1.0836
  358MOL0     H47211   7.507   3.130   2.512  2.0177 -4.9104  3.5411
  358MOL0     H47212   7.251   3.155   2.450 -3.1977 -0.2618  3.9276
  358MOL0     H47213   7.291   3.025   2.575 -5.1995 -1.3967 -0.5439
  358MOL0     H47214   7.299   2.923   2.298  2.0735 -1.2355  0.5847
  358MOL0     H47215   7.235   2.862   2.450 -0.4414  1.2453  1.8563
  358MOL0     H47216   7.073   2.920   2.265 -0.8628  0.2008  0.6800
  358MOL0     H47217   7.098   3.095   2.294  1.0901  0.6232  2.6025
  358MOL0     H47218   6.815   2.926   2.616 -0.9307 -0.9453  0.0734
  358MOL0     H47219   6.571   2.853   2.559 -1.1544  0.9669 -0.8555
  358MOL0     H47220   6.217   2.873   2.240 -1.5707  0.0922 -1.5437
  358MOL0     H47221   5.995   2.774   2.194 -0.8205 -0.7309 -0.7886
  358MOL0     H47222   5.800   2.678   2.375 -3.8129 -1.2201 -3.4230
  358MOL0     H47223   5.850   2.563   2.496  0.8260  0.6070  0.1094
  358MOL0     H47224   5.701   2.406   2.348  0.7254 -1.5139  0.3957
  358MOL0     H47225   5.646   2.558   2.263 -1.2203  1.2053  2.1770
  358MOL0     H47226   5.541   2.639   2.450  0.2294  0.2438 -3.4751
  358MOL0     H47227   5.603   2.517   2.559 -0.0264  1.5961  0.2956
  358MOL0     H47228   5.394   2.507   2.342 -0.8465  0.0999 -0.0124
  358MOL0     H47229   5.462   2.358   2.402 -0.6412 -0.3372 -0.7335
  358MOL0     H47230   5.337   2.552   2.597  0.6983  0.2292 -0.5716
  358MOL0     H47231   5.396   2.388   2.615 -0.6350  1.1148  0.8954
  358MOL0     H47232   5.208   2.307   2.471 -0.5172 -0.0488 -0.7123
  358MOL0     H47233   5.163   2.482   2.443  1.2386  1.6018 -0.0749
  358MOL0     H47234   5.171   2.384   2.727  2.1385 -1.1715 -0.6977
  358MOL0     H47235   5.080   2.510   2.649  0.8322  0.5249 -0.9272
  358MOL0     H47236   5.039   2.216   2.593 -2.5385 -0.5221 -3.2528
  358MOL0     H47237   4.935   2.337   2.528 -0.4551  1.3652  0.9670
  358MOL0     H47238   6.106   2.444   2.447 -3.7730  0.8007  2.2630
  358MOL0     H47239   6.324   2.530   2.469  1.2213 -0.1695 -1.9255
  358MOL0     H47240   6.676   2.897   2.144  0.1843  1.3930  0.1909
  358MOL0     H47241   6.890   3.018   2.203 -1.7676  0.0241 -0.9625
  358MOL0     H47242   8.570   2.907   3.234  1.5729  1.0441  1.8483
  358MOL0     H47243   8.805   2.956   3.283 -1.7113 -0.7576  0.8074
  358MOL0     H47244   9.212   2.792   3.249 -0.3696  0.7278 -0.0501
  358MOL0     H47245   9.442   2.880   3.234  2.5874 -1.2889  0.6838
  358MOL0     H47246   9.632   2.967   3.616 -2.4076 -0.6743 -0.8627
  358MOL0     H47247   9.619   3.130   3.538  2.3287  0.9293 -1.2281
  358MOL0     H47248   9.845   3.024   3.609 -0.8558  0.6644  0.3245
  358MOL0     H47249   9.831   2.913   3.475  1.4424 -0.7616  1.0848
  358MOL0     H47250   9.835   3.221   3.480  1.2660  2.7555 -2.2518
  358MOL0     H47251   9.828   3.122   3.327 -0.8965  1.6717  0.5551
  358MOL0     H47252  10.064   3.089   3.515 -1.8018  0.6563  1.3717
  358MOL0     H47253  10.055   3.058   3.336  0.4117 -1.3204  0.7606
  358MOL0     H47254  10.183   3.461   3.428  0.2032  1.0202  0.8961
  358MOL0     H47255   9.425   2.989   3.650 -0.1711  2.7925 -1.5569
  358MOL0     H47256   9.182   2.909   3.654 -0.3457 -1.2937  0.4055
  359MOL0     O47257   4.815   7.284   7.888  0.7258 -0.6571 -0.1149
  359MOL0     C47258   4.803   7.175   7.954 -0.6920 -0.1274  0.2189
  359MOL0     O47259   4.684   7.107   7.979  0.1385 -0.5643 -0.3151
  359MOL0     C47260   4.581   7.127   7.894 -1.0405  0.0971  0.0720
  359MOL0     C47261   4.504   7.239   7.922 -0.0054  0.0961 -0.4435
  359MOL0     C47262   4.393   7.269   7.842 -0.3379  0.4596 -0.8908
  359MOL0     C47263   4.350   7.171   7.748 -0.5995  0.1821  0.7415
  359MOL0     O47264   4.234   7.188   7.675  0.5651  0.0575 -0.1040
  359MOL0     C47265   4.143   7.076   7.638 -0.6790  0.1813 -0.7662
  359MOL0     C47266   4.000   7.116   7.664  0.2903  0.5129  0.3412
  359MOL0     C47267   3.896   7.003   7.644  0.4659  0.3370  0.0979
  359MOL0     C47268   3.761   7.067   7.645 -0.6014  0.1957  1.0895
  359MOL0     C47269   3.668   6.956   7.587  0.0345 -0.6659  0.4242
  359MOL0     C47270   3.514   7.000   7.584 -0.3731 -1.3623 -0.4874
  359MOL0     C47271   3.479   7.105   7.482 -1.2138  0.6091 -0.2932
  359MOL0     C47272   3.434   7.052   7.351  0.0384  0.4702  0.6303
  359MOL0     N47273   3.399   7.169   7.265 -0.5172 -0.9001  0.2613
  359MOL0     C47274   3.312   7.177   7.166 -0.6881  0.6430  0.5733
  359MOL0     C47275   3.312   7.296   7.119 -0.0257 -0.0623 -0.1757
  359MOL0     C47276   3.234   7.341   7.000  0.0912  0.5779 -0.4309
  359MOL0     C47277   3.087   7.290   7.014  0.9584  0.4561  0.3706
  359MOL0     C47278   2.987   7.389   6.949 -0.0424 -0.4684 -0.4320
  359MOL0     C47279   2.838   7.347   6.963 -0.6093 -0.1317  0.1575
  359MOL0     O47280   2.750   7.457   6.933 -0.0631  0.1257 -0.1344
  359MOL0     C47281   2.618   7.441   6.975 -0.5552  0.3555 -0.4584
  359MOL0     C47282   2.529   7.554   6.956  0.3706 -0.0900  0.1334
  359MOL0     C47283   2.398   7.552   7.006 -0.0752  1.0738  0.1746
  359MOL0     C47284   2.345   7.436   7.065 -0.1924  0.1595 -0.2474
  359MOL0     C47285   2.198   7.430   7.109  0.1159  0.6034  0.0108
  359MOL0     O47286   2.109   7.542   7.094  0.1226  0.3325  0.3907
  359MOL0     C47287   1.988   7.530   7.149  0.0403 -0.2514 -0.4718
  359MOL0     C47288   1.955   7.646   7.220  0.2623  0.4180 -0.6666
  359MOL0     C47289   1.821   7.667   7.265  0.8503  0.3525 -0.1072
  359MOL0     C47290   1.730   7.562   7.250 -0.2420  0.2451  0.7711
  359MOL0     O47291   1.600   7.562   7.273  0.7919  0.1412  0.0103
  359MOL0     C47292   1.539   7.690   7.308 -0.2841 -0.5475 -0.2491
  359MOL0     C47293   1.388   7.672   7.298  0.2589 -0.2913  0.1917
  359MOL0     C47294   1.324   7.810   7.316 -0.0674 -0.4559 -0.1668
  359MOL0     C47295   1.193   7.791   7.407 -0.0977 -0.6934  0.6219
  359MOL0     C47296   1.143   7.932   7.436  0.0581  0.9368  0.1302
  359MOL0     C47297   1.027   7.944   7.536 -1.0578  0.5778  1.1419
  359MOL0     C47298   0.988   8.082   7.535 -0.0817 -0.8903  0.1165
  359MOL0     C47299   0.862   8.103   7.611  0.2863 -0.1052  0.2946
  359MOL0    Cl47300   0.858   8.048   7.775 -0.1744 -0.4983 -0.0278
  359MOL0     C47301   1.776   7.436   7.223  0.0151 -0.5639 -0.0062
  359MOL0     C47302   1.897   7.422   7.160 -0.1197 -0.1133 -0.2545
  359MOL0     O47303   2.161   7.318   7.150  0.5418  0.3199  0.0092
  359MOL0     C47304   2.428   7.320   7.064  0.3329  0.7816  0.6612
  359MOL0     C47305   2.562   7.324   7.019  0.0785 -0.3985  1.1721
  359MOL0     N47306   3.410   7.367   7.179  0.3660  0.8908  0.4396
  359MOL0     N47307   3.461   7.291   7.275  0.7600  0.4669  0.2299
  359MOL0     C47308   4.434   7.059   7.715 -0.1695  0.2878 -1.1123
  359MOL0     C47309   4.553   7.035   7.785  0.4672 -0.7784 -0.1302
  359MOL0     C47310   4.929   7.109   8.003 -0.7611  0.3349  0.3976
  359MOL0     C47311   5.048   7.151   7.950 -0.5374  0.2869 -0.4524
  359MOL0     C47312   5.171   7.091   7.983 -0.2808  0.3173 -0.6625
  359MOL0     C47313   5.168   6.967   8.052 -0.3890 -0.0193  0.2839
  359MOL0     O47314   5.270   6.892   8.080  0.4230  0.1394 -0.1138
  359MOL0     C47315   5.402   6.951   8.080 -0.4030 -0.5999 -0.3240
  359MOL0     C47316   5.494   6.855   8.147  0.4487  0.9714  0.0470
  359MOL0     C47317   5.495   6.858   8.302  0.0621 -0.3867 -0.7036
  359MOL0     C47318   5.593   6.759   8.358 -0.4009 -0.4000  0.4847
  359MOL0     C47319   5.732   6.815   8.356 -0.2452 -0.2070 -0.3273
  359MOL0     C47320   5.856   6.847   8.352  0.0781  0.2072 -0.7034
  359MOL0     C47321   5.054   6.931   8.110  0.7337 -1.3210  0.1351
  359MOL0     C47322   4.934   7.004   8.094 -0.1295 -0.1864  0.2481
  359MOL0     H47323   4.525   7.303   8.007 -0.2140 -0.2954 -0.0991
  359MOL0     H47324   4.334   7.360   7.846 -1.1307 -0.0465 -0.8238
  359MOL0     H47325   4.155   6.988   7.702 -0.7029  1.1648  0.6355
  359MOL0     H47326   4.152   7.047   7.532  0.4297  3.1499 -1.5892
  359MOL0     H47327   3.984   7.194   7.589  1.7477  1.2067  0.7249
  359MOL0     H47328   3.986   7.159   7.763 -1.2642  0.5619  0.1216
  359MOL0     H47329   3.911   6.931   7.725 -0.1870  1.1944  0.9845
  359MOL0     H47330   3.907   6.959   7.544 -0.5393 -0.1669  0.1937
  359MOL0     H47331   3.728   7.094   7.745  1.2651  0.9097  1.5506
  359MOL0     H47332   3.752   7.157   7.584 -2.5776  1.2780  2.8590
  359MOL0     H47333   3.680   6.861   7.641  0.7611 -1.7327 -1.5252
  359MOL0     H47334   3.692   6.938   7.482 -3.9875  0.2663 -0.8426
  359MOL0     H47335   3.474   7.026   7.682  2.5291 -0.1026  0.4698
  359MOL0     H47336   3.467   6.906   7.554 -1.4651 -0.2102 -2.6091
  359MOL0     H47337   3.399   7.158   7.535  0.1532 -1.0458  3.8650
  359MOL0     H47338   3.557   7.179   7.464  0.6694 -1.5058 -1.2834
  359MOL0     H47339   3.352   6.980   7.353  1.4827 -1.3061 -0.9059
  359MOL0     H47340   3.513   6.996   7.301 -2.5432 -1.0261 -2.1084
  359MOL0     H47341   3.275   7.093   7.108 -2.3713  2.2251 -0.7440
  359MOL0     H47342   3.284   7.286   6.920  1.6868 -1.9085  2.0698
  359MOL0     H47343   3.224   7.450   6.990  0.8471  0.9880  2.3918
  359MOL0     H47344   3.063   7.281   7.121 -1.6778  2.2806  0.0321
  359MOL0     H47345   3.080   7.194   6.964 -1.4748  0.8927 -0.2750
  359MOL0     H47346   3.002   7.491   6.985 -0.8772 -1.5326  3.4426
  359MOL0     H47347   3.003   7.390   6.841 -0.2266  0.2456 -0.4532
  359MOL0     H47348   2.811   7.314   7.063 -1.7774  1.6069  0.4704
  359MOL0     H47349   2.826   7.273   6.883 -0.2091 -1.0155  0.9054
  359MOL0     H47350   2.567   7.646   6.912  0.2880 -1.0964 -2.1802
  359MOL0     H47351   2.343   7.645   7.013 -1.6016  0.0680  3.7917
  359MOL0     H47352   2.017   7.734   7.210 -2.7236  2.4562 -3.2472
  359MOL0     H47353   1.788   7.763   7.304 -2.8882 -0.7202 -0.1794
  359MOL0     H47354   1.562   7.774   7.243 -1.3269 -0.0679 -0.0261
  359MOL0     H47355   1.563   7.720   7.410  0.0775  1.9513 -1.0083
  359MOL0     H47356   1.348   7.602   7.372 -1.3751 -1.2454 -1.5011
  359MOL0     H47357   1.364   7.637   7.197 -0.2430  2.4466 -0.7268
  359MOL0     H47358   1.300   7.851   7.218 -0.2312 -2.3602 -0.9695
  359MOL0     H47359   1.398   7.877   7.362  1.0347  0.0997 -2.5919
  359MOL0     H47360   1.113   7.740   7.353 -1.5908  0.2963  1.8186
  359MOL0     H47361   1.225   7.743   7.501  1.6113  2.3974  1.7908
  359MOL0     H47362   1.116   7.973   7.338 -0.7296 -1.5480 -0.7887
  359MOL0     H47363   1.224   7.995   7.473 -0.8388  0.3085  3.5265
  359MOL0     H47364   1.054   7.914   7.638  1.5865 -2.1772 -0.1969
  359MOL0     H47365   0.941   7.883   7.511 -0.5345 -0.0590  0.8805
  359MOL0     H47366   1.061   8.152   7.577  1.3885 -3.0471  1.3482
  359MOL0     H47367   0.972   8.112   7.431 -0.7685 -1.3446  0.0833
  359MOL0     H47368   0.783   8.052   7.555  1.9301 -0.4755 -1.8139
  359MOL0     H47369   0.843   8.211   7.599 -0.4151 -0.2167  0.3301
  359MOL0     H47370   1.713   7.348   7.215  1.0434 -1.2811 -0.4319
  359MOL0     H47371   1.931   7.321   7.139  0.2678  0.3827 -2.3098
  359MOL0     H47372   2.393   7.224   7.101 -0.6552  1.2900  1.0978
  359MOL0     H47373   2.620   7.233   7.027  1.8083  0.5033 -0.4207
  359MOL0     H47374   4.404   6.986   7.640  1.2001  0.5426 -1.9483
  359MOL0     H47375   4.620   6.953   7.766 -0.7914 -1.5973 -1.2149
  359MOL0     H47376   5.063   7.238   7.887  0.8648  0.4362  0.0388
  359MOL0     H47377   5.262   7.142   7.952 -1.5438  0.3009 -5.1418
  359MOL0     H47378   5.405   7.054   8.118  1.6966 -0.3708 -0.9687
  359MOL0     H47379   5.427   6.972   7.975 -2.0770 -0.0940 -0.6530
  359MOL0     H47380   5.469   6.751   8.123  3.1952  0.3381 -0.3942
  359MOL0     H47381   5.588   6.884   8.101 -0.2564  0.1413 -2.0531
  359MOL0     H47382   5.394   6.848   8.343  0.8205  2.1831  2.1693
  359MOL0     H47383   5.535   6.958   8.321  1.1205 -0.9264  0.0355
  359MOL0     H47384   5.562   6.721   8.456 -0.0584 -0.2633  0.6484
  359MOL0     H47385   5.586   6.668   8.297  1.4216 -1.0158  1.0997
  359MOL0     H47386   5.949   6.896   8.330  0.2678  0.0141 -0.3460
  359MOL0     H47387   5.057   6.838   8.165  2.5646 -0.1797  2.1007
  359MOL0     H47388   4.842   6.956   8.127 -0.4658 -0.0803 -0.5111
  360MOL0     O47389   7.711   5.897   5.099 -0.3968 -1.0355  0.0839
  360MOL0     C47390   7.721   5.926   5.218  0.8827  0.3745  1.0517
  360MOL0     O47391   7.830   5.943   5.282 -0.4992  0.1509 -0.2433
  360MOL0     C47392   7.950   5.915   5.219  0.6073 -0.2390  0.1638
  360MOL0     C47393   8.016   5.796   5.237 -0.2208 -0.2638 -0.1580
  360MOL0     C47394   8.142   5.782   5.191 -0.4249 -0.2094  0.3576
  360MOL0     C47395   8.216   5.894   5.144 -0.3188  0.0562 -1.0906
  360MOL0     O47396   8.342   5.867   5.116  0.4283 -0.8643 -0.2814
  360MOL0     C47397   8.409   5.955   5.023 -0.8119 -0.3706 -0.1932
  360MOL0     C47398   8.481   5.852   4.941  0.2070  0.6604  0.1552
  360MOL0     C47399   8.557   5.913   4.822  0.6261  1.1292 -1.1325
  360MOL0     C47400   8.618   5.806   4.738 -0.9423  0.2236 -0.2889
  360MOL0     C47401   8.534   5.742   4.628 -0.0914 -0.3107 -0.2115
  360MOL0     C47402   8.457   5.624   4.683  0.0878  0.7219 -0.0925
  360MOL0     C47403   8.428   5.507   4.587 -0.3444  0.3049 -0.3336
  360MOL0     C47404   8.320   5.555   4.488  0.0747  0.8406  0.0157
  360MOL0     N47405   8.245   5.443   4.426 -0.6508 -0.3674  0.2667
  360MOL0     C47406   8.166   5.361   4.501 -0.0766 -0.0089  0.3194
  360MOL0     C47407   8.105   5.278   4.412 -0.4954 -0.4978 -0.2458
  360MOL0     C47408   7.998   5.170   4.451 -0.8120  0.1333  0.2373
  360MOL0     C47409   7.864   5.223   4.396  0.0374  1.2787  0.4535
  360MOL0     C47410   7.741   5.135   4.429 -1.2193 -0.2961  0.1484
  360MOL0     C47411   7.627   5.182   4.334  0.2871 -0.0126  0.3765
  360MOL0     O47412   7.503   5.130   4.358  0.5868 -0.4822 -0.6661
  360MOL0     C47413   7.399   5.149   4.266  0.6254 -0.7729 -0.5326
  360MOL0     C47414   7.279   5.066   4.268  0.2624  0.1556 -0.2912
  360MOL0     C47415   7.161   5.090   4.196  0.0710 -0.0920 -0.7177
  360MOL0     C47416   7.168   5.185   4.088 -0.5598 -0.2572 -0.3401
  360MOL0     C47417   7.048   5.243   4.027  1.1398 -0.3726  0.0161
  360MOL0     O47418   7.061   5.352   3.945  0.7037  0.2148 -0.3251
  360MOL0     C47419   6.946   5.375   3.868 -0.4417  0.3858  0.3261
  360MOL0     C47420   6.836   5.434   3.930 -0.0170  0.5630 -0.4491
  360MOL0     C47421   6.715   5.443   3.866  0.2786  0.1192  0.2463
  360MOL0     C47422   6.694   5.386   3.735 -0.1379 -0.0681 -0.2465
  360MOL0     O47423   6.567   5.380   3.680 -0.1053  0.7944  1.0364
  360MOL0     C47424   6.543   5.440   3.548  0.2091  0.6197 -0.3763
  360MOL0     C47425   6.401   5.494   3.540  0.6934 -0.1566 -0.0005
  360MOL0     C47426   6.323   5.406   3.453  0.0288 -1.1328 -0.0058
  360MOL0     C47427   6.186   5.458   3.411 -0.4135 -0.6002 -0.3402
  360MOL0     C47428   6.088   5.450   3.518  0.1958  0.4316  0.4509
  360MOL0     C47429   5.950   5.416   3.467  1.4636 -0.4124 -0.2226
  360MOL0     C47430   5.847   5.423   3.579  0.1407 -0.4019  0.8248
  360MOL0     C47431   5.731   5.342   3.534 -1.1195 -0.0301 -0.2558
  360MOL0    Cl47432   5.594   5.343   3.643 -0.0076 -0.4952  0.1233
  360MOL0     C47433   6.806   5.326   3.673  0.5397  0.9305  0.3212
  360MOL0     C47434   6.931   5.325   3.736 -0.6946 -0.1070 -0.8659
  360MOL0     O47435   6.945   5.178   4.054 -0.1461  0.3094  0.0575
  360MOL0     C47436   7.288   5.261   4.078  0.3646 -0.4691  0.5857
  360MOL0     C47437   7.400   5.240   4.160 -0.0193 -0.4949 -0.2750
  360MOL0     N47438   8.157   5.311   4.291  1.0256 -0.0234 -0.3662
  360MOL0     N47439   8.233   5.412   4.292  0.1847 -0.2393 -0.1546
  360MOL0     C47440   8.148   6.018   5.139 -0.3635 -0.3571 -0.0484
  360MOL0     C47441   8.017   6.031   5.175 -0.7131  0.5251  0.5489
  360MOL0     C47442   7.601   5.951   5.289  0.0455  0.2475 -0.0019
  360MOL0     C47443   7.475   5.964   5.228 -0.4610  0.5233 -0.1503
  360MOL0     C47444   7.361   5.966   5.297  0.2553  0.3089 -0.2743
  360MOL0     C47445   7.354   5.958   5.438 -0.6614 -0.2043  0.7074
  360MOL0     O47446   7.232   5.961   5.492  0.3672 -0.7192 -0.6353
  360MOL0     C47447   7.219   6.066   5.592  0.0309  0.5174 -1.1725
  360MOL0     C47448   7.213   6.211   5.542  1.3007  0.1467  0.1067
  360MOL0     C47449   7.101   6.222   5.442  0.8334 -0.4911  0.0308
  360MOL0     C47450   6.959   6.174   5.468 -0.0158 -0.4192  1.1145
  360MOL0     C47451   6.871   6.174   5.347  0.6621 -0.3894 -0.0741
  360MOL0     C47452   6.785   6.160   5.261 -1.0374 -0.0556  0.6266
  360MOL0     C47453   7.479   5.957   5.508 -0.2673 -0.5966  0.4264
  360MOL0     C47454   7.601   5.960   5.429  0.4412  0.0170  0.2024
  360MOL0     H47455   7.965   5.714   5.287  1.7681 -0.5551  1.5514
  360MOL0     H47456   8.203   5.694   5.206  1.4658  1.2160  1.5011
  360MOL0     H47457   8.474   6.017   5.085  1.4725 -2.1902 -0.6204
  360MOL0     H47458   8.341   6.020   4.968  0.2067  0.6079 -0.3205
  360MOL0     H47459   8.411   5.778   4.903  0.0426  0.7634  0.2571
  360MOL0     H47460   8.555   5.796   4.998  0.8474  2.0581  0.7457
  360MOL0     H47461   8.639   5.966   4.871 -0.6165 -1.0906  4.1408
  360MOL0     H47462   8.489   5.972   4.761 -1.1269 -0.6089 -0.9636
  360MOL0     H47463   8.710   5.842   4.692 -1.5453  0.5044 -1.3092
  360MOL0     H47464   8.639   5.723   4.807 -1.0230  0.8087  0.4479
  360MOL0     H47465   8.613   5.707   4.562 -0.1621 -0.9630  0.0423
  360MOL0     H47466   8.470   5.813   4.575 -0.7837 -0.9109 -0.1873
  360MOL0     H47467   8.367   5.660   4.733 -1.1107 -2.5896  0.3201
  360MOL0     H47468   8.509   5.579   4.767 -0.0897 -1.9401 -1.3235
  360MOL0     H47469   8.512   5.482   4.521 -0.7295  1.0281 -1.1172
  360MOL0     H47470   8.410   5.413   4.641  1.4290  0.9790  1.5472
  360MOL0     H47471   8.374   5.611   4.411  2.8393 -2.7758 -0.9087
  360MOL0     H47472   8.237   5.607   4.537 -3.3632 -2.4661 -1.8302
  360MOL0     H47473   8.145   5.367   4.607  0.0371  0.6156  0.3106
  360MOL0     H47474   8.006   5.157   4.559  2.0626  1.9220  0.3349
  360MOL0     H47475   8.007   5.073   4.400 -0.1969  0.6967 -0.7459
  360MOL0     H47476   7.879   5.223   4.288  0.3519  0.5820  0.4952
  360MOL0     H47477   7.852   5.324   4.436 -2.5877  0.7269  1.1895
  360MOL0     H47478   7.776   5.035   4.400 -0.6729 -1.0985  3.1821
  360MOL0     H47479   7.710   5.142   4.534 -0.9171 -0.2005  0.2311
  360MOL0     H47480   7.659   5.158   4.232  0.1113 -0.2794  0.3814
  360MOL0     H47481   7.609   5.289   4.350 -4.9294 -0.6229  0.4468
  360MOL0     H47482   7.275   4.985   4.339  0.4431  0.3613 -0.0451
  360MOL0     H47483   7.071   5.032   4.212 -0.9369  1.2156 -1.4449
  360MOL0     H47484   6.841   5.463   4.035 -3.5495 -3.0044  0.9487
  360MOL0     H47485   6.630   5.474   3.926  0.9620  1.2992  0.6431
  360MOL0     H47486   6.560   5.364   3.471 -1.5892  1.1923 -1.4052
  360MOL0     H47487   6.610   5.524   3.526 -1.7029  1.4669 -3.6149
  360MOL0     H47488   6.419   5.595   3.503  4.1014 -0.1716  1.2379
  360MOL0     H47489   6.350   5.499   3.636 -0.7953  4.2299 -0.7997
  360MOL0     H47490   6.330   5.310   3.504  1.0626 -0.1128  1.9400
  360MOL0     H47491   6.370   5.395   3.355 -2.6711 -1.4720 -1.3495
  360MOL0     H47492   6.194   5.554   3.358 -1.2345 -0.1952  0.2436
  360MOL0     H47493   6.145   5.391   3.336 -1.3784 -0.0194 -0.3531
  360MOL0     H47494   6.096   5.551   3.559  2.2841  1.1957 -1.6374
  360MOL0     H47495   6.107   5.375   3.596 -1.4699 -0.0306  0.4387
  360MOL0     H47496   5.948   5.320   3.415 -0.0642 -0.2929 -0.4440
  360MOL0     H47497   5.912   5.487   3.393 -0.8387 -0.6991  0.5821
  360MOL0     H47498   5.887   5.369   3.665  4.0002 -0.9818 -1.1432
  360MOL0     H47499   5.822   5.525   3.609 -0.6329 -1.1447  2.8872
  360MOL0     H47500   5.764   5.238   3.532 -1.1938 -0.1482  1.9695
  360MOL0     H47501   5.692   5.385   3.441  0.6386 -1.5965 -1.7877
  360MOL0     H47502   6.791   5.284   3.574  0.2023  0.6277  0.4977
  360MOL0     H47503   7.011   5.270   3.688 -0.3614  0.6767 -1.2163
  360MOL0     H47504   7.299   5.342   4.007  2.5439 -1.1175  0.1043
  360MOL0     H47505   7.484   5.307   4.144 -0.8048  0.2922 -1.2172
  360MOL0     H47506   8.197   6.112   5.112  3.1245 -1.8835  0.3787
  360MOL0     H47507   7.962   6.124   5.174 -0.0737  0.9237  1.2340
  360MOL0     H47508   7.478   5.939   5.122  4.5692 -7.1050  0.9435
  360MOL0     H47509   7.261   5.990   5.262 -0.5410  0.8197  2.1192
  360MOL0     H47510   7.302   6.072   5.663 -0.8637 -2.8162  0.3968
  360MOL0     H47511   7.128   6.042   5.648  0.3167  1.7436 -0.1410
  360MOL0     H47512   7.198   6.295   5.610 -2.0075  0.8462 -1.3003
  360MOL0     H47513   7.301   6.246   5.487  0.4526 -0.0920 -1.4750
  360MOL0     H47514   7.115   6.155   5.357 -3.0347 -0.7860 -0.5599
  360MOL0     H47515   7.105   6.326   5.410 -0.8460 -0.0975  0.9529
  360MOL0     H47516   6.965   6.069   5.496 -1.6478 -1.2552 -1.3124
  360MOL0     H47517   6.915   6.238   5.546 -0.0111  0.7483  0.1984
  360MOL0     H47518   6.709   6.128   5.193  0.7579 -0.9918 -1.0318
  360MOL0     H47519   7.484   5.958   5.617  0.1438  0.9481  0.4179
  360MOL0     H47520   7.695   5.949   5.482 -1.2124 -1.6159  3.0713
  361MOL0     O47521   4.616   8.691   1.680  0.8400  0.5868  0.9408
  361MOL0     C47522   4.673   8.596   1.626 -0.7548  0.4460 -0.5006
  361MOL0     O47523   4.610   8.489   1.582  0.1127  0.2922 -0.3193
  361MOL0     C47524   4.473   8.476   1.604 -0.1387 -0.3452 -0.1149
  361MOL0     C47525   4.381   8.552   1.535 -0.4366 -0.6438 -0.2327
  361MOL0     C47526   4.241   8.545   1.565  0.7059 -0.4170 -0.1882
  361MOL0     C47527   4.190   8.456   1.663 -0.0883  0.6099 -1.0013
  361MOL0     O47528   4.059   8.474   1.695  0.1512 -0.2254  0.5769
  361MOL0     C47529   3.990   8.380   1.772 -1.0357  0.5437 -0.3940
  361MOL0     C47530   3.853   8.436   1.805 -0.0305  0.7592 -0.2885
  361MOL0     C47531   3.791   8.363   1.926  0.3731  0.1519 -0.0560
  361MOL0     C47532   3.647   8.397   1.963  1.1057  0.1536  0.2659
  361MOL0     C47533   3.594   8.304   2.074 -0.3247  0.7700 -0.1180
  361MOL0     C47534   3.451   8.332   2.104 -0.5188  0.4438  0.5795
  361MOL0     C47535   3.397   8.250   2.226  0.7955  0.1766 -0.1082
  361MOL0     C47536   3.256   8.278   2.270 -0.5294 -0.0655  0.3095
  361MOL0     N47537   3.143   8.240   2.179  0.6284 -0.5427 -0.7168
  361MOL0     C47538   3.108   8.118   2.116 -0.3722  0.3608  0.0270
  361MOL0     C47539   3.005   8.148   2.028 -0.3141  0.2411  0.3378
  361MOL0     C47540   2.945   8.050   1.932  0.1777  0.1178  0.5565
  361MOL0     C47541   2.793   8.034   1.970 -0.0433  0.4515  0.3154
  361MOL0     C47542   2.757   7.911   2.054  0.5325 -0.3221 -0.1342
  361MOL0     C47543   2.599   7.892   2.056 -0.1643 -0.1029  0.1356
  361MOL0     O47544   2.540   7.994   2.131 -1.1233 -0.8836  0.1329
  361MOL0     C47545   2.400   7.999   2.141 -0.6975 -0.5885  0.0878
  361MOL0     C47546   2.341   8.110   2.082  0.6322 -0.3604 -0.3222
  361MOL0     C47547   2.199   8.130   2.084 -0.7473  0.5704 -0.1360
  361MOL0     C47548   2.119   8.025   2.143 -0.1407  0.0341 -0.3127
  361MOL0     C47549   1.977   8.027   2.134  0.7752 -1.2989  1.1459
  361MOL0     O47550   1.931   8.055   2.004  0.2413 -0.3604 -1.1105
  361MOL0     C47551   1.800   8.071   1.990  0.6936 -0.2358  0.2158
  361MOL0     C47552   1.723   8.166   2.066 -0.4430  0.0311 -0.0961
  361MOL0     C47553   1.588   8.178   2.041  0.3254  0.0138  0.8712
  361MOL0     C47554   1.522   8.104   1.938 -0.1505 -0.0791 -0.0872
  361MOL0     O47555   1.386   8.127   1.912  0.1006  0.3929  0.3665
  361MOL0     C47556   1.302   8.008   1.921 -0.3691 -0.4022  0.2499
  361MOL0     C47557   1.164   8.015   1.853 -0.5527 -0.0732  0.3566
  361MOL0     C47558   1.073   8.132   1.908  0.1744 -0.0691 -0.2079
  361MOL0     C47559   1.037   8.127   2.059 -0.0723 -0.2405  0.2560
  361MOL0     C47560   0.963   8.252   2.099 -0.1178 -0.0140  0.2040
  361MOL0     C47561   0.903   8.236   2.237  0.2192  0.1248 -0.2232
  361MOL0     C47562   0.794   8.333   2.268 -0.6152 -0.5986 -0.7190
  361MOL0     C47563   0.855   8.465   2.326 -0.2809  0.7658 -0.0026
  361MOL0    Cl47564   0.898   8.441   2.490  0.0874 -0.2713  0.2063
  361MOL0     C47565   1.599   8.017   1.864 -0.4808 -0.5386  0.7248
  361MOL0     C47566   1.734   8.001   1.885  0.0406 -0.5180 -0.3663
  361MOL0     O47567   1.913   7.991   2.229  0.4103  0.0010 -1.0150
  361MOL0     C47568   2.182   7.930   2.224 -0.0783 -1.0004  0.0786
  361MOL0     C47569   2.322   7.916   2.218  0.0466  0.2425 -0.2654
  361MOL0     N47570   2.971   8.277   2.054 -0.4617  0.0522 -1.0223
  361MOL0     N47571   3.054   8.327   2.136 -0.0800 -0.8687 -0.4308
  361MOL0     C47572   4.280   8.369   1.732  0.6367 -0.2369  0.0173
  361MOL0     C47573   4.416   8.379   1.702 -0.2890 -0.4777 -0.3706
  361MOL0     C47574   4.824   8.617   1.605  0.1503 -0.4446  1.0618
  361MOL0     C47575   4.884   8.530   1.510 -0.4134 -0.4116 -0.9936
  361MOL0     C47576   5.023   8.550   1.473  0.2743  0.1568  0.0169
  361MOL0     C47577   5.100   8.655   1.532 -0.2175  0.6265  0.2091
  361MOL0     O47578   5.226   8.690   1.495  0.0389 -0.3581 -0.0596
  361MOL0     C47579   5.325   8.603   1.560  0.4502 -0.0893  0.0929
  361MOL0     C47580   5.373   8.473   1.493  0.0668 -0.1219  0.2292
  361MOL0     C47581   5.429   8.375   1.606 -0.3319  0.8424 -1.1411
  361MOL0     C47582   5.541   8.436   1.691  0.0901 -0.2350 -1.3702
  361MOL0     C47583   5.653   8.488   1.614 -0.0732  0.4807  0.3723
  361MOL0     C47584   5.731   8.524   1.533 -0.5652  0.2432 -1.0605
  361MOL0     C47585   5.044   8.739   1.630 -0.8232  0.2801 -0.1416
  361MOL0     C47586   4.909   8.723   1.655 -0.3737  0.5513  0.2675
  361MOL0     H47587   4.419   8.616   1.456  1.0462  0.9808  1.7065
  361MOL0     H47588   4.175   8.609   1.507 -0.7269 -3.7485 -2.5773
  361MOL0     H47589   4.044   8.357   1.864 -0.6565  3.4591  0.2254
  361MOL0     H47590   3.966   8.281   1.732 -1.2796  1.2598 -2.0886
  361MOL0     H47591   3.796   8.435   1.712 -2.5866  1.3437  1.1879
  361MOL0     H47592   3.870   8.542   1.826 -0.8441  1.0930 -1.2362
  361MOL0     H47593   3.852   8.373   2.016 -1.5104  0.5407  1.2542
  361MOL0     H47594   3.795   8.260   1.892  0.7557  0.1216  0.0804
  361MOL0     H47595   3.649   8.496   2.009  0.0696  0.1798  0.2809
  361MOL0     H47596   3.573   8.394   1.882 -0.7359 -1.8117  1.9337
  361MOL0     H47597   3.655   8.323   2.163 -1.5069  2.6348  0.3512
  361MOL0     H47598   3.601   8.202   2.035  1.6342  0.0444  1.9604
  361MOL0     H47599   3.394   8.311   2.014  0.9922 -0.6260 -0.1781
  361MOL0     H47600   3.442   8.437   2.132 -0.1851  0.7273 -0.3546
  361MOL0     H47601   3.385   8.147   2.189 -2.2072 -0.3875  2.0488
  361MOL0     H47602   3.466   8.254   2.311  0.6311 -1.7337  0.1621
  361MOL0     H47603   3.246   8.386   2.259 -2.1395 -0.3702 -1.8486
  361MOL0     H47604   3.244   8.255   2.376  2.0086 -2.6252  0.1682
  361MOL0     H47605   3.158   8.023   2.131  0.2493  0.2461 -2.3371
  361MOL0     H47606   3.001   7.957   1.924 -2.0706 -1.1531 -1.9945
  361MOL0     H47607   2.943   8.095   1.832 -1.9755  1.9266  1.3187
  361MOL0     H47608   2.736   8.029   1.877  0.6524  0.3513 -0.1141
  361MOL0     H47609   2.749   8.119   2.023  0.6793  0.6583  0.5932
  361MOL0     H47610   2.805   7.820   2.017 -0.1292 -1.2777  1.2709
  361MOL0     H47611   2.797   7.923   2.155  0.4007 -1.5932  0.0898
  361MOL0     H47612   2.570   7.793   2.091 -2.8615  0.6994  0.3954
  361MOL0     H47613   2.564   7.892   1.953 -1.9866  0.8652  0.7184
  361MOL0     H47614   2.405   8.190   2.047 -0.7522  1.0631  0.2888
  361MOL0     H47615   2.152   8.215   2.035  0.9734  2.4480  1.2682
  361MOL0     H47616   1.767   8.235   2.137 -1.5925  0.1655  0.5118
  361MOL0     H47617   1.531   8.254   2.095  2.0397  0.7699  1.6911
  361MOL0     H47618   1.295   7.974   2.025  2.5172  0.4088  0.8148
  361MOL0     H47619   1.363   7.935   1.869 -0.5141  2.2975 -4.2231
  361MOL0     H47620   1.104   7.927   1.878 -1.5403  0.4358 -0.1746
  361MOL0     H47621   1.170   8.025   1.744 -0.3747 -0.5032  0.3242
  361MOL0     H47622   0.979   8.151   1.855 -0.1975  0.0449  0.4825
  361MOL0     H47623   1.125   8.224   1.880 -1.3206  0.4621 -1.3783
  361MOL0     H47624   0.966   8.045   2.071 -1.7284  1.2514  1.0284
  361MOL0     H47625   1.116   8.107   2.132  0.2676  0.2535  0.0316
  361MOL0     H47626   0.880   8.282   2.034  2.7708  3.3811 -2.2279
  361MOL0     H47627   1.037   8.332   2.098  2.4400 -2.2549  0.4686
  361MOL0     H47628   0.976   8.261   2.315  0.1000  2.4621 -0.8101
  361MOL0     H47629   0.872   8.131   2.240  1.1976 -0.1969 -0.8042
  361MOL0     H47630   0.737   8.348   2.175 -0.4220 -3.4514 -1.4148
  361MOL0     H47631   0.734   8.281   2.343  1.0574 -1.5710  0.0001
  361MOL0     H47632   0.778   8.543   2.329 -0.5174  0.5316  0.0989
  361MOL0     H47633   0.946   8.500   2.277  0.4390  0.9006  1.3715
  361MOL0     H47634   1.555   7.959   1.783  0.7668 -2.1948  1.1869
  361MOL0     H47635   1.793   7.924   1.836  1.3694  0.3916 -0.2290
  361MOL0     H47636   2.124   7.863   2.285  1.0661 -0.8283  1.4178
  361MOL0     H47637   2.364   7.828   2.267 -1.2837  1.1327  2.6816
  361MOL0     H47638   4.240   8.289   1.794 -0.4185 -0.6560 -1.1558
  361MOL0     H47639   4.495   8.323   1.750 -0.7147  0.5142  1.5794
  361MOL0     H47640   4.835   8.451   1.454 -0.6559 -1.1204  0.1937
  361MOL0     H47641   5.072   8.484   1.403  0.2400 -0.8229  0.8892
  361MOL0     H47642   5.294   8.576   1.661 -1.7692 -2.4410 -1.1078
  361MOL0     H47643   5.410   8.669   1.581 -0.8520  2.1166 -1.1723
  361MOL0     H47644   5.288   8.426   1.442 -0.7742  1.3673  0.1924
  361MOL0     H47645   5.456   8.486   1.423  0.1786  0.4924  0.4709
  361MOL0     H47646   5.479   8.291   1.558 -1.1426  0.1634 -0.8185
  361MOL0     H47647   5.342   8.338   1.661 -0.0962  1.0707 -0.5992
  361MOL0     H47648   5.504   8.515   1.757  1.0461 -0.1533 -0.9066
  361MOL0     H47649   5.579   8.352   1.751 -1.4217 -1.1500 -1.6619
  361MOL0     H47650   5.804   8.569   1.468  2.9993  2.1261  3.6495
  361MOL0     H47651   5.096   8.826   1.670 -1.5902 -0.7695  3.5088
  361MOL0     H47652   4.850   8.781   1.725 -2.3031 -2.4744  1.3761
  362MOL0     O47653   5.561   2.683   5.888 -0.1846  0.4809 -0.1578
  362MOL0     C47654   5.596   2.801   5.858 -0.0688  0.6149  0.0100
  362MOL0     O47655   5.515   2.900   5.810 -0.1667 -0.1065  0.0884
  362MOL0     C47656   5.392   2.866   5.761  0.1516 -0.0220 -1.3377
  362MOL0     C47657   5.272   2.927   5.816 -0.7710 -0.0515 -0.4771
  362MOL0     C47658   5.142   2.887   5.775  0.0762  0.2295  0.2123
  362MOL0     C47659   5.133   2.790   5.674  0.2405  0.1301 -0.5117
  362MOL0     O47660   5.011   2.759   5.639  0.7158  0.0749  0.1511
  362MOL0     C47661   4.984   2.614   5.634  1.0561 -0.2014 -0.9505
  362MOL0     C47662   4.922   2.560   5.764 -0.0715  1.3817  0.1184
  362MOL0     C47663   4.786   2.622   5.794  0.0089  0.0489  0.5776
  362MOL0     C47664   4.746   2.581   5.940 -0.2759 -0.7098 -0.0419
  362MOL0     C47665   4.598   2.604   5.967  0.2384 -0.6352 -0.0679
  362MOL0     C47666   4.551   2.755   5.969  0.5885  0.4911  0.2221
  362MOL0     C47667   4.422   2.761   6.043 -0.2126  0.5778 -0.8711
  362MOL0     C47668   4.333   2.875   6.012 -0.4798 -0.0400  1.1073
  362MOL0     N47669   4.196   2.848   6.038  0.3510  0.2480 -1.4872
  362MOL0     C47670   4.141   2.825   6.163  0.6135  0.2130 -0.0311
  362MOL0     C47671   4.012   2.796   6.127  0.6701 -0.0532 -0.4266
  362MOL0     C47672   3.901   2.763   6.219 -0.3525 -0.3267  0.3120
  362MOL0     C47673   3.867   2.880   6.308  0.3550  0.7142  0.7153
  362MOL0     C47674   3.761   2.970   6.260  0.3010  0.4722  0.1860
  362MOL0     C47675   3.824   3.089   6.190 -0.4576 -0.6884  0.0239
  362MOL0     O47676   3.730   3.195   6.189 -0.0390  0.6936  0.1704
  362MOL0     C47677   3.608   3.160   6.126 -0.1676 -0.6990  1.0006
  362MOL0     C47678   3.504   3.124   6.202 -0.8063 -0.0436  0.6070
  362MOL0     C47679   3.380   3.100   6.149  1.1296  0.2785 -0.0215
  362MOL0     C47680   3.356   3.113   6.012  0.5675  0.6066  0.8029
  362MOL0     C47681   3.220   3.089   5.966 -0.6179  0.4266 -0.6865
  362MOL0     O47682   3.207   3.095   5.830  0.8566 -0.3834 -0.2629
  362MOL0     C47683   3.075   3.108   5.775 -0.6043  0.3115  0.0516
  362MOL0     C47684   2.991   3.211   5.824  0.2572 -0.8974  0.7239
  362MOL0     C47685   2.864   3.228   5.764 -0.5315  0.4261 -0.3917
  362MOL0     C47686   2.837   3.157   5.645  0.6927  0.1525  0.0276
  362MOL0     O47687   2.710   3.153   5.588 -0.7713 -0.1628 -0.8776
  362MOL0     C47688   2.591   3.197   5.652 -0.0046 -0.0670  0.0584
  362MOL0     C47689   2.530   3.091   5.756 -0.3361 -0.2408  0.6742
  362MOL0     C47690   2.422   3.137   5.865 -0.6746 -0.3688  0.2266
  362MOL0     C47691   2.378   3.011   5.937 -0.0935 -0.0081  0.4154
  362MOL0     C47692   2.314   3.037   6.071  0.3233  0.3713 -0.4965
  362MOL0     C47693   2.179   3.113   6.064  0.3242 -0.4122  0.0907
  362MOL0     C47694   2.074   3.025   5.989 -0.0051 -0.2990  0.4470
  362MOL0     C47695   1.936   3.069   5.991 -0.3567  0.0659  0.6797
  362MOL0    Cl47696   1.856   3.087   6.164 -0.0372 -0.2914  0.2704
  362MOL0     C47697   2.933   3.080   5.585 -0.0437  0.4521 -0.4552
  362MOL0     C47698   3.053   3.049   5.651  0.4857  0.1911  0.6159
  362MOL0     O47699   3.129   3.081   6.045 -0.4697 -0.1521 -0.2183
  362MOL0     C47700   3.455   3.154   5.927 -0.4020 -0.1742 -0.0308
  362MOL0     C47701   3.577   3.180   5.987  0.2041 -1.1519  0.3121
  362MOL0     N47702   3.993   2.800   5.992 -0.0117 -0.4420  0.7704
  362MOL0     N47703   4.101   2.836   5.943 -0.3627 -0.0302 -0.3223
  362MOL0     C47704   5.243   2.718   5.621  0.4363 -0.0069 -0.8053
  362MOL0     C47705   5.367   2.762   5.665  0.0276  0.5706  0.4145
  362MOL0     C47706   5.743   2.829   5.873  0.0352  0.6464 -0.8806
  362MOL0     C47707   5.786   2.960   5.894 -0.5925  0.1696 -0.0517
  362MOL0     C47708   5.919   2.983   5.914  0.4492 -0.2879 -0.1152
  362MOL0     C47709   6.013   2.878   5.903  0.3467 -1.0097  0.1178
  362MOL0     O47710   6.147   2.910   5.906 -0.0830 -0.4155  0.9657
  362MOL0     C47711   6.214   2.922   6.033  0.5625 -0.3186 -0.5564
  362MOL0     C47712   6.341   3.004   6.006 -0.2080 -0.6276 -0.1378
  362MOL0     C47713   6.422   3.051   6.126 -0.5346 -0.8501 -0.2469
  362MOL0     C47714   6.466   2.945   6.233 -0.7315  0.7881 -0.0989
  362MOL0     C47715   6.490   2.820   6.165 -0.0894  0.5374 -1.1206
  362MOL0     C47716   6.529   2.709   6.127  0.4529 -0.1614 -0.7016
  362MOL0     C47717   5.969   2.751   5.875  0.2084 -0.4064 -0.0161
  362MOL0     C47718   5.834   2.727   5.869 -0.1203  0.3637 -0.3549
  362MOL0     H47719   5.280   3.010   5.885 -1.5147 -0.8934  0.6568
  362MOL0     H47720   5.056   2.946   5.806  0.2897  0.1353  0.9878
  362MOL0     H47721   5.072   2.554   5.612  1.3245  0.2708 -1.1883
  362MOL0     H47722   4.920   2.594   5.548  0.9142  0.5896 -1.0374
  362MOL0     H47723   4.995   2.574   5.844  2.3242  0.3291 -1.7361
  362MOL0     H47724   4.909   2.452   5.747  1.2071  0.6073  3.3167
  362MOL0     H47725   4.713   2.592   5.718  0.1939  0.8737  0.0553
  362MOL0     H47726   4.798   2.731   5.785 -0.4875  0.1828  1.4225
  362MOL0     H47727   4.766   2.473   5.947 -0.2571 -0.6296  1.4607
  362MOL0     H47728   4.804   2.637   6.014 -0.4729  0.4613 -0.7530
  362MOL0     H47729   4.578   2.560   6.065 -2.8674  1.6607  0.4786
  362MOL0     H47730   4.543   2.551   5.889  1.4782 -0.8539 -0.8209
  362MOL0     H47731   4.533   2.801   5.872  1.5145 -0.1425 -0.2597
  362MOL0     H47732   4.617   2.827   6.018  0.0059 -0.3983  2.4786
  362MOL0     H47733   4.365   2.669   6.029 -0.8902  0.8798 -0.2337
  362MOL0     H47734   4.453   2.753   6.148 -0.1303 -1.5360 -1.0196
  362MOL0     H47735   4.359   2.904   5.909  1.9932  2.9844  2.4168
  362MOL0     H47736   4.356   2.965   6.070  0.4054 -0.7518  1.8956
  362MOL0     H47737   4.197   2.824   6.255 -0.1218 -0.4321  0.4204
  362MOL0     H47738   3.916   2.667   6.270 -4.1044 -1.9114 -1.1498
  362MOL0     H47739   3.810   2.738   6.163 -0.1886  1.4866 -0.8209
  362MOL0     H47740   3.952   2.942   6.339  0.6855  0.3248  0.5970
  362MOL0     H47741   3.829   2.841   6.404  0.1429  0.4650  0.5311
  362MOL0     H47742   3.688   2.917   6.198  0.1659  0.3346  0.4582
  362MOL0     H47743   3.717   3.001   6.355  1.0080 -2.2141  1.4841
  362MOL0     H47744   3.854   3.053   6.092  1.8593 -2.6869  1.3453
  362MOL0     H47745   3.910   3.128   6.245  3.0007 -3.4968 -2.8499
  362MOL0     H47746   3.512   3.112   6.310 -1.7945 -2.4882  0.4746
  362MOL0     H47747   3.301   3.078   6.220  2.5139  0.1361  1.5303
  362MOL0     H47748   3.018   3.279   5.904 -4.7532 -0.8231  2.7588
  362MOL0     H47749   2.792   3.304   5.794 -1.2503 -0.0312 -0.9233
  362MOL0     H47750   2.516   3.198   5.572 -0.8999  2.2253  0.8432
  362MOL0     H47751   2.595   3.302   5.684  4.4184  0.5492 -1.8445
  362MOL0     H47752   2.617   3.049   5.807  0.8476  0.9809 -0.2671
  362MOL0     H47753   2.492   3.005   5.700 -3.7172  0.1689  2.0862
  362MOL0     H47754   2.340   3.186   5.812  0.4161  2.4459  0.9347
  362MOL0     H47755   2.467   3.213   5.930 -0.1929 -1.2767  0.9774
  362MOL0     H47756   2.329   2.935   5.876 -1.1522 -0.3338  1.6106
  362MOL0     H47757   2.470   2.963   5.970  0.4679  0.1831 -0.8318
  362MOL0     H47758   2.384   3.102   6.125  1.1166 -1.9267  1.4223
  362MOL0     H47759   2.287   2.941   6.116 -0.1210  1.0076  0.6580
  362MOL0     H47760   2.196   3.201   6.001 -0.2651 -2.2978 -2.8915
  362MOL0     H47761   2.142   3.151   6.159 -0.9895 -0.4890 -0.3784
  362MOL0     H47762   2.108   3.012   5.886 -2.2578 -0.7441 -0.3045
  362MOL0     H47763   2.088   2.925   6.030  2.6691  0.2922  1.2149
  362MOL0     H47764   1.882   2.993   5.934  1.3346  0.3858 -1.4520
  362MOL0     H47765   1.931   3.159   5.929  0.7466  1.6680  2.7729
  362MOL0     H47766   2.900   3.041   5.490 -0.5172  0.0598 -0.1372
  362MOL0     H47767   3.119   2.980   5.598 -1.6667 -0.5828 -1.2350
  362MOL0     H47768   3.434   3.153   5.820 -2.9702  1.9083  0.3297
  362MOL0     H47769   3.660   3.210   5.924 -2.0862  1.3179 -1.7738
  362MOL0     H47770   5.242   2.661   5.529 -1.6076  1.2582 -1.6325
  362MOL0     H47771   5.463   2.727   5.629  0.9789  2.9359  0.5160
  362MOL0     H47772   5.712   3.039   5.907 -0.3817  0.7611 -2.1616
  362MOL0     H47773   5.963   3.081   5.922 -0.1134  0.0228 -0.7529
  362MOL0     H47774   6.230   2.822   6.074 -0.6684 -0.6057 -0.7321
  362MOL0     H47775   6.152   2.977   6.105  0.5374  1.3096 -1.7800
  362MOL0     H47776   6.399   2.934   5.945  0.0499  1.4389 -2.3657
  362MOL0     H47777   6.323   3.091   5.943  0.3344 -0.4674 -0.0741
  362MOL0     H47778   6.370   3.135   6.175  2.8300  0.5718  1.1755
  362MOL0     H47779   6.515   3.094   6.088  1.8376 -4.4898  0.9532
  362MOL0     H47780   6.551   2.964   6.298 -2.8145  1.4540  2.6199
  362MOL0     H47781   6.384   2.944   6.305 -1.7907 -0.4104 -1.2649
  362MOL0     H47782   6.556   2.616   6.081  0.0185  0.5876 -2.5353
  362MOL0     H47783   6.030   2.662   5.871  1.4347  0.2253  2.4495
  362MOL0     H47784   5.813   2.622   5.853  3.5367 -0.4826 -0.4768
  363MOL0     O47785   6.223   5.904   4.797  0.7790 -0.3698 -0.5429
  363MOL0     C47786   6.263   5.794   4.836 -0.6097 -0.4041  0.9099
  363MOL0     O47787   6.194   5.675   4.857  0.1928  0.3659 -0.3125
  363MOL0     C47788   6.053   5.664   4.863 -0.2792 -0.6987  0.2505
  363MOL0     C47789   5.978   5.778   4.880  0.2145 -0.7065 -0.0302
  363MOL0     C47790   5.834   5.768   4.871 -0.1023  0.1766 -0.5923
  363MOL0     C47791   5.766   5.648   4.861 -1.1419 -0.7780  0.3835
  363MOL0     O47792   5.631   5.647   4.867  0.1848 -0.6254 -0.4353
  363MOL0     C47793   5.563   5.536   4.816  0.1032 -0.2967  0.1751
  363MOL0     C47794   5.411   5.529   4.853 -0.3440  0.3267 -0.5202
  363MOL0     C47795   5.318   5.618   4.782  0.9046  0.2056  0.3748
  363MOL0     C47796   5.176   5.591   4.827  0.5354 -0.5880 -0.0721
  363MOL0     C47797   5.081   5.700   4.785  0.0339 -0.3741 -0.2645
  363MOL0     C47798   4.943   5.641   4.782 -0.4749 -0.6104  0.5465
  363MOL0     C47799   4.840   5.756   4.795  0.3854  0.3920 -0.3869
  363MOL0     C47800   4.818   5.835   4.664 -0.3581  0.0405 -0.4526
  363MOL0     N47801   4.674   5.861   4.624 -0.0578  0.2987  0.5834
  363MOL0     C47802   4.636   5.951   4.526  0.1567  0.0744 -0.3634
  363MOL0     C47803   4.507   5.928   4.501  0.2384  0.2022  0.0979
  363MOL0     C47804   4.438   5.973   4.381 -0.5031 -0.5221  1.3801
  363MOL0     C47805   4.309   6.042   4.428  0.0218  0.2323  0.3609
  363MOL0     C47806   4.210   6.065   4.316 -0.8743  0.5350 -0.3332
  363MOL0     C47807   4.084   6.123   4.368  0.9798  0.2163 -0.1177
  363MOL0     O47808   3.958   6.104   4.293 -0.1503 -0.2704  0.6299
  363MOL0     C47809   3.857   6.059   4.358  0.3063  0.3161  0.0935
  363MOL0     C47810   3.779   6.128   4.451 -0.4215  0.0949  0.0047
  363MOL0     C47811   3.672   6.065   4.524 -0.3170 -0.8356  0.5661
  363MOL0     C47812   3.636   5.934   4.497  0.1276  1.0725 -0.4915
  363MOL0     C47813   3.528   5.861   4.563  0.2027 -0.4093 -0.5931
  363MOL0     O47814   3.516   5.728   4.547 -0.3354 -0.1986  0.0733
  363MOL0     C47815   3.413   5.658   4.595  0.2200  0.3421  0.0699
  363MOL0     C47816   3.282   5.695   4.577  0.4906 -0.4014  0.0305
  363MOL0     C47817   3.168   5.615   4.606 -0.3780  0.3350 -0.2743
  363MOL0     C47818   3.199   5.491   4.663 -0.5913  0.3196 -0.2091
  363MOL0     O47819   3.099   5.408   4.702 -0.3750  0.4392 -0.1348
  363MOL0     C47820   3.132   5.270   4.686 -0.4166  0.1042  0.4848
  363MOL0     C47821   3.003   5.187   4.646  0.9806  1.0026 -0.0526
  363MOL0     C47822   2.885   5.209   4.738  0.3078  0.9292 -0.2001
  363MOL0     C47823   2.757   5.138   4.692 -0.8482  0.4613  0.2778
  363MOL0     C47824   2.641   5.142   4.792  0.4103  0.4272  0.3793
  363MOL0     C47825   2.518   5.048   4.742 -0.5200  0.4539 -0.3989
  363MOL0     C47826   2.407   5.035   4.844 -0.2708  0.3937 -0.1782
  363MOL0     C47827   2.275   4.969   4.789 -0.4280  0.9040 -0.8261
  363MOL0    Cl47828   2.306   4.822   4.706  0.1116  0.4255 -0.1682
  363MOL0     C47829   3.337   5.452   4.694 -0.3777  0.5668  0.2029
  363MOL0     C47830   3.443   5.535   4.645  0.9190  0.0482  0.1814
  363MOL0     O47831   3.454   5.927   4.636  0.3437 -0.1592 -0.1570
  363MOL0     C47832   3.715   5.864   4.407  0.8355  0.2489  0.2957
  363MOL0     C47833   3.822   5.926   4.335 -0.0416 -0.2185 -0.1512
  363MOL0     N47834   4.460   5.834   4.599  0.7156  0.2014  0.2001
  363MOL0     N47835   4.563   5.790   4.663 -0.1679 -0.5972 -0.5220
  363MOL0     C47836   5.847   5.539   4.850  0.7295  0.5645 -0.4121
  363MOL0     C47837   5.989   5.539   4.856 -0.6892 -0.8897  0.7828
  363MOL0     C47838   6.412   5.795   4.840 -0.0778  0.8358  0.9445
  363MOL0     C47839   6.494   5.911   4.853 -0.0403  0.2186  1.0423
  363MOL0     C47840   6.634   5.908   4.852  0.2047 -0.5474 -0.5405
  363MOL0     C47841   6.699   5.784   4.840 -0.0590 -0.3412  0.1561
  363MOL0     O47842   6.839   5.765   4.840  0.9458 -0.1498 -0.8327
  363MOL0     C47843   6.915   5.890   4.850 -0.4126  0.7471 -0.7434
  363MOL0     C47844   7.063   5.856   4.861 -0.6391  0.3154  0.5226
  363MOL0     C47845   7.123   5.788   4.738 -0.6446 -0.2845  0.6063
  363MOL0     C47846   7.253   5.710   4.769 -0.5104 -0.2494 -0.1047
  363MOL0     C47847   7.373   5.792   4.782 -1.0545  0.1692 -0.1299
  363MOL0     C47848   7.469   5.851   4.820  0.4838  0.0166  0.0891
  363MOL0     C47849   6.622   5.667   4.838  0.1643 -0.5624  0.5060
  363MOL0     C47850   6.481   5.677   4.845 -1.2454  0.2562 -0.2620
  363MOL0     H47851   6.013   5.881   4.879 -0.2097 -0.5675 -1.0063
  363MOL0     H47852   5.766   5.852   4.870  0.2258  0.4482 -1.5292
  363MOL0     H47853   5.597   5.439   4.854 -1.4804 -0.9711 -0.0451
  363MOL0     H47854   5.565   5.534   4.707  1.4335 -1.0954  0.1921
  363MOL0     H47855   5.411   5.555   4.960  0.1177 -1.4412 -0.0596
  363MOL0     H47856   5.376   5.428   4.836 -1.4711  0.9544 -2.1087
  363MOL0     H47857   5.317   5.601   4.674 -3.4921 -2.1798  0.5485
  363MOL0     H47858   5.359   5.718   4.801  2.1491 -0.6841  2.7042
  363MOL0     H47859   5.130   5.499   4.790 -1.5983 -0.2349  1.5031
  363MOL0     H47860   5.167   5.581   4.936  0.1082 -1.6702 -0.1909
  363MOL0     H47861   5.106   5.748   4.689  1.6820 -2.5176 -0.9879
  363MOL0     H47862   5.079   5.773   4.866 -2.7957 -0.4168 -0.2231
  363MOL0     H47863   4.920   5.571   4.863 -2.3023 -2.5211 -1.4593
  363MOL0     H47864   4.932   5.578   4.693  2.0212  0.7163 -0.7747
  363MOL0     H47865   4.747   5.703   4.816 -1.4340  2.4426 -2.6590
  363MOL0     H47866   4.850   5.813   4.887  0.8823 -2.1967  1.2795
  363MOL0     H47867   4.886   5.793   4.589  0.2646  0.0424  0.0934
  363MOL0     H47868   4.861   5.935   4.681 -1.9946  0.5180  1.1377
  363MOL0     H47869   4.708   6.015   4.476  2.2965 -0.8653  1.3493
  363MOL0     H47870   4.426   5.894   4.307 -0.5809 -1.5063  2.4188
  363MOL0     H47871   4.503   6.050   4.337 -0.0487 -1.9391 -0.5801
  363MOL0     H47872   4.337   6.139   4.470  2.8390 -0.2621 -0.1811
  363MOL0     H47873   4.254   5.969   4.490  0.0922 -0.4147 -0.3302
  363MOL0     H47874   4.251   6.130   4.238 -1.7696 -0.7579 -1.9707
  363MOL0     H47875   4.187   5.973   4.260  0.9687  1.6411 -3.1755
  363MOL0     H47876   4.099   6.232   4.371 -1.5858  0.6728  2.9735
  363MOL0     H47877   4.072   6.080   4.468  2.2496 -1.5550 -0.6717
  363MOL0     H47878   3.804   6.231   4.473 -0.0063 -0.4279  2.2374
  363MOL0     H47879   3.627   6.120   4.606  2.4519  1.2632  0.7976
  363MOL0     H47880   3.269   5.799   4.547 -1.0451 -0.9958 -1.5596
  363MOL0     H47881   3.064   5.646   4.606  0.3859  3.1642  0.1304
  363MOL0     H47882   3.182   5.233   4.776  0.0167 -0.0138  0.1949
  363MOL0     H47883   3.196   5.271   4.598  0.3906  1.3471  1.0579
  363MOL0     H47884   3.019   5.079   4.643 -0.7022  0.7406 -1.8523
  363MOL0     H47885   2.972   5.221   4.547 -0.4568  2.6955  0.9141
  363MOL0     H47886   2.858   5.315   4.741 -2.1816  0.3772 -0.6674
  363MOL0     H47887   2.906   5.171   4.838  2.2376  1.3498 -0.4120
  363MOL0     H47888   2.724   5.168   4.591 -1.0901 -1.8762 -0.3991
  363MOL0     H47889   2.790   5.035   4.683  0.5885  1.0091 -1.4235
  363MOL0     H47890   2.589   5.238   4.804 -0.7160 -0.0205 -0.6244
  363MOL0     H47891   2.680   5.108   4.888  1.3769 -2.1202 -0.8424
  363MOL0     H47892   2.543   4.947   4.709  0.1801  1.0379 -1.7383
  363MOL0     H47893   2.476   5.094   4.653 -1.0740 -2.4244 -1.7595
  363MOL0     H47894   2.444   4.971   4.924  4.7595  2.1633 -0.7198
  363MOL0     H47895   2.379   5.133   4.884  1.1710  0.5537  0.4901
  363MOL0     H47896   2.231   5.038   4.716  2.1972  0.4004 -3.0172
  363MOL0     H47897   2.204   4.965   4.872  1.2918 -1.3762  0.6560
  363MOL0     H47898   3.356   5.359   4.747 -2.6895  0.0939  0.2879
  363MOL0     H47899   3.545   5.499   4.647  0.4881 -1.8151 -3.5097
  363MOL0     H47900   3.690   5.760   4.386 -0.8823  0.2529  1.9788
  363MOL0     H47901   3.875   5.850   4.279  2.5822  1.1624  0.3217
  363MOL0     H47902   5.797   5.442   4.852 -0.5069  1.1856 -0.2126
  363MOL0     H47903   6.042   5.445   4.842  0.6108  0.3071 -5.2155
  363MOL0     H47904   6.444   6.008   4.860  0.7735  0.5742  2.1301
  363MOL0     H47905   6.698   5.995   4.856  2.0841 -1.5357 -4.2233
  363MOL0     H47906   6.885   5.958   4.930 -2.0738  0.5447 -1.1383
  363MOL0     H47907   6.908   5.954   4.762 -0.0364  1.6798 -0.1079
  363MOL0     H47908   7.126   5.943   4.878  1.5190 -0.9994 -0.3980
  363MOL0     H47909   7.079   5.787   4.945  2.6470 -1.6617 -1.5421
  363MOL0     H47910   7.146   5.865   4.663 -0.5608 -0.9791 -0.0980
  363MOL0     H47911   7.055   5.718   4.688  1.1643  0.3486 -3.0682
  363MOL0     H47912   7.239   5.664   4.868  3.6810  1.4275  1.5261
  363MOL0     H47913   7.272   5.626   4.702  2.3638  0.6759 -0.5871
  363MOL0     H47914   7.535   5.929   4.851  0.6876 -0.6995  1.6024
  363MOL0     H47915   6.687   5.580   4.839  1.2405  0.2222  1.1641
  363MOL0     H47916   6.426   5.583   4.845  2.7996 -2.3693  1.3293
  364MOL0     O47917   9.969  10.889   7.803 -0.0153  0.6079  0.7393
  364MOL0     C47918  10.019  10.800   7.881  0.6775 -0.3265  0.1256
  364MOL0     O47919   9.964  10.751   7.996  0.1658  0.0259 -0.0078
  364MOL0     C47920   9.831  10.789   8.018 -0.4666 -0.7263 -0.4047
  364MOL0     C47921   9.725  10.700   8.001 -0.2711 -0.0577 -0.3703
  364MOL0     C47922   9.601  10.746   8.015  0.8772 -0.1922  0.1539
  364MOL0     C47923   9.568  10.880   8.049 -0.0964  0.3477  0.1238
  364MOL0     O47924   9.452  10.949   8.050  0.0116  0.8115  0.0422
  364MOL0     C47925   9.328  10.900   7.999  0.4394  1.2016 -0.3386
  364MOL0     C47926   9.315  10.920   7.848 -0.1168  0.5016 -0.0675
  364MOL0     C47927   9.196  10.847   7.797 -0.6464 -1.0643 -0.7093
  364MOL0     C47928   9.188  10.852   7.640 -0.0673 -0.3388 -0.4436
  364MOL0     C47929   9.049  10.794   7.597 -0.1756 -0.4459 -0.1098
  364MOL0     C47930   9.033  10.842   7.451 -0.4893 -0.3450 -0.4313
  364MOL0     C47931   8.893  10.804   7.395 -0.4938 -0.1599  0.1354
  364MOL0     C47932   8.892  10.767   7.247  0.1999  0.2842  0.1191
  364MOL0     N47933   8.759  10.763   7.180  0.1259  0.4369  0.0642
  364MOL0     C47934   8.650  10.692   7.222  0.5316  0.3682  0.1935
  364MOL0     C47935   8.553  10.729   7.137 -0.2273  0.2299 -0.3863
  364MOL0     C47936   8.408  10.671   7.136  0.2848  0.1974  0.3068
  364MOL0     C47937   8.298  10.785   7.167  0.0218 -0.4695  0.1063
  364MOL0     C47938   8.221  10.753   7.283 -0.1985 -0.2767 -0.0865
  364MOL0     C47939   8.141  10.621   7.283 -0.6072  0.2067 -0.1942
  364MOL0     O47940   8.075  10.613   7.408  1.2321 -0.1920  0.2433
  364MOL0     C47941   7.944  10.644   7.426  0.8410  0.2372  0.9428
  364MOL0     C47942   7.887  10.630   7.555 -0.1529 -0.1810  0.4271
  364MOL0     C47943   7.752  10.658   7.583 -0.4416 -0.3672  0.2400
  364MOL0     C47944   7.678  10.692   7.470  0.4867 -0.0417 -0.1797
  364MOL0     C47945   7.536  10.719   7.489 -0.1094  0.3004 -0.7807
  364MOL0     O47946   7.497  10.683   7.617  0.0049  1.0794 -0.7990
  364MOL0     C47947   7.365  10.692   7.657 -0.5687 -0.7304 -0.0387
  364MOL0     C47948   7.262  10.663   7.568 -0.1866 -0.4289 -1.3747
  364MOL0     C47949   7.120  10.677   7.614 -0.2611 -0.7876 -0.1490
  364MOL0     C47950   7.096  10.727   7.744  0.0610  1.7547  0.7759
  364MOL0     O47951   6.974  10.751   7.789 -0.8188  0.4754 -0.7731
  364MOL0     C47952   6.861  10.764   7.700 -0.4801  0.1730 -0.3174
  364MOL0     C47953   6.731  10.791   7.784 -0.3297 -0.9650  0.4466
  364MOL0     C47954   6.609  10.773   7.705  0.2996 -0.7766 -0.2344
  364MOL0     C47955   6.479  10.811   7.773  0.3593 -0.0114  0.6698
  364MOL0     C47956   6.438  10.709   7.888  0.6257  0.1035 -0.5844
  364MOL0     C47957   6.307  10.734   7.964 -1.2655  0.3898  0.5674
  364MOL0     C47958   6.188  10.769   7.875  0.8074 -0.4908  0.2160
  364MOL0     C47959   6.062  10.815   7.957 -0.1060  0.4057  0.5386
  364MOL0    Cl47960   6.088  10.947   8.071  0.2866 -0.3511 -0.3396
  364MOL0     C47961   7.202  10.740   7.836 -0.1285 -0.0674  0.5856
  364MOL0     C47962   7.337  10.737   7.785  0.1712  0.7435 -0.5843
  364MOL0     O47963   7.465  10.772   7.404 -0.1839 -0.4175 -0.0431
  364MOL0     C47964   7.726  10.709   7.342  0.3621  0.3598  1.5602
  364MOL0     C47965   7.853  10.689   7.324  0.5176 -0.0527 -0.1687
  364MOL0     N47966   8.596  10.838   7.062 -0.3859 -0.6832  0.8567
  364MOL0     N47967   8.724  10.848   7.083 -0.0840 -0.4294  1.1388
  364MOL0     C47968   9.678  10.967   8.061 -0.5393 -0.1525  0.6439
  364MOL0     C47969   9.804  10.918   8.053  0.2741 -0.7922 -0.1766
  364MOL0     C47970  10.165  10.761   7.839  1.0266 -0.2140 -0.4429
  364MOL0     C47971  10.214  10.801   7.714 -0.4850 -0.1700  0.3524
  364MOL0     C47972  10.349  10.777   7.685 -0.8211  0.1865  0.2857
  364MOL0     C47973  10.435  10.709   7.775  0.0875 -0.1821  0.2362
  364MOL0     O47974  10.569  10.680   7.750  0.4109  0.3051 -0.0579
  364MOL0     C47975  10.649  10.775   7.669  0.5435  0.8819 -0.3318
  364MOL0     C47976  10.722  10.858   7.769  0.6937 -1.4403 -0.1455
  364MOL0     C47977  10.811  10.771   7.868  0.3506 -0.3827 -0.1268
  364MOL0     C47978  10.881  10.865   7.971  0.3286  0.2162 -0.2182
  364MOL0     C47979  10.988  10.792   8.041 -1.3729 -0.0883  0.4470
  364MOL0     C47980  11.069  10.729   8.099 -0.2834  0.8434  0.5532
  364MOL0     C47981  10.376  10.653   7.885  0.3954 -0.2193 -0.3766
  364MOL0     C47982  10.241  10.673   7.912 -0.3715  0.1619  1.0257
  364MOL0     H47983   9.755  10.598   7.977  0.0866  0.0159 -0.2384
  364MOL0     H47984   9.521  10.683   7.978 -1.3295  1.7279  1.3758
  364MOL0     H47985   9.242  10.949   8.045  0.7856  0.8754  0.7003
  364MOL0     H47986   9.315  10.796   8.032  1.7026  0.8983 -0.7352
  364MOL0     H47987   9.407  10.889   7.797 -0.4536  1.2975 -1.2007
  364MOL0     H47988   9.302  11.025   7.820 -0.1653  0.1112 -1.6286
  364MOL0     H47989   9.105  10.888   7.844  0.9677  1.5776  0.3499
  364MOL0     H47990   9.204  10.740   7.816  0.2504 -0.9164 -0.1808
  364MOL0     H47991   9.213  10.954   7.609  1.1935 -0.0324  1.3881
  364MOL0     H47992   9.264  10.782   7.603 -2.7549 -2.8204 -1.7180
  364MOL0     H47993   8.972  10.832   7.664  2.1438  1.2666  1.7486
  364MOL0     H47994   9.042  10.685   7.603  0.1734 -0.3923  1.7042
  364MOL0     H47995   9.108  10.793   7.388 -0.2955 -0.4130 -0.1492
  364MOL0     H47996   9.044  10.950   7.446 -0.5078 -0.1263  2.3922
  364MOL0     H47997   8.853  10.718   7.451  0.1834 -1.2481 -1.0067
  364MOL0     H47998   8.827  10.890   7.405 -3.4629 -2.0414 -1.4892
  364MOL0     H47999   8.940  10.669   7.240 -2.9748 -1.2710 -3.8277
  364MOL0     H48000   8.950  10.835   7.184 -0.9769  0.0337 -1.2764
  364MOL0     H48001   8.656  10.614   7.298  1.6595  2.2700  2.1745
  364MOL0     H48002   8.397  10.581   7.197  0.3627  0.0593  0.1173
  364MOL0     H48003   8.392  10.638   7.033  2.0539  0.3263 -0.0419
  364MOL0     H48004   8.237  10.796   7.078  0.9670  5.7972 -0.2567
  364MOL0     H48005   8.338  10.887   7.176 -1.5943  0.3297 -1.1634
  364MOL0     H48006   8.281  10.765   7.374 -1.5892  2.6833  0.5361
  364MOL0     H48007   8.152  10.837   7.287 -0.0074 -0.1845  3.0013
  364MOL0     H48008   8.219  10.544   7.293 -1.3920 -0.3254  2.9706
  364MOL0     H48009   8.089  10.597   7.189  1.8744 -2.0028 -1.1452
  364MOL0     H48010   7.966  10.608   7.626 -0.6239  2.6232  1.9696
  364MOL0     H48011   7.718  10.645   7.685  1.2953  1.8345  1.2093
  364MOL0     H48012   7.272  10.634   7.463 -1.7914 -0.6132 -1.5115
  364MOL0     H48013   7.043  10.647   7.544 -0.3271 -0.6594 -0.1322
  364MOL0     H48014   6.861  10.671   7.643  1.7029 -0.1107  0.0796
  364MOL0     H48015   6.873  10.840   7.621 -0.1075 -0.3977 -0.8191
  364MOL0     H48016   6.733  10.894   7.820  0.8785 -1.6748  2.5963
  364MOL0     H48017   6.728  10.715   7.863 -3.2887 -3.6977 -1.9962
  364MOL0     H48018   6.603  10.671   7.668 -1.4203 -0.5212 -0.7780
  364MOL0     H48019   6.612  10.837   7.615 -0.6307 -2.6560 -1.6667
  364MOL0     H48020   6.469  10.915   7.804 -2.4443  0.3998 -1.2496
  364MOL0     H48021   6.405  10.813   7.692  0.8870 -0.6250  0.1485
  364MOL0     H48022   6.512  10.696   7.967 -1.2699 -0.9974  1.1083
  364MOL0     H48023   6.427  10.609   7.843  2.7477 -0.3277 -0.2840
  364MOL0     H48024   6.336  10.816   8.029  1.9422  1.9340 -2.4612
  364MOL0     H48025   6.288  10.637   8.011  1.0071 -1.2552 -1.6180
  364MOL0     H48026   6.213  10.845   7.800  0.9073  1.5092  2.1708
  364MOL0     H48027   6.161  10.678   7.821 -0.3458 -1.0570  1.6863
  364MOL0     H48028   6.014  10.737   8.017  1.0397 -0.6613  0.0964
  364MOL0     H48029   5.989  10.854   7.885  0.4057 -0.7728 -0.6646
  364MOL0     H48030   7.183  10.785   7.933  0.3748  0.0709  0.6222
  364MOL0     H48031   7.421  10.767   7.846 -0.1411 -3.7124  2.5395
  364MOL0     H48032   7.654  10.726   7.263  0.0574 -0.3282  1.6805
  364MOL0     H48033   7.888  10.700   7.221  3.4496 -0.7266  0.6612
  364MOL0     H48034   9.659  11.074   8.063 -1.3783 -0.1925 -1.7681
  364MOL0     H48035   9.892  10.983   8.048 -0.5540  0.7727  2.8834
  364MOL0     H48036  10.160  10.864   7.645 -1.7812 -1.1973  0.3834
  364MOL0     H48037  10.385  10.825   7.595  2.7983  4.3177  3.4643
  364MOL0     H48038  10.591  10.840   7.603 -2.7134 -1.0079  0.4667
  364MOL0     H48039  10.727  10.720   7.614  1.7656 -1.5937  3.4725
  364MOL0     H48040  10.788  10.921   7.709  0.7551  0.6995  2.0535
  364MOL0     H48041  10.653  10.922   7.825  1.6517 -0.0469 -0.5203
  364MOL0     H48042  10.879  10.698   7.824  1.1505 -1.3860  2.5506
  364MOL0     H48043  10.752  10.699   7.925 -1.8214 -1.7518 -3.8073
  364MOL0     H48044  10.917  10.952   7.915 -1.8106  0.3599 -1.5070
  364MOL0     H48045  10.804  10.898   8.041 -0.1186 -1.3714  0.0662
  364MOL0     H48046  11.123  10.660   8.160 -3.5202 -1.1496  1.4432
  364MOL0     H48047  10.431  10.601   7.963 -1.0272  3.2218  3.2897
  364MOL0     H48048  10.205  10.631   8.005 -1.4461  1.5346  1.2679
  365MOL0     O48049   0.214   5.686   7.066  0.5100  0.3881 -0.0741
  365MOL0     C48050   0.205   5.688   7.188 -1.1639 -0.4570 -0.7757
  365MOL0     O48051   0.102   5.739   7.265 -0.1031 -0.0470  0.5261
  365MOL0     C48052  -0.001   5.813   7.219 -0.2238  0.2943  0.2491
  365MOL0     C48053  -0.108   5.816   7.312 -0.4781  0.2123 -0.8017
  365MOL0     C48054  -0.212   5.909   7.297 -0.9023  0.8660 -0.0185
  365MOL0     C48055  -0.214   6.007   7.193 -0.1136  2.0126  0.1129
  365MOL0     O48056  -0.308   6.107   7.192  0.5586 -0.3084 -0.1770
  365MOL0     C48057  -0.443   6.058   7.187  0.3171  0.8663 -0.4139
  365MOL0     C48058  -0.493   6.026   7.045 -0.3358  0.8314  0.1139
  365MOL0     C48059  -0.642   6.047   7.007 -0.7705 -0.0977 -0.4942
  365MOL0     C48060  -0.728   5.964   7.102  0.4073  0.0729 -0.4077
  365MOL0     C48061  -0.853   5.904   7.043 -0.1784 -1.6965 -0.7894
  365MOL0     C48062  -0.968   5.872   7.139  0.0151  0.3482 -0.4967
  365MOL0     C48063  -0.956   5.727   7.197  1.2554 -0.1690  0.7093
  365MOL0     C48064  -1.057   5.690   7.309  0.1142  0.2566  0.5159
  365MOL0     N48065  -1.190   5.710   7.265 -0.2042  0.4833 -0.9158
  365MOL0     C48066  -1.265   5.636   7.182 -0.5664 -0.3089  0.6275
  365MOL0     C48067  -1.391   5.684   7.195 -0.4187  0.5462 -0.2888
  365MOL0     C48068  -1.520   5.626   7.134 -0.7156 -0.2070 -0.3472
  365MOL0     C48069  -1.646   5.629   7.213  0.2909  0.5974  0.2028
  365MOL0     C48070  -1.628   5.550   7.350  0.6995 -0.6086  0.0897
  365MOL0     C48071  -1.757   5.505   7.412  0.2063 -0.5250  0.2961
  365MOL0     O48072  -1.838   5.608   7.471 -0.7019 -0.3456 -0.3422
  365MOL0     C48073  -1.972   5.592   7.507 -0.1866 -0.5767  0.3039
  365MOL0     C48074  -2.065   5.510   7.436 -0.6826  0.3763 -0.4439
  365MOL0     C48075  -2.202   5.515   7.457 -0.9744 -0.0574 -0.7602
  365MOL0     C48076  -2.252   5.588   7.562  0.4553 -0.6258  0.1219
  365MOL0     C48077  -2.388   5.619   7.599  0.4194  0.1416  0.0521
  365MOL0     O48078  -2.422   5.680   7.722 -0.3593  1.3243  0.1216
  365MOL0     C48079  -2.551   5.653   7.779 -0.0540  0.3233  0.2218
  365MOL0     C48080  -2.629   5.767   7.813  0.3441 -0.0678  0.5831
  365MOL0     C48081  -2.755   5.752   7.854  0.0991  0.9185  0.1226
  365MOL0     C48082  -2.818   5.630   7.863 -0.0882  0.1269  0.1901
  365MOL0     O48083  -2.949   5.636   7.903 -0.4845 -0.7711 -0.3196
  365MOL0     C48084  -3.017   5.520   7.941 -0.4274 -0.2585 -0.5309
  365MOL0     C48085  -3.070   5.442   7.817  0.4640 -0.4040  0.2666
  365MOL0     C48086  -3.177   5.521   7.749  0.4029 -1.3451 -0.1184
  365MOL0     C48087  -3.204   5.464   7.615  0.4674 -0.1700 -0.1977
  365MOL0     C48088  -3.301   5.549   7.532 -0.0738  1.1768  0.4486
  365MOL0     C48089  -3.443   5.594   7.589 -0.3857 -0.1246 -0.2951
  365MOL0     C48090  -3.536   5.653   7.484  0.0454 -0.2933 -0.6668
  365MOL0     C48091  -3.678   5.678   7.555 -1.0678 -0.0294  0.1088
  365MOL0    Cl48092  -3.685   5.748   7.711 -0.0155  0.0257 -0.0850
  365MOL0     C48093  -2.742   5.520   7.823 -0.1185 -0.7120 -0.9197
  365MOL0     C48094  -2.610   5.528   7.782  0.0332  0.0230 -0.4493
  365MOL0     O48095  -2.470   5.567   7.521  0.2083 -0.7054 -0.4814
  365MOL0     C48096  -2.155   5.668   7.636 -0.6602 -1.0984 -0.6802
  365MOL0     C48097  -2.021   5.675   7.607 -0.5986  0.0794  0.1803
  365MOL0     N48098  -1.393   5.796   7.286 -0.2418  0.5059 -0.4597
  365MOL0     N48099  -1.270   5.800   7.332  0.1830 -0.9635  0.2277
  365MOL0     C48100  -0.108   5.993   7.099 -0.6499  0.3255 -0.7412
  365MOL0     C48101  -0.003   5.903   7.118  0.2196 -0.2610  0.2824
  365MOL0     C48102   0.325   5.638   7.256  0.6347  1.2409  0.7399
  365MOL0     C48103   0.334   5.670   7.392  0.6932  0.0787 -0.0554
  365MOL0     C48104   0.430   5.612   7.472 -0.3967  0.4278 -0.9069
  365MOL0     C48105   0.544   5.545   7.418 -0.0054 -0.9786  0.7331
  365MOL0     O48106   0.647   5.487   7.486 -0.4911  0.4353 -0.5940
  365MOL0     C48107   0.638   5.479   7.628 -0.1329  0.4386  0.0049
  365MOL0     C48108   0.775   5.439   7.689  0.1348 -0.0186  0.6083
  365MOL0     C48109   0.754   5.350   7.815  0.0128  0.4299 -0.2666
  365MOL0     C48110   0.890   5.288   7.851  0.0803  0.4403 -0.4630
  365MOL0     C48111   0.866   5.178   7.948  0.1660 -0.7270  0.2291
  365MOL0     C48112   0.824   5.097   8.023 -1.0338 -0.2883  0.5498
  365MOL0     C48113   0.538   5.515   7.281 -0.5989 -0.0426  0.7301
  365MOL0     C48114   0.433   5.563   7.200 -0.8129 -0.2763  0.1353
  365MOL0     H48115  -0.104   5.752   7.399 -2.4591  0.3248 -0.5840
  365MOL0     H48116  -0.284   5.902   7.378  1.7570 -2.2976  2.3384
  365MOL0     H48117  -0.498   6.135   7.241  1.6402  0.0280  2.3519
  365MOL0     H48118  -0.460   5.966   7.245  1.7141  1.7192  1.4606
  365MOL0     H48119  -0.469   5.920   7.032  0.4102  0.5679  3.1008
  365MOL0     H48120  -0.440   6.086   6.970 -0.5093  1.0062  0.1302
  365MOL0     H48121  -0.655   6.027   6.900  1.4461 -0.1027 -0.8081
  365MOL0     H48122  -0.658   6.154   7.022 -0.6308 -0.2971  1.2830
  365MOL0     H48123  -0.672   5.875   7.133 -1.3167 -0.9830 -0.2219
  365MOL0     H48124  -0.756   6.020   7.191 -0.6545 -1.1105  0.0329
  365MOL0     H48125  -0.830   5.824   6.972 -2.1179 -1.7237 -1.4407
  365MOL0     H48126  -0.900   5.976   6.976  2.3018  0.1730 -0.6738
  365MOL0     H48127  -1.061   5.883   7.083 -0.6213 -0.0850  0.4439
  365MOL0     H48128  -0.972   5.949   7.216 -2.0861  0.9955 -1.1711
  365MOL0     H48129  -0.955   5.652   7.118 -0.3308  1.0269 -0.5020
  365MOL0     H48130  -0.864   5.712   7.255  0.9705 -1.6861  0.8007
  365MOL0     H48131  -1.037   5.733   7.408 -2.1892 -0.3070  1.2779
  365MOL0     H48132  -1.042   5.588   7.344  1.6531  1.0646  2.4393
  365MOL0     H48133  -1.239   5.545   7.130 -0.0128 -0.5834  1.3741
  365MOL0     H48134  -1.505   5.520   7.113  0.7529 -1.0212  3.8558
  365MOL0     H48135  -1.554   5.678   7.044  2.2508 -2.6004 -3.0762
  365MOL0     H48136  -1.710   5.577   7.141  1.7021 -2.2494  0.8862
  365MOL0     H48137  -1.681   5.732   7.229  2.7955  1.7934 -1.3963
  365MOL0     H48138  -1.563   5.462   7.345 -0.3575 -1.6628  2.7654
  365MOL0     H48139  -1.570   5.619   7.412  0.2079 -1.0418  1.0679
  365MOL0     H48140  -1.721   5.439   7.492  2.9468  0.3693 -0.0796
  365MOL0     H48141  -1.812   5.447   7.338  0.7380 -0.9280  0.2044
  365MOL0     H48142  -2.039   5.429   7.368  0.2924 -0.1332  0.4950
  365MOL0     H48143  -2.260   5.459   7.384  1.7055 -1.1181 -2.1965
  365MOL0     H48144  -2.575   5.861   7.803  0.4025  0.5647  4.7588
  365MOL0     H48145  -2.822   5.835   7.874 -2.0471 -0.0996 -2.2493
  365MOL0     H48146  -3.098   5.547   8.010  1.1963 -0.5463  1.5897
  365MOL0     H48147  -2.946   5.458   7.996 -1.3843 -0.6932  0.2467
  365MOL0     H48148  -3.103   5.342   7.845  1.6605 -0.8894  0.0292
  365MOL0     H48149  -2.991   5.428   7.742 -1.0507 -1.7570 -1.1543
  365MOL0     H48150  -3.139   5.623   7.738 -1.8496 -0.2811  1.2662
  365MOL0     H48151  -3.269   5.529   7.808 -1.6094 -3.3099 -2.7371
  365MOL0     H48152  -3.111   5.453   7.558  1.7513  1.7926  1.3982
  365MOL0     H48153  -3.258   5.371   7.636 -1.4457  0.4602 -1.9639
  365MOL0     H48154  -3.328   5.480   7.451  1.1462  2.5143 -1.1720
  365MOL0     H48155  -3.260   5.636   7.481 -1.6506  2.4256  1.2446
  365MOL0     H48156  -3.442   5.669   7.669 -3.7649  2.0487 -2.0458
  365MOL0     H48157  -3.479   5.499   7.630 -0.9123  0.5552  0.8742
  365MOL0     H48158  -3.483   5.733   7.432 -1.4098 -0.2766 -2.2176
  365MOL0     H48159  -3.555   5.572   7.413  1.8389 -2.7054  1.3776
  365MOL0     H48160  -3.725   5.582   7.579 -1.1178  0.1259  0.6468
  365MOL0     H48161  -3.745   5.734   7.488 -1.2549  2.3820  2.1979
  365MOL0     H48162  -2.780   5.420   7.842  1.3528 -0.7547  2.5718
  365MOL0     H48163  -2.536   5.452   7.760  1.7278 -0.2219  4.6940
  365MOL0     H48164  -2.186   5.709   7.731  2.2374  1.0362 -0.5134
  365MOL0     H48165  -1.954   5.734   7.669  0.6099 -2.3147  1.2546
  365MOL0     H48166  -0.097   6.060   7.015  1.3294 -1.9895 -2.4425
  365MOL0     H48167   0.083   5.903   7.051  0.5748  0.8808  0.7166
  365MOL0     H48168   0.251   5.723   7.436 -0.3930  0.0405 -1.9434
  365MOL0     H48169   0.424   5.622   7.580  3.1250 -0.1108 -0.5479
  365MOL0     H48170   0.553   5.418   7.661  0.8197 -2.1668 -1.9461
  365MOL0     H48171   0.632   5.578   7.674  2.5744  1.2551 -1.1812
  365MOL0     H48172   0.816   5.370   7.615 -2.9962  1.3066 -2.6511
  365MOL0     H48173   0.837   5.529   7.695 -1.7466  1.2467  2.2286
  365MOL0     H48174   0.681   5.273   7.787  1.3272 -1.0160  0.1401
  365MOL0     H48175   0.713   5.390   7.908 -2.2602 -2.1658 -0.0019
  365MOL0     H48176   0.937   5.247   7.761 -3.0527 -4.5793 -0.2425
  365MOL0     H48177   0.949   5.370   7.891  0.4095 -0.0004 -0.0288
  365MOL0     H48178   0.772   5.037   8.095 -3.6600 -1.1010 -1.8262
  365MOL0     H48179   0.619   5.454   7.242  1.6860  3.1396  0.0838
  365MOL0     H48180   0.432   5.534   7.096 -3.2268 -0.0054  0.0190
  366MOL0     O48181   4.827   4.780   6.139  0.2716  0.3459 -0.4416
  366MOL0     C48182   4.785   4.833   6.034  0.4399 -0.2438  0.4160
  366MOL0     O48183   4.657   4.826   5.985 -0.2802 -0.2457 -0.2053
  366MOL0     C48184   4.558   4.751   6.031  0.6374  0.2465 -0.7658
  366MOL0     C48185   4.551   4.674   6.153 -0.3022 -0.3007  1.3629
  366MOL0     C48186   4.437   4.596   6.183  0.5932  0.2231 -0.3156
  366MOL0     C48187   4.317   4.613   6.106 -0.8718 -0.4439 -0.5548
  366MOL0     O48188   4.201   4.560   6.159  0.0323 -0.7373  0.3540
  366MOL0     C48189   4.085   4.571   6.079  0.7634  0.1628  0.2808
  366MOL0     C48190   3.967   4.508   6.174 -0.3441  0.2601  0.0831
  366MOL0     C48191   3.828   4.541   6.108  0.1001  0.3621  0.4730
  366MOL0     C48192   3.721   4.460   6.183 -0.0507 -0.7806  0.7403
  366MOL0     C48193   3.589   4.466   6.107 -0.3376  0.4776 -0.4784
  366MOL0     C48194   3.525   4.606   6.130 -0.3248 -1.1179 -0.7041
  366MOL0     C48195   3.483   4.620   6.268  1.0197 -0.3893 -1.1537
  366MOL0     C48196   3.349   4.693   6.280  0.7842 -0.4352 -0.2452
  366MOL0     N48197   3.229   4.610   6.246 -0.8131 -0.3109 -0.1080
  366MOL0     C48198   3.180   4.509   6.332 -1.0041  0.2507  0.4109
  366MOL0     C48199   3.073   4.465   6.266  0.1738 -0.4734 -1.0228
  366MOL0     C48200   2.974   4.365   6.319  0.3896 -0.1461 -0.2285
  366MOL0     C48201   2.819   4.396   6.291  0.9940  0.3788  0.1636
  366MOL0     C48202   2.781   4.523   6.365  0.0436 -0.2941 -0.0520
  366MOL0     C48203   2.659   4.601   6.309  0.8206  0.4057  1.0011
  366MOL0     O48204   2.545   4.527   6.355 -0.2512  0.2238 -0.0365
  366MOL0     C48205   2.422   4.564   6.314  0.4957 -0.0831 -0.6666
  366MOL0     C48206   2.382   4.648   6.211  0.9073 -0.3716  0.3517
  366MOL0     C48207   2.247   4.669   6.188 -0.2401 -0.7209 -0.2848
  366MOL0     C48208   2.144   4.604   6.262 -0.2117 -0.6023  0.7053
  366MOL0     C48209   2.006   4.648   6.255 -0.5291  0.6009  1.0159
  366MOL0     O48210   1.916   4.589   6.331 -0.5211  0.3992  0.5626
  366MOL0     C48211   1.781   4.621   6.324 -0.6693 -0.1476  0.9609
  366MOL0     C48212   1.733   4.669   6.445 -0.6197  0.1606  0.9016
  366MOL0     C48213   1.605   4.718   6.463 -0.4177 -0.1159  0.2760
  366MOL0     C48214   1.519   4.749   6.348 -0.8224  0.1331  0.5859
  366MOL0     O48215   1.403   4.814   6.362  0.4230 -0.0109  0.4397
  366MOL0     C48216   1.300   4.806   6.265  0.1893  1.0626 -0.0320
  366MOL0     C48217   1.167   4.816   6.329  0.2803 -0.4186 -0.5965
  366MOL0     C48218   1.130   4.712   6.439  0.3993 -0.0841 -0.0244
  366MOL0     C48219   1.002   4.750   6.511 -0.7029  0.3530  0.1942
  366MOL0     C48220   0.964   4.642   6.622 -0.0295 -0.0951  0.0568
  366MOL0     C48221   0.825   4.668   6.677 -0.3606 -0.1267 -0.2092
  366MOL0     C48222   0.709   4.609   6.597  0.0715 -0.8149 -0.0574
  366MOL0     C48223   0.577   4.654   6.652  0.3401 -0.1836  0.6383
  366MOL0    Cl48224   0.456   4.576   6.544 -0.0420 -0.1293  0.0265
  366MOL0     C48225   1.578   4.708   6.220  1.5187 -0.3250  0.2594
  366MOL0     C48226   1.700   4.641   6.202  0.1128  0.1558 -0.2619
  366MOL0     O48227   1.984   4.741   6.180 -0.2219 -0.3280 -0.2849
  366MOL0     C48228   2.184   4.509   6.353  0.0900  0.1228 -0.9602
  366MOL0     C48229   2.324   4.491   6.383  0.9081 -0.5977  0.9967
  366MOL0     N48230   3.065   4.527   6.142  0.3344 -0.6979  0.0430
  366MOL0     N48231   3.146   4.625   6.144 -0.3639 -0.2351  0.2658
  366MOL0     C48232   4.325   4.690   5.990 -0.5231 -0.7556 -0.3519
  366MOL0     C48233   4.442   4.766   5.959 -0.3958  0.1251  0.3494
  366MOL0     C48234   4.897   4.900   5.952  0.8051 -0.2944 -0.6046
  366MOL0     C48235   4.869   4.951   5.825 -0.7473  0.2779 -0.0706
  366MOL0     C48236   4.965   5.038   5.763 -0.4995 -0.0174 -0.5911
  366MOL0     C48237   5.095   5.062   5.822  0.1282  1.0723 -0.4085
  366MOL0     O48238   5.198   5.134   5.760 -0.5402  0.4359  0.1121
  366MOL0     C48239   5.265   5.233   5.833 -0.1179  1.4515  0.0752
  366MOL0     C48240   5.418   5.209   5.798  0.2793 -0.6115 -0.2307
  366MOL0     C48241   5.459   5.229   5.651 -0.0352 -0.9454 -0.1461
  366MOL0     C48242   5.456   5.377   5.606 -0.1554 -0.8382 -0.1979
  366MOL0     C48243   5.328   5.418   5.553  0.0997  0.4688  0.3063
  366MOL0     C48244   5.223   5.446   5.505 -0.6347 -0.8494  0.2025
  366MOL0     C48245   5.125   4.989   5.943 -0.1241 -0.0111  1.0375
  366MOL0     C48246   5.023   4.921   6.017  0.2979  0.1582  0.9020
  366MOL0     H48247   4.639   4.662   6.215  1.4154 -1.9732 -1.1955
  366MOL0     H48248   4.433   4.544   6.279 -1.8468 -0.9917 -0.9959
  366MOL0     H48249   4.088   4.513   5.985 -2.6207 -0.7129  0.5683
  366MOL0     H48250   4.070   4.675   6.051  4.6629  0.8970  0.4589
  366MOL0     H48251   3.987   4.544   6.275 -3.2856  1.2982  0.3822
  366MOL0     H48252   3.982   4.399   6.176  0.1724  0.3309  1.7129
  366MOL0     H48253   3.831   4.512   6.002  0.5512  2.7397 -0.2310
  366MOL0     H48254   3.812   4.649   6.102 -4.1187 -0.1714 -2.3107
  366MOL0     H48255   3.764   4.359   6.181  3.1043  0.4650 -0.1482
  366MOL0     H48256   3.716   4.488   6.288  0.5653 -3.6295  1.6212
  366MOL0     H48257   3.519   4.392   6.147  0.8827  1.4683  4.0510
  366MOL0     H48258   3.610   4.462   6.000  0.5639  0.0051 -0.2862
  366MOL0     H48259   3.437   4.604   6.066 -1.0494 -0.5043  0.2566
  366MOL0     H48260   3.578   4.690   6.085 -0.9809  0.1451  0.7866
  366MOL0     H48261   3.473   4.520   6.311 -0.4170  0.8420  1.6537
  366MOL0     H48262   3.558   4.680   6.321 -0.5533 -0.4073  1.2352
  366MOL0     H48263   3.348   4.788   6.226 -1.1196  1.7810  3.3329
  366MOL0     H48264   3.331   4.713   6.386 -1.9727 -0.9031 -0.5375
  366MOL0     H48265   3.212   4.495   6.435 -2.4173  2.1402  1.1673
  366MOL0     H48266   2.996   4.346   6.424  2.3068 -0.9921 -0.7470
  366MOL0     H48267   3.005   4.271   6.274  0.3934 -0.7369  0.9804
  366MOL0     H48268   2.759   4.310   6.321  1.0853  0.1477 -0.3152
  366MOL0     H48269   2.815   4.410   6.183 -0.1971  0.4329  0.2020
  366MOL0     H48270   2.773   4.501   6.472  2.9806 -1.2058  0.0878
  366MOL0     H48271   2.850   4.604   6.338 -0.2545 -0.7392 -2.4113
  366MOL0     H48272   2.666   4.585   6.201 -0.8559 -1.9764  1.1605
  366MOL0     H48273   2.650   4.708   6.328 -1.5618  0.5712 -0.5965
  366MOL0     H48274   2.460   4.704   6.162  0.5176  1.2196  1.4821
  366MOL0     H48275   2.221   4.752   6.123 -1.6261 -0.2992  0.7645
  366MOL0     H48276   1.797   4.668   6.532  1.6895  0.5973 -0.6781
  366MOL0     H48277   1.587   4.746   6.566 -1.8038 -2.6596  0.8140
  366MOL0     H48278   1.296   4.708   6.217 -2.6548 -0.5570  3.1225
  366MOL0     H48279   1.311   4.883   6.188 -1.2127 -0.3537 -1.7331
  366MOL0     H48280   1.089   4.778   6.263 -0.5710 -2.0253  1.2026
  366MOL0     H48281   1.158   4.921   6.359 -3.4184 -1.2834  2.1479
  366MOL0     H48282   1.220   4.715   6.501  0.9171 -0.7559 -0.7209
  366MOL0     H48283   1.122   4.614   6.391  1.7530 -0.1573 -0.1403
  366MOL0     H48284   1.034   4.840   6.565 -1.3278  0.8693 -0.2853
  366MOL0     H48285   0.920   4.777   6.445 -1.9064 -2.1284  0.5409
  366MOL0     H48286   1.036   4.651   6.704 -0.4628 -0.0313  0.4281
  366MOL0     H48287   0.965   4.537   6.589  3.0602 -0.2208  0.1942
  366MOL0     H48288   0.815   4.774   6.704 -3.3633 -0.4721  0.4261
  366MOL0     H48289   0.819   4.613   6.771  0.6430  1.9802  1.1543
  366MOL0     H48290   0.720   4.646   6.494 -0.2896  2.0229  0.8446
  366MOL0     H48291   0.709   4.500   6.600 -0.3394 -0.8260 -0.3023
  366MOL0     H48292   0.565   4.763   6.648 -1.7417 -0.3620  0.8973
  366MOL0     H48293   0.571   4.622   6.756 -1.5182 -2.7634 -0.1574
  366MOL0     H48294   1.513   4.725   6.135  0.9318 -1.5074  0.4555
  366MOL0     H48295   1.734   4.608   6.105  3.0013  0.0938  0.6623
  366MOL0     H48296   2.116   4.444   6.406  3.5031  0.0680  4.0198
  366MOL0     H48297   2.352   4.407   6.446  2.0401 -0.0544  1.2514
  366MOL0     H48298   4.250   4.691   5.911 -0.7947 -2.8561 -0.1839
  366MOL0     H48299   4.448   4.814   5.862 -3.1497 -0.4799 -0.1867
  366MOL0     H48300   4.767   4.946   5.788 -1.1293  0.9528  0.8448
  366MOL0     H48301   4.926   5.089   5.676 -1.0280 -0.1517 -0.4362
  366MOL0     H48302   5.246   5.224   5.940  1.1670 -0.6667  0.1764
  366MOL0     H48303   5.222   5.327   5.797  2.1239  2.9326  1.0489
  366MOL0     H48304   5.470   5.268   5.875 -0.6752 -1.0454  0.7633
  366MOL0     H48305   5.440   5.106   5.825  0.2464 -0.2177  1.4225
  366MOL0     H48306   5.393   5.170   5.587 -1.0619 -0.1716  0.1736
  366MOL0     H48307   5.563   5.199   5.636  0.6525  1.2147 -0.0275
  366MOL0     H48308   5.469   5.430   5.701 -1.2097 -1.4946  0.3311
  366MOL0     H48309   5.534   5.372   5.530 -0.3188 -1.6844 -0.3262
  366MOL0     H48310   5.134   5.479   5.454 -0.6566  0.2881  0.9418
  366MOL0     H48311   5.227   5.006   5.974  0.5545 -0.5331 -0.8168
  366MOL0     H48312   5.039   4.876   6.114 -2.7074 -0.4963  1.1909
  367MOL0     O48313   2.827   5.445   1.833 -0.1192 -0.8572  0.3574
  367MOL0     C48314   2.932   5.419   1.778  0.6046  0.9603 -0.2114
  367MOL0     O48315   2.938   5.356   1.664  0.2628 -0.2389  0.0413
  367MOL0     C48316   2.824   5.321   1.595 -0.1252  0.5150 -0.0708
  367MOL0     C48317   2.742   5.213   1.638 -0.7467  0.5056  0.0502
  367MOL0     C48318   2.638   5.177   1.555 -0.0495  0.1756 -0.3419
  367MOL0     C48319   2.611   5.250   1.433  0.2908  0.2926 -0.0089
  367MOL0     O48320   2.502   5.215   1.351 -0.3230  0.6173  0.2075
  367MOL0     C48321   2.378   5.214   1.424 -0.9382  0.1455 -0.1814
  367MOL0     C48322   2.264   5.295   1.363  0.1627  0.8181 -0.3459
  367MOL0     C48323   2.122   5.276   1.433  0.8934 -1.2096  0.5552
  367MOL0     C48324   2.020   5.387   1.389  0.0277 -0.1001 -0.0094
  367MOL0     C48325   1.875   5.344   1.408  0.7633 -0.1129 -0.7080
  367MOL0     C48326   1.846   5.225   1.323  0.4478  0.2935  0.2006
  367MOL0     C48327   1.693   5.208   1.290  0.3194  0.5394 -0.4867
  367MOL0     C48328   1.643   5.302   1.187  0.8749 -0.0893  0.2713
  367MOL0     N48329   1.496   5.318   1.184 -0.4554  0.1063  0.9537
  367MOL0     C48330   1.403   5.313   1.079 -0.6554  0.8994  0.7983
  367MOL0     C48331   1.285   5.342   1.124 -0.1650 -0.3024 -0.0531
  367MOL0     C48332   1.149   5.341   1.058  0.3664  1.6243  0.7766
  367MOL0     C48333   1.036   5.254   1.122 -0.2523 -0.4203  0.7519
  367MOL0     C48334   0.909   5.275   1.043  0.5756  1.0746 -0.1903
  367MOL0     C48335   0.799   5.181   1.094 -0.5124 -0.2816 -0.2550
  367MOL0     O48336   0.677   5.231   1.040 -0.5225  0.3738  0.3070
  367MOL0     C48337   0.562   5.157   1.058  1.2313 -0.6504 -0.2184
  367MOL0     C48338   0.441   5.226   1.043 -0.0649 -0.3084  1.0488
  367MOL0     C48339   0.316   5.176   1.081 -0.0131 -0.0114 -0.8159
  367MOL0     C48340   0.310   5.041   1.138 -0.4321 -0.3527 -0.6566
  367MOL0     C48341   0.190   4.979   1.172  1.0249  0.2849 -0.6868
  367MOL0     O48342   0.206   4.845   1.211 -0.8327 -0.2383 -0.0270
  367MOL0     C48343   0.091   4.783   1.259  0.1848  0.2801  0.1074
  367MOL0     C48344   0.091   4.728   1.388  0.3748 -0.1809 -0.3747
  367MOL0     C48345  -0.022   4.664   1.440 -0.5148  0.5754  0.2865
  367MOL0     C48346  -0.140   4.657   1.360  0.2115 -0.0692  0.3370
  367MOL0     O48347  -0.263   4.617   1.408  1.1669 -0.7152 -0.2338
  367MOL0     C48348  -0.267   4.527   1.518 -0.1240 -0.9509 -0.0347
  367MOL0     C48349  -0.396   4.457   1.541  0.4000 -1.1482 -0.2060
  367MOL0     C48350  -0.523   4.541   1.549 -0.5651 -0.0855  0.2965
  367MOL0     C48351  -0.642   4.465   1.574  0.2174  1.2423 -0.7991
  367MOL0     C48352  -0.779   4.526   1.573  0.6850  0.1239  0.6175
  367MOL0     C48353  -0.833   4.547   1.722  0.2613 -0.9184  0.5981
  367MOL0     C48354  -0.964   4.634   1.719 -0.8193 -0.1007  0.3768
  367MOL0     C48355  -1.043   4.608   1.842  0.5064 -0.4929  0.4088
  367MOL0    Cl48356  -0.955   4.620   1.996  0.3502 -0.5002 -0.2006
  367MOL0     C48357  -0.130   4.694   1.223  0.8362  0.8756 -0.5848
  367MOL0     C48358  -0.018   4.764   1.173  0.1491  0.9489 -0.7321
  367MOL0     O48359   0.086   5.043   1.169 -0.5705 -0.4376  0.4664
  367MOL0     C48360   0.428   4.972   1.152  0.0541 -0.2608  0.3755
  367MOL0     C48361   0.550   5.028   1.112 -0.3273 -0.5823  0.3881
  367MOL0     N48362   1.300   5.380   1.253 -0.4147  0.2240 -0.5759
  367MOL0     N48363   1.425   5.370   1.291  0.3005  0.5176 -0.3652
  367MOL0     C48364   2.687   5.361   1.400  0.3452  0.1406 -0.9333
  367MOL0     C48365   2.793   5.400   1.485 -0.1956  0.6520 -0.0793
  367MOL0     C48366   3.060   5.441   1.852 -0.7276  0.4014  0.6116
  367MOL0     C48367   3.066   5.475   1.988 -0.2170  0.1970  0.0667
  367MOL0     C48368   3.184   5.494   2.053  0.2449 -0.4798 -0.1827
  367MOL0     C48369   3.300   5.471   1.983 -0.2055 -0.5755  0.6136
  367MOL0     O48370   3.407   5.490   2.061 -0.4478  0.2300 -0.6151
  367MOL0     C48371   3.542   5.481   2.001  0.2852  0.5912  0.1387
  367MOL0     C48372   3.639   5.566   2.082  0.6295 -0.0741  0.3331
  367MOL0     C48373   3.774   5.553   2.016 -0.4007 -0.6028  0.0593
  367MOL0     C48374   3.800   5.628   1.882  0.3116 -0.0736  0.0398
  367MOL0     C48375   3.851   5.761   1.910  1.3924 -0.2493  0.3055
  367MOL0     C48376   3.899   5.875   1.929  0.1259  0.0832 -0.1685
  367MOL0     C48377   3.303   5.435   1.846 -0.6366  0.2615 -0.4874
  367MOL0     C48378   3.185   5.433   1.782  0.2495 -0.6902 -0.0950
  367MOL0     H48379   2.764   5.164   1.732 -0.3936  0.8799  0.1649
  367MOL0     H48380   2.575   5.103   1.604 -1.3784  1.4850 -0.0214
  367MOL0     H48381   2.399   5.248   1.526 -0.9455 -1.9518  0.5783
  367MOL0     H48382   2.356   5.107   1.436 -1.1121  0.0101 -1.5005
  367MOL0     H48383   2.252   5.250   1.263 -2.0260 -3.0966  1.4432
  367MOL0     H48384   2.299   5.398   1.373  0.8415  0.8482 -2.4803
  367MOL0     H48385   2.130   5.286   1.542 -0.4194  1.7777  0.4479
  367MOL0     H48386   2.082   5.178   1.405 -0.1603 -0.5798 -0.1832
  367MOL0     H48387   2.030   5.482   1.443 -1.0165  0.3878 -0.6528
  367MOL0     H48388   2.034   5.411   1.283  1.8092 -0.6842  0.0661
  367MOL0     H48389   1.797   5.419   1.389  0.9273  0.3933  0.5012
  367MOL0     H48390   1.870   5.323   1.515  2.7066 -2.0763 -0.9195
  367MOL0     H48391   1.876   5.131   1.370  0.1930 -0.1529 -0.5243
  367MOL0     H48392   1.900   5.231   1.228 -1.4390  1.6126 -0.8531
  367MOL0     H48393   1.660   5.107   1.264  1.4436  0.0015  0.1028
  367MOL0     H48394   1.642   5.229   1.384  1.4784  1.4329 -0.0346
  367MOL0     H48395   1.684   5.277   1.089  1.4098  1.9307 -0.0776
  367MOL0     H48396   1.675   5.402   1.218  0.6204 -0.4505  1.7647
  367MOL0     H48397   1.414   5.294   0.972  0.7221  4.6101  0.1264
  367MOL0     H48398   1.156   5.302   0.956 -3.2185 -2.5551  1.8430
  367MOL0     H48399   1.115   5.443   1.038  0.6681  1.3556 -1.2738
  367MOL0     H48400   1.015   5.301   1.219 -6.1774 -1.9699  0.6188
  367MOL0     H48401   1.063   5.148   1.135  0.6886 -0.3253 -0.2517
  367MOL0     H48402   0.882   5.378   1.065 -1.5105  0.2545  1.3826
  367MOL0     H48403   0.929   5.256   0.936 -0.7626 -4.1068  0.1851
  367MOL0     H48404   0.793   5.189   1.203  0.9941 -0.7423 -0.1208
  367MOL0     H48405   0.824   5.080   1.059  0.1218  0.7016 -2.9412
  367MOL0     H48406   0.461   5.319   0.991  0.5978 -0.8180  0.3627
  367MOL0     H48407   0.231   5.239   1.057 -0.9697 -0.7247  0.5491
  367MOL0     H48408   0.171   4.743   1.460 -1.6648  1.3003  1.7032
  367MOL0     H48409  -0.020   4.618   1.538 -2.0606 -0.2429 -0.0343
  367MOL0     H48410  -0.246   4.586   1.607  0.3364 -0.0634 -0.7129
  367MOL0     H48411  -0.189   4.450   1.508  0.0484 -0.7618 -0.1581
  367MOL0     H48412  -0.396   4.390   1.628 -2.2164 -0.0460  0.7250
  367MOL0     H48413  -0.407   4.379   1.465  1.6350 -1.0695 -0.4871
  367MOL0     H48414  -0.534   4.595   1.455 -0.9487  1.5166  1.2358
  367MOL0     H48415  -0.525   4.617   1.627  2.5868  2.5491 -1.9230
  367MOL0     H48416  -0.639   4.380   1.505  1.7764 -1.9752  2.9024
  367MOL0     H48417  -0.634   4.424   1.675 -1.0753  3.2971  0.2133
  367MOL0     H48418  -0.851   4.456   1.528 -0.0437  0.1254  1.7424
  367MOL0     H48419  -0.778   4.620   1.518 -1.5602 -0.0111  0.2368
  367MOL0     H48420  -0.757   4.607   1.774 -0.6910 -1.6198  2.9664
  367MOL0     H48421  -0.838   4.458   1.786  2.4761 -0.4057  1.5944
  367MOL0     H48422  -0.931   4.738   1.724  0.3942 -0.3443 -1.5760
  367MOL0     H48423  -1.025   4.617   1.630 -0.3927 -1.7350  0.3689
  367MOL0     H48424  -1.073   4.503   1.846 -1.3925  0.0307  0.9352
  367MOL0     H48425  -1.121   4.682   1.862  2.2846  1.2878  1.1037
  367MOL0     H48426  -0.219   4.664   1.168 -1.8051  0.7754  3.3043
  367MOL0     H48427  -0.020   4.801   1.072  1.7536  4.4382  0.3605
  367MOL0     H48428   0.431   4.874   1.199 -3.4077 -0.5135  0.3197
  367MOL0     H48429   0.643   4.974   1.126 -1.3124 -2.4337  0.0742
  367MOL0     H48430   2.653   5.429   1.322 -1.9535 -0.7160 -0.7636
  367MOL0     H48431   2.852   5.489   1.464  0.1336  0.0181 -2.1033
  367MOL0     H48432   2.977   5.482   2.051 -0.1296 -0.7517  0.3110
  367MOL0     H48433   3.180   5.521   2.158  0.8409  2.3468 -0.8243
  367MOL0     H48434   3.538   5.513   1.897  0.5269  1.1277  0.2903
  367MOL0     H48435   3.567   5.374   2.004 -2.5723 -0.1373  0.7594
  367MOL0     H48436   3.609   5.672   2.079  1.3938  0.2448  2.5960
  367MOL0     H48437   3.643   5.542   2.188 -1.4160  0.4053  0.5536
  367MOL0     H48438   3.797   5.447   2.001 -1.3232 -0.8162  0.0700
  367MOL0     H48439   3.857   5.591   2.076  1.0978 -0.9811 -1.6880
  367MOL0     H48440   3.875   5.575   1.824  2.0978  1.7552  0.5514
  367MOL0     H48441   3.716   5.620   1.813 -0.0263 -0.2108  0.4604
  367MOL0     H48442   3.964   5.957   1.952  0.5914 -0.7589  1.6548
  367MOL0     H48443   3.393   5.417   1.788 -0.4115  0.5949 -0.2458
  367MOL0     H48444   3.173   5.417   1.675  1.1998  2.4485 -0.7891
  368MOL0     O48445   2.466   8.514   9.544 -0.2265 -0.0646  0.1831
  368MOL0     C48446   2.527   8.608   9.596 -0.3996  0.8685  0.2788
  368MOL0     O48447   2.483   8.736   9.617 -0.0414 -0.2037  0.0279
  368MOL0     C48448   2.360   8.757   9.571  0.7891  0.0767  0.6958
  368MOL0     C48449   2.252   8.718   9.649 -0.2058 -0.3535 -0.6328
  368MOL0     C48450   2.120   8.742   9.608  0.6133  0.5900  0.2703
  368MOL0     C48451   2.090   8.800   9.483  0.3785 -0.1717 -0.0502
  368MOL0     O48452   1.953   8.817   9.444 -0.2633 -0.4893 -0.1205
  368MOL0     C48453   1.942   8.823   9.300  0.4971 -0.7016 -1.2665
  368MOL0     C48454   1.791   8.823   9.252 -0.2367 -0.3261 -0.2055
  368MOL0     C48455   1.733   8.681   9.271  1.1589 -0.4989 -0.3137
  368MOL0     C48456   1.584   8.692   9.220 -0.1753 -0.1641 -0.4107
  368MOL0     C48457   1.517   8.546   9.200  0.4274 -0.8873  0.4046
  368MOL0     C48458   1.388   8.562   9.128  0.8829  0.1156  0.0675
  368MOL0     C48459   1.295   8.441   9.136 -0.1626 -0.8815  0.3429
  368MOL0     C48460   1.223   8.442   9.267 -0.2221  0.6240 -0.4368
  368MOL0     N48461   1.118   8.335   9.266 -0.0348  0.5898  0.4344
  368MOL0     C48462   1.027   8.303   9.168 -0.4161 -0.3607 -1.5303
  368MOL0     C48463   0.955   8.200   9.215  0.3681  0.4491  0.3679
  368MOL0     C48464   0.823   8.144   9.159 -0.9093  0.0931 -0.4960
  368MOL0     C48465   0.704   8.218   9.212  0.1590  0.7132 -0.0995
  368MOL0     C48466   0.693   8.344   9.126  0.2480 -0.3755 -0.8139
  368MOL0     C48467   0.584   8.442   9.180 -0.4427  0.3439  0.2011
  368MOL0     O48468   0.555   8.529   9.073 -0.1815 -1.0149 -0.2651
  368MOL0     C48469   0.437   8.521   9.008  0.1461  0.2340 -0.2433
  368MOL0     C48470   0.368   8.400   9.007 -0.1550 -0.2492  0.6258
  368MOL0     C48471   0.263   8.387   8.916 -0.0098  0.2107 -1.1356
  368MOL0     C48472   0.215   8.497   8.841  0.2167 -0.2697 -0.7701
  368MOL0     C48473   0.101   8.493   8.763  0.4044 -0.0104 -0.4020
  368MOL0     O48474   0.041   8.617   8.732 -0.2118 -0.3075  1.4150
  368MOL0     C48475  -0.057   8.622   8.632  0.1097 -0.1257  0.8568
  368MOL0     C48476  -0.052   8.733   8.547 -0.8630 -0.7263  0.9074
  368MOL0     C48477  -0.139   8.753   8.445  0.6015  0.6965 -0.3231
  368MOL0     C48478  -0.230   8.645   8.411  0.4894 -0.0627 -0.5453
  368MOL0     O48479  -0.299   8.648   8.293  0.7377  0.0212  0.4462
  368MOL0     C48480  -0.331   8.782   8.239  1.5329  0.1288 -0.8366
  368MOL0     C48481  -0.440   8.764   8.121  0.2738 -0.7482  0.6329
  368MOL0     C48482  -0.453   8.896   8.048  0.0901  0.3643 -0.4931
  368MOL0     C48483  -0.566   8.900   7.942  0.5672 -0.3828  0.2648
  368MOL0     C48484  -0.710   8.922   7.996 -1.1568 -0.3522 -0.6823
  368MOL0     C48485  -0.815   8.916   7.892 -0.0696 -0.0192 -0.3598
  368MOL0     C48486  -0.873   8.782   7.867  0.5758  0.2970 -0.3416
  368MOL0     C48487  -0.986   8.740   7.960  0.2738  0.5005 -0.0877
  368MOL0    Cl48488  -1.070   8.597   7.915 -0.3929 -0.2152  0.2309
  368MOL0     C48489  -0.240   8.536   8.493 -0.6480  0.2422  0.8500
  368MOL0     C48490  -0.161   8.533   8.611  0.3652  0.1971  0.3938
  368MOL0     O48491   0.068   8.380   8.724 -0.3561 -0.1816  0.2705
  368MOL0     C48492   0.297   8.614   8.837 -0.3937 -0.3505 -1.2765
  368MOL0     C48493   0.401   8.628   8.930  0.9530 -0.7718  0.2308
  368MOL0     N48494   1.013   8.173   9.335  0.3865 -0.3023 -0.2750
  368MOL0     N48495   1.116   8.245   9.367 -0.2918  0.6592 -0.0518
  368MOL0     C48496   2.194   8.852   9.407 -0.1580 -0.9634  0.4304
  368MOL0     C48497   2.329   8.827   9.451 -0.6704  0.7536 -0.6210
  368MOL0     C48498   2.670   8.590   9.628  0.2961 -0.1923  0.4689
  368MOL0     C48499   2.722   8.466   9.637  0.3021  0.2343  0.0629
  368MOL0     C48500   2.859   8.452   9.670 -0.5196  0.1273 -0.1291
  368MOL0     C48501   2.934   8.565   9.699  0.1150 -0.2426  0.0103
  368MOL0     O48502   3.064   8.570   9.740  0.1841  0.6139  0.0499
  368MOL0     C48503   3.120   8.436   9.769 -0.6108 -0.7840 -1.2557
  368MOL0     C48504   3.254   8.451   9.850  0.4449 -0.0526  0.2634
  368MOL0     C48505   3.366   8.542   9.796 -0.6775 -0.0648  0.3658
  368MOL0     C48506   3.505   8.527   9.864 -0.0870 -0.5143  0.0287
  368MOL0     C48507   3.613   8.599   9.800 -0.4547  0.2978 -0.0280
  368MOL0     C48508   3.710   8.662   9.766  0.2127  0.0846 -0.5331
  368MOL0     C48509   2.882   8.689   9.681 -0.0347  0.3369  0.4758
  368MOL0     C48510   2.747   8.701   9.663  0.0827 -0.6292 -1.3586
  368MOL0     H48511   2.270   8.671   9.745  1.4111 -1.0099 -1.2316
  368MOL0     H48512   2.042   8.700   9.672 -0.2611  2.0662  0.2186
  368MOL0     H48513   1.998   8.735   9.265  0.9099 -1.0813  0.2700
  368MOL0     H48514   1.997   8.905   9.254  2.3888 -0.6432  0.8918
  368MOL0     H48515   1.788   8.840   9.144  2.0321 -0.4200 -0.3296
  368MOL0     H48516   1.726   8.881   9.317 -0.0672 -3.1792  2.7462
  368MOL0     H48517   1.741   8.651   9.375  2.6934 -3.3788 -1.1457
  368MOL0     H48518   1.788   8.606   9.214  2.2764  0.6411 -0.8084
  368MOL0     H48519   1.519   8.750   9.287  0.5251  0.9809 -0.7090
  368MOL0     H48520   1.579   8.745   9.125 -1.6922  2.0981  0.8232
  368MOL0     H48521   1.498   8.489   9.291 -2.1060  1.0463  1.2127
  368MOL0     H48522   1.579   8.499   9.123  1.7159  1.0750  0.1576
  368MOL0     H48523   1.410   8.561   9.021  1.9841 -1.5460  0.2656
  368MOL0     H48524   1.336   8.655   9.149 -0.5751 -0.1294 -2.1244
  368MOL0     H48525   1.230   8.446   9.048 -0.7744  2.3456  0.8571
  368MOL0     H48526   1.351   8.347   9.141 -3.7082 -3.2461 -0.2959
  368MOL0     H48527   1.172   8.538   9.273 -0.1179  0.8613 -2.6029
  368MOL0     H48528   1.293   8.431   9.351  1.4120  0.6395 -1.7416
  368MOL0     H48529   1.002   8.352   9.075  1.0781  0.0915 -1.7203
  368MOL0     H48530   0.826   8.042   9.199  4.3257  1.4054  3.7340
  368MOL0     H48531   0.841   8.130   9.052 -0.7384 -0.4200 -0.4052
  368MOL0     H48532   0.709   8.244   9.318 -2.8533 -0.7368  0.4802
  368MOL0     H48533   0.615   8.156   9.205  1.2536 -0.8142 -1.0519
  368MOL0     H48534   0.786   8.401   9.120  0.0163  0.1437  0.3131
  368MOL0     H48535   0.650   8.303   9.034  0.4025 -1.6778 -0.3214
  368MOL0     H48536   0.613   8.501   9.267 -1.0232  2.4533 -0.9793
  368MOL0     H48537   0.495   8.389   9.216 -1.2741 -0.4042 -2.7080
  368MOL0     H48538   0.401   8.302   9.040 -0.4247 -1.9162 -3.3792
  368MOL0     H48539   0.213   8.291   8.899  1.1234 -0.2271 -2.1003
  368MOL0     H48540   0.023   8.811   8.551 -3.0599  1.7444 -1.5005
  368MOL0     H48541  -0.121   8.841   8.384  0.8141  0.1926 -1.0061
  368MOL0     H48542  -0.243   8.835   8.200  0.9144  1.3006 -0.6659
  368MOL0     H48543  -0.374   8.847   8.315  5.1397  0.9415  0.7536
  368MOL0     H48544  -0.536   8.740   8.168 -0.1303 -0.5846 -0.0948
  368MOL0     H48545  -0.409   8.694   8.043 -0.0478  1.7965 -1.9447
  368MOL0     H48546  -0.353   8.915   8.009  1.0726 -1.2799  1.0988
  368MOL0     H48547  -0.476   8.970   8.125 -3.8386 -3.4028  2.4484
  368MOL0     H48548  -0.555   8.989   7.880  1.0144  0.2840  1.2925
  368MOL0     H48549  -0.560   8.812   7.876 -0.2765  0.5578 -1.1325
  368MOL0     H48550  -0.717   9.017   8.048 -2.2828 -1.2149  0.7982
  368MOL0     H48551  -0.739   8.847   8.070 -3.7146 -1.1070 -2.3073
  368MOL0     H48552  -0.767   8.960   7.804 -2.2268  1.6600 -0.7696
  368MOL0     H48553  -0.897   8.983   7.918  1.2074  1.5965 -0.3134
  368MOL0     H48554  -0.907   8.778   7.763 -0.5117 -1.7364  0.0573
  368MOL0     H48555  -0.796   8.705   7.876 -0.7346 -0.7825  2.6253
  368MOL0     H48556  -1.061   8.814   7.989  0.2693 -0.2863  2.0688
  368MOL0     H48557  -0.936   8.722   8.055 -0.4373  1.2235  0.4355
  368MOL0     H48558  -0.306   8.453   8.469 -2.5026  1.6654  0.7592
  368MOL0     H48559  -0.161   8.454   8.685  0.7381  0.0750  0.2670
  368MOL0     H48560   0.271   8.698   8.772 -2.8636 -1.1945 -1.4635
  368MOL0     H48561   0.457   8.720   8.919  2.3586 -1.6425 -0.1923
  368MOL0     H48562   2.194   8.918   9.321  1.9631 -0.9607  0.3674
  368MOL0     H48563   2.403   8.848   9.374  1.7659 -2.1857  0.6827
  368MOL0     H48564   2.673   8.370   9.626  1.4537 -0.3342 -0.2774
  368MOL0     H48565   2.902   8.353   9.667 -1.0332 -0.0890 -0.4468
  368MOL0     H48566   3.139   8.383   9.676  1.9805  0.2135 -1.3724
  368MOL0     H48567   3.052   8.379   9.834 -1.1099 -1.1964 -2.1298
  368MOL0     H48568   3.228   8.498   9.945  1.2561  0.0833  0.4199
  368MOL0     H48569   3.292   8.350   9.868 -0.6940 -0.9650 -2.0443
  368MOL0     H48570   3.328   8.644   9.800 -0.3972  0.0653 -0.1070
  368MOL0     H48571   3.382   8.511   9.692  0.2494 -2.0175  1.0297
  368MOL0     H48572   3.496   8.562   9.967 -0.5404 -0.0903 -0.1526
  368MOL0     H48573   3.541   8.424   9.878  0.3583 -0.3245  0.3053
  368MOL0     H48574   3.791   8.723   9.732  0.5925  0.8207  1.5202
  368MOL0     H48575   2.954   8.770   9.688  2.3434 -1.4828 -1.1490
  368MOL0     H48576   2.711   8.803   9.673 -1.0228 -1.1803  0.8002
  369MOL0     O48577   9.049   6.506   5.521  0.1821 -0.1058 -0.0747
  369MOL0     C48578   9.038   6.475   5.638 -0.3350 -1.0116  0.3038
  369MOL0     O48579   9.142   6.447   5.720 -0.1429  0.4201  0.0788
  369MOL0     C48580   9.270   6.435   5.671 -0.7648 -0.2514  1.0668
  369MOL0     C48581   9.338   6.315   5.628  0.1710 -0.9779  0.3985
  369MOL0     C48582   9.472   6.321   5.589  0.2711 -0.0190  0.0796
  369MOL0     C48583   9.554   6.439   5.601 -0.4953  0.9649 -0.3593
  369MOL0     O48584   9.684   6.432   5.558  0.0627  0.1489 -0.2716
  369MOL0     C48585   9.733   6.553   5.497 -0.0533  0.0973  0.9014
  369MOL0     C48586   9.853   6.536   5.401  0.4101 -0.1162 -0.3637
  369MOL0     C48587   9.973   6.520   5.489 -0.4791  0.7960  0.2856
  369MOL0     C48588  10.100   6.530   5.408  0.8979  0.8075 -0.7421
  369MOL0     C48589  10.226   6.488   5.471  0.2513 -0.7994 -0.6665
  369MOL0     C48590  10.279   6.599   5.562 -0.5306 -0.5602 -0.6846
  369MOL0     C48591  10.365   6.702   5.482 -0.2046  0.5947  0.4878
  369MOL0     C48592  10.500   6.657   5.426  0.2180  0.0681  0.4088
  369MOL0     N48593  10.583   6.770   5.387  0.5517  0.1539  0.0026
  369MOL0     C48594  10.580   6.818   5.262 -0.1768 -0.6248 -0.6295
  369MOL0     C48595  10.674   6.910   5.264 -0.5098  0.7323  0.6085
  369MOL0     C48596  10.716   7.011   5.152  1.1903  0.2813  0.0178
  369MOL0     C48597  10.616   7.120   5.123  0.0001  0.6432 -0.7221
  369MOL0     C48598  10.600   7.195   5.251  0.1090  0.6356  0.5706
  369MOL0     C48599  10.513   7.309   5.219 -0.4927 -0.0230 -0.3765
  369MOL0     O48600  10.442   7.356   5.335  0.2872  0.2790  0.2714
  369MOL0     C48601  10.340   7.274   5.383  0.4090  1.0487  0.4640
  369MOL0     C48602  10.291   7.150   5.323 -0.2006  0.7278  0.1462
  369MOL0     C48603  10.205   7.063   5.394 -0.1811  0.8037  0.4015
  369MOL0     C48604  10.146   7.092   5.519 -0.4117 -0.9017 -0.9182
  369MOL0     C48605  10.041   7.010   5.577 -0.2736  0.0549 -0.5791
  369MOL0     O48606  10.001   7.041   5.701  0.0834  0.6684  0.4288
  369MOL0     C48607   9.880   6.989   5.752 -0.6937 -0.4604  0.4770
  369MOL0     C48608   9.781   7.075   5.792 -0.0639 -0.2257 -0.5300
  369MOL0     C48609   9.657   7.019   5.836 -0.6095  0.6678 -0.0902
  369MOL0     C48610   9.641   6.878   5.841  0.1863  0.4015  0.3503
  369MOL0     O48611   9.520   6.831   5.885  0.3723 -0.3473 -0.4843
  369MOL0     C48612   9.541   6.788   6.018 -1.5567  0.5695 -0.6359
  369MOL0     C48613   9.427   6.696   6.057  0.5073  0.1861 -0.0031
  369MOL0     C48614   9.290   6.764   6.032 -1.3958  0.9053 -0.1259
  369MOL0     C48615   9.180   6.668   6.062  0.2382  0.8296 -0.0430
  369MOL0     C48616   9.037   6.720   6.043  0.0543 -0.5076 -0.0399
  369MOL0     C48617   9.022   6.806   5.911  0.1997  0.9696 -1.1223
  369MOL0     C48618   8.878   6.828   5.865  0.1912 -1.0925 -0.9600
  369MOL0     C48619   8.867   6.971   5.800 -0.0731  0.2727  0.0647
  369MOL0    Cl48620   8.691   7.017   5.765  0.0536 -0.1045  0.4076
  369MOL0     C48621   9.748   6.795   5.812 -0.0325 -0.7168 -0.5897
  369MOL0     C48622   9.870   6.853   5.770 -0.4362  0.9821 -0.2378
  369MOL0     O48623   9.989   6.927   5.501  0.0604  0.2443  0.2842
  369MOL0     C48624  10.195   7.209   5.576 -0.3315 -0.3534  0.3339
  369MOL0     C48625  10.290   7.293   5.512 -0.0856  0.2244 -0.3436
  369MOL0     N48626  10.732   6.906   5.390 -0.5181  0.2226 -0.8572
  369MOL0     N48627  10.681   6.823   5.468 -0.0589 -0.0047  0.1248
  369MOL0     C48628   9.493   6.561   5.646  0.6499  0.1401 -0.7084
  369MOL0     C48629   9.351   6.556   5.673  0.2403 -0.3704  0.3910
  369MOL0     C48630   8.903   6.454   5.690  0.2422  0.6667  0.5571
  369MOL0     C48631   8.793   6.511   5.611  0.4215  0.7656 -0.2506
  369MOL0     C48632   8.676   6.537   5.675 -0.2293  0.0513  0.7580
  369MOL0     C48633   8.644   6.478   5.806 -0.2139 -1.0686 -0.0307
  369MOL0     O48634   8.531   6.511   5.875 -0.7232  0.0949 -0.4898
  369MOL0     C48635   8.474   6.641   5.850 -0.4089 -0.2057 -0.9072
  369MOL0     C48636   8.368   6.686   5.948 -0.0517  0.4075 -1.1573
  369MOL0     C48637   8.231   6.617   5.934 -0.2030  0.3771  0.1916
  369MOL0     C48638   8.175   6.596   5.791 -0.5706 -0.0028 -0.8925
  369MOL0     C48639   8.036   6.544   5.794  0.3660  0.4002 -1.0538
  369MOL0     C48640   7.932   6.481   5.811  0.4219 -0.4211  0.1247
  369MOL0     C48641   8.749   6.418   5.879 -0.6478 -0.4320  0.6714
  369MOL0     C48642   8.875   6.401   5.814  0.3855 -0.0725  0.0328
  369MOL0     H48643   9.274   6.228   5.630 -1.8215  0.2751 -2.3420
  369MOL0     H48644   9.511   6.231   5.543  0.3414  0.2783 -0.4480
  369MOL0     H48645   9.760   6.629   5.571 -1.2578  1.7290 -0.2540
  369MOL0     H48646   9.652   6.599   5.440 -0.7925  1.5212  2.9684
  369MOL0     H48647   9.859   6.622   5.333  0.3314  1.8724  1.9845
  369MOL0     H48648   9.830   6.445   5.345 -0.1994 -0.4906  0.4834
  369MOL0     H48649   9.974   6.425   5.544 -0.3434  1.0311  0.6905
  369MOL0     H48650   9.974   6.604   5.558 -0.6362  1.8471 -0.9629
  369MOL0     H48651  10.093   6.489   5.306 -0.6624  1.6761 -1.0177
  369MOL0     H48652  10.105   6.636   5.381 -3.8842  0.9293 -2.1062
  369MOL0     H48653  10.295   6.465   5.389  0.2194  1.1483 -1.2931
  369MOL0     H48654  10.211   6.402   5.537  0.9895 -0.6327 -0.2727
  369MOL0     H48655  10.339   6.553   5.641  1.4068  0.5449 -1.4372
  369MOL0     H48656  10.197   6.645   5.618 -0.4907 -0.1906 -0.9219
  369MOL0     H48657  10.296   6.741   5.407 -1.5322 -1.2429  0.6816
  369MOL0     H48658  10.390   6.776   5.559  3.0686  0.1971 -0.0532
  369MOL0     H48659  10.477   6.599   5.336  5.0300  2.8454 -3.1119
  369MOL0     H48660  10.546   6.597   5.504  0.1688 -1.7865 -0.9315
  369MOL0     H48661  10.516   6.784   5.181 -0.7672 -2.2908  0.4676
  369MOL0     H48662  10.748   6.953   5.064  0.5948  2.4145 -1.6690
  369MOL0     H48663  10.810   7.060   5.180  0.0654  1.8397  1.1673
  369MOL0     H48664  10.524   7.072   5.088  0.4006 -2.4471  1.9831
  369MOL0     H48665  10.658   7.181   5.042 -0.4738  0.6648 -0.9591
  369MOL0     H48666  10.536   7.135   5.316 -1.8339  1.2385 -0.7295
  369MOL0     H48667  10.692   7.232   5.298  0.8865 -0.2992 -0.1835
  369MOL0     H48668  10.441   7.296   5.137 -0.5692 -0.0328 -0.3079
  369MOL0     H48669  10.575   7.389   5.178  0.3286 -0.8715 -0.8168
  369MOL0     H48670  10.330   7.122   5.226  1.0310  0.8212  0.5959
  369MOL0     H48671  10.169   6.979   5.336 -1.8570  0.6292  1.6069
  369MOL0     H48672   9.808   7.179   5.777  2.1063 -0.8328 -1.1040
  369MOL0     H48673   9.572   7.079   5.867 -1.8631 -2.0368  2.2487
  369MOL0     H48674   9.548   6.883   6.072  2.5468 -0.3202  0.7530
  369MOL0     H48675   9.634   6.732   6.033 -2.2010 -0.0902  1.2284
  369MOL0     H48676   9.428   6.663   6.161  0.6254 -2.2099 -0.7185
  369MOL0     H48677   9.441   6.608   5.994  1.1057 -0.8095  1.4523
  369MOL0     H48678   9.285   6.793   5.926  3.7865 -0.8647 -1.1580
  369MOL0     H48679   9.285   6.843   6.107  1.9229 -0.8751  2.2078
  369MOL0     H48680   9.194   6.582   5.995 -0.1514  0.3566  0.4811
  369MOL0     H48681   9.193   6.630   6.164 -1.4474  0.0932 -0.0695
  369MOL0     H48682   9.005   6.786   6.124 -2.6025 -2.1854  0.3958
  369MOL0     H48683   8.964   6.640   6.060 -2.3320  2.0657  3.3955
  369MOL0     H48684   9.072   6.756   5.827  1.9616 -0.6814  0.7990
  369MOL0     H48685   9.072   6.902   5.928 -1.9045  1.9294  0.0229
  369MOL0     H48686   8.844   6.756   5.790 -5.3690  0.3101 -0.2642
  369MOL0     H48687   8.814   6.821   5.954 -4.3445 -1.1555 -3.9039
  369MOL0     H48688   8.925   6.967   5.707 -1.5851 -3.3389 -0.9302
  369MOL0     H48689   8.904   7.042   5.874 -1.3604  0.3048  0.7048
  369MOL0     H48690   9.721   6.690   5.814  0.8060 -0.9327  0.1914
  369MOL0     H48691   9.957   6.791   5.751 -1.5362 -0.7038  0.0941
  369MOL0     H48692  10.160   7.246   5.672  0.6994  2.9695 -0.4592
  369MOL0     H48693  10.326   7.389   5.549 -0.2171  1.2161 -2.6265
  369MOL0     H48694   9.551   6.653   5.650 -0.1571  0.6690  2.9075
  369MOL0     H48695   9.311   6.653   5.701 -1.5100 -0.8648 -0.2498
  369MOL0     H48696   8.816   6.555   5.514  0.9095 -1.7861 -1.3957
  369MOL0     H48697   8.607   6.591   5.612  0.6040  1.1328  0.7323
  369MOL0     H48698   8.442   6.646   5.746  3.3895 -0.7693 -2.2633
  369MOL0     H48699   8.554   6.714   5.865 -0.8939  0.1955 -0.1637
  369MOL0     H48700   8.408   6.649   6.043 -1.6904  0.4479 -0.4192
  369MOL0     H48701   8.358   6.795   5.949 -1.9535  0.2783 -0.0141
  369MOL0     H48702   8.161   6.681   5.987 -0.6867 -1.3408  1.7506
  369MOL0     H48703   8.225   6.517   5.979 -0.5609 -0.4200 -1.5281
  369MOL0     H48704   8.179   6.689   5.733 -1.5928 -1.0234 -2.6867
  369MOL0     H48705   8.244   6.524   5.746 -1.0039  0.2471 -1.9872
  369MOL0     H48706   7.836   6.436   5.829  0.9834 -1.3834  0.7700
  369MOL0     H48707   8.728   6.374   5.976 -3.4377  0.5206  0.6107
  369MOL0     H48708   8.949   6.354   5.878  0.6575  0.7176  0.3118
  370MOL0     O48709   0.039   3.311   1.525 -0.1434 -0.2256 -0.0979
  370MOL0     C48710  -0.051   3.238   1.497  0.4834  0.3819 -0.5774
  370MOL0     O48711  -0.036   3.108   1.450  0.7151  0.2700  0.3876
  370MOL0     C48712   0.081   3.041   1.472  0.0826  0.9848 -0.2144
  370MOL0     C48713   0.088   2.906   1.498 -0.7172  0.8588  0.0491
  370MOL0     C48714   0.210   2.836   1.516 -0.0673  0.2996  0.4680
  370MOL0     C48715   0.339   2.894   1.496  0.8452  0.7611  0.0237
  370MOL0     O48716   0.457   2.828   1.496 -0.2124 -0.1656  0.4725
  370MOL0     C48717   0.511   2.822   1.623 -0.6540  0.0375  0.1260
  370MOL0     C48718   0.660   2.815   1.625 -1.0192 -0.3992  0.9180
  370MOL0     C48719   0.718   2.940   1.566  0.1753 -0.2733  0.2261
  370MOL0     C48720   0.852   2.971   1.626 -0.0462 -0.8967  0.6579
  370MOL0     C48721   0.924   3.084   1.557 -0.2178  0.3973  0.1965
  370MOL0     C48722   0.872   3.227   1.572 -0.5929 -0.6198  0.0267
  370MOL0     C48723   0.894   3.286   1.715  0.3408  0.5232 -0.3036
  370MOL0     C48724   0.849   3.427   1.747  0.2810  0.4533 -0.4259
  370MOL0     N48725   0.706   3.432   1.794 -0.4318  0.1989  0.2083
  370MOL0     C48726   0.602   3.359   1.744 -0.1190  0.0626 -0.5561
  370MOL0     C48727   0.489   3.407   1.810 -0.4641  0.6508 -0.4527
  370MOL0     C48728   0.342   3.368   1.762  0.6376  0.3490 -0.4931
  370MOL0     C48729   0.258   3.302   1.870  1.0229  0.2461  1.0709
  370MOL0     C48730   0.244   3.370   2.011  0.0021  0.5357 -0.1397
  370MOL0     C48731   0.175   3.511   1.984 -0.1618  0.3656 -0.3995
  370MOL0     O48732   0.033   3.507   1.958 -0.0664  0.2278  0.8077
  370MOL0     C48733  -0.060   3.487   2.058 -0.9205  0.4590 -0.7101
  370MOL0     C48734  -0.190   3.527   2.035  0.7020 -0.0595  0.2338
  370MOL0     C48735  -0.292   3.503   2.122 -0.1349  0.3434 -0.3228
  370MOL0     C48736  -0.260   3.453   2.254 -0.0692  0.7961 -0.5155
  370MOL0     C48737  -0.367   3.414   2.349  0.7991 -0.1786 -0.0250
  370MOL0     O48738  -0.331   3.375   2.472  0.6087  1.0544  0.7134
  370MOL0     C48739  -0.413   3.336   2.577 -0.8064 -0.4251  0.1983
  370MOL0     C48740  -0.366   3.354   2.705  0.0716 -0.1244  0.3748
  370MOL0     C48741  -0.445   3.336   2.815  1.3057  0.3211  0.3276
  370MOL0     C48742  -0.576   3.283   2.794 -0.3659  0.3791 -0.9955
  370MOL0     O48743  -0.638   3.264   2.915  0.0277  0.1706  0.1732
  370MOL0     C48744  -0.760   3.200   2.941  0.0782  0.3848  0.6057
  370MOL0     C48745  -0.888   3.267   2.886  0.7925 -0.8234  0.5116
  370MOL0     C48746  -1.016   3.174   2.908 -0.5520  0.4594  0.2162
  370MOL0     C48747  -1.151   3.236   2.860  0.2508  0.3167  0.3563
  370MOL0     C48748  -1.255   3.132   2.825  0.5005  0.4223 -0.2435
  370MOL0     C48749  -1.304   3.046   2.943 -0.2040 -0.1333 -0.6847
  370MOL0     C48750  -1.348   2.912   2.902  0.2499 -0.5482 -0.0639
  370MOL0     C48751  -1.404   2.818   3.012  0.3951  0.7625 -0.6262
  370MOL0    Cl48752  -1.326   2.814   3.173 -0.4622  0.0197  0.1874
  370MOL0     C48753  -0.622   3.255   2.669  0.7747 -0.0019  0.3238
  370MOL0     C48754  -0.538   3.280   2.557 -0.1321  0.3636  0.1876
  370MOL0     O48755  -0.482   3.422   2.309 -1.0447  0.1637 -0.5810
  370MOL0     C48756  -0.124   3.437   2.283 -0.7134 -0.0612 -0.5330
  370MOL0     C48757  -0.028   3.460   2.189  0.1099 -0.3108  0.4826
  370MOL0     N48758   0.538   3.500   1.908  0.4248 -0.1048  0.8786
  370MOL0     N48759   0.670   3.508   1.902 -0.0663 -0.8335  0.4899
  370MOL0     C48760   0.330   3.034   1.474 -0.6900  0.7198  0.2494
  370MOL0     C48761   0.212   3.102   1.466  0.2044 -0.1137  0.6891
  370MOL0     C48762  -0.181   3.304   1.521  0.2576  0.5608 -0.4393
  370MOL0     C48763  -0.199   3.432   1.564  0.5245 -0.0619 -0.2309
  370MOL0     C48764  -0.329   3.479   1.577 -0.1705  0.7707 -0.1959
  370MOL0     C48765  -0.441   3.403   1.539  0.0149  0.2655 -0.1856
  370MOL0     O48766  -0.562   3.475   1.544 -0.0576 -0.6119  0.4746
  370MOL0     C48767  -0.678   3.384   1.543  0.5105 -0.4448 -0.4493
  370MOL0     C48768  -0.803   3.458   1.582  0.2931 -0.5947  0.4294
  370MOL0     C48769  -0.851   3.552   1.471 -0.4601 -0.1654 -0.3591
  370MOL0     C48770  -0.983   3.614   1.513 -0.6160 -0.6495 -0.1684
  370MOL0     C48771  -1.051   3.674   1.395 -0.2413  0.2215  0.2646
  370MOL0     C48772  -1.106   3.737   1.315  0.4106  0.0306 -0.1787
  370MOL0     C48773  -0.423   3.271   1.494 -0.1608  0.0962 -0.7372
  370MOL0     C48774  -0.296   3.222   1.483 -0.3104 -0.5513  0.0542
  370MOL0     H48775   0.003   2.839   1.501 -0.3909  0.3400 -1.3727
  370MOL0     H48776   0.201   2.730   1.535 -3.1706  0.4801  0.4895
  370MOL0     H48777   0.479   2.726   1.666 -0.0472 -0.0138  0.4828
  370MOL0     H48778   0.480   2.899   1.694 -1.0196  0.3167 -0.3326
  370MOL0     H48779   0.695   2.726   1.571  2.3826 -0.6798  3.2452
  370MOL0     H48780   0.703   2.800   1.725 -0.6993 -0.8911  0.7133
  370MOL0     H48781   0.649   3.022   1.588  0.7923  0.0075  1.1471
  370MOL0     H48782   0.727   2.942   1.457 -2.0268  1.0246  0.0120
  370MOL0     H48783   0.839   3.007   1.729  0.6889 -1.6765  1.0398
  370MOL0     H48784   0.921   2.886   1.631  0.6717 -0.5574 -2.1438
  370MOL0     H48785   0.918   3.067   1.449  2.1886  0.4801 -0.0071
  370MOL0     H48786   1.032   3.081   1.575  0.5574 -1.2772 -3.8065
  370MOL0     H48787   0.764   3.221   1.551 -0.7275  1.7252 -0.2604
  370MOL0     H48788   0.919   3.296   1.501  0.9128  0.1095  1.6650
  370MOL0     H48789   0.835   3.229   1.786 -1.1820  3.8282  1.2928
  370MOL0     H48790   1.000   3.287   1.743 -0.1772  1.9307  1.8151
  370MOL0     H48791   0.855   3.486   1.655  0.4469  1.0987 -0.0066
  370MOL0     H48792   0.912   3.479   1.819  1.9516 -0.5479 -1.1064
  370MOL0     H48793   0.616   3.291   1.660  5.2433  0.7149 -0.5574
  370MOL0     H48794   0.343   3.310   1.669  1.1627 -1.0842  0.3924
  370MOL0     H48795   0.297   3.465   1.738  1.3179  0.5594 -0.9601
  370MOL0     H48796   0.301   3.203   1.884  2.3275  0.6721  0.2659
  370MOL0     H48797   0.161   3.303   1.820  0.4022  1.5650  2.2157
  370MOL0     H48798   0.182   3.311   2.079 -0.8261  1.0279 -0.4431
  370MOL0     H48799   0.339   3.391   2.061 -1.9798  0.8767  3.8544
  370MOL0     H48800   0.232   3.561   1.904 -0.9005  0.4877 -0.8611
  370MOL0     H48801   0.180   3.572   2.075 -1.3694  1.2676 -0.9064
  370MOL0     H48802  -0.217   3.565   1.937  0.4696  0.7124  0.5856
  370MOL0     H48803  -0.392   3.532   2.090 -1.6307 -1.6441  2.2421
  370MOL0     H48804  -0.270   3.402   2.722 -0.5637  0.7640  1.5732
  370MOL0     H48805  -0.403   3.353   2.913  1.8599  2.7092 -0.2522
  370MOL0     H48806  -0.760   3.183   3.049  4.6472  1.1946  0.9653
  370MOL0     H48807  -0.751   3.103   2.891  0.5035 -0.6317  2.5364
  370MOL0     H48808  -0.881   3.283   2.778  1.8301 -0.9356  0.5482
  370MOL0     H48809  -0.894   3.362   2.940 -4.0568 -2.3791  3.3621
  370MOL0     H48810  -1.013   3.120   3.003  0.4523 -0.6903 -0.4451
  370MOL0     H48811  -0.995   3.102   2.828  1.6242  1.7692 -0.4928
  370MOL0     H48812  -1.188   3.301   2.939  1.3255  0.6885  0.5644
  370MOL0     H48813  -1.124   3.292   2.770 -1.4056  1.5375  0.5736
  370MOL0     H48814  -1.201   3.062   2.760 -2.3219 -0.4619 -1.7839
  370MOL0     H48815  -1.349   3.163   2.779  0.0653 -0.7694 -0.2026
  370MOL0     H48816  -1.388   3.088   2.999 -1.0856 -2.1549 -0.3847
  370MOL0     H48817  -1.221   3.025   3.010  1.7998  1.5538 -2.5130
  370MOL0     H48818  -1.423   2.908   2.823  0.7440 -0.9616 -0.5242
  370MOL0     H48819  -1.262   2.859   2.860  1.0664 -0.3243  1.2678
  370MOL0     H48820  -1.417   2.724   2.958  0.7307  1.4685 -1.9738
  370MOL0     H48821  -1.511   2.837   3.031  0.2724 -0.4184 -0.0636
  370MOL0     H48822  -0.706   3.191   2.640  1.3450  0.6004 -3.1862
  370MOL0     H48823  -0.560   3.248   2.456 -2.4653 -2.2413  1.3620
  370MOL0     H48824  -0.078   3.395   2.372 -1.3289  0.8084  0.2171
  370MOL0     H48825   0.075   3.449   2.223  0.6780  0.4411 -0.9187
  370MOL0     H48826   0.428   3.079   1.465 -0.4023 -0.3085 -6.2747
  370MOL0     H48827   0.235   3.205   1.440  1.6651 -0.5656  0.0888
  370MOL0     H48828  -0.114   3.489   1.600  0.5570 -0.1893 -0.1063
  370MOL0     H48829  -0.342   3.575   1.627 -1.0474  0.1362  0.8452
  370MOL0     H48830  -0.659   3.317   1.628  0.2167 -0.6708 -0.5600
  370MOL0     H48831  -0.680   3.327   1.450 -1.2399 -1.4887  0.1748
  370MOL0     H48832  -0.879   3.381   1.596  0.0939 -0.4903 -0.0751
  370MOL0     H48833  -0.785   3.509   1.678  0.7407 -0.4605  0.2772
  370MOL0     H48834  -0.865   3.495   1.379  0.9403  0.8201 -1.2312
  370MOL0     H48835  -0.777   3.629   1.447 -1.4244 -0.0474 -3.3003
  370MOL0     H48836  -1.053   3.545   1.560 -0.2789 -0.4792  0.6164
  370MOL0     H48837  -0.952   3.698   1.577 -0.8190  0.0108 -0.9154
  370MOL0     H48838  -1.182   3.780   1.253 -0.4031 -1.3058 -0.1488
  370MOL0     H48839  -0.503   3.202   1.471 -2.2109  2.3697 -0.7678
  370MOL0     H48840  -0.279   3.120   1.451  0.4962 -1.6563  3.5872
  371MOL0     O48841   3.976   8.407   0.015  0.2781 -0.3120  0.2577
  371MOL0     C48842   3.923   8.458  -0.083  0.2039  0.1286 -0.1213
  371MOL0     O48843   3.999   8.512  -0.188 -0.3494 -0.4289  0.0846
  371MOL0     C48844   4.137   8.503  -0.185  0.2132  0.6577  0.2044
  371MOL0     C48845   4.208   8.601  -0.127 -0.1822 -0.4420  0.2589
  371MOL0     C48846   4.348   8.603  -0.124  0.2337 -0.2087 -0.2302
  371MOL0     C48847   4.422   8.493  -0.174 -1.0652  0.2984 -0.1708
  371MOL0     O48848   4.564   8.497  -0.182 -0.0919  0.0964 -0.2977
  371MOL0     C48849   4.624   8.483  -0.317 -0.0129 -0.7407  0.5331
  371MOL0     C48850   4.776   8.450  -0.311 -0.3730  0.4657  0.3023
  371MOL0     C48851   4.845   8.435  -0.450 -0.1329 -0.1187 -0.0067
  371MOL0     C48852   4.995   8.404  -0.444  0.3266 -0.1214  0.0336
  371MOL0     C48853   5.048   8.357  -0.587  0.5484  0.7099  0.1827
  371MOL0     C48854   5.158   8.250  -0.561 -0.2574 -0.5477  0.8523
  371MOL0     C48855   5.277   8.310  -0.473  0.8351 -0.7546  0.1587
  371MOL0     C48856   5.407   8.237  -0.455  0.5330  0.3424 -0.7137
  371MOL0     N48857   5.496   8.224  -0.574 -0.8479 -0.3150  0.5386
  371MOL0     C48858   5.623   8.288  -0.588  1.0848  0.9040 -0.6632
  371MOL0     C48859   5.680   8.232  -0.693 -0.2842 -0.3682 -0.0289
  371MOL0     C48860   5.820   8.270  -0.742 -0.7096 -0.5352 -0.8527
  371MOL0     C48861   5.925   8.236  -0.639  0.4341 -0.4369 -0.7775
  371MOL0     C48862   6.065   8.244  -0.685  1.2249  0.6249  0.3974
  371MOL0     C48863   6.168   8.205  -0.578  0.2234 -0.2487  0.0420
  371MOL0     O48864   6.140   8.080  -0.509  0.2787  0.0351 -0.0251
  371MOL0     C48865   6.235   8.001  -0.466 -0.0414  0.6070 -0.5694
  371MOL0     C48866   6.351   8.053  -0.398  0.3093 -0.1870  0.6198
  371MOL0     C48867   6.460   7.972  -0.370 -0.5476 -0.0446 -0.1513
  371MOL0     C48868   6.447   7.829  -0.379 -0.0958 -0.3191  0.2111
  371MOL0     C48869   6.547   7.721  -0.340  1.0297  0.2355 -0.3488
  371MOL0     O48870   6.661   7.765  -0.291 -0.4741 -0.4433  0.3084
  371MOL0     C48871   6.773   7.693  -0.257 -0.5242  0.1587 -0.9984
  371MOL0     C48872   6.813   7.564  -0.306  0.4914 -0.4782  0.3804
  371MOL0     C48873   6.940   7.518  -0.288 -0.4744 -0.3507 -0.8559
  371MOL0     C48874   7.046   7.577  -0.231  0.0686 -0.7179 -0.4338
  371MOL0     O48875   7.164   7.518  -0.242 -0.6548 -0.3559  0.2180
  371MOL0     C48876   7.235   7.513  -0.118  0.4792  0.2535 -0.4003
  371MOL0     C48877   7.311   7.385  -0.125  0.2187  0.1291  0.4323
  371MOL0     C48878   7.382   7.371   0.003  0.5436 -0.1624 -0.2879
  371MOL0     C48879   7.461   7.244  -0.000 -1.0621  0.2685  0.2076
  371MOL0     C48880   7.563   7.252   0.112  1.0815  0.9386 -0.4734
  371MOL0     C48881   7.665   7.141   0.098  0.2987 -0.1738 -0.3594
  371MOL0     C48882   7.605   6.997   0.115 -0.5655 -0.8367 -0.3667
  371MOL0     C48883   7.714   6.886   0.131  0.6578 -1.0507  0.6143
  371MOL0    Cl48884   7.811   6.870  -0.022 -0.3933 -0.3171 -0.0740
  371MOL0     C48885   7.006   7.705  -0.173  0.8352  0.1542 -0.2313
  371MOL0     C48886   6.880   7.761  -0.179 -0.0430 -0.0086  1.0989
  371MOL0     O48887   6.523   7.601  -0.356  0.7204 -0.2091  0.3653
  371MOL0     C48888   6.327   7.781  -0.430 -0.1927 -0.5825  1.4718
  371MOL0     C48889   6.221   7.863  -0.469  0.1345  0.1796 -1.0086
  371MOL0     N48890   5.593   8.133  -0.743 -0.1387 -0.5929 -0.3386
  371MOL0     N48891   5.489   8.140  -0.674 -0.2576 -0.0064  1.5309
  371MOL0     C48892   4.341   8.393  -0.243 -0.0563  0.0871 -1.2112
  371MOL0     C48893   4.201   8.391  -0.245  0.0150  0.7223 -0.4108
  371MOL0     C48894   3.780   8.465  -0.072 -0.4024 -1.4284  0.2065
  371MOL0     C48895   3.700   8.422   0.034 -0.2827  0.0578  0.2205
  371MOL0     C48896   3.567   8.418   0.039  0.5096 -0.0567 -0.6808
  371MOL0     C48897   3.492   8.464  -0.071  0.5335  1.0723  0.5458
  371MOL0     O48898   3.352   8.464  -0.079 -0.3896 -0.1525  0.1378
  371MOL0     C48899   3.270   8.392   0.020  0.0189  0.6161 -0.1536
  371MOL0     C48900   3.136   8.404  -0.042 -0.1113  0.5331  0.0045
  371MOL0     C48901   3.096   8.321  -0.165  0.3769 -0.1602 -0.4486
  371MOL0     C48902   2.946   8.281  -0.162 -0.2159 -0.1953  0.2854
  371MOL0     C48903   2.923   8.224  -0.293  0.6088 -0.6886  0.9235
  371MOL0     C48904   2.897   8.200  -0.411  0.0493 -0.0320  0.1434
  371MOL0     C48905   3.559   8.513  -0.181 -0.1477 -0.3608 -0.3467
  371MOL0     C48906   3.697   8.510  -0.182 -0.3441 -0.5371  0.0416
  371MOL0     H48907   4.151   8.686  -0.089  2.2638  0.4443  2.1997
  371MOL0     H48908   4.399   8.695  -0.096 -0.2177  0.2822 -0.9762
  371MOL0     H48909   4.595   8.570  -0.377  1.2385  2.4155  4.0831
  371MOL0     H48910   4.582   8.418  -0.394  2.3171  2.8167 -4.2853
  371MOL0     H48911   4.792   8.354  -0.261 -0.7862 -0.0704 -0.5715
  371MOL0     H48912   4.826   8.523  -0.247 -0.1203  0.2185  0.3867
  371MOL0     H48913   4.842   8.536  -0.491  0.0766  0.5841  1.6386
  371MOL0     H48914   4.786   8.360  -0.504 -0.1151 -2.7692  3.3152
  371MOL0     H48915   5.043   8.494  -0.405 -0.5231 -0.2066  1.3300
  371MOL0     H48916   5.013   8.322  -0.374  0.9046 -0.2712 -0.2802
  371MOL0     H48917   5.092   8.435  -0.651 -1.2613  0.4894 -1.4118
  371MOL0     H48918   4.969   8.320  -0.652  2.6565 -0.1103 -2.0393
  371MOL0     H48919   5.211   8.223  -0.653  1.2967  0.3287  1.4466
  371MOL0     H48920   5.126   8.155  -0.518 -1.4352 -0.1868  0.8074
  371MOL0     H48921   5.311   8.403  -0.519  3.9267 -2.4042 -1.1672
  371MOL0     H48922   5.241   8.333  -0.372  2.3070  0.2171  0.4955
  371MOL0     H48923   5.382   8.137  -0.418 -1.1684  1.7658  2.3342
  371MOL0     H48924   5.455   8.281  -0.367 -2.2258 -1.4676  1.9165
  371MOL0     H48925   5.661   8.367  -0.524 -2.7001  1.3700  1.3120
  371MOL0     H48926   5.814   8.376  -0.766  1.7715 -0.4123 -1.1646
  371MOL0     H48927   5.837   8.216  -0.836 -1.3088 -1.0922 -0.6526
  371MOL0     H48928   5.907   8.136  -0.601 -0.2579 -0.7897 -1.9668
  371MOL0     H48929   5.919   8.293  -0.545  1.7817 -1.2799 -0.1576
  371MOL0     H48930   6.074   8.174  -0.768  3.3859 -0.9599  1.8573
  371MOL0     H48931   6.094   8.345  -0.716  2.5392  0.9215  2.4176
  371MOL0     H48932   6.158   8.296  -0.518  0.5491 -0.3239  0.2170
  371MOL0     H48933   6.267   8.204  -0.624  0.2056  1.8106 -0.1193
  371MOL0     H48934   6.339   8.159  -0.380 -1.2643 -0.3886  0.9569
  371MOL0     H48935   6.549   8.013  -0.321 -0.0206 -1.1516 -0.1594
  371MOL0     H48936   6.745   7.496  -0.356  0.3771 -1.1166  1.3691
  371MOL0     H48937   6.965   7.418  -0.323 -0.3089  0.1394 -2.1856
  371MOL0     H48938   7.160   7.502  -0.039  1.3826 -2.4024  0.1878
  371MOL0     H48939   7.307   7.591  -0.093 -0.8668  1.5230 -0.3857
  371MOL0     H48940   7.367   7.371  -0.218  0.5606 -2.6031  0.9663
  371MOL0     H48941   7.237   7.304  -0.125  0.0518  0.2532  2.1394
  371MOL0     H48942   7.313   7.366   0.088  1.8363 -0.2586  0.8002
  371MOL0     H48943   7.442   7.458   0.032  1.3061 -1.3387  1.8872
  371MOL0     H48944   7.400   7.156   0.017  1.7690 -2.4430 -2.3837
  371MOL0     H48945   7.506   7.230  -0.099 -1.3532  0.8725 -0.0184
  371MOL0     H48946   7.509   7.248   0.208  1.1349 -0.4702 -0.4902
  371MOL0     H48947   7.617   7.348   0.108  0.8190  1.1269  0.2030
  371MOL0     H48948   7.735   7.174   0.174 -0.3179  2.1640 -0.7172
  371MOL0     H48949   7.714   7.150   0.000 -0.9048  0.6332 -0.9113
  371MOL0     H48950   7.554   6.997   0.212 -0.8186 -3.7246 -0.4146
  371MOL0     H48951   7.533   6.956   0.044 -0.2532 -0.5320 -0.8695
  371MOL0     H48952   7.670   6.788   0.155  1.9743 -1.7732  0.1567
  371MOL0     H48953   7.778   6.908   0.217  2.5188 -1.3075 -0.6511
  371MOL0     H48954   7.079   7.750  -0.106  3.8711 -3.4481 -0.7969
  371MOL0     H48955   6.876   7.852  -0.121  0.4680 -0.8769  2.5385
  371MOL0     H48956   6.313   7.674  -0.440  3.5225 -1.2384  1.9061
  371MOL0     H48957   6.128   7.816  -0.501 -0.2710  0.7232 -0.6564
  371MOL0     H48958   4.393   8.310  -0.290 -1.0316 -1.7269  0.7290
  371MOL0     H48959   4.146   8.305  -0.284  1.4259 -1.8540  2.8227
  371MOL0     H48960   3.748   8.393   0.127 -4.2474 -1.6061  1.9566
  371MOL0     H48961   3.526   8.360   0.121  2.0486 -0.6716 -0.3137
  371MOL0     H48962   3.269   8.438   0.119  0.9671  1.7315 -0.6358
  371MOL0     H48963   3.302   8.288   0.013 -2.4365 -0.1232 -2.8477
  371MOL0     H48964   3.073   8.357   0.034  0.5837  0.3167  0.4560
  371MOL0     H48965   3.099   8.506  -0.056 -2.5852 -0.4846 -1.4811
  371MOL0     H48966   3.152   8.227  -0.164  1.3532  0.3405  2.5329
  371MOL0     H48967   3.129   8.378  -0.251 -1.1460 -0.8740 -1.5594
  371MOL0     H48968   2.933   8.211  -0.079 -0.1004 -0.5415  0.0129
  371MOL0     H48969   2.880   8.367  -0.150  1.1235  0.9976 -0.5075
  371MOL0     H48970   2.872   8.192  -0.515 -0.5116  0.5230  0.2292
  371MOL0     H48971   3.507   8.544  -0.272 -1.7898  0.6531  0.8754
  371MOL0     H48972   3.752   8.542  -0.270 -0.1036  3.5895  1.5058
  372MOL0     O48973   4.637   8.510   8.325 -0.1418 -0.4454 -0.1629
  372MOL0     C48974   4.679   8.497   8.208 -0.3408 -0.8274 -0.2820
  372MOL0     O48975   4.603   8.530   8.096  0.4052 -0.0565 -0.7648
  372MOL0     C48976   4.482   8.597   8.104 -0.6104  0.0963  0.3203
  372MOL0     C48977   4.433   8.679   8.206 -0.2461  0.4205  0.0436
  372MOL0     C48978   4.317   8.743   8.190  0.7368  0.2997 -0.7089
  372MOL0     C48979   4.229   8.716   8.085  0.7124  0.1463  1.0598
  372MOL0     O48980   4.099   8.767   8.074 -0.5647 -0.5161  0.4987
  372MOL0     C48981   4.110   8.873   7.980 -0.1225  0.0571  0.4106
  372MOL0     C48982   3.966   8.911   7.960 -0.8463  0.2446 -0.3486
  372MOL0     C48983   3.902   8.811   7.871 -0.0082 -0.0667 -0.0585
  372MOL0     C48984   3.751   8.830   7.855  0.6281  0.0790  0.4977
  372MOL0     C48985   3.687   8.717   7.769  0.8124 -0.6039  0.3618
  372MOL0     C48986   3.534   8.761   7.742 -0.1168  0.3185 -0.1627
  372MOL0     C48987   3.480   8.637   7.674 -0.3343  0.1755 -0.0073
  372MOL0     C48988   3.329   8.652   7.630 -0.7546 -0.2437 -1.0607
  372MOL0     N48989   3.296   8.540   7.540 -0.4717 -0.0705 -0.1567
  372MOL0     C48990   3.215   8.538   7.430  0.4169 -0.5942  0.4532
  372MOL0     C48991   3.188   8.402   7.410  0.1803  0.4394 -0.5643
  372MOL0     C48992   3.127   8.330   7.299  0.6144 -0.0925  0.0920
  372MOL0     C48993   2.986   8.377   7.283 -0.2381 -0.2104 -0.2306
  372MOL0     C48994   2.886   8.328   7.383 -0.0927  0.1314  0.0201
  372MOL0     C48995   2.739   8.371   7.352 -0.2704 -0.2134 -0.3707
  372MOL0     O48996   2.707   8.326   7.223  0.1573  0.4894 -0.1543
  372MOL0     C48997   2.581   8.348   7.171  0.0243  0.5260 -0.9053
  372MOL0     C48998   2.472   8.400   7.243 -0.5657 -0.7685 -0.2547
  372MOL0     C48999   2.349   8.424   7.175  0.5205 -0.2802  0.7318
  372MOL0     C49000   2.324   8.382   7.041 -0.2963  0.5692 -0.3157
  372MOL0     C49001   2.190   8.386   6.987 -1.0138  1.0386 -0.7453
  372MOL0     O49002   2.187   8.422   6.852  0.2576 -0.2347 -0.5246
  372MOL0     C49003   2.076   8.427   6.768  0.5390  0.3600  0.2387
  372MOL0     C49004   1.943   8.431   6.807  0.2148 -0.2671  0.7314
  372MOL0     C49005   1.837   8.445   6.717  0.4095  0.1672 -0.5745
  372MOL0     C49006   1.859   8.430   6.583 -0.3736 -0.1418  0.8348
  372MOL0     O49007   1.768   8.457   6.491  0.0417 -0.0843  0.1461
  372MOL0     C49008   1.719   8.345   6.414 -0.3513 -0.1708  0.8538
  372MOL0     C49009   1.612   8.262   6.488 -1.1261  0.7150 -0.2586
  372MOL0     C49010   1.477   8.327   6.513 -0.1936 -0.4442  0.1481
  372MOL0     C49011   1.395   8.248   6.620  0.2956 -0.0724  0.7955
  372MOL0     C49012   1.353   8.111   6.565 -0.3925 -0.5895 -0.8036
  372MOL0     C49013   1.289   8.123   6.429  0.3854  0.0458 -0.1052
  372MOL0     C49014   1.225   7.989   6.388 -0.9005  0.4867  0.2170
  372MOL0     C49015   1.162   7.998   6.248 -0.7702 -0.0510  0.1806
  372MOL0    Cl49016   1.058   7.862   6.224  0.2303  0.0344 -0.2337
  372MOL0     C49017   1.995   8.420   6.539  0.0916  1.0514  0.2077
  372MOL0     C49018   2.098   8.412   6.626 -0.1285 -0.7454  0.7999
  372MOL0     O49019   2.095   8.357   7.057  0.6609  0.7646  1.0250
  372MOL0     C49020   2.438   8.335   6.971 -0.0230  0.0389  0.2567
  372MOL0     C49021   2.566   8.324   7.032 -0.4593  0.9616  0.6945
  372MOL0     N49022   3.256   8.333   7.508  0.9181  0.1322 -0.8627
  372MOL0     N49023   3.320   8.413   7.587  0.0690  0.1931  0.0660
  372MOL0     C49024   4.277   8.637   7.977 -0.3268  1.0976  0.0932
  372MOL0     C49025   4.402   8.585   7.990 -0.2538 -0.2718 -0.6860
  372MOL0     C49026   4.812   8.438   8.195 -0.9169  0.0297  0.5391
  372MOL0     C49027   4.887   8.463   8.081 -0.1544 -0.2860 -0.1647
  372MOL0     C49028   5.022   8.412   8.063  0.8197 -0.1883  0.1825
  372MOL0     C49029   5.072   8.326   8.155  0.0252  0.6511 -0.4430
  372MOL0     O49030   5.204   8.280   8.141  0.4883  0.3578 -0.8975
  372MOL0     C49031   5.300   8.263   8.248  0.5087  0.2426  0.1673
  372MOL0     C49032   5.442   8.262   8.175  0.3847  0.0477  0.0901
  372MOL0     C49033   5.544   8.214   8.274 -0.3453 -0.3167 -0.4009
  372MOL0     C49034   5.683   8.201   8.218 -0.5202  0.9788 -0.2238
  372MOL0     C49035   5.781   8.158   8.313  0.3338 -0.1038  0.0776
  372MOL0     C49036   5.871   8.142   8.391 -0.9326 -0.0227  0.2312
  372MOL0     C49037   4.988   8.287   8.255  0.2470 -0.4887 -0.9109
  372MOL0     C49038   4.867   8.345   8.280 -0.7030 -0.2669  0.2805
  372MOL0     H49039   4.493   8.693   8.295  2.7957 -3.3823 -1.1195
  372MOL0     H49040   4.282   8.794   8.279  0.7763 -1.9472  0.6812
  372MOL0     H49041   4.149   8.856   7.879  0.7652  0.3658  0.6925
  372MOL0     H49042   4.170   8.953   8.025 -0.2529 -0.3765  1.3847
  372MOL0     H49043   3.976   9.014   7.924  0.0699  0.9219  1.6770
  372MOL0     H49044   3.912   8.915   8.055 -0.6415  0.1451 -0.2279
  372MOL0     H49045   3.923   8.710   7.906 -0.2433 -0.3829 -0.8282
  372MOL0     H49046   3.951   8.824   7.774 -0.4640  1.1332 -0.1458
  372MOL0     H49047   3.718   8.816   7.958  1.5658  4.3919  1.5328
  372MOL0     H49048   3.737   8.933   7.822  0.3046  0.3695  1.5087
  372MOL0     H49049   3.679   8.619   7.816 -0.7977 -2.1077 -2.7431
  372MOL0     H49050   3.749   8.718   7.679 -0.9834 -0.3362 -0.9217
  372MOL0     H49051   3.532   8.851   7.680  0.3236 -0.5057 -1.4275
  372MOL0     H49052   3.471   8.778   7.830 -1.6908  2.1986 -1.5629
  372MOL0     H49053   3.531   8.620   7.579 -3.8795  0.1325 -2.0986
  372MOL0     H49054   3.493   8.551   7.741  0.1387  0.8495  0.7834
  372MOL0     H49055   3.319   8.747   7.577 -0.8432  0.8176  0.7834
  372MOL0     H49056   3.264   8.658   7.718 -0.2234 -2.8102 -0.4257
  372MOL0     H49057   3.183   8.622   7.369  1.8165 -2.0537 -2.4982
  372MOL0     H49058   3.114   8.222   7.303 -1.2565  0.0698 -0.7890
  372MOL0     H49059   3.191   8.337   7.211  1.2020 -1.5175  0.3778
  372MOL0     H49060   2.967   8.349   7.179  0.5997  0.4923 -0.5877
  372MOL0     H49061   2.987   8.486   7.288  2.8210 -0.1961  1.8778
  372MOL0     H49062   2.893   8.219   7.387  0.7736  0.1867  0.3712
  372MOL0     H49063   2.913   8.369   7.481  0.5792 -1.5090  0.5485
  372MOL0     H49064   2.730   8.480   7.359  1.1853 -0.1458  0.7880
  372MOL0     H49065   2.671   8.333   7.429  3.4914 -1.7991  2.4750
  372MOL0     H49066   2.487   8.409   7.350 -5.0376 -1.1275  0.6141
  372MOL0     H49067   2.271   8.465   7.239 -1.1683  2.4937 -2.7479
  372MOL0     H49068   1.916   8.408   6.909  4.1344  0.4793  2.1102
  372MOL0     H49069   1.737   8.460   6.755  1.3249 -0.0211  2.1894
  372MOL0     H49070   1.804   8.285   6.379  0.6490  1.7098 -0.0624
  372MOL0     H49071   1.680   8.386   6.320 -0.1565 -2.0748 -0.1200
  372MOL0     H49072   1.661   8.221   6.577  0.6969  0.8211 -1.1714
  372MOL0     H49073   1.592   8.171   6.430  0.6441 -0.2669  0.5809
  372MOL0     H49074   1.429   8.352   6.418  4.0728  1.0336 -1.8711
  372MOL0     H49075   1.498   8.427   6.553 -0.2616  0.3826 -1.7997
  372MOL0     H49076   1.450   8.238   6.714  1.2404  1.7192  0.4724
  372MOL0     H49077   1.302   8.301   6.641  0.0599  0.1585 -0.7783
  372MOL0     H49078   1.278   8.072   6.636 -2.4655  2.9920 -0.7671
  372MOL0     H49079   1.444   8.051   6.559  0.3189  0.5250 -1.2634
  372MOL0     H49080   1.364   8.149   6.354 -0.1967 -0.9745 -1.0762
  372MOL0     H49081   1.209   8.197   6.430  0.3280  0.0052 -1.1324
  372MOL0     H49082   1.292   7.904   6.393 -2.1236 -0.5720 -0.6448
  372MOL0     H49083   1.142   7.975   6.457 -1.5939  3.5256  0.1556
  372MOL0     H49084   1.240   8.020   6.175  1.4758  0.4652  2.5750
  372MOL0     H49085   1.101   8.088   6.248 -0.8609  0.2966  5.8466
  372MOL0     H49086   2.016   8.425   6.433 -0.6128  1.1426  0.0637
  372MOL0     H49087   2.198   8.414   6.583 -0.6826  4.0451 -0.9178
  372MOL0     H49088   2.429   8.308   6.867 -1.7343  0.6286  0.2206
  372MOL0     H49089   2.651   8.285   6.977 -0.3718 -0.8977  2.0392
  372MOL0     H49090   4.213   8.621   7.892 -1.7415 -2.4425  1.6021
  372MOL0     H49091   4.429   8.510   7.916  0.4005  0.9791 -1.7675
  372MOL0     H49092   4.846   8.536   8.012  0.0034  0.5078  0.5680
  372MOL0     H49093   5.083   8.445   7.980  1.9660  1.2762  1.5323
  372MOL0     H49094   5.280   8.181   8.317 -3.0404  2.1326  1.6732
  372MOL0     H49095   5.298   8.352   8.312 -0.5133  1.7098 -1.7670
  372MOL0     H49096   5.438   8.190   8.092  0.7455  0.4694 -0.3007
  372MOL0     H49097   5.482   8.355   8.132  1.1633 -0.7046 -0.8634
  372MOL0     H49098   5.525   8.113   8.311  3.1519 -1.2239 -0.8127
  372MOL0     H49099   5.552   8.286   8.357  2.1594  1.6553 -2.2122
  372MOL0     H49100   5.681   8.123   8.141 -1.6234  0.7136  0.0568
  372MOL0     H49101   5.721   8.297   8.181 -2.1450  1.2015 -1.4151
  372MOL0     H49102   5.943   8.127   8.469 -2.6684 -0.1929  1.8782
  372MOL0     H49103   5.027   8.202   8.310  2.3845  2.1462  2.0789
  372MOL0     H49104   4.795   8.324   8.359 -2.2862  0.3768 -0.9209
  373MOL0     O49105   0.085   9.004   1.784  0.1134  0.3362 -0.3728
  373MOL0     C49106   0.121   9.079   1.696 -0.8350  1.0310 -1.3665
  373MOL0     O49107   0.051   9.175   1.634  0.0480  1.4954 -0.1803
  373MOL0     C49108  -0.084   9.181   1.668 -0.4046  0.1303  0.3261
  373MOL0     C49109  -0.136   9.228   1.781 -0.1545  0.8418 -0.6233
  373MOL0     C49110  -0.274   9.232   1.795  0.2107 -0.3250 -0.6735
  373MOL0     C49111  -0.365   9.210   1.695 -0.1074  0.0799 -0.3273
  373MOL0     O49112  -0.502   9.232   1.715 -0.7448 -0.9438  0.2725
  373MOL0     C49113  -0.581   9.267   1.602  0.0444  0.2024  0.4089
  373MOL0     C49114  -0.726   9.265   1.653 -0.1920  0.5723  0.9601
  373MOL0     C49115  -0.823   9.210   1.547  0.6011  0.0727  0.2111
  373MOL0     C49116  -0.832   9.312   1.432 -0.6607 -1.1279  0.1149
  373MOL0     C49117  -0.904   9.261   1.308 -0.7814 -0.9022 -0.4492
  373MOL0     C49118  -0.851   9.337   1.182 -0.0649 -0.0885 -0.3586
  373MOL0     C49119  -0.923   9.315   1.054 -0.4017 -0.3371 -1.0495
  373MOL0     C49120  -0.934   9.170   1.011 -0.4470 -0.5289 -0.4606
  373MOL0     N49121  -0.971   9.142   0.875  0.0297 -0.1304  0.5756
  373MOL0     C49122  -0.931   9.216   0.770 -0.0247 -0.8723 -0.1488
  373MOL0     C49123  -0.992   9.172   0.660 -0.0962  0.2665  0.3499
  373MOL0     C49124  -0.955   9.204   0.526  0.4101 -0.0847 -0.0482
  373MOL0     C49125  -0.861   9.099   0.465 -0.1799 -0.5187 -0.9384
  373MOL0     C49126  -0.826   9.140   0.319 -0.8324  0.1949 -0.2524
  373MOL0     C49127  -0.702   9.060   0.278  0.6014 -1.7334 -0.0547
  373MOL0     O49128  -0.708   8.923   0.317 -0.2847  0.1591  0.3933
  373MOL0     C49129  -0.802   8.840   0.258 -0.5128  0.2168  0.2628
  373MOL0     C49130  -0.810   8.711   0.312 -0.0361 -0.3743 -0.1145
  373MOL0     C49131  -0.904   8.622   0.274  0.7468 -0.8371  0.4514
  373MOL0     C49132  -0.995   8.659   0.178 -0.1273  0.1372 -0.5915
  373MOL0     C49133  -1.091   8.554   0.133  0.0276  0.5245  0.4122
  373MOL0     O49134  -1.196   8.599   0.068 -0.7164  0.7846  0.2166
  373MOL0     C49135  -1.295   8.511   0.040 -0.4094 -0.2159  0.4475
  373MOL0     C49136  -1.306   8.471  -0.098  0.0796 -0.2159  0.4465
  373MOL0     C49137  -1.411   8.388  -0.140  0.1288 -0.7498  0.5083
  373MOL0     C49138  -1.508   8.346  -0.050  0.3606 -1.6159 -0.4391
  373MOL0     O49139  -1.622   8.274  -0.071 -0.6476  0.1044  0.1903
  373MOL0     C49140  -1.668   8.280  -0.208  0.4084  0.4317 -0.2902
  373MOL0     C49141  -1.814   8.225  -0.211  0.7591  0.0446 -0.3950
  373MOL0     C49142  -1.883   8.267  -0.339  0.0898 -0.3139  0.2082
  373MOL0     C49143  -2.000   8.180  -0.380 -0.4481  0.6097 -0.1736
  373MOL0     C49144  -2.091   8.244  -0.489  0.7585  0.3725 -0.6718
  373MOL0     C49145  -2.215   8.168  -0.520 -0.6625  0.2767  1.5405
  373MOL0     C49146  -2.279   8.213  -0.657  0.2518 -0.0496 -0.0691
  373MOL0     C49147  -2.419   8.161  -0.685 -0.4718  0.1802  0.2257
  373MOL0    Cl49148  -2.437   7.988  -0.620  0.3596 -0.0852 -0.0065
  373MOL0     C49149  -1.486   8.378   0.089 -0.2029 -0.4295  0.1648
  373MOL0     C49150  -1.385   8.465   0.134  0.2787 -0.2158 -0.0908
  373MOL0     O49151  -1.068   8.434   0.161 -0.2702  0.1522 -0.0816
  373MOL0     C49152  -0.979   8.783   0.103  0.3353 -0.2684 -0.4886
  373MOL0     C49153  -0.877   8.873   0.147  0.3208  0.3123  0.5640
  373MOL0     N49154  -1.092   9.076   0.697 -0.8932 -0.1481 -0.5766
  373MOL0     N49155  -1.075   9.054   0.829 -0.2015 -0.3905  0.5966
  373MOL0     C49156  -0.310   9.148   1.584 -0.2048 -0.7933 -0.3832
  373MOL0     C49157  -0.169   9.126   1.569  0.4297  0.6496  1.1791
  373MOL0     C49158   0.258   9.059   1.650 -2.1764 -0.5438  0.7488
  373MOL0     C49159   0.343   8.954   1.687 -0.0899 -0.7742 -0.5549
  373MOL0     C49160   0.476   8.950   1.643  0.3329 -0.1776 -0.7024
  373MOL0     C49161   0.534   9.048   1.554 -0.0173 -0.2855 -0.5142
  373MOL0     O49162   0.668   9.066   1.537 -0.6072 -0.6767  0.6462
  373MOL0     C49163   0.736   9.145   1.648  0.2887  0.9052 -0.0410
  373MOL0     C49164   0.886   9.122   1.616  0.3765  0.5000  0.1843
  373MOL0     C49165   0.942   8.980   1.657  0.3920 -1.1065 -0.1895
  373MOL0     C49166   1.093   8.987   1.671  0.3515  0.8221 -0.1190
  373MOL0     C49167   1.128   9.048   1.798  0.6570 -0.2247  0.6678
  373MOL0     C49168   1.164   9.089   1.908  0.1085  0.2225 -0.2277
  373MOL0     C49169   0.447   9.145   1.518  0.4236  0.1743  0.4919
  373MOL0     C49170   0.318   9.145   1.561  0.1131 -0.1353  0.5860
  373MOL0     H49171  -0.080   9.263   1.867 -0.8447  1.8311 -0.5548
  373MOL0     H49172  -0.313   9.261   1.892  0.2661  0.2555 -0.8214
  373MOL0     H49173  -0.566   9.191   1.525  1.8102 -1.1760  2.0070
  373MOL0     H49174  -0.552   9.363   1.557  0.9189  0.9892  2.5231
  373MOL0     H49175  -0.762   9.361   1.690 -3.2012 -0.5885  1.3270
  373MOL0     H49176  -0.737   9.197   1.738  0.9766  0.7601  1.2721
  373MOL0     H49177  -0.923   9.201   1.590  1.0885  0.1506  1.3824
  373MOL0     H49178  -0.784   9.115   1.510  2.7288  0.1752  2.0074
  373MOL0     H49179  -0.879   9.407   1.460  2.8854  1.4396 -1.8305
  373MOL0     H49180  -0.730   9.339   1.406 -0.8170 -0.4787  0.1495
  373MOL0     H49181  -1.012   9.277   1.310 -0.4318  1.9172  0.1784
  373MOL0     H49182  -0.882   9.156   1.291  1.6325 -1.0786  2.7617
  373MOL0     H49183  -0.745   9.320   1.164 -0.2248  0.1666 -1.6570
  373MOL0     H49184  -0.858   9.445   1.199  0.7430 -0.2904  1.4860
  373MOL0     H49185  -1.022   9.362   1.053 -0.0999  0.3172 -0.5576
  373MOL0     H49186  -0.855   9.371   0.989  2.9045  1.4293  3.4366
  373MOL0     H49187  -1.009   9.123   1.075 -5.0067  2.1789 -3.3256
  373MOL0     H49188  -0.833   9.132   1.030  0.7871  3.2403  1.6295
  373MOL0     H49189  -0.857   9.295   0.771 -0.9137  0.0959 -2.4404
  373MOL0     H49190  -0.901   9.299   0.520  1.5389 -0.5496  1.6939
  373MOL0     H49191  -1.051   9.203   0.473  0.2262 -0.8216  0.2865
  373MOL0     H49192  -0.895   8.995   0.470  0.8086 -0.8140  0.5825
  373MOL0     H49193  -0.774   9.097   0.532 -1.0948 -0.6325  0.2866
  373MOL0     H49194  -0.913   9.124   0.255 -2.8373  0.5959  2.2066
  373MOL0     H49195  -0.799   9.244   0.298 -0.3389 -0.2647 -2.1252
  373MOL0     H49196  -0.626   9.111   0.338  1.3502 -1.4254 -1.2442
  373MOL0     H49197  -0.662   9.079   0.178  0.6423  2.9076  0.6601
  373MOL0     H49198  -0.736   8.681   0.386  0.3657 -0.2434 -0.4589
  373MOL0     H49199  -0.907   8.523   0.319 -1.5473 -2.0328 -2.0155
  373MOL0     H49200  -1.249   8.511  -0.181  2.6128 -3.0942  0.6201
  373MOL0     H49201  -1.428   8.371  -0.246 -1.2342 -2.5929  0.9538
  373MOL0     H49202  -1.607   8.218  -0.274 -4.3776 -2.0571 -2.8471
  373MOL0     H49203  -1.669   8.386  -0.235 -0.9661  0.2811 -0.8898
  373MOL0     H49204  -1.874   8.281  -0.138  0.9198  2.1342 -1.7577
  373MOL0     H49205  -1.822   8.118  -0.192  3.3374  0.0041  0.9209
  373MOL0     H49206  -1.812   8.268  -0.422 -1.3059 -0.9557 -1.0100
  373MOL0     H49207  -1.926   8.366  -0.318 -2.9500 -1.4086 -0.3944
  373MOL0     H49208  -1.961   8.084  -0.412 -0.9099  0.4080 -0.1390
  373MOL0     H49209  -2.064   8.152  -0.296 -0.9489 -5.7223 -2.1786
  373MOL0     H49210  -2.033   8.262  -0.581  1.1281  2.5853 -0.0668
  373MOL0     H49211  -2.129   8.340  -0.453 -2.0287  0.3104 -3.0901
  373MOL0     H49212  -2.281   8.175  -0.433 -2.1428 -0.4145  0.5123
  373MOL0     H49213  -2.183   8.064  -0.536  1.0071  1.1089 -1.3001
  373MOL0     H49214  -2.288   8.322  -0.665 -3.0479 -0.2470 -0.5095
  373MOL0     H49215  -2.214   8.176  -0.736 -0.1075 -2.5480  0.7089
  373MOL0     H49216  -2.448   8.174  -0.789 -2.2446  1.7441  0.8469
  373MOL0     H49217  -2.494   8.216  -0.626  0.7236  2.0190  0.1107
  373MOL0     H49218  -1.549   8.312   0.147  1.3847 -2.2634 -0.1190
  373MOL0     H49219  -1.387   8.489   0.239  0.6875 -5.4389  1.3915
  373MOL0     H49220  -1.051   8.822   0.032 -0.1342 -0.6501 -0.2338
  373MOL0     H49221  -0.874   8.967   0.094 -2.0802 -0.0641 -0.3746
  373MOL0     H49222  -0.368   9.125   1.496 -0.0080 -0.1957 -0.6767
  373MOL0     H49223  -0.132   9.061   1.491 -1.1353  0.8546  0.2176
  373MOL0     H49224   0.318   8.869   1.748 -1.1207 -1.7067 -2.2020
  373MOL0     H49225   0.542   8.869   1.671  1.3546  0.3578 -1.4852
  373MOL0     H49226   0.712   9.096   1.743  2.2118 -1.2920 -0.5989
  373MOL0     H49227   0.711   9.250   1.666 -0.7523  0.3739  1.9361
  373MOL0     H49228   0.903   9.129   1.508 -0.5485 -2.2769 -0.2298
  373MOL0     H49229   0.936   9.192   1.683 -3.0298  1.0257  2.4400
  373MOL0     H49230   0.912   8.917   1.572  0.8197  0.1671 -1.3156
  373MOL0     H49231   0.887   8.934   1.740 -0.2556  0.5052  0.3032
  373MOL0     H49232   1.127   8.884   1.677 -0.2369  0.6459  0.3189
  373MOL0     H49233   1.139   9.032   1.582  1.2187 -2.6118 -1.5650
  373MOL0     H49234   1.192   9.137   2.000  0.3795  0.2613 -0.3300
  373MOL0     H49235   0.477   9.229   1.456  0.2610 -1.2688 -1.6279
  373MOL0     H49236   0.256   9.225   1.520  0.8659 -0.3792 -1.0666
  374MOL0     O49237   3.866   3.561   6.413  0.3606  0.0173  0.4501
  374MOL0     C49238   3.858   3.629   6.313 -0.3617 -0.5781  1.3939
  374MOL0     O49239   3.921   3.751   6.288  0.4533 -0.6046  0.7734
  374MOL0     C49240   4.013   3.786   6.390  0.3387  0.0098  0.2210
  374MOL0     C49241   4.144   3.742   6.374  0.3153  0.6556 -0.9126
  374MOL0     C49242   4.239   3.794   6.465 -0.4832  0.5830  0.4445
  374MOL0     C49243   4.207   3.876   6.568 -0.5751 -0.0218  0.0028
  374MOL0     O49244   4.302   3.910   6.655  0.1688  0.1220  0.0006
  374MOL0     C49245   4.367   4.026   6.606  0.2174 -0.8709  0.1099
  374MOL0     C49246   4.442   4.104   6.719 -0.0670  0.5240 -1.0191
  374MOL0     C49247   4.501   4.235   6.663 -0.5377  0.0311  0.3352
  374MOL0     C49248   4.603   4.230   6.547  0.1506 -0.0848 -0.5374
  374MOL0     C49249   4.645   4.371   6.506 -0.2097  0.4846  0.0384
  374MOL0     C49250   4.708   4.447   6.616  0.4866  0.0270  0.3598
  374MOL0     C49251   4.777   4.584   6.572  0.5794  0.0595 -0.1382
  374MOL0     C49252   4.893   4.572   6.473  0.6327 -0.6669  0.2186
  374MOL0     N49253   4.986   4.687   6.478  1.0030 -0.6992 -0.4229
  374MOL0     C49254   4.961   4.819   6.443 -0.0027  0.7825 -0.9213
  374MOL0     C49255   5.058   4.890   6.493  0.1709 -0.2808 -0.3506
  374MOL0     C49256   5.083   5.038   6.490 -0.3672 -0.2372 -0.0128
  374MOL0     C49257   5.097   5.109   6.360 -0.4200  0.3643  0.1782
  374MOL0     C49258   5.134   5.252   6.385 -0.4476 -0.5471 -0.5106
  374MOL0     C49259   5.172   5.336   6.251  0.4356  0.4327  0.5929
  374MOL0     O49260   5.077   5.315   6.147  0.0073  0.3897 -0.5288
  374MOL0     C49261   4.951   5.360   6.156 -0.5051  0.0540 -1.5539
  374MOL0     C49262   4.897   5.435   6.259  0.7656  0.0916 -0.4016
  374MOL0     C49263   4.756   5.464   6.262  0.1378 -0.4129  0.1437
  374MOL0     C49264   4.674   5.403   6.154 -0.6727  0.3394 -0.1600
  374MOL0     C49265   4.527   5.406   6.156 -0.3273 -0.0727  0.1974
  374MOL0     O49266   4.466   5.436   6.281  0.2824 -0.0846  0.1473
  374MOL0     C49267   4.325   5.425   6.291 -0.6418  0.0419 -0.3270
  374MOL0     C49268   4.268   5.366   6.400 -0.9196  0.0739  0.2997
  374MOL0     C49269   4.136   5.356   6.414 -0.2771 -0.1184 -0.2026
  374MOL0     C49270   4.050   5.397   6.318  0.0916  0.5842 -0.2524
  374MOL0     O49271   3.915   5.373   6.325  0.2242 -0.7416  0.5503
  374MOL0     C49272   3.820   5.476   6.290 -1.1154 -0.0693 -1.4739
  374MOL0     C49273   3.694   5.438   6.375  0.1788  0.4251  0.0303
  374MOL0     C49274   3.616   5.318   6.317 -0.1797  0.6157 -0.0755
  374MOL0     C49275   3.477   5.315   6.374 -0.5360  0.1558 -1.5644
  374MOL0     C49276   3.409   5.187   6.338 -0.1854  0.1634 -0.6774
  374MOL0     C49277   3.274   5.171   6.402 -0.6695  0.6108 -0.6047
  374MOL0     C49278   3.183   5.295   6.387  0.1886 -0.5402 -0.2980
  374MOL0     C49279   3.042   5.271   6.441 -1.6961 -0.2274  1.1315
  374MOL0    Cl49280   2.941   5.419   6.421 -0.5373 -0.7826  0.0876
  374MOL0     C49281   4.104   5.467   6.216 -0.1679 -0.1245  0.2973
  374MOL0     C49282   4.237   5.483   6.200 -1.1940  0.5150  0.1957
  374MOL0     O49283   4.467   5.378   6.056  0.2205 -0.3349  0.4977
  374MOL0     C49284   4.739   5.322   6.053  0.3285  0.1191 -0.1800
  374MOL0     C49285   4.875   5.299   6.053 -0.0091  0.5969 -0.4376
  374MOL0     N49286   5.145   4.801   6.541 -0.6741  0.2291  0.4255
  374MOL0     N49287   5.102   4.682   6.542  0.3249 -0.9554  0.5609
  374MOL0     C49288   4.075   3.919   6.588  0.7393 -0.0376  0.3897
  374MOL0     C49289   3.979   3.878   6.496  0.4058 -0.4013 -0.7288
  374MOL0     C49290   3.747   3.588   6.229  0.8354  0.1808  0.0325
  374MOL0     C49291   3.631   3.512   6.272 -0.4706  0.3656  0.0159
  374MOL0     C49292   3.523   3.492   6.197 -0.1560 -0.0287 -0.8734
  374MOL0     C49293   3.508   3.538   6.064 -0.6011 -0.3393  0.5885
  374MOL0     O49294   3.396   3.522   5.984  0.4271  0.5238 -0.3917
  374MOL0     C49295   3.396   3.575   5.848  0.1592 -0.1467 -0.6344
  374MOL0     C49296   3.289   3.503   5.762  0.5361 -0.4157  0.5003
  374MOL0     C49297   3.147   3.538   5.815  0.5586 -1.1945  0.3982
  374MOL0     C49298   3.046   3.516   5.703  1.4354 -0.4550 -0.3538
  374MOL0     C49299   2.911   3.568   5.751  0.1187  0.1891 -0.0955
  374MOL0     C49300   2.805   3.599   5.795  0.3931 -0.3479 -0.1371
  374MOL0     C49301   3.627   3.606   6.011 -0.2635  0.0151  0.1526
  374MOL0     C49302   3.740   3.619   6.092 -0.6592 -0.4284 -0.7752
  374MOL0     H49303   4.172   3.684   6.287  0.6378  0.6343 -0.7955
  374MOL0     H49304   4.343   3.766   6.470 -0.5754 -0.5979 -2.2623
  374MOL0     H49305   4.299   4.095   6.555 -0.8434 -1.5456  0.6053
  374MOL0     H49306   4.444   3.991   6.536  1.6072 -0.8157  1.5487
  374MOL0     H49307   4.533   4.050   6.747 -0.3668 -1.0675 -2.8836
  374MOL0     H49308   4.375   4.114   6.805 -1.7915 -0.0305 -2.2307
  374MOL0     H49309   4.546   4.289   6.748 -1.6850 -0.2075  1.1203
  374MOL0     H49310   4.416   4.300   6.642 -0.0738  1.4857  2.5637
  374MOL0     H49311   4.697   4.176   6.564  1.5653  2.6678  0.9996
  374MOL0     H49312   4.551   4.185   6.462 -3.9605  1.0674  1.1087
  374MOL0     H49313   4.555   4.420   6.468 -0.8423  1.3946  2.5080
  374MOL0     H49314   4.717   4.372   6.423 -0.2569  2.0589 -0.0198
  374MOL0     H49315   4.791   4.388   6.657  1.0081  0.6340  0.1946
  374MOL0     H49316   4.652   4.466   6.708  0.0923  0.5041  0.0262
  374MOL0     H49317   4.702   4.659   6.544 -1.4785 -1.5280  0.8058
  374MOL0     H49318   4.828   4.623   6.660  0.8501 -0.0671 -0.2399
  374MOL0     H49319   4.850   4.575   6.373  0.5689  3.3814  0.2164
  374MOL0     H49320   4.951   4.481   6.492  1.6972 -0.6815 -2.7103
  374MOL0     H49321   4.878   4.866   6.392 -0.8837 -0.4334 -0.6400
  374MOL0     H49322   5.173   5.056   6.549  1.4931  0.0034 -2.7940
  374MOL0     H49323   5.001   5.085   6.547  0.6373  1.0859  0.3772
  374MOL0     H49324   4.999   5.114   6.311  0.0176  2.3811 -0.5559
  374MOL0     H49325   5.156   5.046   6.293 -2.3803  0.2485 -1.5445
  374MOL0     H49326   5.054   5.304   6.439 -0.4481 -0.1752 -0.8677
  374MOL0     H49327   5.225   5.261   6.445 -1.5926  0.3417  1.2077
  374MOL0     H49328   5.261   5.293   6.204 -0.0126  3.0297 -3.0340
  374MOL0     H49329   5.188   5.443   6.268  1.3271  0.3568  0.2673
  374MOL0     H49330   4.956   5.458   6.347  1.9102 -0.8915 -0.8961
  374MOL0     H49331   4.709   5.500   6.354 -2.4701 -0.0214 -1.2393
  374MOL0     H49332   4.336   5.306   6.460 -0.2849 -1.4685 -1.8278
  374MOL0     H49333   4.093   5.306   6.500 -0.8204  0.2408 -0.2547
  374MOL0     H49334   3.806   5.477   6.182 -0.6613  0.0337 -1.5311
  374MOL0     H49335   3.851   5.574   6.329  0.5164 -2.2473  3.4587
  374MOL0     H49336   3.635   5.526   6.404  0.6142  1.1016 -1.0779
  374MOL0     H49337   3.737   5.406   6.470 -0.4528 -0.7456 -0.0576
  374MOL0     H49338   3.674   5.226   6.329  0.9332  1.2374 -0.5580
  374MOL0     H49339   3.601   5.336   6.210 -0.3261  3.0778  0.3074
  374MOL0     H49340   3.486   5.326   6.483 -2.9204  1.1874 -1.4101
  374MOL0     H49341   3.421   5.399   6.331  0.4691  1.3198 -0.6824
  374MOL0     H49342   3.480   5.107   6.360  1.6837  1.7354 -0.7279
  374MOL0     H49343   3.401   5.191   6.229  0.0825  3.8549 -0.6886
  374MOL0     H49344   3.273   5.143   6.508 -0.6939 -0.2143 -0.8141
  374MOL0     H49345   3.216   5.090   6.355 -0.7862  0.0595  0.4583
  374MOL0     H49346   3.229   5.381   6.436  2.2030 -0.7741 -1.6582
  374MOL0     H49347   3.170   5.314   6.280  0.7453 -1.2634 -0.4997
  374MOL0     H49348   3.032   5.232   6.543 -3.2256 -4.0236 -0.2650
  374MOL0     H49349   3.004   5.200   6.366  4.2272  0.1117 -2.8286
  374MOL0     H49350   4.040   5.506   6.137  0.4819 -0.6296 -0.5035
  374MOL0     H49351   4.296   5.525   6.119 -1.5660 -0.1026 -0.4076
  374MOL0     H49352   4.670   5.267   5.991 -1.3593 -0.2632  1.9307
  374MOL0     H49353   4.919   5.233   5.979  0.5048  1.6962 -1.1249
  374MOL0     H49354   4.065   3.995   6.665  1.9694  0.7624 -0.2149
  374MOL0     H49355   3.875   3.908   6.505 -0.8722 -4.1754 -0.7914
  374MOL0     H49356   3.632   3.460   6.367  1.4501 -0.8326 -0.6079
  374MOL0     H49357   3.437   3.432   6.226 -0.6755  0.6382 -1.0212
  374MOL0     H49358   3.489   3.552   5.794 -1.4481  1.6239 -4.5371
  374MOL0     H49359   3.378   3.683   5.859  2.5057  0.1092  1.6898
  374MOL0     H49360   3.286   3.555   5.665 -1.7707 -1.4590 -0.0462
  374MOL0     H49361   3.307   3.395   5.759 -3.8612 -1.3759  2.1031
  374MOL0     H49362   3.148   3.644   5.843  3.1131 -0.4220 -2.2003
  374MOL0     H49363   3.122   3.475   5.901 -3.4945  3.8462  3.5980
  374MOL0     H49364   3.072   3.565   5.608  3.9511 -0.4295  0.2795
  374MOL0     H49365   3.048   3.409   5.684 -0.1046 -0.3149 -1.4577
  374MOL0     H49366   2.715   3.639   5.838  0.4334  0.0686 -0.4343
  374MOL0     H49367   3.629   3.653   5.913  0.3025  1.0651  0.6504
  374MOL0     H49368   3.828   3.665   6.048 -1.0315  0.8598 -0.2170
  375MOL0     O49369   2.581   5.931   0.065  0.6667 -0.1504  0.0346
  375MOL0     C49370   2.630   5.999  -0.020 -0.1227 -1.5837  0.5704
  375MOL0     O49371   2.560   6.055  -0.126 -0.0305 -0.5889  0.6785
  375MOL0     C49372   2.426   6.022  -0.138  0.1687 -0.2074  0.2469
  375MOL0     C49373   2.375   5.894  -0.120  0.0859  0.0195 -0.2954
  375MOL0     C49374   2.236   5.867  -0.126  0.4328 -0.6614 -0.0315
  375MOL0     C49375   2.151   5.970  -0.175 -0.3813  0.1038 -0.2232
  375MOL0     O49376   2.023   5.928  -0.199  0.8067  0.0622  0.7459
  375MOL0     C49377   1.936   6.017  -0.270  0.1054 -0.2905 -0.1247
  375MOL0     C49378   1.800   5.953  -0.282  0.0064 -0.7662 -0.0246
  375MOL0     C49379   1.690   6.048  -0.336 -0.2721  0.5306  0.2546
  375MOL0     C49380   1.566   5.966  -0.331  0.2636  0.3255 -1.3667
  375MOL0     C49381   1.434   6.031  -0.363  0.5230  0.7719 -0.1743
  375MOL0     C49382   1.393   6.114  -0.241 -0.8650  0.1107  0.2424
  375MOL0     C49383   1.313   6.229  -0.289  0.7289 -0.1797  0.4846
  375MOL0     C49384   1.275   6.318  -0.178 -0.4770 -0.1107 -0.7619
  375MOL0     N49385   1.187   6.429  -0.206  0.7461  0.6081 -0.3153
  375MOL0     C49386   1.059   6.457  -0.154  0.0351  0.1119 -0.2974
  375MOL0     C49387   1.030   6.578  -0.215 -0.4165  1.0884 -0.1147
  375MOL0     C49388   0.910   6.662  -0.187  0.0845 -0.2509 -1.0198
  375MOL0     C49389   0.828   6.626  -0.063 -0.7040  0.2374 -1.0698
  375MOL0     C49390   0.765   6.744  -0.007  1.1727 -0.2742 -0.6889
  375MOL0     C49391   0.630   6.785  -0.076 -0.0682 -0.0412 -0.0769
  375MOL0     O49392   0.585   6.888   0.010  0.1633 -0.5161 -0.4539
  375MOL0     C49393   0.444   6.927   0.006 -0.5063  0.0944 -0.1917
  375MOL0     C49394   0.332   6.876  -0.072 -1.4924  0.3046  0.3229
  375MOL0     C49395   0.208   6.935  -0.072  0.3801 -0.1123  0.1712
  375MOL0     C49396   0.194   7.056  -0.002  1.2076  1.1048  0.3123
  375MOL0     C49397   0.052   7.118   0.004 -0.0588 -0.2449  0.1754
  375MOL0     O49398  -0.040   7.072  -0.091  0.4279 -0.2046 -0.0641
  375MOL0     C49399  -0.163   7.133  -0.087  0.0553 -0.0134 -0.2909
  375MOL0     C49400  -0.192   7.212  -0.198  0.1255 -0.5786  0.2083
  375MOL0     C49401  -0.302   7.294  -0.189  0.1173 -0.0233  0.7366
  375MOL0     C49402  -0.386   7.294  -0.079  0.0554 -0.6783 -1.0080
  375MOL0     O49403  -0.483   7.385  -0.093 -0.0963 -0.2429 -0.4027
  375MOL0     C49404  -0.583   7.414   0.006  0.5823 -0.5110 -0.2745
  375MOL0     C49405  -0.705   7.467  -0.066 -0.9773  0.5488  0.1274
  375MOL0     C49406  -0.824   7.499   0.018  0.7225 -0.2386  0.2070
  375MOL0     C49407  -0.944   7.545  -0.060  0.5971 -0.2654  0.0508
  375MOL0     C49408  -1.072   7.540   0.023  0.3178 -0.5692 -0.5174
  375MOL0     C49409  -1.197   7.607  -0.031 -0.2601  0.0801  0.3859
  375MOL0     C49410  -1.270   7.518  -0.132  0.0525 -0.7151 -0.0568
  375MOL0     C49411  -1.396   7.579  -0.184  0.5722  0.1708 -1.2598
  375MOL0    Cl49412  -1.517   7.599  -0.053  0.3854 -0.1617 -0.2582
  375MOL0     C49413  -0.362   7.217   0.036 -1.1486  0.0392  0.7738
  375MOL0     C49414  -0.249   7.135   0.024  0.1506  0.8510 -0.0786
  375MOL0     O49415   0.040   7.217   0.078  0.1106  0.7459 -0.1482
  375MOL0     C49416   0.297   7.107   0.068  0.4315 -0.0646  1.0920
  375MOL0     C49417   0.418   7.048   0.069  0.3736 -0.6725  0.3413
  375MOL0     N49418   1.128   6.615  -0.298  0.4986  0.4129  0.0894
  375MOL0     N49419   1.214   6.524  -0.301  0.0545 -0.6111  0.2429
  375MOL0     C49420   2.206   6.099  -0.201  0.8277  0.7517 -0.1863
  375MOL0     C49421   2.339   6.125  -0.157  0.2551 -0.1065  0.2770
  375MOL0     C49422   2.756   6.051  -0.004 -0.1966  0.5725  0.6621
  375MOL0     C49423   2.854   5.996   0.087 -0.1307  0.1413  0.6968
  375MOL0     C49424   2.977   6.049   0.104 -0.5568 -0.0889  0.4084
  375MOL0     C49425   3.017   6.161   0.032  0.8621 -0.3248  0.7323
  375MOL0     O49426   3.142   6.222   0.033 -0.1703 -0.1831 -0.1203
  375MOL0     C49427   3.201   6.245   0.158  0.3025 -0.0507  0.7573
  375MOL0     C49428   3.309   6.353   0.152 -0.8164 -0.1984  0.1845
  375MOL0     C49429   3.433   6.301   0.067  1.1995 -0.1232 -0.5522
  375MOL0     C49430   3.534   6.210   0.132  0.4639  0.2993 -0.4422
  375MOL0     C49431   3.670   6.242   0.095 -0.3332  0.4678  0.4388
  375MOL0     C49432   3.785   6.244   0.056 -0.0957 -0.2564 -1.0160
  375MOL0     C49433   2.930   6.210  -0.066 -0.8888  0.1420  0.2357
  375MOL0     C49434   2.798   6.165  -0.070  0.1830  0.2609 -0.8210
  375MOL0     H49435   2.439   5.811  -0.093 -0.3595 -0.0745  0.5248
  375MOL0     H49436   2.199   5.766  -0.107  1.0989 -0.3746  3.4286
  375MOL0     H49437   1.976   6.024  -0.371 -0.2116  2.6099 -0.1281
  375MOL0     H49438   1.929   6.119  -0.232  2.1842  0.7608 -2.3199
  375MOL0     H49439   1.758   5.925  -0.185  0.6601 -1.5418  0.0409
  375MOL0     H49440   1.799   5.865  -0.347 -1.9092 -1.0402  0.2972
  375MOL0     H49441   1.711   6.093  -0.433  2.3488  2.8155  1.7243
  375MOL0     H49442   1.691   6.130  -0.263  1.5247  1.1406 -0.4122
  375MOL0     H49443   1.592   5.887  -0.403  1.8929  0.9449 -1.5041
  375MOL0     H49444   1.563   5.909  -0.237  0.3934  2.2205 -0.1622
  375MOL0     H49445   1.355   5.956  -0.375 -0.2071  1.2497  1.3472
  375MOL0     H49446   1.448   6.092  -0.452 -0.9130  1.3932 -0.0122
  375MOL0     H49447   1.488   6.148  -0.200  1.0082 -2.9271 -1.2075
  375MOL0     H49448   1.346   6.051  -0.164  0.1744 -0.2724  0.5818
  375MOL0     H49449   1.362   6.289  -0.366  0.5423 -0.0424  0.4722
  375MOL0     H49450   1.218   6.194  -0.330 -0.5680  2.8031  0.6985
  375MOL0     H49451   1.367   6.352  -0.131 -0.1468 -1.1263 -0.6632
  375MOL0     H49452   1.232   6.253  -0.102  2.1874 -1.3800 -0.2574
  375MOL0     H49453   1.011   6.406  -0.072 -0.4760  1.7285  0.4548
  375MOL0     H49454   0.836   6.638  -0.264  0.6345  0.3578 -1.7487
  375MOL0     H49455   0.937   6.768  -0.188  1.2408 -0.5250 -0.3382
  375MOL0     H49456   0.891   6.587   0.018 -0.1367 -0.5053 -1.8458
  375MOL0     H49457   0.753   6.552  -0.093 -1.0009 -0.0544  0.3140
  375MOL0     H49458   0.738   6.731   0.098  0.0993 -1.0976 -1.0543
  375MOL0     H49459   0.831   6.831  -0.021 -0.5779  1.1218 -0.5468
  375MOL0     H49460   0.562   6.699  -0.086  1.9555 -1.6582 -0.6191
  375MOL0     H49461   0.635   6.828  -0.176  0.1982  1.6799  0.6501
  375MOL0     H49462   0.347   6.793  -0.140  2.6425  1.2582 -0.1995
  375MOL0     H49463   0.128   6.892  -0.132  0.1723 -1.7800  1.5396
  375MOL0     H49464  -0.132   7.225  -0.288 -0.5914  0.5928 -0.1106
  375MOL0     H49465  -0.316   7.363  -0.272 -0.9623  1.4733  2.0958
  375MOL0     H49466  -0.547   7.496   0.068  3.0987 -1.5243 -0.3088
  375MOL0     H49467  -0.622   7.333   0.068  1.5137  1.3180  2.8783
  375MOL0     H49468  -0.739   7.380  -0.123  1.2073 -1.6312  1.9153
  375MOL0     H49469  -0.688   7.557  -0.125 -0.9636  2.1886  2.5177
  375MOL0     H49470  -0.793   7.581   0.084 -0.7121  1.6958 -1.4039
  375MOL0     H49471  -0.853   7.411   0.076 -1.0239 -1.4805 -2.4102
  375MOL0     H49472  -0.930   7.649  -0.091  2.6677 -0.3327  0.6038
  375MOL0     H49473  -0.960   7.485  -0.150 -0.2897  1.2735 -0.8821
  375MOL0     H49474  -1.045   7.594   0.115  0.2086  0.2582 -0.9649
  375MOL0     H49475  -1.097   7.436   0.048 -0.5423 -0.3946 -0.6277
  375MOL0     H49476  -1.165   7.697  -0.084  1.8348 -1.2400 -0.7705
  375MOL0     H49477  -1.262   7.631   0.053 -2.3691 -1.3163 -0.7667
  375MOL0     H49478  -1.200   7.503  -0.214 -0.1578 -1.5178 -0.0973
  375MOL0     H49479  -1.286   7.432  -0.065  2.9149 -1.5748 -0.3551
  375MOL0     H49480  -1.430   7.510  -0.262  1.4571 -2.2320  0.3659
  375MOL0     H49481  -1.369   7.681  -0.212  0.0649  0.5948 -0.2664
  375MOL0     H49482  -0.414   7.225   0.130 -0.4896 -0.8926  1.2380
  375MOL0     H49483  -0.238   7.072   0.111 -2.6101  0.1971 -0.1106
  375MOL0     H49484   0.277   7.195   0.128 -0.2282  1.0021 -0.6193
  375MOL0     H49485   0.490   7.086   0.140  0.8836 -0.5999 -0.2108
  375MOL0     H49486   2.141   6.175  -0.245 -0.6182 -1.2307 -1.6341
  375MOL0     H49487   2.388   6.222  -0.151 -1.2079  0.7051 -0.3582
  375MOL0     H49488   2.834   5.909   0.150  0.2549 -1.7422 -1.6329
  375MOL0     H49489   3.053   6.009   0.171  3.0532 -1.4513 -4.0252
  375MOL0     H49490   3.245   6.158   0.207 -1.7697 -2.4294 -1.3076
  375MOL0     H49491   3.121   6.283   0.222 -0.2665 -0.0931  0.0884
  375MOL0     H49492   3.257   6.440   0.111 -3.7174 -1.7330  0.4107
  375MOL0     H49493   3.345   6.365   0.254 -1.0539 -1.7744  0.4809
  375MOL0     H49494   3.486   6.394   0.043  0.3720  0.7380  0.7975
  375MOL0     H49495   3.399   6.266  -0.031 -0.7041  2.0432 -0.7521
  375MOL0     H49496   3.534   6.243   0.236  1.6825  4.0668 -1.4772
  375MOL0     H49497   3.511   6.103   0.129 -0.3824  0.4404  0.5214
  375MOL0     H49498   3.881   6.248   0.009  0.6297 -0.1391  0.4302
  375MOL0     H49499   2.954   6.295  -0.130 -1.9753  1.6637  1.7624
  375MOL0     H49500   2.734   6.212  -0.142 -0.3003  2.0472  0.7053
  376MOL0     O49501   5.461   7.121   2.412  0.9036 -0.2189  0.1989
  376MOL0     C49502   5.532   7.190   2.337  0.9214  0.5507 -0.2720
  376MOL0     O49503   5.516   7.326   2.306  0.1904 -0.1830  0.6827
  376MOL0     C49504   5.394   7.400   2.319  0.4138 -0.5571  0.1783
  376MOL0     C49505   5.407   7.538   2.313 -0.1842  0.1020  0.4017
  376MOL0     C49506   5.298   7.621   2.327  0.1968  0.3090  0.4489
  376MOL0     C49507   5.171   7.569   2.339 -0.0230 -0.1935  0.8932
  376MOL0     O49508   5.071   7.657   2.362 -0.3893  0.5398 -0.8387
  376MOL0     C49509   5.009   7.717   2.256  0.3010 -0.5044 -0.7651
  376MOL0     C49510   4.893   7.789   2.323 -0.3975 -0.0196 -0.3987
  376MOL0     C49511   4.795   7.866   2.231  0.3592  0.1200  0.1524
  376MOL0     C49512   4.662   7.917   2.289  0.2141 -0.4685  0.2079
  376MOL0     C49513   4.598   8.016   2.191 -0.2253 -0.8236 -0.1848
  376MOL0     C49514   4.472   8.092   2.245 -0.3589 -0.2901 -0.5895
  376MOL0     C49515   4.502   8.182   2.367 -0.2850 -0.3802 -0.1245
  376MOL0     C49516   4.369   8.224   2.435  1.0568 -0.6267  0.0011
  376MOL0     N49517   4.388   8.341   2.531 -0.0940  0.3317  0.0438
  376MOL0     C49518   4.423   8.476   2.501 -0.0873  0.7352  0.2750
  376MOL0     C49519   4.409   8.537   2.616 -1.4279 -0.3557 -0.5202
  376MOL0     C49520   4.431   8.686   2.630 -0.1178  1.1876 -0.1525
  376MOL0     C49521   4.390   8.769   2.508 -0.5595  0.6803 -0.0871
  376MOL0     C49522   4.423   8.920   2.524 -0.8099  0.4986 -0.1777
  376MOL0     C49523   4.391   8.987   2.386  0.0361 -0.4186  0.2663
  376MOL0     O49524   4.255   8.967   2.348  0.9139 -0.2373 -0.3180
  376MOL0     C49525   4.155   9.034   2.402  0.2370 -0.2444  0.4555
  376MOL0     C49526   4.168   9.132   2.500  0.3590  0.0616  0.2776
  376MOL0     C49527   4.073   9.201   2.571  0.3127  0.0466  0.6679
  376MOL0     C49528   3.935   9.177   2.522 -0.6887  0.2512  0.1601
  376MOL0     C49529   3.818   9.243   2.574 -0.4910  0.4601  0.6653
  376MOL0     O49530   3.702   9.213   2.513  0.3075  0.0760  0.4694
  376MOL0     C49531   3.585   9.264   2.565  0.1596 -0.2281  0.1627
  376MOL0     C49532   3.554   9.398   2.581 -0.0139  0.2070 -0.6837
  376MOL0     C49533   3.431   9.433   2.627  0.7571 -0.8510  0.1616
  376MOL0     C49534   3.327   9.347   2.654  0.0156  0.3632  0.0829
  376MOL0     O49535   3.201   9.383   2.685 -0.4047  0.8536  0.6278
  376MOL0     C49536   3.163   9.518   2.655 -0.7060 -0.3526 -0.7463
  376MOL0     C49537   3.031   9.531   2.722 -0.0841 -0.3758 -0.5824
  376MOL0     C49538   2.959   9.648   2.661  0.5627 -0.7917 -0.7401
  376MOL0     C49539   2.806   9.642   2.700 -0.3033  0.2947  0.8142
  376MOL0     C49540   2.715   9.729   2.609  0.0449 -0.1361 -0.3919
  376MOL0     C49541   2.570   9.718   2.659  0.2830 -0.2797 -0.0266
  376MOL0     C49542   2.477   9.820   2.600  0.3847 -0.0813 -0.4180
  376MOL0     C49543   2.333   9.823   2.648 -0.3759  0.3351 -0.3668
  376MOL0    Cl49544   2.234   9.942   2.547 -0.0344 -0.2241 -0.1194
  376MOL0     C49545   3.353   9.211   2.652 -0.5168  0.5161  0.2324
  376MOL0     C49546   3.486   9.164   2.606  0.3071 -0.3080 -0.1254
  376MOL0     O49547   3.832   9.324   2.668  0.7443  0.0637 -0.2271
  376MOL0     C49548   3.916   9.083   2.417  0.1015 -0.1033  0.6820
  376MOL0     C49549   4.019   9.012   2.356 -0.1837 -0.8888  0.0400
  376MOL0     N49550   4.351   8.458   2.712  0.7307  0.2118 -0.4595
  376MOL0     N49551   4.338   8.336   2.658  0.5656  0.5837 -0.8519
  376MOL0     C49552   5.150   7.434   2.340 -0.0170  0.0266  0.7631
  376MOL0     C49553   5.266   7.352   2.339  0.0689 -0.0545  0.0361
  376MOL0     C49554   5.675   7.150   2.298  0.7285  0.5874  0.2880
  376MOL0     C49555   5.734   7.225   2.194  1.1845  0.0228 -0.3353
  376MOL0     C49556   5.864   7.185   2.151  0.3894 -0.2571 -0.0741
  376MOL0     C49557   5.935   7.077   2.206 -0.6251 -0.1015 -0.0446
  376MOL0     O49558   6.055   7.052   2.141  0.5373 -0.1554 -0.7254
  376MOL0     C49559   6.139   6.957   2.197 -0.2555  0.6470  0.1823
  376MOL0     C49560   6.212   6.997   2.331  0.1547 -0.1250  0.5083
  376MOL0     C49561   6.284   7.131   2.327  0.2003  0.3519  0.2463
  376MOL0     C49562   6.325   7.186   2.458  0.2299 -0.0300 -0.1217
  376MOL0     C49563   6.210   7.214   2.543 -0.4536  0.1720  0.1381
  376MOL0     C49564   6.108   7.246   2.599  0.1292  0.6300  0.7248
  376MOL0     C49565   5.869   7.003   2.309 -0.5101 -0.5800 -0.0187
  376MOL0     C49566   5.742   7.044   2.355 -1.2363  0.3084 -0.1837
  376MOL0     H49567   5.512   7.566   2.311 -0.9316  3.5137 -3.4272
  376MOL0     H49568   5.287   7.729   2.326 -2.6060  0.1661  2.9236
  376MOL0     H49569   4.969   7.641   2.189 -0.2006  1.6210 -3.0454
  376MOL0     H49570   5.067   7.783   2.191 -1.5733 -0.7361 -2.7813
  376MOL0     H49571   4.928   7.854   2.403  0.4958  1.3613 -1.8537
  376MOL0     H49572   4.846   7.707   2.379  0.2637  1.0108  1.7537
  376MOL0     H49573   4.777   7.803   2.143  0.8189  2.2673 -1.5549
  376MOL0     H49574   4.851   7.951   2.191  2.5936 -2.5926 -2.9735
  376MOL0     H49575   4.592   7.834   2.301 -0.7677  0.2129 -0.6042
  376MOL0     H49576   4.675   7.959   2.389 -0.1787 -0.8936  0.4354
  376MOL0     H49577   4.559   7.970   2.100  2.0030  1.4693 -2.4773
  376MOL0     H49578   4.677   8.088   2.169 -1.3970  0.4848 -0.2876
  376MOL0     H49579   4.405   8.013   2.279  1.3321 -1.0558  1.1718
  376MOL0     H49580   4.433   8.162   2.170 -0.0913  2.3536  1.5593
  376MOL0     H49581   4.559   8.132   2.446  0.6546  0.0114 -0.5378
  376MOL0     H49582   4.552   8.270   2.325 -3.5340  1.9040  0.4341
  376MOL0     H49583   4.329   8.143   2.496 -2.3985  1.6570  1.0521
  376MOL0     H49584   4.301   8.254   2.355  3.0034 -0.0564 -1.5366
  376MOL0     H49585   4.482   8.503   2.415  2.8437  0.1332  1.9524
  376MOL0     H49586   4.531   8.708   2.670  0.0591  0.7613 -0.3440
  376MOL0     H49587   4.357   8.718   2.703 -1.8626  2.3470 -2.3167
  376MOL0     H49588   4.283   8.752   2.491 -0.7201 -0.7991  2.0277
  376MOL0     H49589   4.450   8.736   2.422 -1.3176 -0.8992 -0.0580
  376MOL0     H49590   4.352   8.967   2.593 -0.3061 -0.8034  1.2801
  376MOL0     H49591   4.522   8.934   2.569 -1.1617  1.4266  0.3449
  376MOL0     H49592   4.445   8.944   2.302 -3.6682 -3.2448 -0.9127
  376MOL0     H49593   4.419   9.093   2.392 -0.0786 -0.2965 -1.0603
  376MOL0     H49594   4.268   9.169   2.522 -0.7956  2.8972  1.3739
  376MOL0     H49595   4.090   9.278   2.646  1.5418  0.3003  0.1377
  376MOL0     H49596   3.623   9.478   2.560 -0.1337  0.5883  0.3287
  376MOL0     H49597   3.426   9.540   2.640  2.2308 -0.0293 -4.2335
  376MOL0     H49598   3.161   9.539   2.548 -0.4289 -0.0079 -0.6867
  376MOL0     H49599   3.228   9.589   2.708 -1.3519  0.6090 -1.2070
  376MOL0     H49600   3.045   9.553   2.828  3.1859  0.7669 -1.1333
  376MOL0     H49601   2.966   9.445   2.701  1.7162 -1.4586 -2.0266
  376MOL0     H49602   2.975   9.642   2.553  2.6180 -2.0466 -0.4370
  376MOL0     H49603   2.998   9.745   2.693 -0.7174  0.3004 -2.3726
  376MOL0     H49604   2.772   9.539   2.685  1.5981 -0.1734 -0.8187
  376MOL0     H49605   2.799   9.669   2.805  2.6763  0.8585  0.9617
  376MOL0     H49606   2.720   9.703   2.502  3.8235  1.0429 -0.6513
  376MOL0     H49607   2.757   9.829   2.621 -1.2758  0.2179  1.6367
  376MOL0     H49608   2.560   9.725   2.768  1.5874  0.1726  0.0710
  376MOL0     H49609   2.533   9.617   2.639 -0.9226  0.0924  0.2163
  376MOL0     H49610   2.518   9.917   2.629  3.0564 -1.0750 -0.5000
  376MOL0     H49611   2.471   9.803   2.492  1.8535 -1.2457 -0.3592
  376MOL0     H49612   2.332   9.832   2.757 -0.3197  1.7511 -0.4616
  376MOL0     H49613   2.305   9.718   2.639 -0.6699 -0.1489  4.2667
  376MOL0     H49614   3.269   9.143   2.663 -0.8384  1.1084  1.7051
  376MOL0     H49615   3.501   9.057   2.601  3.4850  0.0707 -3.7850
  376MOL0     H49616   3.822   9.052   2.372  1.2804 -2.2991 -0.4322
  376MOL0     H49617   4.002   8.940   2.277  0.9281  0.2792 -1.3095
  376MOL0     H49618   5.050   7.392   2.338  0.5609 -1.4187 -1.1379
  376MOL0     H49619   5.258   7.244   2.336 -0.0079 -0.0350 -0.5741
  376MOL0     H49620   5.687   7.301   2.133  1.8501  0.0682 -0.7964
  376MOL0     H49621   5.909   7.247   2.074  3.5242 -0.2952  1.5825
  376MOL0     H49622   6.209   6.928   2.118 -2.7738 -1.1619 -1.5346
  376MOL0     H49623   6.083   6.865   2.217  0.2258  0.1623 -0.6268
  376MOL0     H49624   6.142   6.990   2.414  2.9126 -0.5362  2.9961
  376MOL0     H49625   6.291   6.924   2.352 -0.7575 -1.2206  0.2080
  376MOL0     H49626   6.210   7.204   2.293 -0.4249  2.4417  5.2901
  376MOL0     H49627   6.362   7.128   2.250 -1.1828  0.4754 -1.2072
  376MOL0     H49628   6.391   7.119   2.515  0.4812  1.4019  1.3459
  376MOL0     H49629   6.390   7.274   2.447  0.8169 -0.0736  2.3097
  376MOL0     H49630   6.017   7.255   2.655  0.4377  5.5339  0.8539
  376MOL0     H49631   5.916   6.914   2.352 -1.7611 -1.1766  0.1601
  376MOL0     H49632   5.717   6.990   2.445  1.6752  2.7589  2.3252
  377MOL0     O49633   0.398   7.085   5.909 -0.0280 -0.2397 -0.0680
  377MOL0     C49634   0.450   6.975   5.925  0.0129 -0.2927  0.5351
  377MOL0     O49635   0.386   6.860   5.967 -0.1425  0.5427  0.2988
  377MOL0     C49636   0.252   6.860   6.000 -1.0940  0.6191  0.1114
  377MOL0     C49637   0.201   6.934   6.102 -0.3242 -0.2292  0.1222
  377MOL0     C49638   0.059   6.926   6.130 -0.1890  0.8614  0.9940
  377MOL0     C49639  -0.025   6.826   6.073  0.3647 -0.4833  0.3132
  377MOL0     O49640  -0.143   6.788   6.132  0.8454 -0.1586  0.2850
  377MOL0     C49641  -0.225   6.890   6.194  0.4750 -0.3424  0.7238
  377MOL0     C49642  -0.366   6.831   6.193 -0.6986  0.1686  0.0930
  377MOL0     C49643  -0.366   6.690   6.262 -0.3987 -0.2196  0.8993
  377MOL0     C49644  -0.509   6.641   6.261 -0.3214 -0.1455 -0.9684
  377MOL0     C49645  -0.533   6.509   6.336  0.6727 -0.0686 -0.5825
  377MOL0     C49646  -0.656   6.436   6.283 -0.0803 -0.0979  0.5686
  377MOL0     C49647  -0.790   6.507   6.320  0.3333 -0.4149  0.3162
  377MOL0     C49648  -0.911   6.430   6.285  0.7979  0.3523 -1.0067
  377MOL0     N49649  -1.025   6.456   6.372  0.6231 -0.0827  0.5803
  377MOL0     C49650  -1.046   6.414   6.501 -0.8270  1.2572 -0.3786
  377MOL0     C49651  -1.156   6.485   6.547  0.2019 -0.2771 -0.6477
  377MOL0     C49652  -1.220   6.446   6.670  0.6501  0.5589 -0.0193
  377MOL0     C49653  -1.341   6.528   6.718  0.4577 -0.4297 -0.3553
  377MOL0     C49654  -1.399   6.461   6.838  0.3449 -0.0225 -0.9509
  377MOL0     C49655  -1.517   6.528   6.897  0.2886  0.7184  0.2649
  377MOL0     O49656  -1.624   6.508   6.799  0.7160  0.1981 -0.1242
  377MOL0     C49657  -1.751   6.544   6.822  0.0238 -0.3899  0.8229
  377MOL0     C49658  -1.847   6.499   6.731 -0.9144  0.2263  0.2361
  377MOL0     C49659  -1.986   6.521   6.747  0.0979  0.5571  0.4030
  377MOL0     C49660  -2.032   6.600   6.857 -1.2639  0.2540 -0.5853
  377MOL0     C49661  -2.169   6.628   6.871  0.6243 -0.2849  0.6660
  377MOL0     O49662  -2.190   6.731   6.967 -0.2282  0.1637  0.4367
  377MOL0     C49663  -2.317   6.738   7.020  0.2077 -0.3173 -0.4024
  377MOL0     C49664  -2.332   6.710   7.155  0.0317 -0.4775 -0.9126
  377MOL0     C49665  -2.461   6.724   7.216 -0.2187  0.0072  0.2055
  377MOL0     C49666  -2.572   6.772   7.140 -0.4139  0.1969 -0.7933
  377MOL0     O49667  -2.688   6.762   7.212 -0.2383  0.1654 -0.3054
  377MOL0     C49668  -2.812   6.766   7.142 -0.6514 -0.4332 -0.0858
  377MOL0     C49669  -2.855   6.623   7.093  0.8007 -0.1678 -1.3946
  377MOL0     C49670  -2.925   6.636   6.957  0.5047 -0.0859 -0.0387
  377MOL0     C49671  -3.058   6.713   6.974  0.2456 -0.0584  0.1348
  377MOL0     C49672  -3.169   6.636   6.914  0.6476  0.7392  0.3360
  377MOL0     C49673  -3.163   6.642   6.756  0.5462  0.3298  0.3100
  377MOL0     C49674  -3.280   6.559   6.699  0.1307  0.0681  0.1669
  377MOL0     C49675  -3.262   6.410   6.709  0.1842  0.1672  0.8923
  377MOL0    Cl49676  -3.279   6.324   6.865 -0.2580 -0.5405  0.5841
  377MOL0     C49677  -2.549   6.808   7.008 -1.0599  0.0260 -0.3535
  377MOL0     C49678  -2.422   6.793   6.951 -0.5795  0.0958  0.4539
  377MOL0     O49679  -2.252   6.553   6.815  0.0556 -0.1824  0.2613
  377MOL0     C49680  -1.931   6.646   6.948  0.1503  0.4685  1.1783
  377MOL0     C49681  -1.799   6.622   6.929  0.8296 -0.1654 -0.2635
  377MOL0     N49682  -1.191   6.571   6.446  0.1929 -0.2089  0.0324
  377MOL0     N49683  -1.104   6.564   6.339 -0.0443 -0.0980 -0.5849
  377MOL0     C49684   0.036   6.745   5.971 -0.2776  0.2865  0.0234
  377MOL0     C49685   0.171   6.765   5.941  0.7801  0.3669  0.4256
  377MOL0     C49686   0.582   6.955   5.873  0.6044  0.1201  0.0541
  377MOL0     C49687   0.631   7.057   5.791 -0.4969 -0.0772 -0.0534
  377MOL0     C49688   0.763   7.040   5.737  0.3401  0.3586 -0.0877
  377MOL0     C49689   0.845   6.936   5.779  0.8801 -0.4707  0.7823
  377MOL0     O49690   0.979   6.931   5.742  0.4179 -0.1010 -0.7407
  377MOL0     C49691   1.058   7.041   5.728 -0.3642  0.2889 -0.5834
  377MOL0     C49692   1.126   7.037   5.602  0.1953 -0.0329  0.0551
  377MOL0     C49693   1.029   7.070   5.483  0.1382 -0.0380 -0.4868
  377MOL0     C49694   1.089   7.017   5.348  0.6079 -0.3397 -0.6084
  377MOL0     C49695   1.221   7.070   5.318 -0.2581  0.9577 -0.0378
  377MOL0     C49696   1.337   7.091   5.288 -0.1467 -0.4337 -0.1639
  377MOL0     C49697   0.788   6.838   5.862  0.5408  0.4476 -0.2904
  377MOL0     C49698   0.659   6.838   5.901 -0.0065  0.2192 -0.4302
  377MOL0     H49699   0.256   7.003   6.166 -1.3595  0.3741  0.4017
  377MOL0     H49700   0.013   6.995   6.200  3.0671  3.0646  1.1261
  377MOL0     H49701  -0.230   6.984   6.137 -0.3487 -1.2853 -0.8351
  377MOL0     H49702  -0.201   6.908   6.299 -0.7944  3.5175  0.5122
  377MOL0     H49703  -0.403   6.820   6.091  0.5990  0.1140 -0.3967
  377MOL0     H49704  -0.429   6.905   6.242 -1.4102 -0.9772  0.9695
  377MOL0     H49705  -0.317   6.694   6.359  1.2663 -0.4054  0.1024
  377MOL0     H49706  -0.320   6.610   6.203 -1.6188 -0.4884  0.2686
  377MOL0     H49707  -0.577   6.719   6.297 -1.9463  0.5632 -4.9611
  377MOL0     H49708  -0.534   6.622   6.156 -0.0959  1.1967 -1.2862
  377MOL0     H49709  -0.550   6.526   6.443 -0.5045 -1.7178 -0.4818
  377MOL0     H49710  -0.437   6.458   6.323  1.3994  1.0479  0.1828
  377MOL0     H49711  -0.645   6.330   6.306  0.0442 -0.6539 -1.7290
  377MOL0     H49712  -0.648   6.435   6.173 -4.2842  3.0866 -0.0387
  377MOL0     H49713  -0.792   6.519   6.429  2.6174 -2.3711  0.6374
  377MOL0     H49714  -0.793   6.605   6.273 -1.9513 -0.6643 -0.1819
  377MOL0     H49715  -0.890   6.323   6.290 -1.9209 -0.2079 -0.4776
  377MOL0     H49716  -0.947   6.444   6.183 -0.6483 -0.5761 -0.6394
  377MOL0     H49717  -1.003   6.329   6.552 -1.7630  0.4504 -0.9101
  377MOL0     H49718  -1.142   6.448   6.747  1.7442 -1.2322 -0.9962
  377MOL0     H49719  -1.243   6.340   6.657  0.6484  0.6130 -0.4564
  377MOL0     H49720  -1.409   6.529   6.632 -2.1824  1.1193  1.5851
  377MOL0     H49721  -1.322   6.634   6.739 -1.9992  0.3855 -1.8748
  377MOL0     H49722  -1.420   6.361   6.799  0.6759 -1.0122  1.2486
  377MOL0     H49723  -1.328   6.469   6.920 -0.1192  1.1452 -0.6488
  377MOL0     H49724  -1.505   6.629   6.936 -3.0915  1.4234 -0.1911
  377MOL0     H49725  -1.546   6.474   6.987 -0.6725  0.3636 -0.2461
  377MOL0     H49726  -1.807   6.451   6.643  0.7017  1.3808  0.2956
  377MOL0     H49727  -2.054   6.474   6.677  1.2639  1.2468 -1.2764
  377MOL0     H49728  -2.243   6.690   7.214 -0.5940  1.6749  0.8821
  377MOL0     H49729  -2.485   6.714   7.322  1.5155 -1.8637  0.4823
  377MOL0     H49730  -2.809   6.842   7.063  0.5693  0.0383  0.3943
  377MOL0     H49731  -2.878   6.808   7.218  2.9630  2.7163  1.6233
  377MOL0     H49732  -2.926   6.580   7.165  2.4586 -2.7091 -1.1548
  377MOL0     H49733  -2.765   6.562   7.080  1.2216  0.4980 -1.6530
  377MOL0     H49734  -2.946   6.541   6.908 -0.9198  1.3809 -2.5244
  377MOL0     H49735  -2.863   6.683   6.879 -1.9582 -0.5937 -2.4661
  377MOL0     H49736  -3.083   6.728   7.080  1.4276 -2.2443  0.7857
  377MOL0     H49737  -3.065   6.817   6.941 -3.1393  0.1069  0.9579
  377MOL0     H49738  -3.266   6.678   6.943 -0.6249 -2.8409  1.7342
  377MOL0     H49739  -3.167   6.538   6.961  3.7027  0.7543  0.4292
  377MOL0     H49740  -3.071   6.595   6.720 -0.0136  0.1818 -0.9962
  377MOL0     H49741  -3.161   6.749   6.733 -1.8658  0.5817  0.9709
  377MOL0     H49742  -3.361   6.586   6.768  0.3169 -2.5156  1.5041
  377MOL0     H49743  -3.298   6.583   6.594  0.7810 -1.4126 -0.2949
  377MOL0     H49744  -3.164   6.388   6.665 -1.2374  1.8836 -3.8308
  377MOL0     H49745  -3.344   6.373   6.646  0.2366  1.9963 -0.3297
  377MOL0     H49746  -2.630   6.841   6.944 -0.4253 -1.2924 -1.8892
  377MOL0     H49747  -2.417   6.817   6.845 -0.6201 -2.4778 -0.2013
  377MOL0     H49748  -1.966   6.693   7.039 -0.6818 -1.1827  1.7583
  377MOL0     H49749  -1.736   6.675   6.999 -0.0836 -0.6054  0.9358
  377MOL0     H49750  -0.032   6.669   5.933  0.4209 -1.0318  1.3013
  377MOL0     H49751   0.213   6.688   5.877 -0.0385  0.2473  0.0270
  377MOL0     H49752   0.578   7.150   5.777  1.5590  1.5638  2.2583
  377MOL0     H49753   0.805   7.123   5.682 -0.8676  0.0982 -1.4771
  377MOL0     H49754   1.138   7.047   5.802  1.0029  0.1866 -1.9844
  377MOL0     H49755   1.005   7.135   5.741  1.3916  1.3503 -0.6962
  377MOL0     H49756   1.212   7.105   5.606 -0.1615  0.5699 -1.8041
  377MOL0     H49757   1.166   6.937   5.581  0.9240  0.6552 -2.0274
  377MOL0     H49758   1.026   7.179   5.475  0.8714  0.2721  2.3788
  377MOL0     H49759   0.926   7.034   5.491  0.3903 -1.0909 -1.5739
  377MOL0     H49760   1.090   6.908   5.352 -0.5645 -0.3477  0.3085
  377MOL0     H49761   1.023   7.052   5.269  0.0887 -0.7320 -0.3525
  377MOL0     H49762   1.437   7.125   5.270  0.4593  0.3663  3.7127
  377MOL0     H49763   0.855   6.758   5.892 -0.3691 -0.0470  0.4950
  377MOL0     H49764   0.608   6.759   5.955 -1.7774  1.9150  0.4865
  378MOL0     O49765   7.954   4.209   6.555 -0.8345  0.5514 -0.1647
  378MOL0     C49766   7.997   4.164   6.448 -0.6110  1.4159 -1.7808
  378MOL0     O49767   7.928   4.070   6.377 -0.4877 -0.9457 -0.4579
  378MOL0     C49768   7.801   4.023   6.402  0.2005  0.2474 -0.4455
  378MOL0     C49769   7.738   3.983   6.291  0.1962  0.8472 -0.6136
  378MOL0     C49770   7.620   3.911   6.304  0.3969  0.6738  0.7156
  378MOL0     C49771   7.564   3.879   6.425 -0.4336 -0.0054 -0.8000
  378MOL0     O49772   7.455   3.796   6.415 -0.1172  0.1031 -0.2851
  378MOL0     C49773   7.435   3.723   6.532 -0.6585 -0.4894 -0.6603
  378MOL0     C49774   7.305   3.645   6.522 -0.3365 -0.2133  0.7320
  378MOL0     C49775   7.190   3.737   6.546  0.1911  0.1179 -0.3124
  378MOL0     C49776   7.044   3.682   6.546  0.3671  0.0722  0.1949
  378MOL0     C49777   6.991   3.659   6.411 -0.3683  0.4745 -0.2633
  378MOL0     C49778   6.854   3.599   6.412 -0.3663  0.9538  1.1825
  378MOL0     C49779   6.807   3.557   6.277  0.3574  0.2056 -1.7000
  378MOL0     C49780   6.675   3.490   6.302 -0.0404 -0.1933  0.0794
  378MOL0     N49781   6.619   3.451   6.171  0.0263  0.0726  0.0178
  378MOL0     C49782   6.496   3.489   6.139  0.3161 -0.4991 -0.9735
  378MOL0     C49783   6.472   3.424   6.028 -0.5182  0.5744 -0.3933
  378MOL0     C49784   6.360   3.468   5.933 -1.0820 -0.1418  0.3900
  378MOL0     C49785   6.424   3.560   5.827 -0.2629 -0.1687  0.6030
  378MOL0     C49786   6.341   3.593   5.697  0.5454 -0.4582  0.1611
  378MOL0     C49787   6.186   3.604   5.714 -0.3897  0.3245 -0.4042
  378MOL0     O49788   6.166   3.734   5.765 -0.3416  0.6306  0.3360
  378MOL0     C49789   6.034   3.762   5.779  0.2952 -0.8178  0.4908
  378MOL0     C49790   5.959   3.768   5.662 -0.2986 -0.6845 -0.2790
  378MOL0     C49791   5.824   3.778   5.674 -0.0297  0.4308  0.9720
  378MOL0     C49792   5.763   3.783   5.803 -0.2965  1.2329  0.3479
  378MOL0     C49793   5.617   3.784   5.816 -0.9233 -0.4538  0.4265
  378MOL0     O49794   5.561   3.802   5.687  0.5493  0.1240  0.4465
  378MOL0     C49795   5.425   3.787   5.666  0.4788  0.2869 -0.6253
  378MOL0     C49796   5.349   3.683   5.719  0.9723  0.0666 -0.0079
  378MOL0     C49797   5.211   3.662   5.681  0.9480  0.0406 -0.7629
  378MOL0     C49798   5.151   3.741   5.585 -0.4213  0.6696  0.8641
  378MOL0     O49799   5.021   3.737   5.539 -0.1642  0.0483  0.0668
  378MOL0     C49800   4.926   3.658   5.611  0.0868 -0.8311  0.1798
  378MOL0     C49801   4.798   3.630   5.538 -0.9940  0.0730 -0.2503
  378MOL0     C49802   4.708   3.551   5.636  0.2887  0.4476  0.1499
  378MOL0     C49803   4.596   3.486   5.560  0.6389  0.0519  0.4295
  378MOL0     C49804   4.492   3.597   5.534  0.1843  0.1319 -0.1590
  378MOL0     C49805   4.354   3.539   5.511  0.0743 -0.4434  0.2431
  378MOL0     C49806   4.256   3.660   5.492  0.6494 -0.1695  0.1638
  378MOL0     C49807   4.120   3.601   5.458 -0.1420 -0.1141  0.0171
  378MOL0    Cl49808   4.113   3.518   5.295  0.0445  0.1984  0.0903
  378MOL0     C49809   5.234   3.839   5.530 -0.2648  0.8543 -0.3567
  378MOL0     C49810   5.363   3.854   5.566 -0.6230 -0.1969  0.7043
  378MOL0     O49811   5.565   3.769   5.921  0.6847 -0.4197 -0.3718
  378MOL0     C49812   5.839   3.758   5.920  0.0148  0.5120 -0.5456
  378MOL0     C49813   5.975   3.757   5.906 -0.2346 -0.2031  0.0181
  378MOL0     N49814   6.562   3.327   6.009  0.3219  0.2757  0.6119
  378MOL0     N49815   6.654   3.344   6.095 -0.0238 -0.3253 -0.2682
  378MOL0     C49816   7.634   3.926   6.544  0.5960 -0.1656  0.5904
  378MOL0     C49817   7.751   4.005   6.531 -0.0338  0.0195 -0.2883
  378MOL0     C49818   8.132   4.196   6.409 -0.1162  1.1602 -0.0252
  378MOL0     C49819   8.172   4.153   6.282 -0.0544  0.1132  0.2861
  378MOL0     C49820   8.293   4.196   6.230 -0.1909  0.6428 -0.1297
  378MOL0     C49821   8.383   4.274   6.298  0.4158  0.2710 -0.8789
  378MOL0     O49822   8.501   4.324   6.245 -0.1494  0.0688 -0.1009
  378MOL0     C49823   8.538   4.281   6.113 -0.4802 -0.0366  0.9531
  378MOL0     C49824   8.678   4.332   6.066 -0.0872 -0.6033  0.6616
  378MOL0     C49825   8.777   4.259   6.157 -0.2663  0.7107 -0.2611
  378MOL0     C49826   8.923   4.291   6.130  0.0137  0.4065 -0.3293
  378MOL0     C49827   8.958   4.271   5.995  0.9004 -0.2995  0.6706
  378MOL0     C49828   8.985   4.250   5.877  0.1199  0.2413 -0.1181
  378MOL0     C49829   8.345   4.316   6.429  0.0431 -0.1127  0.4001
  378MOL0     C49830   8.218   4.283   6.479  0.0460  0.6041 -0.3598
  378MOL0     H49831   7.781   3.995   6.192 -1.7632  1.4520 -1.4368
  378MOL0     H49832   7.562   3.885   6.216 -2.4788  0.5402  2.5173
  378MOL0     H49833   7.434   3.779   6.626  1.8831  0.8090 -1.3239
  378MOL0     H49834   7.514   3.647   6.543  0.7796  0.9929 -0.4192
  378MOL0     H49835   7.301   3.575   6.606 -2.1781  1.8598  2.4981
  378MOL0     H49836   7.287   3.591   6.429 -4.1369 -3.3204  2.9411
  378MOL0     H49837   7.180   3.815   6.470 -3.4643 -0.6122 -0.7711
  378MOL0     H49838   7.213   3.775   6.646  4.0924 -1.2474 -0.5512
  378MOL0     H49839   7.032   3.598   6.615  4.0449 -0.2539  0.6274
  378MOL0     H49840   6.977   3.760   6.582 -2.0483 -1.6240 -0.3801
  378MOL0     H49841   7.057   3.580   6.374 -0.9008  0.4275 -1.1317
  378MOL0     H49842   6.986   3.743   6.341  0.2494  0.9665  0.2700
  378MOL0     H49843   6.792   3.678   6.456  0.0502  1.7211  0.4370
  378MOL0     H49844   6.858   3.512   6.478  3.1738 -0.3662 -0.4859
  378MOL0     H49845   6.802   3.645   6.211  1.5882  1.0995 -0.6649
  378MOL0     H49846   6.870   3.485   6.224 -1.3881 -0.6752 -2.6264
  378MOL0     H49847   6.608   3.563   6.350  0.7270  1.7238 -1.6103
  378MOL0     H49848   6.683   3.403   6.368 -0.4402 -1.7496 -1.8198
  378MOL0     H49849   6.440   3.567   6.190  0.8042 -2.1594  2.3013
  378MOL0     H49850   6.279   3.523   5.981  0.9611  1.2803  2.4525
  378MOL0     H49851   6.321   3.383   5.877  0.4089  0.0221 -0.9860
  378MOL0     H49852   6.521   3.521   5.795 -0.9464 -0.1494 -1.6609
  378MOL0     H49853   6.454   3.655   5.871  3.7336 -0.4326 -1.0978
  378MOL0     H49854   6.368   3.680   5.637 -1.2260 -0.9205 -1.3739
  378MOL0     H49855   6.356   3.504   5.635 -0.7487  0.3558 -1.3724
  378MOL0     H49856   6.145   3.528   5.781  3.1560 -1.4599 -0.0189
  378MOL0     H49857   6.127   3.606   5.621 -0.9313  0.2919 -0.0673
  378MOL0     H49858   6.013   3.779   5.568 -1.0414 -0.2993 -0.6696
  378MOL0     H49859   5.765   3.771   5.583 -0.9547  0.1992  1.5743
  378MOL0     H49860   5.387   3.614   5.794  1.1398  0.9879  0.7615
  378MOL0     H49861   5.162   3.583   5.736  3.7494 -0.8688  0.6140
  378MOL0     H49862   4.906   3.722   5.697  0.7883  1.7260 -1.4686
  378MOL0     H49863   4.975   3.563   5.638  0.9664 -0.4369  0.0186
  378MOL0     H49864   4.812   3.569   5.449  0.2223  0.0425 -0.0547
  378MOL0     H49865   4.752   3.728   5.520 -1.2164  0.5169  2.3393
  378MOL0     H49866   4.669   3.617   5.715  1.8822 -1.5787  2.8242
  378MOL0     H49867   4.753   3.467   5.689 -4.5034 -0.7429  3.0137
  378MOL0     H49868   4.622   3.439   5.465  3.6457  0.7886  0.7908
  378MOL0     H49869   4.552   3.407   5.622  0.6902  0.3888  0.9020
  378MOL0     H49870   4.526   3.660   5.452 -1.8601 -0.8174 -1.8412
  378MOL0     H49871   4.477   3.657   5.624 -0.4119 -0.2158 -0.0186
  378MOL0     H49872   4.330   3.488   5.605 -0.5758 -3.4054 -1.4146
  378MOL0     H49873   4.344   3.467   5.429  0.6763 -0.3668  0.1032
  378MOL0     H49874   4.239   3.731   5.573 -0.9662 -1.7173  1.2595
  378MOL0     H49875   4.295   3.727   5.415  1.2841  2.3814  2.5615
  378MOL0     H49876   4.038   3.672   5.451 -1.2235 -1.1490  1.4174
  378MOL0     H49877   4.097   3.528   5.537 -1.5899  1.3032  0.9731
  378MOL0     H49878   5.186   3.891   5.447  3.0920  3.7365 -0.7284
  378MOL0     H49879   5.429   3.922   5.513 -1.4777 -0.1504 -0.3319
  378MOL0     H49880   5.777   3.744   6.008 -1.2825  2.2669 -1.1101
  378MOL0     H49881   6.033   3.748   5.997  1.5559 -5.4842 -1.3104
  378MOL0     H49882   7.595   3.898   6.641  3.1640 -0.1425  1.7030
  378MOL0     H49883   7.811   4.030   6.618  0.8038 -1.1622 -0.5079
  378MOL0     H49884   8.106   4.087   6.227 -2.3888  0.7828  2.0903
  378MOL0     H49885   8.316   4.155   6.133 -1.0844 -0.5474  0.1259
  378MOL0     H49886   8.469   4.309   6.033 -1.7395 -3.6443  0.5764
  378MOL0     H49887   8.542   4.171   6.111 -2.9697 -0.1835  1.0931
  378MOL0     H49888   8.688   4.309   5.960  0.2408 -1.0260  0.7818
  378MOL0     H49889   8.690   4.440   6.070  0.4128 -0.5327 -1.7171
  378MOL0     H49890   8.764   4.151   6.145 -0.0194  0.9095 -2.9983
  378MOL0     H49891   8.757   4.280   6.262 -0.9921  2.4282 -0.7073
  378MOL0     H49892   8.933   4.398   6.154  0.0438 -0.2967  3.4130
  378MOL0     H49893   8.982   4.224   6.193 -1.5482  0.3459  1.1353
  378MOL0     H49894   9.005   4.221   5.777 -1.9025 -1.1600 -0.1702
  378MOL0     H49895   8.412   4.375   6.491 -1.1276  0.5379  1.0794
  378MOL0     H49896   8.196   4.314   6.581  0.0906 -1.1587  0.2218
  379MOL0     O49897   7.539   8.997   4.495 -0.4950 -0.2472  1.0849
  379MOL0     C49898   7.520   8.881   4.463 -1.0890  0.5182  0.5966
  379MOL0     O49899   7.398   8.819   4.455  1.0287 -0.6000  0.0615
  379MOL0     C49900   7.279   8.885   4.457 -0.0418 -0.2269 -0.1383
  379MOL0     C49901   7.248   8.970   4.359 -0.6922  0.1860  0.6505
  379MOL0     C49902   7.127   9.042   4.369  0.1378  0.2209  1.2274
  379MOL0     C49903   7.034   9.029   4.479 -0.6160 -0.6471  0.5405
  379MOL0     O49904   6.922   9.112   4.489 -0.0729 -0.6666 -0.4872
  379MOL0     C49905   6.817   9.078   4.584  0.2030  0.2029 -0.3190
  379MOL0     C49906   6.683   9.088   4.526 -0.4378 -1.1899  1.3172
  379MOL0     C49907   6.576   9.051   4.622 -0.4745  0.1318  0.5090
  379MOL0     C49908   6.436   9.080   4.573  1.0775  0.5678 -0.1914
  379MOL0     C49909   6.343   9.103   4.694  0.1884  0.3034  0.4971
  379MOL0     C49910   6.330   8.995   4.799 -0.1748 -0.0261 -0.5773
  379MOL0     C49911   6.226   9.034   4.901 -0.4329 -0.3227  0.1876
  379MOL0     C49912   6.292   9.116   5.014 -0.1404  0.4276 -0.9376
  379MOL0     N49913   6.191   9.156   5.122 -0.6740  1.1118 -0.6675
  379MOL0     C49914   6.108   9.268   5.092 -0.3677 -0.0661 -0.4476
  379MOL0     C49915   6.022   9.272   5.193 -0.2246  0.4834 -0.3624
  379MOL0     C49916   5.927   9.386   5.226  0.8625 -0.1268  0.1946
  379MOL0     C49917   5.789   9.341   5.223 -0.4598 -0.2285 -0.4244
  379MOL0     C49918   5.752   9.234   5.123 -0.9230 -0.2394 -0.1647
  379MOL0     C49919   5.603   9.203   5.131  1.2009  0.4426  1.1516
  379MOL0     O49920   5.567   9.117   5.030 -0.5674 -0.8270  0.5939
  379MOL0     C49921   5.435   9.092   4.997 -0.1368  0.8857  0.0387
  379MOL0     C49922   5.334   9.115   5.090 -0.7513 -0.9038  0.2315
  379MOL0     C49923   5.205   9.077   5.051 -1.0864  0.9886  0.0628
  379MOL0     C49924   5.167   9.023   4.930  0.3624 -0.3810  0.0393
  379MOL0     C49925   5.026   8.993   4.893 -0.2422 -0.1844 -0.8379
  379MOL0     O49926   4.936   9.043   4.978 -0.1960 -0.4634 -0.7498
  379MOL0     C49927   4.802   9.066   4.944  1.5453  0.1455 -0.2847
  379MOL0     C49928   4.758   9.091   4.816 -0.8393 -0.1457  0.6055
  379MOL0     C49929   4.621   9.085   4.788 -0.1639  0.2926 -0.1806
  379MOL0     C49930   4.529   9.075   4.891 -0.3259  0.1601  0.0153
  379MOL0     O49931   4.399   9.072   4.862  0.0548  0.5853  0.1790
  379MOL0     C49932   4.359   8.970   4.775 -0.2002 -0.3247  0.3099
  379MOL0     C49933   4.209   8.953   4.761  0.0661  0.7482  0.1182
  379MOL0     C49934   4.150   9.069   4.671 -0.5117 -0.1838  0.2521
  379MOL0     C49935   4.007   9.035   4.634  0.3011  0.1365 -0.4130
  379MOL0     C49936   3.962   9.111   4.512 -0.0010 -0.3479  0.1549
  379MOL0     C49937   3.816   9.155   4.515  0.6804 -0.2480  0.0202
  379MOL0     C49938   3.781   9.260   4.404  0.3991  0.2202 -0.2390
  379MOL0     C49939   3.759   9.186   4.270 -0.2333 -0.5436 -0.9314
  379MOL0    Cl49940   3.618   9.071   4.277 -0.1332 -0.4454  0.2097
  379MOL0     C49941   4.570   9.052   5.021  0.1280  0.7936  1.1740
  379MOL0     C49942   4.709   9.035   5.051  0.0893  0.3804  0.2444
  379MOL0     O49943   5.004   8.935   4.790 -0.6096 -0.7779  0.3924
  379MOL0     C49944   5.270   8.988   4.847  0.4721 -0.1057 -0.8019
  379MOL0     C49945   5.402   9.020   4.879  0.4662  0.0882 -1.1170
  379MOL0     N49946   6.042   9.149   5.264 -0.8660 -0.0201 -0.1250
  379MOL0     N49947   6.138   9.079   5.219 -0.5195 -0.2215  0.7313
  379MOL0     C49948   7.071   8.936   4.575 -0.0507  0.5793  0.1827
  379MOL0     C49949   7.198   8.875   4.575  0.4409  0.3694 -0.7106
  379MOL0     C49950   7.646   8.811   4.452  0.3982  0.2370  0.0462
  379MOL0     C49951   7.648   8.669   4.439 -0.4161 -0.0686 -0.6028
  379MOL0     C49952   7.771   8.608   4.423 -0.1019 -0.0322 -0.6113
  379MOL0     C49953   7.891   8.672   4.415  0.1537  0.3392 -0.5061
  379MOL0     O49954   8.000   8.595   4.393  0.0395 -0.1081  0.5652
  379MOL0     C49955   8.130   8.646   4.427  0.2614 -0.0201 -0.5053
  379MOL0     C49956   8.147   8.626   4.573 -0.1255  0.0927 -0.7192
  379MOL0     C49957   8.131   8.478   4.600  0.4060 -0.1145 -1.6928
  379MOL0     C49958   8.168   8.446   4.748  0.5521  0.6738  0.5859
  379MOL0     C49959   8.084   8.519   4.853  0.4520 -0.1701  1.1901
  379MOL0     C49960   8.032   8.588   4.941  0.5099 -0.5778 -0.7110
  379MOL0     C49961   7.888   8.810   4.431  0.2101 -0.8959 -0.9077
  379MOL0     C49962   7.766   8.878   4.439  0.2070  0.4181  0.3639
  379MOL0     H49963   7.301   8.981   4.265 -0.8673 -1.9770  0.2553
  379MOL0     H49964   7.107   9.103   4.282  1.1945 -1.8248 -0.5543
  379MOL0     H49965   6.817   9.159   4.658  1.2222  0.4953 -0.6178
  379MOL0     H49966   6.829   8.987   4.644 -2.9095 -0.3355 -0.3688
  379MOL0     H49967   6.669   9.038   4.430  2.2395  3.0449 -1.6376
  379MOL0     H49968   6.666   9.194   4.506 -0.1183 -0.6226  3.7251
  379MOL0     H49969   6.602   9.113   4.708 -0.8970 -0.8618  1.3652
  379MOL0     H49970   6.588   8.945   4.647  2.2460  0.2423  0.0222
  379MOL0     H49971   6.431   9.159   4.497  0.6169 -0.9559 -1.8212
  379MOL0     H49972   6.401   8.996   4.512  3.3759 -1.4745  1.1615
  379MOL0     H49973   6.241   9.125   4.660  1.3886  5.1802 -0.6380
  379MOL0     H49974   6.380   9.192   4.746  1.4756 -0.7532  1.4658
  379MOL0     H49975   6.423   8.971   4.851 -0.0387 -2.8900 -1.9747
  379MOL0     H49976   6.305   8.906   4.741  0.5658  1.5904 -3.5903
  379MOL0     H49977   6.140   9.092   4.864 -0.3615 -0.3884 -0.0833
  379MOL0     H49978   6.179   8.949   4.951  1.0620  0.5429  3.3034
  379MOL0     H49979   6.352   9.205   4.988  1.8941 -0.1747  1.3134
  379MOL0     H49980   6.359   9.037   5.051 -0.5857 -0.5491 -2.1535
  379MOL0     H49981   6.111   9.335   5.007  0.5322 -0.0569 -0.4146
  379MOL0     H49982   5.942   9.466   5.153  0.1534 -3.2215 -3.6324
  379MOL0     H49983   5.950   9.430   5.324 -1.8405  0.2087  0.7603
  379MOL0     H49984   5.728   9.431   5.213 -0.7891 -0.5390 -1.3108
  379MOL0     H49985   5.773   9.295   5.321  1.9724 -1.3731 -0.4825
  379MOL0     H49986   5.764   9.266   5.019 -1.7932 -0.6147 -0.3921
  379MOL0     H49987   5.806   9.141   5.145  1.4972  1.4924  1.7879
  379MOL0     H49988   5.540   9.291   5.118 -1.0323 -1.4391 -2.4456
  379MOL0     H49989   5.581   9.155   5.226 -0.8402  0.4943  0.7558
  379MOL0     H49990   5.352   9.177   5.177 -1.6657  0.5776 -0.5772
  379MOL0     H49991   5.132   9.105   5.126 -0.4959  0.3034  0.9254
  379MOL0     H49992   4.819   9.095   4.727 -2.9144 -0.3498 -0.8853
  379MOL0     H49993   4.582   9.093   4.687  1.1005 -0.3462 -0.7531
  379MOL0     H49994   4.402   8.877   4.811 -2.0798 -1.0022  0.9112
  379MOL0     H49995   4.405   8.983   4.676  2.0214 -0.2863  1.2750
  379MOL0     H49996   4.155   8.944   4.855 -1.2766 -0.1883 -0.7017
  379MOL0     H49997   4.207   8.860   4.703 -0.7602  2.8316 -3.4818
  379MOL0     H49998   4.208   9.077   4.579 -0.3787  2.1078  0.4928
  379MOL0     H49999   4.170   9.167   4.716  2.7106 -0.6887  0.1263
  379MOL0     H50000   3.994   8.928   4.613  4.0520 -0.7795  1.1594
  379MOL0     H50001   3.941   9.065   4.716 -1.9570  0.5578 -2.2741
  379MOL0     H50002   3.967   9.040   4.429 -1.0318  0.1852 -0.3793
  379MOL0     H50003   4.023   9.199   4.493 -0.1191  0.2668  2.3738
  379MOL0     H50004   3.799   9.203   4.612  1.7252 -0.8233  0.5003
  379MOL0     H50005   3.743   9.073   4.509 -0.8641  0.9401  1.4182
  379MOL0     H50006   3.698   9.315   4.448  0.9765  0.6025  0.3770
  379MOL0     H50007   3.855   9.336   4.379 -1.4989  1.7268 -1.6209
  379MOL0     H50008   3.851   9.140   4.232 -0.4037 -0.9325 -0.8709
  379MOL0     H50009   3.733   9.265   4.199  1.6368 -0.3434 -1.4628
  379MOL0     H50010   4.494   9.048   5.098 -0.3831  1.6636  0.7188
  379MOL0     H50011   4.747   9.020   5.151  0.4782 -2.9615 -0.2878
  379MOL0     H50012   5.242   8.933   4.758  0.3121 -0.9046 -0.2745
  379MOL0     H50013   5.482   8.980   4.818  1.4480  0.8218 -0.3429
  379MOL0     H50014   7.007   8.925   4.662 -0.4955 -1.6704 -0.3696
  379MOL0     H50015   7.221   8.813   4.661 -0.5227 -1.7220 -1.9035
  379MOL0     H50016   7.556   8.612   4.439 -0.5776  0.0010  2.6917
  379MOL0     H50017   7.786   8.502   4.406  0.7668 -0.2709  1.3160
  379MOL0     H50018   8.140   8.755   4.422  1.0208  0.2617  3.7334
  379MOL0     H50019   8.215   8.597   4.378  0.8791  2.1516 -1.7458
  379MOL0     H50020   8.247   8.663   4.597  0.4179 -0.5171 -1.9331
  379MOL0     H50021   8.081   8.686   4.635  0.6937  0.4583 -0.1823
  379MOL0     H50022   8.199   8.421   4.537  3.1921  4.8268 -3.8036
  379MOL0     H50023   8.029   8.444   4.583  0.1154  0.5354 -1.2923
  379MOL0     H50024   8.160   8.338   4.759  2.8078  0.3871 -0.0573
  379MOL0     H50025   8.273   8.476   4.759  0.6236  0.4579  0.5054
  379MOL0     H50026   7.962   8.617   5.017 -1.2991 -0.6685 -2.2587
  379MOL0     H50027   7.981   8.866   4.434  0.3023 -1.0153 -1.4795
  379MOL0     H50028   7.771   8.986   4.450 -0.0544  0.3563  1.1626
  380MOL0     O50029   5.653   5.813   7.280 -0.7638  0.6072 -0.6890
  380MOL0     C50030   5.744   5.751   7.335 -1.1927 -0.8010  0.2368
  380MOL0     O50031   5.735   5.664   7.443  0.1148  0.2943  0.0552
  380MOL0     C50032   5.614   5.667   7.508  0.4350  0.8319  0.7824
  380MOL0     C50033   5.589   5.771   7.603 -0.0071  0.4311  0.0635
  380MOL0     C50034   5.469   5.767   7.672 -0.4439 -0.1155 -0.5382
  380MOL0     C50035   5.376   5.656   7.677  0.3044 -0.5998 -0.5660
  380MOL0     O50036   5.265   5.640   7.757 -0.1929  0.4085  0.7371
  380MOL0     C50037   5.297   5.582   7.885 -0.1899  0.3470  0.3704
  380MOL0     C50038   5.309   5.698   7.988  1.6101 -0.6870  0.2630
  380MOL0     C50039   5.325   5.652   8.123  0.0329  0.6622 -0.3074
  380MOL0     C50040   5.449   5.570   8.163 -0.6493  0.3156  0.0731
  380MOL0     C50041   5.440   5.540   8.313 -0.3428  0.1450  0.0833
  380MOL0     C50042   5.562   5.461   8.355 -0.1883 -0.2874 -0.2366
  380MOL0     C50043   5.569   5.401   8.503 -0.3150 -0.3445 -0.1477
  380MOL0     C50044   5.587   5.493   8.626 -0.3525  0.6056  0.8080
  380MOL0     N50045   5.714   5.563   8.635  0.1892  0.3558 -0.3695
  380MOL0     C50046   5.838   5.501   8.672 -0.1320 -0.4785 -0.3411
  380MOL0     C50047   5.932   5.594   8.648 -0.0069 -0.2847  0.3452
  380MOL0     C50048   6.079   5.575   8.651  0.0952 -0.2726  0.4095
  380MOL0     C50049   6.130   5.554   8.799  0.8758 -0.0263  0.4605
  380MOL0     C50050   6.205   5.675   8.843  0.1148 -0.7964  0.9847
  380MOL0     C50051   6.335   5.713   8.755 -0.0591  0.2976 -0.7057
  380MOL0     O50052   6.416   5.814   8.824 -0.3123  0.2570  0.1924
  380MOL0     C50053   6.538   5.845   8.769 -0.0802 -0.1283  0.5835
  380MOL0     C50054   6.601   5.795   8.654  1.0541 -0.3958 -0.1053
  380MOL0     C50055   6.719   5.844   8.609  0.1427 -0.2861 -0.3802
  380MOL0     C50056   6.786   5.944   8.676  0.5624 -0.2648  0.7496
  380MOL0     C50057   6.928   5.970   8.639 -0.4961  0.1689  0.3967
  380MOL0     O50058   7.005   6.010   8.743  0.3080  0.2879  0.8402
  380MOL0     C50059   7.125   6.064   8.725 -0.3000 -0.2125 -0.0263
  380MOL0     C50060   7.233   5.978   8.692 -0.7260  0.2172 -0.8832
  380MOL0     C50061   7.364   6.033   8.692  0.8790  0.1315 -0.2702
  380MOL0     C50062   7.379   6.175   8.699 -0.7259  0.9364 -0.0952
  380MOL0     O50063   7.503   6.232   8.691  0.4572 -0.4302 -0.0979
  380MOL0     C50064   7.606   6.149   8.623  0.2998 -0.9513 -0.2627
  380MOL0     C50065   7.723   6.237   8.570 -0.0245  0.8328 -0.0508
  380MOL0     C50066   7.847   6.149   8.540 -0.4026  0.3676  0.2840
  380MOL0     C50067   7.965   6.226   8.480 -0.1110 -0.3036  0.3276
  380MOL0     C50068   8.091   6.139   8.477 -1.0747  0.3027  0.9048
  380MOL0     C50069   8.198   6.181   8.379  0.3283  0.6175  0.5469
  380MOL0     C50070   8.327   6.103   8.403 -0.6124 -0.9575  0.2077
  380MOL0     C50071   8.386   6.056   8.267 -0.6014  0.5983 -0.5414
  380MOL0    Cl50072   8.308   5.916   8.186  0.1075 -0.6706 -0.0824
  380MOL0     C50073   7.270   6.262   8.705 -0.2207  0.1854 -0.4581
  380MOL0     C50074   7.143   6.207   8.724 -0.2921 -0.4899 -0.4779
  380MOL0     O50075   6.964   5.962   8.521  0.0408  0.1703  0.3332
  380MOL0     C50076   6.733   5.996   8.796  0.2927  0.1741 -0.1749
  380MOL0     C50077   6.606   5.942   8.836 -0.6240  0.6280 -0.2567
  380MOL0     N50078   5.871   5.712   8.610 -0.4645  0.0982  0.5678
  380MOL0     N50079   5.747   5.688   8.598  0.7291 -0.0156 -0.2076
  380MOL0     C50080   5.404   5.553   7.582  0.4980  1.1978  0.9162
  380MOL0     C50081   5.512   5.572   7.491 -0.3265  0.2143  0.7575
  380MOL0     C50082   5.879   5.751   7.268  0.1989  0.7362  0.4128
  380MOL0     C50083   5.912   5.850   7.179 -0.2099  0.6562  0.3263
  380MOL0     C50084   6.041   5.863   7.117  0.0582 -0.3939 -0.2698
  380MOL0     C50085   6.138   5.766   7.145 -0.7109  0.9842 -0.0547
  380MOL0     O50086   6.263   5.752   7.091  0.1647 -0.4033  0.4194
  380MOL0     C50087   6.309   5.863   7.015  0.6204  0.2585  0.5254
  380MOL0     C50088   6.433   5.817   6.930 -0.0004 -0.1434  0.1456
  380MOL0     C50089   6.569   5.830   7.000  0.1297 -0.8741 -0.2750
  380MOL0     C50090   6.681   5.780   6.908  0.2637 -0.7036 -0.5495
  380MOL0     C50091   6.811   5.813   6.952 -1.3815 -0.3080 -0.0442
  380MOL0     C50092   6.921   5.850   6.989  0.2906 -0.7917 -0.7484
  380MOL0     C50093   6.106   5.668   7.240  0.2375  0.3067 -0.0996
  380MOL0     C50094   5.977   5.659   7.296  0.2334 -0.1648  0.0500
  380MOL0     H50095   5.665   5.848   7.610 -1.4374  1.9354 -0.5105
  380MOL0     H50096   5.450   5.849   7.741  1.3266 -1.0798  1.2218
  380MOL0     H50097   5.388   5.521   7.882  1.2380  2.3698  0.2045
  380MOL0     H50098   5.210   5.521   7.910  1.3403 -1.3647  1.8330
  380MOL0     H50099   5.216   5.756   7.998  0.7480 -1.8322 -0.7570
  380MOL0     H50100   5.390   5.761   7.952  1.1479 -0.7523 -0.9454
  380MOL0     H50101   5.233   5.599   8.148  0.9754  0.5619  3.5412
  380MOL0     H50102   5.313   5.744   8.181 -1.4064  0.6047 -0.4800
  380MOL0     H50103   5.453   5.482   8.099 -0.1022  1.9207 -2.2351
  380MOL0     H50104   5.542   5.624   8.141  0.4545 -1.0973  1.1186
  380MOL0     H50105   5.359   5.466   8.322 -1.5195  1.2321 -1.0771
  380MOL0     H50106   5.425   5.629   8.375 -2.8329  0.2449 -0.5296
  380MOL0     H50107   5.659   5.510   8.347 -0.4783  1.6702  4.7081
  380MOL0     H50108   5.560   5.383   8.278 -0.4169  0.3221 -0.8678
  380MOL0     H50109   5.477   5.344   8.516 -0.9327  0.5079 -0.7354
  380MOL0     H50110   5.656   5.335   8.499 -0.1783 -0.1918  0.2154
  380MOL0     H50111   5.585   5.415   8.703 -1.6608 -1.7825 -1.4987
  380MOL0     H50112   5.502   5.556   8.652 -1.7615 -1.7415  2.3315
  380MOL0     H50113   5.860   5.401   8.710  2.6173  0.5144  0.9467
  380MOL0     H50114   6.131   5.665   8.618 -0.5497 -0.4404 -1.1664
  380MOL0     H50115   6.112   5.491   8.589  0.6835  0.2760 -0.0273
  380MOL0     H50116   6.190   5.464   8.787 -0.2564 -0.5512 -1.8865
  380MOL0     H50117   6.050   5.535   8.871  0.5973  2.5382  0.9369
  380MOL0     H50118   6.149   5.768   8.851 -0.6666 -0.6740 -3.5561
  380MOL0     H50119   6.233   5.667   8.949 -2.4028  3.6410  2.2520
  380MOL0     H50120   6.298   5.754   8.660 -1.9459 -0.0814 -0.1766
  380MOL0     H50121   6.393   5.621   8.744 -0.2846 -0.0449  0.7377
  380MOL0     H50122   6.551   5.708   8.613 -2.9328 -0.6911  4.4436
  380MOL0     H50123   6.771   5.796   8.527  2.4061  0.9063  0.2640
  380MOL0     H50124   7.215   5.872   8.711  0.1085  0.2369  0.1038
  380MOL0     H50125   7.447   5.963   8.691  0.3491 -0.5081 -0.2814
  380MOL0     H50126   7.558   6.105   8.535  0.4486  0.4185 -1.0661
  380MOL0     H50127   7.638   6.073   8.694  1.1032  0.2449  0.7113
  380MOL0     H50128   7.743   6.318   8.641 -0.9772 -0.2873  1.5609
  380MOL0     H50129   7.708   6.285   8.473  3.9097  1.3923 -0.5485
  380MOL0     H50130   7.810   6.074   8.469  0.8313 -1.3658  1.4019
  380MOL0     H50131   7.880   6.109   8.636  0.0023  3.7752  1.7288
  380MOL0     H50132   7.942   6.251   8.376  1.5205  0.5889  0.1491
  380MOL0     H50133   7.976   6.320   8.535 -1.4506 -0.7224  1.3694
  380MOL0     H50134   8.062   6.037   8.451  0.7271  0.1762 -0.8023
  380MOL0     H50135   8.128   6.140   8.580 -1.3414 -0.0621  1.0064
  380MOL0     H50136   8.218   6.289   8.388  2.6458  0.2597  0.3123
  380MOL0     H50137   8.157   6.156   8.280 -0.5021  2.0206  0.5106
  380MOL0     H50138   8.400   6.160   8.462 -1.3077 -2.0052  2.1664
  380MOL0     H50139   8.299   6.018   8.465  0.2641 -1.2381  0.2430
  380MOL0     H50140   8.487   6.029   8.300 -1.3626  3.4300  5.2864
  380MOL0     H50141   8.382   6.147   8.207  1.2658  1.5467  0.6825
  380MOL0     H50142   7.292   6.368   8.702  2.3707 -0.2671 -0.3852
  380MOL0     H50143   7.061   6.277   8.741 -0.4140 -1.2814  2.8544
  380MOL0     H50144   6.766   6.077   8.860  0.5150  0.7912 -1.0455
  380MOL0     H50145   6.565   5.979   8.930  1.5896 -0.3058  1.1623
  380MOL0     H50146   5.331   5.473   7.582  1.7449 -0.0235  2.4115
  380MOL0     H50147   5.507   5.498   7.412 -3.1510  1.5301 -0.4242
  380MOL0     H50148   5.831   5.921   7.163 -1.1699 -0.8679 -2.1311
  380MOL0     H50149   6.056   5.949   7.052 -4.1981  1.0564  0.3906
  380MOL0     H50150   6.330   5.957   7.067  2.0040  0.7850 -0.9042
  380MOL0     H50151   6.230   5.870   6.939  3.5019 -0.6716 -2.8533
  380MOL0     H50152   6.426   5.716   6.889  1.3014 -0.4363  0.5716
  380MOL0     H50153   6.433   5.884   6.844  3.4769  1.3588  1.1002
  380MOL0     H50154   6.574   5.780   7.097 -0.5478  2.9324  1.8975
  380MOL0     H50155   6.596   5.934   7.016  2.1275 -1.1627 -1.4728
  380MOL0     H50156   6.667   5.671   6.911  0.7723 -0.8488  4.6126
  380MOL0     H50157   6.667   5.824   6.808  1.2777  2.1059  0.4640
  380MOL0     H50158   7.016   5.884   7.023 -0.1888  0.6835 -0.8176
  380MOL0     H50159   6.185   5.597   7.263 -0.3833  0.0341  1.3326
  380MOL0     H50160   5.966   5.591   7.380  2.2331 -0.3917  0.1868
  381MOL0     O50161   2.707   0.282  10.594 -0.5958 -0.5986 -0.2806
  381MOL0     C50162   2.785   0.378  10.588  0.3880  0.2018 -0.6356
  381MOL0     O50163   2.750   0.505  10.551 -0.6258  1.1201 -0.0179
  381MOL0     C50164   2.615   0.546  10.538  0.2711  0.6195 -0.0461
  381MOL0     C50165   2.581   0.664  10.601  0.0699 -0.3105  0.0747
  381MOL0     C50166   2.445   0.710  10.600  0.8579  1.3319 -0.2609
  381MOL0     C50167   2.346   0.633  10.540  0.1427 -0.1510  0.2576
  381MOL0     O50168   2.207   0.665  10.537 -0.9795  0.3212  0.6015
  381MOL0     C50169   2.150   0.730  10.650 -1.3610 -0.0716  0.6172
  381MOL0     C50170   2.006   0.700  10.657  0.3624  0.3650  0.8170
  381MOL0     C50171   1.981   0.554  10.698 -0.5162  0.3247  0.1099
  381MOL0     C50172   1.825   0.545  10.700 -0.8991  0.6720 -0.9430
  381MOL0     C50173   1.773   0.406  10.759  0.7658 -0.9717  0.1841
  381MOL0     C50174   1.818   0.296  10.673  0.0797  0.0746  0.6550
  381MOL0     C50175   1.735   0.168  10.686 -0.8169 -0.7160 -0.5397
  381MOL0     C50176   1.598   0.185  10.609  0.4614  0.2802  0.4077
  381MOL0     N50177   1.488   0.127  10.696  0.1215  0.1105 -0.7423
  381MOL0     C50178   1.465   0.001  10.757  0.5083 -0.2653  0.4222
  381MOL0     C50179   1.373   0.028  10.854 -0.5326  0.0163  0.5175
  381MOL0     C50180   1.328  -0.070  10.960  0.6956  0.1108  0.3078
  381MOL0     C50181   1.200  -0.022  11.035  0.0433 -0.4721  0.2969
  381MOL0     C50182   1.135  -0.133  11.108  0.0023  0.7831  0.4386
  381MOL0     C50183   1.028  -0.196  11.027  0.4753 -0.1318 -0.1730
  381MOL0     O50184   0.914  -0.111  11.040  0.8110 -0.0344  0.3387
  381MOL0     C50185   0.789  -0.176  11.037 -0.2448  0.1751 -0.5430
  381MOL0     C50186   0.702  -0.151  11.144  0.1359  0.0227 -0.4995
  381MOL0     C50187   0.571  -0.207  11.151 -0.7975 -0.0828 -0.7865
  381MOL0     C50188   0.537  -0.301  11.054  0.0808 -1.0555  0.5335
  381MOL0     C50189   0.421  -0.388  11.067 -0.6713  0.3278 -0.0130
  381MOL0     O50190   0.335  -0.369  11.163 -0.3083  0.2338 -0.5796
  381MOL0     C50191   0.219  -0.443  11.187 -0.3355  1.0572 -0.6223
  381MOL0     C50192   0.150  -0.409  11.299 -0.7334 -0.7418  0.0780
  381MOL0     C50193   0.031  -0.461  11.337  0.0645  0.2851  0.0097
  381MOL0     C50194  -0.022  -0.568  11.263 -0.0504  0.5157 -0.4387
  381MOL0     O50195  -0.144  -0.622  11.315  0.3719  0.4067 -0.4969
  381MOL0     C50196  -0.232  -0.674  11.217 -0.9746  0.0022  0.2444
  381MOL0     C50197  -0.379  -0.657  11.253 -0.6641 -0.2008  0.3485
  381MOL0     C50198  -0.417  -0.717  11.392 -1.0872  0.3332  1.1538
  381MOL0     C50199  -0.560  -0.696  11.427 -1.2412 -0.1175 -0.0607
  381MOL0     C50200  -0.616  -0.805  11.521  0.1252  0.1711  0.0590
  381MOL0     C50201  -0.761  -0.776  11.550 -0.1433  0.1883 -0.2999
  381MOL0     C50202  -0.818  -0.881  11.642 -0.5378  0.3409 -0.0753
  381MOL0     C50203  -0.961  -0.852  11.654 -0.1420  0.6788 -0.7679
  381MOL0    Cl50204  -1.029  -0.896  11.489  0.0160 -0.5006 -0.2935
  381MOL0     C50205   0.045  -0.606  11.141  0.5289  0.0287 -0.0721
  381MOL0     C50206   0.165  -0.542  11.107 -0.4106  0.5207 -0.1503
  381MOL0     O50207   0.418  -0.480  10.988 -0.3262  0.1486  0.1805
  381MOL0     C50208   0.623  -0.317  10.950 -0.4018 -0.5626  0.1489
  381MOL0     C50209   0.743  -0.251  10.932 -1.0364 -0.9249 -0.1640
  381MOL0     N50210   1.343   0.159  10.855  0.2316  0.0171 -0.0250
  381MOL0     N50211   1.396   0.213  10.758 -0.3280  0.4045  0.6572
  381MOL0     C50212   2.389   0.522  10.473  0.1493  0.4361 -0.6078
  381MOL0     C50213   2.518   0.472  10.476 -0.2602  0.3260 -0.2100
  381MOL0     C50214   2.930   0.351  10.608 -0.5161 -0.0785  0.1502
  381MOL0     C50215   2.982   0.227  10.632  0.0150  0.1444  0.7643
  381MOL0     C50216   3.123   0.211  10.636  0.1088 -0.0564  1.0993
  381MOL0     C50217   3.211   0.324  10.638 -0.1333  0.0306 -0.7693
  381MOL0     O50218   3.350   0.332  10.649 -0.0848 -0.1839 -0.3400
  381MOL0     C50219   3.408   0.206  10.698  0.0327  0.7609 -0.8406
  381MOL0     C50220   3.507   0.242  10.814  0.3908 -0.1335 -0.1853
  381MOL0     C50221   3.633   0.325  10.747  0.1608  0.4722 -0.1437
  381MOL0     C50222   3.751   0.322  10.836 -0.7622  0.1225  0.7292
  381MOL0     C50223   3.850   0.401  10.765  0.1514 -0.0219  0.0963
  381MOL0     C50224   3.925   0.482  10.723  0.1762  0.1330 -0.4764
  381MOL0     C50225   3.148   0.454  10.640  0.7145  0.1369  1.0794
  381MOL0     C50226   3.015   0.464  10.616 -0.3834 -0.0805 -0.8906
  381MOL0     H50227   2.645   0.736  10.651 -0.3511  0.0910  0.0486
  381MOL0     H50228   2.419   0.809  10.639 -2.3730  0.9960 -1.3062
  381MOL0     H50229   2.179   0.835  10.643  0.7772 -0.6650 -0.0728
  381MOL0     H50230   2.196   0.698  10.744  1.7165  1.0280 -0.4167
  381MOL0     H50231   1.956   0.723  10.562  1.3447  0.4304  0.3039
  381MOL0     H50232   1.977   0.769  10.737 -0.2105 -0.0750  0.9923
  381MOL0     H50233   2.033   0.528  10.790  0.6264 -2.3084 -1.1545
  381MOL0     H50234   2.021   0.477  10.631  0.5866  0.9512  0.0305
  381MOL0     H50235   1.791   0.622  10.770  0.1063 -0.8078  1.2829
  381MOL0     H50236   1.779   0.574  10.604 -0.5105  2.9973 -0.4833
  381MOL0     H50237   1.665   0.408  10.771  0.6235 -4.5186  0.5129
  381MOL0     H50238   1.799   0.394  10.865  2.5099 -1.1172 -0.2334
  381MOL0     H50239   1.924   0.283  10.693  0.4371 -0.3615 -1.2583
  381MOL0     H50240   1.800   0.326  10.569 -0.1074 -4.1572 -0.7314
  381MOL0     H50241   1.797   0.086  10.650 -0.5649 -0.2445 -1.1859
  381MOL0     H50242   1.723   0.141  10.792 -1.2571  1.0216 -0.1269
  381MOL0     H50243   1.599   0.126  10.517  1.6190 -2.9872  2.3600
  381MOL0     H50244   1.576   0.281  10.562 -0.2060 -1.3053 -2.7955
  381MOL0     H50245   1.523  -0.089  10.736  1.3254  0.3665 -0.1098
  381MOL0     H50246   1.406  -0.087  11.036 -0.8949  1.2211  2.3084
  381MOL0     H50247   1.312  -0.160  10.901  4.0641  0.1719 -0.9377
  381MOL0     H50248   1.130   0.034  10.973 -0.3455 -1.3504 -0.0832
  381MOL0     H50249   1.234   0.051  11.109 -3.1321  0.9026  0.5596
  381MOL0     H50250   1.205  -0.209  11.146 -2.0978 -0.9143  1.1353
  381MOL0     H50251   1.089  -0.100  11.202  3.1239  1.6801  1.7693
  381MOL0     H50252   0.999  -0.287  11.081 -0.7515  1.9597  3.0607
  381MOL0     H50253   1.062  -0.212  10.925 -0.1890 -0.9066 -0.2867
  381MOL0     H50254   0.739  -0.096  11.230 -2.1842  1.0598 -0.0758
  381MOL0     H50255   0.513  -0.180  11.238  1.6711 -0.2733  1.0190
  381MOL0     H50256   0.203  -0.334  11.357  2.1873 -3.4260  1.1529
  381MOL0     H50257  -0.031  -0.412  11.412  1.6826 -0.5871  2.0335
  381MOL0     H50258  -0.205  -0.780  11.208  0.7857  0.2870  1.5792
  381MOL0     H50259  -0.215  -0.623  11.121  0.8201 -0.4254  0.2886
  381MOL0     H50260  -0.440  -0.706  11.177 -0.1751 -1.7730  0.9375
  381MOL0     H50261  -0.401  -0.549  11.254  1.8494  0.3571  0.9579
  381MOL0     H50262  -0.353  -0.668  11.466 -1.0633  2.5380 -0.1985
  381MOL0     H50263  -0.401  -0.823  11.374  0.1344  1.0095 -2.7777
  381MOL0     H50264  -0.573  -0.593  11.462  2.4442  0.0537  1.1757
  381MOL0     H50265  -0.612  -0.714  11.333  1.3039  1.1923 -1.8203
  381MOL0     H50266  -0.563  -0.809  11.616  0.4628 -0.5631 -0.1533
  381MOL0     H50267  -0.606  -0.905  11.477 -2.4760  0.1251 -0.6062
  381MOL0     H50268  -0.808  -0.772  11.451  0.7881 -0.2694 -0.7834
  381MOL0     H50269  -0.777  -0.679  11.597 -2.3127  0.5678 -1.6658
  381MOL0     H50270  -0.785  -0.981  11.612  3.7834  0.7686  2.4038
  381MOL0     H50271  -0.775  -0.864  11.741  1.8122 -0.5791 -0.8813
  381MOL0     H50272  -0.978  -0.750  11.691  2.0674  0.2103  1.8351
  381MOL0     H50273  -1.004  -0.920  11.728  0.4655  1.1905  0.0674
  381MOL0     H50274   0.012  -0.689  11.079  0.4056 -0.1790  0.2668
  381MOL0     H50275   0.209  -0.589  11.020 -3.2958 -2.9700  0.0218
  381MOL0     H50276   0.588  -0.390  10.878 -2.1926 -1.3962  1.7638
  381MOL0     H50277   0.806  -0.265  10.844 -1.9077  1.7690 -1.3425
  381MOL0     H50278   2.319   0.456  10.424 -0.5487  0.4483  0.3323
  381MOL0     H50279   2.544   0.378  10.428  0.6623 -0.3280  1.4840
  381MOL0     H50280   2.919   0.139  10.630  1.7668 -1.1477 -0.2928
  381MOL0     H50281   3.170   0.113  10.644  0.3684  0.1432  2.2076
  381MOL0     H50282   3.455   0.143  10.621 -0.4986  0.0853 -0.6245
  381MOL0     H50283   3.335   0.141  10.749  0.6983  0.8341  0.2404
  381MOL0     H50284   3.462   0.303  10.893  2.1959 -1.0805  1.6740
  381MOL0     H50285   3.545   0.147  10.853 -0.9577 -2.6207 -4.2957
  381MOL0     H50286   3.601   0.428  10.734 -3.5427  0.0668  3.7441
  381MOL0     H50287   3.649   0.274  10.651 -2.1524 -0.6161 -0.0248
  381MOL0     H50288   3.736   0.376  10.931 -1.3864 -0.3275  0.8895
  381MOL0     H50289   3.785   0.221  10.861 -0.5003  0.5389  2.1730
  381MOL0     H50290   4.001   0.537  10.672  1.6162 -3.4541 -2.6348
  381MOL0     H50291   3.207   0.544  10.656  0.7889 -0.0290  1.7843
  381MOL0     H50292   2.975   0.564  10.602 -3.8529 -1.6202 -3.3855
  382MOL0     O50293   2.289  10.735   0.778 -0.6162 -0.8350  0.5887
  382MOL0     C50294   2.337  10.840   0.743 -0.9582  1.0032  0.1919
  382MOL0     O50295   2.269  10.940   0.682 -0.0236  0.8645  0.2764
  382MOL0     C50296   2.133  10.919   0.669 -0.9134 -0.1789 -0.2630
  382MOL0     C50297   2.081  10.854   0.553 -0.5347 -0.5399 -0.0870
  382MOL0     C50298   1.943  10.844   0.539 -0.6273 -0.0587 -0.4274
  382MOL0     C50299   1.853  10.907   0.620 -0.5131 -0.0962  0.3834
  382MOL0     O50300   1.722  10.921   0.578  0.1929  0.0311  0.4344
  382MOL0     C50301   1.623  10.945   0.680  0.4079 -0.6017  0.1257
  382MOL0     C50302   1.481  10.956   0.616 -0.7435  0.1059  0.3261
  382MOL0     C50303   1.374  10.961   0.727 -0.3750  0.3395 -0.7477
  382MOL0     C50304   1.226  10.952   0.682 -0.1456 -0.0284  0.1934
  382MOL0     C50305   1.128  10.900   0.786 -0.1503  1.2398  1.0218
  382MOL0     C50306   0.989  10.943   0.762  0.0986  0.1448  0.5749
  382MOL0     C50307   0.935  10.880   0.629 -0.0925 -0.2785 -0.4176
  382MOL0     C50308   0.786  10.912   0.609  1.6792 -0.2817 -0.0071
  382MOL0     N50309   0.695  10.829   0.686 -0.2483  0.3938 -0.9548
  382MOL0     C50310   0.608  10.738   0.624  0.2531  0.4193  0.1654
  382MOL0     C50311   0.506  10.722   0.713 -0.3154 -0.2918 -0.2307
  382MOL0     C50312   0.396  10.630   0.698 -0.5050 -1.0638  0.1999
  382MOL0     C50313   0.259  10.683   0.754  0.0437  0.5784 -0.4781
  382MOL0     C50314   0.222  10.826   0.717  0.1604  0.5798  0.2685
  382MOL0     C50315   0.079  10.863   0.773  0.6936  0.0927  0.2351
  382MOL0     O50316   0.063  11.004   0.747 -0.1786 -0.3024  0.1930
  382MOL0     C50317  -0.065  11.061   0.765  0.5733  1.0681  0.3009
  382MOL0     C50318  -0.071  11.190   0.742 -0.0297  0.2109  0.4650
  382MOL0     C50319  -0.183  11.268   0.756  0.0724 -0.1843  0.1695
  382MOL0     C50320  -0.297  11.198   0.800 -0.6876 -0.4020 -0.0393
  382MOL0     C50321  -0.428  11.272   0.801 -0.3898  0.0146 -0.3329
  382MOL0     O50322  -0.438  11.408   0.816  0.1215 -0.4734 -0.6643
  382MOL0     C50323  -0.563  11.463   0.804  0.2997  0.2707  1.1135
  382MOL0     C50324  -0.638  11.472   0.919  1.2305  0.5154 -0.7807
  382MOL0     C50325  -0.759  11.545   0.908 -1.0320 -0.2280 -0.3359
  382MOL0     C50326  -0.811  11.591   0.785  0.9472 -0.1501  0.2048
  382MOL0     O50327  -0.925  11.671   0.785  0.2228 -0.2555  0.0285
  382MOL0     C50328  -1.011  11.663   0.896 -0.0426 -0.0856  0.6326
  382MOL0     C50329  -1.150  11.696   0.836 -0.0601 -0.0353 -0.1915
  382MOL0     C50330  -1.271  11.724   0.932 -0.6994  0.4702 -0.4347
  382MOL0     C50331  -1.282  11.866   0.986 -0.9915 -1.1097 -0.4876
  382MOL0     C50332  -1.386  11.889   1.091 -0.7441  0.3858 -0.3695
  382MOL0     C50333  -1.518  11.825   1.056  0.5034 -0.7287  0.2057
  382MOL0     C50334  -1.623  11.904   1.132  0.5024  0.0205  0.6023
  382MOL0     C50335  -1.759  11.824   1.135  0.8549  0.2132 -0.0765
  382MOL0    Cl50336  -1.747  11.682   1.254 -0.0920  0.2523  0.0094
  382MOL0     C50337  -0.737  11.563   0.667 -0.0854 -0.1448 -0.7739
  382MOL0     C50338  -0.612  11.502   0.680  0.3994  0.0130  0.8232
  382MOL0     O50339  -0.525  11.202   0.780  0.3495  0.5761 -0.7652
  382MOL0     C50340  -0.301  11.064   0.827 -0.3245 -0.2826  0.2391
  382MOL0     C50341  -0.184  10.991   0.809  0.1565 -0.1848  0.3628
  382MOL0     N50342   0.534  10.796   0.823 -0.4517 -0.0938 -0.0907
  382MOL0     N50343   0.644  10.859   0.809  0.1019 -0.3155  0.5499
  382MOL0     C50344   1.905  10.984   0.727 -0.5615  0.3943  0.0231
  382MOL0     C50345   2.044  10.984   0.749 -0.1700 -0.0256 -0.1948
  382MOL0     C50346   2.472  10.876   0.798 -0.6646 -0.2079 -0.6747
  382MOL0     C50347   2.571  10.783   0.824  0.2765 -0.1333  0.1986
  382MOL0     C50348   2.702  10.811   0.858  0.0388 -0.7385  0.8660
  382MOL0     C50349   2.733  10.949   0.861  0.0333  1.0496 -0.0405
  382MOL0     O50350   2.861  10.986   0.894  0.3101 -0.8430  0.5456
  382MOL0     C50351   2.927  11.062   0.785  0.3066 -0.0025  0.2753
  382MOL0     C50352   3.075  11.014   0.769  0.8478 -0.5243 -0.8000
  382MOL0     C50353   3.138  11.005   0.911 -0.0463 -0.0702  0.6459
  382MOL0     C50354   3.124  11.139   1.004 -0.2627  0.3452 -0.0013
  382MOL0     C50355   3.221  11.248   0.970  0.7822 -0.2852 -0.1236
  382MOL0     C50356   3.289  11.352   0.968 -0.5575  0.9484  0.8653
  382MOL0     C50357   2.641  11.049   0.831  0.6659 -0.5954 -0.4455
  382MOL0     C50358   2.511  11.006   0.797  0.0926 -0.4519 -0.5794
  382MOL0     H50359   2.148  10.792   0.495  3.0891  1.3743  1.6676
  382MOL0     H50360   1.895  10.788   0.459 -2.7346  0.6774  0.2541
  382MOL0     H50361   1.631  11.042   0.729 -1.4298  0.6008 -1.7585
  382MOL0     H50362   1.616  10.859   0.747  0.3689  1.5131  3.0196
  382MOL0     H50363   1.473  10.884   0.534  1.7932  4.3158 -4.0987
  382MOL0     H50364   1.467  11.047   0.557 -2.9537  0.6498  1.5731
  382MOL0     H50365   1.388  11.052   0.787 -0.3867 -0.2862  0.2352
  382MOL0     H50366   1.388  10.879   0.798 -0.2876  2.9680  2.5137
  382MOL0     H50367   1.194  11.053   0.654  2.6285  0.7070 -0.7473
  382MOL0     H50368   1.227  10.876   0.604  3.6239 -1.4800  1.4064
  382MOL0     H50369   1.156  10.944   0.883 -0.4453  1.2835  1.0869
  382MOL0     H50370   1.136  10.791   0.784  1.8169  1.3444 -1.3631
  382MOL0     H50371   0.981  11.052   0.756  2.2907  0.2890 -3.2876
  382MOL0     H50372   0.929  10.904   0.844  0.4240 -1.6892 -0.0144
  382MOL0     H50373   0.977  10.932   0.542  2.3020 -1.3501  0.0297
  382MOL0     H50374   0.943  10.772   0.620  2.7731 -0.2747  0.9218
  382MOL0     H50375   0.774  10.904   0.501 -0.1577 -3.9653  0.2999
  382MOL0     H50376   0.760  11.015   0.634 -0.1974 -0.6071 -0.5225
  382MOL0     H50377   0.628  10.705   0.523  2.3481  1.4712  0.1615
  382MOL0     H50378   0.418  10.540   0.756 -2.4586 -1.3675  0.5643
  382MOL0     H50379   0.387  10.593   0.596 -2.6862  3.0515 -1.3475
  382MOL0     H50380   0.264  10.674   0.863 -1.5081 -3.0839 -0.5551
  382MOL0     H50381   0.195  10.611   0.702  0.9636  1.3025 -2.7089
  382MOL0     H50382   0.294  10.892   0.766 -1.3419  0.7498  2.4215
  382MOL0     H50383   0.213  10.833   0.608 -1.1575  0.0692  0.3195
  382MOL0     H50384   0.059  10.838   0.877  0.5106  1.5029  0.5583
  382MOL0     H50385   0.005  10.806   0.717  0.4891  0.1358  0.4621
  382MOL0     H50386   0.026  11.232   0.717 -0.6697  0.2972 -2.1512
  382MOL0     H50387  -0.181  11.373   0.729 -0.8069 -0.5393 -1.4225
  382MOL0     H50388  -0.592  11.424   1.005  2.1819 -0.6677 -1.9131
  382MOL0     H50389  -0.800  11.576   1.004  0.1176 -3.1412  1.2242
  382MOL0     H50390  -0.984  11.743   0.965 -1.1213  1.9039 -1.1124
  382MOL0     H50391  -1.013  11.563   0.941  0.3127 -2.1414 -3.4015
  382MOL0     H50392  -1.177  11.610   0.774 -1.0450 -1.2875  1.8521
  382MOL0     H50393  -1.142  11.781   0.768 -1.9263  1.5206  1.4122
  382MOL0     H50394  -1.255  11.660   1.019  1.6780 -1.8341 -2.3930
  382MOL0     H50395  -1.362  11.692   0.882 -0.2196 -1.0028 -0.3906
  382MOL0     H50396  -1.186  11.892   1.031 -1.2826 -3.4496  1.7251
  382MOL0     H50397  -1.303  11.934   0.903 -0.7671 -0.7090 -0.2186
  382MOL0     H50398  -1.388  11.998   1.101  1.4941  0.6540 -2.0321
  382MOL0     H50399  -1.344  11.843   1.181  1.6776  0.7108 -1.2537
  382MOL0     H50400  -1.522  11.716   1.064  1.6453 -0.7242  1.1153
  382MOL0     H50401  -1.542  11.854   0.953 -0.9509  1.5074  1.1033
  382MOL0     H50402  -1.594  11.931   1.234  2.0732 -2.6780  0.9529
  382MOL0     H50403  -1.649  11.996   1.078 -0.4379 -1.4413 -1.5798
  382MOL0     H50404  -1.780  11.789   1.033  1.4162  0.3310 -0.2423
  382MOL0     H50405  -1.846  11.885   1.157  1.3405  1.6620 -1.8931
  382MOL0     H50406  -0.779  11.588   0.570  0.0042 -2.1044 -1.3542
  382MOL0     H50407  -0.553  11.489   0.590 -0.7480 -1.4535  0.2298
  382MOL0     H50408  -0.390  11.014   0.864 -1.0030  2.0917  2.0621
  382MOL0     H50409  -0.180  10.883   0.819  0.1282 -0.0890  1.5311
  382MOL0     H50410   1.853  11.061   0.784  1.9433  2.8387 -0.7718
  382MOL0     H50411   2.091  11.036   0.833 -1.3721 -1.4152  1.4169
  382MOL0     H50412   2.536  10.680   0.824  0.4790 -0.2138 -1.0965
  382MOL0     H50413   2.788  10.745   0.864 -0.5268 -1.5840 -0.1765
  382MOL0     H50414   2.910  11.168   0.808  1.2187 -0.2008  2.0669
  382MOL0     H50415   2.882  11.048   0.686  1.4742 -1.3071 -0.0999
  382MOL0     H50416   3.070  10.925   0.705 -0.3727 -0.0420 -1.4064
  382MOL0     H50417   3.125  11.090   0.708  0.0350 -0.8135 -1.8587
  382MOL0     H50418   3.245  10.985   0.909  0.1577  0.6151  2.5656
  382MOL0     H50419   3.102  10.916   0.964  0.5432 -0.6783  0.0461
  382MOL0     H50420   3.028  11.191   1.008 -1.4937 -1.8607  2.4438
  382MOL0     H50421   3.148  11.096   1.102 -0.9647 -0.2901 -0.0966
  382MOL0     H50422   3.344  11.444   0.977 -1.3253  1.4224  0.7877
  382MOL0     H50423   2.669  11.154   0.824 -2.5150  0.5205  1.3382
  382MOL0     H50424   2.442  11.084   0.764 -1.4130 -2.0925 -1.4973
  383MOL0     O50425   3.451   0.615   6.405 -0.3410 -0.0434 -0.2209
  383MOL0     C50426   3.444   0.574   6.520 -0.6612  0.4822 -1.3133
  383MOL0     O50427   3.327   0.566   6.597 -0.6135 -0.1931  0.0881
  383MOL0     C50428   3.195   0.541   6.546 -0.8320 -0.5620  0.1652
  383MOL0     C50429   3.169   0.514   6.418 -0.1863 -0.0038  0.0301
  383MOL0     C50430   3.042   0.488   6.380  0.7455  0.0928  1.1015
  383MOL0     C50431   2.932   0.490   6.471  0.0726  1.2370  0.1852
  383MOL0     O50432   2.802   0.457   6.437 -0.7641  0.0538  0.3153
  383MOL0     C50433   2.728   0.574   6.393  0.1252 -0.3846 -0.0873
  383MOL0     C50434   2.584   0.549   6.426  0.7901  0.4423  0.3953
  383MOL0     C50435   2.515   0.452   6.325 -0.3067  1.0340 -0.3621
  383MOL0     C50436   2.474   0.514   6.192  0.0601 -0.4149 -0.0111
  383MOL0     C50437   2.404   0.415   6.108 -0.1924  0.1387  0.1271
  383MOL0     C50438   2.264   0.378   6.158  0.0320  0.5209  0.1634
  383MOL0     C50439   2.203   0.254   6.083 -0.3060  0.4886  1.0684
  383MOL0     C50440   2.207   0.252   5.926  0.7451 -0.5647 -0.1896
  383MOL0     N50441   2.133   0.140   5.873  0.6146 -0.0040  0.0782
  383MOL0     C50442   2.030   0.070   5.933  0.0908 -0.9425 -0.4097
  383MOL0     C50443   1.985  -0.014   5.839 -0.3499  0.1632 -0.4627
  383MOL0     C50444   1.864  -0.105   5.838  0.8067  0.2008 -0.7690
  383MOL0     C50445   1.733  -0.029   5.848 -0.3513 -0.2667  0.0225
  383MOL0     C50446   1.610  -0.126   5.835  0.2985  0.3635  0.1317
  383MOL0     C50447   1.479  -0.057   5.813  0.3386  0.3372 -1.0176
  383MOL0     O50448   1.374  -0.152   5.785  0.5251 -0.2754  0.4845
  383MOL0     C50449   1.237  -0.121   5.799 -0.8553 -0.0462 -1.0516
  383MOL0     C50450   1.140  -0.218   5.785 -0.3690 -0.9673  0.0140
  383MOL0     C50451   1.002  -0.192   5.792 -0.5596  0.5711 -0.2363
  383MOL0     C50452   0.963  -0.060   5.814  0.3391 -0.6277 -0.3808
  383MOL0     C50453   0.813  -0.033   5.815  0.9616  1.0890 -0.4092
  383MOL0     O50454   0.731  -0.154   5.793  0.1774 -0.1603 -0.1370
  383MOL0     C50455   0.593  -0.125   5.793 -0.2259  0.6070 -0.1097
  383MOL0     C50456   0.529  -0.089   5.914 -0.5087 -0.1735 -0.0784
  383MOL0     C50457   0.394  -0.045   5.900  0.5134 -0.0997  0.7345
  383MOL0     C50458   0.320  -0.045   5.788  0.6678 -0.2154  0.2975
  383MOL0     O50459   0.188  -0.014   5.798 -0.3320  0.2437  0.6129
  383MOL0     C50460   0.168   0.130   5.785 -0.4936  0.4626 -0.1816
  383MOL0     C50461   0.014   0.163   5.809 -0.4984 -0.1547  0.5593
  383MOL0     C50462  -0.064   0.156   5.677 -0.4669  0.1712  0.0913
  383MOL0     C50463  -0.216   0.180   5.690  0.0330 -0.6465  0.0490
  383MOL0     C50464  -0.277   0.137   5.553  0.3630  0.0295  0.4199
  383MOL0     C50465  -0.431   0.174   5.560 -0.4536 -1.3682 -0.1613
  383MOL0     C50466  -0.505   0.120   5.435  0.8954 -0.5456  0.5660
  383MOL0     C50467  -0.635   0.055   5.474  0.3408 -0.2912  0.3230
  383MOL0    Cl50468  -0.622  -0.070   5.607  0.0792  0.3257  0.2752
  383MOL0     C50469   0.390  -0.084   5.669  0.6410 -0.5576 -0.0917
  383MOL0     C50470   0.519  -0.133   5.671  0.8961  0.0192 -1.0766
  383MOL0     O50471   0.772   0.081   5.811 -0.3896  0.2555 -0.2724
  383MOL0     C50472   1.051   0.038   5.866 -0.4022 -0.3573 -0.3040
  383MOL0     C50473   1.191   0.003   5.860  0.3622  0.8740  0.5019
  383MOL0     N50474   2.063   0.005   5.726  0.0764  0.6001 -0.1483
  383MOL0     N50475   2.161   0.091   5.750  0.7718 -0.8092 -0.9062
  383MOL0     C50476   2.960   0.512   6.602  0.4572  0.4628  0.0207
  383MOL0     C50477   3.089   0.533   6.645  0.2724 -0.3758  0.1846
  383MOL0     C50478   3.568   0.580   6.594  0.3154  0.9823  1.3496
  383MOL0     C50479   3.688   0.570   6.515 -0.2636 -0.3742  0.2301
  383MOL0     C50480   3.817   0.591   6.562 -0.2741 -0.9088  0.5594
  383MOL0     C50481   3.831   0.643   6.692 -0.4851 -0.3380 -0.3161
  383MOL0     O50482   3.951   0.669   6.753 -0.3496  0.3444  0.1897
  383MOL0     C50483   4.074   0.643   6.688 -0.5700  0.8367  0.1927
  383MOL0     C50484   4.110   0.496   6.670  0.0847 -0.3597 -0.1468
  383MOL0     C50485   4.171   0.435   6.797  0.3316 -0.0346 -0.3369
  383MOL0     C50486   4.299   0.502   6.848 -0.1053  0.1808  0.3501
  383MOL0     C50487   4.394   0.411   6.913  1.2770 -0.7732  0.1621
  383MOL0     C50488   4.482   0.360   6.964  0.5637  1.2112 -1.1232
  383MOL0     C50489   3.710   0.659   6.773 -1.4312  0.6936  0.8419
  383MOL0     C50490   3.585   0.626   6.719 -0.3120  0.5181  0.8293
  383MOL0     H50491   3.235   0.500   6.333 -0.3119 -1.8616  0.1912
  383MOL0     H50492   3.030   0.468   6.273 -1.3653 -1.8067  1.6070
  383MOL0     H50493   2.742   0.588   6.286 -2.1309 -0.3654 -0.4380
  383MOL0     H50494   2.755   0.671   6.436  3.2676 -0.1677 -2.2390
  383MOL0     H50495   2.541   0.649   6.415 -0.0049  0.5791  3.7209
  383MOL0     H50496   2.577   0.507   6.527  1.6939 -2.3470 -0.6223
  383MOL0     H50497   2.429   0.418   6.383  0.8559 -3.3910 -0.9082
  383MOL0     H50498   2.575   0.361   6.318  0.2796  1.3746  0.0817
  383MOL0     H50499   2.412   0.602   6.213 -1.1841 -0.4452 -3.1073
  383MOL0     H50500   2.562   0.544   6.134  0.4778 -0.8293  0.3946
  383MOL0     H50501   2.471   0.329   6.118  0.8263  0.8665 -0.3147
  383MOL0     H50502   2.398   0.459   6.007 -1.6371 -0.3623 -0.0324
  383MOL0     H50503   2.193   0.461   6.155  1.5390  1.8646 -2.1861
  383MOL0     H50504   2.275   0.358   6.265 -3.0009  0.1977  0.4780
  383MOL0     H50505   2.266   0.173   6.120 -0.8316 -0.7673 -0.6403
  383MOL0     H50506   2.100   0.248   6.120 -1.7796 -0.3512 -2.7663
  383MOL0     H50507   2.308   0.242   5.883  0.9818 -1.7012  0.5810
  383MOL0     H50508   2.160   0.341   5.883 -0.2965 -1.0794 -0.1339
  383MOL0     H50509   1.986   0.079   6.031 -0.7760  4.0755 -0.9814
  383MOL0     H50510   1.881  -0.180   5.917 -2.1135 -2.3378 -2.3305
  383MOL0     H50511   1.873  -0.168   5.749  1.0727  0.0044 -0.6066
  383MOL0     H50512   1.733   0.044   5.766 -1.1799  1.5807  1.5803
  383MOL0     H50513   1.738   0.016   5.948 -0.0024 -0.3238  0.0320
  383MOL0     H50514   1.615  -0.187   5.745  0.9178  2.9361 -1.6874
  383MOL0     H50515   1.608  -0.175   5.933  1.7654  2.5652  1.3419
  383MOL0     H50516   1.486   0.007   5.724 -1.8179 -1.6753 -2.7759
  383MOL0     H50517   1.456  -0.005   5.906  3.5186  1.0712 -0.5460
  383MOL0     H50518   1.169  -0.319   5.758 -0.3606 -0.5823 -1.5205
  383MOL0     H50519   0.933  -0.275   5.780 -1.6542  0.7583  3.4434
  383MOL0     H50520   0.580  -0.076   6.009  1.4428  1.2889 -1.2630
  383MOL0     H50521   0.343  -0.030   5.994 -1.6561 -2.2164 -0.0038
  383MOL0     H50522   0.197   0.175   5.690  0.5379  4.1490  1.7000
  383MOL0     H50523   0.230   0.176   5.862 -0.0922  0.7742 -0.6862
  383MOL0     H50524  -0.003   0.263   5.851 -4.3593 -1.3862  2.3129
  383MOL0     H50525  -0.038   0.097   5.878 -2.6831  0.8561 -0.0341
  383MOL0     H50526  -0.065   0.055   5.635 -1.5983 -0.2447  1.0737
  383MOL0     H50527  -0.028   0.217   5.594  0.1813 -0.7742 -0.3506
  383MOL0     H50528  -0.255   0.122   5.774 -1.9718  1.1636  0.4338
  383MOL0     H50529  -0.231   0.285   5.716  0.0936 -1.2660  2.8940
  383MOL0     H50530  -0.275   0.028   5.539 -2.6932  0.0849 -1.5936
  383MOL0     H50531  -0.221   0.189   5.475  2.5561 -2.4556  0.1983
  383MOL0     H50532  -0.445   0.283   5.553 -0.8512 -1.5083 -2.6949
  383MOL0     H50533  -0.473   0.148   5.658  1.6363  2.5240  1.9951
  383MOL0     H50534  -0.513   0.201   5.362  0.7325 -0.1446  1.0241
  383MOL0     H50535  -0.446   0.045   5.380 -0.9512 -1.7918  0.1982
  383MOL0     H50536  -0.681  -0.000   5.392 -0.2746  0.8939 -0.1506
  383MOL0     H50537  -0.708   0.127   5.513 -0.2929  0.6106 -2.3113
  383MOL0     H50538   0.329  -0.102   5.581 -0.2502 -3.9585  1.0825
  383MOL0     H50539   0.568  -0.166   5.580  2.7588 -0.6936  0.1259
  383MOL0     H50540   1.022   0.135   5.905 -2.2662 -1.0139  0.0608
  383MOL0     H50541   1.266   0.073   5.895  1.6506 -1.0989  1.8819
  383MOL0     H50542   2.877   0.500   6.671  0.2810  2.1114  0.1406
  383MOL0     H50543   3.120   0.551   6.747 -0.8901 -0.1149  0.5057
  383MOL0     H50544   3.683   0.551   6.409 -1.4573 -1.7929  0.5053
  383MOL0     H50545   3.897   0.585   6.489  0.9584 -0.6894  1.8308
  383MOL0     H50546   4.151   0.698   6.742 -1.8379  2.6372  0.2284
  383MOL0     H50547   4.067   0.700   6.595 -3.4188 -1.4739 -1.1692
  383MOL0     H50548   4.019   0.438   6.651  0.3198 -0.5517 -0.7024
  383MOL0     H50549   4.176   0.487   6.583 -0.2578 -0.3697 -0.4085
  383MOL0     H50550   4.195   0.332   6.768  2.3427  0.1619  0.4475
  383MOL0     H50551   4.101   0.413   6.878  0.2638  0.9371 -0.1236
  383MOL0     H50552   4.346   0.564   6.771  0.1598 -0.3596  0.0687
  383MOL0     H50553   4.280   0.580   6.921  0.4797  1.3894 -0.7429
  383MOL0     H50554   4.562   0.314   7.019 -1.9622 -0.5658  1.3189
  383MOL0     H50555   3.718   0.699   6.874  0.2916  0.0967  0.9764
  383MOL0     H50556   3.495   0.646   6.775  0.7406  1.4063  2.2670
  384MOL0     O50557   0.821   7.229   2.215  0.0086  0.1952 -0.4823
  384MOL0     C50558   0.905   7.291   2.149  0.1303 -0.9364  0.4828
  384MOL0     O50559   0.898   7.319   2.013  0.1311 -0.5466  0.3128
  384MOL0     C50560   0.795   7.280   1.928  1.3880 -0.4034 -0.7603
  384MOL0     C50561   0.802   7.340   1.804 -0.6616 -0.0972 -0.2301
  384MOL0     C50562   0.705   7.316   1.701  0.0958 -0.0454 -0.2934
  384MOL0     C50563   0.596   7.223   1.725  0.1266 -0.5945  0.9262
  384MOL0     O50564   0.505   7.216   1.616 -0.4940 -0.2095  0.1745
  384MOL0     C50565   0.369   7.235   1.649  0.2497 -0.7203 -0.3065
  384MOL0     C50566   0.274   7.147   1.576  0.2512  0.1706 -0.1750
  384MOL0     C50567   0.240   7.018   1.652 -1.1191  0.9392 -0.1072
  384MOL0     C50568   0.125   6.946   1.578 -0.1245 -1.2400  0.3983
  384MOL0     C50569   0.137   6.790   1.594  0.2704 -0.4383  0.7236
  384MOL0     C50570   0.009   6.710   1.584 -0.0440 -0.5142 -0.1059
  384MOL0     C50571   0.021   6.581   1.664  0.1742  0.0440  0.1550
  384MOL0     C50572  -0.093   6.478   1.623 -0.2849  0.2251  0.9433
  384MOL0     N50573  -0.080   6.349   1.694 -0.0557  0.1778 -0.2218
  384MOL0     C50574   0.023   6.264   1.683  0.1640 -1.0594 -1.0382
  384MOL0     C50575  -0.004   6.177   1.782 -0.9205  0.1738 -0.9142
  384MOL0     C50576   0.104   6.078   1.823  1.6238 -0.0571 -0.4769
  384MOL0     C50577   0.148   6.108   1.959  0.6007  0.6431  0.4936
  384MOL0     C50578   0.224   6.234   1.986 -0.3167 -0.0247 -0.2970
  384MOL0     C50579   0.345   6.251   1.889 -0.1434 -0.1516  0.2870
  384MOL0     O50580   0.423   6.365   1.940 -0.4760  0.0716 -0.6643
  384MOL0     C50581   0.555   6.365   1.937 -0.0054  1.0659  0.5896
  384MOL0     C50582   0.626   6.264   2.003 -0.1121 -0.4605  0.3603
  384MOL0     C50583   0.768   6.274   2.018 -0.4023 -0.5290 -0.8180
  384MOL0     C50584   0.844   6.373   1.953  0.9773 -0.6492  0.1160
  384MOL0     C50585   0.990   6.383   1.948  0.0275 -0.5823 -0.1578
  384MOL0     O50586   1.043   6.475   1.861  0.4201 -0.1306 -0.1370
  384MOL0     C50587   1.178   6.478   1.841 -0.1836 -1.4490  0.0222
  384MOL0     C50588   1.273   6.489   1.945 -0.3106  0.3892  0.0473
  384MOL0     C50589   1.408   6.508   1.919  0.7550  0.3169  0.7841
  384MOL0     C50590   1.460   6.513   1.785  0.4496 -0.1247 -0.5255
  384MOL0     O50591   1.592   6.552   1.761  0.4554 -0.2602  0.1866
  384MOL0     C50592   1.640   6.681   1.798  0.4064  0.5680  0.4560
  384MOL0     C50593   1.719   6.733   1.675 -1.0941  0.2947 -0.7841
  384MOL0     C50594   1.822   6.633   1.623 -0.1204  0.7081  0.3458
  384MOL0     C50595   1.885   6.695   1.504 -0.9386  0.3674 -0.1865
  384MOL0     C50596   1.979   6.817   1.540  1.0153 -0.1194  0.7488
  384MOL0     C50597   2.049   6.855   1.401  0.3325 -0.3986  0.2335
  384MOL0     C50598   2.150   6.969   1.428 -0.0326 -0.3280 -0.6894
  384MOL0     C50599   2.251   6.990   1.302 -0.0977 -0.0162 -0.3461
  384MOL0    Cl50600   2.171   7.049   1.145 -0.5731 -0.2863 -0.2282
  384MOL0     C50601   1.369   6.491   1.680  0.3500 -0.3384 -0.0317
  384MOL0     C50602   1.232   6.468   1.704 -0.0424  0.1470 -0.8355
  384MOL0     O50603   1.053   6.294   2.005  0.5432 -0.4999  0.5539
  384MOL0     C50604   0.771   6.460   1.874  0.2871  0.0606  0.3185
  384MOL0     C50605   0.630   6.458   1.868  0.1144  0.0765 -0.4157
  384MOL0     N50606  -0.111   6.219   1.855 -0.5063 -0.2751  0.1929
  384MOL0     N50607  -0.168   6.317   1.794  0.0070 -0.0463 -0.1807
  384MOL0     C50608   0.601   7.149   1.848 -0.0863  0.6562  1.1513
  384MOL0     C50609   0.690   7.186   1.953 -0.3895  0.0162  0.1417
  384MOL0     C50610   1.035   7.330   2.206  0.5077 -0.5843 -0.7132
  384MOL0     C50611   1.051   7.331   2.352  0.2911 -0.1555  0.3273
  384MOL0     C50612   1.176   7.359   2.406 -0.3481 -0.6176  0.2352
  384MOL0     C50613   1.290   7.388   2.333 -0.2601  0.2469 -0.1541
  384MOL0     O50614   1.413   7.411   2.384 -0.2088  0.3708  0.1165
  384MOL0     C50615   1.441   7.407   2.523  0.0072 -0.1876 -0.0477
  384MOL0     C50616   1.487   7.267   2.558 -0.4063 -0.0777  0.4462
  384MOL0     C50617   1.599   7.210   2.466  0.5593  0.2804 -0.3290
  384MOL0     C50618   1.737   7.275   2.472  0.1687 -0.1387  0.0970
  384MOL0     C50619   1.816   7.262   2.351 -0.5077  0.0902  0.3640
  384MOL0     C50620   1.879   7.261   2.246  1.1656 -0.0382  0.0608
  384MOL0     C50621   1.272   7.383   2.196  0.0408 -1.0300  0.0331
  384MOL0     C50622   1.151   7.361   2.133  0.1743 -0.0113  0.0786
  384MOL0     H50623   0.881   7.411   1.782 -0.1058 -0.8075 -0.5659
  384MOL0     H50624   0.699   7.376   1.611 -3.1946  2.5812  1.4577
  384MOL0     H50625   0.339   7.335   1.616  1.8746 -0.9585 -2.7541
  384MOL0     H50626   0.355   7.221   1.756 -1.6161  0.2516 -0.3757
  384MOL0     H50627   0.301   7.133   1.471 -0.5557  0.6512 -0.4570
  384MOL0     H50628   0.177   7.197   1.578 -2.2815 -4.2427 -0.7299
  384MOL0     H50629   0.224   7.055   1.754  1.7574 -0.1384  0.8113
  384MOL0     H50630   0.337   6.967   1.654 -1.0189  1.1396  0.2239
  384MOL0     H50631   0.030   6.980   1.619 -0.8404  0.2976 -2.2866
  384MOL0     H50632   0.134   6.969   1.472 -1.1968  0.1038  0.5747
  384MOL0     H50633   0.180   6.770   1.692 -1.5035 -4.1132  0.9007
  384MOL0     H50634   0.205   6.756   1.516 -0.4902 -2.5287  0.9099
  384MOL0     H50635  -0.014   6.705   1.477  0.3794  2.4668 -0.4378
  384MOL0     H50636  -0.068   6.774   1.629  0.3118  0.1872 -0.4768
  384MOL0     H50637   0.121   6.541   1.646 -0.1897 -0.6054 -0.4501
  384MOL0     H50638   0.021   6.594   1.772 -0.0763  0.2491  0.1313
  384MOL0     H50639  -0.090   6.444   1.519 -1.0125 -0.6561  1.1953
  384MOL0     H50640  -0.195   6.517   1.622  0.3158  2.1098 -2.6070
  384MOL0     H50641   0.114   6.270   1.624  1.4058  0.9895  0.9641
  384MOL0     H50642   0.195   6.078   1.763  1.3161  1.9010 -0.9835
  384MOL0     H50643   0.058   5.979   1.832 -0.0678  0.6072 -1.2909
  384MOL0     H50644   0.211   6.024   1.989 -1.8465 -1.6684 -0.3814
  384MOL0     H50645   0.066   6.111   2.031  1.7143 -0.0533  1.8241
  384MOL0     H50646   0.156   6.320   1.988  0.5640  0.6845  1.7135
  384MOL0     H50647   0.271   6.225   2.084 -0.9711 -2.9617 -0.1639
  384MOL0     H50648   0.326   6.253   1.781  1.2917 -0.0932  0.0127
  384MOL0     H50649   0.405   6.160   1.891 -0.5480 -0.4568 -0.9870
  384MOL0     H50650   0.577   6.182   2.056  1.6605 -0.8578  1.4796
  384MOL0     H50651   0.833   6.196   2.058 -1.2632 -0.6674  0.3855
  384MOL0     H50652   1.237   6.478   2.047  1.7279  1.3451  0.9394
  384MOL0     H50653   1.471   6.520   2.007 -0.9417  5.1867  1.6781
  384MOL0     H50654   1.707   6.667   1.883  0.1617  3.4298  1.2477
  384MOL0     H50655   1.563   6.753   1.828 -0.5014  0.7649 -2.0429
  384MOL0     H50656   1.784   6.817   1.703  1.1214 -1.2119 -1.1959
  384MOL0     H50657   1.646   6.762   1.598  1.2033 -2.1881 -4.1889
  384MOL0     H50658   1.774   6.546   1.577 -1.2193  2.4491 -1.9891
  384MOL0     H50659   1.890   6.601   1.702 -0.8529 -0.0445  0.6857
  384MOL0     H50660   1.941   6.614   1.456 -0.7269  0.8202 -0.7206
  384MOL0     H50661   1.814   6.737   1.432 -0.2059 -2.4394 -2.7556
  384MOL0     H50662   2.048   6.780   1.616  1.3139  0.5803  0.8304
  384MOL0     H50663   1.933   6.911   1.573  2.8016  1.0302  0.1552
  384MOL0     H50664   1.979   6.881   1.322  0.8168 -1.0869 -0.4333
  384MOL0     H50665   2.097   6.761   1.373  0.9476 -0.3966  1.2349
  384MOL0     H50666   2.105   7.064   1.457  3.7398  1.4272  0.0120
  384MOL0     H50667   2.207   6.933   1.514 -2.6754 -3.3519  0.0076
  384MOL0     H50668   2.303   6.897   1.280 -2.4178 -0.9992 -2.1098
  384MOL0     H50669   2.334   7.056   1.331 -0.9863  0.4249  1.3200
  384MOL0     H50670   1.394   6.500   1.575 -2.8912  0.0733 -0.8952
  384MOL0     H50671   1.155   6.463   1.628 -1.1361 -2.8485  0.3359
  384MOL0     H50672   0.830   6.533   1.819  0.6737 -2.1600 -2.4264
  384MOL0     H50673   0.573   6.518   1.798  0.6766  0.8720 -0.2052
  384MOL0     H50674   0.535   7.069   1.880  1.3303  0.6198  4.4704
  384MOL0     H50675   0.684   7.127   2.044  0.7176 -1.2880 -0.5847
  384MOL0     H50676   0.968   7.307   2.417 -1.3805 -2.5602 -2.4283
  384MOL0     H50677   1.185   7.360   2.514 -0.8728  1.3711  0.2918
  384MOL0     H50678   1.361   7.444   2.588  0.8351  0.8086  0.4205
  384MOL0     H50679   1.522   7.478   2.538 -0.5548  0.1010  1.8116
  384MOL0     H50680   1.524   7.261   2.661 -1.9469  1.3666  1.1398
  384MOL0     H50681   1.402   7.198   2.561 -0.7909  0.3779  0.1284
  384MOL0     H50682   1.563   7.208   2.362 -0.5612 -0.0459  0.0435
  384MOL0     H50683   1.615   7.105   2.491 -1.9437 -0.2169 -0.4956
  384MOL0     H50684   1.720   7.383   2.465 -1.4421 -0.3690  0.0149
  384MOL0     H50685   1.798   7.243   2.557  0.1503 -0.0188  0.1561
  384MOL0     H50686   1.906   7.254   2.143 -1.3516 -0.6396 -0.6274
  384MOL0     H50687   1.369   7.394   2.150 -0.2574  1.0778 -0.2035
  384MOL0     H50688   1.138   7.362   2.026 -2.3668  0.9216  0.3236
  385MOL0     O50689   0.268   5.577  10.220  0.5349  0.1626 -0.3555
  385MOL0     C50690   0.319   5.469  10.237  0.0902  0.3793 -0.8049
  385MOL0     O50691   0.255   5.356  10.278  0.3289  0.3710  0.5605
  385MOL0     C50692   0.122   5.373  10.288  0.5959 -1.9831 -0.1704
  385MOL0     C50693   0.038   5.365  10.175 -0.1827 -0.4924  0.1584
  385MOL0     C50694  -0.105   5.378  10.198 -0.0661 -0.1511 -0.9103
  385MOL0     C50695  -0.149   5.421  10.322  0.0928 -0.0293 -0.4700
  385MOL0     O50696  -0.273   5.453  10.358 -0.3727  0.3213  0.0044
  385MOL0     C50697  -0.324   5.570  10.297  0.2342  0.3028  0.1464
  385MOL0     C50698  -0.257   5.698  10.341 -0.1885  0.8365 -0.2273
  385MOL0     C50699  -0.340   5.828  10.315 -0.3529 -0.1516  0.1007
  385MOL0     C50700  -0.472   5.845  10.385  0.1333 -0.6841  0.0625
  385MOL0     C50701  -0.549   5.974  10.345  0.3493 -0.0871  0.9858
  385MOL0     C50702  -0.693   5.974  10.394 -0.0515  0.9760  0.4306
  385MOL0     C50703  -0.757   6.105  10.383  0.0073 -0.3362 -0.1115
  385MOL0     C50704  -0.783   6.142  10.239  0.1684 -0.3481 -0.0863
  385MOL0     N50705  -0.836   6.284  10.237 -1.0545  0.4093  0.7187
  385MOL0     C50706  -0.976   6.304  10.237  0.1015 -0.4938  0.2858
  385MOL0     C50707  -0.983   6.437  10.228 -0.3562  0.1866 -0.9655
  385MOL0     C50708  -1.096   6.522  10.206  0.5891 -0.3042  0.1398
  385MOL0     C50709  -1.171   6.558  10.332  0.1142  0.1161  0.2673
  385MOL0     C50710  -1.259   6.443  10.394 -0.4853 -0.5607  0.1348
  385MOL0     C50711  -1.391   6.431  10.312  0.2091 -0.2561  0.2429
  385MOL0     O50712  -1.460   6.554  10.305  0.3670  0.6018  0.1478
  385MOL0     C50713  -1.584   6.565  10.369 -0.0978  0.1806  1.1840
  385MOL0     C50714  -1.682   6.658  10.319  0.6081  0.2633  0.4736
  385MOL0     C50715  -1.811   6.663  10.376  0.0707 -0.7507  0.8984
  385MOL0     C50716  -1.837   6.604  10.496 -0.5859 -0.4754  0.1801
  385MOL0     C50717  -1.972   6.613  10.558 -0.1390  0.2990  0.8212
  385MOL0     O50718  -1.992   6.544  10.678  0.2148 -0.8459  0.3709
  385MOL0     C50719  -2.105   6.580  10.748 -0.4926  0.4882 -0.1766
  385MOL0     C50720  -2.199   6.487  10.766  0.1744  0.6043  0.2520
  385MOL0     C50721  -2.319   6.523  10.826 -0.6612  0.7179 -0.0377
  385MOL0     C50722  -2.351   6.659  10.862  0.3589  0.7897 -0.0710
  385MOL0     O50723  -2.469   6.710  10.909  0.4254 -0.0390  0.3114
  385MOL0     C50724  -2.581   6.608  10.930 -0.2911  0.6360  0.1051
  385MOL0     C50725  -2.694   6.682  10.990  0.9310 -0.0128 -0.1383
  385MOL0     C50726  -2.826   6.615  10.939 -0.0356 -0.0711  0.0373
  385MOL0     C50727  -2.958   6.694  10.952 -0.4138 -0.3963  0.1272
  385MOL0     C50728  -3.072   6.589  10.957 -0.6577  0.7797 -0.3411
  385MOL0     C50729  -3.206   6.652  10.997 -0.3687  0.7144  0.2299
  385MOL0     C50730  -3.318   6.551  10.990  0.2780  0.1242 -0.7599
  385MOL0     C50731  -3.322   6.455  11.104 -0.1983  0.1260 -0.6957
  385MOL0    Cl50732  -3.252   6.300  11.083  0.2227 -0.2193  0.4988
  385MOL0     C50733  -2.249   6.746  10.841 -0.6420  0.2766  0.1575
  385MOL0     C50734  -2.121   6.711  10.793  0.2768  0.6364 -0.0662
  385MOL0     O50735  -2.055   6.680  10.491 -0.4668 -0.3853 -0.0881
  385MOL0     C50736  -1.741   6.516  10.554 -0.3918  0.5665  0.3264
  385MOL0     C50737  -1.617   6.493  10.489 -0.5525 -1.0091  0.1969
  385MOL0     N50738  -0.860   6.493  10.238  0.5857  0.1267 -0.6819
  385MOL0     N50739  -0.768   6.403  10.239 -0.0708 -0.9808  0.2495
  385MOL0     C50740  -0.060   5.428  10.426 -0.5185  0.2171 -0.5649
  385MOL0     C50741   0.068   5.395  10.410 -1.1812  0.4478  0.5244
  385MOL0     C50742   0.467   5.455  10.221 -0.0460  0.4835  0.1780
  385MOL0     C50743   0.543   5.556  10.160  0.6444 -0.2544 -0.7356
  385MOL0     C50744   0.675   5.548  10.161 -0.1299 -0.7962 -0.3560
  385MOL0     C50745   0.750   5.448  10.223 -0.4381 -0.6435  0.7589
  385MOL0     O50746   0.889   5.456  10.219  0.6128 -0.0190 -0.1587
  385MOL0     C50747   0.964   5.350  10.264 -0.2039  0.4321 -0.6299
  385MOL0     C50748   1.097   5.358  10.181  0.1721  0.3604 -0.3844
  385MOL0     C50749   1.078   5.381  10.032 -0.2330 -0.2514 -0.1139
  385MOL0     C50750   1.185   5.318   9.949  0.0153  0.4259  0.0510
  385MOL0     C50751   1.322   5.369   9.991 -0.3928 -0.3577 -0.4041
  385MOL0     C50752   1.430   5.402  10.028 -0.2707 -0.3105 -1.0559
  385MOL0     C50753   0.676   5.343  10.284 -0.0583  0.7481  0.8315
  385MOL0     C50754   0.532   5.346  10.282 -0.0105 -0.1678 -0.9325
  385MOL0     H50755   0.087   5.337  10.083  0.9926  2.0337 -0.0570
  385MOL0     H50756  -0.177   5.370  10.116 -2.5348  0.3857  1.0732
  385MOL0     H50757  -0.432   5.565  10.311  0.4167 -1.8230  1.1784
  385MOL0     H50758  -0.305   5.556  10.190  2.0234 -0.5216  0.5304
  385MOL0     H50759  -0.157   5.716  10.300 -0.6509  1.9688 -0.9239
  385MOL0     H50760  -0.262   5.698  10.450 -1.9719  2.2640 -0.2601
  385MOL0     H50761  -0.362   5.840  10.208 -0.3813 -0.4676  0.0695
  385MOL0     H50762  -0.271   5.912  10.327 -1.2373  1.0152 -2.3630
  385MOL0     H50763  -0.535   5.758  10.363 -3.9601  1.4494  2.2866
  385MOL0     H50764  -0.447   5.846  10.491 -1.0621 -1.4271  0.3698
  385MOL0     H50765  -0.541   5.992  10.238 -1.0382  0.4726  0.9572
  385MOL0     H50766  -0.498   6.054  10.400  0.4601 -0.7896  1.9297
  385MOL0     H50767  -0.700   5.938  10.497 -1.8576 -0.4480 -0.1338
  385MOL0     H50768  -0.760   5.907  10.339 -2.1692  3.6343 -0.4523
  385MOL0     H50769  -0.853   6.110  10.435 -1.7619 -0.2551 -3.1505
  385MOL0     H50770  -0.688   6.178  10.427  1.3268  0.7720 -3.6421
  385MOL0     H50771  -0.871   6.087  10.205  0.5064 -1.3669  0.6556
  385MOL0     H50772  -0.695   6.137  10.175 -1.1074  2.1428 -2.2480
  385MOL0     H50773  -1.061   6.237  10.229 -1.1124  0.7361  2.1696
  385MOL0     H50774  -1.169   6.482  10.135 -3.1453  1.0411  2.8625
  385MOL0     H50775  -1.057   6.609  10.152 -0.6460 -0.4627 -1.0823
  385MOL0     H50776  -1.225   6.652  10.315  2.9159  1.5792 -1.2338
  385MOL0     H50777  -1.094   6.591  10.403 -0.1401 -1.7030  1.4313
  385MOL0     H50778  -1.209   6.346  10.400 -0.1365 -0.3314  1.0955
  385MOL0     H50779  -1.286   6.464  10.498 -0.8677 -3.0352  0.5845
  385MOL0     H50780  -1.448   6.349  10.358  0.5903  0.8909  2.9750
  385MOL0     H50781  -1.359   6.385  10.219  2.6916 -0.4422  1.1060
  385MOL0     H50782  -1.654   6.698  10.221  0.3348 -0.8983 -0.0922
  385MOL0     H50783  -1.882   6.739  10.343  1.2598 -0.0487 -0.1241
  385MOL0     H50784  -2.185   6.384  10.735 -1.4306  0.8910 -1.6743
  385MOL0     H50785  -2.390   6.442  10.846  0.5276 -0.6484 -1.1691
  385MOL0     H50786  -2.544   6.540  11.008 -0.0199  0.1888 -0.4097
  385MOL0     H50787  -2.614   6.561  10.838  1.4718  2.4774 -1.5668
  385MOL0     H50788  -2.688   6.785  10.955 -2.2468 -0.1744 -1.4901
  385MOL0     H50789  -2.700   6.667  11.098 -0.4268 -2.1661 -0.4596
  385MOL0     H50790  -2.820   6.514  10.980  4.7596  0.2204  0.7325
  385MOL0     H50791  -2.820   6.598  10.831 -1.3806 -1.8299  0.1920
  385MOL0     H50792  -2.952   6.750  11.046  1.8590 -0.3361 -0.0021
  385MOL0     H50793  -2.974   6.770  10.875  2.3939  1.6214  1.3588
  385MOL0     H50794  -3.037   6.507  11.021  1.6691  2.1636  0.2815
  385MOL0     H50795  -3.075   6.550  10.855  0.2608  0.8376 -0.3943
  385MOL0     H50796  -3.231   6.726  10.920 -2.4011 -0.2220 -0.0662
  385MOL0     H50797  -3.199   6.692  11.098 -0.4857  1.7852 -0.1655
  385MOL0     H50798  -3.406   6.610  11.018  1.5666  1.5379  0.4683
  385MOL0     H50799  -3.340   6.508  10.891  1.0295  1.6076 -1.5955
  385MOL0     H50800  -3.429   6.440  11.122  0.1292  0.5900  2.1565
  385MOL0     H50801  -3.288   6.503  11.197 -0.7231  2.6121 -1.7245
  385MOL0     H50802  -2.268   6.852  10.845 -0.4437  0.4003 -1.5567
  385MOL0     H50803  -2.055   6.797  10.787 -0.7539  1.5981  1.3914
  385MOL0     H50804  -1.765   6.458  10.642  0.9334 -3.0185 -1.4759
  385MOL0     H50805  -1.549   6.425  10.539  0.2878 -0.3941 -0.0904
  385MOL0     H50806  -0.103   5.450  10.524 -0.0629 -2.5934  0.3439
  385MOL0     H50807   0.122   5.392  10.504 -0.7846 -3.6872  0.3784
  385MOL0     H50808   0.496   5.624  10.090  0.6960 -0.9419 -1.4484
  385MOL0     H50809   0.736   5.614  10.100 -0.7605  0.1671  0.0412
  385MOL0     H50810   0.920   5.255  10.234 -3.7122  0.2720  3.9659
  385MOL0     H50811   0.990   5.363  10.369  1.0083 -1.6202 -0.6370
  385MOL0     H50812   1.149   5.445  10.222 -2.2045  1.1253  1.2447
  385MOL0     H50813   1.154   5.266  10.194 -1.1353 -0.5445 -0.7645
  385MOL0     H50814   1.063   5.489  10.023 -2.6682 -0.4629  0.5423
  385MOL0     H50815   0.987   5.327  10.004 -1.0597 -0.0880  2.0675
  385MOL0     H50816   1.161   5.212   9.952 -2.7917  0.8133 -3.0653
  385MOL0     H50817   1.178   5.345   9.843  1.0083 -1.4619 -0.5585
  385MOL0     H50818   1.529   5.427  10.059 -1.7539  2.5012  2.1614
  385MOL0     H50819   0.731   5.267  10.338  1.7948 -0.2928 -2.2876
  385MOL0     H50820   0.485   5.264  10.336  0.2938  0.1853 -0.1283
  386MOL0     O50821   1.701   3.265   7.492  0.0543 -0.1067 -0.0657
  386MOL0     C50822   1.612   3.306   7.414  0.3897  0.1809 -0.0864
  386MOL0     O50823   1.481   3.272   7.429  0.0497 -0.4137 -0.3161
  386MOL0     C50824   1.447   3.173   7.519 -0.0045 -0.8407 -1.1070
  386MOL0     C50825   1.313   3.191   7.558  0.1148  0.1049 -1.5103
  386MOL0     C50826   1.258   3.080   7.628 -0.0199  0.0329 -0.2511
  386MOL0     C50827   1.323   2.959   7.651  0.7179  0.5700 -0.0871
  386MOL0     O50828   1.268   2.851   7.716  0.1445 -0.1222 -0.0743
  386MOL0     C50829   1.129   2.826   7.720  0.3125 -0.5741  0.1027
  386MOL0     C50830   1.105   2.741   7.838  0.3872 -0.1582 -0.3945
  386MOL0     C50831   0.967   2.678   7.848  0.0359  0.5101 -0.6808
  386MOL0     C50832   0.868   2.779   7.903 -0.4621  0.3692  0.2156
  386MOL0     C50833   0.731   2.718   7.943 -0.5091  0.1248  0.3161
  386MOL0     C50834   0.661   2.793   8.052  0.2145  0.9927  0.3116
  386MOL0     C50835   0.624   2.937   8.010 -0.5681 -0.2197  0.6506
  386MOL0     C50836   0.518   2.996   8.101 -0.3554 -0.1638  0.3908
  386MOL0     N50837   0.570   3.001   8.242  0.0980 -1.0393  0.1509
  386MOL0     C50838   0.667   3.078   8.297  0.9366 -0.2051 -0.8182
  386MOL0     C50839   0.674   3.039   8.424  0.0794  0.1516  0.2273
  386MOL0     C50840   0.745   3.108   8.533 -0.4121 -1.0794 -0.5104
  386MOL0     C50841   0.689   3.244   8.554 -0.1620  0.5918  0.5394
  386MOL0     C50842   0.543   3.247   8.587 -0.3728 -0.3702  0.1174
  386MOL0     C50843   0.487   3.392   8.563 -0.0351 -0.5329 -0.4223
  386MOL0     O50844   0.363   3.404   8.641 -0.0714 -0.2974  0.9004
  386MOL0     C50845   0.248   3.440   8.589  0.5967  0.4188 -1.0202
  386MOL0     C50846   0.131   3.396   8.657 -0.2608 -0.6890  0.1257
  386MOL0     C50847   0.004   3.410   8.597  0.1812  0.6303  0.4948
  386MOL0     C50848  -0.017   3.461   8.467 -0.9197  0.0963  0.3176
  386MOL0     C50849  -0.150   3.458   8.411 -0.2534  0.2302  0.5233
  386MOL0     O50850  -0.247   3.463   8.506 -0.1508 -0.0608  1.3662
  386MOL0     C50851  -0.384   3.454   8.489 -0.3023 -0.3298 -0.5169
  386MOL0     C50852  -0.459   3.435   8.607 -1.1902 -0.8730  0.6644
  386MOL0     C50853  -0.594   3.427   8.613 -1.0038  0.9850  0.8918
  386MOL0     C50854  -0.665   3.445   8.493  0.4396  0.1386 -0.1289
  386MOL0     O50855  -0.800   3.420   8.509 -0.3708  0.2985 -0.6031
  386MOL0     C50856  -0.880   3.493   8.418 -0.1040  0.0014  0.2139
  386MOL0     C50857  -1.027   3.508   8.477  0.0652 -0.5394  0.5242
  386MOL0     C50858  -1.131   3.542   8.368 -1.2418  0.1255  0.1641
  386MOL0     C50859  -1.273   3.541   8.429  0.6783 -0.8101  0.5159
  386MOL0     C50860  -1.359   3.627   8.337  0.4394 -0.1826  0.1666
  386MOL0     C50861  -1.492   3.661   8.406  0.0085 -0.0629  0.4701
  386MOL0     C50862  -1.571   3.540   8.448 -0.3081 -0.1911 -0.6191
  386MOL0     C50863  -1.719   3.554   8.428  0.1789 -0.5063  0.1784
  386MOL0    Cl50864  -1.803   3.661   8.546 -0.1186 -0.0325 -0.1088
  386MOL0     C50865  -0.595   3.487   8.372  0.3480 -0.8691 -0.8579
  386MOL0     C50866  -0.458   3.488   8.375 -0.4981  0.2863 -0.0392
  386MOL0     O50867  -0.156   3.465   8.288  0.2784 -0.0677  0.4372
  386MOL0     C50868   0.100   3.510   8.401  0.4727 -0.4445 -0.5746
  386MOL0     C50869   0.230   3.495   8.458 -0.2284  0.4891 -0.4764
  386MOL0     N50870   0.588   2.931   8.443  0.0054  0.2558  0.3417
  386MOL0     N50871   0.525   2.908   8.331  0.2333 -0.3038 -0.9084
  386MOL0     C50872   1.459   2.959   7.623 -0.0181 -0.7201  0.1958
  386MOL0     C50873   1.521   3.068   7.563 -0.4044 -0.1658 -0.6466
  386MOL0     C50874   1.650   3.418   7.325  0.5425  0.3290 -0.2614
  386MOL0     C50875   1.777   3.480   7.324  0.6549  0.4521  0.0691
  386MOL0     C50876   1.809   3.585   7.239  0.4381 -0.1511 -0.3139
  386MOL0     C50877   1.713   3.627   7.147  0.1166 -0.6371  0.4187
  386MOL0     O50878   1.725   3.739   7.059 -0.1899  0.1028 -0.8300
  386MOL0     C50879   1.841   3.750   6.986  0.2546 -0.1845 -0.0655
  386MOL0     C50880   1.852   3.661   6.857 -0.2201  1.1041 -0.5693
  386MOL0     C50881   1.960   3.718   6.761  0.1817 -0.6586  0.0179
  386MOL0     C50882   2.113   3.707   6.797  0.4558 -0.8314  1.0954
  386MOL0     C50883   2.209   3.719   6.686  1.1915 -0.2962  0.7518
  386MOL0     C50884   2.300   3.724   6.612 -0.9110 -0.3239  0.1041
  386MOL0     C50885   1.588   3.568   7.142 -0.0876 -0.0196 -0.3720
  386MOL0     C50886   1.549   3.464   7.233 -0.0906  0.4170  0.5967
  386MOL0     H50887   1.247   3.274   7.534 -1.8651 -0.7620  0.4764
  386MOL0     H50888   1.156   3.099   7.659  0.4803  0.7794  1.0097
  386MOL0     H50889   1.098   2.775   7.629 -2.0977  2.2379 -0.7908
  386MOL0     H50890   1.068   2.916   7.729 -0.1738 -0.5841 -2.5052
  386MOL0     H50891   1.138   2.794   7.928  0.0492  1.6329 -1.2944
  386MOL0     H50892   1.160   2.647   7.825 -1.5898 -1.5354  0.5928
  386MOL0     H50893   0.972   2.588   7.911 -1.3820  0.3731 -0.7457
  386MOL0     H50894   0.923   2.648   7.753 -1.2398 -0.7025  0.2487
  386MOL0     H50895   0.920   2.822   7.989  1.5380 -2.5279  0.5921
  386MOL0     H50896   0.857   2.860   7.832  3.5629 -0.2364 -1.3300
  386MOL0     H50897   0.747   2.615   7.976 -2.0445  0.5732  2.6656
  386MOL0     H50898   0.677   2.716   7.847  2.4018  0.3592 -1.4413
  386MOL0     H50899   0.728   2.786   8.138  0.4527 -0.2966  0.0445
  386MOL0     H50900   0.565   2.748   8.080  0.4915 -0.4657 -0.9390
  386MOL0     H50901   0.712   3.001   7.999 -3.1212  3.6563  0.8857
  386MOL0     H50902   0.579   2.938   7.910  0.6175  0.2268  0.1011
  386MOL0     H50903   0.429   2.933   8.099 -0.1461 -0.4650 -1.4860
  386MOL0     H50904   0.493   3.094   8.060  0.5912 -0.0595  0.0294
  386MOL0     H50905   0.708   3.170   8.255  1.7193 -0.4601 -0.6217
  386MOL0     H50906   0.849   3.116   8.500 -0.8778  5.3182 -1.6611
  386MOL0     H50907   0.736   3.045   8.622 -0.6514 -0.3283  0.0034
  386MOL0     H50908   0.698   3.321   8.476 -0.9339  0.8898  0.7366
  386MOL0     H50909   0.742   3.279   8.643  1.3219 -0.3557  0.0595
  386MOL0     H50910   0.487   3.186   8.515 -0.8393 -2.8613  2.4308
  386MOL0     H50911   0.532   3.206   8.688 -2.5248 -1.4432 -0.4905
  386MOL0     H50912   0.485   3.401   8.454  2.9362  0.3818 -0.4913
  386MOL0     H50913   0.564   3.458   8.603 -1.3787 -0.3299  2.0262
  386MOL0     H50914   0.133   3.356   8.758 -2.2267  0.2531  0.5937
  386MOL0     H50915  -0.080   3.376   8.657  0.0031  0.2938  0.0571
  386MOL0     H50916  -0.406   3.426   8.702  1.4823 -1.2954 -0.7698
  386MOL0     H50917  -0.646   3.394   8.702  0.8291 -3.7638  0.4894
  386MOL0     H50918  -0.895   3.446   8.321 -3.0512  1.2747 -0.0532
  386MOL0     H50919  -0.839   3.591   8.391  1.3600 -0.2871  1.2213
  386MOL0     H50920  -1.024   3.589   8.550 -1.5107  1.6318 -1.6860
  386MOL0     H50921  -1.067   3.419   8.528 -0.5591 -0.5075  0.0984
  386MOL0     H50922  -1.124   3.469   8.286 -4.4871 -0.3105  0.1430
  386MOL0     H50923  -1.109   3.642   8.331 -1.2147 -0.0369 -0.2617
  386MOL0     H50924  -1.311   3.439   8.411  2.1491 -1.4052  0.6628
  386MOL0     H50925  -1.273   3.556   8.537 -1.3304 -1.3003  0.6233
  386MOL0     H50926  -1.384   3.575   8.244  2.2463  1.7176 -1.4899
  386MOL0     H50927  -1.306   3.713   8.295  0.0820 -0.2702 -0.4643
  386MOL0     H50928  -1.555   3.727   8.346 -2.4784 -0.4729  2.4042
  386MOL0     H50929  -1.475   3.721   8.496  0.1628  1.9717 -0.8515
  386MOL0     H50930  -1.559   3.452   8.383 -2.3649  0.3446 -1.8217
  386MOL0     H50931  -1.546   3.505   8.548  2.2854 -1.3216 -1.5667
  386MOL0     H50932  -1.766   3.456   8.441 -0.8173  0.0609  0.9922
  386MOL0     H50933  -1.728   3.592   8.326  1.0173 -0.9455 -0.0702
  386MOL0     H50934  -0.648   3.502   8.279 -1.3582  0.1811  0.2289
  386MOL0     H50935  -0.394   3.516   8.292 -1.3165 -2.0410 -1.5697
  386MOL0     H50936   0.106   3.570   8.311  3.9425 -1.3729 -1.1063
  386MOL0     H50937   0.323   3.524   8.409  1.3974 -0.2751  1.9554
  386MOL0     H50938   1.517   2.870   7.643 -1.3697 -1.6979 -0.0803
  386MOL0     H50939   1.623   3.048   7.529  0.3214  0.5424  1.0191
  386MOL0     H50940   1.842   3.447   7.404  0.7424  3.9928  1.6287
  386MOL0     H50941   1.904   3.636   7.249  1.2883 -1.9098  1.2535
  386MOL0     H50942   1.924   3.742   7.058 -0.1321 -0.9914  0.3119
  386MOL0     H50943   1.840   3.853   6.950  0.7646 -0.1909 -0.1048
  386MOL0     H50944   1.882   3.567   6.904  0.8401  2.1822  1.0063
  386MOL0     H50945   1.755   3.649   6.808 -0.6038 -2.6371  0.7948
  386MOL0     H50946   1.936   3.824   6.747 -3.2622 -1.6139 -2.5764
  386MOL0     H50947   1.950   3.664   6.666 -0.7028 -1.0517  0.3277
  386MOL0     H50948   2.133   3.787   6.869  3.2650 -2.3981  2.2183
  386MOL0     H50949   2.135   3.616   6.854  2.0618 -0.9161  0.4099
  386MOL0     H50950   2.386   3.736   6.550 -0.0446 -1.0451  1.1389
  386MOL0     H50951   1.507   3.608   7.082 -0.1730 -1.3522 -1.1812
  386MOL0     H50952   1.448   3.425   7.234  0.3293 -0.7273  0.7109
  387MOL0     O50953  10.594   2.707   0.790 -0.4250 -0.4073  0.3215
  387MOL0     C50954  10.565   2.824   0.801  0.3755 -0.1922  0.1411
  387MOL0     O50955  10.654   2.928   0.814 -0.6501  0.1743 -0.7578
  387MOL0     C50956  10.783   2.891   0.778 -0.4461 -0.5604 -0.4940
  387MOL0     C50957  10.812   2.837   0.647  0.2371 -0.0310  0.3268
  387MOL0     C50958  10.939   2.793   0.620  0.3156  0.0799 -1.0329
  387MOL0     C50959  11.043   2.815   0.713 -0.5536  0.0655  0.6003
  387MOL0     O50960  11.171   2.792   0.667 -0.1779  0.6238 -0.5358
  387MOL0     C50961  11.226   2.862   0.558 -0.9892  0.5478  0.7184
  387MOL0     C50962  11.305   2.975   0.627  1.0831 -0.9084  0.6895
  387MOL0     C50963  11.399   3.041   0.524 -0.6508 -0.9334  0.5537
  387MOL0     C50964  11.481   3.163   0.581 -0.6825 -0.7090 -0.2411
  387MOL0     C50965  11.630   3.170   0.547  0.1077 -0.0714 -0.1942
  387MOL0     C50966  11.737   3.227   0.644 -0.2920 -0.0538  0.2414
  387MOL0     C50967  11.863   3.143   0.646 -0.9185 -0.3615 -0.2330
  387MOL0     C50968  11.942   3.160   0.773  0.3572  0.0222 -0.2192
  387MOL0     N50969  11.981   3.307   0.784  0.5607  0.2955  0.0463
  387MOL0     C50970  12.084   3.371   0.719 -0.3401  0.4104 -0.1750
  387MOL0     C50971  12.073   3.502   0.762 -0.9999  0.2124 -0.0662
  387MOL0     C50972  12.155   3.623   0.730  0.4642  0.1802 -0.4040
  387MOL0     C50973  12.293   3.589   0.665 -0.3001 -0.3486 -0.7786
  387MOL0     C50974  12.368   3.711   0.642  0.4655 -0.5048 -0.5326
  387MOL0     C50975  12.491   3.677   0.565 -0.7322  0.0407  0.0698
  387MOL0     O50976  12.594   3.628   0.658 -0.2037  0.3381 -0.3143
  387MOL0     C50977  12.723   3.607   0.614 -0.2750  0.0399 -0.0451
  387MOL0     C50978  12.811   3.617   0.718  0.1364  0.5411  0.5903
  387MOL0     C50979  12.948   3.608   0.687  0.6282  0.0528 -0.4077
  387MOL0     C50980  12.994   3.567   0.564  0.6196  0.9202 -0.6496
  387MOL0     C50981  13.139   3.566   0.548  0.1760 -1.0163  0.2431
  387MOL0     O50982  13.166   3.555   0.414 -0.5434 -0.5700 -0.4860
  387MOL0     C50983  13.302   3.577   0.387  0.9782 -0.5984 -0.0237
  387MOL0     C50984  13.353   3.706   0.357 -0.0020 -0.0738  0.3381
  387MOL0     C50985  13.489   3.712   0.316 -0.2933 -0.6646 -0.3295
  387MOL0     C50986  13.568   3.597   0.304  0.4479  0.1329 -0.6562
  387MOL0     O50987  13.701   3.608   0.263  0.5972 -0.0777  0.0818
  387MOL0     C50988  13.787   3.493   0.267  0.0801 -0.5594 -0.2895
  387MOL0     C50989  13.922   3.552   0.216  0.1723  0.7351 -1.3542
  387MOL0     C50990  14.017   3.445   0.184  0.3656 -0.0009 -0.1862
  387MOL0     C50991  14.168   3.493   0.200  0.5981  0.5343  1.3836
  387MOL0     C50992  14.261   3.419   0.105  0.7891  0.0683  0.1577
  387MOL0     C50993  14.234   3.268   0.085  1.0171  0.9854  0.5375
  387MOL0     C50994  14.348   3.216  -0.004 -0.1519  0.3223  0.1960
  387MOL0     C50995  14.447   3.112   0.056 -0.1643 -0.0560 -0.2010
  387MOL0    Cl50996  14.593   3.087  -0.040 -0.7221  0.3737  0.0700
  387MOL0     C50997  13.512   3.472   0.344 -0.6142  0.5575 -0.5462
  387MOL0     C50998  13.380   3.461   0.381  0.4751 -0.5037 -0.7955
  387MOL0     O50999  13.224   3.592   0.632  0.2978 -0.4397 -0.4745
  387MOL0     C51000  12.902   3.558   0.461  0.0285  1.0588  0.3540
  387MOL0     C51001  12.764   3.583   0.482 -0.1593  0.8359  0.0073
  387MOL0     N51002  11.968   3.514   0.843  0.0567 -0.3416  0.5304
  387MOL0     N51003  11.916   3.398   0.865 -0.4616  0.2053  0.5197
  387MOL0     C51004  11.014   2.860   0.836 -0.4990  0.8536 -0.8830
  387MOL0     C51005  10.880   2.901   0.869 -0.2409 -0.1170 -0.0145
  387MOL0     C51006  10.429   2.864   0.798 -0.3487  0.1881 -0.6508
  387MOL0     C51007  10.325   2.783   0.852  0.3347 -0.5485  0.5338
  387MOL0     C51008  10.185   2.825   0.858  0.3295  0.5206 -0.4248
  387MOL0     C51009  10.154   2.941   0.787  0.1437  0.6015  0.3678
  387MOL0     O51010  10.014   2.969   0.767 -0.7637 -0.0367 -0.7599
  387MOL0     C51011   9.936   2.919   0.662  0.2363  0.0456 -0.4334
  387MOL0     C51012   9.872   3.036   0.598  0.1918 -0.2529  0.1356
  387MOL0     C51013   9.968   3.111   0.503 -0.3726 -0.1485 -0.6047
  387MOL0     C51014   9.897   3.141   0.362 -1.0651 -0.2790  0.0160
  387MOL0     C51015   9.772   3.221   0.368 -0.0445 -0.1427  0.6703
  387MOL0     C51016   9.661   3.268   0.337  0.1296 -0.3370 -0.6952
  387MOL0     C51017  10.257   3.024   0.747  0.0836  0.0855 -0.1436
  387MOL0     C51018  10.392   2.990   0.753 -0.1991 -0.2548 -0.3723
  387MOL0     H51019  10.728   2.821   0.580  1.3086 -0.8628 -0.8539
  387MOL0     H51020  10.972   2.750   0.526  0.7963 -3.7966  0.7122
  387MOL0     H51021  11.148   2.898   0.490 -1.0230 -2.4693 -0.9871
  387MOL0     H51022  11.302   2.799   0.511 -0.5174  2.4382 -1.2512
  387MOL0     H51023  11.374   2.933   0.701 -0.4943 -0.8747  2.2361
  387MOL0     H51024  11.235   3.048   0.667  1.5542 -0.8675  1.4491
  387MOL0     H51025  11.338   3.060   0.435 -0.1726 -0.7469  0.2659
  387MOL0     H51026  11.474   2.966   0.500  0.9458  1.0180 -0.8110
  387MOL0     H51027  11.440   3.258   0.546 -0.3020 -0.0439  1.0523
  387MOL0     H51028  11.470   3.166   0.690  0.5995  2.7009 -0.0937
  387MOL0     H51029  11.644   3.220   0.451  3.5740 -3.6613 -1.8296
  387MOL0     H51030  11.664   3.067   0.537  0.7092 -0.4394  3.8033
  387MOL0     H51031  11.686   3.219   0.740  1.8435 -0.8869  1.3902
  387MOL0     H51032  11.761   3.328   0.611  1.4952 -0.9698 -1.5350
  387MOL0     H51033  11.828   3.040   0.660  2.6756 -1.4436  2.1550
  387MOL0     H51034  11.927   3.173   0.562 -1.8615  1.2710 -0.4006
  387MOL0     H51035  12.031   3.097   0.768  1.0345  0.5236  3.0480
  387MOL0     H51036  11.876   3.134   0.857  1.9318 -0.3746  0.9436
  387MOL0     H51037  12.151   3.329   0.645  0.4715  2.1626 -0.4826
  387MOL0     H51038  12.160   3.688   0.818 -3.2716  1.1655 -0.7475
  387MOL0     H51039  12.096   3.684   0.660  1.0718  2.2082  0.7598
  387MOL0     H51040  12.274   3.535   0.572  0.6414 -2.0774 -0.0187
  387MOL0     H51041  12.353   3.519   0.724 -0.9118  1.2373  1.9008
  387MOL0     H51042  12.305   3.776   0.579 -0.9509 -1.0631  0.2672
  387MOL0     H51043  12.397   3.769   0.730  4.4409 -1.4416 -1.0136
  387MOL0     H51044  12.524   3.770   0.520  0.3296 -0.5100 -0.3126
  387MOL0     H51045  12.470   3.599   0.490 -2.1408  0.9305 -0.5145
  387MOL0     H51046  12.794   3.664   0.814  0.9454  2.0696  0.0088
  387MOL0     H51047  13.014   3.656   0.758  4.5064 -2.4350 -2.0448
  387MOL0     H51048  13.292   3.792   0.380  1.6894  0.7183  2.1540
  387MOL0     H51049  13.538   3.807   0.295  1.2112 -1.0364  1.2348
  387MOL0     H51050  13.759   3.418   0.193  1.8998 -1.3967 -0.1814
  387MOL0     H51051  13.795   3.445   0.365 -1.1857  1.3535  0.8224
  387MOL0     H51052  13.956   3.619   0.295 -2.4158  2.3345 -1.4838
  387MOL0     H51053  13.909   3.620   0.132  0.3708  3.4354  0.6773
  387MOL0     H51054  13.985   3.399   0.090 -1.2741 -1.6026  1.0853
  387MOL0     H51055  14.000   3.374   0.265 -2.6877 -1.6474 -2.0851
  387MOL0     H51056  14.164   3.600   0.179 -1.3189 -0.0831 -2.1634
  387MOL0     H51057  14.201   3.488   0.305 -0.3737 -0.1551  1.6805
  387MOL0     H51058  14.361   3.442   0.144  2.1194 -3.3439 -0.8546
  387MOL0     H51059  14.248   3.462   0.006 -0.7396  0.2617  0.4201
  387MOL0     H51060  14.139   3.256   0.031  0.2235  0.2208  2.0259
  387MOL0     H51061  14.236   3.209   0.177 -2.1472 -1.7027 -0.8745
  387MOL0     H51062  14.304   3.159  -0.086 -3.4518 -0.1571  2.1382
  387MOL0     H51063  14.395   3.300  -0.056  0.2002 -0.1913 -0.3345
  387MOL0     H51064  14.400   3.016   0.077  2.1836 -0.9611  1.4031
  387MOL0     H51065  14.474   3.163   0.149  0.5653  0.1688 -0.5320
  387MOL0     H51066  13.575   3.387   0.319  2.4798  2.9284 -1.4711
  387MOL0     H51067  13.334   3.363   0.387  1.3364 -0.9642 -1.5258
  387MOL0     H51068  12.939   3.528   0.364  0.1222 -0.7020  0.8885
  387MOL0     H51069  12.700   3.570   0.396  3.8822 -1.5681 -3.0145
  387MOL0     H51070  11.095   2.869   0.908 -2.1294 -1.8825  1.4855
  387MOL0     H51071  10.855   2.924   0.972  0.7913 -0.9533  0.4318
  387MOL0     H51072  10.344   2.685   0.895 -1.9970 -1.3326 -0.0558
  387MOL0     H51073  10.108   2.764   0.903  1.5678 -0.1279  0.9112
  387MOL0     H51074   9.860   2.851   0.702  0.9504 -0.3477  0.2832
  387MOL0     H51075   9.993   2.850   0.599 -3.1861 -1.7989 -1.7414
  387MOL0     H51076   9.793   2.990   0.538  1.0499 -1.0999 -0.3660
  387MOL0     H51077   9.827   3.107   0.668 -1.3979  1.0637 -2.1022
  387MOL0     H51078  10.049   3.042   0.476 -2.2042 -1.6992 -2.5142
  387MOL0     H51079  10.011   3.199   0.551 -1.4649  0.6732 -1.0628
  387MOL0     H51080   9.965   3.199   0.298 -0.3771 -0.8827  0.1888
  387MOL0     H51081   9.870   3.060   0.294 -0.3173 -0.2889 -0.2813
  387MOL0     H51082   9.574   3.314   0.295  0.4597 -1.7830 -3.1393
  387MOL0     H51083  10.235   3.109   0.684 -1.5172  0.2743  0.6258
  387MOL0     H51084  10.461   3.070   0.727  2.2585 -1.5903  1.4973
  388MOL0     O51085  11.173   0.375   1.584 -0.4604  0.8625 -1.1838
  388MOL0     C51086  11.268   0.425   1.648  0.1029  0.2304  0.4860
  388MOL0     O51087  11.255   0.517   1.741  0.0811  0.4120 -0.0797
  388MOL0     C51088  11.132   0.564   1.757  1.5764  0.1936 -0.2446
  388MOL0     C51089  11.064   0.634   1.652  0.7219  0.2343 -0.4430
  388MOL0     C51090  10.931   0.689   1.677 -0.1991 -0.1141 -0.3283
  388MOL0     C51091  10.856   0.661   1.795 -0.4270  0.5422  0.4056
  388MOL0     O51092  10.724   0.679   1.822 -0.2129 -0.3890  0.8522
  388MOL0     C51093  10.641   0.710   1.712 -0.0015 -0.7024  1.5979
  388MOL0     C51094  10.513   0.756   1.776  0.0558  0.5611  0.2471
  388MOL0     C51095  10.412   0.781   1.668 -0.4295 -0.0284 -0.5318
  388MOL0     C51096  10.285   0.826   1.744 -0.0273  0.0967  0.7318
  388MOL0     C51097  10.188   0.893   1.658  0.1031 -0.2517 -0.2614
  388MOL0     C51098  10.103   0.795   1.578 -0.1727 -0.0483  0.3017
  388MOL0     C51099  10.021   0.889   1.485  0.9266  1.1034 -0.0906
  388MOL0     C51100   9.924   0.804   1.397  0.1518  0.4162 -1.4462
  388MOL0     N51101   9.819   0.897   1.352  0.8196 -0.3151  1.0906
  388MOL0     C51102   9.683   0.886   1.374 -0.1394 -0.4926 -0.3201
  388MOL0     C51103   9.625   0.964   1.288 -0.2569 -0.3548  1.0320
  388MOL0     C51104   9.479   0.964   1.252 -1.0855 -0.4878 -1.1630
  388MOL0     C51105   9.437   0.837   1.168  0.6887 -0.3241 -0.0854
  388MOL0     C51106   9.296   0.824   1.164  0.0511  0.6520  0.9353
  388MOL0     C51107   9.241   0.695   1.080 -0.4186 -0.8287 -0.3988
  388MOL0     O51108   9.289   0.685   0.941  0.6653  0.3296  0.2001
  388MOL0     C51109   9.260   0.566   0.871 -0.5361 -0.2146  0.7538
  388MOL0     C51110   9.173   0.468   0.913  0.3061 -0.2589  0.3586
  388MOL0     C51111   9.161   0.353   0.847  0.4681 -0.1317  0.4249
  388MOL0     C51112   9.226   0.318   0.726 -0.6511 -0.9590  0.4912
  388MOL0     C51113   9.192   0.205   0.644  0.0061  0.9826 -0.9471
  388MOL0     O51114   9.252   0.184   0.524 -0.6595 -0.4071 -0.1563
  388MOL0     C51115   9.238   0.066   0.444 -0.4876  0.4984 -0.1869
  388MOL0     C51116   9.354   0.019   0.387 -0.3109  0.2241  0.1628
  388MOL0     C51117   9.352  -0.100   0.323  0.4188  0.5069 -0.4823
  388MOL0     C51118   9.235  -0.168   0.291 -0.0574 -0.8432 -0.0850
  388MOL0     O51119   9.250  -0.289   0.234  0.4371 -0.2550 -0.5204
  388MOL0     C51120   9.153  -0.325   0.130  0.6642  0.0702  0.4438
  388MOL0     C51121   9.208  -0.455   0.063  0.5707 -0.9394 -0.3647
  388MOL0     C51122   9.203  -0.578   0.151  0.9064 -0.1492 -0.1596
  388MOL0     C51123   9.053  -0.617   0.187  0.1112  0.0035 -0.4402
  388MOL0     C51124   9.055  -0.751   0.255  0.3093 -0.1171 -0.6403
  388MOL0     C51125   8.922  -0.786   0.325  0.3442  0.4439 -0.1720
  388MOL0     C51126   8.818  -0.846   0.233  0.5617 -0.2410  0.9455
  388MOL0     C51127   8.785  -0.990   0.269  0.3476  1.0522  0.1395
  388MOL0    Cl51128   8.650  -1.060   0.161 -0.0539 -0.0106  0.5749
  388MOL0     C51129   9.115  -0.122   0.344 -0.8151 -0.0064  0.6629
  388MOL0     C51130   9.114   0.000   0.419 -0.6558 -0.1724  0.0842
  388MOL0     O51131   9.103   0.132   0.697 -0.7223  0.4110  0.4524
  388MOL0     C51132   9.310   0.425   0.671 -1.1125 -0.2220 -0.8158
  388MOL0     C51133   9.331   0.542   0.742  0.8265 -1.0203 -1.4201
  388MOL0     N51134   9.722   1.032   1.209  0.5919  0.0911 -0.7302
  388MOL0     N51135   9.836   0.994   1.254 -1.0523  0.3901  0.1503
  388MOL0     C51136  10.929   0.594   1.891  0.2279 -0.2505  0.7969
  388MOL0     C51137  11.063   0.547   1.879 -0.0193 -0.1189 -0.4394
  388MOL0     C51138  11.405   0.357   1.633  0.2685 -0.4662 -0.0269
  388MOL0     C51139  11.423   0.256   1.538  0.0351  0.9977 -0.0865
  388MOL0     C51140  11.557   0.204   1.525 -0.6524  0.2700  0.1209
  388MOL0     C51141  11.668   0.261   1.599 -0.1277  0.5827  0.9134
  388MOL0     O51142  11.786   0.212   1.550  0.1201  0.2387 -0.2114
  388MOL0     C51143  11.904   0.272   1.598 -0.3923  0.1524  0.1380
  388MOL0     C51144  11.931   0.399   1.523 -0.1392  0.8470  0.2783
  388MOL0     C51145  11.910   0.365   1.373 -0.0617  0.3411  0.8809
  388MOL0     C51146  11.957   0.503   1.309 -0.2830  0.5101  0.4454
  388MOL0     C51147  11.934   0.509   1.164  0.7448 -0.7205 -0.6991
  388MOL0     C51148  11.923   0.491   1.051 -0.3246 -1.6149  0.4110
  388MOL0     C51149  11.646   0.371   1.685 -0.6413  0.2148 -0.5430
  388MOL0     C51150  11.516   0.421   1.703  0.4874 -0.1898 -0.2338
  388MOL0     H51151  11.110   0.653   1.556  0.5723 -2.3522 -1.0888
  388MOL0     H51152  10.897   0.763   1.604 -1.7221  0.4234  0.8692
  388MOL0     H51153  10.618   0.632   1.639  0.9730  0.5684 -0.1519
  388MOL0     H51154  10.680   0.802   1.666  1.7977 -2.0462  0.3161
  388MOL0     H51155  10.536   0.853   1.820  1.8806  0.5888 -0.6834
  388MOL0     H51156  10.472   0.688   1.852  0.8062  2.2014  2.2022
  388MOL0     H51157  10.394   0.685   1.617 -1.7435 -1.0313  1.6364
  388MOL0     H51158  10.460   0.853   1.601  0.7330  0.0779  0.3872
  388MOL0     H51159  10.237   0.736   1.782 -2.0639  0.4616 -0.8253
  388MOL0     H51160  10.322   0.894   1.821 -0.9836 -0.4890  1.7404
  388MOL0     H51161  10.240   0.971   1.603 -1.4118  2.1471  1.5170
  388MOL0     H51162  10.112   0.937   1.722 -0.1062 -0.3982 -0.4080
  388MOL0     H51163  10.033   0.738   1.640 -0.8884  1.5313  1.0082
  388MOL0     H51164  10.173   0.732   1.523  0.7953  0.1224  1.3006
  388MOL0     H51165   9.952   0.948   1.547 -0.9507 -1.5844  0.5466
  388MOL0     H51166  10.080   0.954   1.420  3.0015 -2.1859 -1.7280
  388MOL0     H51167   9.872   0.736   1.465 -0.7113  0.5392 -1.9593
  388MOL0     H51168   9.980   0.747   1.322  1.9084 -0.0010  0.1093
  388MOL0     H51169   9.649   0.823   1.456  2.1586  0.3195  1.3592
  388MOL0     H51170   9.465   1.060   1.200 -0.2400  0.7449  0.7724
  388MOL0     H51171   9.413   0.974   1.338  0.8741  1.9185  0.1928
  388MOL0     H51172   9.480   0.750   1.219 -0.5161  0.2323  1.9746
  388MOL0     H51173   9.488   0.847   1.072  1.8670  1.1668  0.6483
  388MOL0     H51174   9.255   0.815   1.265  3.1868  2.1856  2.4821
  388MOL0     H51175   9.246   0.910   1.118 -0.6132 -0.8450 -1.3558
  388MOL0     H51176   9.131   0.697   1.082 -0.4096 -0.4780 -0.0983
  388MOL0     H51177   9.276   0.604   1.128  1.6959 -1.8693 -3.5646
  388MOL0     H51178   9.128   0.472   1.012  3.2449 -0.6577  1.8428
  388MOL0     H51179   9.096   0.276   0.886 -1.7121  1.6301  0.4639
  388MOL0     H51180   9.448   0.070   0.404 -0.5305  0.7015 -0.0360
  388MOL0     H51181   9.437  -0.151   0.278 -1.0283 -3.2687  0.6604
  388MOL0     H51182   9.156  -0.245   0.055  1.7651 -0.1996  0.1823
  388MOL0     H51183   9.053  -0.334   0.174  0.3332  3.9239  0.7913
  388MOL0     H51184   9.293  -0.429  -0.002  2.2940 -1.5211  1.5507
  388MOL0     H51185   9.144  -0.481  -0.021 -0.7067  2.6276 -0.6729
  388MOL0     H51186   9.267  -0.573   0.240  1.1707 -0.1499 -0.3467
  388MOL0     H51187   9.244  -0.658   0.088 -1.9725 -1.1871 -0.8643
  388MOL0     H51188   9.013  -0.538   0.252  0.7290 -0.2073  0.2019
  388MOL0     H51189   8.992  -0.626   0.096  1.4921 -1.9740 -1.2436
  388MOL0     H51190   9.131  -0.744   0.333  0.6855  3.5091 -1.1794
  388MOL0     H51191   9.092  -0.830   0.188  3.1850 -0.0030  0.7001
  388MOL0     H51192   8.887  -0.690   0.365  0.8709  0.3949  0.4347
  388MOL0     H51193   8.946  -0.848   0.412 -1.9708  0.3805  0.4937
  388MOL0     H51194   8.729  -0.783   0.243  0.3588 -0.8254  3.9503
  388MOL0     H51195   8.851  -0.838   0.129  1.3709  0.4470  1.2391
  388MOL0     H51196   8.737  -0.985   0.367 -3.3400 -0.1329 -1.4039
  388MOL0     H51197   8.865  -1.063   0.278 -0.1549  0.7587  3.2566
  388MOL0     H51198   9.015  -0.158   0.321 -1.0919  0.6966  0.7518
  388MOL0     H51199   9.022   0.048   0.450  0.2711  0.3077  2.2231
  388MOL0     H51200   9.376   0.413   0.586  1.0077  0.4216  0.6398
  388MOL0     H51201   9.399   0.620   0.709 -0.5984  0.3315 -1.2796
  388MOL0     H51202  10.876   0.574   1.983  1.8313 -0.4083  1.7177
  388MOL0     H51203  11.106   0.489   1.960 -1.8807 -2.1631 -0.8340
  388MOL0     H51204  11.338   0.212   1.486  0.1693  1.2358 -0.5062
  388MOL0     H51205  11.587   0.120   1.464  0.0934 -0.7919  1.8595
  388MOL0     H51206  11.987   0.202   1.584 -1.6275 -1.3185 -0.0375
  388MOL0     H51207  11.907   0.293   1.705 -0.7300  2.6955 -0.2820
  388MOL0     H51208  11.879   0.488   1.559 -3.1920 -0.2760 -1.0535
  388MOL0     H51209  12.039   0.415   1.530 -0.2600  1.6190  0.4505
  388MOL0     H51210  11.810   0.337   1.341  1.2346 -2.2342 -1.3761
  388MOL0     H51211  11.969   0.283   1.329 -0.1407  0.9780 -0.4564
  388MOL0     H51212  11.883   0.573   1.349 -1.2377  0.1196 -0.5810
  388MOL0     H51213  12.058   0.530   1.340  0.2626 -0.3218 -0.5293
  388MOL0     H51214  11.908   0.482   0.946  1.1374 -2.7332  0.2642
  388MOL0     H51215  11.733   0.417   1.730  0.0416 -0.8087 -0.7719
  388MOL0     H51216  11.517   0.515   1.756 -1.4329  0.1694 -0.7694
  389MOL0     O51217   2.586   6.997   4.805  0.5030 -0.3548 -0.3865
  389MOL0     C51218   2.594   7.059   4.905 -0.5789 -1.0759 -0.1861
  389MOL0     O51219   2.520   7.166   4.935  1.7695  0.7202 -1.2324
  389MOL0     C51220   2.408   7.210   4.879  0.6886  0.6562 -0.3555
  389MOL0     C51221   2.352   7.327   4.921 -0.8789 -0.6169 -0.5472
  389MOL0     C51222   2.246   7.386   4.860  0.1783  0.7642 -0.8304
  389MOL0     C51223   2.175   7.325   4.756 -0.2851  0.1508 -0.2306
  389MOL0     O51224   2.059   7.378   4.708  0.3905 -0.5261  0.2345
  389MOL0     C51225   2.089   7.485   4.605  0.0737  0.1089 -0.8154
  389MOL0     C51226   1.986   7.602   4.630 -0.0143 -0.0405 -0.1721
  389MOL0     C51227   2.021   7.655   4.764  0.1214 -0.4747 -0.4352
  389MOL0     C51228   1.955   7.785   4.810 -0.3507 -0.1679  0.2332
  389MOL0     C51229   1.804   7.801   4.788 -0.0720 -0.4401  0.0873
  389MOL0     C51230   1.748   7.910   4.890 -0.2045 -0.4079 -0.1177
  389MOL0     C51231   1.593   7.936   4.869  0.5647  1.4390  0.5714
  389MOL0     C51232   1.502   7.819   4.909  0.0082 -0.0019 -0.6554
  389MOL0     N51233   1.373   7.827   4.836 -0.2984  1.1681 -0.4721
  389MOL0     C51234   1.276   7.924   4.847  0.3829 -0.3036 -0.0490
  389MOL0     C51235   1.200   7.911   4.734  0.0986  0.1199 -0.0812
  389MOL0     C51236   1.083   8.003   4.684 -1.6405  0.4142 -0.9443
  389MOL0     C51237   0.940   7.958   4.726  1.0328  0.0456 -0.3458
  389MOL0     C51238   0.947   7.857   4.836  0.4371 -0.1837 -1.2271
  389MOL0     C51239   0.815   7.818   4.895 -0.4200  0.6438 -1.1935
  389MOL0     O51240   0.743   7.918   4.949  0.2921 -0.3233 -0.4988
  389MOL0     C51241   0.625   7.890   5.013  0.8088  0.2911 -0.7451
  389MOL0     C51242   0.550   7.778   4.997 -0.0982  0.1212 -0.8435
  389MOL0     C51243   0.434   7.753   5.076 -1.1165 -0.1778  0.7658
  389MOL0     C51244   0.403   7.843   5.178 -0.2973 -0.6589 -0.6017
  389MOL0     C51245   0.287   7.830   5.270  0.2429  0.3896  0.3151
  389MOL0     O51246   0.226   7.709   5.249  0.1394  0.5740  0.0580
  389MOL0     C51247   0.113   7.680   5.322  0.3132 -0.2034 -0.1695
  389MOL0     C51248   0.111   7.638   5.458  0.3266  0.6676 -0.0889
  389MOL0     C51249  -0.016   7.587   5.517  0.0981  0.3006  0.2112
  389MOL0     C51250  -0.136   7.592   5.438  0.5736 -0.2743  0.9875
  389MOL0     O51251  -0.264   7.560   5.497 -0.3818 -0.7516  1.0070
  389MOL0     C51252  -0.303   7.649   5.603  0.7582  0.3072 -0.6338
  389MOL0     C51253  -0.447   7.698   5.599  0.5676 -0.5082 -0.8099
  389MOL0     C51254  -0.558   7.596   5.608 -0.3575  0.3855 -0.5227
  389MOL0     C51255  -0.551   7.532   5.750  0.1230 -0.7238  0.5408
  389MOL0     C51256  -0.645   7.416   5.777 -0.7699  0.0430  0.2224
  389MOL0     C51257  -0.599   7.281   5.721 -0.4411  0.9722  0.0059
  389MOL0     C51258  -0.688   7.176   5.774  1.3266  0.4571 -0.3524
  389MOL0     C51259  -0.627   7.096   5.888  0.1380 -0.2251  0.0480
  389MOL0    Cl51260  -0.592   7.196   6.046  0.0799 -0.0509 -0.2384
  389MOL0     C51261  -0.129   7.627   5.306  0.3858 -0.4816 -0.1646
  389MOL0     C51262  -0.006   7.672   5.253 -0.1869 -0.6306  0.2746
  389MOL0     O51263   0.232   7.921   5.328 -0.2688  0.1195  0.2804
  389MOL0     C51264   0.480   7.955   5.192  0.7639 -0.7422  0.5122
  389MOL0     C51265   0.585   7.981   5.106 -0.4624 -0.2980 -0.8236
  389MOL0     N51266   1.249   7.806   4.663  0.3169  0.0448  0.8043
  389MOL0     N51267   1.348   7.756   4.723 -0.7728 -0.4344 -0.0798
  389MOL0     C51268   2.216   7.199   4.711 -0.4083 -0.4170  0.3919
  389MOL0     C51269   2.336   7.150   4.774  0.1560 -0.7060  0.6125
  389MOL0     C51270   2.729   7.063   4.974 -0.0724 -0.0928 -0.6137
  389MOL0     C51271   2.784   7.176   5.039 -0.2352 -0.6063  0.0832
  389MOL0     C51272   2.903   7.174   5.117  0.4435  0.9712  0.4087
  389MOL0     C51273   2.971   7.047   5.128  0.1724  0.0592  0.4275
  389MOL0     O51274   3.088   7.030   5.193 -0.2940  0.2859  0.3297
  389MOL0     C51275   3.145   7.141   5.275  0.9322  0.0454 -0.2340
  389MOL0     C51276   3.271   7.091   5.342  0.4290  0.8105  0.1321
  389MOL0     C51277   3.336   7.196   5.439  1.0203  0.5858  0.1669
  389MOL0     C51278   3.484   7.211   5.440  0.2752 -0.9316 -0.2878
  389MOL0     C51279   3.536   7.292   5.328  0.6407 -0.3175 -0.0361
  389MOL0     C51280   3.565   7.350   5.220 -0.4071  0.1213 -0.2082
  389MOL0     C51281   2.924   6.931   5.056 -0.0406  0.4919  0.0731
  389MOL0     C51282   2.811   6.946   4.976 -0.3182  0.0474  1.2582
  389MOL0     H51283   2.402   7.382   5.001 -0.5227  1.4269 -2.0928
  389MOL0     H51284   2.217   7.475   4.915 -0.4580 -0.7736  1.5117
  389MOL0     H51285   2.067   7.444   4.506 -0.5695  2.7651 -1.8685
  389MOL0     H51286   2.190   7.525   4.595  0.3899 -1.0482 -2.7406
  389MOL0     H51287   1.882   7.571   4.624  0.1084 -0.4135 -0.4537
  389MOL0     H51288   1.991   7.688   4.563 -0.1331  1.0683  1.1937
  389MOL0     H51289   2.129   7.672   4.766  0.6023 -2.8821 -1.2693
  389MOL0     H51290   1.992   7.576   4.834 -1.4663  1.6047  1.3873
  389MOL0     H51291   1.979   7.795   4.916  0.1357  3.6670 -0.1188
  389MOL0     H51292   2.006   7.866   4.757  1.0033 -0.9436  0.3157
  389MOL0     H51293   1.762   7.703   4.812  0.1318 -0.9117 -1.3882
  389MOL0     H51294   1.792   7.820   4.681  0.8293 -1.2176 -0.1673
  389MOL0     H51295   1.789   8.010   4.872 -3.3953  0.8309 -1.0802
  389MOL0     H51296   1.764   7.877   4.993 -2.8273  1.0967  0.8618
  389MOL0     H51297   1.569   8.031   4.919 -0.1951  2.1966 -1.1266
  389MOL0     H51298   1.588   7.939   4.760  1.4768 -2.6932  0.2797
  389MOL0     H51299   1.496   7.809   5.018 -1.0272 -2.6127 -0.8779
  389MOL0     H51300   1.536   7.720   4.879 -0.7755 -0.4682 -0.0379
  389MOL0     H51301   1.275   7.996   4.928 -0.4741 -0.9173  0.5010
  389MOL0     H51302   1.092   8.036   4.581 -0.2000 -0.0288 -0.9788
  389MOL0     H51303   1.093   8.099   4.735 -2.4327 -0.5362  1.1288
  389MOL0     H51304   0.885   7.921   4.639  1.1567  1.6097 -1.1125
  389MOL0     H51305   0.881   8.036   4.774  1.8571  0.1413  0.5493
  389MOL0     H51306   1.000   7.772   4.793  0.0180 -1.2282  0.2494
  389MOL0     H51307   1.003   7.899   4.920  0.1857  1.5613 -1.9023
  389MOL0     H51308   0.837   7.737   4.965  2.6150 -0.1239 -2.8325
  389MOL0     H51309   0.757   7.775   4.813  2.8887 -3.6288 -1.6974
  389MOL0     H51310   0.589   7.699   4.934  0.6764  0.4907 -0.8359
  389MOL0     H51311   0.380   7.660   5.058 -0.5819  0.0256 -2.4179
  389MOL0     H51312   0.203   7.630   5.514 -0.1615  0.6457  0.7420
  389MOL0     H51313  -0.025   7.564   5.622 -2.1273  0.5077  0.0983
  389MOL0     H51314  -0.247   7.743   5.601 -0.4984  1.1754  1.6487
  389MOL0     H51315  -0.281   7.598   5.697  1.7472  0.9382 -0.5079
  389MOL0     H51316  -0.454   7.742   5.499  0.2876  0.8395 -0.2168
  389MOL0     H51317  -0.455   7.780   5.671  2.1714  1.4133 -2.6701
  389MOL0     H51318  -0.539   7.520   5.531 -1.1598  0.7940 -1.1349
  389MOL0     H51319  -0.654   7.647   5.599  0.6220  2.2547 -0.7819
  389MOL0     H51320  -0.451   7.489   5.763  1.3189  1.2147 -1.5914
  389MOL0     H51321  -0.568   7.616   5.818 -0.9972  2.4578 -3.3138
  389MOL0     H51322  -0.751   7.435   5.756 -0.9428 -0.4257  0.6488
  389MOL0     H51323  -0.646   7.398   5.885 -0.4655  4.4365  1.1405
  389MOL0     H51324  -0.501   7.258   5.765  0.8509  2.6368 -1.7994
  389MOL0     H51325  -0.594   7.278   5.611 -2.1790 -0.2021 -0.0837
  389MOL0     H51326  -0.780   7.226   5.805 -1.7092 -3.0413 -2.7990
  389MOL0     H51327  -0.706   7.097   5.701  2.3377  1.7161 -2.0130
  389MOL0     H51328  -0.535   7.043   5.862  0.6119  1.0871 -1.0241
  389MOL0     H51329  -0.701   7.025   5.926  0.3129 -0.7405 -0.5650
  389MOL0     H51330  -0.208   7.616   5.233  1.8995  1.1872 -2.1832
  389MOL0     H51331  -0.018   7.697   5.148 -6.0287 -0.5027  0.5962
  389MOL0     H51332   0.460   8.028   5.270  0.3656  0.5939 -0.8095
  389MOL0     H51333   0.647   8.068   5.124 -1.6905  1.2070 -3.3387
  389MOL0     H51334   2.162   7.159   4.626 -0.0545 -0.8259  0.3578
  389MOL0     H51335   2.374   7.055   4.739 -0.9769 -2.5499  3.9155
  389MOL0     H51336   2.722   7.265   5.041  2.0090  1.5889 -5.9610
  389MOL0     H51337   2.945   7.261   5.165  2.5359 -0.2405  0.9272
  389MOL0     H51338   3.069   7.175   5.347  2.0336  0.9568  0.5332
  389MOL0     H51339   3.177   7.220   5.207  0.2080  0.9082  0.3974
  389MOL0     H51340   3.245   6.997   5.392 -3.5673 -0.2599 -3.3990
  389MOL0     H51341   3.338   7.061   5.261 -1.9075 -0.2272 -1.5343
  389MOL0     H51342   3.314   7.174   5.544 -0.8518 -0.5015 -0.4006
  389MOL0     H51343   3.297   7.295   5.414  1.0445  0.6118  0.2290
  389MOL0     H51344   3.519   7.239   5.540  0.5897 -0.6237 -0.4800
  389MOL0     H51345   3.505   7.107   5.418 -2.4167 -1.0019 -3.2048
  389MOL0     H51346   3.590   7.402   5.130  0.1773  2.9260  1.4341
  389MOL0     H51347   2.975   6.835   5.059 -0.7783  0.1036  2.2566
  389MOL0     H51348   2.777   6.861   4.918  2.0048  0.5213 -1.0010
  390MOL0     O51349   1.198  11.231   3.913 -0.1161 -1.0398 -0.1474
  390MOL0     C51350   1.250  11.158   4.000  0.2009 -0.0663 -1.0484
  390MOL0     O51351   1.180  11.097   4.104  0.0395 -0.1873 -0.8204
  390MOL0     C51352   1.044  11.119   4.099  0.0113  0.1976 -0.0087
  390MOL0     C51353   0.959  11.032   4.034  0.6364 -0.0081 -0.0882
  390MOL0     C51354   0.819  11.065   4.019  0.8143 -0.4236 -0.3080
  390MOL0     C51355   0.768  11.183   4.087  0.2435 -0.7085 -0.2995
  390MOL0     O51356   0.633  11.214   4.085 -0.3543  0.1176 -0.1119
  390MOL0     C51357   0.536  11.112   4.061 -0.2298  0.2808 -0.6415
  390MOL0     C51358   0.400  11.177   4.042  0.1711 -0.8505  0.4061
  390MOL0     C51359   0.352  11.266   4.153  0.6912 -0.9356 -0.9283
  390MOL0     C51360   0.202  11.307   4.138  0.2295 -0.0034 -0.4615
  390MOL0     C51361   0.133  11.342   4.283  1.5269 -1.3067  0.4951
  390MOL0     C51362  -0.016  11.364   4.258 -0.2104  0.0672 -0.0039
  390MOL0     C51363  -0.105  11.382   4.387 -0.4512  0.3717  0.0570
  390MOL0     C51364  -0.229  11.466   4.367  0.1816 -0.8258 -0.0107
  390MOL0     N51365  -0.312  11.458   4.482 -0.0526 -0.6379 -0.0472
  390MOL0     C51366  -0.297  11.549   4.589 -0.2687 -1.0042  0.2107
  390MOL0     C51367  -0.378  11.494   4.683 -0.2039 -0.1314  0.0878
  390MOL0     C51368  -0.415  11.565   4.809  0.3517 -0.9616 -0.5888
  390MOL0     C51369  -0.561  11.611   4.787  0.4923 -0.2771 -0.2192
  390MOL0     C51370  -0.610  11.675   4.923  0.1896  0.1497 -0.5178
  390MOL0     C51371  -0.761  11.716   4.921 -0.3100  0.3314  0.7884
  390MOL0     O51372  -0.797  11.846   4.863  0.7573  0.3121 -0.3106
  390MOL0     C51373  -0.929  11.881   4.872  0.3791  0.6256  0.4373
  390MOL0     C51374  -0.953  12.009   4.849  1.0556  0.3099  0.2255
  390MOL0     C51375  -1.087  12.059   4.853  0.0236  0.5291  0.6964
  390MOL0     C51376  -1.187  11.966   4.886  0.3612 -0.7622  0.6631
  390MOL0     C51377  -1.338  12.011   4.903  0.4910  0.0831 -0.5011
  390MOL0     O51378  -1.351  12.144   4.885  0.0754  0.2152 -0.2940
  390MOL0     C51379  -1.471  12.214   4.907  0.0567  0.3245 -0.3061
  390MOL0     C51380  -1.582  12.210   4.811 -0.2311 -0.1556 -0.5344
  390MOL0     C51381  -1.697  12.283   4.838 -0.1776  0.7039 -1.0341
  390MOL0     C51382  -1.692  12.371   4.955  0.2670  1.3242  0.9767
  390MOL0     O51383  -1.793  12.458   4.992  0.3831 -0.4587  0.9008
  390MOL0     C51384  -1.891  12.504   4.899 -0.5492  0.3081 -0.0639
  390MOL0     C51385  -1.985  12.579   4.989  0.5190 -0.5236 -0.6070
  390MOL0     C51386  -2.124  12.596   4.928 -0.4697  0.2460  0.6881
  390MOL0     C51387  -2.221  12.680   5.010  0.5211  0.5316  1.0662
  390MOL0     C51388  -2.359  12.678   4.937 -0.0961  0.4865 -0.5433
  390MOL0     C51389  -2.431  12.551   4.967  0.7730 -0.7952 -0.1646
  390MOL0     C51390  -2.578  12.562   4.908  0.4498  0.6194 -0.1356
  390MOL0     C51391  -2.676  12.643   4.991 -0.8932  0.3286 -0.0798
  390MOL0    Cl51392  -2.754  12.559   5.128  0.0981  0.0176 -0.0155
  390MOL0     C51393  -1.584  12.374   5.037 -0.0528 -0.1200  0.6575
  390MOL0     C51394  -1.475  12.297   5.016  0.7408  0.6845  0.5987
  390MOL0     O51395  -1.430  11.932   4.919 -0.0675 -0.5955  0.1371
  390MOL0     C51396  -1.165  11.829   4.897  0.3451  0.3203  0.1549
  390MOL0     C51397  -1.036  11.791   4.899  0.5705 -0.0994 -1.0479
  390MOL0     N51398  -0.436  11.379   4.632 -0.5310  0.0662  0.1152
  390MOL0     N51399  -0.385  11.349   4.510  0.5072 -0.0428 -0.3921
  390MOL0     C51400   0.856  11.266   4.149  0.9462 -0.0989 -0.6132
  390MOL0     C51401   0.996  11.236   4.155  0.2255  0.8625 -0.0465
  390MOL0     C51402   1.393  11.163   4.008 -0.5879  1.3240 -0.2142
  390MOL0     C51403   1.463  11.076   4.090 -0.8195  0.4385 -0.0584
  390MOL0     C51404   1.604  11.073   4.103  0.2348  0.6593 -0.6469
  390MOL0     C51405   1.681  11.158   4.034  0.7722  0.1270  0.2348
  390MOL0     O51406   1.816  11.127   4.049 -0.2167  0.3357 -0.2532
  390MOL0     C51407   1.914  11.207   3.978  0.1750  0.6840 -0.0662
  390MOL0     C51408   2.060  11.155   4.031 -0.4316 -0.3473  0.3099
  390MOL0     C51409   2.077  11.004   4.028 -0.5130  0.8954 -1.2120
  390MOL0     C51410   2.059  10.937   3.890 -0.6091 -0.4992 -0.5730
  390MOL0     C51411   2.161  10.970   3.788 -0.4268  0.3372  0.7634
  390MOL0     C51412   2.248  10.982   3.706 -0.0313 -0.5257  0.5660
  390MOL0     C51413   1.623  11.258   3.944 -0.1013  0.4158  1.4020
  390MOL0     C51414   1.479  11.252   3.933 -0.6872 -0.3894  0.1788
  390MOL0     H51415   1.004  10.946   3.987 -1.3114  0.5875 -3.3627
  390MOL0     H51416   0.756  10.997   3.962 -1.2750 -0.2944  1.6973
  390MOL0     H51417   0.523  11.044   4.145  0.0278  1.5261  0.4313
  390MOL0     H51418   0.565  11.072   3.963 -0.8520  2.4341 -1.7686
  390MOL0     H51419   0.328  11.096   4.032  1.2055 -1.6748 -0.5145
  390MOL0     H51420   0.393  11.232   3.948 -0.4435 -3.8211 -1.4034
  390MOL0     H51421   0.415  11.356   4.150 -0.3557 -0.2044 -2.1995
  390MOL0     H51422   0.361  11.224   4.254 -1.9945  2.5418  0.9865
  390MOL0     H51423   0.194  11.391   4.068  1.8745  1.4284  0.9921
  390MOL0     H51424   0.138  11.224   4.105  0.5599 -0.6062  0.3913
  390MOL0     H51425   0.176  11.430   4.330 -0.2181 -0.8276  1.2739
  390MOL0     H51426   0.142  11.259   4.355  0.6388 -0.3705  1.7315
  390MOL0     H51427  -0.070  11.283   4.209 -1.0660  0.5289  0.1693
  390MOL0     H51428  -0.021  11.450   4.190  0.0965 -1.3082 -1.8474
  390MOL0     H51429  -0.131  11.283   4.425 -1.3416 -1.4430 -4.6050
  390MOL0     H51430  -0.054  11.426   4.473 -2.5739  0.9046  1.0864
  390MOL0     H51431  -0.280  11.416   4.285 -0.8840 -1.4404  1.0100
  390MOL0     H51432  -0.209  11.571   4.342  2.2140 -0.8558  1.2577
  390MOL0     H51433  -0.252  11.648   4.592 -0.9985 -0.6855  1.4764
  390MOL0     H51434  -0.340  11.638   4.839 -2.5295  2.4656 -0.9888
  390MOL0     H51435  -0.429  11.497   4.893  0.9323 -1.2209 -0.6990
  390MOL0     H51436  -0.631  11.530   4.765  1.9230 -1.7162  0.3870
  390MOL0     H51437  -0.572  11.693   4.715 -0.7065  0.8876  1.2225
  390MOL0     H51438  -0.613  11.602   5.005 -2.7972 -0.6970 -1.2838
  390MOL0     H51439  -0.555  11.769   4.938 -0.4863  0.1960  2.2364
  390MOL0     H51440  -0.793  11.717   5.026  1.4156  1.0700  1.3442
  390MOL0     H51441  -0.809  11.638   4.861 -1.9770 -0.5525  3.1005
  390MOL0     H51442  -0.866  12.065   4.819  2.1807 -3.3501 -4.5748
  390MOL0     H51443  -1.114  12.164   4.853  0.9616  0.9660  5.2816
  390MOL0     H51444  -1.584  12.150   4.720  1.7270 -0.3968 -0.4446
  390MOL0     H51445  -1.779  12.291   4.768  0.9942  1.5003 -2.3549
  390MOL0     H51446  -1.944  12.418   4.857  2.5539 -1.9124  0.2919
  390MOL0     H51447  -1.860  12.569   4.817 -0.5286 -1.4177 -1.4875
  390MOL0     H51448  -1.955  12.683   5.007  0.7620 -0.4655 -1.3480
  390MOL0     H51449  -1.999  12.527   5.084  0.2457 -0.3836 -0.5682
  390MOL0     H51450  -2.169  12.497   4.918  1.0661 -0.5949  1.6772
  390MOL0     H51451  -2.114  12.640   4.828  0.3833 -0.6660  0.3509
  390MOL0     H51452  -2.234  12.638   5.110 -0.2925  1.4368  1.3535
  390MOL0     H51453  -2.185  12.783   5.019  0.8728  0.6638 -1.2498
  390MOL0     H51454  -2.342  12.699   4.831  1.0799  1.4666 -0.1881
  390MOL0     H51455  -2.414  12.765   4.976  2.9022  1.6955  1.3624
  390MOL0     H51456  -2.433  12.540   5.076 -1.0741  0.2254 -0.0541
  390MOL0     H51457  -2.379  12.470   4.914  1.2496 -0.2629 -0.5258
  390MOL0     H51458  -2.570  12.616   4.813 -1.9162  0.9473 -0.1994
  390MOL0     H51459  -2.619  12.462   4.892 -0.6587  1.0022  0.2462
  390MOL0     H51460  -2.746  12.698   4.927  2.1120  3.5423 -0.9627
  390MOL0     H51461  -2.616  12.719   5.043  0.1088 -0.8068  0.4592
  390MOL0     H51462  -1.578  12.452   5.112  0.4442 -1.1663  1.7349
  390MOL0     H51463  -1.392  12.301   5.086 -1.0724  1.6566  2.8269
  390MOL0     H51464  -1.235  11.747   4.913  0.7702  0.0105  0.4357
  390MOL0     H51465  -1.018  11.690   4.935 -2.3538 -0.5615 -0.5866
  390MOL0     H51466   0.838  11.357   4.205  3.6546  0.9475 -1.3203
  390MOL0     H51467   1.068  11.302   4.202  1.9978 -0.0104 -1.4269
  390MOL0     H51468   1.391  11.016   4.146 -1.9774  2.1772  0.3922
  390MOL0     H51469   1.649  11.003   4.173 -2.4557  1.0903  1.6858
  390MOL0     H51470   1.895  11.314   3.992  1.6699  0.8978  0.5125
  390MOL0     H51471   1.896  11.186   3.872  1.2849 -0.9394  0.0382
  390MOL0     H51472   2.133  11.199   3.963  0.2922 -1.8431  0.0740
  390MOL0     H51473   2.085  11.197   4.129  1.5935  1.0870 -0.7457
  390MOL0     H51474   2.004  10.963   4.097 -0.2595  1.6405 -0.4830
  390MOL0     H51475   2.174  10.978   4.071 -0.7467 -2.8438 -2.6126
  390MOL0     H51476   2.052  10.830   3.914  0.3999 -0.0063  2.3248
  390MOL0     H51477   1.958  10.953   3.851 -1.7123 -1.2921  1.7525
  390MOL0     H51478   2.322  11.025   3.641  0.1679  3.1674  2.9666
  390MOL0     H51479   1.680  11.319   3.875  0.4613 -0.9671  0.6039
  390MOL0     H51480   1.427  11.319   3.865 -2.4047  0.9536  2.6767
  391MOL0     O51481   2.557   3.939  11.032  0.0976 -0.8886  0.2099
  391MOL0     C51482   2.572   3.860  11.126  0.6470 -0.6766  0.5008
  391MOL0     O51483   2.462   3.805  11.199 -0.7668 -0.2870  0.7145
  391MOL0     C51484   2.339   3.852  11.168 -0.7983  0.2294  0.1215
  391MOL0     C51485   2.264   3.915  11.269 -0.7693  0.7293  0.4259
  391MOL0     C51486   2.144   3.967  11.234  0.5656  0.0878 -0.3931
  391MOL0     C51487   2.093   3.950  11.103  0.1635  0.5928 -0.4874
  391MOL0     O51488   1.969   3.993  11.069  0.4226  0.5915  0.7023
  391MOL0     C51489   1.890   4.077  11.143 -0.2553 -1.1588  0.6316
  391MOL0     C51490   1.748   4.058  11.087  0.3115  0.3606  0.2745
  391MOL0     C51491   1.633   4.135  11.160 -0.0631  0.3273 -0.6696
  391MOL0     C51492   1.491   4.088  11.122 -0.1123 -0.6622  0.3063
  391MOL0     C51493   1.380   4.176  11.176  0.0401  0.2948 -0.3092
  391MOL0     C51494   1.411   4.329  11.168 -1.2081 -0.1009  0.3145
  391MOL0     C51495   1.286   4.404  11.225  0.8352 -0.5190  0.5188
  391MOL0     C51496   1.160   4.396  11.131 -0.3994  0.6405  0.3395
  391MOL0     N51497   1.049   4.482  11.170  0.0050 -0.0021 -0.2778
  391MOL0     C51498   0.953   4.520  11.077 -0.1115 -0.5079  1.3886
  391MOL0     C51499   0.837   4.524  11.142  0.0067  0.5322  0.3878
  391MOL0     C51500   0.705   4.550  11.081  0.4481 -0.7309 -0.1684
  391MOL0     C51501   0.601   4.442  11.113 -0.5727 -0.9256 -0.8635
  391MOL0     C51502   0.466   4.441  11.033 -0.5534 -0.5514  0.2133
  391MOL0     C51503   0.399   4.576  11.039  0.3859  0.2047 -0.3588
  391MOL0     O51504   0.269   4.580  10.978 -0.4333  0.7448 -0.1932
  391MOL0     C51505   0.183   4.680  11.009 -1.3629  1.0506  0.8616
  391MOL0     C51506   0.060   4.651  10.953 -0.5779  1.2374  0.5720
  391MOL0     C51507  -0.046   4.727  10.996 -0.4063 -1.1520 -0.1469
  391MOL0     C51508  -0.035   4.831  11.093 -0.5644 -0.5124  0.2541
  391MOL0     C51509  -0.151   4.902  11.152 -0.1098 -0.2186 -0.7991
  391MOL0     O51510  -0.128   5.000  11.244  0.6043  0.3399 -0.4574
  391MOL0     C51511  -0.240   5.054  11.308  0.2200  0.5740 -0.2725
  391MOL0     C51512  -0.282   5.004  11.432  0.8299 -0.1788  0.6717
  391MOL0     C51513  -0.405   5.059  11.485 -0.7368  0.2762  0.6911
  391MOL0     C51514  -0.487   5.146  11.412  0.5119  0.0105  0.9475
  391MOL0     O51515  -0.608   5.161  11.470  0.4921  0.0989 -0.0541
  391MOL0     C51516  -0.713   5.237  11.396 -0.1329  0.0266  0.1090
  391MOL0     C51517  -0.851   5.210  11.443  0.1316  0.6732  0.0630
  391MOL0     C51518  -0.899   5.064  11.435 -1.2076  0.5572  0.1232
  391MOL0     C51519  -0.839   4.984  11.562  0.2784 -0.0551 -0.2740
  391MOL0     C51520  -0.901   4.844  11.584  0.2000 -0.0930 -0.1079
  391MOL0     C51521  -0.905   4.757  11.449 -0.1999  0.2917 -0.3142
  391MOL0     C51522  -0.933   4.609  11.470 -0.9468 -0.2686 -0.4048
  391MOL0     C51523  -1.081   4.575  11.488  0.5629  1.2337  0.7880
  391MOL0    Cl51524  -1.163   4.680  11.600  0.1336  0.0516  0.2525
  391MOL0     C51525  -0.449   5.176  11.282  0.1229  0.0719  0.4022
  391MOL0     C51526  -0.328   5.133  11.237  0.1975  0.4026  1.1160
  391MOL0     O51527  -0.264   4.882  11.098 -0.1977  0.3820 -0.2784
  391MOL0     C51528   0.089   4.857  11.148 -0.2695  0.7384 -1.1776
  391MOL0     C51529   0.203   4.779  11.111 -0.1924  1.2486  0.6572
  391MOL0     N51530   0.863   4.507  11.277  0.6093 -0.0255 -0.2195
  391MOL0     N51531   0.990   4.489  11.296 -0.3395 -0.2565  0.1189
  391MOL0     C51532   2.164   3.870  11.010  0.3460 -0.4065  0.0354
  391MOL0     C51533   2.285   3.814  11.048  0.0780  0.5273 -0.2426
  391MOL0     C51534   2.712   3.825  11.169  0.2487 -0.1484 -0.6733
  391MOL0     C51535   2.735   3.803  11.309  0.1249 -0.3985  0.1385
  391MOL0     C51536   2.860   3.800  11.355 -1.2244  0.4169  1.1339
  391MOL0     C51537   2.967   3.778  11.265 -0.2755 -0.3036  0.3350
  391MOL0     O51538   3.090   3.746  11.327  0.5310 -0.8536  0.6295
  391MOL0     C51539   3.193   3.717  11.235 -0.3756  0.5395 -0.3058
  391MOL0     C51540   3.307   3.636  11.301  1.1786  0.8367  0.5998
  391MOL0     C51541   3.386   3.712  11.398  0.2834  0.2408 -0.2302
  391MOL0     C51542   3.474   3.617  11.486 -0.1629  0.7737 -0.0780
  391MOL0     C51543   3.583   3.560  11.410  0.3002 -0.0390 -0.9152
  391MOL0     C51544   3.640   3.495  11.323 -1.1246 -0.2666 -0.1089
  391MOL0     C51545   2.945   3.791  11.125  0.1362 -0.5234 -0.7243
  391MOL0     C51546   2.818   3.822  11.076 -0.2615 -0.1648  0.3498
  391MOL0     H51547   2.304   3.932  11.369  1.7755  2.3512 -0.7764
  391MOL0     H51548   2.086   4.017  11.312  0.8607 -0.3890  0.1418
  391MOL0     H51549   1.920   4.182  11.144  0.4264 -1.3219  2.7542
  391MOL0     H51550   1.879   4.050  11.249 -1.3202 -0.1510  0.8006
  391MOL0     H51551   1.729   3.951  11.077 -2.1020  0.4223  2.8851
  391MOL0     H51552   1.750   4.095  10.984  1.6257 -0.2521  0.0648
  391MOL0     H51553   1.648   4.242  11.145 -4.1982  1.3770  1.1305
  391MOL0     H51554   1.641   4.119  11.269 -3.3922 -0.7513 -0.4578
  391MOL0     H51555   1.479   4.113  11.016 -0.4089 -1.6731  0.0865
  391MOL0     H51556   1.479   3.981  11.141  2.4749 -0.9486  0.7616
  391MOL0     H51557   1.351   4.132  11.272  1.2425 -2.3008 -1.0430
  391MOL0     H51558   1.294   4.152  11.113  0.0428 -2.2095  0.5182
  391MOL0     H51559   1.443   4.362  11.069 -2.4586  0.9721  0.2430
  391MOL0     H51560   1.490   4.358  11.238 -1.4405  1.1347  0.0916
  391MOL0     H51561   1.258   4.353  11.318  3.3395 -1.0879  1.0453
  391MOL0     H51562   1.310   4.509  11.244 -2.6575  0.3214  0.9617
  391MOL0     H51563   1.128   4.293  11.115  4.0978 -0.8310 -0.6422
  391MOL0     H51564   1.193   4.420  11.030 -0.1332  1.0934  0.5281
  391MOL0     H51565   0.982   4.533  10.973  2.8802 -2.1251  1.8797
  391MOL0     H51566   0.714   4.553  10.972 -0.9165 -2.5741 -0.3900
  391MOL0     H51567   0.663   4.649  11.099 -1.6682 -1.0534 -2.7328
  391MOL0     H51568   0.572   4.446  11.218 -1.7698  2.5458 -1.2023
  391MOL0     H51569   0.645   4.348  11.079 -1.4657 -2.2275  1.3487
  391MOL0     H51570   0.488   4.421  10.927 -0.3303  2.1043 -0.3149
  391MOL0     H51571   0.405   4.359  11.072  0.4453  0.0234  3.1722
  391MOL0     H51572   0.454   4.659  10.992 -1.2938 -0.5494 -4.0354
  391MOL0     H51573   0.391   4.591  11.147 -0.0329 -1.6761 -0.1103
  391MOL0     H51574   0.061   4.570  10.881 -2.7313  1.4775  0.2207
  391MOL0     H51575  -0.147   4.701  10.968 -0.1632 -1.0815 -1.1310
  391MOL0     H51576  -0.227   4.926  11.484 -0.6538 -0.5503  1.7663
  391MOL0     H51577  -0.435   5.021  11.583 -0.4951  2.1306  1.5367
  391MOL0     H51578  -0.713   5.216  11.289  1.1317 -0.8935  0.2762
  391MOL0     H51579  -0.688   5.344  11.404 -2.3639  0.7725 -1.6538
  391MOL0     H51580  -0.918   5.255  11.369 -1.1631 -3.6651 -1.6945
  391MOL0     H51581  -0.864   5.263  11.538  2.9379  1.2899  0.1911
  391MOL0     H51582  -0.881   5.019  11.338  0.1120 -0.1831  0.6801
  391MOL0     H51583  -1.008   5.064  11.434 -1.2039  0.1780 -0.9334
  391MOL0     H51584  -0.731   4.969  11.556 -0.0493 -2.2892 -1.3495
  391MOL0     H51585  -0.844   5.045  11.653 -1.8210 -2.8498  1.7025
  391MOL0     H51586  -1.005   4.866  11.613 -0.4060 -2.0790 -0.6042
  391MOL0     H51587  -0.852   4.780  11.659 -0.7566 -1.8937 -0.9371
  391MOL0     H51588  -0.809   4.772  11.400  0.3539  1.1001  0.9617
  391MOL0     H51589  -0.977   4.794  11.376 -0.4908  3.0075  1.2009
  391MOL0     H51590  -0.885   4.546  11.395 -1.9324 -1.0268 -0.4201
  391MOL0     H51591  -0.883   4.594  11.567  5.1013  2.9099 -2.5022
  391MOL0     H51592  -1.094   4.473  11.524  1.5418  0.5708 -0.6422
  391MOL0     H51593  -1.139   4.585  11.396 -0.4420 -1.4109  1.0560
  391MOL0     H51594  -0.513   5.243  11.226 -0.0583  1.5440  2.2580
  391MOL0     H51595  -0.289   5.155  11.138  1.1942  1.9649  1.8034
  391MOL0     H51596   0.106   4.922  11.234  1.3707 -2.0872  0.8416
  391MOL0     H51597   0.297   4.796  11.162  0.4839  0.0577 -0.1228
  391MOL0     H51598   2.110   3.859  10.916 -2.6651  1.3788  1.4132
  391MOL0     H51599   2.329   3.747  10.975 -1.9056 -1.4662  0.2857
  391MOL0     H51600   2.644   3.805  11.369 -0.0046 -0.2781 -0.0625
  391MOL0     H51601   2.875   3.797  11.463 -2.6612  0.5130  1.3487
  391MOL0     H51602   3.230   3.811  11.193  0.1420 -0.6589 -2.6821
  391MOL0     H51603   3.163   3.644  11.159  1.1918  1.1803 -1.5749
  391MOL0     H51604   3.254   3.550  11.343  0.3250 -1.2949 -4.1793
  391MOL0     H51605   3.376   3.590  11.231  0.1464  2.9596 -2.0109
  391MOL0     H51606   3.331   3.764  11.477  0.5866  0.0022  0.1409
  391MOL0     H51607   3.451   3.774  11.335  3.3457 -2.4011  0.0772
  391MOL0     H51608   3.516   3.667  11.574  1.7116 -0.2924 -0.3103
  391MOL0     H51609   3.404   3.543  11.526 -1.8425  2.5527  0.4351
  391MOL0     H51610   3.682   3.445  11.238  2.0600  2.1711 -0.1558
  391MOL0     H51611   3.032   3.796  11.061  2.8357 -1.1404  2.5796
  391MOL0     H51612   2.813   3.843  10.969 -1.1673  0.2329  0.4681
  392MOL0     O51613   8.446   4.981   0.167 -0.0543 -0.1540 -0.2395
  392MOL0     C51614   8.402   5.092   0.199 -0.1255 -0.6551  0.0067
  392MOL0     O51615   8.271   5.132   0.187  0.2317 -0.2646  0.0165
  392MOL0     C51616   8.176   5.063   0.115  0.7057  0.1489 -0.7273
  392MOL0     C51617   8.161   4.920   0.125 -0.0348 -0.6553 -0.2020
  392MOL0     C51618   8.070   4.855   0.053 -0.1534 -0.4557  0.9940
  392MOL0     C51619   7.981   4.927  -0.035 -0.5979  0.6117  0.9000
  392MOL0     O51620   7.871   4.873  -0.099  0.4021  0.0348  0.5735
  392MOL0     C51621   7.845   4.732  -0.100  0.1657 -0.6089  0.1434
  392MOL0     C51622   7.760   4.675   0.019  0.6621  0.2922  0.1945
  392MOL0     C51623   7.629   4.756   0.028  0.3221  0.1551  0.4672
  392MOL0     C51624   7.530   4.687   0.133  0.1016  0.2286 -0.3616
  392MOL0     C51625   7.408   4.766   0.166 -0.2426 -0.2037  0.3656
  392MOL0     C51626   7.299   4.669   0.221  0.0471 -0.0292 -1.2331
  392MOL0     C51627   7.161   4.734   0.255  0.2211 -0.1476 -0.1714
  392MOL0     C51628   7.145   4.853   0.350 -0.1927 -0.3718  0.2665
  392MOL0     N51629   7.227   4.848   0.474 -0.4772  0.0058 -0.2319
  392MOL0     C51630   7.331   4.935   0.503  0.6236 -0.4077  0.2922
  392MOL0     C51631   7.391   4.901   0.614  0.5356  0.2635  0.2406
  392MOL0     C51632   7.500   4.970   0.684  0.3876  0.0360  0.4887
  392MOL0     C51633   7.625   4.871   0.687  0.3764 -0.2463 -0.7167
  392MOL0     C51634   7.739   4.929   0.776 -0.1395  0.1624  0.1096
  392MOL0     C51635   7.722   4.914   0.935  1.2907  0.3161  1.5195
  392MOL0     O51636   7.791   4.806   0.990  0.2134  0.8479 -0.0184
  392MOL0     C51637   7.922   4.818   1.030  1.0411 -0.8491 -0.7599
  392MOL0     C51638   7.975   4.700   1.082 -0.3646  0.2803 -0.1334
  392MOL0     C51639   8.114   4.701   1.111  0.2265  0.4747 -0.5430
  392MOL0     C51640   8.197   4.812   1.093  0.2557  0.7059 -0.3761
  392MOL0     C51641   8.346   4.798   1.122  0.2640  0.5508 -1.0279
  392MOL0     O51642   8.434   4.876   1.048  0.1897  0.4746 -0.1126
  392MOL0     C51643   8.567   4.844   1.049 -0.0995  0.3427  0.1753
  392MOL0     C51644   8.608   4.750   0.955  0.6939  0.9807  1.3917
  392MOL0     C51645   8.741   4.731   0.934  0.8058  0.2456  0.2152
  392MOL0     C51646   8.839   4.792   1.020  0.6256  0.1411  0.9915
  392MOL0     O51647   8.968   4.769   0.999 -0.2701  0.7329  0.0928
  392MOL0     C51648   9.077   4.814   1.079 -0.4718  0.6853  0.1596
  392MOL0     C51649   9.197   4.719   1.069  0.7906  0.6891 -1.6084
  392MOL0     C51650   9.324   4.804   1.050  0.5595 -0.3533 -0.3659
  392MOL0     C51651   9.440   4.706   1.055 -0.1726  0.4822  0.5924
  392MOL0     C51652   9.578   4.773   1.035 -0.3195 -0.0956 -0.5297
  392MOL0     C51653   9.690   4.680   1.027  0.0755 -0.9141 -0.1216
  392MOL0     C51654   9.731   4.623   1.156 -0.6666  0.3444 -0.0094
  392MOL0     C51655   9.845   4.519   1.169  0.2210 -0.2976 -0.2760
  392MOL0    Cl51656   9.897   4.499   1.343  0.5871  0.0451  0.1052
  392MOL0     C51657   8.795   4.873   1.128 -0.2570  0.8520 -0.6423
  392MOL0     C51658   8.657   4.894   1.150  0.3756  0.4611 -0.1265
  392MOL0     O51659   8.382   4.728   1.220  0.5331 -0.0067  0.2375
  392MOL0     C51660   8.133   4.929   1.040  0.0101  0.5471 -0.4516
  392MOL0     C51661   8.000   4.933   1.007  0.4258 -0.4265  0.4106
  392MOL0     N51662   7.320   4.785   0.650  0.3396  0.0824 -0.1174
  392MOL0     N51663   7.225   4.750   0.563  0.1401  0.3580  0.3095
  392MOL0     C51664   7.999   5.064  -0.040  1.0728  0.3491  0.1908
  392MOL0     C51665   8.104   5.142   0.032  1.0434  1.0320  1.0832
  392MOL0     C51666   8.493   5.181   0.270 -1.1320  0.9258  0.2412
  392MOL0     C51667   8.624   5.139   0.299 -0.5020 -0.5752  0.5512
  392MOL0     C51668   8.716   5.231   0.365  1.2116  1.0556 -0.2601
  392MOL0     C51669   8.681   5.358   0.382 -0.1751  0.0282  0.2664
  392MOL0     O51670   8.765   5.457   0.421 -0.1110 -0.0109  0.8007
  392MOL0     C51671   8.879   5.418   0.496  0.2391  0.0655  0.3597
  392MOL0     C51672   8.891   5.528   0.602  0.0807 -0.8927 -0.0160
  392MOL0     C51673   9.041   5.531   0.662 -0.3960 -0.1739  0.3486
  392MOL0     C51674   9.057   5.646   0.766 -0.7219 -0.1394  0.0146
  392MOL0     C51675   9.079   5.768   0.698  0.1196 -0.1643 -0.0525
  392MOL0     C51676   9.099   5.873   0.634 -0.0381  0.9612 -0.1670
  392MOL0     C51677   8.551   5.400   0.353 -0.1130 -0.0314 -0.2589
  392MOL0     C51678   8.451   5.312   0.305 -0.4340  0.5519 -1.3629
  392MOL0     H51679   8.230   4.866   0.189 -0.9908 -3.2786 -1.2573
  392MOL0     H51680   8.065   4.749   0.077 -0.6469 -0.6994 -0.1123
  392MOL0     H51681   7.943   4.683  -0.099  1.3510  1.5966 -0.6809
  392MOL0     H51682   7.791   4.703  -0.190 -0.8562  1.1642  0.1469
  392MOL0     H51683   7.808   4.683   0.118 -0.1644 -0.5250  0.6714
  392MOL0     H51684   7.739   4.569   0.004 -0.8972  0.5811  0.1928
  392MOL0     H51685   7.575   4.768  -0.067  1.2903 -2.6565 -0.5442
  392MOL0     H51686   7.653   4.861   0.048 -0.8496  0.4655  0.3216
  392MOL0     H51687   7.515   4.588   0.089  2.9939 -0.9373  0.9662
  392MOL0     H51688   7.581   4.659   0.226  1.3791 -0.0716 -1.1223
  392MOL0     H51689   7.372   4.815   0.074  1.9417 -1.7347 -1.4123
  392MOL0     H51690   7.429   4.835   0.248  1.9673 -1.6466  1.1029
  392MOL0     H51691   7.338   4.630   0.315 -2.2271 -2.5432 -1.2201
  392MOL0     H51692   7.282   4.588   0.149 -2.7693  0.4112 -1.1534
  392MOL0     H51693   7.113   4.770   0.164  0.1154 -1.4838 -0.6636
  392MOL0     H51694   7.090   4.655   0.281 -0.4509  0.2775 -0.6852
  392MOL0     H51695   7.039   4.865   0.377  0.2037 -0.1203  1.8309
  392MOL0     H51696   7.173   4.949   0.306 -1.3057  0.4310  1.2515
  392MOL0     H51697   7.368   5.016   0.442  1.6995 -1.6099 -0.7076
  392MOL0     H51698   7.459   4.996   0.782 -0.4421  1.1086 -0.1236
  392MOL0     H51699   7.520   5.064   0.630 -1.8254  1.5195  2.0554
  392MOL0     H51700   7.651   4.872   0.581 -1.0729 -0.1884 -1.0952
  392MOL0     H51701   7.599   4.776   0.735 -0.1357  0.2974  0.1102
  392MOL0     H51702   7.834   4.885   0.745 -1.0894 -1.5266 -0.5600
  392MOL0     H51703   7.744   5.034   0.747 -0.0685 -0.2382 -1.4286
  392MOL0     H51704   7.615   4.895   0.948  0.3457  3.7619 -0.1619
  392MOL0     H51705   7.742   5.010   0.983 -1.8004  0.9166  1.7605
  392MOL0     H51706   7.908   4.618   1.102 -1.6474  0.9892 -1.3293
  392MOL0     H51707   8.147   4.611   1.161 -1.3121  1.1815  1.9427
  392MOL0     H51708   8.536   4.716   0.881  2.8080  0.3847 -0.5087
  392MOL0     H51709   8.783   4.666   0.858  3.3035  0.9167  0.9134
  392MOL0     H51710   9.052   4.800   1.184  0.2398 -0.9568  0.1466
  392MOL0     H51711   9.106   4.915   1.049  5.1161 -0.6958 -0.2520
  392MOL0     H51712   9.190   4.648   0.987 -1.0136  1.1963 -1.9320
  392MOL0     H51713   9.184   4.670   1.166 -2.7530  1.4124 -1.5821
  392MOL0     H51714   9.336   4.875   1.132 -1.0506  0.9809 -1.2231
  392MOL0     H51715   9.314   4.852   0.952 -2.2265 -2.3610 -1.1824
  392MOL0     H51716   9.444   4.648   1.148  4.2124 -0.2148  0.1974
  392MOL0     H51717   9.419   4.631   0.979  0.2909  0.3944  0.5442
  392MOL0     H51718   9.595   4.844   1.117 -1.0120 -1.6630  1.0227
  392MOL0     H51719   9.585   4.835   0.945  1.6650 -0.3081 -0.5610
  392MOL0     H51720   9.780   4.732   0.992  0.7982 -0.9685  1.5413
  392MOL0     H51721   9.670   4.594   0.963  1.2405  0.6671 -2.7807
  392MOL0     H51722   9.774   4.700   1.221 -2.7334  1.9416 -0.4042
  392MOL0     H51723   9.644   4.576   1.203 -2.2524  3.8506  0.9395
  392MOL0     H51724   9.934   4.554   1.116 -1.8079  0.7151 -3.2410
  392MOL0     H51725   9.806   4.424   1.131 -0.9841 -0.1547  0.5533
  392MOL0     H51726   8.863   4.921   1.197 -1.0536 -1.1348  1.6869
  392MOL0     H51727   8.636   4.975   1.220  0.3544  0.8371 -0.5595
  392MOL0     H51728   8.192   5.019   1.026  2.1911 -0.8529 -0.8407
  392MOL0     H51729   7.950   5.026   0.981 -2.0877 -1.8676 -0.2355
  392MOL0     H51730   7.935   5.124  -0.103 -0.7093  1.6445  3.0179
  392MOL0     H51731   8.116   5.248   0.015 -1.6630  1.2638  0.2269
  392MOL0     H51732   8.656   5.039   0.272  0.6291  0.3038 -1.6224
  392MOL0     H51733   8.822   5.206   0.376  0.8884  0.2290  1.2895
  392MOL0     H51734   8.970   5.420   0.437 -0.2027  0.3122 -0.3238
  392MOL0     H51735   8.879   5.326   0.555 -0.8356  1.0185  1.9630
  392MOL0     H51736   8.874   5.620   0.546  0.3695  0.0255  1.3490
  392MOL0     H51737   8.815   5.513   0.679 -3.3089 -0.4443 -3.0068
  392MOL0     H51738   9.114   5.535   0.579 -0.8583  2.8618 -0.0340
  392MOL0     H51739   9.060   5.436   0.713 -5.1869 -0.7530  1.4740
  392MOL0     H51740   8.967   5.655   0.827 -0.5729 -1.8745  0.5429
  392MOL0     H51741   9.142   5.628   0.832 -1.1299  1.3497  0.9889
  392MOL0     H51742   9.119   5.957   0.571 -1.4974 -0.2178 -2.3377
  392MOL0     H51743   8.535   5.507   0.364  4.3638  0.6941  1.3734
  392MOL0     H51744   8.350   5.345   0.285 -0.8765  0.8561  1.0698
  393MOL0     O51745   9.892   1.252   6.754 -0.2623 -0.4672  0.2789
  393MOL0     C51746   9.932   1.357   6.704 -0.5321  0.2797 -0.1467
  393MOL0     O51747   9.847   1.449   6.647  0.0930 -0.1660  0.0550
  393MOL0     C51748   9.718   1.414   6.663  0.4656 -0.8429  0.7041
  393MOL0     C51749   9.626   1.499   6.729  0.1569 -0.1664 -0.3164
  393MOL0     C51750   9.493   1.459   6.736  0.4690  0.3587  0.3069
  393MOL0     C51751   9.442   1.349   6.667  0.7858 -0.8832  0.3978
  393MOL0     O51752   9.314   1.312   6.680 -0.1076 -0.7125 -0.2196
  393MOL0     C51753   9.264   1.187   6.618  0.1629 -0.5227  0.4463
  393MOL0     C51754   9.115   1.162   6.648  0.1970 -0.5639  0.6810
  393MOL0     C51755   9.059   1.047   6.564  0.2010 -0.1578  0.0788
  393MOL0     C51756   8.934   0.987   6.628 -0.2450  1.0019  0.1836
  393MOL0     C51757   8.877   0.849   6.582  0.4153  0.2111 -0.3109
  393MOL0     C51758   8.811   0.851   6.450 -1.1713  0.0018  0.1773
  393MOL0     C51759   8.743   0.714   6.418  1.1798 -0.8583  0.2835
  393MOL0     C51760   8.699   0.709   6.271 -0.8189  0.1846  0.2205
  393MOL0     N51761   8.625   0.586   6.257 -0.0831 -0.1940  0.0282
  393MOL0     C51762   8.667   0.478   6.181 -0.0655 -0.4846  0.1922
  393MOL0     C51763   8.565   0.389   6.169  0.3527  0.5190  0.2855
  393MOL0     C51764   8.553   0.257   6.098 -0.3118 -0.4189  0.5105
  393MOL0     C51765   8.470   0.283   5.971  0.6537 -0.2387 -0.0617
  393MOL0     C51766   8.467   0.155   5.893 -0.5955  0.3447 -0.4944
  393MOL0     C51767   8.368   0.159   5.769 -0.2873  0.0536 -0.1046
  393MOL0     O51768   8.237   0.144   5.816 -0.0789 -0.4734  0.0077
  393MOL0     C51769   8.140   0.131   5.728  1.8307 -0.5043  0.5070
  393MOL0     C51770   8.134   0.201   5.601  0.1276 -0.3155 -0.0305
  393MOL0     C51771   8.009   0.211   5.535 -0.4388  0.2196 -0.5287
  393MOL0     C51772   7.901   0.126   5.579  0.1540  0.4585 -0.1900
  393MOL0     C51773   7.775   0.138   5.494 -0.5460 -0.0054 -0.9654
  393MOL0     O51774   7.756   0.236   5.400 -0.2498  0.0984  0.3390
  393MOL0     C51775   7.650   0.224   5.320 -1.7259  0.4694  0.3043
  393MOL0     C51776   7.513   0.232   5.349  1.4587 -1.0827 -0.6158
  393MOL0     C51777   7.419   0.223   5.254 -0.7613 -0.4143  0.6730
  393MOL0     C51778   7.449   0.203   5.116 -0.0437  0.9597  0.0739
  393MOL0     O51779   7.345   0.188   5.027  0.1054 -0.2438 -0.2310
  393MOL0     C51780   7.350   0.292   4.929 -0.2285  0.2913 -0.3485
  393MOL0     C51781   7.212   0.289   4.881 -0.0943 -0.2869  0.2606
  393MOL0     C51782   7.212   0.299   4.724 -0.4284 -0.3238 -0.0672
  393MOL0     C51783   7.089   0.365   4.677  0.8734 -0.4361 -0.0889
  393MOL0     C51784   7.047   0.322   4.535  0.7871  0.5894  0.2343
  393MOL0     C51785   7.015   0.174   4.534  0.5241 -1.3683  0.2124
  393MOL0     C51786   6.972   0.133   4.388 -1.1690  0.2189 -0.2295
  393MOL0     C51787   6.914  -0.009   4.378  0.1292 -0.0289  0.1953
  393MOL0    Cl51788   7.023  -0.129   4.440 -0.3020  0.3260  0.3655
  393MOL0     C51789   7.583   0.182   5.088  0.3601  0.1064  0.5842
  393MOL0     C51790   7.676   0.187   5.188  0.4294 -1.2386 -1.0218
  393MOL0     O51791   7.686   0.059   5.527  0.7207 -0.2627  0.1319
  393MOL0     C51792   7.913   0.046   5.687  0.8669  0.2034 -0.1938
  393MOL0     C51793   8.024   0.065   5.770  0.6465  0.4174 -0.5445
  393MOL0     N51794   8.471   0.441   6.257 -0.5846  0.5718 -0.0318
  393MOL0     N51795   8.498   0.560   6.298  0.8154 -0.6078 -0.7608
  393MOL0     C51796   9.533   1.279   6.586  0.5100 -0.9393  1.0042
  393MOL0     C51797   9.666   1.309   6.579 -0.3150  0.1343  1.0518
  393MOL0     C51798  10.084   1.382   6.705  0.2350 -0.7084 -0.3134
  393MOL0     C51799  10.164   1.279   6.750  0.5484  0.0836 -0.2472
  393MOL0     C51800  10.302   1.289   6.743 -1.3614 -0.7384  0.2704
  393MOL0     C51801  10.368   1.409   6.696 -0.4906  0.3122  0.6469
  393MOL0     O51802  10.502   1.426   6.679 -0.0499  0.2098  0.7178
  393MOL0     C51803  10.592   1.316   6.701  0.1203  0.7916  0.1300
  393MOL0     C51804  10.734   1.349   6.673 -0.4960 -0.1986  1.0828
  393MOL0     C51805  10.837   1.253   6.722 -0.5811  0.3906 -0.5600
  393MOL0     C51806  10.808   1.113   6.675 -0.5661 -0.0397 -0.1373
  393MOL0     C51807  10.929   1.037   6.648  0.0401  0.1315 -0.5415
  393MOL0     C51808  11.026   0.975   6.615 -0.5816 -0.2283  0.7588
  393MOL0     C51809  10.285   1.512   6.657 -0.1566 -0.2947  0.1636
  393MOL0     C51810  10.142   1.506   6.677  0.8942  0.0050  0.6453
  393MOL0     H51811   9.662   1.587   6.782 -2.0040  2.0616 -2.3185
  393MOL0     H51812   9.432   1.517   6.804 -1.1004 -0.0958 -0.6669
  393MOL0     H51813   9.326   1.112   6.666  2.2493  1.8156  1.6609
  393MOL0     H51814   9.292   1.181   6.512  0.4799 -2.4520  0.6088
  393MOL0     H51815   9.052   1.250   6.628  1.2074 -0.0435 -0.2784
  393MOL0     H51816   9.108   1.127   6.752 -0.2069 -1.6212  0.3106
  393MOL0     H51817   9.135   0.969   6.551  1.0835  0.6967 -0.0889
  393MOL0     H51818   9.043   1.083   6.461  0.1127 -0.4751 -0.0197
  393MOL0     H51819   8.961   0.950   6.728  2.7201 -1.7393 -1.4535
  393MOL0     H51820   8.858   1.064   6.645 -1.4575  0.4160 -2.2115
  393MOL0     H51821   8.806   0.808   6.654 -0.3721  1.1314 -0.5361
  393MOL0     H51822   8.956   0.774   6.590 -0.8163 -1.0295  6.4714
  393MOL0     H51823   8.888   0.887   6.381 -0.2530 -0.7326  0.8019
  393MOL0     H51824   8.729   0.924   6.448 -1.6887 -0.5651 -1.5733
  393MOL0     H51825   8.811   0.632   6.445  0.9049 -0.7921  1.2307
  393MOL0     H51826   8.653   0.721   6.480  0.4501 -2.6522 -0.5226
  393MOL0     H51827   8.792   0.704   6.215 -0.2439 -1.0908  1.2449
  393MOL0     H51828   8.635   0.793   6.243 -2.2586 -1.1028 -0.4725
  393MOL0     H51829   8.763   0.459   6.133 -0.3026 -0.4835 -0.2944
  393MOL0     H51830   8.513   0.178   6.162  2.1727 -2.7345 -0.5651
  393MOL0     H51831   8.653   0.220   6.074  0.2714  2.2475 -1.5882
  393MOL0     H51832   8.519   0.361   5.910 -1.6944  0.8236 -0.7209
  393MOL0     H51833   8.371   0.323   5.994  1.1107  0.1936  1.2101
  393MOL0     H51834   8.570   0.128   5.867 -1.7779 -2.7072 -2.7229
  393MOL0     H51835   8.416   0.074   5.946 -3.2095  0.8612 -2.0143
  393MOL0     H51836   8.396   0.062   5.727 -1.5885  1.2333 -4.1419
  393MOL0     H51837   8.394   0.240   5.700  1.1209 -1.5568 -1.5585
  393MOL0     H51838   8.217   0.242   5.545 -1.3653  1.3156 -1.1682
  393MOL0     H51839   7.998   0.273   5.447  1.0555  0.3333 -0.6575
  393MOL0     H51840   7.488   0.245   5.454  2.1772  2.1924 -0.7550
  393MOL0     H51841   7.317   0.242   5.287  0.0713  1.6778  2.2103
  393MOL0     H51842   7.426   0.273   4.852 -1.8987  1.9138 -2.5293
  393MOL0     H51843   7.362   0.390   4.977 -1.2597  1.0611 -1.6065
  393MOL0     H51844   7.162   0.376   4.925 -0.4336 -1.1293  1.6115
  393MOL0     H51845   7.155   0.198   4.902 -1.5455 -0.1169 -2.5095
  393MOL0     H51846   7.227   0.195   4.695  0.7534 -0.3421  0.5587
  393MOL0     H51847   7.296   0.358   4.686  0.0365  0.0952  1.5113
  393MOL0     H51848   7.004   0.353   4.744  1.1187 -1.1796  0.0966
  393MOL0     H51849   7.114   0.471   4.689  1.3619 -0.5710  0.0824
  393MOL0     H51850   7.125   0.334   4.459 -1.6036  0.1356 -2.4869
  393MOL0     H51851   6.958   0.375   4.501 -0.3545 -1.3571  0.0419
  393MOL0     H51852   6.929   0.166   4.601 -1.0737  2.4689 -1.0868
  393MOL0     H51853   7.100   0.112   4.563 -0.0741 -3.1888 -1.6537
  393MOL0     H51854   6.909   0.211   4.346 -1.9209  0.9584  2.1036
  393MOL0     H51855   7.062   0.131   4.327 -1.1816  2.1111 -0.3464
  393MOL0     H51856   6.900  -0.030   4.272  0.2562 -1.2350  0.4019
  393MOL0     H51857   6.815  -0.026   4.422  0.4821 -2.4160  0.1838
  393MOL0     H51858   7.615   0.151   4.989  2.6864  2.0507  0.6442
  393MOL0     H51859   7.781   0.180   5.161  0.7985  3.6375 -1.7434
  393MOL0     H51860   7.838  -0.028   5.716 -0.8270  0.9361 -2.4354
  393MOL0     H51861   8.033   0.004   5.859  5.2808 -2.0419 -2.3188
  393MOL0     H51862   9.497   1.202   6.518 -2.3054 -1.0663  2.4664
  393MOL0     H51863   9.739   1.263   6.514 -0.6550 -2.3204  2.2728
  393MOL0     H51864  10.120   1.184   6.777 -2.0674  1.6913  1.5218
  393MOL0     H51865  10.356   1.216   6.802 -0.8456  1.1781  2.3140
  393MOL0     H51866  10.547   1.229   6.652  2.4854 -0.9568  0.8872
  393MOL0     H51867  10.592   1.305   6.809 -2.7516  0.8431  0.2271
  393MOL0     H51868  10.755   1.385   6.572  0.8561 -2.1849  0.5823
  393MOL0     H51869  10.751   1.440   6.730 -1.5720  0.2086  0.7588
  393MOL0     H51870  10.832   1.252   6.832  0.5463 -2.0348 -0.4565
  393MOL0     H51871  10.937   1.290   6.697  1.4824 -3.6867  0.6665
  393MOL0     H51872  10.746   1.067   6.753  1.3212  0.8699  1.9868
  393MOL0     H51873  10.749   1.116   6.583  0.0722  0.2286 -0.5441
  393MOL0     H51874  11.115   0.934   6.571 -1.7229 -0.9326 -0.9859
  393MOL0     H51875  10.330   1.606   6.626  1.0070 -1.1397 -0.7672
  393MOL0     H51876  10.075   1.591   6.681 -0.2749 -0.7964 -1.0706
  394MOL0     O51877   5.731   7.606   2.001  0.4915  0.2932  0.0308
  394MOL0     C51878   5.751   7.671   2.102  0.5087 -0.6907  0.1510
  394MOL0     O51879   5.869   7.687   2.175 -0.1065 -0.1038  0.2127
  394MOL0     C51880   5.980   7.613   2.152  0.4171 -0.7443 -0.0411
  394MOL0     C51881   6.029   7.579   2.026 -0.0402 -0.8801  0.5949
  394MOL0     C51882   6.152   7.511   2.026 -0.1790  0.3637  0.2852
  394MOL0     C51883   6.215   7.466   2.143 -0.6822 -0.2342 -0.1125
  394MOL0     O51884   6.326   7.387   2.134 -0.0025  0.3388  1.0272
  394MOL0     C51885   6.379   7.338   2.011 -0.0941  0.4573 -0.0970
  394MOL0     C51886   6.523   7.297   2.034 -0.0035  0.0472 -0.5625
  394MOL0     C51887   6.580   7.235   1.904 -1.6588  0.6973  0.1979
  394MOL0     C51888   6.716   7.190   1.934  0.0659 -0.4724  0.0170
  394MOL0     C51889   6.787   7.146   1.812  0.3627  0.6104  1.1329
  394MOL0     C51890   6.940   7.150   1.811 -0.1089  0.0183  0.5409
  394MOL0     C51891   7.009   7.049   1.909  0.0759 -0.2178  0.5141
  394MOL0     C51892   7.059   6.924   1.848  0.2678  0.2914  0.0911
  394MOL0     N51893   7.208   6.907   1.875 -0.9415 -0.0255 -0.0715
  394MOL0     C51894   7.310   6.891   1.778 -0.2636  0.4170 -0.0438
  394MOL0     C51895   7.420   6.864   1.849 -0.9259 -0.2624  0.5821
  394MOL0     C51896   7.562   6.836   1.814  0.3337 -0.5369  0.1494
  394MOL0     C51897   7.576   6.731   1.700  1.4920  0.1142 -0.2053
  394MOL0     C51898   7.519   6.592   1.749  0.1755 -0.0786 -0.0857
  394MOL0     C51899   7.455   6.523   1.634 -0.5339  0.2512 -0.5561
  394MOL0     O51900   7.318   6.569   1.614 -0.1565  0.7636 -0.1954
  394MOL0     C51901   7.256   6.512   1.505 -0.1049  0.2003  0.1567
  394MOL0     C51902   7.123   6.554   1.488 -0.2338  0.0397  0.0340
  394MOL0     C51903   7.051   6.503   1.378  0.3928 -0.5907 -0.9748
  394MOL0     C51904   7.105   6.416   1.285 -0.1290 -0.4492  0.4321
  394MOL0     C51905   7.023   6.367   1.174 -0.2596 -1.0146 -0.2612
  394MOL0     O51906   7.073   6.259   1.117  0.0387 -0.3863  0.6187
  394MOL0     C51907   6.991   6.196   1.026 -0.3804 -0.3253 -0.7894
  394MOL0     C51908   6.931   6.242   0.910 -0.7881  0.5052 -0.7575
  394MOL0     C51909   6.873   6.156   0.822  0.4357 -0.2465  1.0113
  394MOL0     C51910   6.858   6.025   0.844 -0.6065 -0.0461 -0.0558
  394MOL0     O51911   6.782   5.940   0.765  0.2940  0.9079 -0.6694
  394MOL0     C51912   6.654   5.892   0.817 -0.7048 -0.9456  0.2758
  394MOL0     C51913   6.532   5.939   0.738  0.9263 -0.2396 -0.5312
  394MOL0     C51914   6.535   5.889   0.586  0.3022  0.4592  0.4552
  394MOL0     C51915   6.414   5.938   0.499  0.1725 -0.1777 -1.0165
  394MOL0     C51916   6.447   5.963   0.352  0.9586  1.1573  0.2045
  394MOL0     C51917   6.500   5.832   0.287 -1.2570  0.0999 -0.0212
  394MOL0     C51918   6.392   5.715   0.304 -0.9206 -0.3732 -0.8516
  394MOL0     C51919   6.431   5.590   0.387 -0.6172 -0.5593  0.6826
  394MOL0    Cl51920   6.565   5.516   0.302 -0.3716  0.2680  0.4861
  394MOL0     C51921   6.908   5.967   0.970 -0.4395  1.0775 -1.0719
  394MOL0     C51922   6.983   6.055   1.050 -0.9698  0.6847  0.1005
  394MOL0     O51923   6.922   6.431   1.140 -0.5029  0.2620  0.0936
  394MOL0     C51924   7.241   6.382   1.297 -1.0343 -0.1804 -0.7222
  394MOL0     C51925   7.312   6.435   1.403 -0.2700  1.0506  0.1746
  394MOL0     N51926   7.388   6.866   1.985 -0.1763  0.4204  0.4328
  394MOL0     N51927   7.261   6.898   1.995 -0.1013  0.3265 -0.0362
  394MOL0     C51928   6.172   7.527   2.268 -0.0449  0.5073  0.8726
  394MOL0     C51929   6.052   7.591   2.272 -0.3081  0.2181  0.8641
  394MOL0     C51930   5.629   7.754   2.141 -0.1746 -0.4833 -0.3854
  394MOL0     C51931   5.515   7.772   2.060  0.1200  0.5678 -0.4773
  394MOL0     C51932   5.405   7.856   2.086 -0.3425 -0.3680  0.4865
  394MOL0     C51933   5.416   7.943   2.205  0.0940  0.1339 -0.0634
  394MOL0     O51934   5.346   8.054   2.226  0.4148 -0.0299  0.0553
  394MOL0     C51935   5.304   8.091   2.357 -0.0877 -0.2680 -0.3743
  394MOL0     C51936   5.196   8.206   2.342 -0.9709  0.6524  0.8234
  394MOL0     C51937   5.072   8.154   2.270  0.2288 -0.3330 -0.5663
  394MOL0     C51938   4.966   8.272   2.237 -0.3671 -0.0110 -0.3409
  394MOL0     C51939   4.904   8.306   2.368  0.7095  0.1656  0.1501
  394MOL0     C51940   4.846   8.322   2.476 -0.5037  0.4665 -0.3169
  394MOL0     C51941   5.527   7.917   2.300 -0.8767 -0.2206  0.3484
  394MOL0     C51942   5.631   7.824   2.260 -0.1040 -0.1338  0.3150
  394MOL0     H51943   5.966   7.616   1.947  0.6170 -2.1953 -0.6027
  394MOL0     H51944   6.184   7.483   1.926 -0.2844 -1.0694  0.6271
  394MOL0     H51945   6.367   7.421   1.941 -1.7052 -1.2015 -1.8862
  394MOL0     H51946   6.325   7.249   1.979  1.5391 -0.6278  0.0357
  394MOL0     H51947   6.531   7.222   2.113  1.5152 -0.7644 -1.4317
  394MOL0     H51948   6.583   7.380   2.074  0.7026 -0.4844 -0.4920
  394MOL0     H51949   6.572   7.318   1.832  0.2993  1.3135  0.6238
  394MOL0     H51950   6.515   7.153   1.875  1.1676 -1.5058 -0.3668
  394MOL0     H51951   6.770   7.282   1.959 -1.2444  0.6960 -1.2496
  394MOL0     H51952   6.721   7.118   2.016 -0.2610  1.4011  1.7646
  394MOL0     H51953   6.748   7.202   1.727 -1.4372  0.7797  2.0377
  394MOL0     H51954   6.758   7.041   1.800 -0.8785  1.0811 -0.2042
  394MOL0     H51955   6.970   7.251   1.837  0.2567  1.0461 -3.3408
  394MOL0     H51956   6.972   7.159   1.707 -0.1735  0.8051  0.5862
  394MOL0     H51957   7.096   7.104   1.946 -1.9543  4.6222 -1.1180
  394MOL0     H51958   6.939   7.032   1.991 -0.7569  0.2663 -0.0684
  394MOL0     H51959   7.040   6.922   1.741 -1.8174 -2.7191  0.4158
  394MOL0     H51960   7.005   6.846   1.903 -0.0119  0.5397  0.1707
  394MOL0     H51961   7.294   6.892   1.671 -1.5889 -2.4516  0.0456
  394MOL0     H51962   7.621   6.793   1.896  2.5544 -2.3082 -2.1940
  394MOL0     H51963   7.608   6.928   1.776 -1.6975  1.1319  1.5071
  394MOL0     H51964   7.683   6.718   1.681  1.7884  0.5662  1.0742
  394MOL0     H51965   7.521   6.765   1.612  1.2185 -1.6831 -0.7758
  394MOL0     H51966   7.604   6.531   1.783 -0.3752 -0.9142 -0.1851
  394MOL0     H51967   7.450   6.593   1.834 -1.2794 -0.4624 -1.2350
  394MOL0     H51968   7.444   6.422   1.674 -0.2466  0.3947 -0.1050
  394MOL0     H51969   7.517   6.530   1.544  1.1623  0.5512  0.5873
  394MOL0     H51970   7.075   6.627   1.552 -1.1327  0.9962 -1.6456
  394MOL0     H51971   6.947   6.531   1.371  0.2721 -0.0735  1.6895
  394MOL0     H51972   6.935   6.347   0.881 -1.4090  0.5824 -0.5900
  394MOL0     H51973   6.824   6.192   0.732 -0.4622  1.0282  1.9638
  394MOL0     H51974   6.640   5.934   0.917 -0.2174 -1.8172  0.7278
  394MOL0     H51975   6.659   5.783   0.824  2.3517 -0.8942  0.1637
  394MOL0     H51976   6.531   6.049   0.739 -0.9310 -0.2144  1.0476
  394MOL0     H51977   6.433   5.906   0.770  0.3930  1.0096 -0.8050
  394MOL0     H51978   6.562   5.783   0.573 -2.3989 -0.0689 -1.7865
  394MOL0     H51979   6.621   5.941   0.541 -2.7995  1.4084 -5.3599
  394MOL0     H51980   6.333   5.868   0.520 -0.0162  0.5006  0.6913
  394MOL0     H51981   6.388   6.039   0.532 -0.6178  0.8288 -4.3424
  394MOL0     H51982   6.520   6.044   0.359  1.5645  0.4877  2.3275
  394MOL0     H51983   6.355   5.999   0.305  0.2395 -0.1273  0.5751
  394MOL0     H51984   6.591   5.810   0.343 -1.1859  0.9877  0.2200
  394MOL0     H51985   6.518   5.836   0.179 -1.8976  1.4712 -0.0974
  394MOL0     H51986   6.308   5.759   0.359  1.6911 -1.9019  5.2962
  394MOL0     H51987   6.368   5.682   0.203  0.8316  0.2692 -1.5294
  394MOL0     H51988   6.347   5.521   0.389 -0.5352 -0.9258 -2.6917
  394MOL0     H51989   6.460   5.626   0.487 -0.0944 -1.6650  0.9418
  394MOL0     H51990   6.910   5.859   0.983  1.6522  0.6831 -3.8304
  394MOL0     H51991   7.019   6.001   1.137 -1.1180 -3.3034 -2.0706
  394MOL0     H51992   7.304   6.325   1.229 -0.3015 -1.9038  1.3010
  394MOL0     H51993   7.419   6.417   1.407 -0.7558 -2.4384  0.6419
  394MOL0     H51994   6.220   7.504   2.362  0.4781  3.1212  1.3064
  394MOL0     H51995   6.002   7.613   2.366  0.4766  1.2106  1.0637
  394MOL0     H51996   5.515   7.709   1.972  2.4191 -2.2429  1.3259
  394MOL0     H51997   5.319   7.851   2.021 -1.8536 -3.4660  2.5167
  394MOL0     H51998   5.393   8.125   2.410  1.2883 -2.1161 -1.4135
  394MOL0     H51999   5.268   8.011   2.422  5.0084 -2.7108 -0.1047
  394MOL0     H52000   5.180   8.259   2.436  2.7226  0.1421  1.8861
  394MOL0     H52001   5.248   8.275   2.274  0.5143 -0.5712  0.6459
  394MOL0     H52002   5.021   8.078   2.330 -2.1381  0.5434 -1.3927
  394MOL0     H52003   5.105   8.088   2.189  2.8774  0.1299  0.0369
  394MOL0     H52004   5.009   8.363   2.193 -0.8878 -0.9965 -3.0855
  394MOL0     H52005   4.884   8.244   2.171 -0.8716  1.5141 -0.4075
  394MOL0     H52006   4.791   8.355   2.563 -0.0525  2.5703 -0.7701
  394MOL0     H52007   5.552   7.979   2.385  0.6859  1.2819 -1.1343
  394MOL0     H52008   5.717   7.801   2.322 -0.5500  1.1974  1.4762
  395MOL0     O52009   7.477   5.109   3.043 -0.0522  0.0822 -0.3105
  395MOL0     C52010   7.556   5.027   3.000 -0.6507  0.1757  0.1876
  395MOL0     O52011   7.532   4.930   2.901  0.4374 -0.0430 -0.1508
  395MOL0     C52012   7.401   4.892   2.877 -0.0823 -0.3709  0.4464
  395MOL0     C52013   7.365   4.890   2.749  0.7006  1.2514 -0.3074
  395MOL0     C52014   7.230   4.878   2.716  0.1452 -0.7825 -0.2136
  395MOL0     C52015   7.133   4.848   2.815  0.2704 -1.0314 -0.9569
  395MOL0     O52016   7.000   4.829   2.790  0.5674  0.1272 -0.6238
  395MOL0     C52017   6.904   4.904   2.871 -0.0495  0.8479 -0.0939
  395MOL0     C52018   6.794   4.942   2.775 -0.2733 -0.2777  0.9247
  395MOL0     C52019   6.692   4.823   2.751 -0.2007  0.3952 -0.1203
  395MOL0     C52020   6.577   4.867   2.657  0.2656 -0.7621  0.7610
  395MOL0     C52021   6.452   4.781   2.666 -0.2168  0.0758  0.3711
  395MOL0     C52022   6.364   4.798   2.541 -0.1478  0.0180 -0.2013
  395MOL0     C52023   6.246   4.694   2.555  0.2517 -0.2438  0.5305
  395MOL0     C52024   6.133   4.730   2.654  0.3169 -0.8563 -0.1085
  395MOL0     N52025   6.054   4.852   2.613 -0.3498 -0.8221  0.1796
  395MOL0     C52026   5.977   4.866   2.495  0.6948  0.6596 -0.8883
  395MOL0     C52027   5.935   4.988   2.500 -0.5807 -1.0896 -0.4206
  395MOL0     C52028   5.844   5.058   2.405  0.2604  0.1028 -0.7143
  395MOL0     C52029   5.700   4.994   2.408 -0.6297  0.0049  0.0616
  395MOL0     C52030   5.629   5.090   2.316  0.5239 -0.0877  0.1069
  395MOL0     C52031   5.670   5.102   2.171 -1.3731  0.6057 -0.1436
  395MOL0     O52032   5.572   5.133   2.070 -0.1043  0.3285  0.2131
  395MOL0     C52033   5.508   5.255   2.082  0.3470  0.1357 -0.8770
  395MOL0     C52034   5.542   5.359   2.158 -0.8761 -0.8391  0.2252
  395MOL0     C52035   5.463   5.472   2.164  0.1733 -0.3243  0.9627
  395MOL0     C52036   5.354   5.488   2.083  0.2049 -0.7550  0.4862
  395MOL0     C52037   5.273   5.611   2.084  0.6814 -0.1417 -0.1100
  395MOL0     O52038   5.278   5.683   2.198  0.2739  0.1050  0.0744
  395MOL0     C52039   5.213   5.809   2.190  0.2761  0.2115 -0.0553
  395MOL0     C52040   5.104   5.828   2.282 -0.2180  0.5429  0.6148
  395MOL0     C52041   5.028   5.950   2.281  0.6445  0.4224  0.5273
  395MOL0     C52042   5.082   6.057   2.211  0.0823 -0.3476  0.6499
  395MOL0     O52043   5.027   6.175   2.208  0.5814 -0.4501 -0.5384
  395MOL0     C52044   5.066   6.266   2.310 -1.0229  0.6084  0.8185
  395MOL0     C52045   5.010   6.405   2.286  0.6778 -0.2826  0.2101
  395MOL0     C52046   5.061   6.468   2.155  0.1946 -0.3153  0.2584
  395MOL0     C52047   4.977   6.594   2.127  0.5650 -0.0680 -0.6611
  395MOL0     C52048   4.983   6.644   1.980 -0.4616 -0.5276  0.8580
  395MOL0     C52049   5.124   6.698   1.927 -0.5279 -0.8652 -1.3817
  395MOL0     C52050   5.121   6.772   1.792 -0.5686 -0.0867  0.8456
  395MOL0     C52051   5.091   6.696   1.672 -0.1211 -0.3183  0.5062
  395MOL0    Cl52052   5.050   6.797   1.540  0.4032  0.1901 -0.1319
  395MOL0     C52053   5.199   6.045   2.137 -0.4098  0.2785  0.0943
  395MOL0     C52054   5.266   5.923   2.133 -0.0394 -0.1650 -0.4162
  395MOL0     O52055   5.215   5.643   1.978  0.6932 -0.7128 -0.1845
  395MOL0     C52056   5.323   5.377   1.997 -0.0696 -0.4924  0.5661
  395MOL0     C52057   5.392   5.265   2.006  0.7757  0.2556  0.4373
  395MOL0     N52058   6.003   5.056   2.599 -0.0595 -0.0818  0.2897
  395MOL0     N52059   6.082   4.976   2.662 -1.0114 -0.4684 -0.7628
  395MOL0     C52060   7.179   4.836   2.938  0.7465 -1.0481  0.4710
  395MOL0     C52061   7.310   4.860   2.976  0.0222  0.4078 -0.7748
  395MOL0     C52062   7.689   5.045   3.048 -0.6207 -0.3673  0.5884
  395MOL0     C52063   7.798   4.986   2.976  0.5647  0.1809 -0.4831
  395MOL0     C52064   7.926   5.000   3.025  0.2869  0.2025  0.1734
  395MOL0     C52065   7.951   5.063   3.155 -0.9439 -0.1754 -0.0154
  395MOL0     O52066   8.070   5.084   3.224 -0.3163  0.2941  0.2945
  395MOL0     C52067   8.187   5.041   3.152  0.5892 -0.0990  1.1409
  395MOL0     C52068   8.316   5.060   3.238  0.4731 -0.6640  0.7609
  395MOL0     C52069   8.333   5.202   3.300  0.4642  0.1355 -0.6697
  395MOL0     C52070   8.479   5.206   3.338 -0.2802  0.1632 -0.3354
  395MOL0     C52071   8.527   5.332   3.370  0.3733  0.4818 -0.2472
  395MOL0     C52072   8.576   5.441   3.391  0.4273 -1.0940 -0.0735
  395MOL0     C52073   7.844   5.125   3.213 -1.1338  0.4218 -0.2249
  395MOL0     C52074   7.719   5.120   3.168 -0.4360  1.3837 -0.2182
  395MOL0     H52075   7.437   4.901   2.669  0.3301  1.1381 -0.6636
  395MOL0     H52076   7.191   4.879   2.615 -1.1019  0.6207  0.2514
  395MOL0     H52077   6.946   4.999   2.905  0.3534  0.3026  0.9774
  395MOL0     H52078   6.861   4.856   2.959  0.0573  3.6723  1.6348
  395MOL0     H52079   6.834   4.972   2.678 -2.9437  0.6417  0.0095
  395MOL0     H52080   6.736   5.028   2.810 -0.4337  0.3750 -0.8882
  395MOL0     H52081   6.645   4.798   2.846  1.7831 -1.6601  0.4119
  395MOL0     H52082   6.741   4.733   2.714 -1.0750  0.2702 -1.0092
  395MOL0     H52083   6.562   4.975   2.663 -2.5302 -1.0317  0.1930
  395MOL0     H52084   6.608   4.858   2.552 -0.5347  2.5613  0.1356
  395MOL0     H52085   6.386   4.801   2.751 -1.6629 -2.5113 -0.0112
  395MOL0     H52086   6.474   4.674   2.675  0.6674 -0.0630 -2.3754
  395MOL0     H52087   6.407   4.774   2.444 -1.1437  2.6996 -1.4193
  395MOL0     H52088   6.322   4.898   2.531 -2.0054 -0.6018  0.8149
  395MOL0     H52089   6.205   4.682   2.454  1.8658 -0.7981 -0.0968
  395MOL0     H52090   6.293   4.596   2.568  2.9151  0.5267 -2.0224
  395MOL0     H52091   6.178   4.723   2.754  1.9969  0.2507 -0.7392
  395MOL0     H52092   6.055   4.654   2.650 -1.6277  0.9477  1.5367
  395MOL0     H52093   5.949   4.782   2.433  1.7481 -1.6013  1.4875
  395MOL0     H52094   5.885   5.060   2.303  1.5793  0.8330 -0.1917
  395MOL0     H52095   5.837   5.163   2.436  1.5193  0.2997 -1.0357
  395MOL0     H52096   5.659   4.986   2.509 -2.8261 -0.0305 -0.7694
  395MOL0     H52097   5.692   4.895   2.361 -0.8426  0.0163  0.0749
  395MOL0     H52098   5.522   5.069   2.319  0.4176  0.4537  0.3858
  395MOL0     H52099   5.638   5.189   2.362 -1.8507  0.3070 -0.1516
  395MOL0     H52100   5.719   5.008   2.144  0.3225  0.8213  1.8977
  395MOL0     H52101   5.749   5.178   2.170 -0.8112  0.0240 -0.6409
  395MOL0     H52102   5.635   5.365   2.215 -0.3716 -2.0588 -0.4535
  395MOL0     H52103   5.501   5.561   2.212 -0.1407  2.1672 -2.9431
  395MOL0     H52104   5.059   5.747   2.339  3.4314  0.1148  3.2328
  395MOL0     H52105   4.935   5.973   2.332  2.1687 -0.0010  3.7697
  395MOL0     H52106   5.175   6.263   2.308 -1.0300  0.0326  1.0989
  395MOL0     H52107   5.036   6.226   2.407 -3.5579 -1.6756 -0.7535
  395MOL0     H52108   5.050   6.458   2.373  1.7468  0.8649 -0.9506
  395MOL0     H52109   4.901   6.402   2.280  0.7002 -0.9930 -0.0147
  395MOL0     H52110   5.056   6.406   2.065 -1.1833  0.0618  0.0584
  395MOL0     H52111   5.163   6.499   2.179 -0.0394  0.3088  0.4575
  395MOL0     H52112   4.872   6.575   2.152  0.0640  0.8938 -1.9520
  395MOL0     H52113   5.007   6.670   2.199  0.2757 -2.0454  1.6868
  395MOL0     H52114   4.916   6.730   1.979  1.3060  0.9571  2.4446
  395MOL0     H52115   4.949   6.571   1.906 -1.3280 -0.1591  0.8855
  395MOL0     H52116   5.195   6.614   1.926  0.5250  0.0074 -1.3624
  395MOL0     H52117   5.166   6.772   1.996 -1.3039 -1.0690 -0.6724
  395MOL0     H52118   5.046   6.851   1.797  0.9881  1.7722 -2.4378
  395MOL0     H52119   5.219   6.814   1.768 -0.2174 -0.5837  1.3838
  395MOL0     H52120   5.005   6.633   1.698 -0.7242  1.1785  2.2973
  395MOL0     H52121   5.180   6.634   1.656  0.3165  0.6985 -1.3372
  395MOL0     H52122   5.237   6.135   2.091  0.2385  0.2336  0.5261
  395MOL0     H52123   5.360   5.924   2.080  2.8721 -1.9176  4.1203
  395MOL0     H52124   5.237   5.369   1.930 -0.2221  0.0049  0.6926
  395MOL0     H52125   5.353   5.179   1.952 -2.2140  0.9119  1.3806
  395MOL0     H52126   7.111   4.822   3.022 -1.0505 -2.3164 -1.1292
  395MOL0     H52127   7.331   4.867   3.082 -0.2942 -2.0783 -0.4932
  395MOL0     H52128   7.784   4.943   2.878 -0.7210 -2.0110  0.5921
  395MOL0     H52129   8.010   4.947   2.980  0.5256  1.9396 -1.5730
  395MOL0     H52130   8.193   5.095   3.057 -1.0100 -0.4457  0.7997
  395MOL0     H52131   8.174   4.935   3.128 -0.8581 -0.0758  1.6639
  395MOL0     H52132   8.305   4.994   3.326 -1.6950 -1.5330 -0.0981
  395MOL0     H52133   8.407   5.028   3.187 -1.1912 -1.1256 -2.1094
  395MOL0     H52134   8.270   5.220   3.387  1.6585  0.4976  0.1590
  395MOL0     H52135   8.317   5.282   3.227  2.2704  1.3006  0.1452
  395MOL0     H52136   8.494   5.138   3.422 -3.4644  0.9507  1.0459
  395MOL0     H52137   8.540   5.168   3.255  1.7095 -2.9974  2.3549
  395MOL0     H52138   8.617   5.535   3.423 -1.7363  0.8013 -2.3548
  395MOL0     H52139   7.851   5.180   3.306 -2.4162  0.2004  0.0208
  395MOL0     H52140   7.640   5.163   3.229 -0.5456 -0.1621  0.8091
  396MOL0     O52141   0.685   3.017   9.084 -0.0626  0.2355  0.6306
  396MOL0     C52142   0.640   3.081   9.170 -0.2929 -0.0408 -0.2596
  396MOL0     O52143   0.694   3.088   9.298  0.0742 -0.0195 -0.1169
  396MOL0     C52144   0.806   3.021   9.319 -0.6746  0.3836 -0.8036
  396MOL0     C52145   0.791   2.907   9.400 -0.2372  0.7026 -0.1171
  396MOL0     C52146   0.904   2.843   9.454  0.4701 -0.6402 -0.6117
  396MOL0     C52147   1.030   2.874   9.403 -0.6901  0.6962 -0.2703
  396MOL0     O52148   1.142   2.803   9.448  0.2123 -0.1292 -0.0563
  396MOL0     C52149   1.256   2.800   9.362  0.1670  0.1634  0.4590
  396MOL0     C52150   1.359   2.720   9.448  0.6401 -0.1260 -0.5844
  396MOL0     C52151   1.499   2.723   9.377  0.0845 -0.7358  0.2907
  396MOL0     C52152   1.491   2.711   9.221 -0.2352  0.1254 -0.5891
  396MOL0     C52153   1.642   2.697   9.174 -0.2459  0.5306  1.3329
  396MOL0     C52154   1.647   2.645   9.030 -0.1163 -0.5206  0.5955
  396MOL0     C52155   1.792   2.617   8.985 -0.8322 -1.0540  0.3715
  396MOL0     C52156   1.800   2.552   8.839 -0.8071  0.2627 -0.0659
  396MOL0     N52157   1.786   2.408   8.845  0.4296  0.2041  0.2427
  396MOL0     C52158   1.669   2.349   8.805  0.0274 -0.0396 -0.1548
  396MOL0     C52159   1.685   2.223   8.835  0.2510  0.1703  0.1372
  396MOL0     C52160   1.574   2.122   8.837 -0.0188 -0.2440  0.1643
  396MOL0     C52161   1.590   2.025   8.726 -0.8420 -0.6254 -0.1579
  396MOL0     C52162   1.482   1.927   8.707  0.6001  0.6030  0.1735
  396MOL0     C52163   1.341   1.986   8.711 -0.1887  0.1810 -0.0100
  396MOL0     O52164   1.254   1.874   8.685  0.2186  0.3978 -0.1855
  396MOL0     C52165   1.129   1.905   8.630  0.9639  0.3286  0.7262
  396MOL0     C52166   1.042   1.791   8.583  0.3381 -0.6517 -0.2011
  396MOL0     C52167   0.907   1.810   8.552  1.1126 -0.2946  0.5275
  396MOL0     C52168   0.846   1.940   8.568 -1.0964  0.1546  1.1095
  396MOL0     C52169   0.701   1.958   8.552  0.8168 -0.2006 -0.2787
  396MOL0     O52170   0.649   2.075   8.594  0.7985 -0.1606 -0.3475
  396MOL0     C52171   0.517   2.109   8.590  0.5098  0.0757 -0.8308
  396MOL0     C52172   0.491   2.237   8.560  0.9565 -0.5102 -0.7259
  396MOL0     C52173   0.358   2.282   8.554 -0.1402  0.5630 -0.3479
  396MOL0     C52174   0.255   2.190   8.592  0.4615  0.2104  0.2701
  396MOL0     O52175   0.129   2.244   8.592  0.8633  0.4007 -0.5263
  396MOL0     C52176   0.020   2.153   8.632 -0.7707  0.0223  0.2979
  396MOL0     C52177  -0.108   2.223   8.605 -0.0504 -0.8825  0.6824
  396MOL0     C52178  -0.230   2.133   8.611 -0.4405 -0.4965  0.2388
  396MOL0     C52179  -0.349   2.218   8.629  0.2504 -0.5446 -0.1343
  396MOL0     C52180  -0.468   2.125   8.632  0.0418 -0.1200  0.5100
  396MOL0     C52181  -0.605   2.196   8.677  1.1287  0.6081  0.4178
  396MOL0     C52182  -0.717   2.111   8.633 -0.2867 -0.1793 -0.0200
  396MOL0     C52183  -0.850   2.189   8.644 -0.8146 -0.2163  1.2851
  396MOL0    Cl52184  -0.996   2.084   8.627 -0.0849 -0.5922  0.0114
  396MOL0     C52185   0.290   2.061   8.633 -0.2956  0.0569 -0.0487
  396MOL0     C52186   0.421   2.024   8.640  0.2117  0.0877 -0.0533
  396MOL0     O52187   0.633   1.862   8.518  0.1058  0.1045 -0.5790
  396MOL0     C52188   0.919   2.048   8.621 -0.7400 -0.1370  1.1973
  396MOL0     C52189   1.070   2.033   8.631  0.1501 -0.2806  0.7115
  396MOL0     N52190   1.805   2.200   8.901  0.4916  0.3800  1.2837
  396MOL0     N52191   1.867   2.315   8.903  0.2167  0.3686 -0.0003
  396MOL0     C52192   1.044   2.979   9.305 -0.3765  0.1717 -0.8977
  396MOL0     C52193   0.929   3.055   9.276 -0.5188 -0.5247  0.1314
  396MOL0     C52194   0.528   3.167   9.139  0.0392 -1.1548  0.0480
  396MOL0     C52195   0.461   3.230   9.243  0.5882  0.0861 -0.9342
  396MOL0     C52196   0.351   3.311   9.209 -0.3991 -0.3490 -0.3036
  396MOL0     C52197   0.318   3.334   9.073  0.7943  0.0205  0.5369
  396MOL0     O52198   0.211   3.411   9.038 -0.0292 -0.6391 -0.4237
  396MOL0     C52199   0.145   3.482   9.144 -0.2689  0.5873  0.2865
  396MOL0     C52200   0.031   3.403   9.209 -0.2654 -0.0872 -0.2412
  396MOL0     C52201  -0.096   3.392   9.117 -0.1941 -0.7240  0.9124
  396MOL0     C52202  -0.197   3.281   9.149  0.7670 -0.2230  0.3497
  396MOL0     C52203  -0.322   3.327   9.081 -0.2724 -0.5641  0.5023
  396MOL0     C52204  -0.425   3.366   9.021  0.7572 -0.6718 -0.4625
  396MOL0     C52205   0.387   3.268   8.970 -0.5595 -0.2492  0.5065
  396MOL0     C52206   0.488   3.184   9.008  0.8844 -0.7689 -0.5481
  396MOL0     H52207   0.690   2.874   9.419  0.1956 -1.5800 -1.3328
  396MOL0     H52208   0.891   2.750   9.509 -3.9710 -1.2226 -2.2026
  396MOL0     H52209   1.306   2.893   9.332 -0.4696  0.0832 -0.9123
  396MOL0     H52210   1.237   2.750   9.267  0.9078 -3.3715  2.0339
  396MOL0     H52211   1.328   2.616   9.459  2.4790 -0.7594 -1.1391
  396MOL0     H52212   1.368   2.749   9.553  4.3761  1.2685 -1.1490
  396MOL0     H52213   1.546   2.633   9.417 -0.9128 -2.8113 -2.8746
  396MOL0     H52214   1.552   2.819   9.384 -0.4251 -0.4897  0.8495
  396MOL0     H52215   1.433   2.621   9.195  3.5282 -2.5752 -0.5189
  396MOL0     H52216   1.453   2.801   9.172  0.9612  0.4195 -1.0183
  396MOL0     H52217   1.707   2.628   9.229 -1.0221 -1.6123 -0.2922
  396MOL0     H52218   1.690   2.796   9.179  1.0458 -0.0105  0.3709
  396MOL0     H52219   1.609   2.723   8.964 -1.4533 -2.0624 -0.5345
  396MOL0     H52220   1.590   2.551   9.033 -3.4222  1.3337  1.1293
  396MOL0     H52221   1.849   2.710   8.981  0.4387 -1.7084  2.2673
  396MOL0     H52222   1.830   2.558   9.069 -2.4848 -2.4516  0.1995
  396MOL0     H52223   1.899   2.570   8.795  0.2845 -1.8036  1.3423
  396MOL0     H52224   1.717   2.594   8.783 -2.5126  0.6621  2.5909
  396MOL0     H52225   1.586   2.393   8.751  0.0331 -0.1562 -0.2604
  396MOL0     H52226   1.483   2.181   8.830  1.2429  2.1661  2.2489
  396MOL0     H52227   1.559   2.080   8.937 -0.0325  1.8049  1.0802
  396MOL0     H52228   1.687   1.982   8.751 -0.5960 -1.7010 -2.7056
  396MOL0     H52229   1.608   2.080   8.633  1.8823  0.2680  0.7939
  396MOL0     H52230   1.506   1.870   8.618  1.3037 -2.0096  1.9283
  396MOL0     H52231   1.486   1.855   8.789  0.6553  3.0122  2.4298
  396MOL0     H52232   1.338   2.058   8.629  1.3977 -0.3170 -0.5359
  396MOL0     H52233   1.315   2.031   8.807 -0.8828  0.2368 -0.2157
  396MOL0     H52234   1.084   1.691   8.574  0.2793 -0.7453  0.5613
  396MOL0     H52235   0.843   1.730   8.515  0.4152  0.7129 -0.5085
  396MOL0     H52236   0.567   2.300   8.516 -1.1372 -0.0972 -4.0937
  396MOL0     H52237   0.337   2.372   8.498  1.5812  0.2974 -1.5029
  396MOL0     H52238   0.021   2.141   8.740 -1.4347  3.3757  0.7956
  396MOL0     H52239   0.025   2.057   8.581 -2.0283  0.0448  0.1019
  396MOL0     H52240  -0.100   2.272   8.507  2.8209 -2.9937 -0.2733
  396MOL0     H52241  -0.119   2.309   8.673 -1.3602  0.4195 -1.0771
  396MOL0     H52242  -0.219   2.064   8.695  0.0920 -1.6329 -0.7163
  396MOL0     H52243  -0.236   2.076   8.517 -2.5538 -0.4036  0.2820
  396MOL0     H52244  -0.337   2.263   8.728 -2.6567  0.1840 -0.0343
  396MOL0     H52245  -0.357   2.300   8.557 -0.5808  0.6085  1.2112
  396MOL0     H52246  -0.442   2.038   8.693  2.5705  1.1323  1.3324
  396MOL0     H52247  -0.486   2.095   8.528  0.1047 -0.8422  0.6985
  396MOL0     H52248  -0.618   2.297   8.638  2.1028  0.4820 -0.2590
  396MOL0     H52249  -0.622   2.202   8.785 -2.3385 -0.8658  0.0901
  396MOL0     H52250  -0.704   2.081   8.529 -0.3493 -2.5885  0.6121
  396MOL0     H52251  -0.724   2.023   8.697  1.5302  1.2336  2.2590
  396MOL0     H52252  -0.856   2.270   8.571  0.8223 -0.3233  1.0122
  396MOL0     H52253  -0.847   2.250   8.735 -2.0402  5.0005 -1.7580
  396MOL0     H52254   0.213   2.001   8.681 -1.5268 -0.0708 -2.0555
  396MOL0     H52255   0.457   1.925   8.663 -0.8793 -0.3239 -0.0819
  396MOL0     H52256   0.876   2.145   8.640 -2.2410 -0.1504 -1.6105
  396MOL0     H52257   1.127   2.122   8.655 -1.5562  0.5779  1.7608
  396MOL0     H52258   1.138   3.009   9.259 -0.4532 -0.0347 -1.1948
  396MOL0     H52259   0.945   3.145   9.218  1.0427 -1.5104 -1.0576
  396MOL0     H52260   0.484   3.217   9.349 -0.5892 -0.0036 -0.6803
  396MOL0     H52261   0.298   3.350   9.296  0.0038  1.0516 -0.6528
  396MOL0     H52262   0.098   3.570   9.100 -2.2986 -1.9250 -3.1296
  396MOL0     H52263   0.221   3.519   9.212  0.7008 -1.4652  0.4030
  396MOL0     H52264   0.069   3.304   9.236  2.6155  0.6852 -1.1444
  396MOL0     H52265   0.004   3.445   9.306 -1.9205 -2.7521  0.5380
  396MOL0     H52266  -0.048   3.369   9.021 -0.1080  1.2899  0.4430
  396MOL0     H52267  -0.143   3.490   9.114  2.0969  0.4082 -0.2464
  396MOL0     H52268  -0.161   3.190   9.098  3.6631  0.7387  0.4955
  396MOL0     H52269  -0.187   3.257   9.255  0.8409 -2.8211 -0.1700
  396MOL0     H52270  -0.522   3.388   8.981  0.7746  1.5275  0.5930
  396MOL0     H52271   0.360   3.278   8.865  2.4341  1.1973 -0.2043
  396MOL0     H52272   0.534   3.130   8.926 -1.0714  0.4924 -2.6103
  397MOL0     O52273   3.897   8.642   2.141  0.0977 -0.0935 -0.1245
  397MOL0     C52274   3.974   8.695   2.066  0.4458 -0.1285 -0.4834
  397MOL0     O52275   3.946   8.812   1.993 -0.3282  0.4269  0.4017
  397MOL0     C52276   3.817   8.869   1.987 -0.2223 -0.2566  0.1784
  397MOL0     C52277   3.822   9.007   1.961  0.9536  0.0400  0.6577
  397MOL0     C52278   3.702   9.069   1.966 -0.0389  0.4213  0.0171
  397MOL0     C52279   3.580   9.000   1.975 -0.2330 -0.5609  0.6472
  397MOL0     O52280   3.458   9.068   1.966  0.4823  1.0776  0.2293
  397MOL0     C52281   3.345   9.016   2.039 -0.3923 -0.0402 -0.4663
  397MOL0     C52282   3.232   8.954   1.959  0.1443  0.5601  0.0453
  397MOL0     C52283   3.202   9.045   1.846  0.1697 -0.7733 -0.4313
  397MOL0     C52284   3.063   9.022   1.791  0.4423  0.3257  0.6398
  397MOL0     C52285   3.028   9.122   1.679 -0.4067  1.7501 -0.0095
  397MOL0     C52286   2.899   9.079   1.609  0.4105 -0.1974 -0.0179
  397MOL0     C52287   2.835   9.198   1.543  1.3438 -0.1478 -0.0997
  397MOL0     C52288   2.731   9.272   1.629  0.4487  0.4090  0.5312
  397MOL0     N52289   2.618   9.320   1.547 -0.5300 -0.1565  0.1950
  397MOL0     C52290   2.616   9.434   1.487 -0.0183  0.3050  0.7358
  397MOL0     C52291   2.489   9.441   1.424  0.3648 -0.0142  0.2944
  397MOL0     C52292   2.445   9.565   1.346  0.4339  0.8368  0.7077
  397MOL0     C52293   2.295   9.551   1.302  0.5973  0.0194  0.2605
  397MOL0     C52294   2.246   9.673   1.236  0.5296  0.0341  0.8101
  397MOL0     C52295   2.097   9.667   1.191  0.1798 -0.4602 -0.3588
  397MOL0     O52296   2.057   9.528   1.146  0.3263 -0.6085  0.0148
  397MOL0     C52297   1.931   9.515   1.103  0.2831 -0.3660 -0.3793
  397MOL0     C52298   1.888   9.380   1.072  0.1279 -0.7294  0.3464
  397MOL0     C52299   1.769   9.353   1.007  0.3384  0.5575  0.9179
  397MOL0     C52300   1.686   9.459   0.982  0.1590  0.0118 -0.7977
  397MOL0     C52301   1.558   9.439   0.915 -0.4863  0.2735 -0.4825
  397MOL0     O52302   1.493   9.552   0.873  0.0485 -0.0672  0.5133
  397MOL0     C52303   1.370   9.532   0.815  0.0985  0.1146 -0.1380
  397MOL0     C52304   1.348   9.589   0.695 -0.8241 -0.4682 -0.0119
  397MOL0     C52305   1.221   9.585   0.633 -0.5158 -0.4767  0.2161
  397MOL0     C52306   1.121   9.513   0.694  0.0941 -0.2880 -0.5993
  397MOL0     O52307   0.996   9.501   0.631  0.0744  0.0418 -0.6407
  397MOL0     C52308   0.874   9.508   0.718 -0.0483  0.1490  0.5357
  397MOL0     C52309   0.766   9.486   0.618  0.6815 -0.4873 -0.5073
  397MOL0     C52310   0.622   9.511   0.659  0.3569 -0.4227  1.2993
  397MOL0     C52311   0.592   9.654   0.707  0.5686 -0.5405  0.0352
  397MOL0     C52312   0.489   9.734   0.632  0.9870 -0.8813  0.2163
  397MOL0     C52313   0.346   9.676   0.645 -0.2013 -0.2947  0.3634
  397MOL0     C52314   0.249   9.791   0.611  0.9592  0.1838  0.5100
  397MOL0     C52315   0.105   9.748   0.645 -0.1697 -0.6142 -0.1179
  397MOL0    Cl52316  -0.014   9.867   0.576  0.1063  0.2012  0.0282
  397MOL0     C52317   1.143   9.447   0.817 -0.2141  0.5492 -1.1023
  397MOL0     C52318   1.265   9.459   0.877  0.1009  0.6719  1.0039
  397MOL0     O52319   1.525   9.317   0.896 -0.7777  0.3548 -0.7062
  397MOL0     C52320   1.705   9.587   1.032 -0.9117 -0.1956  0.0630
  397MOL0     C52321   1.827   9.620   1.078 -0.1858  0.4156  0.1772
  397MOL0     N52322   2.422   9.325   1.447  0.9085  0.2978  0.2786
  397MOL0     N52323   2.499   9.251   1.516  0.3169 -0.5911 -0.9615
  397MOL0     C52324   3.579   8.861   1.977  0.4359 -0.4903  0.2660
  397MOL0     C52325   3.698   8.793   1.991  0.6002  0.3700 -0.2571
  397MOL0     C52326   4.119   8.649   2.076  0.4757  0.1789  0.3243
  397MOL0     C52327   4.162   8.568   2.178  0.1854 -0.8780 -0.4838
  397MOL0     C52328   4.291   8.510   2.165  0.5403 -1.2485 -0.2225
  397MOL0     C52329   4.375   8.537   2.057  0.4863  0.5783  0.7995
  397MOL0     O52330   4.494   8.469   2.050  0.4086  0.8422  0.0233
  397MOL0     C52331   4.598   8.550   1.988  0.1677 -0.1020  0.0277
  397MOL0     C52332   4.721   8.539   2.079  0.0174  0.6574 -0.5736
  397MOL0     C52333   4.813   8.656   2.057  0.5882  0.1668  0.3839
  397MOL0     C52334   4.756   8.790   2.106  0.4751  0.9459  0.4026
  397MOL0     C52335   4.711   8.775   2.248  0.0753  0.0515 -0.1228
  397MOL0     C52336   4.704   8.775   2.368 -0.2988  0.5405  0.4620
  397MOL0     C52337   4.320   8.616   1.952 -0.2143  0.2821 -0.5336
  397MOL0     C52338   4.197   8.684   1.965  0.3560  0.3354 -0.5914
  397MOL0     H52339   3.912   9.065   1.946  1.0920  0.2573  2.1903
  397MOL0     H52340   3.704   9.177   1.957  0.4024  0.6501  2.3541
  397MOL0     H52341   3.313   9.104   2.095  2.2664  0.1977  0.8464
  397MOL0     H52342   3.373   8.941   2.114  1.3046  0.0919 -0.9091
  397MOL0     H52343   3.157   8.941   2.037 -0.0715  1.8595  0.0851
  397MOL0     H52344   3.251   8.849   1.933 -1.3292 -0.1183  1.5867
  397MOL0     H52345   3.278   9.040   1.767  0.9762 -2.2263  0.3761
  397MOL0     H52346   3.196   9.146   1.886 -0.9368  0.7645 -4.0168
  397MOL0     H52347   3.052   8.917   1.763 -0.7898  1.0394 -1.9028
  397MOL0     H52348   3.005   9.051   1.879  1.3352  1.0661  1.0017
  397MOL0     H52349   3.108   9.121   1.603 -0.3264  0.5618  0.0794
  397MOL0     H52350   3.017   9.224   1.717 -1.4967  1.7362 -0.2667
  397MOL0     H52351   2.840   9.026   1.685 -0.3656  0.4198 -0.1803
  397MOL0     H52352   2.932   9.005   1.535  0.6689  0.5508 -0.6643
  397MOL0     H52353   2.907   9.275   1.511 -1.3184  2.0453 -1.2490
  397MOL0     H52354   2.787   9.167   1.450 -0.6433  1.7227  0.2239
  397MOL0     H52355   2.768   9.352   1.694 -1.5839  0.9759  1.0795
  397MOL0     H52356   2.684   9.193   1.689 -0.1484 -0.5622 -1.1533
  397MOL0     H52357   2.699   9.502   1.469  1.2923 -1.8206 -2.2269
  397MOL0     H52358   2.511   9.563   1.259 -0.5287  0.9544 -0.0463
  397MOL0     H52359   2.459   9.663   1.392  0.3336  0.3416  1.8142
  397MOL0     H52360   2.228   9.529   1.385 -1.1592  1.6754 -0.6636
  397MOL0     H52361   2.284   9.468   1.231  0.0963  2.0189 -2.1607
  397MOL0     H52362   2.258   9.760   1.301 -3.2284 -0.5698  2.5986
  397MOL0     H52363   2.300   9.677   1.140  1.2608 -0.0889  1.2125
  397MOL0     H52364   2.098   9.737   1.107  1.2697  1.4595  1.1793
  397MOL0     H52365   2.027   9.707   1.265  0.5297 -0.0188 -0.2631
  397MOL0     H52366   1.948   9.292   1.094  0.4623 -1.0532 -1.6682
  397MOL0     H52367   1.741   9.251   0.983 -2.5720  0.8665  2.5084
  397MOL0     H52368   1.421   9.661   0.661 -2.1653  1.5920  1.2673
  397MOL0     H52369   1.206   9.638   0.539 -0.6734 -0.5440  0.2034
  397MOL0     H52370   0.873   9.601   0.776  0.3397  0.4366  0.0828
  397MOL0     H52371   0.868   9.416   0.777  1.1981 -1.4800 -1.7028
  397MOL0     H52372   0.768   9.383   0.583 -3.4474  0.0041 -2.8601
  397MOL0     H52373   0.786   9.558   0.537 -0.9993  3.3156  2.1466
  397MOL0     H52374   0.585   9.443   0.735  0.6088 -3.0213 -0.7659
  397MOL0     H52375   0.563   9.501   0.568  0.3052  1.1454  1.1225
  397MOL0     H52376   0.549   9.650   0.808  2.7453  0.1855  1.0687
  397MOL0     H52377   0.687   9.707   0.718  2.3731 -3.8283  2.0689
  397MOL0     H52378   0.522   9.729   0.527  0.8224  0.1158  0.1053
  397MOL0     H52379   0.504   9.836   0.670  1.5246  0.5764 -3.4557
  397MOL0     H52380   0.337   9.649   0.751 -1.2891 -0.1912  0.3107
  397MOL0     H52381   0.330   9.590   0.579 -1.9827 -0.4896  0.9942
  397MOL0     H52382   0.284   9.879   0.666 -0.0724  1.1627 -0.3750
  397MOL0     H52383   0.256   9.827   0.508 -2.9354  1.5249  0.5667
  397MOL0     H52384   0.093   9.749   0.753  0.4984 -2.6831  0.0260
  397MOL0     H52385   0.083   9.646   0.611 -2.9453 -0.1019 -0.0563
  397MOL0     H52386   1.061   9.389   0.858  0.6757 -0.6404 -0.9506
  397MOL0     H52387   1.274   9.405   0.970  4.5288 -1.6479 -0.4688
  397MOL0     H52388   1.631   9.666   1.023 -0.6512 -0.0086 -0.4997
  397MOL0     H52389   1.835   9.722   1.113 -1.7420  0.3705  0.7412
  397MOL0     H52390   3.485   8.809   1.983  0.6211 -0.6462  2.8885
  397MOL0     H52391   3.709   8.687   2.011  0.8734  0.4652  0.1207
  397MOL0     H52392   4.115   8.537   2.270 -0.0899  1.4105  0.2171
  397MOL0     H52393   4.335   8.442   2.237  4.3802  0.6122 -0.5393
  397MOL0     H52394   4.564   8.654   1.987  2.8671  0.8816  0.4202
  397MOL0     H52395   4.620   8.518   1.886  0.5956  1.5767 -0.4456
  397MOL0     H52396   4.710   8.506   2.183  1.1097  0.9505 -0.3520
  397MOL0     H52397   4.765   8.448   2.037 -0.2108  0.7039 -0.9210
  397MOL0     H52398   4.845   8.658   1.953  0.8868 -0.4582  0.4562
  397MOL0     H52399   4.903   8.637   2.117  1.2211  0.1428 -0.5570
  397MOL0     H52400   4.842   8.853   2.080  0.0158  1.2573 -0.4011
  397MOL0     H52401   4.675   8.842   2.054  0.0938  2.4673  2.4158
  397MOL0     H52402   4.689   8.782   2.474  0.2724 -1.3147  0.7090
  397MOL0     H52403   4.382   8.632   1.865  0.0486  2.2698 -0.0305
  397MOL0     H52404   4.170   8.751   1.884  0.6564 -0.0519 -1.0161
  398MOL0     O52405   9.923   5.712   5.155  0.4505 -0.0867  0.3558
  398MOL0     C52406   9.938   5.606   5.087 -0.2391  0.7806  0.6998
  398MOL0     O52407   9.849   5.499   5.087 -0.4280 -0.3910 -0.0108
  398MOL0     C52408   9.732   5.504   5.160 -0.7214  1.0089 -0.0622
  398MOL0     C52409   9.642   5.605   5.178  0.1254  0.5586  0.0788
  398MOL0     C52410   9.524   5.594   5.249 -0.2340  0.5868 -0.5326
  398MOL0     C52411   9.484   5.476   5.312 -0.1420  1.2556  0.2918
  398MOL0     O52412   9.366   5.461   5.386  0.3249  0.3550  0.0923
  398MOL0     C52413   9.270   5.567   5.374 -0.3920  0.3525  0.1256
  398MOL0     C52414   9.145   5.537   5.455 -0.5910 -0.0307  0.3776
  398MOL0     C52415   9.052   5.423   5.406  0.2179 -0.2616  0.2315
  398MOL0     C52416   8.961   5.453   5.283 -0.6669  0.0254 -0.0544
  398MOL0     C52417   8.846   5.353   5.269 -0.8746  0.6004  0.1326
  398MOL0     C52418   8.764   5.356   5.143  0.9177  0.4634 -0.8828
  398MOL0     C52419   8.616   5.379   5.158 -0.0429  0.6652 -0.2581
  398MOL0     C52420   8.548   5.439   5.029 -0.7968  0.8832  0.0204
  398MOL0     N52421   8.405   5.412   5.022 -0.8152 -0.7005  0.4060
  398MOL0     C52422   8.329   5.295   5.013 -0.4546  0.1974 -0.1361
  398MOL0     C52423   8.201   5.338   5.016 -0.2769  0.0371  0.4020
  398MOL0     C52424   8.078   5.249   5.003 -0.1995  0.6274  0.3816
  398MOL0     C52425   8.024   5.274   4.861  0.4733  0.4727  0.4860
  398MOL0     C52426   7.897   5.187   4.828  0.0343  0.0099  0.2226
  398MOL0     C52427   7.775   5.226   4.910  0.1432 -0.2424 -0.9572
  398MOL0     O52428   7.668   5.143   4.864 -0.1065 -0.1619  0.7167
  398MOL0     C52429   7.543   5.205   4.839  0.3610  0.2617 -0.0403
  398MOL0     C52430   7.472   5.284   4.934  0.1192  1.0607 -0.6611
  398MOL0     C52431   7.347   5.337   4.897  0.5114 -0.4338 -0.1126
  398MOL0     C52432   7.285   5.303   4.776 -0.5445  0.1811 -0.7870
  398MOL0     C52433   7.154   5.357   4.732 -0.6489  0.4320 -0.7861
  398MOL0     O52434   7.134   5.353   4.598  0.9499 -0.2460 -0.6351
  398MOL0     C52435   7.016   5.386   4.542 -0.1753 -0.7358 -0.0505
  398MOL0     C52436   7.009   5.360   4.410  0.7714  0.6389 -0.4781
  398MOL0     C52437   6.894   5.379   4.341  0.4469 -0.6599  0.0676
  398MOL0     C52438   6.773   5.435   4.391 -0.2148  0.6791 -0.0393
  398MOL0     O52439   6.659   5.448   4.310  0.1579 -0.6566  0.6766
  398MOL0     C52440   6.539   5.514   4.363 -0.3286 -0.2716  0.4617
  398MOL0     C52441   6.440   5.410   4.409  1.0550  0.4595  0.6535
  398MOL0     C52442   6.295   5.460   4.423 -0.0753  0.5135 -0.2781
  398MOL0     C52443   6.186   5.354   4.467  1.1960  1.1058 -0.6466
  398MOL0     C52444   6.054   5.433   4.489  0.2085 -0.4476 -0.0886
  398MOL0     C52445   5.940   5.347   4.544  0.8325 -0.2496  0.0383
  398MOL0     C52446   5.804   5.418   4.530 -0.5482  1.0047 -0.2462
  398MOL0     C52447   5.751   5.402   4.383 -0.6173  0.0064  0.6158
  398MOL0    Cl52448   5.613   5.503   4.359 -0.5674 -0.0732 -0.0112
  398MOL0     C52449   6.787   5.481   4.529 -0.2661  0.1015  0.3928
  398MOL0     C52450   6.910   5.460   4.601 -0.2065  1.0188  0.7304
  398MOL0     O52451   7.095   5.416   4.821  0.1921  0.4827  0.0868
  398MOL0     C52452   7.359   5.225   4.681  0.0350 -0.4408  0.5794
  398MOL0     C52453   7.485   5.177   4.718  0.0455 -0.0078 -0.3402
  398MOL0     N52454   8.201   5.475   5.037  0.4295 -0.2744 -0.3042
  398MOL0     N52455   8.321   5.515   5.042  0.6511  0.6601 -0.2576
  398MOL0     C52456   9.577   5.368   5.294  0.2172  0.7588 -0.0645
  398MOL0     C52457   9.694   5.378   5.220  0.6648 -0.9506  0.2472
  398MOL0     C52458  10.066   5.575   5.015  0.0805  0.7826 -0.2393
  398MOL0     C52459  10.148   5.670   4.949 -0.4827 -0.0077  0.1748
  398MOL0     C52460  10.281   5.633   4.920  0.0849 -0.6527 -0.2676
  398MOL0     C52461  10.331   5.508   4.942 -0.1105  0.4038  0.3263
  398MOL0     O52462  10.458   5.490   4.907 -0.1839 -0.5841  0.1768
  398MOL0     C52463  10.504   5.362   4.869 -0.3111 -0.8359 -0.3780
  398MOL0     C52464  10.615   5.366   4.762 -0.1434 -0.9981 -0.2875
  398MOL0     C52465  10.654   5.216   4.725  0.8117 -0.0426 -0.0246
  398MOL0     C52466  10.766   5.173   4.811  0.5700  0.5226 -0.3236
  398MOL0     C52467  10.823   5.056   4.749  0.8092  0.1813  0.7404
  398MOL0     C52468  10.882   4.963   4.701  0.0224  0.6442 -0.0373
  398MOL0     C52469  10.252   5.408   5.008 -0.0198  0.4739  1.7759
  398MOL0     C52470  10.123   5.441   5.048 -0.2873  0.3041 -0.1200
  398MOL0     H52471   9.676   5.694   5.127  1.1605 -0.3415 -0.8463
  398MOL0     H52472   9.461   5.682   5.252 -1.3182 -0.1678 -0.4049
  398MOL0     H52473   9.237   5.580   5.271  0.6446 -0.6047 -0.3470
  398MOL0     H52474   9.319   5.652   5.422  1.9976 -0.9642  0.2312
  398MOL0     H52475   9.078   5.623   5.456 -1.1797 -0.3109 -3.2336
  398MOL0     H52476   9.183   5.511   5.554 -0.7548  0.4775  0.5736
  398MOL0     H52477   8.989   5.383   5.486  1.1138 -1.2748  0.4474
  398MOL0     H52478   9.118   5.338   5.386  0.5693  0.4929 -2.1215
  398MOL0     H52479   8.917   5.552   5.293  0.4233  0.7120 -1.5779
  398MOL0     H52480   9.023   5.438   5.194  1.0066  1.5275  0.7849
  398MOL0     H52481   8.774   5.351   5.352 -0.2626 -1.8795  0.6938
  398MOL0     H52482   8.888   5.254   5.285  3.3662  1.9811 -1.0816
  398MOL0     H52483   8.768   5.257   5.097 -0.9970 -1.2088  2.2111
  398MOL0     H52484   8.806   5.430   5.074  1.1758  1.1386 -0.0230
  398MOL0     H52485   8.564   5.284   5.171 -0.5465  0.8797 -0.6673
  398MOL0     H52486   8.586   5.448   5.237 -2.5534  0.6832 -1.1314
  398MOL0     H52487   8.583   5.404   4.931 -1.8115  0.0297 -0.0525
  398MOL0     H52488   8.565   5.547   5.033 -0.9840  0.9336 -0.4655
  398MOL0     H52489   8.359   5.192   4.993 -1.7506 -0.2393  0.0966
  398MOL0     H52490   8.005   5.278   5.079 -2.5712  2.7201 -2.4760
  398MOL0     H52491   8.111   5.145   5.015 -0.8791  0.1521 -1.4904
  398MOL0     H52492   8.109   5.253   4.796 -0.3240 -0.3357 -0.3350
  398MOL0     H52493   8.011   5.382   4.856  2.4823  0.7461  0.5514
  398MOL0     H52494   7.864   5.225   4.731 -1.0295 -3.0963 -0.7528
  398MOL0     H52495   7.923   5.081   4.834  0.3326 -0.0534 -1.5681
  398MOL0     H52496   7.744   5.331   4.915  0.9941 -0.0361  1.8132
  398MOL0     H52497   7.797   5.191   5.012  0.4557  0.2889 -0.8426
  398MOL0     H52498   7.523   5.321   5.023 -0.1526 -1.1134  0.4705
  398MOL0     H52499   7.306   5.402   4.974  3.8157  2.1851 -0.3163
  398MOL0     H52500   7.082   5.302   4.354 -0.4971 -0.7127 -0.8149
  398MOL0     H52501   6.895   5.347   4.237  1.2226  1.6255 -0.7027
  398MOL0     H52502   6.491   5.560   4.276  1.6697 -0.3021 -0.7156
  398MOL0     H52503   6.557   5.597   4.431 -1.9800 -1.2551  2.1733
  398MOL0     H52504   6.483   5.375   4.503  3.3091 -0.4685 -0.6612
  398MOL0     H52505   6.425   5.320   4.349 -0.8442  1.3861 -0.3639
  398MOL0     H52506   6.255   5.502   4.330 -3.0773 -1.0843  0.1582
  398MOL0     H52507   6.304   5.535   4.502 -0.6056  0.1558  0.1278
  398MOL0     H52508   6.169   5.269   4.400 -1.7656 -1.9606  3.4821
  398MOL0     H52509   6.209   5.311   4.565 -1.4290 -1.7013 -1.1183
  398MOL0     H52510   6.022   5.459   4.388 -1.2737  0.1521  0.5085
  398MOL0     H52511   6.064   5.527   4.543  0.8928  0.8946 -2.4014
  398MOL0     H52512   5.963   5.315   4.647 -1.0792 -4.6735 -0.6600
  398MOL0     H52513   5.933   5.255   4.485  1.4289  1.8321 -3.5890
  398MOL0     H52514   5.723   5.374   4.590 -0.4603  0.9539 -0.1643
  398MOL0     H52515   5.815   5.525   4.551 -1.4701  1.0011  0.3268
  398MOL0     H52516   5.718   5.302   4.352 -1.1914 -0.1334  1.6436
  398MOL0     H52517   5.831   5.439   4.319  2.0733 -1.7630  2.7412
  398MOL0     H52518   6.705   5.528   4.582 -0.5206  0.9594 -0.6982
  398MOL0     H52519   6.914   5.480   4.707  2.3567 -0.4701  0.9978
  398MOL0     H52520   7.320   5.200   4.583 -0.1286 -2.2387  1.0749
  398MOL0     H52521   7.534   5.103   4.657 -0.6212  0.1014 -1.0218
  398MOL0     H52522   9.551   5.276   5.345  1.8498  0.3159  0.0513
  398MOL0     H52523   9.751   5.286   5.205  0.0404 -1.4015  0.5793
  398MOL0     H52524  10.118   5.774   4.936  1.7458  0.4092 -2.6357
  398MOL0     H52525  10.349   5.701   4.871 -1.8990  1.5681 -0.1183
  398MOL0     H52526  10.419   5.312   4.821  0.7322 -3.0076 -0.0537
  398MOL0     H52527  10.521   5.305   4.960  1.7444  2.3199  1.4043
  398MOL0     H52528  10.578   5.421   4.675 -0.7695 -1.7762 -0.5148
  398MOL0     H52529  10.701   5.417   4.808 -1.3116  0.8343 -0.0348
  398MOL0     H52530  10.680   5.214   4.618  0.5286  1.0360 -0.1182
  398MOL0     H52531  10.572   5.146   4.745 -0.9602  2.2284  1.0162
  398MOL0     H52532  10.842   5.251   4.810 -0.9201  2.0512 -1.8947
  398MOL0     H52533  10.732   5.147   4.912 -2.0328 -1.1072 -1.4881
  398MOL0     H52534  10.925   4.879   4.649 -0.1796  0.0990  0.6502
  398MOL0     H52535  10.289   5.308   5.025  1.4685  0.0904 -2.5306
  398MOL0     H52536  10.065   5.368   5.103 -0.1095 -0.5218 -1.0034
  399MOL0     O52537   3.605   2.579   9.006  0.0718  0.3896 -0.7393
  399MOL0     C52538   3.555   2.559   8.895 -0.6432 -0.0690  1.3380
  399MOL0     O52539   3.619   2.481   8.798 -0.3701 -0.5896  0.4035
  399MOL0     C52540   3.755   2.449   8.823 -0.4920  0.3996  0.7751
  399MOL0     C52541   3.805   2.315   8.814  0.2693  0.3909  0.3765
  399MOL0     C52542   3.938   2.295   8.841  0.0273 -0.2202  0.3799
  399MOL0     C52543   4.031   2.402   8.867  0.1748 -0.1142 -0.2814
  399MOL0     O52544   4.158   2.373   8.895  0.5826 -0.0028 -0.1129
  399MOL0     C52545   4.194   2.342   9.033  0.1530  0.4701 -0.8143
  399MOL0     C52546   4.136   2.214   9.093  0.2796  0.6273 -0.0774
  399MOL0     C52547   4.179   2.088   9.003 -0.0235 -0.2028 -0.3859
  399MOL0     C52548   4.118   1.964   9.056  0.1027 -0.2027  0.0105
  399MOL0     C52549   4.090   1.852   8.959 -0.1369  0.2993 -0.4628
  399MOL0     C52550   4.213   1.773   8.908 -0.3107  0.3861 -0.4872
  399MOL0     C52551   4.168   1.703   8.780 -0.6936 -0.5443 -0.0553
  399MOL0     C52552   4.073   1.583   8.806 -0.5740  0.5357  0.1398
  399MOL0     N52553   3.937   1.613   8.798 -0.1500 -0.1724  0.5717
  399MOL0     C52554   3.843   1.553   8.874 -0.7034 -0.2221 -0.1204
  399MOL0     C52555   3.732   1.620   8.839  0.6230 -0.1498 -0.3183
  399MOL0     C52556   3.617   1.592   8.924  0.1236 -0.5778 -0.4571
  399MOL0     C52557   3.540   1.718   8.969  0.4365 -0.7652  0.4519
  399MOL0     C52558   3.619   1.824   9.047  0.2199  0.1934  0.1021
  399MOL0     C52559   3.528   1.931   9.108 -0.2677 -0.3192  0.6151
  399MOL0     O52560   3.452   2.021   9.007 -0.4483  0.1149 -0.7655
  399MOL0     C52561   3.321   2.054   9.033 -0.1114  0.2400  0.1560
  399MOL0     C52562   3.283   2.186   9.009 -1.4854  0.0101 -0.0015
  399MOL0     C52563   3.148   2.230   9.025 -1.6153 -0.3010 -0.1705
  399MOL0     C52564   3.049   2.148   9.069 -0.6617 -0.1316 -0.0835
  399MOL0     C52565   2.906   2.178   9.081  0.6795 -0.3084  0.7006
  399MOL0     O52566   2.841   2.145   9.200  0.0085  0.0051  0.0643
  399MOL0     C52567   2.709   2.180   9.224  0.5689  0.6798 -0.2383
  399MOL0     C52568   2.665   2.310   9.211  0.1485 -0.2537  0.4955
  399MOL0     C52569   2.532   2.348   9.226  0.6802 -0.3311 -0.8372
  399MOL0     C52570   2.435   2.248   9.252 -0.5509 -0.6547  0.3075
  399MOL0     O52571   2.301   2.276   9.261  0.8892  0.5975 -0.3840
  399MOL0     C52572   2.208   2.209   9.345 -0.3889  0.5941 -1.1611
  399MOL0     C52573   2.073   2.296   9.340 -0.0847 -0.1742  0.0643
  399MOL0     C52574   2.089   2.413   9.441  0.1333 -0.0756  0.0088
  399MOL0     C52575   1.997   2.529   9.397  0.3731  0.3448  0.0095
  399MOL0     C52576   2.031   2.651   9.479 -0.1357 -0.3058 -0.1573
  399MOL0     C52577   1.942   2.761   9.427 -0.1153  0.4892 -0.6326
  399MOL0     C52578   1.950   2.884   9.510 -0.0518 -0.5823  0.4853
  399MOL0     C52579   1.879   2.868   9.644 -0.8500  0.0683  0.3568
  399MOL0    Cl52580   1.694   2.872   9.632  0.0606 -0.2676 -0.6147
  399MOL0     C52581   2.482   2.121   9.271  0.1739  0.7925  0.0065
  399MOL0     C52582   2.615   2.087   9.256 -0.2348  0.0319 -0.1671
  399MOL0     O52583   2.850   2.239   8.986  0.9258  0.5636 -1.0956
  399MOL0     C52584   3.087   2.022   9.106 -0.3817  0.7758 -0.0158
  399MOL0     C52585   3.218   1.965   9.091 -0.6515 -0.0852  0.5454
  399MOL0     N52586   3.754   1.695   8.720 -0.3612 -0.1454  0.2422
  399MOL0     N52587   3.879   1.691   8.702  0.2389 -0.1953 -0.2946
  399MOL0     C52588   3.989   2.534   8.870  0.1872 -0.0410  0.3132
  399MOL0     C52589   3.852   2.554   8.841  0.1564 -0.3735  0.1659
  399MOL0     C52590   3.416   2.602   8.862 -0.4002  0.0336  0.1245
  399MOL0     C52591   3.349   2.557   8.745 -0.2220  0.3527 -0.2936
  399MOL0     C52592   3.219   2.594   8.717  0.5138 -1.2482  0.3128
  399MOL0     C52593   3.152   2.689   8.792 -0.6964  0.5967  0.3483
  399MOL0     O52594   3.025   2.733   8.759 -0.0692  1.1418 -0.2494
  399MOL0     C52595   2.915   2.686   8.840 -0.2475  0.4326 -0.2611
  399MOL0     C52596   2.848   2.565   8.773 -0.0472  0.5275  0.4853
  399MOL0     C52597   2.702   2.531   8.817  0.2455 -0.2544 -0.2649
  399MOL0     C52598   2.599   2.633   8.776 -0.0158  0.3488  0.4489
  399MOL0     C52599   2.602   2.659   8.637  0.4980  0.7481  0.2476
  399MOL0     C52600   2.616   2.675   8.518  0.6124  0.0035 -0.4346
  399MOL0     C52601   3.210   2.733   8.906 -0.6355 -0.5576  0.3269
  399MOL0     C52602   3.339   2.694   8.942 -0.0337  0.1335  0.0825
  399MOL0     H52603   3.725   2.242   8.805 -2.8057  3.5752 -0.8224
  399MOL0     H52604   3.960   2.189   8.855 -2.3854 -0.4918  2.8560
  399MOL0     H52605   4.163   2.426   9.095  1.3434  0.8868 -0.7693
  399MOL0     H52606   4.302   2.327   9.029  0.0263 -0.3682 -1.5173
  399MOL0     H52607   4.028   2.216   9.113  0.5880  0.8151  1.7737
  399MOL0     H52608   4.181   2.219   9.192  2.3982  1.3933 -1.0206
  399MOL0     H52609   4.289   2.085   9.002  0.0016 -0.2173  0.7935
  399MOL0     H52610   4.148   2.116   8.902  1.9273 -0.0367 -0.9932
  399MOL0     H52611   4.178   1.923   9.138  1.2322 -1.1368 -1.2462
  399MOL0     H52612   4.019   1.995   9.091  1.3358  2.2385  1.5931
  399MOL0     H52613   4.036   1.887   8.871 -0.7077  2.3608  0.6337
  399MOL0     H52614   4.032   1.771   9.004  0.7588 -0.9817 -1.5237
  399MOL0     H52615   4.256   1.700   8.977  2.6516 -1.4761 -3.9157
  399MOL0     H52616   4.288   1.851   8.893 -1.4256  1.5230 -0.2692
  399MOL0     H52617   4.125   1.776   8.711 -0.0063  0.5804  0.6825
  399MOL0     H52618   4.264   1.660   8.748 -1.4719  0.2465 -4.0653
  399MOL0     H52619   4.097   1.541   8.904  1.1101  0.0314 -0.4594
  399MOL0     H52620   4.089   1.502   8.734  0.9136 -1.1931  2.2711
  399MOL0     H52621   3.852   1.476   8.950 -2.4364  0.6302  1.0063
  399MOL0     H52622   3.658   1.551   9.016 -0.2948  3.3958  1.7445
  399MOL0     H52623   3.555   1.524   8.866 -2.5946  1.2840  0.0812
  399MOL0     H52624   3.447   1.704   9.024 -0.5197  1.4959 -0.4585
  399MOL0     H52625   3.491   1.767   8.884 -1.0876 -1.0079  1.1536
  399MOL0     H52626   3.684   1.762   9.111 -2.3030 -3.9560 -0.9572
  399MOL0     H52627   3.682   1.868   8.969  0.3632 -0.3351 -0.0860
  399MOL0     H52628   3.591   1.996   9.170 -0.6319  0.3795  0.2766
  399MOL0     H52629   3.452   1.885   9.172 -1.5822 -2.2915 -2.1358
  399MOL0     H52630   3.369   2.238   8.968 -1.0263  0.5279  1.5437
  399MOL0     H52631   3.117   2.332   9.004 -1.8119  0.0842  1.7995
  399MOL0     H52632   2.741   2.386   9.194 -1.4112  1.8466  2.3254
  399MOL0     H52633   2.500   2.450   9.206  1.5210  0.0058 -0.4759
  399MOL0     H52634   2.250   2.185   9.443 -2.6892 -2.0066 -0.7053
  399MOL0     H52635   2.176   2.113   9.304 -0.7910 -1.0695  2.6509
  399MOL0     H52636   2.000   2.222   9.376  0.4322 -0.9152 -0.3893
  399MOL0     H52637   2.061   2.324   9.236  1.9346  1.5057  0.2161
  399MOL0     H52638   2.195   2.441   9.445 -0.5191  2.6375  0.0745
  399MOL0     H52639   2.047   2.364   9.529 -3.2600 -1.3207 -2.1004
  399MOL0     H52640   2.017   2.545   9.291  0.6589  1.2782  0.1980
  399MOL0     H52641   1.892   2.503   9.411  0.5761 -0.7398 -0.3127
  399MOL0     H52642   2.134   2.672   9.449  0.2070  0.8619  1.6749
  399MOL0     H52643   2.016   2.644   9.587 -3.2169  1.0795 -0.3811
  399MOL0     H52644   1.842   2.718   9.438  0.1864  0.1396  0.9960
  399MOL0     H52645   1.958   2.773   9.320  0.9203  2.1274 -0.3168
  399MOL0     H52646   2.055   2.896   9.540 -0.7232 -0.0393  2.7880
  399MOL0     H52647   1.900   2.965   9.456 -1.3614 -0.9595  1.1193
  399MOL0     H52648   1.907   2.964   9.688  3.8136 -0.7435 -0.3174
  399MOL0     H52649   1.929   2.811   9.723 -0.6707  0.3659  0.4611
  399MOL0     H52650   2.409   2.047   9.298 -1.7130  2.9008  0.9746
  399MOL0     H52651   2.636   1.981   9.264  1.6571  0.5605  3.9794
  399MOL0     H52652   3.004   1.963   9.143  0.8056 -2.0584 -1.5696
  399MOL0     H52653   3.231   1.868   9.138 -3.1644 -0.3624  0.8024
  399MOL0     H52654   4.069   2.606   8.889  0.0038 -0.7921  5.2723
  399MOL0     H52655   3.820   2.656   8.820 -1.0001 -1.1106 -1.9420
  399MOL0     H52656   3.413   2.493   8.686  1.1868  4.1174 -3.3060
  399MOL0     H52657   3.174   2.559   8.624 -2.6530  2.1765  0.3135
  399MOL0     H52658   2.846   2.770   8.852  2.0945  2.7130 -1.6925
  399MOL0     H52659   2.949   2.658   8.940 -1.4131  0.9195  0.2850
  399MOL0     H52660   2.856   2.577   8.665  0.9431 -1.0860  0.3593
  399MOL0     H52661   2.899   2.472   8.800 -1.4037 -1.2200 -2.5064
  399MOL0     H52662   2.684   2.511   8.923 -1.9026 -0.7473 -0.6708
  399MOL0     H52663   2.672   2.438   8.768  1.6960 -1.0660  0.3301
  399MOL0     H52664   2.499   2.601   8.809 -0.1980 -2.1310 -2.1158
  399MOL0     H52665   2.625   2.724   8.829  1.4203 -0.2071  0.7359
  399MOL0     H52666   2.631   2.674   8.412 -0.4992 -1.9453 -0.6396
  399MOL0     H52667   3.175   2.818   8.964  2.5907  0.8086  0.4899
  399MOL0     H52668   3.389   2.745   9.024  1.5487 -0.2563 -0.5866
  400MOL0     O52669   0.897   9.375   3.443 -0.0779 -0.0876  0.2348
  400MOL0     C52670   0.928   9.316   3.552  0.2759  0.1893  0.4314
  400MOL0     O52671   0.843   9.224   3.615 -0.1572  0.1410  0.3328
  400MOL0     C52672   0.715   9.201   3.560  0.8299 -0.3006 -0.6289
  400MOL0     C52673   0.614   9.192   3.660  0.5313  0.4693 -1.0441
  400MOL0     C52674   0.483   9.162   3.634  0.2420  0.7392  0.2414
  400MOL0     C52675   0.457   9.128   3.500  0.4789  0.1941 -0.0671
  400MOL0     O52676   0.331   9.084   3.461 -0.9250  0.5952 -0.0107
  400MOL0     C52677   0.222   9.120   3.544 -0.7541 -0.0302  0.3735
  400MOL0     C52678   0.098   9.055   3.478 -0.6962 -0.8891  0.3508
  400MOL0     C52679  -0.028   9.057   3.556  0.0746 -0.1576 -0.3720
  400MOL0     C52680  -0.018   8.989   3.698 -0.0769 -0.0392  0.4103
  400MOL0     C52681   0.050   8.847   3.712  0.3127 -0.5183 -0.6874
  400MOL0     C52682  -0.036   8.720   3.656 -0.3166 -0.9960 -0.3475
  400MOL0     C52683  -0.093   8.637   3.783  0.2439 -0.6845 -0.6088
  400MOL0     C52684  -0.159   8.513   3.738  0.4214 -0.5194  0.1992
  400MOL0     N52685  -0.197   8.422   3.847 -0.1788 -0.0462  0.2803
  400MOL0     C52686  -0.317   8.343   3.843  0.0849 -0.5792  0.5004
  400MOL0     C52687  -0.291   8.232   3.919  0.8506 -0.6169  0.2293
  400MOL0     C52688  -0.398   8.142   3.962  0.0719 -0.0652 -0.7937
  400MOL0     C52689  -0.452   8.187   4.096  0.1133 -0.2078  0.5177
  400MOL0     C52690  -0.342   8.186   4.212  0.2579  0.7922  0.2358
  400MOL0     C52691  -0.407   8.245   4.336 -0.4353 -0.1257  0.7347
  400MOL0     O52692  -0.528   8.178   4.371 -0.2597 -0.2343 -0.4486
  400MOL0     C52693  -0.649   8.245   4.363  0.2149  1.0664 -0.3881
  400MOL0     C52694  -0.757   8.169   4.396  0.4166  0.5880  0.6226
  400MOL0     C52695  -0.891   8.222   4.385 -0.0497 -0.0846 -0.0388
  400MOL0     C52696  -0.912   8.355   4.366  0.5668 -0.1758  0.1120
  400MOL0     C52697  -1.049   8.407   4.376 -0.4655 -0.2879  0.4955
  400MOL0     O52698  -1.139   8.315   4.419 -0.3864  0.1688  0.1519
  400MOL0     C52699  -1.268   8.317   4.370 -1.1537  0.4629  1.2243
  400MOL0     C52700  -1.301   8.365   4.243 -0.1145 -0.3867 -0.1531
  400MOL0     C52701  -1.428   8.337   4.190  0.7538 -0.8511 -1.0621
  400MOL0     C52702  -1.522   8.253   4.257 -0.1011 -0.6222  0.4715
  400MOL0     O52703  -1.645   8.209   4.208 -0.1050  1.1198  0.8746
  400MOL0     C52704  -1.699   8.297   4.102  1.5564  0.0173 -0.1160
  400MOL0     C52705  -1.846   8.268   4.054 -0.0191 -0.3923 -0.1373
  400MOL0     C52706  -1.956   8.267   4.172  0.3098  0.2115 -0.3956
  400MOL0     C52707  -2.089   8.199   4.133  0.0796 -0.2609  0.7318
  400MOL0     C52708  -2.085   8.048   4.134  0.8030 -0.2341  0.4598
  400MOL0     C52709  -2.230   7.984   4.124  0.3170 -0.2812 -0.0963
  400MOL0     C52710  -2.299   7.991   3.993  0.2499 -0.5506  0.1040
  400MOL0     C52711  -2.455   7.978   4.018 -0.5807  0.2729 -0.8954
  400MOL0    Cl52712  -2.473   7.809   4.080 -0.3133  0.0356 -0.1625
  400MOL0     C52713  -1.483   8.210   4.380  0.2080  0.8088 -0.1513
  400MOL0     C52714  -1.366   8.240   4.440 -0.4970  0.3194  0.0099
  400MOL0     O52715  -1.079   8.524   4.361  0.9562 -0.2564 -0.0078
  400MOL0     C52716  -0.797   8.435   4.344  0.1047  0.5167 -0.8785
  400MOL0     C52717  -0.674   8.383   4.342 -0.5820  0.6129  0.4655
  400MOL0     N52718  -0.157   8.239   3.958  0.8761  0.2961 -0.2520
  400MOL0     N52719  -0.103   8.348   3.912  1.4978 -0.2710 -0.6886
  400MOL0     C52720   0.549   9.136   3.400 -1.1417  1.3071 -0.3162
  400MOL0     C52721   0.683   9.169   3.437 -0.4094  0.1667  1.1750
  400MOL0     C52722   1.059   9.353   3.612  0.0864  0.1579 -0.0096
  400MOL0     C52723   1.081   9.306   3.742  0.0603 -0.7342  0.0747
  400MOL0     C52724   1.202   9.325   3.805 -0.7615 -0.3494  0.5817
  400MOL0     C52725   1.302   9.393   3.733 -0.1183  0.7498  0.0793
  400MOL0     O52726   1.426   9.416   3.794  0.0081  0.6395  0.9465
  400MOL0     C52727   1.436   9.394   3.934 -1.4673  0.4306 -0.2327
  400MOL0     C52728   1.583   9.378   3.975 -0.6315 -0.1014  0.3261
  400MOL0     C52729   1.666   9.314   3.863  0.2465  1.0974  0.8351
  400MOL0     C52730   1.710   9.402   3.749  0.2986  0.0174  0.4379
  400MOL0     C52731   1.847   9.368   3.697 -0.1018 -0.0092  0.5634
  400MOL0     C52732   1.949   9.341   3.631  0.1519  0.6309 -0.0649
  400MOL0     C52733   1.271   9.447   3.608 -1.0323  0.1436  0.1738
  400MOL0     C52734   1.152   9.429   3.543 -0.2485  0.2584 -1.0510
  400MOL0     H52735   0.648   9.207   3.762  1.7887 -2.8518 -0.8581
  400MOL0     H52736   0.417   9.152   3.720  2.1930  3.1596  2.1684
  400MOL0     H52737   0.214   9.228   3.564  0.8830  0.4315 -1.1910
  400MOL0     H52738   0.246   9.058   3.631 -0.5467  0.3147  0.5638
  400MOL0     H52739   0.117   8.954   3.441  2.2985 -0.1762 -0.3509
  400MOL0     H52740   0.068   9.111   3.389  0.4682 -0.9379 -0.0910
  400MOL0     H52741  -0.097   8.999   3.494  0.4525  0.2348 -1.1699
  400MOL0     H52742  -0.064   9.159   3.564 -0.2065 -0.2384 -0.5816
  400MOL0     H52743   0.041   9.056   3.762 -1.2010  0.2131  1.2095
  400MOL0     H52744  -0.123   8.982   3.730 -1.5230  3.3546 -2.8107
  400MOL0     H52745   0.084   8.830   3.814 -0.2856 -0.1089 -0.4096
  400MOL0     H52746   0.140   8.854   3.649 -0.2904  1.7485 -1.3975
  400MOL0     H52747   0.025   8.650   3.598 -3.5811 -3.9040 -0.6015
  400MOL0     H52748  -0.116   8.754   3.590 -2.1544 -2.0493  1.2508
  400MOL0     H52749  -0.005   8.616   3.844  1.0448  2.1079 -0.6695
  400MOL0     H52750  -0.159   8.693   3.850 -0.4068 -0.2051 -1.6155
  400MOL0     H52751  -0.099   8.458   3.665  0.1799 -0.5313  0.0080
  400MOL0     H52752  -0.255   8.550   3.700 -0.4088  0.2365  2.8349
  400MOL0     H52753  -0.411   8.386   3.811  1.3744  2.7190  0.6430
  400MOL0     H52754  -0.361   8.040   3.973 -2.0905 -0.7032  1.5669
  400MOL0     H52755  -0.472   8.135   3.883 -0.3034 -1.4108 -0.3541
  400MOL0     H52756  -0.539   8.130   4.130  0.3719 -0.6178  0.4873
  400MOL0     H52757  -0.489   8.290   4.094  0.8956  0.1313  2.1191
  400MOL0     H52758  -0.304   8.084   4.221  2.0624  1.4079  0.1424
  400MOL0     H52759  -0.250   8.241   4.186  1.3649 -1.3184 -0.5702
  400MOL0     H52760  -0.418   8.354   4.330 -0.9425 -0.2673 -2.5112
  400MOL0     H52761  -0.334   8.232   4.416 -1.4409  0.0489  1.7159
  400MOL0     H52762  -0.726   8.068   4.421  3.7077  0.7413 -2.1391
  400MOL0     H52763  -0.962   8.145   4.409  0.0947 -0.7545 -1.6053
  400MOL0     H52764  -1.228   8.406   4.174 -1.2441 -1.9948 -2.4479
  400MOL0     H52765  -1.451   8.385   4.095 -1.4167 -0.4010 -0.3692
  400MOL0     H52766  -1.634   8.301   4.014  3.3391  0.7217  1.1684
  400MOL0     H52767  -1.708   8.399   4.140 -2.3767  0.1428 -0.9073
  400MOL0     H52768  -1.851   8.169   4.007 -1.4138  0.4109 -1.8043
  400MOL0     H52769  -1.886   8.336   3.978 -0.2406 -0.1451  0.1962
  400MOL0     H52770  -1.969   8.369   4.208  0.7487 -0.7560  2.7753
  400MOL0     H52771  -1.913   8.206   4.252  1.9578  1.4129 -0.3104
  400MOL0     H52772  -2.162   8.225   4.210 -0.1016  1.7072 -0.0338
  400MOL0     H52773  -2.125   8.235   4.036  1.7972  0.4096  0.3167
  400MOL0     H52774  -2.041   8.014   4.228  1.3731  2.1599  1.1258
  400MOL0     H52775  -2.027   8.010   4.049 -1.8889  0.5916 -1.9110
  400MOL0     H52776  -2.288   8.030   4.205  1.2025 -1.8306  1.4808
  400MOL0     H52777  -2.222   7.880   4.156 -3.4044 -0.5450  0.5238
  400MOL0     H52778  -2.280   8.092   3.955  1.4775  0.4278  2.9927
  400MOL0     H52779  -2.263   7.920   3.918  0.5597  1.4116 -1.7000
  400MOL0     H52780  -2.513   7.991   3.926 -1.3753  1.4898 -0.2483
  400MOL0     H52781  -2.490   8.049   4.093  2.0326  0.1756  0.5345
  400MOL0     H52782  -1.555   8.146   4.430 -0.8268  1.3596 -0.9103
  400MOL0     H52783  -1.329   8.198   4.533  4.0256  0.6445 -1.3754
  400MOL0     H52784  -0.813   8.542   4.334 -0.2941  0.4809 -0.6788
  400MOL0     H52785  -0.597   8.458   4.333  1.5423 -1.5908 -0.7324
  400MOL0     H52786   0.517   9.112   3.299  1.9718 -1.4714 -0.8394
  400MOL0     H52787   0.765   9.180   3.367 -1.0031 -0.6584  0.3162
  400MOL0     H52788   0.999   9.250   3.786  1.0648 -2.1140  0.2482
  400MOL0     H52789   1.209   9.297   3.909  0.2890  1.4957  1.0460
  400MOL0     H52790   1.402   9.293   3.957 -3.7340  1.5882  1.9047
  400MOL0     H52791   1.376   9.456   4.001 -2.4780 -1.2422  0.4753
  400MOL0     H52792   1.630   9.471   4.009 -1.6211  0.9695 -1.1404
  400MOL0     H52793   1.587   9.310   4.060 -1.4746  1.2061  1.4568
  400MOL0     H52794   1.605   9.235   3.817  1.9250 -0.0710  0.5201
  400MOL0     H52795   1.749   9.261   3.910 -0.6289 -0.2036  0.9787
  400MOL0     H52796   1.649   9.413   3.659  0.1720 -1.0153  0.3881
  400MOL0     H52797   1.714   9.501   3.796 -0.8207  0.8669 -1.1424
  400MOL0     H52798   2.045   9.321   3.587  0.9926 -0.7076  2.1737
  400MOL0     H52799   1.349   9.501   3.555 -0.2097 -0.0339  1.1583
  400MOL0     H52800   1.147   9.472   3.443 -1.4030 -0.5309 -1.3588
  401MOL0     O52801   8.208   0.117  10.435 -0.1117  0.0103  0.5554
  401MOL0     C52802   8.273   0.060  10.341  0.1335 -0.5308 -0.6883
  401MOL0     O52803   8.244   0.063  10.209 -0.8116  0.4116 -0.3161
  401MOL0     C52804   8.120   0.101  10.163 -0.5148 -0.6608  0.2500
  401MOL0     C52805   8.108   0.134  10.025 -0.6083  0.1774  0.9830
  401MOL0     C52806   7.991   0.173   9.959  0.3507  0.2179 -0.7030
  401MOL0     C52807   7.872   0.180  10.039 -0.1911 -0.2111 -0.7024
  401MOL0     O52808   7.748   0.212   9.979 -0.3565 -0.8160 -0.2118
  401MOL0     C52809   7.758   0.331   9.897 -0.1724 -0.0015 -0.7339
  401MOL0     C52810   7.637   0.360   9.807  0.9439 -0.2606 -0.2203
  401MOL0     C52811   7.519   0.418   9.890  0.2526  0.1668  0.3983
  401MOL0     C52812   7.389   0.413   9.794 -0.2886  0.1830 -0.4743
  401MOL0     C52813   7.274   0.484   9.865 -0.1178 -0.0378 -0.4332
  401MOL0     C52814   7.140   0.435   9.805 -0.1339 -0.3656  1.3482
  401MOL0     C52815   7.029   0.524   9.841  0.7844  0.4006  0.2680
  401MOL0     C52816   6.888   0.480   9.786  0.3321  0.2458 -1.3294
  401MOL0     N52817   6.777   0.566   9.833 -0.8687  0.1747 -0.1002
  401MOL0     C52818   6.723   0.565   9.962  0.8946  0.1638  0.2073
  401MOL0     C52819   6.635   0.668   9.963  0.8009  0.0338 -0.7066
  401MOL0     C52820   6.532   0.705  10.064  0.6216  0.7784 -0.3558
  401MOL0     C52821   6.552   0.849  10.106  0.2241 -0.2935 -0.3239
  401MOL0     C52822   6.487   0.873  10.248 -0.2418 -0.7389  0.4656
  401MOL0     C52823   6.337   0.860  10.232 -0.9579  0.5523  0.1200
  401MOL0     O52824   6.287   0.927  10.120 -0.5052  0.0338 -0.5768
  401MOL0     C52825   6.154   0.950  10.110  0.1274 -0.7160 -0.0075
  401MOL0     C52826   6.115   1.025   9.997  0.2059  0.4423 -0.1446
  401MOL0     C52827   5.981   1.060   9.969  0.2913  0.8617  0.1497
  401MOL0     C52828   5.880   1.019  10.065 -0.3091 -0.1803  1.4896
  401MOL0     C52829   5.745   1.085  10.053 -0.0246 -0.0044 -0.2281
  401MOL0     O52830   5.669   1.084  10.167  0.2846 -0.5414 -0.7215
  401MOL0     C52831   5.544   1.140  10.167  0.0252  0.2466 -0.1442
  401MOL0     C52832   5.516   1.268  10.124 -0.5180 -0.3442  0.8027
  401MOL0     C52833   5.391   1.322  10.138  0.0604 -0.0226 -0.4630
  401MOL0     C52834   5.281   1.248  10.176  0.7113  0.3192 -0.4169
  401MOL0     O52835   5.158   1.307  10.169  0.5671 -1.1453 -0.3782
  401MOL0     C52836   5.044   1.246  10.232  1.1392  0.2557  0.4895
  401MOL0     C52837   4.958   1.181  10.115  0.5654 -0.2160 -0.1728
  401MOL0     C52838   4.838   1.104  10.152  0.3822  0.6523 -0.3290
  401MOL0     C52839   4.747   1.081  10.040  1.0409 -0.2002 -0.3496
  401MOL0     C52840   4.635   0.984  10.080  0.6028 -0.7475  0.4300
  401MOL0     C52841   4.544   1.009  10.202  0.1919  0.4242 -0.0605
  401MOL0     C52842   4.467   1.142  10.211 -0.1500  0.6395  0.3302
  401MOL0     C52843   4.345   1.132  10.308 -0.0618 -0.0276  0.2990
  401MOL0    Cl52844   4.221   1.050  10.220  0.1000 -0.4786 -0.2538
  401MOL0     C52845   5.304   1.115  10.211 -0.2618 -0.1549 -1.1712
  401MOL0     C52846   5.429   1.057  10.208  0.2686  0.2263  1.1983
  401MOL0     O52847   5.708   1.134   9.949  0.3843 -0.1659  0.5460
  401MOL0     C52848   5.914   0.938  10.174 -0.5903  0.1037  0.1651
  401MOL0     C52849   6.053   0.907  10.200  0.7053  0.3254  0.8453
  401MOL0     N52850   6.641   0.724   9.842  0.3074  0.8067 -0.0958
  401MOL0     N52851   6.717   0.659   9.760  0.7765  0.2683 -0.4757
  401MOL0     C52852   7.879   0.133  10.175 -0.5804  0.5608  0.1933
  401MOL0     C52853   7.997   0.100  10.238 -0.5287  0.8714 -0.0128
  401MOL0     C52854   8.407   0.020  10.373 -0.5432  0.4061 -0.3593
  401MOL0     C52855   8.455   0.014  10.508 -0.0436 -0.3531  0.2301
  401MOL0     C52856   8.576  -0.031  10.537  0.0416 -0.4070 -0.5634
  401MOL0     C52857   8.658  -0.082  10.440 -0.3202 -0.0426 -0.3230
  401MOL0     O52858   8.768  -0.149  10.481  0.6956 -0.4283  0.4894
  401MOL0     C52859   8.875  -0.059  10.471 -0.0477 -0.1793  1.0579
  401MOL0     C52860   8.991  -0.131  10.535 -0.0773  0.7429 -0.0025
  401MOL0     C52861   9.002  -0.133  10.688  0.6166 -0.1401  0.0501
  401MOL0     C52862   8.871  -0.137  10.773 -1.0818  0.6407  0.1130
  401MOL0     C52863   8.887  -0.146  10.923 -1.0630  0.5220  0.3100
  401MOL0     C52864   8.910  -0.170  11.045 -0.5966 -0.9444  0.3762
  401MOL0     C52865   8.616  -0.077  10.312  0.0850  0.0230  0.6354
  401MOL0     C52866   8.493  -0.025  10.272  0.0810  0.3642  0.3243
  401MOL0     H52867   8.203   0.121   9.974  0.0189  0.9903  1.9231
  401MOL0     H52868   7.995   0.178   9.851 -0.2183 -1.2912 -0.8201
  401MOL0     H52869   7.843   0.316   9.828  2.2776 -3.4865  2.5737
  401MOL0     H52870   7.781   0.418   9.958 -0.8459  1.4059 -2.4002
  401MOL0     H52871   7.619   0.261   9.763  0.1223 -0.5690  0.7842
  401MOL0     H52872   7.659   0.431   9.727  1.1572 -1.3508 -1.1519
  401MOL0     H52873   7.539   0.520   9.925 -0.3818  0.4279  0.0251
  401MOL0     H52874   7.497   0.369   9.985  1.1916  2.0751  1.6542
  401MOL0     H52875   7.402   0.460   9.696  2.1463  0.7471  0.0415
  401MOL0     H52876   7.362   0.313   9.761 -1.6878 -0.7206  2.9953
  401MOL0     H52877   7.287   0.592   9.853  1.0515 -0.0166  0.8327
  401MOL0     H52878   7.268   0.479   9.974  0.2454  0.7104 -0.3662
  401MOL0     H52879   7.121   0.332   9.836  1.1049 -0.8704  0.4786
  401MOL0     H52880   7.151   0.440   9.696 -2.0022  3.1836  1.1733
  401MOL0     H52881   7.018   0.534   9.950  1.6448 -0.2037  0.4171
  401MOL0     H52882   7.055   0.624   9.805  1.1284  0.5170  0.8199
  401MOL0     H52883   6.862   0.378   9.814 -2.1330  0.8645 -1.1774
  401MOL0     H52884   6.903   0.496   9.679  1.1055  0.2285 -1.2284
  401MOL0     H52885   6.730   0.492  10.042 -1.3866 -0.9780 -0.5532
  401MOL0     H52886   6.547   0.642  10.153  0.0541  2.1749  0.7680
  401MOL0     H52887   6.426   0.685  10.042  0.8876 -0.4354 -0.6142
  401MOL0     H52888   6.512   0.914  10.028  1.2696  3.2632  1.8639
  401MOL0     H52889   6.654   0.868  10.141 -0.8725  1.5287  2.2642
  401MOL0     H52890   6.523   0.807  10.327  1.3204 -0.8410 -0.2826
  401MOL0     H52891   6.506   0.976  10.280  0.5918 -0.5789 -0.4828
  401MOL0     H52892   6.304   0.924  10.314  0.2628  2.8749 -1.0879
  401MOL0     H52893   6.296   0.758  10.240  3.9496 -1.6118  1.0206
  401MOL0     H52894   6.182   1.045   9.914 -1.2307  4.6649 -0.5365
  401MOL0     H52895   5.953   1.117   9.881 -0.4469  2.8336  1.5940
  401MOL0     H52896   5.591   1.332  10.080 -0.9125 -1.8021 -2.2406
  401MOL0     H52897   5.361   1.421  10.103 -2.8336 -0.5355  0.2947
  401MOL0     H52898   4.994   1.337  10.267  0.1914 -0.1852  0.2861
  401MOL0     H52899   5.064   1.176  10.314 -0.7832  2.6717  3.2137
  401MOL0     H52900   5.022   1.104  10.072 -0.5667 -0.4509 -1.5269
  401MOL0     H52901   4.935   1.248  10.032  0.5548 -0.1555 -0.1211
  401MOL0     H52902   4.785   1.177  10.214  0.0791  1.5795 -1.6227
  401MOL0     H52903   4.876   1.020  10.209 -0.8103  0.2226 -0.1450
  401MOL0     H52904   4.707   1.178  10.007 -2.4840  0.1065  3.8580
  401MOL0     H52905   4.795   1.060   9.944  3.2604 -0.3928  0.7442
  401MOL0     H52906   4.669   0.882  10.097 -0.5662 -1.1371  0.5510
  401MOL0     H52907   4.573   0.988   9.990 -0.5888  2.3337  1.2503
  401MOL0     H52908   4.603   1.001  10.293  1.3227  0.2178 -0.7895
  401MOL0     H52909   4.464   0.936  10.214  0.6711 -0.1303 -0.1799
  401MOL0     H52910   4.543   1.205  10.258  0.7091 -0.0721 -0.0879
  401MOL0     H52911   4.430   1.165  10.111  0.3558 -0.3376 -0.0907
  401MOL0     H52912   4.305   1.231  10.328  1.1151  0.3807  0.7347
  401MOL0     H52913   4.373   1.084  10.403  1.0853  0.5007  0.2440
  401MOL0     H52914   5.222   1.062  10.259  2.9205 -2.2138  2.5269
  401MOL0     H52915   5.447   0.950  10.217  1.0257  0.2618  0.3089
  401MOL0     H52916   5.834   0.918  10.245 -1.4580 -0.1005 -0.8464
  401MOL0     H52917   6.067   0.833  10.278 -1.6745  1.2371  2.2606
  401MOL0     H52918   7.790   0.124  10.237 -1.1202 -3.6027 -0.8534
  401MOL0     H52919   7.999   0.051  10.336  1.2399  0.1874 -0.3448
  401MOL0     H52920   8.394   0.043  10.593 -3.1199 -0.9128 -1.6495
  401MOL0     H52921   8.612  -0.040  10.639  1.5004 -0.5401 -1.0695
  401MOL0     H52922   8.877   0.046  10.500  1.8430  0.6761 -1.6752
  401MOL0     H52923   8.907  -0.064  10.366 -1.6124 -1.7649  0.6153
  401MOL0     H52924   8.989  -0.232  10.493 -2.4289  1.1844 -1.1336
  401MOL0     H52925   9.069  -0.061  10.502 -1.9289  3.8346  1.6294
  401MOL0     H52926   9.053  -0.043  10.722 -1.6060  0.9990  0.5466
  401MOL0     H52927   9.069  -0.215  10.716  2.9199  0.4644 -3.1141
  401MOL0     H52928   8.821  -0.041  10.756  0.1897  0.9624 -2.2444
  401MOL0     H52929   8.807  -0.220  10.740 -0.6388 -0.3650  1.6936
  401MOL0     H52930   8.912  -0.185  11.151 -1.6617  0.3071  0.6027
  401MOL0     H52931   8.679  -0.116  10.233  0.2627  2.6891 -0.6664
  401MOL0     H52932   8.461  -0.029  10.168  0.2040 -0.0647  0.3005
  402MOL0     O52933   0.762   8.615   5.742 -0.9481 -0.4236  0.3980
  402MOL0     C52934   0.763   8.706   5.654  0.8008  0.3170  0.6991
  402MOL0     O52935   0.866   8.790   5.628  0.1335 -0.1082  0.7643
  402MOL0     C52936   0.983   8.776   5.698  0.4769 -0.3006 -0.3842
  402MOL0     C52937   1.043   8.903   5.741 -0.1032 -0.2377  0.1298
  402MOL0     C52938   1.165   8.909   5.801  0.6502  0.7966  0.4206
  402MOL0     C52939   1.227   8.788   5.834  0.3471 -0.5056 -0.4476
  402MOL0     O52940   1.333   8.796   5.923  0.1375 -0.4618 -0.9378
  402MOL0     C52941   1.464   8.759   5.889 -0.1857  0.1820 -0.1381
  402MOL0     C52942   1.551   8.797   6.011 -0.7107 -0.1907  0.2040
  402MOL0     C52943   1.686   8.739   5.981  0.1892 -0.9923 -0.6392
  402MOL0     C52944   1.774   8.753   6.103 -0.4783  0.4294 -0.4603
  402MOL0     C52945   1.911   8.692   6.082 -0.4372 -1.0705  0.3485
  402MOL0     C52946   1.984   8.720   5.945  0.7536  0.3512 -0.7017
  402MOL0     C52947   2.136   8.701   5.945 -0.5021 -0.1811  0.9508
  402MOL0     C52948   2.184   8.552   5.938  0.6546 -0.3304  0.1599
  402MOL0     N52949   2.145   8.491   5.815  0.2711 -0.0993 -0.0066
  402MOL0     C52950   2.228   8.474   5.705  0.1775 -0.2867  0.4796
  402MOL0     C52951   2.163   8.380   5.619 -0.9303  0.2192  0.2939
  402MOL0     C52952   2.237   8.348   5.489 -0.0358  0.3879 -0.5968
  402MOL0     C52953   2.159   8.394   5.367 -0.6487  0.3203 -0.0396
  402MOL0     C52954   2.153   8.551   5.359 -1.2662 -0.7032  1.0644
  402MOL0     C52955   2.102   8.605   5.225 -0.3360  0.4799  1.1608
  402MOL0     O52956   1.957   8.606   5.240 -0.1076  0.5754 -0.4390
  402MOL0     C52957   1.870   8.632   5.138 -0.2097  0.1199  0.1703
  402MOL0     C52958   1.905   8.639   5.002 -0.3019  0.0248  0.3393
  402MOL0     C52959   1.804   8.646   4.905 -0.2435 -0.4775  0.4465
  402MOL0     C52960   1.670   8.659   4.932  0.4258 -0.4788  0.6010
  402MOL0     C52961   1.565   8.680   4.833  0.0940 -0.7547  0.2458
  402MOL0     O52962   1.599   8.740   4.711 -0.2638 -0.2134  0.0908
  402MOL0     C52963   1.490   8.767   4.632 -0.3270 -0.0175 -0.4715
  402MOL0     C52964   1.477   8.703   4.506  0.8770 -0.8524  0.0099
  402MOL0     C52965   1.356   8.722   4.435 -0.3566 -0.2602  0.0570
  402MOL0     C52966   1.258   8.825   4.471 -0.5057  0.1692 -0.1074
  402MOL0     O52967   1.132   8.822   4.405 -0.1954 -0.5665  0.0698
  402MOL0     C52968   1.034   8.916   4.431  0.6216 -0.8636  0.8447
  402MOL0     C52969   0.976   8.962   4.297 -0.5730  0.0762  0.2123
  402MOL0     C52970   0.863   9.062   4.295 -0.6999  0.9726  1.0159
  402MOL0     C52971   0.851   9.131   4.160 -0.8459  1.1958  0.9064
  402MOL0     C52972   0.710   9.196   4.135  0.0277 -0.0370  0.2222
  402MOL0     C52973   0.634   9.263   4.252  0.5919 -0.4269 -0.3826
  402MOL0     C52974   0.501   9.309   4.214  0.3382 -0.7300 -0.4732
  402MOL0     C52975   0.422   9.394   4.318 -0.2158 -0.4911 -1.2545
  402MOL0    Cl52976   0.380   9.289   4.458 -0.3016 -0.4976 -0.5211
  402MOL0     C52977   1.281   8.890   4.589  0.5234  0.6515  0.4630
  402MOL0     C52978   1.398   8.869   4.662 -0.4072 -0.5081 -0.2910
  402MOL0     O52979   1.453   8.659   4.866  0.4463  0.6288 -0.3930
  402MOL0     C52980   1.634   8.649   5.069  0.4099 -0.1013  0.3513
  402MOL0     C52981   1.732   8.635   5.164 -0.6264 -0.8421  0.2274
  402MOL0     N52982   2.048   8.342   5.687 -0.4933  0.2832 -0.3578
  402MOL0     N52983   2.035   8.408   5.798  0.0153 -0.7704 -0.6239
  402MOL0     C52984   1.175   8.665   5.790 -0.0370 -0.0876 -0.3886
  402MOL0     C52985   1.053   8.655   5.725  0.1872 -0.8890  0.2647
  402MOL0     C52986   0.635   8.741   5.586 -0.6836  0.3358  0.1308
  402MOL0     C52987   0.628   8.864   5.520 -0.8713  0.9343  0.0409
  402MOL0     C52988   0.525   8.909   5.447 -0.4295  0.1848 -0.1953
  402MOL0     C52989   0.424   8.821   5.427  0.2998  0.5249 -0.1983
  402MOL0     O52990   0.324   8.846   5.348  0.8090  0.0249  0.9146
  402MOL0     C52991   0.300   8.966   5.270 -0.6947  1.2475  1.1567
  402MOL0     C52992   0.206   8.950   5.152  0.4602  0.1135  0.1291
  402MOL0     C52993   0.061   8.979   5.197 -0.3199 -0.6342 -0.3988
  402MOL0     C52994  -0.059   8.951   5.101 -0.5006  0.3936  0.8293
  402MOL0     C52995  -0.075   9.030   4.979  0.2890 -0.7538  0.7829
  402MOL0     C52996  -0.082   9.092   4.876 -0.4919  0.1373 -0.4998
  402MOL0     C52997   0.416   8.700   5.494 -0.2412 -0.1371  1.3157
  402MOL0     C52998   0.518   8.663   5.586 -0.3303  1.3480  0.1524
  402MOL0     H52999   0.997   9.001   5.739 -1.1178 -0.5195  3.5528
  402MOL0     H53000   1.192   9.007   5.838  1.6656  0.4653  0.5709
  402MOL0     H53001   1.510   8.817   5.808  3.1037 -1.8966  0.0516
  402MOL0     H53002   1.462   8.653   5.862 -3.2319  0.3284 -0.8069
  402MOL0     H53003   1.515   8.749   6.102 -0.9177 -0.5764 -0.0812
  402MOL0     H53004   1.551   8.907   6.017 -2.0847 -0.1847  0.3924
  402MOL0     H53005   1.722   8.785   5.888 -3.5188 -0.1213 -1.8352
  402MOL0     H53006   1.670   8.633   5.963  0.6748 -1.1399 -0.2292
  402MOL0     H53007   1.769   8.858   6.134 -0.3624  1.1912 -2.7736
  402MOL0     H53008   1.731   8.692   6.183  0.5764  0.4749  0.1491
  402MOL0     H53009   1.917   8.584   6.096 -1.3791 -1.0941  0.6209
  402MOL0     H53010   1.966   8.743   6.162 -1.2255  1.8489 -0.8428
  402MOL0     H53011   1.972   8.826   5.918 -0.2585  0.7484  1.1557
  402MOL0     H53012   1.935   8.666   5.862  4.2975 -0.6167 -2.3509
  402MOL0     H53013   2.170   8.762   5.861 -2.5110 -2.7144 -1.9167
  402MOL0     H53014   2.180   8.756   6.029  1.7572 -0.0195 -0.2479
  402MOL0     H53015   2.139   8.503   6.024 -1.2705 -3.9857 -2.6497
  402MOL0     H53016   2.291   8.534   5.955  0.3153 -3.3748 -0.3777
  402MOL0     H53017   2.327   8.513   5.686  0.0680  0.4710  1.3725
  402MOL0     H53018   2.245   8.239   5.487  0.8810  0.4381 -0.1116
  402MOL0     H53019   2.333   8.400   5.482 -1.2404  2.5369 -3.5334
  402MOL0     H53020   2.058   8.353   5.372  0.0424 -2.1165 -3.0654
  402MOL0     H53021   2.209   8.355   5.278 -0.1970  2.3434 -0.7315
  402MOL0     H53022   2.091   8.590   5.441  0.0990  0.3641  1.6121
  402MOL0     H53023   2.245   8.609   5.363 -2.3422  1.9438 -3.9578
  402MOL0     H53024   2.140   8.545   5.141 -1.0124  1.5102  0.0816
  402MOL0     H53025   2.122   8.712   5.213 -1.3330  0.3984 -2.4234
  402MOL0     H53026   2.008   8.645   4.970 -1.2516  2.3552 -2.7554
  402MOL0     H53027   1.830   8.641   4.799 -0.3244  1.1952  0.3210
  402MOL0     H53028   1.565   8.650   4.471  2.2899 -0.6717  2.9656
  402MOL0     H53029   1.334   8.667   4.344  1.4445 -0.9950  0.0187
  402MOL0     H53030   1.063   9.005   4.487  0.4515 -0.0177 -0.3608
  402MOL0     H53031   0.956   8.868   4.490 -1.0458 -2.2825 -2.2718
  402MOL0     H53032   0.938   8.876   4.240  0.8771 -0.5176  0.0954
  402MOL0     H53033   1.065   9.002   4.247 -1.4380 -0.0282 -1.4925
  402MOL0     H53034   0.880   9.137   4.373 -1.4366 -0.3772  2.5401
  402MOL0     H53035   0.766   9.014   4.307 -0.3829 -0.2672 -0.8460
  402MOL0     H53036   0.930   9.207   4.152 -1.6783  1.8855 -1.6779
  402MOL0     H53037   0.873   9.072   4.071 -2.0867  1.4838  0.3847
  402MOL0     H53038   0.643   9.125   4.085 -1.8465 -0.6999  3.4314
  402MOL0     H53039   0.729   9.274   4.060  2.9115  0.4862  1.3934
  402MOL0     H53040   0.687   9.354   4.280 -2.2074  2.4463 -3.4355
  402MOL0     H53041   0.631   9.201   4.342  1.3568 -0.7721 -0.5930
  402MOL0     H53042   0.503   9.361   4.118 -3.9570 -0.1929 -0.4684
  402MOL0     H53043   0.433   9.229   4.182 -1.9034  0.4494  1.0821
  402MOL0     H53044   0.330   9.438   4.278 -0.0362  1.9024  0.7212
  402MOL0     H53045   0.486   9.478   4.348  0.3843 -0.5634 -2.2733
  402MOL0     H53046   1.214   8.968   4.622 -0.4749  0.7815 -1.6813
  402MOL0     H53047   1.406   8.924   4.755 -0.2695  0.9273 -1.1102
  402MOL0     H53048   1.531   8.654   5.103  0.0168 -0.7782 -0.6828
  402MOL0     H53049   1.694   8.634   5.266 -0.1839  1.2889  0.4548
  402MOL0     H53050   1.227   8.571   5.802 -0.4382 -0.3922 -1.0156
  402MOL0     H53051   1.017   8.558   5.693  0.2259 -0.6255 -0.6068
  402MOL0     H53052   0.697   8.947   5.532 -0.4236  0.6996 -0.8514
  402MOL0     H53053   0.527   9.004   5.395 -1.2246 -1.0031 -2.5816
  402MOL0     H53054   0.396   8.986   5.221  1.0599 -3.2996  2.2709
  402MOL0     H53055   0.268   9.054   5.328 -2.5428  0.4272  1.4322
  402MOL0     H53056   0.234   9.020   5.073 -0.5652 -0.4461 -0.7495
  402MOL0     H53057   0.212   8.851   5.107 -2.5622  1.7196 -4.6192
  402MOL0     H53058   0.067   9.085   5.224  1.2219 -1.2839  2.1480
  402MOL0     H53059   0.049   8.926   5.292 -2.3132  2.1225  1.0271
  402MOL0     H53060  -0.057   8.848   5.063 -1.0048  0.0513  1.7131
  402MOL0     H53061  -0.142   8.968   5.169 -1.2856 -0.1787  0.0319
  402MOL0     H53062  -0.085   9.139   4.780  0.7446  1.6428  0.1422
  402MOL0     H53063   0.330   8.642   5.462 -1.2350  2.0306 -0.2032
  402MOL0     H53064   0.522   8.578   5.654  2.0358  1.0792 -0.2180
  403MOL0     O53065   2.080  10.848   2.225  0.2160 -0.4515 -0.0796
  403MOL0     C53066   2.101  10.913   2.123 -0.3703 -0.7484  0.3608
  403MOL0     O53067   2.013  10.981   2.051 -0.1166 -0.6796 -0.0503
  403MOL0     C53068   1.883  10.994   2.084 -0.2789  0.3327 -0.3529
  403MOL0     C53069   1.825  11.102   2.159  0.1026 -0.5986  0.5724
  403MOL0     C53070   1.692  11.077   2.216 -0.4762 -0.7194 -0.2683
  403MOL0     C53071   1.615  10.973   2.181 -0.0666 -0.0856 -0.3712
  403MOL0     O53072   1.481  10.983   2.219  0.0007 -0.2417 -0.3280
  403MOL0     C53073   1.382  10.891   2.167  0.1449  0.6546  0.1361
  403MOL0     C53074   1.260  10.910   2.253 -0.1796  0.8710  0.1227
  403MOL0     C53075   1.126  10.873   2.171  0.2242  0.5775  0.1058
  403MOL0     C53076   0.996  10.857   2.262 -0.7083  0.3529  0.3295
  403MOL0     C53077   0.859  10.845   2.194  0.4309 -0.5011  0.1382
  403MOL0     C53078   0.796  10.989   2.163 -0.1805  0.1919 -0.8922
  403MOL0     C53079   0.658  10.981   2.110 -0.3972 -0.4897 -0.3223
  403MOL0     C53080   0.585  11.120   2.107  0.0811 -0.0631 -0.0410
  403MOL0     N53081   0.443  11.104   2.091 -0.1270 -0.2225  0.2935
  403MOL0     C53082   0.370  11.025   2.162 -0.4018 -0.8906 -0.7277
  403MOL0     C53083   0.256  11.006   2.089 -0.5419 -0.9398  0.4163
  403MOL0     C53084   0.133  10.927   2.137 -0.1508  0.7304 -0.2216
  403MOL0     C53085  -0.007  10.973   2.086  0.0919 -0.3805 -0.6739
  403MOL0     C53086  -0.119  10.872   2.126  0.4065  0.2636  0.0389
  403MOL0     C53087  -0.255  10.937   2.086 -0.5552 -0.5180  0.4199
  403MOL0     O53088  -0.372  10.845   2.113 -0.3146 -0.0160 -0.1411
  403MOL0     C53089  -0.490  10.879   2.062 -0.1053  0.3215 -0.1748
  403MOL0     C53090  -0.591  10.798   2.099 -0.0558 -0.3952 -0.1247
  403MOL0     C53091  -0.719  10.821   2.053 -1.0249 -0.0035  0.3894
  403MOL0     C53092  -0.748  10.938   1.975 -0.2729 -0.4018 -0.0267
  403MOL0     C53093  -0.882  10.980   1.933  0.0610  0.2732  0.3071
  403MOL0     O53094  -0.904  11.113   1.913 -0.4361 -0.6540 -0.0601
  403MOL0     C53095  -1.036  11.148   1.900  0.3926 -0.4681 -0.1113
  403MOL0     C53096  -1.085  11.149   1.768 -0.4573 -0.1685  0.0770
  403MOL0     C53097  -1.216  11.188   1.742 -0.7796  0.1771  0.6486
  403MOL0     C53098  -1.302  11.216   1.844  0.1232 -0.2398 -0.0784
  403MOL0     O53099  -1.435  11.260   1.833  0.2473 -0.4417  0.2345
  403MOL0     C53100  -1.531  11.162   1.784 -0.2544  0.2058  0.5747
  403MOL0     C53101  -1.666  11.217   1.764  0.1939  0.0772  0.1998
  403MOL0     C53102  -1.753  11.123   1.685  0.3653  0.1379 -0.2963
  403MOL0     C53103  -1.904  11.167   1.670 -0.2803  0.4406  0.3796
  403MOL0     C53104  -1.986  11.072   1.584 -0.4626  0.0547 -0.1712
  403MOL0     C53105  -2.123  11.142   1.568 -1.0582 -0.2000 -0.1302
  403MOL0     C53106  -2.229  11.060   1.495 -0.4493  0.3445  0.8436
  403MOL0     C53107  -2.348  11.149   1.448  0.4858 -0.1220  0.2281
  403MOL0    Cl53108  -2.302  11.273   1.330 -0.0047 -0.6512 -0.6477
  403MOL0     C53109  -1.259  11.202   1.977 -0.0632  1.2483  0.0010
  403MOL0     C53110  -1.126  11.165   2.009  0.5494 -0.7882 -0.2868
  403MOL0     O53111  -0.974  10.893   1.935 -0.6711  0.1623  0.2853
  403MOL0     C53112  -0.643  11.014   1.938 -0.5117  0.0305  0.0646
  403MOL0     C53113  -0.513  10.983   1.978 -0.4205 -0.0177 -0.1638
  403MOL0     N53114   0.260  11.074   1.974 -0.5619 -0.3222  0.1607
  403MOL0     N53115   0.377  11.129   1.969  0.7375 -0.0113  0.1905
  403MOL0     C53116   1.670  10.868   2.111  0.2265 -0.2135  0.5645
  403MOL0     C53117   1.802  10.880   2.062  0.0856  0.2479 -0.3855
  403MOL0     C53118   2.239  10.907   2.074  0.3179  0.3954 -0.6416
  403MOL0     C53119   2.263  10.921   1.938 -0.7401 -0.1659  0.0590
  403MOL0     C53120   2.395  10.922   1.895 -0.2227 -0.2559  0.0904
  403MOL0     C53121   2.499  10.905   1.985 -0.2580 -0.6569  0.4107
  403MOL0     O53122   2.630  10.904   1.953 -0.1053  0.1479  0.5350
  403MOL0     C53123   2.683  10.868   1.820  0.3163  0.0736  0.2733
  403MOL0     C53124   2.836  10.892   1.835  1.0285 -0.5420  0.6205
  403MOL0     C53125   2.863  11.041   1.857 -0.6608  0.1246  0.7398
  403MOL0     C53126   3.015  11.065   1.868  0.2000  0.0676  0.1098
  403MOL0     C53127   3.077  10.965   1.962  0.3852  0.0617 -0.0133
  403MOL0     C53128   3.121  10.869   2.024 -1.3550  0.3261  0.5455
  403MOL0     C53129   2.474  10.879   2.121  0.0666  0.6429  0.4749
  403MOL0     C53130   2.338  10.882   2.167 -0.6408  0.5769 -0.1770
  403MOL0     H53131   1.878  11.192   2.190  1.1852 -0.9701 -0.1407
  403MOL0     H53132   1.647  11.159   2.271  2.6907 -0.3056  2.0158
  403MOL0     H53133   1.419  10.788   2.170 -0.4428  0.4475  0.4763
  403MOL0     H53134   1.353  10.919   2.066  0.8435  0.6922 -0.0576
  403MOL0     H53135   1.247  11.008   2.299  0.2406 -0.3768  3.2167
  403MOL0     H53136   1.267  10.839   2.337  0.7492  0.6612 -0.1208
  403MOL0     H53137   1.152  10.776   2.126  0.6003  0.3279  0.8457
  403MOL0     H53138   1.112  10.941   2.087 -2.7440 -1.5586 -1.3519
  403MOL0     H53139   1.007  10.766   2.322  1.2973  1.6550  2.0291
  403MOL0     H53140   1.007  10.946   2.323  0.8178  1.3564 -1.3123
  403MOL0     H53141   0.793  10.785   2.257  1.5486 -1.6850  0.2185
  403MOL0     H53142   0.867  10.781   2.106  1.4867  2.5840 -2.2135
  403MOL0     H53143   0.855  11.038   2.085  0.5607 -1.2380 -1.2713
  403MOL0     H53144   0.795  11.050   2.253 -0.9481 -2.2327  0.8670
  403MOL0     H53145   0.663  10.937   2.010  0.7745 -0.1407 -0.4273
  403MOL0     H53146   0.610  10.906   2.174 -1.2945 -0.0681 -0.4769
  403MOL0     H53147   0.628  11.185   2.030  0.1862 -0.0563  0.0226
  403MOL0     H53148   0.606  11.176   2.199  0.4448 -2.8470  1.6923
  403MOL0     H53149   0.402  10.972   2.251 -5.2364 -4.3351 -0.6084
  403MOL0     H53150   0.134  10.936   2.246  1.1349  0.2925 -0.1696
  403MOL0     H53151   0.142  10.823   2.105 -0.4105  0.8908 -0.8277
  403MOL0     H53152   0.001  10.964   1.977  2.2782 -1.6052 -0.4879
  403MOL0     H53153  -0.037  11.074   2.115  3.0681 -0.0920  1.9867
  403MOL0     H53154  -0.104  10.780   2.068  2.6596  2.0027 -2.3598
  403MOL0     H53155  -0.114  10.833   2.228  3.0543  1.1783  0.3402
  403MOL0     H53156  -0.250  10.968   1.981 -0.9848 -1.8357 -0.0129
  403MOL0     H53157  -0.261  11.035   2.134  2.9648 -0.6628  1.3965
  403MOL0     H53158  -0.571  10.716   2.167  1.9755  1.8836  2.2883
  403MOL0     H53159  -0.808  10.766   2.085 -1.9883  0.7083 -0.9563
  403MOL0     H53160  -1.010  11.140   1.690  0.0978 -0.0660  0.5926
  403MOL0     H53161  -1.253  11.208   1.642 -0.2710 -2.5538 -0.1893
  403MOL0     H53162  -1.543  11.076   1.851 -3.2752 -0.0954 -0.2206
  403MOL0     H53163  -1.492  11.114   1.694 -1.1069 -0.2639  0.4461
  403MOL0     H53164  -1.659  11.309   1.705 -2.6916  1.4511  1.8162
  403MOL0     H53165  -1.716  11.236   1.859  0.0915 -0.1640  0.1952
  403MOL0     H53166  -1.753  11.030   1.743 -0.9932  0.9064  0.9986
  403MOL0     H53167  -1.709  11.091   1.589 -1.0775 -0.9759 -0.6306
  403MOL0     H53168  -1.959  11.195   1.761 -1.2367  1.6690 -0.5251
  403MOL0     H53169  -1.886  11.254   1.606  5.3398 -1.4837 -1.2346
  403MOL0     H53170  -1.995  10.978   1.640 -4.0180  0.5153  0.2514
  403MOL0     H53171  -1.936  11.051   1.489 -1.6027  0.6668 -0.9320
  403MOL0     H53172  -2.118  11.237   1.514 -0.8642 -0.7383 -1.0881
  403MOL0     H53173  -2.157  11.164   1.670 -4.9748 -2.8393 -0.6468
  403MOL0     H53174  -2.194  11.021   1.399  2.1624  1.3912  1.2831
  403MOL0     H53175  -2.263  10.976   1.556  1.6449  1.0716  3.1886
  403MOL0     H53176  -2.382  11.187   1.545  0.8127 -5.0067  2.5502
  403MOL0     H53177  -2.434  11.095   1.407  0.6782  0.3474 -0.7997
  403MOL0     H53178  -1.322  11.226   2.062  2.5961 -0.1965  2.5984
  403MOL0     H53179  -1.091  11.173   2.111  2.2708  1.8820 -0.9498
  403MOL0     H53180  -0.651  11.096   1.867  1.8707 -1.4429 -2.0827
  403MOL0     H53181  -0.434  11.049   1.945 -0.3796 -0.8313 -1.7871
  403MOL0     H53182   1.616  10.777   2.086  1.9226 -1.7896  2.3134
  403MOL0     H53183   1.832  10.794   2.003  0.1572 -0.3274  0.4698
  403MOL0     H53184   2.179  10.947   1.874 -2.3448 -2.0566  1.2775
  403MOL0     H53185   2.420  10.926   1.789 -1.4974 -0.8365 -0.2441
  403MOL0     H53186   2.631  10.929   1.746  1.3514  0.6654  0.0049
  403MOL0     H53187   2.652  10.767   1.796  0.6730 -0.2454  1.1072
  403MOL0     H53188   2.872  10.834   1.920 -0.0224 -1.2666  0.5854
  403MOL0     H53189   2.883  10.847   1.746 -1.1895  2.1239 -2.0860
  403MOL0     H53190   2.818  11.067   1.954 -3.5369 -0.2002 -0.3979
  403MOL0     H53191   2.827  11.102   1.774  1.6972 -0.1080 -0.5292
  403MOL0     H53192   3.076  11.046   1.779 -1.0543 -6.7667  0.2008
  403MOL0     H53193   3.027  11.165   1.911  0.9919 -0.8240  2.0951
  403MOL0     H53194   3.178  10.793   2.074  1.2446  1.1015 -1.0520
  403MOL0     H53195   2.555  10.874   2.193  2.1793 -0.7992 -1.8647
  403MOL0     H53196   2.313  10.855   2.269  5.0081 -2.3056  0.8237
  404MOL0     O53197   4.505   0.662   2.593 -0.2730  0.9745 -0.0141
  404MOL0     C53198   4.554   0.599   2.677 -0.0493  0.0766 -0.4821
  404MOL0     O53199   4.485   0.555   2.783 -0.5208  0.4334  0.7482
  404MOL0     C53200   4.358   0.603   2.783 -0.5125  0.4986  0.7687
  404MOL0     C53201   4.252   0.536   2.722 -0.0826 -0.1679 -0.9980
  404MOL0     C53202   4.121   0.589   2.729 -0.0557  0.0305 -0.5731
  404MOL0     C53203   4.092   0.712   2.782 -0.2134  0.2400 -0.8957
  404MOL0     O53204   3.962   0.756   2.767  0.0801  0.0866 -0.5138
  404MOL0     C53205   3.866   0.764   2.877  0.9604 -0.4666  0.0454
  404MOL0     C53206   3.751   0.677   2.845 -0.2150  0.0393 -0.8530
  404MOL0     C53207   3.656   0.752   2.751 -0.5504  0.2192 -0.5606
  404MOL0     C53208   3.528   0.673   2.744  0.3589  0.9527  0.3311
  404MOL0     C53209   3.435   0.725   2.633 -0.1338  0.5352  0.8909
  404MOL0     C53210   3.359   0.853   2.672 -0.2202  0.0199  0.6763
  404MOL0     C53211   3.253   0.890   2.564 -0.1376  0.3321  0.6810
  404MOL0     C53212   3.213   1.037   2.560 -0.0596 -0.4130 -0.0218
  404MOL0     N53213   3.109   1.059   2.466 -0.9957 -0.2641 -0.1186
  404MOL0     C53214   2.980   1.031   2.486 -0.6050  0.2585  0.8476
  404MOL0     C53215   2.919   1.089   2.379  0.5034 -0.4334  0.2542
  404MOL0     C53216   2.772   1.083   2.364  0.8127 -0.1065 -0.0084
  404MOL0     C53217   2.716   1.221   2.402  0.0753 -0.3354  1.1102
  404MOL0     C53218   2.569   1.238   2.372  0.8032 -0.6593  1.2049
  404MOL0     C53219   2.471   1.136   2.443 -0.0617  0.0186 -0.1141
  404MOL0     O53220   2.518   1.113   2.573 -0.5021 -0.2575  0.0973
  404MOL0     C53221   2.488   1.004   2.649  0.2908  0.6716  0.4062
  404MOL0     C53222   2.387   0.917   2.608  0.7532 -0.8343  0.2008
  404MOL0     C53223   2.368   0.790   2.661  0.2283  0.0887  0.4680
  404MOL0     C53224   2.468   0.739   2.748 -0.8892  0.5900 -0.6519
  404MOL0     C53225   2.459   0.590   2.794  0.2955  0.1082  0.3987
  404MOL0     O53226   2.542   0.541   2.892 -0.0863 -0.2814 -0.2831
  404MOL0     C53227   2.489   0.440   2.966  0.2279  0.4666  0.0858
  404MOL0     C53228   2.462   0.464   3.104  0.0471 -0.2596  0.7906
  404MOL0     C53229   2.383   0.375   3.182 -0.1353  0.0178  0.7604
  404MOL0     C53230   2.354   0.242   3.127 -0.2576 -0.5069  0.8300
  404MOL0     O53231   2.301   0.149   3.212  0.2212  0.1523 -0.2504
  404MOL0     C53232   2.216   0.053   3.153 -0.1172 -1.2008  0.0108
  404MOL0     C53233   2.175  -0.041   3.266 -1.1073  0.5924  0.1263
  404MOL0     C53234   2.065  -0.003   3.373  0.4157  0.4592  0.0879
  404MOL0     C53235   2.089  -0.107   3.487  0.0857 -0.5474 -0.3996
  404MOL0     C53236   2.000  -0.093   3.610  0.2600  0.1788  0.3351
  404MOL0     C53237   1.856  -0.047   3.580 -0.3959 -0.1264 -0.2792
  404MOL0     C53238   1.775  -0.160   3.528 -0.3113  1.0051  0.1146
  404MOL0     C53239   1.638  -0.108   3.498 -0.2119  0.9579  0.4105
  404MOL0    Cl53240   1.537  -0.247   3.459 -0.0888 -0.1106 -0.4082
  404MOL0     C53241   2.400   0.212   3.000 -0.5338 -0.0688  1.1397
  404MOL0     C53242   2.461   0.314   2.920 -0.1435 -0.0360 -0.6455
  404MOL0     O53243   2.368   0.522   2.745  0.7768 -0.6262 -0.4821
  404MOL0     C53244   2.564   0.831   2.799 -0.0210  0.1941 -0.1466
  404MOL0     C53245   2.570   0.967   2.755 -0.6977  0.6913  0.5538
  404MOL0     N53246   3.009   1.147   2.291  0.9880  0.2804  0.6437
  404MOL0     N53247   3.127   1.118   2.341 -0.2437 -0.3420  0.1022
  404MOL0     C53248   4.194   0.769   2.861 -0.4939 -0.9211  1.0688
  404MOL0     C53249   4.331   0.726   2.856 -0.5643 -0.0765  0.1478
  404MOL0     C53250   4.704   0.586   2.685  0.3099 -0.2203  0.3670
  404MOL0     C53251   4.783   0.590   2.571 -0.3887  0.3333 -0.4044
  404MOL0     C53252   4.921   0.563   2.573 -0.3865  0.7611 -0.0473
  404MOL0     C53253   4.990   0.554   2.695  0.4891 -0.2221  0.5216
  404MOL0     O53254   5.128   0.535   2.690  0.7362 -0.0377  0.7267
  404MOL0     C53255   5.210   0.556   2.804 -0.3075 -0.8527 -0.8177
  404MOL0     C53256   5.245   0.420   2.873 -0.5497 -0.5037  0.0857
  404MOL0     C53257   5.386   0.376   2.878  0.0803 -0.7562  0.9270
  404MOL0     C53258   5.464   0.403   2.752  0.6540 -0.0624 -0.1193
  404MOL0     C53259   5.607   0.370   2.768  1.1761 -1.0732  0.3295
  404MOL0     C53260   5.726   0.336   2.778  0.5539  0.4872 -0.2058
  404MOL0     C53261   4.910   0.532   2.806  0.1019 -0.2862 -0.1464
  404MOL0     C53262   4.774   0.558   2.802  0.1377  0.1078 -0.0554
  404MOL0     H53263   4.268   0.443   2.669  0.5637 -0.3803 -0.4548
  404MOL0     H53264   4.043   0.526   2.688  0.0679 -1.1042  0.8426
  404MOL0     H53265   3.827   0.865   2.894 -1.7403 -0.8928 -2.8394
  404MOL0     H53266   3.924   0.732   2.964  4.4429 -0.3716 -2.0382
  404MOL0     H53267   3.693   0.646   2.932 -2.1093  3.4999 -0.6892
  404MOL0     H53268   3.786   0.585   2.796 -0.1551 -0.3895 -0.0117
  404MOL0     H53269   3.696   0.766   2.650 -2.6586 -1.7942 -1.7583
  404MOL0     H53270   3.633   0.852   2.790  0.0011  0.3557 -0.5724
  404MOL0     H53271   3.560   0.573   2.711  0.4631  0.9445  0.4558
  404MOL0     H53272   3.481   0.671   2.843  1.8367 -2.0375  1.1092
  404MOL0     H53273   3.362   0.653   2.595 -1.1825  1.8988  0.2783
  404MOL0     H53274   3.497   0.746   2.546 -1.0379 -0.4757 -0.0324
  404MOL0     H53275   3.423   0.941   2.688 -1.3447  0.9207  0.3136
  404MOL0     H53276   3.305   0.834   2.765 -1.7658  0.4717 -0.0954
  404MOL0     H53277   3.288   0.861   2.465 -0.6434  0.6891  0.3934
  404MOL0     H53278   3.165   0.828   2.583 -1.3587  0.7999 -2.7180
  404MOL0     H53279   3.291   1.109   2.534 -0.7820 -0.1281 -1.4848
  404MOL0     H53280   3.180   1.058   2.662  0.0043 -1.3982  0.2172
  404MOL0     H53281   2.921   0.988   2.567 -1.4320 -0.9016 -0.3143
  404MOL0     H53282   2.719   1.002   2.415 -1.3771 -0.9400 -3.2542
  404MOL0     H53283   2.748   1.071   2.258 -1.0404  1.8338  0.1068
  404MOL0     H53284   2.780   1.296   2.355  0.0095 -1.4258 -0.8561
  404MOL0     H53285   2.722   1.238   2.509  0.8910 -0.7749  1.1445
  404MOL0     H53286   2.538   1.336   2.409  0.6047 -1.2429  2.6190
  404MOL0     H53287   2.560   1.240   2.262  2.8379  1.0601  1.0119
  404MOL0     H53288   2.461   1.038   2.396  2.0630  0.6123 -1.9764
  404MOL0     H53289   2.369   1.175   2.440 -1.0770 -2.4361 -0.3089
  404MOL0     H53290   2.316   0.956   2.535  2.4627 -1.0053 -1.6375
  404MOL0     H53291   2.277   0.743   2.625 -1.1284  1.6562  1.6916
  404MOL0     H53292   2.495   0.553   3.156  0.9847  0.2868 -0.6684
  404MOL0     H53293   2.358   0.401   3.284  1.6512 -2.5827  1.9844
  404MOL0     H53294   2.268  -0.005   3.076  1.7419  1.7342 -1.0901
  404MOL0     H53295   2.131   0.103   3.105  0.8678  0.2910 -0.2321
  404MOL0     H53296   2.270  -0.068   3.314 -1.3883 -2.6286 -0.8812
  404MOL0     H53297   2.147  -0.136   3.220 -1.1776  0.9113 -0.5109
  404MOL0     H53298   1.965  -0.024   3.333  0.7015 -0.1778 -0.3171
  404MOL0     H53299   2.075   0.097   3.417 -1.1419  1.0121 -0.7283
  404MOL0     H53300   2.067  -0.204   3.441 -1.1227 -0.4400 -0.0730
  404MOL0     H53301   2.195  -0.110   3.511 -0.0605  0.3863  0.3700
  404MOL0     H53302   2.050  -0.025   3.679 -0.5939 -2.1969  3.5295
  404MOL0     H53303   1.991  -0.188   3.665 -0.1973 -0.6233 -1.0657
  404MOL0     H53304   1.846   0.038   3.511 -2.2030 -0.2933 -0.2806
  404MOL0     H53305   1.816  -0.002   3.671  1.2709  2.3513 -0.6794
  404MOL0     H53306   1.810  -0.200   3.432 -1.9751  2.1628 -1.0378
  404MOL0     H53307   1.767  -0.243   3.598  0.8700  1.0023  0.2699
  404MOL0     H53308   1.634  -0.038   3.415 -1.1523  0.0308 -0.3611
  404MOL0     H53309   1.595  -0.054   3.583  0.3146 -0.3224  1.5261
  404MOL0     H53310   2.391   0.122   2.939  1.3660  1.1859 -1.1649
  404MOL0     H53311   2.472   0.282   2.817  0.5644 -1.5929 -0.1139
  404MOL0     H53312   2.622   0.807   2.888 -0.1472  0.3843 -0.0119
  404MOL0     H53313   2.639   1.032   2.808 -1.8995  0.8643  1.9590
  404MOL0     H53314   4.178   0.863   2.914  2.5061 -1.6238  3.5332
  404MOL0     H53315   4.421   0.771   2.898  0.2171 -0.3995 -1.1351
  404MOL0     H53316   4.727   0.604   2.480  0.6201  2.0017 -0.8135
  404MOL0     H53317   4.981   0.553   2.482 -0.3001  2.7918 -0.2576
  404MOL0     H53318   5.163   0.625   2.874 -2.4181  0.0836 -3.0006
  404MOL0     H53319   5.301   0.607   2.769 -1.2034  2.5633  1.3536
  404MOL0     H53320   5.221   0.433   2.979 -2.5228  0.6464 -0.4436
  404MOL0     H53321   5.191   0.341   2.819  0.7252 -0.9420 -0.5848
  404MOL0     H53322   5.387   0.266   2.881 -2.9107 -0.9303 -0.6376
  404MOL0     H53323   5.436   0.421   2.964  3.0150  0.1316 -1.0917
  404MOL0     H53324   5.422   0.351   2.665 -2.5434 -1.3810  2.0520
  404MOL0     H53325   5.466   0.511   2.732 -1.0210  0.3277  1.5611
  404MOL0     H53326   5.825   0.295   2.779  1.4638  2.4567 -2.1008
  404MOL0     H53327   4.972   0.509   2.892  1.4881  1.0909 -0.7170
  404MOL0     H53328   4.716   0.557   2.894 -0.5188 -1.4732 -0.4634
  405MOL0     O53329   8.894   0.075   9.372 -0.5228 -0.1132 -1.0761
  405MOL0     C53330   8.964   0.173   9.393  0.3542  0.6233  0.1847
  405MOL0     O53331   8.918   0.293   9.428  0.7193 -0.1058  0.0714
  405MOL0     C53332   8.783   0.330   9.429  0.3403  0.1148 -0.6130
  405MOL0     C53333   8.734   0.435   9.512 -0.7860 -0.1109  0.2163
  405MOL0     C53334   8.598   0.483   9.502 -0.6385 -0.4773 -0.5842
  405MOL0     C53335   8.504   0.411   9.428 -0.6083 -1.0551  1.0898
  405MOL0     O53336   8.376   0.453   9.449 -0.6617  0.0476 -0.1566
  405MOL0     C53337   8.277   0.447   9.357 -0.3489 -0.4170  1.0438
  405MOL0     C53338   8.304   0.522   9.228  0.4520  0.3149  0.1908
  405MOL0     C53339   8.177   0.579   9.174  0.0129  0.4063 -0.3430
  405MOL0     C53340   8.200   0.647   9.042 -0.1791 -0.5448  0.0488
  405MOL0     C53341   8.059   0.688   8.976  0.1411  0.5248  0.7549
  405MOL0     C53342   7.973   0.786   9.064  0.2712  0.1023  0.8611
  405MOL0     C53343   7.859   0.830   8.983  0.4144  0.0050  0.8457
  405MOL0     C53344   7.786   0.939   9.064 -0.8678 -0.1643 -0.5671
  405MOL0     N53345   7.657   0.972   9.008 -0.9139 -0.5234  0.0368
  405MOL0     C53346   7.543   0.913   9.029 -0.6472  0.3172  0.1800
  405MOL0     C53347   7.448   0.985   8.961  0.5617 -0.1896 -0.0065
  405MOL0     C53348   7.309   0.940   8.956  0.1065  0.5005  0.0085
  405MOL0     C53349   7.216   1.001   9.063  0.7272 -0.3589 -0.5563
  405MOL0     C53350   7.088   0.918   9.069 -0.3499 -0.5995  0.1911
  405MOL0     C53351   7.002   0.900   8.946 -0.1106  0.4302  0.4600
  405MOL0     O53352   6.902   0.804   8.966  0.0176 -0.2345  0.2812
  405MOL0     C53353   6.773   0.840   9.011 -0.7945 -0.1656  0.3904
  405MOL0     C53354   6.671   0.742   9.004 -0.3195  0.2116  0.0599
  405MOL0     C53355   6.542   0.766   9.045  0.8228 -0.5911  0.5868
  405MOL0     C53356   6.512   0.888   9.116  0.1977 -0.9740  0.0048
  405MOL0     C53357   6.366   0.914   9.157 -0.7006 -1.0462 -0.4033
  405MOL0     O53358   6.324   1.034   9.192 -0.7984  0.1439  0.1950
  405MOL0     C53359   6.196   1.050   9.224  0.8846  0.2975 -0.2372
  405MOL0     C53360   6.135   0.990   9.334 -0.1884  0.4092  0.1198
  405MOL0     C53361   6.001   1.004   9.348 -0.6379 -1.4474  0.1425
  405MOL0     C53362   5.921   1.070   9.258  0.9990 -0.3656 -0.1060
  405MOL0     O53363   5.782   1.070   9.275  0.1077 -0.1011  0.2023
  405MOL0     C53364   5.713   1.191   9.226 -0.1310 -0.3858  0.8672
  405MOL0     C53365   5.573   1.186   9.292  0.2702 -0.0148 -0.5528
  405MOL0     C53366   5.472   1.286   9.234 -0.1623 -0.0041  0.0710
  405MOL0     C53367   5.344   1.277   9.304  0.1697 -0.7786 -0.0619
  405MOL0     C53368   5.263   1.412   9.269 -0.3904 -0.2780 -0.7537
  405MOL0     C53369   5.333   1.545   9.299  0.4493  0.0073  0.1373
  405MOL0     C53370   5.226   1.663   9.298 -0.7545  0.2121  0.3332
  405MOL0     C53371   5.296   1.786   9.335 -0.5926 -0.8058 -0.0947
  405MOL0    Cl53372   5.188   1.920   9.338 -0.1249  0.1066 -0.0852
  405MOL0     C53373   5.986   1.140   9.152 -0.2663 -0.6891 -1.2596
  405MOL0     C53374   6.127   1.134   9.147  1.1959 -0.7839  0.2641
  405MOL0     O53375   6.295   0.820   9.148 -0.1244 -0.3804  0.7115
  405MOL0     C53376   6.610   0.989   9.109  0.0605 -0.2308 -0.5477
  405MOL0     C53377   6.743   0.969   9.057  0.7581  0.4450 -0.2122
  405MOL0     N53378   7.509   1.095   8.905  0.5887 -0.3316  0.1867
  405MOL0     N53379   7.634   1.080   8.931  1.2248 -0.3383  0.1756
  405MOL0     C53380   8.552   0.316   9.336  0.8935  0.6588 -0.0817
  405MOL0     C53381   8.688   0.275   9.340  0.1477  0.3497 -0.4723
  405MOL0     C53382   9.111   0.157   9.381 -0.3297  0.0859 -0.0462
  405MOL0     C53383   9.158   0.045   9.430  0.3847  0.0815 -0.6386
  405MOL0     C53384   9.295   0.013   9.435  0.5316  1.0560 -0.3906
  405MOL0     C53385   9.393   0.109   9.393 -0.3260  0.3903 -0.2629
  405MOL0     O53386   9.525   0.095   9.411 -0.1272  0.5689 -0.4879
  405MOL0     C53387   9.580  -0.038   9.420  0.5623  0.2246 -0.3494
  405MOL0     C53388   9.723  -0.032   9.374 -0.3271  0.3253  0.5803
  405MOL0     C53389   9.803   0.085   9.434  0.1436  0.5908  0.2478
  405MOL0     C53390   9.945   0.104   9.375 -0.3785  0.0099 -0.2345
  405MOL0     C53391   9.943   0.128   9.232  0.3290  0.0522  0.3248
  405MOL0     C53392   9.928   0.145   9.111  0.1690  0.4490  0.4945
  405MOL0     C53393   9.345   0.236   9.354  0.7485  0.7520 -0.6387
  405MOL0     C53394   9.205   0.258   9.343  0.0679 -0.1999  0.2035
  405MOL0     H53395   8.799   0.475   9.589 -0.2770 -1.2155  0.3765
  405MOL0     H53396   8.556   0.556   9.571 -0.4763 -1.7500  0.9244
  405MOL0     H53397   8.187   0.495   9.398 -0.6582 -1.0734  1.1337
  405MOL0     H53398   8.255   0.343   9.332  4.7825 -1.2990 -1.0031
  405MOL0     H53399   8.354   0.457   9.155 -0.2815  0.3088 -0.3119
  405MOL0     H53400   8.374   0.601   9.255 -0.7058  0.8894  1.6011
  405MOL0     H53401   8.132   0.649   9.245  0.9067 -0.7600  1.4798
  405MOL0     H53402   8.109   0.498   9.148  2.1261 -0.9409 -2.0996
  405MOL0     H53403   8.262   0.736   9.048  2.7467 -2.1636 -2.9932
  405MOL0     H53404   8.247   0.581   8.969 -0.5830 -2.3452  1.3383
  405MOL0     H53405   7.995   0.600   8.966  1.3423 -0.1473 -1.6339
  405MOL0     H53406   8.086   0.737   8.882 -1.3706 -0.4724 -0.2430
  405MOL0     H53407   8.044   0.857   9.106  1.6576 -1.3725  1.1332
  405MOL0     H53408   7.926   0.718   9.136 -0.1463 -2.2295 -1.4528
  405MOL0     H53409   7.896   0.878   8.892 -2.0194  1.7531  0.6898
  405MOL0     H53410   7.792   0.748   8.955  0.7405 -0.9364  2.6753
  405MOL0     H53411   7.842   1.033   9.067 -1.1351  0.0033 -0.7654
  405MOL0     H53412   7.789   0.900   9.166  0.9910  1.5940  0.0997
  405MOL0     H53413   7.523   0.824   9.088 -0.6470 -1.4345 -2.3120
  405MOL0     H53414   7.297   0.831   8.956  2.3262  0.1209  2.8917
  405MOL0     H53415   7.274   0.979   8.860  1.6076  0.7256 -0.4631
  405MOL0     H53416   7.191   1.105   9.038 -0.8637 -0.7762 -0.8357
  405MOL0     H53417   7.255   0.992   9.165 -1.0366  0.4405  0.2331
  405MOL0     H53418   7.125   0.822   9.106 -2.0550 -1.5779 -0.5165
  405MOL0     H53419   7.028   0.956   9.153  0.9382  1.7130  0.1382
  405MOL0     H53420   7.057   0.863   8.859 -1.4834  2.7860 -1.5715
  405MOL0     H53421   6.956   0.995   8.918  0.0609  0.3499 -0.1146
  405MOL0     H53422   6.685   0.652   8.945 -0.8790  1.7259 -2.5383
  405MOL0     H53423   6.461   0.695   9.032 -0.1351  0.4889  0.5503
  405MOL0     H53424   6.184   0.917   9.398 -1.9369 -1.9120 -1.0298
  405MOL0     H53425   5.957   0.951   9.432 -0.5518 -0.3598  0.8877
  405MOL0     H53426   5.698   1.188   9.118 -2.5149  1.3650  1.0676
  405MOL0     H53427   5.757   1.288   9.251 -2.8665  1.0222  0.6547
  405MOL0     H53428   5.584   1.193   9.400  0.1829 -2.1942 -0.3626
  405MOL0     H53429   5.546   1.084   9.264  1.2056 -0.0144 -1.5388
  405MOL0     H53430   5.456   1.264   9.128  0.7352 -0.6133  0.0538
  405MOL0     H53431   5.524   1.382   9.237  0.3135 -0.2309 -0.5499
  405MOL0     H53432   5.285   1.197   9.259  0.6945 -0.9440 -0.4668
  405MOL0     H53433   5.354   1.260   9.412  1.7124  1.1463  0.1595
  405MOL0     H53434   5.173   1.415   9.330  0.6832  0.3979  0.8883
  405MOL0     H53435   5.235   1.422   9.164  1.5502 -1.5748 -1.4698
  405MOL0     H53436   5.419   1.561   9.234  0.0388 -0.4112 -0.5121
  405MOL0     H53437   5.376   1.535   9.399  3.5983  0.1699 -1.0970
  405MOL0     H53438   5.181   1.678   9.200  0.6711  3.4999  0.0493
  405MOL0     H53439   5.146   1.646   9.371 -0.0246 -0.4117  1.0069
  405MOL0     H53440   5.368   1.813   9.258  1.3530 -0.0336  1.8722
  405MOL0     H53441   5.344   1.777   9.433 -4.0827  0.3728  1.9073
  405MOL0     H53442   5.926   1.199   9.085 -1.4079 -2.4209 -1.8207
  405MOL0     H53443   6.184   1.204   9.086  1.6865 -0.0872  1.4978
  405MOL0     H53444   6.587   1.086   9.152 -2.1129 -0.6234 -0.6884
  405MOL0     H53445   6.820   1.045   9.061  2.1322 -0.8598 -0.9865
  405MOL0     H53446   8.484   0.274   9.262  2.3241  1.0035 -1.6437
  405MOL0     H53447   8.709   0.188   9.279  1.3138 -0.9476  1.6560
  405MOL0     H53448   9.085  -0.024   9.471 -0.6131  1.6561  0.3101
  405MOL0     H53449   9.320  -0.075   9.491  0.1794 -0.6775 -2.7837
  405MOL0     H53450   9.524  -0.114   9.364  0.6154  0.1332 -0.2795
  405MOL0     H53451   9.583  -0.071   9.525  0.3705 -1.8113 -0.9375
  405MOL0     H53452   9.777  -0.126   9.389 -1.6401 -1.1649 -2.9342
  405MOL0     H53453   9.721  -0.021   9.265  3.0741  2.7842  0.6073
  405MOL0     H53454   9.805   0.069   9.542  1.5795  4.0934  0.8964
  405MOL0     H53455   9.737   0.171   9.422 -1.2790 -0.5364 -0.2738
  405MOL0     H53456   9.983   0.198   9.414 -2.5814  1.0523 -0.4141
  405MOL0     H53457  10.014   0.021   9.390 -1.3110 -1.4135 -3.1690
  405MOL0     H53458   9.901   0.147   9.007 -0.4408  1.9814  0.6580
  405MOL0     H53459   9.414   0.311   9.316 -0.8875  2.5900 -0.1568
  405MOL0     H53460   9.178   0.355   9.303  2.4749  0.0666 -0.9617
  406MOL0     O53461   7.600   8.656   2.757 -0.8240  0.2206  0.8590
  406MOL0     C53462   7.566   8.748   2.678 -0.6261  0.7205 -0.9253
  406MOL0     O53463   7.660   8.838   2.618  0.9551 -0.5511 -1.2599
  406MOL0     C53464   7.781   8.850   2.677 -0.2445  0.0580 -0.2670
  406MOL0     C53465   7.816   8.869   2.820  0.4740 -0.0174  1.4239
  406MOL0     C53466   7.951   8.852   2.852  0.4595 -0.1213  0.1525
  406MOL0     C53467   8.058   8.814   2.767  0.3430 -0.5728  0.1139
  406MOL0     O53468   8.180   8.796   2.823  0.0274 -0.2419 -0.6894
  406MOL0     C53469   8.291   8.791   2.725 -0.1067 -0.3253 -0.3751
  406MOL0     C53470   8.422   8.821   2.812  1.1253  0.3028 -0.2835
  406MOL0     C53471   8.553   8.821   2.737 -0.3988 -0.3373  0.0397
  406MOL0     C53472   8.672   8.839   2.835 -0.0030 -0.6270 -0.1311
  406MOL0     C53473   8.805   8.863   2.774  0.4253 -0.2156  0.0124
  406MOL0     C53474   8.916   8.927   2.858  0.2888 -0.2589  0.4018
  406MOL0     C53475   9.045   8.926   2.770 -0.5004 -0.8233 -0.5959
  406MOL0     C53476   9.150   9.008   2.848 -0.8316 -0.3450 -0.4082
  406MOL0     N53477   9.284   9.019   2.775 -0.5179 -0.1461 -0.4713
  406MOL0     C53478   9.402   8.964   2.820  0.1778 -0.1477 -0.9107
  406MOL0     C53479   9.492   9.024   2.736  0.1667  0.7532  0.1908
  406MOL0     C53480   9.637   8.983   2.752 -0.2044 -0.6422 -0.4433
  406MOL0     C53481   9.718   9.092   2.812  0.4509  0.1837 -0.0639
  406MOL0     C53482   9.865   9.040   2.818  0.1375 -0.6454 -0.0101
  406MOL0     C53483   9.963   9.152   2.854  0.4545 -0.4820 -0.0039
  406MOL0     O53484  10.095   9.108   2.824 -0.0170  0.8089 -0.0208
  406MOL0     C53485  10.193   9.192   2.772 -0.4010  0.0228 -0.0633
  406MOL0     C53486  10.195   9.334   2.747 -0.1574  0.3447  0.0047
  406MOL0     C53487  10.307   9.403   2.696 -0.1952 -0.7240  0.1606
  406MOL0     C53488  10.429   9.327   2.665  0.7355 -0.6091 -0.0400
  406MOL0     C53489  10.544   9.405   2.608 -0.2636 -0.8901 -0.6780
  406MOL0     O53490  10.662   9.329   2.598 -1.0691  0.0783 -0.3505
  406MOL0     C53491  10.760   9.370   2.520 -0.3737 -0.5272  0.1363
  406MOL0     C53492  10.835   9.486   2.547  0.1761 -0.1142  0.4941
  406MOL0     C53493  10.953   9.512   2.465 -1.0161 -0.5446 -0.3455
  406MOL0     C53494  10.992   9.420   2.367  0.6370 -0.4487  0.5549
  406MOL0     O53495  11.094   9.449   2.275 -0.2852  0.0223 -0.5240
  406MOL0     C53496  11.170   9.338   2.217  0.2570 -0.5872 -0.7756
  406MOL0     C53497  11.310   9.375   2.167  1.0160 -0.0192 -0.4350
  406MOL0     C53498  11.316   9.488   2.057 -0.1049  0.9949 -0.5157
  406MOL0     C53499  11.460   9.504   2.015 -0.4156 -0.5301 -0.5084
  406MOL0     C53500  11.493   9.438   1.879  0.1896 -0.1106 -0.3436
  406MOL0     C53501  11.642   9.450   1.842 -1.0458  0.4338  0.3721
  406MOL0     C53502  11.726   9.370   1.946  0.5557  0.1415 -0.3770
  406MOL0     C53503  11.869   9.323   1.894 -0.5155 -0.4104  0.0846
  406MOL0    Cl53504  11.961   9.469   1.820  0.0037  0.0718  0.3512
  406MOL0     C53505  10.912   9.306   2.336 -0.0183 -0.1983 -0.7509
  406MOL0     C53506  10.806   9.277   2.425  0.4804  0.1926 -0.4402
  406MOL0     O53507  10.537   9.523   2.573 -0.4760  0.3557 -1.2084
  406MOL0     C53508  10.425   9.190   2.672 -0.0565  0.8610 -0.3074
  406MOL0     C53509  10.316   9.129   2.732 -0.7085  0.7875  0.3496
  406MOL0     N53510   9.436   9.111   2.650  0.4559 -0.1559 -0.7673
  406MOL0     N53511   9.311   9.110   2.673  0.5181 -0.2978  0.4774
  406MOL0     C53512   8.022   8.806   2.630  0.3545 -0.3170 -0.4407
  406MOL0     C53513   7.887   8.821   2.589 -0.2039  0.2686  0.1794
  406MOL0     C53514   7.423   8.757   2.645 -0.9045 -0.3590 -0.8117
  406MOL0     C53515   7.374   8.853   2.561  0.1667 -0.5952 -0.2470
  406MOL0     C53516   7.235   8.858   2.542  0.5091  0.7328 -0.0056
  406MOL0     C53517   7.136   8.770   2.603  0.7849  0.1099 -1.3700
  406MOL0     O53518   7.001   8.781   2.574  0.0718  0.0425 -0.2279
  406MOL0     C53519   6.920   8.665   2.582  0.3606  0.0987  0.6598
  406MOL0     C53520   6.824   8.678   2.705 -0.1096 -0.7155 -0.3990
  406MOL0     C53521   6.719   8.791   2.675 -0.0935  0.8850 -0.6312
  406MOL0     C53522   6.630   8.824   2.795 -0.6260 -0.1706  0.6453
  406MOL0     C53523   6.542   8.930   2.751  0.5553  1.6986  0.1234
  406MOL0     C53524   6.459   9.006   2.700  0.3034  0.3608 -1.3609
  406MOL0     C53525   7.195   8.675   2.689 -1.1421 -0.0586  0.3003
  406MOL0     C53526   7.334   8.667   2.711 -0.5286  0.8813  0.6720
  406MOL0     H53527   7.734   8.895   2.886 -0.7712 -0.3040  0.0363
  406MOL0     H53528   7.992   8.880   2.949 -1.0786 -1.0471  1.1037
  406MOL0     H53529   8.291   8.867   2.646 -0.3688  0.3307  0.2372
  406MOL0     H53530   8.296   8.693   2.678 -0.3730  0.1200 -1.3518
  406MOL0     H53531   8.440   8.745   2.889 -1.7558  1.4113  1.7097
  406MOL0     H53532   8.414   8.918   2.863  0.5894  0.0452  0.1417
  406MOL0     H53533   8.565   8.904   2.666  1.1271 -0.8763 -0.3717
  406MOL0     H53534   8.561   8.732   2.674 -3.6530 -1.3734  0.9305
  406MOL0     H53535   8.651   8.919   2.906 -2.1882 -2.2706  1.2380
  406MOL0     H53536   8.682   8.745   2.890 -0.2129  0.4570  1.8611
  406MOL0     H53537   8.792   8.919   2.681  2.0142  0.5925  0.2460
  406MOL0     H53538   8.834   8.767   2.730 -0.3279  1.0502 -3.5840
  406MOL0     H53539   8.930   8.867   2.948  1.9877 -1.5271 -0.6476
  406MOL0     H53540   8.895   9.032   2.883 -0.8896 -0.6151  0.9540
  406MOL0     H53541   9.077   8.821   2.766 -0.6878 -0.8406 -2.1063
  406MOL0     H53542   9.035   8.969   2.670 -2.5409  1.4478  0.4758
  406MOL0     H53543   9.167   8.964   2.947 -0.4483 -1.3619 -0.9069
  406MOL0     H53544   9.108   9.108   2.857 -0.2863 -0.1210 -0.2795
  406MOL0     H53545   9.434   8.907   2.907  0.4271 -1.3969 -1.7843
  406MOL0     H53546   9.674   8.947   2.656  3.1000 -1.1583  0.8893
  406MOL0     H53547   9.658   8.894   2.812 -0.3225  1.8729  3.7393
  406MOL0     H53548   9.693   9.120   2.915  1.3387  2.1690 -0.3465
  406MOL0     H53549   9.705   9.176   2.744  0.4879  0.1422 -0.1219
  406MOL0     H53550   9.868   8.960   2.892 -2.3501  0.8630  1.8760
  406MOL0     H53551   9.898   9.006   2.719 -0.6439  2.5383 -1.5249
  406MOL0     H53552   9.957   9.182   2.959 -1.7067 -0.2318 -0.1514
  406MOL0     H53553   9.945   9.241   2.794 -4.0847 -0.8266  0.4755
  406MOL0     H53554  10.103   9.391   2.747  0.3754  1.2210 -0.6476
  406MOL0     H53555  10.303   9.506   2.664 -0.5593 -0.9819 -0.6523
  406MOL0     H53556  10.801   9.553   2.625  1.2779  0.2443  0.6942
  406MOL0     H53557  11.016   9.598   2.484 -3.1418  0.6496  1.8581
  406MOL0     H53558  11.115   9.291   2.135  0.2186 -0.3339 -0.8941
  406MOL0     H53559  11.183   9.262   2.295 -0.0180 -2.2635 -2.2904
  406MOL0     H53560  11.366   9.293   2.121  3.2948  0.8331  0.6630
  406MOL0     H53561  11.370   9.412   2.251 -0.1005  1.8264 -0.3937
  406MOL0     H53562  11.276   9.577   2.106 -2.9268 -0.2778 -0.3305
  406MOL0     H53563  11.249   9.457   1.976  1.7864  0.4898 -1.9782
  406MOL0     H53564  11.470   9.612   2.003 -2.7086 -0.3310 -1.1403
  406MOL0     H53565  11.524   9.458   2.091 -0.1422  0.1235 -0.3321
  406MOL0     H53566  11.434   9.479   1.796  0.1059  0.0098 -0.2242
  406MOL0     H53567  11.466   9.332   1.887 -1.1687  0.2663  0.3525
  406MOL0     H53568  11.661   9.557   1.850 -3.3612  0.9193  0.2438
  406MOL0     H53569  11.672   9.427   1.739 -0.9779 -1.0266  0.6934
  406MOL0     H53570  11.727   9.427   2.039 -1.1789 -1.2849  0.5747
  406MOL0     H53571  11.684   9.272   1.971  4.3182 -0.9824  2.4379
  406MOL0     H53572  11.845   9.242   1.825  0.0415  0.9302 -1.7657
  406MOL0     H53573  11.929   9.286   1.977  0.2036  1.0199  0.2387
  406MOL0     H53574  10.937   9.222   2.272 -1.9667 -1.8352  0.5193
  406MOL0     H53575  10.754   9.182   2.416 -0.7893  0.8121  0.1119
  406MOL0     H53576  10.513   9.136   2.637  0.9585  1.7361  0.7718
  406MOL0     H53577  10.317   9.021   2.737  2.7569  0.6227 -1.0880
  406MOL0     H53578   8.105   8.803   2.561 -0.0590  1.8344 -1.1097
  406MOL0     H53579   7.866   8.814   2.483  0.3305  0.7803  0.0321
  406MOL0     H53580   7.444   8.920   2.512  1.1769 -1.1411  0.4107
  406MOL0     H53581   7.207   8.939   2.476  0.6979  0.7896 -0.0174
  406MOL0     H53582   6.984   8.576   2.578 -0.0007 -0.1309 -0.0171
  406MOL0     H53583   6.860   8.662   2.491 -0.9406  1.8349  1.4113
  406MOL0     H53584   6.794   8.576   2.730  1.7110 -1.0714  0.4682
  406MOL0     H53585   6.876   8.701   2.798 -0.5278  0.3365 -0.4041
  406MOL0     H53586   6.662   8.754   2.590  1.1733 -1.3268 -0.5974
  406MOL0     H53587   6.766   8.884   2.643  0.8645  1.4162  2.0876
  406MOL0     H53588   6.573   8.742   2.840  0.0149 -0.1255  1.5520
  406MOL0     H53589   6.697   8.863   2.872  1.7806 -2.3533 -0.2181
  406MOL0     H53590   6.380   9.069   2.662 -1.7929 -0.1227  1.7876
  406MOL0     H53591   7.138   8.602   2.744 -1.6547  1.4706  1.9069
  406MOL0     H53592   7.367   8.598   2.788  2.2742  1.9188  0.4993
  407MOL0     O53593   3.616   9.861   1.560  0.2377  0.1572  0.2829
  407MOL0     C53594   3.633   9.813   1.675 -0.0644 -0.4274  0.4361
  407MOL0     O53595   3.539   9.790   1.771  0.3563  0.3642  0.2417
  407MOL0     C53596   3.406   9.814   1.771 -0.2462 -0.0305 -0.0291
  407MOL0     C53597   3.343   9.829   1.897  0.2462 -0.2584  0.2305
  407MOL0     C53598   3.207   9.855   1.907 -1.2580  0.9066 -0.6017
  407MOL0     C53599   3.134   9.895   1.792  0.0902  0.9735 -0.5148
  407MOL0     O53600   3.008   9.950   1.811  0.1782 -0.1954 -1.2156
  407MOL0     C53601   2.931   9.968   1.700 -0.1889 -0.2289  0.4544
  407MOL0     C53602   2.786  10.009   1.731  0.3820 -0.7014  0.5865
  407MOL0     C53603   2.708   9.907   1.809 -0.2884  0.8078 -0.6973
  407MOL0     C53604   2.725   9.772   1.766  0.2987 -0.2760 -0.6014
  407MOL0     C53605   2.611   9.684   1.809  0.7667  0.7615 -0.0693
  407MOL0     C53606   2.491   9.679   1.716 -0.2837 -0.3447 -0.7193
  407MOL0     C53607   2.385   9.587   1.761 -0.0888  0.3439 -0.1110
  407MOL0     C53608   2.261   9.605   1.677  0.0113  0.3527  0.1515
  407MOL0     N53609   2.166   9.501   1.709  0.7771 -0.0534 -0.8083
  407MOL0     C53610   2.137   9.391   1.635  1.3120  0.5722 -0.7170
  407MOL0     C53611   2.022   9.333   1.689 -0.5959  0.2998 -0.5130
  407MOL0     C53612   1.951   9.224   1.632  0.2191 -0.0174 -0.3379
  407MOL0     C53613   1.810   9.271   1.570 -0.3405 -0.0266 -0.0676
  407MOL0     C53614   1.740   9.150   1.492  0.6188 -0.0648  0.4249
  407MOL0     C53615   1.594   9.167   1.450  1.0483  0.1735  0.7334
  407MOL0     O53616   1.502   9.196   1.551 -0.2694  0.4374 -0.5469
  407MOL0     C53617   1.376   9.238   1.517 -0.2129  0.2628 -0.2246
  407MOL0     C53618   1.313   9.291   1.632  0.4016  0.1684  0.4583
  407MOL0     C53619   1.194   9.361   1.613 -0.1869 -0.0858 -0.4047
  407MOL0     C53620   1.131   9.365   1.488  0.4596  0.0277 -0.3339
  407MOL0     C53621   0.990   9.426   1.481  0.0726  0.0028  0.5422
  407MOL0     O53622   0.916   9.404   1.362 -0.1209 -0.2644  0.0584
  407MOL0     C53623   0.798   9.470   1.344  0.0813  0.4148  0.7516
  407MOL0     C53624   0.760   9.497   1.211  0.5934 -0.0557 -0.1387
  407MOL0     C53625   0.636   9.559   1.182  0.3671 -0.6477 -1.0401
  407MOL0     C53626   0.547   9.603   1.284 -0.7672 -0.1247  0.0318
  407MOL0     O53627   0.421   9.662   1.271  0.3899 -0.3517 -0.5970
  407MOL0     C53628   0.366   9.639   1.131  0.6426 -0.0837 -0.8226
  407MOL0     C53629   0.331   9.492   1.130 -0.7259  0.3489 -0.3865
  407MOL0     C53630   0.243   9.443   1.253  0.1027 -0.3608 -0.7651
  407MOL0     C53631   0.151   9.332   1.228  0.8672  0.7777 -0.2413
  407MOL0     C53632   0.007   9.382   1.198 -0.0477  0.6069  0.2420
  407MOL0     C53633  -0.074   9.257   1.144 -0.0925 -0.1916  0.6186
  407MOL0     C53634  -0.221   9.302   1.099 -0.4940  0.1341 -0.2373
  407MOL0     C53635  -0.305   9.307   1.223  0.5795 -0.6827  0.0520
  407MOL0    Cl53636  -0.461   9.355   1.184  0.3179  0.1839  0.0305
  407MOL0     C53637   0.579   9.563   1.413 -0.0373 -1.2356 -0.2102
  407MOL0     C53638   0.698   9.501   1.444 -0.8380  0.3274 -0.7951
  407MOL0     O53639   0.945   9.486   1.584  0.2120  0.1281  0.0427
  407MOL0     C53640   1.191   9.299   1.376  0.7122  0.8052 -0.1182
  407MOL0     C53641   1.304   9.236   1.392 -0.5813  0.7768 -0.6817
  407MOL0     N53642   1.990   9.404   1.803 -0.1844  1.1580  0.2462
  407MOL0     N53643   2.071   9.506   1.811  1.2495 -0.6980  0.5363
  407MOL0     C53644   3.193   9.873   1.663  0.0746 -0.9209 -0.0275
  407MOL0     C53645   3.331   9.833   1.658  0.1410  0.8326  0.1547
  407MOL0     C53646   3.769   9.790   1.708 -0.7318 -0.8691 -0.2841
  407MOL0     C53647   3.805   9.709   1.822  0.5152 -0.3447 -1.2243
  407MOL0     C53648   3.937   9.690   1.866 -0.3918  0.4866  0.0025
  407MOL0     C53649   4.047   9.738   1.794 -0.5184 -0.9547  0.5202
  407MOL0     O53650   4.174   9.738   1.851  0.6347  0.2851  0.0750
  407MOL0     C53651   4.287   9.736   1.770 -0.1134  0.0951 -0.3231
  407MOL0     C53652   4.401   9.668   1.833  0.4986  0.5192 -0.1010
  407MOL0     C53653   4.530   9.698   1.750  0.0078  0.2749  0.4361
  407MOL0     C53654   4.643   9.593   1.778 -0.6110  0.0262  0.4533
  407MOL0     C53655   4.666   9.575   1.923 -0.0555 -0.2278  0.4194
  407MOL0     C53656   4.696   9.557   2.039  0.6550  0.5232 -0.3729
  407MOL0     C53657   4.020   9.797   1.674  0.4650 -0.7836  0.5472
  407MOL0     C53658   3.885   9.818   1.628 -0.2738 -0.2364 -0.0346
  407MOL0     H53659   3.395   9.819   1.992  1.9920 -3.6013 -0.8976
  407MOL0     H53660   3.160   9.859   2.005 -0.6691 -1.2551 -0.1940
  407MOL0     H53661   2.925   9.879   1.637 -1.5666  0.4888 -0.5081
  407MOL0     H53662   2.968  10.042   1.628  0.1988  0.0733  0.9631
  407MOL0     H53663   2.735  10.033   1.637 -0.7270 -0.5418  1.2179
  407MOL0     H53664   2.795  10.099   1.791  2.3110 -0.3370 -0.1655
  407MOL0     H53665   2.607   9.947   1.794 -0.5922 -0.4278 -2.1569
  407MOL0     H53666   2.743   9.905   1.913  0.0669  0.2572 -0.8284
  407MOL0     H53667   2.735   9.765   1.657 -0.3644 -0.7915 -0.6343
  407MOL0     H53668   2.817   9.732   1.809 -0.7215 -2.4700 -0.2972
  407MOL0     H53669   2.565   9.722   1.901 -1.8133  1.2958 -1.4820
  407MOL0     H53670   2.653   9.583   1.816 -1.2042 -0.2621 -1.6441
  407MOL0     H53671   2.528   9.646   1.618  2.9657 -2.9329  1.1651
  407MOL0     H53672   2.439   9.775   1.712 -1.7777 -1.0571  0.7308
  407MOL0     H53673   2.419   9.483   1.763 -0.2368  0.2811  2.6171
  407MOL0     H53674   2.359   9.612   1.865  1.5083 -1.6997  0.8417
  407MOL0     H53675   2.292   9.601   1.573  1.3080  0.2160  0.5214
  407MOL0     H53676   2.212   9.701   1.693 -4.7878 -1.6255 -0.9515
  407MOL0     H53677   2.186   9.359   1.544  1.7746 -3.1538  0.6400
  407MOL0     H53678   1.925   9.145   1.704  0.6810  0.5442  0.4657
  407MOL0     H53679   2.007   9.183   1.548 -0.0607 -2.2364  0.4850
  407MOL0     H53680   1.825   9.359   1.507  1.1925  1.8614  2.7197
  407MOL0     H53681   1.736   9.301   1.645 -0.1001  1.1610 -0.2834
  407MOL0     H53682   1.796   9.123   1.402 -3.0707 -1.6352 -1.6479
  407MOL0     H53683   1.743   9.066   1.561 -4.6205 -0.3273  0.7922
  407MOL0     H53684   1.565   9.073   1.403 -1.3397  2.7213 -3.5365
  407MOL0     H53685   1.584   9.249   1.378 -2.2271  0.2131  1.0874
  407MOL0     H53686   1.359   9.295   1.730  0.6420 -0.3805  0.3704
  407MOL0     H53687   1.153   9.409   1.702  3.4725  0.8352  0.9736
  407MOL0     H53688   0.822   9.478   1.123  2.5010  1.8033  0.7044
  407MOL0     H53689   0.614   9.575   1.077  0.6502 -0.0837 -1.0139
  407MOL0     H53690   0.441   9.671   1.057  4.8610 -4.0549  1.1706
  407MOL0     H53691   0.279   9.704   1.120  1.1839  0.4475 -2.1883
  407MOL0     H53692   0.413   9.421   1.116 -1.0294 -0.2575  0.8091
  407MOL0     H53693   0.272   9.490   1.038 -0.8602  0.6998 -0.3095
  407MOL0     H53694   0.194   9.537   1.280  1.2265 -0.2852  1.2301
  407MOL0     H53695   0.310   9.421   1.337  0.6027 -3.5237 -1.8450
  407MOL0     H53696   0.200   9.265   1.157  1.5386  0.8929  0.1012
  407MOL0     H53697   0.143   9.263   1.312 -3.3335  0.0005 -1.0408
  407MOL0     H53698  -0.000   9.459   1.120 -4.7898  1.2058  1.0247
  407MOL0     H53699  -0.040   9.427   1.285 -0.0703 -0.0250  0.5658
  407MOL0     H53700  -0.084   9.182   1.223 -4.4663 -2.4145 -1.6644
  407MOL0     H53701  -0.020   9.210   1.061 -2.3688  2.5943 -2.7019
  407MOL0     H53702  -0.225   9.397   1.046  1.7338 -0.4573 -1.6323
  407MOL0     H53703  -0.240   9.226   1.023  2.9096  1.7074 -2.9645
  407MOL0     H53704  -0.268   9.380   1.296  1.5377 -0.0727 -1.0274
  407MOL0     H53705  -0.298   9.211   1.276 -0.7167  0.2157  1.9779
  407MOL0     H53706   0.505   9.574   1.492  0.2870  0.2477 -0.0736
  407MOL0     H53707   0.708   9.466   1.546  1.9999  0.3870 -0.9678
  407MOL0     H53708   1.145   9.302   1.278  0.7672 -2.1878 -0.3033
  407MOL0     H53709   1.346   9.194   1.301  2.4512 -0.0456  0.9719
  407MOL0     H53710   3.142   9.881   1.568 -0.4275 -2.1127  0.1314
  407MOL0     H53711   3.372   9.817   1.559  0.4892  0.7458  0.3114
  407MOL0     H53712   3.719   9.682   1.881 -1.4867  1.3042 -3.1946
  407MOL0     H53713   3.932   9.639   1.962 -1.0930  0.7195  0.0965
  407MOL0     H53714   4.309   9.843   1.767 -2.8186  0.7880  0.8879
  407MOL0     H53715   4.267   9.689   1.674  4.9696 -3.2802 -0.1337
  407MOL0     H53716   4.402   9.697   1.938 -1.8142  0.8237 -0.1154
  407MOL0     H53717   4.377   9.562   1.820  3.0085 -0.0826 -0.4518
  407MOL0     H53718   4.563   9.798   1.776  1.6336 -0.7949  2.7999
  407MOL0     H53719   4.503   9.691   1.644  1.7047 -0.6816  0.0211
  407MOL0     H53720   4.604   9.503   1.730 -1.3559 -0.9163  2.6600
  407MOL0     H53721   4.733   9.630   1.729 -0.4608  0.9862  1.4278
  407MOL0     H53722   4.724   9.525   2.137 -0.7170  0.0356 -0.1205
  407MOL0     H53723   4.093   9.829   1.601 -1.1938 -2.3860 -1.9552
  407MOL0     H53724   3.866   9.856   1.528 -2.1933  0.7648  0.6630
  408MOL0     O53725   7.585   2.032   7.956  0.1420  0.4464 -0.1808
  408MOL0     C53726   7.618   1.923   7.923 -0.3331  0.9958  0.3834
  408MOL0     O53727   7.533   1.822   7.896  0.6391  0.5490  0.0386
  408MOL0     C53728   7.401   1.841   7.880 -0.0082 -0.2652 -0.1508
  408MOL0     C53729   7.338   1.958   7.824 -0.1213  0.0434 -0.6921
  408MOL0     C53730   7.196   1.972   7.823 -1.0932  0.3196 -0.4223
  408MOL0     C53731   7.121   1.858   7.846  0.0319 -0.2659  0.6838
  408MOL0     O53732   6.988   1.854   7.829  1.0488  0.4783  0.7119
  408MOL0     C53733   6.925   1.960   7.750 -0.4594 -1.3535 -0.7920
  408MOL0     C53734   6.787   1.912   7.695 -0.9857  0.2129 -0.4050
  408MOL0     C53735   6.695   1.848   7.810 -0.0863 -0.0156  0.4873
  408MOL0     C53736   6.553   1.842   7.769  0.4852  0.5884  0.8679
  408MOL0     C53737   6.480   1.744   7.865 -0.4689 -0.2370 -0.2746
  408MOL0     C53738   6.331   1.776   7.861  0.0440 -0.8386  0.4494
  408MOL0     C53739   6.241   1.724   7.974 -0.1127  0.1472 -0.0963
  408MOL0     C53740   6.114   1.808   7.992  0.2498 -0.1136 -0.3516
  408MOL0     N53741   6.028   1.802   7.876 -0.3389  0.0713 -0.5418
  408MOL0     C53742   6.011   1.919   7.795  0.1095 -1.1203  0.7720
  408MOL0     C53743   5.911   1.884   7.714  1.2169  0.0271  0.1882
  408MOL0     C53744   5.832   1.968   7.619  0.8232  0.3046  0.6194
  408MOL0     C53745   5.735   2.064   7.695  0.0726  0.8360  0.2215
  408MOL0     C53746   5.644   2.157   7.600 -0.0046  0.4452 -0.1823
  408MOL0     C53747   5.536   2.061   7.548  0.3001  0.1857  0.6715
  408MOL0     O53748   5.425   2.128   7.478 -0.6722  0.3836  0.5066
  408MOL0     C53749   5.334   2.049   7.416 -0.3147  0.1568  0.2933
  408MOL0     C53750   5.277   1.930   7.468 -0.0638 -0.4417  0.2952
  408MOL0     C53751   5.193   1.847   7.389  0.3765 -0.2618  0.4166
  408MOL0     C53752   5.156   1.890   7.260  0.3276  0.5320  1.4781
  408MOL0     C53753   5.058   1.816   7.177 -0.0724  0.0029 -0.6343
  408MOL0     O53754   4.960   1.751   7.252  0.1004  0.0282 -0.5188
  408MOL0     C53755   4.856   1.697   7.183 -0.4446  0.3378  0.0431
  408MOL0     C53756   4.777   1.767   7.085  0.3568 -0.8237  0.4199
  408MOL0     C53757   4.670   1.700   7.023  0.2898 -0.3911  0.3792
  408MOL0     C53758   4.619   1.579   7.073  0.0079 -0.1922 -0.0344
  408MOL0     O53759   4.503   1.517   7.030 -0.0221 -0.0652  0.3454
  408MOL0     C53760   4.471   1.525   6.886 -0.6108  0.1093 -0.5308
  408MOL0     C53761   4.373   1.433   6.831  0.5127  0.5273  0.1967
  408MOL0     C53762   4.247   1.438   6.918  0.5767  0.9249  0.6836
  408MOL0     C53763   4.122   1.370   6.850 -1.2701  0.3938  0.3179
  408MOL0     C53764   3.999   1.363   6.938  0.7104 -0.8348 -0.0679
  408MOL0     C53765   3.861   1.388   6.875  0.6146  0.4957 -0.0381
  408MOL0     C53766   3.819   1.532   6.847  0.0971 -0.0069  0.2004
  408MOL0     C53767   3.671   1.541   6.802 -0.2629  0.0228 -0.2999
  408MOL0    Cl53768   3.642   1.455   6.649 -0.5093  0.2105  0.1155
  408MOL0     C53769   4.687   1.521   7.183 -0.6868  0.2705 -0.0703
  408MOL0     C53770   4.809   1.571   7.236  0.1920 -0.4910  0.0919
  408MOL0     O53771   5.058   1.829   7.053 -0.2165 -0.5664 -0.2329
  408MOL0     C53772   5.200   2.011   7.211 -0.4596  0.3824 -0.4109
  408MOL0     C53773   5.293   2.083   7.290  0.1158  0.1873 -0.8461
  408MOL0     N53774   5.867   1.747   7.744 -0.2688  0.4718 -0.2199
  408MOL0     N53775   5.942   1.700   7.845  0.4381 -0.0223  0.0051
  408MOL0     C53776   7.179   1.750   7.890  0.4471  0.4623  0.1053
  408MOL0     C53777   7.313   1.736   7.908  0.3787  0.0417 -1.0742
  408MOL0     C53778   7.766   1.895   7.891  0.5512  0.4445  0.6553
  408MOL0     C53779   7.806   1.759   7.879  0.6779 -0.3539  0.0360
  408MOL0     C53780   7.938   1.737   7.832 -0.8864 -0.5054 -0.0904
  408MOL0     C53781   8.030   1.845   7.811  0.0484 -0.5843  0.2347
  408MOL0     O53782   8.151   1.828   7.749  0.6597  0.5881  0.0263
  408MOL0     C53783   8.215   1.702   7.765 -0.3028  0.5518 -0.1302
  408MOL0     C53784   8.353   1.706   7.705  0.3252  0.0162  0.0556
  408MOL0     C53785   8.444   1.814   7.749 -0.3548 -0.2261  0.4134
  408MOL0     C53786   8.562   1.835   7.647 -0.3554  0.7617  0.3304
  408MOL0     C53787   8.664   1.727   7.669  0.2529 -0.6271 -0.6028
  408MOL0     C53788   8.747   1.633   7.676  0.2290 -0.2775  0.3890
  408MOL0     C53789   7.987   1.972   7.843  0.1580 -0.1402 -0.1889
  408MOL0     C53790   7.860   1.997   7.879 -0.6460 -0.1237 -0.4876
  408MOL0     H53791   7.395   2.049   7.807 -0.4523 -0.1016 -2.9039
  408MOL0     H53792   7.157   2.070   7.802  1.9000  1.8412  0.5265
  408MOL0     H53793   6.991   1.995   7.670 -1.1371  3.7728  0.5016
  408MOL0     H53794   6.906   2.041   7.821  1.6541  0.5173 -2.2023
  408MOL0     H53795   6.812   1.833   7.624 -0.8599  1.1901 -1.4889
  408MOL0     H53796   6.750   1.998   7.638  2.6231  2.7793  0.6908
  408MOL0     H53797   6.699   1.910   7.900 -0.1842 -2.0183  1.9619
  408MOL0     H53798   6.729   1.746   7.831  2.4719  0.3197 -1.5311
  408MOL0     H53799   6.494   1.934   7.761 -0.4146  0.0087  0.6805
  408MOL0     H53800   6.533   1.786   7.678  1.0315  0.4027  0.8606
  408MOL0     H53801   6.509   1.777   7.965  3.4852  1.0444 -1.6306
  408MOL0     H53802   6.513   1.640   7.851  2.6664  0.5321  0.4948
  408MOL0     H53803   6.291   1.745   7.764 -1.1940 -0.4734  0.8216
  408MOL0     H53804   6.320   1.885   7.866 -0.6594 -0.9044  0.5211
  408MOL0     H53805   6.218   1.623   7.941  1.0455 -0.1828  0.0688
  408MOL0     H53806   6.292   1.729   8.071 -0.1109 -0.1011 -0.0836
  408MOL0     H53807   6.138   1.914   7.996  0.1647  0.2307 -4.5239
  408MOL0     H53808   6.056   1.773   8.078 -0.0152  2.1489  0.4568
  408MOL0     H53809   6.061   2.015   7.795 -0.1440 -0.8625  4.3541
  408MOL0     H53810   5.774   1.905   7.551  2.4632 -0.8262  0.1997
  408MOL0     H53811   5.893   2.031   7.554 -0.5945  0.5679 -0.4973
  408MOL0     H53812   5.790   2.128   7.764  0.9165  0.5590 -0.1858
  408MOL0     H53813   5.675   2.002   7.762  1.9091 -1.0308  0.2396
  408MOL0     H53814   5.598   2.242   7.651  0.7934 -0.1950  1.7025
  408MOL0     H53815   5.706   2.192   7.517  1.3039 -1.7511 -0.2168
  408MOL0     H53816   5.492   1.992   7.621 -0.5705 -3.5681 -3.0273
  408MOL0     H53817   5.591   1.995   7.481 -3.0731  0.5361 -2.7610
  408MOL0     H53818   5.309   1.896   7.566  0.0095  0.9855  0.7958
  408MOL0     H53819   5.161   1.754   7.433  0.8556 -0.8487 -0.4520
  408MOL0     H53820   4.794   1.872   7.064  0.4503 -1.0410 -0.6339
  408MOL0     H53821   4.618   1.748   6.940 -3.7509 -0.7671  2.4240
  408MOL0     H53822   4.561   1.532   6.824 -1.4214  0.0531 -1.7552
  408MOL0     H53823   4.427   1.624   6.870  1.5868  1.0541 -1.1463
  408MOL0     H53824   4.411   1.331   6.825  0.1797  0.4838 -2.3848
  408MOL0     H53825   4.344   1.473   6.733 -0.1028 -0.6904 -0.1390
  408MOL0     H53826   4.240   1.544   6.946 -1.6460  0.2546  3.2121
  408MOL0     H53827   4.274   1.382   7.008 -0.4725  1.8874  1.6304
  408MOL0     H53828   4.102   1.434   6.764  0.9923  0.3239 -0.3184
  408MOL0     H53829   4.145   1.266   6.824  0.1244 -0.2553  3.5920
  408MOL0     H53830   4.005   1.433   7.021 -0.1305 -3.8469  2.7627
  408MOL0     H53831   3.996   1.268   6.993 -0.1629 -1.7662 -1.6383
  408MOL0     H53832   3.787   1.353   6.948 -1.2065  0.2691 -1.8946
  408MOL0     H53833   3.847   1.326   6.786 -2.5079  1.2279 -0.1689
  408MOL0     H53834   3.834   1.591   6.938  1.1121 -1.6420  1.1497
  408MOL0     H53835   3.884   1.564   6.765  0.2952 -1.8563 -0.4022
  408MOL0     H53836   3.628   1.641   6.801  1.5078  0.8452  1.1867
  408MOL0     H53837   3.621   1.469   6.868  1.5046  0.8105  2.0034
  408MOL0     H53838   4.655   1.424   7.220 -1.4917 -0.0924 -1.6274
  408MOL0     H53839   4.847   1.529   7.329  3.2117  0.9343 -0.3913
  408MOL0     H53840   5.170   2.039   7.111 -1.8228  0.0986 -0.1028
  408MOL0     H53841   5.340   2.175   7.257  0.2752 -0.0103 -1.1680
  408MOL0     H53842   7.120   1.665   7.924 -1.6889  2.0270  0.5603
  408MOL0     H53843   7.350   1.638   7.937 -0.7262 -0.5352 -1.5644
  408MOL0     H53844   7.732   1.680   7.884  0.1407  0.0977 -0.6343
  408MOL0     H53845   7.972   1.633   7.835 -0.3418 -0.3426  2.9001
  408MOL0     H53846   8.169   1.624   7.704  0.1101  1.9828 -2.4289
  408MOL0     H53847   8.216   1.673   7.870 -0.5948  0.9903 -0.0034
  408MOL0     H53848   8.408   1.614   7.725 -1.0624 -2.1880 -4.7424
  408MOL0     H53849   8.341   1.708   7.596 -0.5128 -0.1142  0.1366
  408MOL0     H53850   8.484   1.794   7.849  3.2549 -2.1008 -1.2282
  408MOL0     H53851   8.386   1.906   7.757  0.1146  0.3557 -2.1259
  408MOL0     H53852   8.524   1.829   7.545  0.2606 -2.2874  0.2044
  408MOL0     H53853   8.612   1.931   7.661  0.3847  0.5463 -0.7772
  408MOL0     H53854   8.821   1.556   7.672  2.3465  1.6949 -0.2796
  408MOL0     H53855   8.059   2.053   7.833 -0.5993  0.4552 -1.0133
  408MOL0     H53856   7.829   2.100   7.892  1.7981  1.4895 -5.0880
  409MOL0     O53857   2.440   6.653   0.286 -0.6512 -0.4048  0.3544
  409MOL0     C53858   2.508   6.579   0.212  1.3342 -0.0781 -0.8356
  409MOL0     O53859   2.465   6.494   0.117 -0.0015 -0.0671  0.1688
  409MOL0     C53860   2.338   6.507   0.064  1.2016  0.7846 -0.0088
  409MOL0     C53861   2.214   6.536   0.126 -0.0715 -0.5910  0.4928
  409MOL0     C53862   2.096   6.538   0.052  0.4224 -0.0728 -0.5022
  409MOL0     C53863   2.083   6.507  -0.083 -1.1399  0.1249 -0.0198
  409MOL0     O53864   1.966   6.510  -0.156 -0.4726  0.1635 -0.4308
  409MOL0     C53865   1.961   6.465  -0.289 -0.4602  0.2417 -0.1039
  409MOL0     C53866   1.825   6.399  -0.323  0.2356  0.5409 -0.0937
  409MOL0     C53867   1.809   6.384  -0.467  0.7299  0.7041  0.5028
  409MOL0     C53868   1.816   6.512  -0.551 -0.1027 -0.3228  1.0194
  409MOL0     C53869   1.788   6.502  -0.701 -0.0643  0.8044 -0.7261
  409MOL0     C53870   1.644   6.471  -0.724 -0.2396 -0.7370  1.4840
  409MOL0     C53871   1.555   6.583  -0.690  0.7458  0.0084 -0.0152
  409MOL0     C53872   1.433   6.588  -0.782 -0.5927  0.0505  0.3211
  409MOL0     N53873   1.343   6.695  -0.754  0.1563 -1.0128  0.5989
  409MOL0     C53874   1.262   6.705  -0.644 -0.4793 -0.3257 -0.3629
  409MOL0     C53875   1.206   6.829  -0.649  1.0522 -0.1668 -0.5135
  409MOL0     C53876   1.115   6.894  -0.546  0.0006  0.9734  0.3547
  409MOL0     C53877   0.977   6.897  -0.602  1.1233 -0.4476  0.1967
  409MOL0     C53878   0.869   6.916  -0.492  0.1205 -0.5091 -1.0456
  409MOL0     C53879   0.730   6.952  -0.540 -0.3706 -0.0996 -1.2825
  409MOL0     O53880   0.635   6.925  -0.432 -0.7341  0.0621  0.2700
  409MOL0     C53881   0.500   6.956  -0.465 -0.6907 -0.4290  0.0294
  409MOL0     C53882   0.438   6.936  -0.594 -0.3102 -0.2690 -0.0984
  409MOL0     C53883   0.304   6.979  -0.601 -0.5380 -0.8606 -0.5618
  409MOL0     C53884   0.235   7.049  -0.507  0.3051 -0.4534 -0.0964
  409MOL0     C53885   0.096   7.092  -0.526  1.2615  0.3347  0.0248
  409MOL0     O53886   0.054   7.079  -0.657 -0.2223  0.5676 -0.1675
  409MOL0     C53887  -0.074   7.111  -0.705 -0.8520  0.2922 -0.1597
  409MOL0     C53888  -0.177   7.170  -0.630  1.3975  0.1163 -0.3556
  409MOL0     C53889  -0.303   7.203  -0.684  0.6610 -1.5878  0.0667
  409MOL0     C53890  -0.331   7.168  -0.819  0.1290 -0.8326  0.3801
  409MOL0     O53891  -0.445   7.200  -0.885 -0.0834 -0.8757 -0.1128
  409MOL0     C53892  -0.569   7.238  -0.822  1.0702  0.2005 -0.8503
  409MOL0     C53893  -0.675   7.234  -0.931 -0.0528  0.4270 -0.3523
  409MOL0     C53894  -0.821   7.221  -0.889  0.3981  0.2954 -0.4734
  409MOL0     C53895  -0.885   7.358  -0.871  0.3736  0.2457  0.1830
  409MOL0     C53896  -1.035   7.361  -0.847 -0.0557 -1.1501  0.1180
  409MOL0     C53897  -1.125   7.284  -0.942  0.5794  0.0142  0.8271
  409MOL0     C53898  -1.268   7.321  -0.950 -0.0722  0.4755 -0.6841
  409MOL0     C53899  -1.345   7.256  -1.059 -0.1700  0.0296  0.1757
  409MOL0    Cl53900  -1.317   7.329  -1.224  0.0486  0.1303 -0.4288
  409MOL0     C53901  -0.238   7.103  -0.901 -0.1193 -0.1339 -0.0082
  409MOL0     C53902  -0.115   7.077  -0.841 -0.2558  0.2756  0.3934
  409MOL0     O53903   0.038   7.146  -0.432  0.1799 -0.3143 -0.2149
  409MOL0     C53904   0.309   7.083  -0.396 -0.0408 -0.5732 -0.0194
  409MOL0     C53905   0.440   7.033  -0.378 -0.3283 -1.8416 -0.8687
  409MOL0     N53906   1.242   6.890  -0.768 -0.5403  0.2135  0.8047
  409MOL0     N53907   1.325   6.806  -0.825  0.1934  0.0512  0.7004
  409MOL0     C53908   2.207   6.463  -0.139  0.7431 -1.0104 -1.0698
  409MOL0     C53909   2.330   6.466  -0.068  1.1260  0.0084 -1.1844
  409MOL0     C53910   2.655   6.587   0.245  0.0344 -0.3964  0.2731
  409MOL0     C53911   2.728   6.691   0.299  0.3102 -0.5429  0.1120
  409MOL0     C53912   2.860   6.686   0.334  0.4098  0.1241 -0.2726
  409MOL0     C53913   2.936   6.575   0.297  0.1372 -0.3272  0.3086
  409MOL0     O53914   3.067   6.555   0.317 -0.2547 -0.1762 -0.9531
  409MOL0     C53915   3.114   6.609   0.438 -1.1359  0.6743  0.0596
  409MOL0     C53916   3.266   6.595   0.457 -0.2304  0.7586 -0.1031
  409MOL0     C53917   3.342   6.679   0.349 -0.0593  0.3047 -0.6151
  409MOL0     C53918   3.499   6.676   0.355 -0.8190  0.7853 -0.2966
  409MOL0     C53919   3.543   6.681   0.489  0.2411 -0.7134  0.0464
  409MOL0     C53920   3.591   6.697   0.597  0.2827 -0.4115  0.3205
  409MOL0     C53921   2.870   6.464   0.237 -0.0832 -0.5552 -0.5718
  409MOL0     C53922   2.730   6.470   0.216  0.1365  0.5186  0.0947
  409MOL0     H53923   2.212   6.566   0.230  0.9409  0.2398  0.3051
  409MOL0     H53924   2.008   6.577   0.102  1.9113  3.0777 -0.0512
  409MOL0     H53925   2.042   6.394  -0.309  1.5596  1.9850  1.3794
  409MOL0     H53926   1.979   6.548  -0.357 -0.7199 -2.7609 -4.2142
  409MOL0     H53927   1.744   6.460  -0.280  0.0438 -0.3020  0.7853
  409MOL0     H53928   1.821   6.302  -0.272  0.1996  0.4047 -0.3533
  409MOL0     H53929   1.706   6.349  -0.477  0.7818  1.1701 -2.3788
  409MOL0     H53930   1.878   6.307  -0.504  1.7473  1.6633  0.3398
  409MOL0     H53931   1.756   6.584  -0.496  0.0404  0.4706  0.1573
  409MOL0     H53932   1.921   6.542  -0.562 -0.2678 -0.4043 -1.6077
  409MOL0     H53933   1.844   6.418  -0.743 -2.7363 -1.1680 -0.6053
  409MOL0     H53934   1.805   6.601  -0.744 -2.1688  2.3246  1.6551
  409MOL0     H53935   1.612   6.379  -0.674  1.8451 -1.2485  1.9898
  409MOL0     H53936   1.636   6.454  -0.832  1.4922  4.8341  0.1605
  409MOL0     H53937   1.511   6.575  -0.590 -1.6512 -0.5041 -1.0357
  409MOL0     H53938   1.609   6.676  -0.705  0.3702  0.1274 -0.6572
  409MOL0     H53939   1.381   6.493  -0.762 -2.2601  0.7364 -0.5269
  409MOL0     H53940   1.470   6.597  -0.884  0.8598  0.5416  0.8746
  409MOL0     H53941   1.229   6.627  -0.576 -3.8207  0.2447 -1.1658
  409MOL0     H53942   1.148   6.985  -0.496 -0.5337 -1.1622  5.2231
  409MOL0     H53943   1.119   6.833  -0.455  1.8433 -1.4379 -1.2215
  409MOL0     H53944   0.951   6.799  -0.643 -1.1903 -0.5177  1.6355
  409MOL0     H53945   0.979   6.972  -0.682  0.9511 -0.5094  0.1328
  409MOL0     H53946   0.862   6.823  -0.435 -1.3490 -1.2431 -2.3463
  409MOL0     H53947   0.905   7.002  -0.435 -2.6498  0.8681 -1.1846
  409MOL0     H53948   0.713   6.884  -0.624  0.3505  1.1826 -2.4889
  409MOL0     H53949   0.718   7.054  -0.576 -0.7147 -0.4217 -2.0964
  409MOL0     H53950   0.492   6.904  -0.683 -0.6592 -0.9349 -0.0772
  409MOL0     H53951   0.263   6.974  -0.701 -2.5058  3.2554 -0.1504
  409MOL0     H53952  -0.174   7.185  -0.522 -1.1596 -0.5553 -0.1392
  409MOL0     H53953  -0.371   7.269  -0.630  1.0122 -1.8773  0.8754
  409MOL0     H53954  -0.554   7.340  -0.784 -1.7170  1.0818 -1.8775
  409MOL0     H53955  -0.587   7.163  -0.745  2.0331 -2.0665 -2.6965
  409MOL0     H53956  -0.651   7.157  -1.004 -1.3057  1.0135 -1.4294
  409MOL0     H53957  -0.658   7.324  -0.990 -0.6999  2.9668  3.0121
  409MOL0     H53958  -0.838   7.164  -0.797 -0.6397 -0.9620 -1.3999
  409MOL0     H53959  -0.872   7.157  -0.962  1.3254 -1.9162  0.7305
  409MOL0     H53960  -0.829   7.410  -0.793 -1.7485  2.3847  0.3943
  409MOL0     H53961  -0.853   7.424  -0.953  2.8281  0.6625  1.3793
  409MOL0     H53962  -1.066   7.466  -0.846 -0.2966 -1.2082  1.7460
  409MOL0     H53963  -1.062   7.324  -0.747 -1.9837  0.7182  0.3578
  409MOL0     H53964  -1.119   7.179  -0.910 -1.6964 -0.0452  1.2051
  409MOL0     H53965  -1.090   7.296  -1.045 -0.1735  1.5029  0.7299
  409MOL0     H53966  -1.317   7.290  -0.857  1.6698 -1.2519 -0.2885
  409MOL0     H53967  -1.273   7.428  -0.972 -2.4758  0.2184 -1.6301
  409MOL0     H53968  -1.453   7.256  -1.039  0.1498 -0.5337  2.1147
  409MOL0     H53969  -1.322   7.150  -1.068  0.0660 -0.3447  3.6647
  409MOL0     H53970  -0.266   7.067  -0.999  1.8446  2.3202 -1.5855
  409MOL0     H53971  -0.028   7.036  -0.891  0.8606  0.0911  2.3654
  409MOL0     H53972   0.271   7.142  -0.313 -2.9337  0.7706 -2.0883
  409MOL0     H53973   0.491   7.062  -0.287 -4.4741 -0.1795  1.1964
  409MOL0     H53974   2.224   6.426  -0.239  0.2702  1.7891 -2.2980
  409MOL0     H53975   2.425   6.442  -0.114  1.7834 -1.5218  0.8172
  409MOL0     H53976   2.664   6.776   0.322 -0.7092 -1.9086  2.7185
  409MOL0     H53977   2.901   6.768   0.392  0.9054 -0.8609  0.8266
  409MOL0     H53978   3.063   6.561   0.522 -1.1522  1.6021  0.5931
  409MOL0     H53979   3.103   6.718   0.445 -0.3533  0.8555 -1.2592
  409MOL0     H53980   3.274   6.614   0.564 -0.6784  0.2374  0.0261
  409MOL0     H53981   3.296   6.493   0.432  0.5177  1.4291 -2.1159
  409MOL0     H53982   3.315   6.785   0.362 -3.3166 -0.4823 -0.1803
  409MOL0     H53983   3.311   6.648   0.248  1.2363  1.8947 -1.5510
  409MOL0     H53984   3.542   6.587   0.308 -3.2989 -0.4104 -0.4670
  409MOL0     H53985   3.547   6.759   0.302  2.9665 -1.6274 -1.0751
  409MOL0     H53986   3.642   6.713   0.690 -1.6401  2.3185  1.0259
  409MOL0     H53987   2.919   6.371   0.210  1.0472 -0.4035  0.8291
  409MOL0     H53988   2.681   6.389   0.162 -1.6669  1.2494  0.5841
  410MOL0     O53989   7.040   8.081   4.542 -0.5070  0.2876 -0.0832
  410MOL0     C53990   7.013   8.000   4.626  0.7776 -1.1664  1.1608
  410MOL0     O53991   6.895   7.934   4.623  0.0645 -0.4156 -0.4847
  410MOL0     C53992   6.778   7.979   4.563 -0.1599 -0.0899 -0.1431
  410MOL0     C53993   6.754   8.066   4.451 -0.6610  0.2880 -0.6444
  410MOL0     C53994   6.636   8.120   4.422  0.4526  0.3745 -0.0197
  410MOL0     C53995   6.528   8.059   4.486 -0.7209 -0.7165 -0.2955
  410MOL0     O53996   6.397   8.100   4.462 -0.1831  1.3053 -0.2045
  410MOL0     C53997   6.362   8.200   4.359  0.4809  0.2287  0.0220
  410MOL0     C53998   6.213   8.227   4.374  0.1327  0.1176 -0.1867
  410MOL0     C53999   6.125   8.097   4.338 -0.2044  0.5152 -0.0379
  410MOL0     C54000   5.975   8.140   4.328  0.5642 -1.0798  0.3113
  410MOL0     C54001   5.893   8.013   4.276 -0.0893 -0.0565 -0.4152
  410MOL0     C54002   5.747   8.008   4.302  0.4032  0.3403  0.1894
  410MOL0     C54003   5.663   8.095   4.198 -0.2803 -0.5157  0.2949
  410MOL0     C54004   5.658   8.242   4.231  0.2553  0.3151 -0.0689
  410MOL0     N54005   5.542   8.289   4.154  0.5390  0.1129 -0.2996
  410MOL0     C54006   5.423   8.312   4.217 -0.3319 -0.2099  0.1346
  410MOL0     C54007   5.352   8.386   4.127  0.1163 -0.7163  0.9490
  410MOL0     C54008   5.223   8.469   4.166  0.0006  0.0465 -0.6721
  410MOL0     C54009   5.130   8.496   4.042  0.1632 -0.1861  0.0845
  410MOL0     C54010   5.005   8.568   4.089 -0.7333 -0.1935  0.0034
  410MOL0     C54011   4.893   8.531   3.987 -0.6320  0.4455  0.3818
  410MOL0     O54012   4.781   8.616   4.018 -0.5267 -0.7800  0.2787
  410MOL0     C54013   4.667   8.580   3.965  0.8309 -0.8576  0.2161
  410MOL0     C54014   4.643   8.490   3.866 -0.5634  0.4371  0.5074
  410MOL0     C54015   4.511   8.478   3.808  0.7742 -0.0568  0.8314
  410MOL0     C54016   4.397   8.555   3.853  0.2998 -0.6074  0.4777
  410MOL0     C54017   4.257   8.541   3.802  0.9277  0.2944  0.0736
  410MOL0     O54018   4.171   8.626   3.853 -0.1640 -0.3907  0.3828
  410MOL0     C54019   4.041   8.614   3.816  0.5728  0.4327 -0.6209
  410MOL0     C54020   3.961   8.497   3.824 -0.1558 -0.0473  0.1491
  410MOL0     C54021   3.828   8.498   3.782  0.3574  0.0159 -0.5053
  410MOL0     C54022   3.765   8.611   3.741  0.4598 -0.8872 -1.1220
  410MOL0     O54023   3.632   8.605   3.712 -0.8814  0.0206 -0.1118
  410MOL0     C54024   3.573   8.725   3.652  0.3194  0.5701  0.5037
  410MOL0     C54025   3.457   8.695   3.556  0.4192 -0.0431 -0.4526
  410MOL0     C54026   3.341   8.611   3.617 -0.4271  0.1156 -0.3355
  410MOL0     C54027   3.221   8.613   3.531 -0.2168  0.1716  0.3772
  410MOL0     C54028   3.115   8.520   3.571  0.1078  0.9226  0.6330
  410MOL0     C54029   3.036   8.469   3.448  0.7936 -1.2267  0.2275
  410MOL0     C54030   2.962   8.583   3.369  0.4759 -0.1015  0.3378
  410MOL0     C54031   2.975   8.578   3.219 -0.4328 -0.3228 -0.4749
  410MOL0    Cl54032   3.158   8.602   3.186  0.2970  0.1957 -0.3256
  410MOL0     C54033   3.837   8.733   3.738  0.5642 -0.2770  0.6169
  410MOL0     C54034   3.978   8.732   3.771  0.1064  0.0398  0.5011
  410MOL0     O54035   4.221   8.438   3.730  0.3776 -1.4482  0.1780
  410MOL0     C54036   4.429   8.645   3.965  0.3111  0.1689 -0.7180
  410MOL0     C54037   4.559   8.661   4.017  0.2674  0.5899  0.1036
  410MOL0     N54038   5.428   8.394   4.012 -0.1769  0.2254 -0.1081
  410MOL0     N54039   5.539   8.335   4.028 -0.6252 -0.3568  0.0413
  410MOL0     C54040   6.536   7.971   4.595  0.1435 -0.3392 -0.0968
  410MOL0     C54041   6.668   7.940   4.637  0.4396 -0.1128 -0.0458
  410MOL0     C54042   7.111   7.971   4.722  1.3055  0.3297 -0.3134
  410MOL0     C54043   7.126   7.831   4.750  0.4448  1.1267 -0.3632
  410MOL0     C54044   7.227   7.786   4.832 -1.0745 -0.6931 -0.6235
  410MOL0     C54045   7.324   7.878   4.889  0.0912 -0.8077 -0.3148
  410MOL0     O54046   7.426   7.840   4.978  0.4600  0.1227  0.1954
  410MOL0     C54047   7.499   7.732   4.929 -0.1444  0.5047 -0.2461
  410MOL0     C54048   7.648   7.770   4.928  0.9024  0.1040  0.4015
  410MOL0     C54049   7.729   7.663   4.854 -0.2942  0.7995 -0.1283
  410MOL0     C54050   7.880   7.691   4.859 -0.7161 -0.8095  0.9252
  410MOL0     C54051   7.938   7.636   4.988 -0.4020 -0.1777  0.2319
  410MOL0     C54052   7.988   7.600   5.101  0.2957 -0.5776  0.4261
  410MOL0     C54053   7.310   8.012   4.859 -0.3385 -0.2391 -0.4673
  410MOL0     C54054   7.213   8.057   4.772  0.2532 -1.0024 -0.1227
  410MOL0     H54055   6.848   8.099   4.409  0.8721 -0.9091  1.6430
  410MOL0     H54056   6.607   8.201   4.356 -0.8596 -1.2648 -1.6022
  410MOL0     H54057   6.376   8.165   4.256 -0.5481  0.4490 -0.2026
  410MOL0     H54058   6.421   8.291   4.374  2.7934 -0.8139 -1.8873
  410MOL0     H54059   6.192   8.309   4.306 -2.0255 -1.0159 -0.9742
  410MOL0     H54060   6.196   8.245   4.481 -0.7378  0.9326 -0.4520
  410MOL0     H54061   6.136   8.013   4.407  2.6374  0.5709 -0.3201
  410MOL0     H54062   6.159   8.071   4.237  0.3342  2.2820 -0.3486
  410MOL0     H54063   5.936   8.175   4.424 -0.8844 -3.2989  0.5995
  410MOL0     H54064   5.964   8.218   4.252 -2.6791 -1.3799  0.3463
  410MOL0     H54065   5.931   7.916   4.312 -0.7423 -0.5047 -0.9188
  410MOL0     H54066   5.914   7.989   4.172  0.8512 -0.9691 -0.0412
  410MOL0     H54067   5.736   8.040   4.406  0.7176 -1.8619  0.9579
  410MOL0     H54068   5.723   7.902   4.294 -0.7720  0.7255 -2.3581
  410MOL0     H54069   5.706   8.083   4.098 -2.3970 -2.2738 -0.4831
  410MOL0     H54070   5.565   8.051   4.178 -0.9224  0.9352  0.1842
  410MOL0     H54071   5.753   8.290   4.205  0.7016  0.5511  1.8578
  410MOL0     H54072   5.651   8.262   4.339  1.3034  1.1314 -0.1356
  410MOL0     H54073   5.391   8.278   4.316  1.4883 -0.6118  0.6305
  410MOL0     H54074   5.259   8.564   4.208  1.6527 -1.2801  1.0872
  410MOL0     H54075   5.152   8.435   4.242  0.3042  4.1541  1.7574
  410MOL0     H54076   5.098   8.403   3.994 -2.7996  1.9007 -2.4000
  410MOL0     H54077   5.185   8.556   3.968 -0.8322  1.3747  0.5708
  410MOL0     H54078   4.972   8.524   4.183  2.8124 -3.9418 -0.2261
  410MOL0     H54079   5.018   8.675   4.106  1.7766 -0.9000  3.6013
  410MOL0     H54080   4.863   8.427   3.998 -1.6488  0.9275  2.9458
  410MOL0     H54081   4.915   8.550   3.882 -0.0077  0.9904  0.6004
  410MOL0     H54082   4.720   8.433   3.813 -0.6325  2.5765 -2.1240
  410MOL0     H54083   4.492   8.422   3.717  0.8490  2.9184 -1.1971
  410MOL0     H54084   3.993   8.404   3.869 -3.7645 -2.6353 -2.0926
  410MOL0     H54085   3.808   8.392   3.790  0.5119  0.0787  0.9296
  410MOL0     H54086   3.643   8.772   3.583 -1.9702  1.1550 -1.5792
  410MOL0     H54087   3.549   8.792   3.736 -2.1152 -1.4920  1.5840
  410MOL0     H54088   3.493   8.656   3.461  1.7786  0.5455 -0.2048
  410MOL0     H54089   3.415   8.794   3.535 -5.0895 -1.4001  2.3866
  410MOL0     H54090   3.329   8.645   3.720  4.2154 -2.3759  1.3335
  410MOL0     H54091   3.382   8.511   3.635 -0.7740  0.4622  2.8871
  410MOL0     H54092   3.186   8.716   3.523 -1.0529 -0.2647 -4.5372
  410MOL0     H54093   3.253   8.599   3.427 -2.8825 -0.1142 -0.4905
  410MOL0     H54094   3.055   8.558   3.654  1.9484 -0.8857  2.9194
  410MOL0     H54095   3.161   8.439   3.627  0.2585 -1.1168 -2.2356
  410MOL0     H54096   2.958   8.397   3.474 -0.7100 -1.0350 -3.2741
  410MOL0     H54097   3.120   8.432   3.389  2.9948  1.8041  1.1837
  410MOL0     H54098   2.854   8.576   3.384 -0.2805  1.0132 -3.4108
  410MOL0     H54099   2.993   8.679   3.411  0.4772 -0.7888  1.9907
  410MOL0     H54100   2.927   8.667   3.177 -0.4297  1.3888  2.8276
  410MOL0     H54101   2.943   8.484   3.173 -0.5028  0.3061 -1.7433
  410MOL0     H54102   3.790   8.829   3.717 -3.8753 -2.1164  1.0473
  410MOL0     H54103   4.034   8.824   3.772  0.5762 -0.2397  0.3512
  410MOL0     H54104   4.349   8.702   4.011  0.0059 -2.5726  2.4864
  410MOL0     H54105   4.591   8.727   4.096  1.0385  0.3455 -0.0018
  410MOL0     H54106   6.446   7.949   4.651 -0.1814  2.2900  0.5331
  410MOL0     H54107   6.697   7.873   4.717  1.8577 -1.2606 -1.4664
  410MOL0     H54108   7.063   7.756   4.702 -1.8371  2.0095  1.0690
  410MOL0     H54109   7.252   7.684   4.860  0.8818  0.4727  2.3779
  410MOL0     H54110   7.473   7.701   4.827  0.4830  0.9008 -0.5309
  410MOL0     H54111   7.483   7.645   4.993  1.4562 -0.7405 -1.4459
  410MOL0     H54112   7.658   7.856   4.862 -0.7159  0.1681  0.1974
  410MOL0     H54113   7.663   7.783   5.036 -1.9194  0.8916  0.7796
  410MOL0     H54114   7.686   7.652   4.754  2.1588  0.6003 -1.2263
  410MOL0     H54115   7.715   7.564   4.899  1.7550 -0.0060 -1.1580
  410MOL0     H54116   7.925   7.642   4.773  0.3208 -1.7371  1.9683
  410MOL0     H54117   7.892   7.799   4.844  2.3922 -1.2416 -0.2633
  410MOL0     H54118   8.027   7.578   5.199  1.0538  0.3488  0.3449
  410MOL0     H54119   7.367   8.091   4.908 -2.0959  3.3763 -3.6303
  410MOL0     H54120   7.222   8.161   4.743  1.8373 -1.4074 -1.1793
  411MOL0     O54121   1.608   2.078   6.416 -0.1099  0.2465 -0.4107
  411MOL0     C54122   1.610   2.086   6.292 -0.7807 -0.0633  0.6545
  411MOL0     O54123   1.507   2.106   6.208  0.1595 -0.3470 -0.6536
  411MOL0     C54124   1.391   2.152   6.266  0.1490 -0.2263 -0.1629
  411MOL0     C54125   1.315   2.087   6.369 -0.7119 -0.2075 -0.5445
  411MOL0     C54126   1.189   2.143   6.425 -0.2167 -0.9182  0.9465
  411MOL0     C54127   1.152   2.273   6.389  0.5139 -0.3907  0.3818
  411MOL0     O54128   1.031   2.323   6.444  0.7192  0.4553  0.7396
  411MOL0     C54129   0.934   2.226   6.497  0.4467 -0.4854  0.8653
  411MOL0     C54130   0.789   2.272   6.498  0.8649  0.1936 -0.4246
  411MOL0     C54131   0.693   2.152   6.475 -0.2746  0.0685 -0.1618
  411MOL0     C54132   0.702   2.050   6.586 -0.1797 -0.2251 -0.3564
  411MOL0     C54133   0.610   1.934   6.577 -0.8760  0.5154 -0.0807
  411MOL0     C54134   0.457   1.941   6.601  0.4355 -0.0488  0.3900
  411MOL0     C54135   0.414   2.002   6.737  0.8011 -0.2586 -0.2213
  411MOL0     C54136   0.463   1.929   6.859  0.0167 -0.2600 -0.6916
  411MOL0     N54137   0.386   1.799   6.884 -0.2784 -0.3480 -0.0299
  411MOL0     C54138   0.268   1.786   6.959 -0.7988  0.4447  0.5711
  411MOL0     C54139   0.246   1.655   6.963 -0.2557 -0.0893 -1.1005
  411MOL0     C54140   0.146   1.583   7.045 -0.3175 -0.2737 -0.2136
  411MOL0     C54141   0.004   1.631   6.998 -0.1733 -0.4961 -0.9399
  411MOL0     C54142  -0.089   1.532   7.065  0.1865 -0.6740  0.4607
  411MOL0     C54143  -0.233   1.550   7.027 -0.2305 -0.8700 -0.5616
  411MOL0     O54144  -0.297   1.676   7.078 -0.1857  0.2719  0.0215
  411MOL0     C54145  -0.399   1.645   7.171  0.2441 -0.4252 -1.2850
  411MOL0     C54146  -0.534   1.681   7.147 -0.7356  0.2975 -0.5664
  411MOL0     C54147  -0.624   1.676   7.257 -0.7957  0.1139  0.0765
  411MOL0     C54148  -0.592   1.613   7.375 -0.4908  0.4955 -0.0372
  411MOL0     C54149  -0.692   1.594   7.477  0.9253 -0.2913 -0.6328
  411MOL0     O54150  -0.657   1.512   7.584 -0.8271 -0.8407  0.3981
  411MOL0     C54151  -0.765   1.463   7.649 -0.0872 -0.2314  0.1292
  411MOL0     C54152  -0.832   1.540   7.745  0.3791 -0.2369 -0.3308
  411MOL0     C54153  -0.943   1.479   7.812 -0.3236 -0.4952 -0.5620
  411MOL0     C54154  -0.987   1.350   7.773  0.3129  0.4809  0.8541
  411MOL0     O54155  -1.093   1.299   7.847 -0.2850 -0.2395  0.1481
  411MOL0     C54156  -1.164   1.184   7.794 -0.0795  0.0414 -0.1791
  411MOL0     C54157  -1.284   1.164   7.887 -0.1577 -0.4729  0.2285
  411MOL0     C54158  -1.394   1.280   7.877  0.0874 -0.8533  0.1764
  411MOL0     C54159  -1.526   1.232   7.944  0.0474 -0.4428  0.5516
  411MOL0     C54160  -1.652   1.322   7.935  0.4933 -0.5055 -0.6053
  411MOL0     C54161  -1.785   1.254   7.951 -0.7638 -0.2773  0.5788
  411MOL0     C54162  -1.802   1.201   8.099  0.5351 -0.3454  0.3843
  411MOL0     C54163  -1.945   1.130   8.117 -0.4699  0.4617 -0.1955
  411MOL0    Cl54164  -2.071   1.243   8.077 -0.3084 -0.7511 -0.7669
  411MOL0     C54165  -0.919   1.289   7.674 -0.1157  0.0195  0.1344
  411MOL0     C54166  -0.802   1.334   7.610 -0.0098 -0.8365 -0.1821
  411MOL0     O54167  -0.807   1.634   7.452 -1.2540 -0.9257  0.2840
  411MOL0     C54168  -0.455   1.573   7.397  0.0794  0.0784 -0.8731
  411MOL0     C54169  -0.358   1.601   7.303  0.1874  0.4638  1.3167
  411MOL0     N54170   0.343   1.584   6.887  0.4378 -0.4890 -0.1312
  411MOL0     N54171   0.422   1.679   6.827 -0.2666 -0.2662 -0.4546
  411MOL0     C54172   1.235   2.334   6.305  0.4115  0.6901  0.5188
  411MOL0     C54173   1.347   2.278   6.237  0.3437  1.2877  0.0855
  411MOL0     C54174   1.741   2.069   6.228 -0.5380 -0.0141 -0.5958
  411MOL0     C54175   1.838   1.998   6.288 -0.3882  0.9010  0.0461
  411MOL0     C54176   1.970   1.979   6.239  0.1409  0.4076 -0.5910
  411MOL0     C54177   1.998   2.030   6.116 -0.6667 -0.5268  0.5583
  411MOL0     O54178   2.127   2.029   6.069  0.5046 -0.2687  0.3602
  411MOL0     C54179   2.146   1.927   5.973 -0.1920  0.0588 -0.6564
  411MOL0     C54180   2.261   1.965   5.881 -0.9297 -0.9953 -0.0202
  411MOL0     C54181   2.393   1.989   5.948 -0.5840  1.4672  0.4637
  411MOL0     C54182   2.511   2.010   5.835  0.4935 -0.2687 -0.9871
  411MOL0     C54183   2.643   2.064   5.883 -0.0971 -0.1309 -0.3163
  411MOL0     C54184   2.741   2.128   5.906 -0.2536 -0.3064  0.5354
  411MOL0     C54185   1.903   2.110   6.048 -0.0587  1.1243 -0.7534
  411MOL0     C54186   1.771   2.121   6.099 -0.0317  0.1391 -0.1911
  411MOL0     H54187   1.341   1.984   6.395 -0.2316 -0.2000 -0.9840
  411MOL0     H54188   1.130   2.084   6.493  0.5829 -1.3119  1.3197
  411MOL0     H54189   0.965   2.202   6.598 -1.4893  0.0764  1.6347
  411MOL0     H54190   0.925   2.135   6.438 -2.8904  0.0848  0.2857
  411MOL0     H54191   0.766   2.341   6.416  0.9458  2.4818  1.3734
  411MOL0     H54192   0.767   2.342   6.580  0.5382  1.7971 -1.8173
  411MOL0     H54193   0.721   2.105   6.381 -0.8437 -0.7873  0.0884
  411MOL0     H54194   0.591   2.188   6.457  0.6041  2.7156 -0.3439
  411MOL0     H54195   0.802   2.005   6.581 -0.1617 -0.1513 -0.6888
  411MOL0     H54196   0.693   2.103   6.681 -0.9370  1.3861 -1.2836
  411MOL0     H54197   0.655   1.860   6.644 -0.0220  0.9838 -0.1249
  411MOL0     H54198   0.632   1.886   6.482  0.5126  1.3919 -0.2296
  411MOL0     H54199   0.418   1.839   6.594  1.7671 -0.5174 -0.7391
  411MOL0     H54200   0.418   2.005   6.522  1.5297  3.2888  2.3762
  411MOL0     H54201   0.456   2.103   6.741  0.7798 -0.0376 -3.1064
  411MOL0     H54202   0.306   2.018   6.733  1.0303  1.2888 -3.5499
  411MOL0     H54203   0.453   1.991   6.948  0.3576  0.0483 -0.8640
  411MOL0     H54204   0.570   1.909   6.848  0.2208  1.6418 -2.8934
  411MOL0     H54205   0.203   1.856   7.012 -1.7379  1.9771 -2.3613
  411MOL0     H54206   0.158   1.611   7.150  1.1284 -0.5237 -0.2912
  411MOL0     H54207   0.159   1.475   7.039 -1.8659 -0.5496  0.7352
  411MOL0     H54208  -0.007   1.616   6.890 -0.6176  0.0362 -0.9715
  411MOL0     H54209  -0.016   1.733   7.032  1.1945 -0.7817  0.8890
  411MOL0     H54210  -0.065   1.434   7.023  1.3202 -1.0432  1.8720
  411MOL0     H54211  -0.068   1.528   7.173 -3.0622 -1.0398  1.1818
  411MOL0     H54212  -0.282   1.459   7.064  1.7764 -0.4888  3.6127
  411MOL0     H54213  -0.236   1.550   6.917  4.3493  1.2800 -0.9274
  411MOL0     H54214  -0.542   1.715   7.045  1.8386 -4.0288 -2.5178
  411MOL0     H54215  -0.720   1.722   7.234 -0.2933  0.2345 -1.9805
  411MOL0     H54216  -0.808   1.638   7.784 -2.3298  1.1526 -1.8390
  411MOL0     H54217  -0.994   1.535   7.889 -0.7801  0.7428 -1.7227
  411MOL0     H54218  -1.100   1.097   7.805 -0.7765 -0.7305 -1.9519
  411MOL0     H54219  -1.199   1.197   7.691  0.5559  3.7523 -0.0801
  411MOL0     H54220  -1.244   1.159   7.989  0.0059 -1.7203  0.1222
  411MOL0     H54221  -1.324   1.067   7.855  2.6843 -1.0901 -1.7965
  411MOL0     H54222  -1.413   1.307   7.772 -1.9107  2.0586  1.1608
  411MOL0     H54223  -1.353   1.372   7.919  3.2184 -0.6443 -2.8521
  411MOL0     H54224  -1.554   1.136   7.899 -2.8807  0.5084  0.1051
  411MOL0     H54225  -1.505   1.214   8.049 -0.0861  0.7327  0.7941
  411MOL0     H54226  -1.658   1.367   7.835  2.3593 -0.9487 -0.9621
  411MOL0     H54227  -1.638   1.400   8.010  2.1830 -1.1428 -0.1994
  411MOL0     H54228  -1.779   1.170   7.881 -0.6178  2.1366 -2.5434
  411MOL0     H54229  -1.865   1.313   7.905 -0.6029  0.2209  0.9318
  411MOL0     H54230  -1.714   1.143   8.127  0.5907  0.8670  3.0740
  411MOL0     H54231  -1.798   1.287   8.167  0.2497 -1.7416  2.2715
  411MOL0     H54232  -1.956   1.101   8.222  2.1305  0.8058  0.2472
  411MOL0     H54233  -1.945   1.032   8.068 -2.5468 -1.1891  2.8288
  411MOL0     H54234  -0.946   1.189   7.642  1.1319 -0.2219 -0.2174
  411MOL0     H54235  -0.738   1.270   7.551  1.1377 -1.6235  1.8207
  411MOL0     H54236  -0.433   1.525   7.493  0.4258  3.4447  0.8842
  411MOL0     H54237  -0.256   1.567   7.316 -0.7563 -3.5929 -0.2731
  411MOL0     H54238   1.205   2.436   6.284  0.5734  0.5804 -0.2912
  411MOL0     H54239   1.413   2.337   6.174  0.5429 -0.1327 -1.0813
  411MOL0     H54240   1.813   1.958   6.385  1.1776 -0.8812 -0.2134
  411MOL0     H54241   2.049   1.935   6.299 -0.3154  1.8510  1.1475
  411MOL0     H54242   2.058   1.902   5.913  0.1558 -1.2990 -0.6433
  411MOL0     H54243   2.167   1.835   6.028  1.0384  0.5030 -0.3442
  411MOL0     H54244   2.291   1.877   5.822  2.0504 -0.9209  1.2157
  411MOL0     H54245   2.240   2.050   5.816  1.0231 -0.4002  0.0859
  411MOL0     H54246   2.423   1.909   6.017 -0.1394  2.0607  0.9817
  411MOL0     H54247   2.381   2.081   6.007 -2.7191  2.1675 -0.9777
  411MOL0     H54248   2.522   1.917   5.778 -1.7733 -0.1559 -1.6841
  411MOL0     H54249   2.485   2.085   5.759 -1.3672 -0.0310 -0.1612
  411MOL0     H54250   2.842   2.159   5.924 -0.4696  2.0606 -1.7462
  411MOL0     H54251   1.940   2.153   5.955  2.4598 -0.5439 -0.6136
  411MOL0     H54252   1.698   2.181   6.045 -1.0840  2.3089  3.3247
  412MOL0     O54253  10.903   0.062   6.948  0.2406 -1.1353  0.8637
  412MOL0     C54254  10.868   0.099   7.059  0.0108  0.0301  0.2420
  412MOL0     O54255  10.743   0.125   7.102  0.2886 -0.1815 -0.4893
  412MOL0     C54256  10.638   0.162   7.028 -0.2560  0.2971  0.0889
  412MOL0     C54257  10.645   0.190   6.893 -0.3060 -0.1500 -0.2468
  412MOL0     C54258  10.533   0.234   6.828  0.1252  0.2776 -0.1481
  412MOL0     C54259  10.408   0.244   6.890 -0.3454 -0.8051 -0.1345
  412MOL0     O54260  10.306   0.310   6.822  0.1554 -0.3095  0.4526
  412MOL0     C54261  10.286   0.287   6.680 -0.4099 -0.0890 -1.0095
  412MOL0     C54262  10.137   0.338   6.653 -0.6316 -0.2997  0.1188
  412MOL0     C54263  10.135   0.492   6.677  0.2755 -0.0994 -0.4567
  412MOL0     C54264  10.003   0.557   6.648 -0.2146 -0.3928 -0.2695
  412MOL0     C54265   9.988   0.711   6.664  0.1561  0.1041 -0.6711
  412MOL0     C54266   9.842   0.764   6.661 -0.1552  0.9791 -0.0002
  412MOL0     C54267   9.853   0.911   6.696 -0.4658 -0.3148  0.3273
  412MOL0     C54268   9.716   0.987   6.702 -1.0060  0.1726 -0.0263
  412MOL0     N54269   9.622   0.954   6.593  1.2707 -0.3985 -0.8307
  412MOL0     C54270   9.640   0.988   6.461  0.8191  0.0729 -0.1131
  412MOL0     C54271   9.527   0.936   6.400 -0.4928 -0.8677  0.4880
  412MOL0     C54272   9.464   0.945   6.263 -0.4584 -0.2227  0.9200
  412MOL0     C54273   9.567   0.905   6.151 -0.0187 -0.9569 -0.7820
  412MOL0     C54274   9.594   0.753   6.145 -0.2313 -0.2773  0.7780
  412MOL0     C54275   9.467   0.673   6.117 -0.2504  0.0184 -0.2509
  412MOL0     O54276   9.413   0.710   5.989 -1.1289  0.0777  0.2231
  412MOL0     C54277   9.284   0.663   5.957 -1.0685 -1.8501  0.5524
  412MOL0     C54278   9.234   0.682   5.824 -0.0914  0.0312 -0.4496
  412MOL0     C54279   9.116   0.623   5.779 -0.5514  0.7133  0.0517
  412MOL0     C54280   9.037   0.546   5.868  2.0390  1.0804  0.7309
  412MOL0     C54281   8.919   0.476   5.810  0.3756 -0.1325  0.4010
  412MOL0     O54282   8.926   0.437   5.685  0.6690 -0.1009 -0.0479
  412MOL0     C54283   8.825   0.357   5.628  0.5994 -0.5471 -0.9899
  412MOL0     C54284   8.774   0.238   5.690  0.1162  0.3726  1.2750
  412MOL0     C54285   8.681   0.160   5.628  0.0344  0.3072 -0.0401
  412MOL0     C54286   8.629   0.192   5.502 -0.3946 -0.2194 -0.1276
  412MOL0     O54287   8.523   0.113   5.460 -0.2509  0.1055 -0.5129
  412MOL0     C54288   8.495   0.125   5.322  0.2940 -0.2094  0.3600
  412MOL0     C54289   8.434  -0.009   5.287 -0.5919 -0.2809 -0.1181
  412MOL0     C54290   8.297  -0.033   5.356  0.9422  0.8229  0.3188
  412MOL0     C54291   8.204  -0.102   5.250 -0.5784 -0.2931 -0.2223
  412MOL0     C54292   8.076  -0.162   5.324  0.0361 -0.1525  0.2674
  412MOL0     C54293   7.959  -0.163   5.232  0.3294 -1.0130  0.2962
  412MOL0     C54294   7.845  -0.264   5.266 -0.4968  0.9624  0.3982
  412MOL0     C54295   7.730  -0.257   5.168  0.6445 -0.4464 -0.6011
  412MOL0    Cl54296   7.616  -0.400   5.159  0.4148  0.5443 -0.1281
  412MOL0     C54297   8.683   0.305   5.436  0.0046  0.0605  0.3403
  412MOL0     C54298   8.787   0.388   5.498  0.1734  0.2995 -0.1202
  412MOL0     O54299   8.833   0.437   5.890 -0.0122 -0.0602  0.5830
  412MOL0     C54300   9.081   0.534   6.002 -0.0805 -0.3472 -0.7666
  412MOL0     C54301   9.199   0.594   6.040 -0.0319  0.3265 -1.0100
  412MOL0     N54302   9.446   0.881   6.492 -0.4547  0.3476  0.2731
  412MOL0     N54303   9.508   0.880   6.609  0.4071 -0.0742 -0.2284
  412MOL0     C54304  10.399   0.208   7.018  0.7595  0.1292  0.5116
  412MOL0     C54305  10.517   0.165   7.085  0.6277  0.9264  0.5292
  412MOL0     C54306  10.964   0.118   7.156  0.1874 -0.3762 -0.4319
  412MOL0     C54307  10.929   0.126   7.292  0.4293 -0.5437 -0.7033
  412MOL0     C54308  11.021   0.163   7.384 -0.4366 -0.4555  0.2932
  412MOL0     C54309  11.155   0.202   7.358 -0.6503 -0.2586 -1.5324
  412MOL0     O54310  11.247   0.254   7.450  0.0645  0.0177 -0.3253
  412MOL0     C54311  11.193   0.295   7.582 -0.2602 -0.2385 -0.1775
  412MOL0     C54312  11.318   0.345   7.661  1.1063  0.6961 -0.1641
  412MOL0     C54313  11.387   0.466   7.599 -0.0895 -0.6630  0.5732
  412MOL0     C54314  11.345   0.605   7.656  0.0869 -1.2094  0.0317
  412MOL0     C54315  11.412   0.710   7.577 -0.1260  0.4070 -0.0739
  412MOL0     C54316  11.484   0.785   7.514  0.2794  0.5894 -0.7619
  412MOL0     C54317  11.188   0.198   7.226  0.3042  0.6702 -0.0496
  412MOL0     C54318  11.100   0.158   7.122 -0.2077  0.0746 -0.1398
  412MOL0     H54319  10.739   0.198   6.838  1.3059 -0.6032  2.2486
  412MOL0     H54320  10.553   0.266   6.726  2.3346  1.0072  0.4584
  412MOL0     H54321  10.301   0.192   6.630 -2.2054  0.7592 -3.3426
  412MOL0     H54322  10.358   0.352   6.629  1.9278  0.5638  2.7152
  412MOL0     H54323  10.064   0.283   6.713  1.3739 -1.3959  1.6529
  412MOL0     H54324  10.122   0.331   6.544  0.2698  0.2206 -0.0539
  412MOL0     H54325  10.205   0.531   6.604 -1.8646  0.2685 -2.4295
  412MOL0     H54326  10.169   0.517   6.778  1.1414 -1.7884 -0.2907
  412MOL0     H54327   9.964   0.527   6.551  0.0553  2.8220 -1.4929
  412MOL0     H54328   9.928   0.514   6.715  0.1294 -0.1192  0.2990
  412MOL0     H54329  10.051   0.763   6.591 -1.5473  1.9024 -0.9639
  412MOL0     H54330  10.017   0.755   6.760  0.2608 -0.7869 -0.2908
  412MOL0     H54331   9.791   0.704   6.737  0.6291 -3.1871 -2.3973
  412MOL0     H54332   9.791   0.749   6.566  0.4128  0.2482 -0.2004
  412MOL0     H54333   9.910   0.928   6.787 -0.0622  1.3098 -0.1960
  412MOL0     H54334   9.912   0.965   6.621 -1.9837  1.6072  0.4385
  412MOL0     H54335   9.721   1.096   6.706 -1.8973  0.3695 -2.6754
  412MOL0     H54336   9.665   0.958   6.795  0.2715  0.0542  0.6524
  412MOL0     H54337   9.720   1.045   6.415  0.0088  2.3193  1.1382
  412MOL0     H54338   9.445   1.051   6.245 -1.1323 -0.5584 -0.5569
  412MOL0     H54339   9.366   0.897   6.248  0.6627 -1.6764 -3.1145
  412MOL0     H54340   9.659   0.963   6.143 -0.5488 -0.0179 -0.2832
  412MOL0     H54341   9.507   0.931   6.063 -2.1017 -3.4184 -0.2203
  412MOL0     H54342   9.668   0.730   6.067  0.6198  1.0374  1.1879
  412MOL0     H54343   9.637   0.726   6.241 -1.0850  0.9160  1.5225
  412MOL0     H54344   9.402   0.701   6.201 -0.6623 -3.0581  0.5680
  412MOL0     H54345   9.498   0.568   6.122  0.5871  0.2447 -0.5586
  412MOL0     H54346   9.296   0.726   5.747  1.1335 -1.9484 -0.6624
  412MOL0     H54347   9.076   0.644   5.680 -1.4857  2.9882  0.8417
  412MOL0     H54348   8.813   0.225   5.790  2.4284  0.6773  0.4873
  412MOL0     H54349   8.655   0.076   5.691 -0.7945  0.0615 -0.6860
  412MOL0     H54350   8.581   0.153   5.260 -1.4385  3.2679 -0.7212
  412MOL0     H54351   8.429   0.209   5.299  0.6948 -0.2970 -1.1968
  412MOL0     H54352   8.506  -0.090   5.302 -0.9813 -0.7984 -0.9288
  412MOL0     H54353   8.412  -0.007   5.180 -0.4653 -0.8360 -0.1587
  412MOL0     H54354   8.253   0.060   5.395  2.3142  1.5871  0.0953
  412MOL0     H54355   8.305  -0.099   5.443  1.2332  3.2122  2.2422
  412MOL0     H54356   8.176  -0.035   5.168  1.0162  0.2969 -0.3273
  412MOL0     H54357   8.258  -0.187   5.207 -1.3952 -0.7611 -0.3273
  412MOL0     H54358   8.055  -0.107   5.417 -1.6545 -0.0749 -0.1403
  412MOL0     H54359   8.108  -0.263   5.355  3.7086  0.0204 -2.2937
  412MOL0     H54360   7.999  -0.175   5.131  1.2741  3.0789  0.0370
  412MOL0     H54361   7.920  -0.061   5.236 -1.0155 -1.2925 -2.7890
  412MOL0     H54362   7.875  -0.368   5.280 -1.3381  0.8666  1.6537
  412MOL0     H54363   7.803  -0.229   5.361  0.4783  1.6163  0.6054
  412MOL0     H54364   7.761  -0.242   5.064 -0.1451  1.2724 -0.6104
  412MOL0     H54365   7.670  -0.169   5.191  1.0196 -0.1334 -0.7999
  412MOL0     H54366   8.647   0.332   5.338 -1.2491 -3.0197 -0.1680
  412MOL0     H54367   8.831   0.474   5.448 -1.1187  0.4935 -0.9571
  412MOL0     H54368   9.024   0.477   6.074 -0.0213  2.6394  1.8185
  412MOL0     H54369   9.213   0.565   6.144 -3.3271 -2.3703 -1.1315
  412MOL0     H54370  10.304   0.217   7.070  0.8616 -2.5779  1.3125
  412MOL0     H54371  10.509   0.138   7.190 -0.2416 -0.2102  0.1888
  412MOL0     H54372  10.831   0.091   7.320  0.5043 -0.7241 -0.6682
  412MOL0     H54373  10.981   0.182   7.484 -1.7742  1.3816 -0.5340
  412MOL0     H54374  11.148   0.206   7.627 -0.8934 -0.3964 -1.1142
  412MOL0     H54375  11.119   0.374   7.569  0.6078  0.5716 -0.3174
  412MOL0     H54376  11.298   0.370   7.765  2.3476 -0.1328  0.2973
  412MOL0     H54377  11.385   0.259   7.676  0.4140  0.3003  0.8123
  412MOL0     H54378  11.373   0.469   7.490  4.2392 -0.4360 -0.1251
  412MOL0     H54379  11.495   0.458   7.611  0.5895  0.7633 -3.0537
  412MOL0     H54380  11.238   0.619   7.637  0.2686 -0.7338 -0.7065
  412MOL0     H54381  11.364   0.625   7.762  2.6425  0.6291 -0.6750
  412MOL0     H54382  11.556   0.852   7.472  1.2217  1.0910  1.5087
  412MOL0     H54383  11.292   0.218   7.204  0.2471  0.1853 -0.8143
  412MOL0     H54384  11.144   0.138   7.025 -1.7853  1.2118 -1.1382
  413MOL0     O54385  10.407   3.643   3.378 -0.2346 -0.0208  0.2927
  413MOL0     C54386  10.458   3.739   3.442  0.3132 -0.1004  0.2970
  413MOL0     O54387  10.396   3.862   3.455  0.3606  0.2316 -0.0947
  413MOL0     C54388  10.271   3.877   3.406  0.2128  0.1337 -0.0154
  413MOL0     C54389  10.154   3.840   3.467 -1.0686 -0.1884  0.5286
  413MOL0     C54390  10.023   3.860   3.426 -0.1431  0.3867  0.8647
  413MOL0     C54391  10.013   3.949   3.314 -0.8728 -0.1347 -0.7868
  413MOL0     O54392   9.886   3.985   3.279  0.0119  0.0485  0.6807
  413MOL0     C54393   9.868   4.111   3.207 -0.3316 -1.2087  0.3310
  413MOL0     C54394   9.724   4.130   3.164 -1.0882  0.7620 -0.2644
  413MOL0     C54395   9.696   4.021   3.060 -0.0031  0.3455 -0.3078
  413MOL0     C54396   9.562   4.060   2.992 -0.3315  0.4264  0.8909
  413MOL0     C54397   9.455   3.988   3.064 -0.0246 -0.0342  0.8839
  413MOL0     C54398   9.312   4.005   3.007  0.4416  0.2136 -0.4571
  413MOL0     C54399   9.215   3.959   3.115 -1.1371 -0.2309 -0.3091
  413MOL0     C54400   9.074   4.006   3.061 -0.0270  0.5353 -0.3392
  413MOL0     N54401   8.973   3.938   3.145 -0.0412 -0.4192  0.0813
  413MOL0     C54402   8.951   3.803   3.155 -0.3039  0.8243  0.2963
  413MOL0     C54403   8.840   3.788   3.229  0.7268 -0.7854 -0.0366
  413MOL0     C54404   8.770   3.659   3.253  0.9376  0.2760  0.3140
  413MOL0     C54405   8.822   3.583   3.366  0.0044 -0.2562 -0.2060
  413MOL0     C54406   8.801   3.656   3.502 -0.3192  0.0495  0.0614
  413MOL0     C54407   8.876   3.573   3.608 -0.2205 -0.0503  0.2320
  413MOL0     O54408   8.887   3.428   3.598  0.3914  0.2772 -0.0641
  413MOL0     C54409   8.772   3.346   3.606  0.0978 -0.5971 -0.2979
  413MOL0     C54410   8.648   3.394   3.653 -0.0027  0.4384 -0.4415
  413MOL0     C54411   8.543   3.308   3.652 -0.3466 -0.4283  0.5638
  413MOL0     C54412   8.555   3.173   3.603 -0.1787 -0.1122  0.0087
  413MOL0     C54413   8.445   3.074   3.595 -0.1131 -0.6178 -0.1927
  413MOL0     O54414   8.369   3.069   3.702  0.3378  0.1591 -0.7501
  413MOL0     C54415   8.240   3.013   3.690 -0.5588  0.2646 -0.5144
  413MOL0     C54416   8.168   2.963   3.802 -0.2745  1.5699 -0.0914
  413MOL0     C54417   8.039   2.908   3.789 -1.0233  0.7007 -0.5789
  413MOL0     C54418   7.970   2.908   3.673  0.1839 -0.4324 -0.6710
  413MOL0     O54419   7.849   2.851   3.679 -0.2451  0.3722 -0.1443
  413MOL0     C54420   7.733   2.925   3.632  0.8974 -0.2416 -0.8246
  413MOL0     C54421   7.630   2.834   3.572 -0.0365 -0.3783 -0.0692
  413MOL0     C54422   7.664   2.797   3.425  0.2916 -0.4063 -0.5164
  413MOL0     C54423   7.555   2.692   3.385 -0.2301  0.4975 -0.0083
  413MOL0     C54424   7.549   2.655   3.236  0.2961 -0.4593  0.0433
  413MOL0     C54425   7.536   2.763   3.120 -0.5164  0.2516  0.4670
  413MOL0     C54426   7.682   2.817   3.088 -0.0276  0.1055  0.3138
  413MOL0     C54427   7.673   2.935   2.986 -0.0029 -0.0550 -0.2443
  413MOL0    Cl54428   7.643   3.088   3.073  0.5050  0.2328 -0.0902
  413MOL0     C54429   8.025   2.978   3.566 -0.8655 -0.7240  0.7000
  413MOL0     C54430   8.155   3.033   3.576  0.7152 -0.5014  0.3685
  413MOL0     O54431   8.441   2.995   3.505 -0.7339  0.2339  0.1036
  413MOL0     C54432   8.682   3.130   3.559  0.0353  0.4287 -0.8187
  413MOL0     C54433   8.794   3.212   3.567  1.2256  0.1034 -0.0851
  413MOL0     N54434   8.799   3.913   3.269 -0.2439  0.3051  0.2138
  413MOL0     N54435   8.883   3.992   3.226 -0.2540 -0.7825 -0.0590
  413MOL0     C54436  10.131   3.993   3.254 -0.0400 -0.4049  0.5181
  413MOL0     C54437  10.254   3.954   3.292 -0.6474 -0.1093 -0.0274
  413MOL0     C54438  10.580   3.711   3.514  0.0193  0.8654 -0.4969
  413MOL0     C54439  10.654   3.584   3.502  0.9820  0.2660 -0.2354
  413MOL0     C54440  10.760   3.556   3.589 -0.1278 -0.1764  0.0785
  413MOL0     C54441  10.792   3.639   3.694 -0.0087  0.5387 -0.0924
  413MOL0     O54442  10.891   3.631   3.788  0.1055 -0.6950  0.6970
  413MOL0     C54443  10.987   3.518   3.787 -0.2852  0.7988 -0.1946
  413MOL0     C54444  10.921   3.387   3.836  0.0004  0.2739  0.6057
  413MOL0     C54445  10.860   3.415   3.972  0.5011  0.1775 -0.5958
  413MOL0     C54446  10.958   3.467   4.080 -0.8706 -0.9687  0.4069
  413MOL0     C54447  11.079   3.381   4.080  0.8368  0.1712  0.0163
  413MOL0     C54448  11.182   3.318   4.080  0.3436  0.2896 -0.0484
  413MOL0     C54449  10.738   3.769   3.690  0.4091 -0.7148 -0.1952
  413MOL0     C54450  10.630   3.801   3.615  0.7099 -0.1561  0.2417
  413MOL0     H54451  10.169   3.785   3.559 -0.8949 -2.7982 -0.9785
  413MOL0     H54452   9.937   3.807   3.463  0.7467 -2.7620 -1.1934
  413MOL0     H54453   9.923   4.114   3.113  0.4354 -0.4762  0.7860
  413MOL0     H54454   9.900   4.199   3.264  3.1123  0.1891 -3.2455
  413MOL0     H54455   9.708   4.228   3.119  0.2538  0.5486 -1.2561
  413MOL0     H54456   9.651   4.131   3.246 -0.4575 -0.5348  0.3407
  413MOL0     H54457   9.693   3.919   3.100  0.1978 -0.7035 -2.7695
  413MOL0     H54458   9.777   4.013   2.987 -0.2282 -1.9016 -0.3994
  413MOL0     H54459   9.537   4.166   2.986 -0.9757  0.2788  0.8132
  413MOL0     H54460   9.569   4.025   2.889  2.5222  3.4501 -0.0943
  413MOL0     H54461   9.460   4.020   3.169 -0.6236  0.8595  0.6544
  413MOL0     H54462   9.477   3.882   3.075  1.8063  0.4766  3.1521
  413MOL0     H54463   9.313   3.954   2.910  2.4410  0.5621 -0.6695
  413MOL0     H54464   9.288   4.109   2.985 -1.5980 -0.3553 -1.1355
  413MOL0     H54465   9.215   3.850   3.117  1.9431 -0.3001  0.8636
  413MOL0     H54466   9.219   4.006   3.214 -0.7372 -1.3074  0.1954
  413MOL0     H54467   9.071   3.974   2.957  4.4577  0.6600 -0.7340
  413MOL0     H54468   9.065   4.115   3.066  1.1299  0.6833 -1.0294
  413MOL0     H54469   9.004   3.721   3.108  2.0337  2.3826  0.0128
  413MOL0     H54470   8.774   3.586   3.171 -0.3449 -2.6314  2.6316
  413MOL0     H54471   8.664   3.677   3.269  0.7310 -1.6843  1.5759
  413MOL0     H54472   8.929   3.565   3.352 -0.0812 -2.1881  1.2182
  413MOL0     H54473   8.763   3.491   3.377  0.9013 -1.0097 -1.5280
  413MOL0     H54474   8.853   3.752   3.498  2.1251 -1.1800  0.2951
  413MOL0     H54475   8.696   3.678   3.522  0.6087  1.9581  3.5401
  413MOL0     H54476   8.827   3.597   3.703  2.2414  1.2830  1.2687
  413MOL0     H54477   8.973   3.623   3.612 -1.1563  2.0649 -1.6158
  413MOL0     H54478   8.635   3.494   3.693 -1.3613 -0.0544  0.4236
  413MOL0     H54479   8.449   3.343   3.691 -0.0946 -0.8595  1.5829
  413MOL0     H54480   8.211   2.963   3.902  2.6688  3.4696 -1.2257
  413MOL0     H54481   7.986   2.859   3.869 -1.2277  2.4433  0.3930
  413MOL0     H54482   7.750   2.999   3.554 -3.9452  0.6223 -1.3772
  413MOL0     H54483   7.693   2.975   3.720  2.1806  1.3795 -1.1111
  413MOL0     H54484   7.536   2.890   3.574 -0.8263 -1.5573 -1.8780
  413MOL0     H54485   7.619   2.749   3.639  2.0581  0.1564  1.0441
  413MOL0     H54486   7.764   2.754   3.416 -0.5215 -2.8337  1.1026
  413MOL0     H54487   7.658   2.888   3.365  1.6347  2.0481  2.7632
  413MOL0     H54488   7.577   2.601   3.442  3.4005  0.6572 -0.9238
  413MOL0     H54489   7.459   2.737   3.413 -1.0733 -1.8205  1.0879
  413MOL0     H54490   7.460   2.596   3.214  1.4810 -2.1069 -0.4893
  413MOL0     H54491   7.628   2.584   3.211 -0.1809 -0.4243 -1.7356
  413MOL0     H54492   7.466   2.841   3.149 -3.7509 -2.9958  2.2825
  413MOL0     H54493   7.492   2.720   3.030  0.6415  0.6151 -0.2852
  413MOL0     H54494   7.732   2.862   3.175 -0.9330  0.4964  0.6447
  413MOL0     H54495   7.730   2.734   3.036 -0.5813  0.4899 -0.8266
  413MOL0     H54496   7.595   2.907   2.914  0.2771  1.3080 -1.1211
  413MOL0     H54497   7.771   2.931   2.937  1.4792 -1.2438  2.6083
  413MOL0     H54498   7.963   2.975   3.477  0.2341 -3.9677 -0.0930
  413MOL0     H54499   8.189   3.093   3.492  1.7763 -2.3822 -0.6113
  413MOL0     H54500   8.691   3.028   3.523 -1.6133  0.1598 -0.5360
  413MOL0     H54501   8.886   3.180   3.518  1.0615 -1.7202  0.7333
  413MOL0     H54502  10.126   4.052   3.163 -2.2350 -2.4567 -0.7815
  413MOL0     H54503  10.338   3.987   3.232 -1.5907  1.6682 -0.4359
  413MOL0     H54504  10.631   3.517   3.420 -0.3360 -0.2713  0.5330
  413MOL0     H54505  10.807   3.460   3.572 -0.3168 -0.2274 -0.1661
  413MOL0     H54506  11.065   3.552   3.855 -0.6308 -0.6826  1.0053
  413MOL0     H54507  11.031   3.521   3.686 -3.3207  2.6210 -1.5984
  413MOL0     H54508  10.834   3.359   3.775 -0.5736  1.7423  0.6926
  413MOL0     H54509  10.985   3.299   3.840  0.1065  0.3574  0.7431
  413MOL0     H54510  10.810   3.327   4.013  3.0467  0.2669  3.2419
  413MOL0     H54511  10.789   3.498   3.963 -0.6454 -0.6604  0.2617
  413MOL0     H54512  10.976   3.572   4.057  0.6939 -0.9342  1.6308
  413MOL0     H54513  10.928   3.477   4.184 -1.4355  1.2011  0.0859
  413MOL0     H54514  11.266   3.256   4.057 -0.7549 -1.1362 -0.4178
  413MOL0     H54515  10.757   3.834   3.775  1.8641 -0.3406 -0.7852
  413MOL0     H54516  10.561   3.879   3.646 -1.4616 -0.9741 -2.0989
  414MOL0     O54517   0.370   9.436   5.231 -0.2763  0.0073 -0.1417
  414MOL0     C54518   0.456   9.347   5.234  0.6312  1.1703 -0.6630
  414MOL0     O54519   0.475   9.261   5.137  0.1632 -0.1777 -0.4262
  414MOL0     C54520   0.396   9.250   5.026 -0.1657 -0.2951  0.9842
  414MOL0     C54521   0.266   9.312   5.002 -0.3448  1.8172  0.0695
  414MOL0     C54522   0.196   9.283   4.879 -0.7208  0.1884 -0.2535
  414MOL0     C54523   0.250   9.189   4.788 -0.2677  0.6883  0.2541
  414MOL0     O54524   0.163   9.161   4.687 -0.4749 -0.3343 -0.2671
  414MOL0     C54525   0.174   9.034   4.629  0.2869 -0.5393  0.3436
  414MOL0     C54526   0.062   9.029   4.521  0.0434  0.4082 -0.7658
  414MOL0     C54527   0.100   9.097   4.392 -0.5007  0.6780 -1.2229
  414MOL0     C54528  -0.015   9.082   4.290 -0.1779 -0.3589  0.1552
  414MOL0     C54529   0.009   9.171   4.167 -0.1415  0.0475  0.2605
  414MOL0     C54530  -0.101   9.141   4.060  0.3617 -0.0485 -0.1570
  414MOL0     C54531  -0.244   9.189   4.088  0.5750 -0.6529 -0.5427
  414MOL0     C54532  -0.331   9.078   4.146 -0.6864  1.1601  0.1139
  414MOL0     N54533  -0.477   9.120   4.140  0.3194 -0.3294 -0.5967
  414MOL0     C54534  -0.532   9.242   4.169 -0.6275 -0.5194  0.2098
  414MOL0     C54535  -0.649   9.247   4.097  0.7296 -0.2548 -0.2332
  414MOL0     C54536  -0.741   9.358   4.098 -0.1173 -0.1108 -1.4071
  414MOL0     C54537  -0.870   9.325   4.176 -0.8632  0.3927  0.3358
  414MOL0     C54538  -0.997   9.412   4.142 -0.6826 -0.2122 -0.1840
  414MOL0     C54539  -1.062   9.373   4.009 -1.0220 -0.3436  0.0399
  414MOL0     O54540  -1.118   9.234   4.003  0.0308 -0.2748  0.2986
  414MOL0     C54541  -1.233   9.218   3.927  0.3071 -0.0680 -0.1480
  414MOL0     C54542  -1.248   9.256   3.795 -0.5093 -0.9188  0.5263
  414MOL0     C54543  -1.372   9.246   3.724 -0.1886  0.3314  0.0905
  414MOL0     C54544  -1.487   9.194   3.802 -0.1991 -0.6065  0.0277
  414MOL0     C54545  -1.622   9.177   3.744  0.4000 -0.9269 -0.4209
  414MOL0     O54546  -1.724   9.114   3.811 -0.1846 -0.2473 -0.6345
  414MOL0     C54547  -1.850   9.092   3.765  0.5463  0.0927  0.5821
  414MOL0     C54548  -1.932   9.014   3.851  0.1109 -0.3961  0.0882
  414MOL0     C54549  -2.071   8.991   3.817  0.4682 -0.5058  0.4618
  414MOL0     C54550  -2.132   9.051   3.707  0.4268  0.0661  0.5304
  414MOL0     O54551  -2.265   9.027   3.684  0.2375  0.3615  0.4705
  414MOL0     C54552  -2.347   9.132   3.634 -0.0826 -0.0634  0.1643
  414MOL0     C54553  -2.479   9.111   3.676 -0.1058 -0.5087  0.4703
  414MOL0     C54554  -2.535   8.965   3.656  0.2543  0.3857 -1.1825
  414MOL0     C54555  -2.682   8.957   3.715  0.0286  0.3046 -0.3508
  414MOL0     C54556  -2.713   8.817   3.774 -0.0427 -0.3044  0.4053
  414MOL0     C54557  -2.714   8.703   3.667  0.3117  1.1320 -0.0046
  414MOL0     C54558  -2.772   8.573   3.727  0.4439  0.1451  0.4078
  414MOL0     C54559  -2.774   8.445   3.631  0.4039 -0.4619 -0.0607
  414MOL0    Cl54560  -2.908   8.474   3.516 -0.1922 -0.0687  0.5608
  414MOL0     C54561  -2.053   9.123   3.617  0.1545  0.2920  0.1846
  414MOL0     C54562  -1.917   9.148   3.650 -0.4524 -0.1958  0.0413
  414MOL0     O54563  -1.633   9.228   3.633  0.8108  0.2235  0.1313
  414MOL0     C54564  -1.466   9.149   3.936 -0.2797 -0.2026  0.0034
  414MOL0     C54565  -1.343   9.146   3.989  0.9263 -0.1209 -0.7408
  414MOL0     N54566  -0.670   9.133   4.029 -0.6669  0.7023 -0.4991
  414MOL0     N54567  -0.559   9.063   4.054  0.6697 -0.5226 -0.1051
  414MOL0     C54568   0.366   9.129   4.816 -0.6148  0.2967 -0.5092
  414MOL0     C54569   0.444   9.162   4.930 -0.4514  0.7371 -0.7247
  414MOL0     C54570   0.563   9.342   5.343 -0.2042  0.5589  1.3232
  414MOL0     C54571   0.576   9.444   5.437  0.1439  0.0321  1.2729
  414MOL0     C54572   0.697   9.456   5.520  0.1683 -0.0944  0.7641
  414MOL0     C54573   0.801   9.366   5.501  0.3764 -0.1560  0.4414
  414MOL0     O54574   0.921   9.368   5.565  0.1270  0.2841 -0.0977
  414MOL0     C54575   0.946   9.453   5.681 -0.0549 -0.3171 -0.2018
  414MOL0     C54576   0.855   9.397   5.792  0.1431  0.4381  0.9085
  414MOL0     C54577   0.792   9.513   5.873 -0.0120  0.4558  1.0288
  414MOL0     C54578   0.667   9.466   5.950  0.1928 -0.1729  0.2455
  414MOL0     C54579   0.644   9.553   6.072  0.4348 -0.3568 -0.0539
  414MOL0     C54580   0.609   9.633   6.157  0.2778  0.4111  1.2258
  414MOL0     C54581   0.785   9.257   5.412 -0.3628  0.7177 -1.5424
  414MOL0     C54582   0.668   9.246   5.336 -0.2276 -1.0505 -0.3131
  414MOL0     H54583   0.215   9.370   5.077 -0.5890  0.1670  1.2318
  414MOL0     H54584   0.093   9.310   4.857 -0.8746  0.6192  0.9274
  414MOL0     H54585   0.153   8.957   4.704 -3.1727 -1.5121 -1.4041
  414MOL0     H54586   0.262   9.005   4.571 -1.8536 -0.1091 -3.4324
  414MOL0     H54587  -0.031   9.075   4.557  1.4157  3.6128 -0.9077
  414MOL0     H54588   0.038   8.924   4.503 -4.0711  1.1125 -0.3869
  414MOL0     H54589   0.189   9.046   4.354 -1.6385 -0.3962 -2.5891
  414MOL0     H54590   0.118   9.201   4.419  1.6033 -0.7144  3.8199
  414MOL0     H54591  -0.044   8.985   4.248 -1.4011 -0.0628  0.2665
  414MOL0     H54592  -0.103   9.121   4.343  0.5685  2.0911 -0.2623
  414MOL0     H54593   0.100   9.124   4.127  0.1184  1.0348 -0.3624
  414MOL0     H54594   0.025   9.276   4.193 -0.7030 -0.3899  2.5795
  414MOL0     H54595  -0.108   9.033   4.046 -1.0140  0.1318 -1.0812
  414MOL0     H54596  -0.067   9.184   3.965  0.4632  2.5058  0.9448
  414MOL0     H54597  -0.249   9.274   4.156  0.4042 -0.4400 -0.8157
  414MOL0     H54598  -0.297   9.213   3.995 -3.4121 -0.6449  1.5573
  414MOL0     H54599  -0.306   9.061   4.251 -0.3117  1.0311  0.0040
  414MOL0     H54600  -0.302   8.986   4.094 -0.4837  1.7254 -0.7879
  414MOL0     H54601  -0.487   9.322   4.229 -1.8044 -0.4412  1.0098
  414MOL0     H54602  -0.773   9.390   3.998  1.5343  3.7308 -0.8623
  414MOL0     H54603  -0.698   9.448   4.143 -1.2030  0.9565 -2.4094
  414MOL0     H54604  -0.841   9.330   4.281  3.8145  2.5064 -0.7873
  414MOL0     H54605  -0.886   9.218   4.157 -0.6453  0.0806  1.8140
  414MOL0     H54606  -1.071   9.392   4.220 -2.6878  1.6941 -1.4688
  414MOL0     H54607  -0.965   9.516   4.144 -3.6116  0.8076 -0.5576
  414MOL0     H54608  -0.984   9.381   3.932 -0.6064  0.3226  0.5190
  414MOL0     H54609  -1.125   9.456   3.975  3.4271  3.1257 -0.7131
  414MOL0     H54610  -1.159   9.289   3.743  0.7909  1.8003  4.1049
  414MOL0     H54611  -1.370   9.272   3.618 -1.6797  0.8533  0.1717
  414MOL0     H54612  -1.896   8.978   3.946 -0.2062  0.4091  0.5224
  414MOL0     H54613  -2.125   8.914   3.872  0.4318  0.8490  2.3984
  414MOL0     H54614  -2.343   9.135   3.525  0.5641  0.5540  0.1988
  414MOL0     H54615  -2.305   9.225   3.673  0.4536  1.1071 -2.9226
  414MOL0     H54616  -2.527   9.173   3.600  0.4042 -3.9846 -3.0067
  414MOL0     H54617  -2.499   9.132   3.782 -1.1338 -3.9653  1.0600
  414MOL0     H54618  -2.470   8.907   3.722 -0.8342  1.7464  1.2112
  414MOL0     H54619  -2.535   8.934   3.551 -3.3162 -2.3151 -0.5923
  414MOL0     H54620  -2.691   9.035   3.791 -1.1547  0.8077 -0.9901
  414MOL0     H54621  -2.762   8.987   3.648  1.1795  3.1319 -0.5734
  414MOL0     H54622  -2.814   8.818   3.815 -1.6278  1.0427 -3.1695
  414MOL0     H54623  -2.644   8.789   3.855  0.6739  0.7609  0.1828
  414MOL0     H54624  -2.609   8.698   3.637  0.2329 -0.8913 -0.0837
  414MOL0     H54625  -2.780   8.717   3.580 -1.0909  2.4207  1.2131
  414MOL0     H54626  -2.718   8.544   3.817  0.1846  1.8947  1.1538
  414MOL0     H54627  -2.876   8.585   3.759  1.2280  0.8781  2.9358
  414MOL0     H54628  -2.797   8.353   3.685 -1.6215  0.7934  1.3958
  414MOL0     H54629  -2.673   8.435   3.591  1.2737 -0.3887  1.9938
  414MOL0     H54630  -2.093   9.159   3.523 -0.2881 -2.0699 -0.5974
  414MOL0     H54631  -1.870   9.207   3.571  0.2649 -2.3804 -1.2334
  414MOL0     H54632  -1.532   9.097   4.004  2.5208 -1.8126  1.7048
  414MOL0     H54633  -1.315   9.111   4.088  2.0743  5.1518  1.1232
  414MOL0     H54634   0.413   9.063   4.744 -0.4716 -2.2962  1.7928
  414MOL0     H54635   0.536   9.114   4.961 -2.2867 -0.8463  2.9368
  414MOL0     H54636   0.506   9.527   5.443  0.2679  0.3848 -1.1087
  414MOL0     H54637   0.709   9.545   5.580  3.4497 -0.9966  1.6548
  414MOL0     H54638   0.922   9.558   5.662 -2.4278 -0.3521  2.1025
  414MOL0     H54639   1.052   9.450   5.707  1.0263 -0.0535 -4.0035
  414MOL0     H54640   0.783   9.322   5.758  1.1334 -0.4033  0.5905
  414MOL0     H54641   0.924   9.337   5.852 -0.0065 -2.4076 -1.5253
  414MOL0     H54642   0.766   9.590   5.800 -0.7523 -4.1561 -4.2539
  414MOL0     H54643   0.863   9.548   5.948  0.5506  0.1854  0.6256
  414MOL0     H54644   0.577   9.468   5.887 -0.2250 -0.3122  0.8309
  414MOL0     H54645   0.679   9.371   6.003  1.5708  0.0777  0.4228
  414MOL0     H54646   0.574   9.709   6.224 -0.5396  0.8879  0.2839
  414MOL0     H54647   0.876   9.198   5.407  0.2423  1.2015  1.4762
  414MOL0     H54648   0.669   9.169   5.260 -2.9816 -0.5619 -0.9461
  415MOL0     O54649   9.611   8.070   2.907 -0.1893  0.2979 -0.2659
  415MOL0     C54650   9.714   7.998   2.910 -0.3694  0.9655  0.0787
  415MOL0     O54651   9.717   7.861   2.928  0.2563 -0.3319  0.1627
  415MOL0     C54652   9.607   7.789   2.874 -0.4031 -0.6274 -0.1081
  415MOL0     C54653   9.519   7.729   2.961  0.9632 -0.2697  0.1654
  415MOL0     C54654   9.410   7.660   2.918  0.2134  0.1220  1.5275
  415MOL0     C54655   9.388   7.644   2.779 -0.0808  0.6440  0.8640
  415MOL0     O54656   9.295   7.568   2.718  0.5228  0.6769 -0.1843
  415MOL0     C54657   9.212   7.464   2.785 -1.3190  0.1393  0.0014
  415MOL0     C54658   9.088   7.423   2.707 -0.5486 -0.6554 -0.0703
  415MOL0     C54659   9.011   7.303   2.768  0.4826  0.7510  0.0599
  415MOL0     C54660   8.861   7.307   2.723 -1.2377 -0.3320  1.6782
  415MOL0     C54661   8.803   7.184   2.778 -0.2674  0.2737  0.2732
  415MOL0     C54662   8.658   7.190   2.746  0.6652 -0.4659  1.1995
  415MOL0     C54663   8.570   7.079   2.810 -0.7201 -0.8723 -0.2632
  415MOL0     C54664   8.558   7.098   2.960 -0.1363  0.0944 -1.3879
  415MOL0     N54665   8.420   7.066   3.006 -0.4093 -0.1847  0.4283
  415MOL0     C54666   8.344   6.954   2.977  0.0562 -0.6961  0.2676
  415MOL0     C54667   8.221   6.982   3.008  0.3158  0.9286 -0.4313
  415MOL0     C54668   8.099   6.897   2.977 -0.3296 -0.1464  0.0379
  415MOL0     C54669   8.062   6.901   2.827 -0.0548 -0.7702  0.4220
  415MOL0     C54670   7.940   6.816   2.813  0.6181  0.7942  0.5107
  415MOL0     C54671   7.808   6.902   2.809 -0.5863  0.1682 -0.7201
  415MOL0     O54672   7.702   6.825   2.758  0.6833 -0.4636 -0.5150
  415MOL0     C54673   7.578   6.883   2.735  0.5796  0.2508  0.5430
  415MOL0     C54674   7.535   7.012   2.758 -0.3885  0.8800 -0.4797
  415MOL0     C54675   7.404   7.049   2.719  0.1817  1.2676 -0.5117
  415MOL0     C54676   7.316   6.953   2.663 -0.1092  0.0083  0.4938
  415MOL0     C54677   7.183   6.991   2.620  0.4873 -0.4351 -1.0174
  415MOL0     O54678   7.093   6.900   2.580 -0.3576 -0.0326  0.9705
  415MOL0     C54679   6.959   6.896   2.607  0.2000  0.0519  0.3698
  415MOL0     C54680   6.882   6.802   2.535  0.5786 -0.0227 -0.0822
  415MOL0     C54681   6.742   6.809   2.544 -0.1780 -0.0069 -0.8210
  415MOL0     C54682   6.678   6.898   2.627  0.4301  0.3594 -0.6953
  415MOL0     O54683   6.544   6.918   2.649  0.4941  0.8910  0.1983
  415MOL0     C54684   6.461   6.804   2.659 -0.4698  0.1632  0.2054
  415MOL0     C54685   6.312   6.834   2.710 -0.5074 -0.4341  0.7017
  415MOL0     C54686   6.315   6.875   2.847  0.6407 -0.0197  0.4703
  415MOL0     C54687   6.185   6.951   2.881  0.2112  0.0231 -0.2686
  415MOL0     C54688   6.066   6.861   2.901  0.4994  0.2716 -1.0245
  415MOL0     C54689   5.978   6.852   2.783 -0.2079  0.2556 -0.1168
  415MOL0     C54690   5.833   6.875   2.828  0.0339 -0.2487 -0.4904
  415MOL0     C54691   5.745   6.822   2.708 -0.0579  0.0929 -0.8542
  415MOL0    Cl54692   5.584   6.848   2.764  0.2388 -0.7854 -0.0769
  415MOL0     C54693   6.760   6.985   2.702 -0.4124 -0.5610  1.0141
  415MOL0     C54694   6.891   6.980   2.700 -0.3651  0.9020 -0.1183
  415MOL0     O54695   7.153   7.112   2.634 -0.2315  0.6478 -0.8701
  415MOL0     C54696   7.360   6.818   2.637 -0.4243 -0.4993  1.2247
  415MOL0     C54697   7.488   6.790   2.681  1.1236 -1.0352 -0.1077
  415MOL0     N54698   8.221   7.101   3.075 -0.5944 -0.2705 -0.0877
  415MOL0     N54699   8.342   7.155   3.069 -0.4768  0.7494  0.2163
  415MOL0     C54700   9.481   7.695   2.689  0.3609  0.3339  0.1114
  415MOL0     C54701   9.592   7.765   2.740  0.4866 -0.5011 -0.0258
  415MOL0     C54702   9.837   8.083   2.903  0.4802  0.1744  0.4979
  415MOL0     C54703   9.969   8.045   2.880 -0.2868 -0.2047  0.1138
  415MOL0     C54704  10.082   8.132   2.900  0.4446 -0.3866  0.9589
  415MOL0     C54705  10.066   8.267   2.924 -0.8009  0.0299 -1.2486
  415MOL0     O54706  10.169   8.364   2.934  0.6282  0.0503 -0.0202
  415MOL0     C54707  10.295   8.353   2.869  0.3710  0.9222  0.3956
  415MOL0     C54708  10.343   8.477   2.804  0.0467  0.0693  0.5144
  415MOL0     C54709  10.475   8.449   2.733  0.3960 -0.7798 -0.3943
  415MOL0     C54710  10.593   8.420   2.830 -0.2548  0.7060  0.1401
  415MOL0     C54711  10.625   8.533   2.917 -0.0134  0.1882  0.0269
  415MOL0     C54712  10.648   8.632   2.990  0.0258 -0.1015  1.0210
  415MOL0     C54713   9.936   8.305   2.965  0.3086  0.5880  0.5406
  415MOL0     C54714   9.823   8.218   2.955  0.8856  0.3763 -0.0415
  415MOL0     H54715   9.523   7.730   3.069 -0.4974 -1.4801  0.2650
  415MOL0     H54716   9.345   7.638   3.002 -0.2455  2.6199  1.8792
  415MOL0     H54717   9.200   7.506   2.886  1.3543  1.9280 -0.3345
  415MOL0     H54718   9.273   7.375   2.801  0.8496  1.4900 -0.2448
  415MOL0     H54719   9.110   7.388   2.606  1.9003 -1.0339  0.5144
  415MOL0     H54720   9.031   7.516   2.711  0.3216 -0.1594  2.9003
  415MOL0     H54721   9.033   7.292   2.874  0.1881 -3.0166 -0.1568
  415MOL0     H54722   9.062   7.213   2.733 -1.0985 -0.1364 -0.0255
  415MOL0     H54723   8.811   7.401   2.749 -2.0704  0.5761 -2.4675
  415MOL0     H54724   8.853   7.298   2.614 -0.4188  1.4495  1.4378
  415MOL0     H54725   8.813   7.181   2.886  0.1612 -1.6091  0.2210
  415MOL0     H54726   8.836   7.088   2.737 -0.7378  1.5098 -3.4018
  415MOL0     H54727   8.653   7.189   2.637 -1.4894 -1.0715  1.2564
  415MOL0     H54728   8.610   7.284   2.775 -2.6883 -1.8567  0.5667
  415MOL0     H54729   8.475   7.098   2.761  0.1069 -1.7657 -2.3307
  415MOL0     H54730   8.606   6.978   2.790 -2.2140 -1.6462  0.8002
  415MOL0     H54731   8.582   7.201   2.988 -0.5685  0.2732 -1.6735
  415MOL0     H54732   8.622   7.028   3.015  1.4376  1.0446 -1.9574
  415MOL0     H54733   8.361   6.862   2.922  2.3521 -1.1896  1.6616
  415MOL0     H54734   8.011   6.919   3.038  0.8866 -2.7163  2.9403
  415MOL0     H54735   8.117   6.796   3.013  0.1231  0.2644  0.9966
  415MOL0     H54736   8.151   6.859   2.778  1.9229  1.5985  1.7395
  415MOL0     H54737   8.048   7.005   2.796  3.6443  1.0290  3.8272
  415MOL0     H54738   7.949   6.768   2.715 -1.6116  0.4090  0.4476
  415MOL0     H54739   7.929   6.734   2.883 -3.1954 -0.0849 -0.8334
  415MOL0     H54740   7.810   6.984   2.737 -0.1942 -0.9820 -2.0599
  415MOL0     H54741   7.798   6.943   2.910  0.7470 -2.4184  0.5686
  415MOL0     H54742   7.596   7.091   2.801 -0.7057  1.1616 -0.5463
  415MOL0     H54743   7.372   7.151   2.734 -2.4396  0.3777  0.4278
  415MOL0     H54744   6.921   6.743   2.453 -0.7912  1.6038 -2.0015
  415MOL0     H54745   6.679   6.739   2.491  2.4378 -2.5336 -0.8626
  415MOL0     H54746   6.505   6.732   2.728  0.6336 -0.1186 -0.7460
  415MOL0     H54747   6.466   6.757   2.560  2.2018 -3.5738  1.8997
  415MOL0     H54748   6.251   6.746   2.687 -1.6441  0.9555 -2.0514
  415MOL0     H54749   6.277   6.917   2.648  0.2295 -0.2934  0.4573
  415MOL0     H54750   6.401   6.942   2.858 -0.3897  1.7494 -1.5639
  415MOL0     H54751   6.307   6.788   2.913 -2.1943 -1.0564 -1.0800
  415MOL0     H54752   6.202   7.000   2.978 -0.0157 -0.4655  0.0244
  415MOL0     H54753   6.169   7.029   2.807  0.4090  0.9728  0.6614
  415MOL0     H54754   6.013   6.905   2.985  0.8406 -1.4243  0.1497
  415MOL0     H54755   6.088   6.757   2.929 -0.6119 -0.3266 -2.2385
  415MOL0     H54756   5.981   6.752   2.738 -3.1514  0.5786 -1.2640
  415MOL0     H54757   6.011   6.929   2.714 -0.3399  2.8487  2.4934
  415MOL0     H54758   5.800   6.821   2.918  0.1124 -0.7965 -0.7862
  415MOL0     H54759   5.822   6.984   2.832  1.1991 -0.1351 -0.1230
  415MOL0     H54760   5.771   6.716   2.702  1.7272  0.2990  1.7478
  415MOL0     H54761   5.757   6.878   2.615 -4.1154  3.6888  0.4256
  415MOL0     H54762   6.713   7.050   2.776  0.7472 -1.0286  2.1962
  415MOL0     H54763   6.954   7.047   2.757  2.0483 -1.1493 -0.1630
  415MOL0     H54764   7.288   6.749   2.596 -0.4444  0.5190 -0.5670
  415MOL0     H54765   7.526   6.689   2.694  0.2022 -1.0673  3.7878
  415MOL0     H54766   9.468   7.673   2.584  1.3621  3.9752 -0.9250
  415MOL0     H54767   9.659   7.810   2.667  0.3724  1.1965  0.8825
  415MOL0     H54768   9.980   7.937   2.885  1.5648 -0.0227  0.5481
  415MOL0     H54769  10.175   8.076   2.891  0.9909  0.8255 -1.9215
  415MOL0     H54770  10.293   8.275   2.793  0.8100  1.0111  0.2870
  415MOL0     H54771  10.382   8.331   2.932  1.1031  3.3597  0.3323
  415MOL0     H54772  10.265   8.524   2.744 -2.4548  0.4587  3.7740
  415MOL0     H54773  10.352   8.556   2.879 -0.5307  1.1975 -0.5764
  415MOL0     H54774  10.491   8.522   2.654 -2.3803  0.5601  0.1534
  415MOL0     H54775  10.453   8.356   2.679  1.0194 -0.9226 -0.4178
  415MOL0     H54776  10.580   8.329   2.889  1.2294 -0.8644 -1.8449
  415MOL0     H54777  10.683   8.409   2.769  0.5142 -2.3582  1.6676
  415MOL0     H54778  10.666   8.726   3.038 -1.7350  0.7765  0.0120
  415MOL0     H54779   9.906   8.403   2.999 -2.3709 -0.7177  2.2840
  415MOL0     H54780   9.728   8.248   2.999  0.4826 -0.2813 -0.4411
  416MOL0     O54781   0.666   2.343   3.207 -0.1292 -0.0627 -0.1264
  416MOL0     C54782   0.759   2.386   3.272  0.8294 -0.6760  0.3159
  416MOL0     O54783   0.763   2.506   3.343  0.0931 -0.0630  0.7343
  416MOL0     C54784   0.648   2.565   3.380 -0.3392  0.6869  0.7293
  416MOL0     C54785   0.652   2.701   3.394 -0.1130  0.6127 -0.4877
  416MOL0     C54786   0.539   2.771   3.437  0.0532 -0.6870  0.5909
  416MOL0     C54787   0.423   2.701   3.472 -1.2507  0.7004 -0.5319
  416MOL0     O54788   0.312   2.773   3.510  1.1348  0.1880  0.5674
  416MOL0     C54789   0.202   2.709   3.591 -0.4850 -0.8622 -0.2918
  416MOL0     C54790   0.080   2.711   3.501  0.4133  0.5731 -0.0207
  416MOL0     C54791  -0.039   2.628   3.544 -0.1468  0.0666 -0.4394
  416MOL0     C54792  -0.172   2.694   3.500  0.0519 -0.2587 -0.0800
  416MOL0     C54793  -0.186   2.687   3.348  0.5959  0.3079  0.2470
  416MOL0     C54794  -0.239   2.813   3.274 -0.1329  0.0085 -0.4699
  416MOL0     C54795  -0.137   2.928   3.267 -0.4123 -0.2549  0.4362
  416MOL0     C54796  -0.007   2.906   3.186 -0.4903 -0.4428 -0.1035
  416MOL0     N54797  -0.034   2.885   3.047  0.4293 -0.3182  0.5779
  416MOL0     C54798  -0.076   2.985   2.955  0.6832  0.3596 -0.2431
  416MOL0     C54799  -0.163   2.921   2.876 -0.2533 -0.5599 -0.0892
  416MOL0     C54800  -0.228   3.004   2.768  0.7348 -0.1245 -0.3195
  416MOL0     C54801  -0.376   2.967   2.717  0.0519 -0.1867  0.4091
  416MOL0     C54802  -0.407   2.830   2.706  0.4354  0.9853  0.3625
  416MOL0     C54803  -0.554   2.811   2.672 -0.4520 -0.5252 -0.8202
  416MOL0     O54804  -0.568   2.817   2.527 -0.6480 -0.1352 -0.3144
  416MOL0     C54805  -0.688   2.861   2.489 -0.3360 -0.5033  0.1055
  416MOL0     C54806  -0.682   2.963   2.387  0.2719  0.1882  0.0755
  416MOL0     C54807  -0.805   3.019   2.347 -0.9147 -0.1846 -0.2124
  416MOL0     C54808  -0.926   2.989   2.408 -0.1202  0.0993  0.4854
  416MOL0     C54809  -1.056   3.054   2.372  0.5637 -0.2701 -0.5380
  416MOL0     O54810  -1.156   3.059   2.462 -0.0542 -0.4581  0.6319
  416MOL0     C54811  -1.278   3.108   2.421 -0.7665 -0.3762 -0.5937
  416MOL0     C54812  -1.398   3.042   2.457 -0.2789 -0.1207 -1.1956
  416MOL0     C54813  -1.525   3.105   2.440  0.4771  0.4349  0.4846
  416MOL0     C54814  -1.540   3.227   2.386 -1.3197  0.0861  0.6621
  416MOL0     O54815  -1.663   3.275   2.369 -0.7453 -0.3354  0.3323
  416MOL0     C54816  -1.673   3.416   2.343  0.1976 -0.0446 -0.5435
  416MOL0     C54817  -1.821   3.443   2.306  0.1419  0.0987 -0.1088
  416MOL0     C54818  -1.857   3.395   2.161 -0.7047 -0.5760 -0.5191
  416MOL0     C54819  -2.003   3.417   2.144  0.1778 -0.3750  0.0603
  416MOL0     C54820  -2.042   3.368   2.009  0.2879  1.0304 -1.0430
  416MOL0     C54821  -2.185   3.415   1.971 -0.4236  0.2788 -0.8366
  416MOL0     C54822  -2.298   3.337   2.053 -0.2197 -0.3159  0.4750
  416MOL0     C54823  -2.427   3.383   2.012  0.4162 -0.9498  1.1410
  416MOL0    Cl54824  -2.468   3.560   2.046  0.3053  0.1188 -0.2627
  416MOL0     C54825  -1.417   3.293   2.356  0.2279 -0.1224  1.2234
  416MOL0     C54826  -1.295   3.227   2.363 -0.9251 -0.5773  0.4147
  416MOL0     O54827  -1.069   3.082   2.249 -0.1355 -0.5708  0.2694
  416MOL0     C54828  -0.933   2.888   2.499  0.2825 -0.0848 -0.0271
  416MOL0     C54829  -0.813   2.831   2.544 -0.5093  0.3905 -0.5833
  416MOL0     N54830  -0.167   2.782   2.898 -0.8517  0.3301 -0.1356
  416MOL0     N54831  -0.095   2.765   3.000  0.3268 -1.2729 -0.1245
  416MOL0     C54832   0.416   2.562   3.458  0.0703  0.6169  0.4926
  416MOL0     C54833   0.533   2.492   3.424 -0.1312 -0.6236 -0.1757
  416MOL0     C54834   0.881   2.306   3.273  0.1444 -0.4219  0.2687
  416MOL0     C54835   1.005   2.366   3.284 -0.4884  0.4333  0.7777
  416MOL0     C54836   1.123   2.298   3.254  0.0274 -0.2557  0.5843
  416MOL0     C54837   1.124   2.159   3.220  0.5601 -0.5811  0.1903
  416MOL0     O54838   1.236   2.093   3.201  0.2923  0.6725 -0.2347
  416MOL0     C54839   1.237   1.953   3.236 -0.5027  0.2675 -0.2946
  416MOL0     C54840   1.336   1.930   3.349  1.5565 -0.6952 -0.2371
  416MOL0     C54841   1.482   1.966   3.308 -0.0493  0.1653  0.6828
  416MOL0     C54842   1.558   1.978   3.445  0.1404  0.0288 -0.0836
  416MOL0     C54843   1.571   1.844   3.501 -0.6706  0.7483  0.1411
  416MOL0     C54844   1.587   1.731   3.548 -0.7422 -0.4261 -0.5444
  416MOL0     C54845   0.995   2.104   3.193 -0.5764 -0.4234 -1.1826
  416MOL0     C54846   0.877   2.173   3.225  0.2989 -0.2613  0.8303
  416MOL0     H54847   0.741   2.756   3.365  1.2748 -0.4396  1.5234
  416MOL0     H54848   0.542   2.880   3.437  1.2450 -0.6991  0.0740
  416MOL0     H54849   0.180   2.755   3.688  0.3698  0.5096 -0.7216
  416MOL0     H54850   0.226   2.604   3.609  2.8716 -0.4372 -1.5511
  416MOL0     H54851   0.105   2.673   3.401  3.4430  1.8494  0.1497
  416MOL0     H54852   0.057   2.818   3.496  1.5446  0.8537  0.5759
  416MOL0     H54853  -0.030   2.637   3.653 -0.9348  2.8548 -0.5271
  416MOL0     H54854  -0.027   2.524   3.515 -1.1650 -0.2285  0.1218
  416MOL0     H54855  -0.258   2.653   3.553 -0.8611  1.2869 -0.3056
  416MOL0     H54856  -0.171   2.800   3.529 -3.0777 -0.4985  1.3235
  416MOL0     H54857  -0.247   2.602   3.315  0.1627  1.5536 -2.4112
  416MOL0     H54858  -0.087   2.667   3.305  1.0728 -2.3068  2.3058
  416MOL0     H54859  -0.336   2.835   3.319  1.0105 -1.3701  3.0035
  416MOL0     H54860  -0.265   2.787   3.171 -1.5960  1.2592 -0.4422
  416MOL0     H54861  -0.196   3.013   3.230 -2.5132 -1.3604  1.0559
  416MOL0     H54862  -0.102   2.953   3.367  3.7134 -1.5843 -0.4689
  416MOL0     H54863   0.049   2.819   3.221 -2.6381 -3.0608 -2.7146
  416MOL0     H54864   0.046   3.002   3.185 -0.3707 -0.5121 -0.5818
  416MOL0     H54865  -0.049   3.090   2.949  1.5394  0.2464  1.1425
  416MOL0     H54866  -0.162   3.016   2.682  1.0250  2.7872  0.1961
  416MOL0     H54867  -0.241   3.109   2.797  0.2245  0.5328 -2.7299
  416MOL0     H54868  -0.382   3.001   2.613  0.8263  1.0841  0.7624
  416MOL0     H54869  -0.446   3.020   2.781  1.7508  0.7070  1.6116
  416MOL0     H54870  -0.338   2.781   2.637 -0.2124  1.9920 -1.0504
  416MOL0     H54871  -0.387   2.787   2.804  0.6178  2.3017  0.9226
  416MOL0     H54872  -0.612   2.893   2.716 -0.6360 -1.0066 -0.1612
  416MOL0     H54873  -0.581   2.713   2.711  1.5112 -0.0932  1.9196
  416MOL0     H54874  -0.586   2.990   2.344 -0.4410  1.2973 -0.8891
  416MOL0     H54875  -0.797   3.085   2.261 -0.5086 -2.7558 -2.2560
  416MOL0     H54876  -1.382   2.952   2.517  0.3334 -0.1473 -1.3910
  416MOL0     H54877  -1.615   3.051   2.468 -0.0386  0.0683 -1.7631
  416MOL0     H54878  -1.622   3.451   2.253 -0.8180  3.1839  0.0237
  416MOL0     H54879  -1.646   3.482   2.425 -1.6249  0.3618 -0.2140
  416MOL0     H54880  -1.829   3.552   2.315 -3.3312 -0.1973  2.5563
  416MOL0     H54881  -1.879   3.392   2.383 -0.4272 -2.0215 -1.8325
  416MOL0     H54882  -1.822   3.297   2.126  0.5084 -1.4502  2.7377
  416MOL0     H54883  -1.798   3.453   2.089  1.9644 -3.4780 -0.9232
  416MOL0     H54884  -2.049   3.356   2.222  1.3868 -1.4245 -0.0185
  416MOL0     H54885  -2.033   3.521   2.163 -1.0063 -0.9182  1.3006
  416MOL0     H54886  -2.034   3.259   2.012  0.6268  1.0523 -1.1647
  416MOL0     H54887  -1.978   3.422   1.938 -1.3644  4.0672 -0.3785
  416MOL0     H54888  -2.188   3.387   1.865  3.8974  2.0109 -1.6403
  416MOL0     H54889  -2.204   3.521   1.992 -1.8069 -0.2582  0.8615
  416MOL0     H54890  -2.282   3.229   2.045  2.4629 -0.2535  3.2344
  416MOL0     H54891  -2.285   3.351   2.160  2.9406  1.0312  0.0325
  416MOL0     H54892  -2.502   3.314   2.051  1.7225 -2.9071  0.3206
  416MOL0     H54893  -2.417   3.366   1.904  0.7640 -0.7796  1.1446
  416MOL0     H54894  -1.426   3.394   2.317 -0.9196 -0.5184  0.3663
  416MOL0     H54895  -1.202   3.278   2.339 -1.9244  2.1982  1.8672
  416MOL0     H54896  -1.031   2.855   2.529  0.4244  0.8467  1.6020
  416MOL0     H54897  -0.822   2.738   2.599 -0.7301  0.2245 -0.8973
  416MOL0     H54898   0.330   2.503   3.488  1.6509 -0.9528  2.2171
  416MOL0     H54899   0.529   2.383   3.433 -1.3081 -0.4378  4.6783
  416MOL0     H54900   1.013   2.471   3.310  0.1666  0.4185  0.6475
  416MOL0     H54901   1.218   2.347   3.266  0.0807 -0.2665  0.1965
  416MOL0     H54902   1.266   1.883   3.156  1.6062  1.5608 -0.7487
  416MOL0     H54903   1.140   1.914   3.269  0.0783 -1.8276 -0.9026
  416MOL0     H54904   1.293   1.982   3.435  0.3020  4.1464 -3.3825
  416MOL0     H54905   1.334   1.823   3.371  1.6541  0.2347  6.1704
  416MOL0     H54906   1.496   2.060   3.255 -0.5506  0.7013  1.4700
  416MOL0     H54907   1.517   1.883   3.247 -0.9118 -0.8912  1.5903
  416MOL0     H54908   1.658   2.021   3.431  0.2727 -1.1983 -3.8548
  416MOL0     H54909   1.514   2.049   3.515 -2.7084 -1.5785 -0.0907
  416MOL0     H54910   1.583   1.629   3.582 -4.9594 -0.6992 -1.3453
  416MOL0     H54911   0.987   2.000   3.164 -2.2632  0.1050 -2.7506
  416MOL0     H54912   0.779   2.131   3.203  1.0340 -0.1734 -3.4175
  417MOL0     O54913   5.209   5.206   4.863  0.7327  0.5698  0.5265
  417MOL0     C54914   5.096   5.172   4.896  0.1509  0.2109  0.2231
  417MOL0     O54915   5.023   5.075   4.833 -0.6191  0.3774  0.0585
  417MOL0     C54916   5.062   5.008   4.721 -0.3043  0.1524 -0.0027
  417MOL0     C54917   5.113   5.070   4.607 -0.3789  0.0954 -0.4849
  417MOL0     C54918   5.130   5.004   4.488 -1.1288 -0.1675  0.1110
  417MOL0     C54919   5.110   4.870   4.486  0.6343 -0.0562  0.3067
  417MOL0     O54920   5.108   4.801   4.364  0.3434  0.1078  0.0960
  417MOL0     C54921   5.237   4.774   4.308 -0.5423  0.2425 -0.1855
  417MOL0     C54922   5.259   4.856   4.171 -0.2122 -0.4980  0.1145
  417MOL0     C54923   5.149   4.848   4.066  0.1743  0.9976  0.7664
  417MOL0     C54924   5.181   4.929   3.946 -0.8385  0.0855  0.9552
  417MOL0     C54925   5.106   4.881   3.824  0.6551  1.4527 -0.3132
  417MOL0     C54926   5.131   4.959   3.699  0.1501 -0.0917 -1.1972
  417MOL0     C54927   5.051   4.911   3.577 -1.0771  0.2168  0.6932
  417MOL0     C54928   5.134   4.817   3.483  0.1798  0.9750  0.1148
  417MOL0     N54929   5.084   4.819   3.346 -0.3139  0.4821  1.0319
  417MOL0     C54930   5.035   4.706   3.278 -0.8378 -0.4674 -0.1458
  417MOL0     C54931   5.012   4.757   3.153  0.3153 -1.0162  0.2489
  417MOL0     C54932   4.941   4.679   3.042 -1.1433  0.4311  0.2495
  417MOL0     C54933   4.834   4.756   2.967  0.6906 -0.9830 -0.1325
  417MOL0     C54934   4.731   4.817   3.060 -0.1300  0.1129 -0.3494
  417MOL0     C54935   4.591   4.847   2.993 -0.4612  1.2592  0.6167
  417MOL0     O54936   4.484   4.806   3.074  0.0953 -0.7256 -0.0759
  417MOL0     C54937   4.433   4.676   3.075 -1.8612  0.8352  1.3488
  417MOL0     C54938   4.303   4.660   3.127  1.0636  0.1847  0.8731
  417MOL0     C54939   4.238   4.541   3.128 -0.2513 -0.0162  0.3387
  417MOL0     C54940   4.313   4.424   3.097 -0.3719 -0.2757  0.4567
  417MOL0     C54941   4.255   4.295   3.129  0.2495  0.9620 -0.2530
  417MOL0     O54942   4.133   4.281   3.184  0.8892  0.8840 -0.9633
  417MOL0     C54943   4.067   4.155   3.186  0.5664  0.9139 -0.2102
  417MOL0     C54944   3.933   4.123   3.136  0.2657  0.1754  0.0207
  417MOL0     C54945   3.890   3.991   3.143 -0.5108  0.3506 -1.0163
  417MOL0     C54946   3.972   3.893   3.204  0.0514 -0.5321  0.4574
  417MOL0     O54947   3.913   3.771   3.192 -0.1825 -0.1067 -0.1772
  417MOL0     C54948   3.977   3.658   3.255 -1.2565 -0.3104 -0.0969
  417MOL0     C54949   3.941   3.531   3.180  0.1305  0.0171  0.3434
  417MOL0     C54950   3.969   3.543   3.021 -0.0251  0.3108  0.3457
  417MOL0     C54951   3.936   3.422   2.937 -0.6184  0.4969  0.2128
  417MOL0     C54952   3.803   3.362   2.962 -0.3438 -0.0571 -0.4750
  417MOL0     C54953   3.769   3.254   2.859  0.0219  0.3116 -0.7636
  417MOL0     C54954   3.617   3.228   2.866 -0.3520 -0.1717  0.8528
  417MOL0     C54955   3.536   3.345   2.809  0.1269 -0.3812  0.1276
  417MOL0    Cl54956   3.369   3.287   2.774 -0.4615 -0.4439  0.1075
  417MOL0     C54957   4.098   3.924   3.255 -1.1873 -0.8143 -0.2543
  417MOL0     C54958   4.142   4.055   3.250  0.2759  0.2810 -0.4308
  417MOL0     O54959   4.327   4.202   3.101 -0.8903  0.3486 -0.7553
  417MOL0     C54960   4.449   4.427   3.054  0.8011  0.5824 -0.3540
  417MOL0     C54961   4.514   4.560   3.050  0.7474  0.1581  0.0170
  417MOL0     N54962   5.048   4.897   3.141  0.1513  0.4030 -0.5424
  417MOL0     N54963   5.083   4.928   3.258 -0.1974 -0.8504 -0.3955
  417MOL0     C54964   5.057   4.798   4.597 -0.6085  0.3654  0.3397
  417MOL0     C54965   5.039   4.868   4.717  0.3803 -0.6361  0.5540
  417MOL0     C54966   5.044   5.256   5.004  0.3082 -0.5054 -0.7397
  417MOL0     C54967   5.119   5.359   5.067  0.3678 -0.5251  0.3904
  417MOL0     C54968   5.063   5.454   5.162 -0.3319  0.4848 -0.3134
  417MOL0     C54969   4.922   5.459   5.180 -0.4737 -1.1080  0.0897
  417MOL0     O54970   4.868   5.553   5.263 -0.5415  0.0020 -0.0186
  417MOL0     C54971   4.850   5.678   5.199 -0.7323  0.0304 -0.0752
  417MOL0     C54972   4.702   5.697   5.151 -0.2547  0.5413  0.1348
  417MOL0     C54973   4.599   5.705   5.266 -1.0498 -0.2011  0.1203
  417MOL0     C54974   4.457   5.698   5.227 -0.6507  0.4631  0.2775
  417MOL0     C54975   4.372   5.719   5.348 -0.2574 -0.5046  0.1030
  417MOL0     C54976   4.298   5.756   5.438 -0.2822  0.0021 -0.1731
  417MOL0     C54977   4.848   5.361   5.114  0.1926  0.5282 -0.8619
  417MOL0     C54978   4.907   5.263   5.031 -0.0469  0.4116 -0.9941
  417MOL0     H54979   5.105   5.178   4.616 -2.1719  0.1336 -1.8455
  417MOL0     H54980   5.144   5.049   4.390  0.1564 -2.7429 -0.9723
  417MOL0     H54981   5.248   4.668   4.285  4.2429  0.3768  0.3141
  417MOL0     H54982   5.324   4.798   4.371 -0.6871 -0.3240  0.2388
  417MOL0     H54983   5.349   4.804   4.136 -1.3026 -2.7903  0.5313
  417MOL0     H54984   5.273   4.964   4.177 -0.6206  0.1503 -5.2346
  417MOL0     H54985   5.051   4.874   4.106 -1.0781  1.3540 -2.2781
  417MOL0     H54986   5.133   4.744   4.035 -2.5287  1.3335  0.8019
  417MOL0     H54987   5.173   5.038   3.957 -1.1157  0.3379 -1.3366
  417MOL0     H54988   5.288   4.920   3.924 -1.0951  3.8926 -3.1640
  417MOL0     H54989   4.998   4.878   3.842  0.3202 -0.0751 -2.2417
  417MOL0     H54990   5.137   4.776   3.820 -3.3807 -0.3856  4.6604
  417MOL0     H54991   5.237   4.966   3.672  0.4942  1.6707  0.3392
  417MOL0     H54992   5.096   5.062   3.712 -0.7336 -0.5162  0.0327
  417MOL0     H54993   4.952   4.875   3.605 -1.3597  0.8929  0.5689
  417MOL0     H54994   5.032   5.002   3.519  0.1854  0.3971  0.5202
  417MOL0     H54995   5.142   4.716   3.524  0.2310  0.9538  0.0530
  417MOL0     H54996   5.237   4.852   3.476  0.5639 -0.1492 -0.1131
  417MOL0     H54997   5.020   4.604   3.310  2.1444 -0.2288  2.4891
  417MOL0     H54998   4.898   4.585   3.077 -0.5686  1.2383  3.4399
  417MOL0     H54999   5.018   4.650   2.970 -0.5973  1.3919  0.4178
  417MOL0     H55000   4.778   4.698   2.893 -0.5876 -0.5044  0.4325
  417MOL0     H55001   4.887   4.838   2.917  1.8525 -1.7274 -0.1725
  417MOL0     H55002   4.716   4.737   3.134 -0.2341 -1.3462 -1.8764
  417MOL0     H55003   4.764   4.904   3.117  0.7127 -2.2439  3.0578
  417MOL0     H55004   4.590   4.794   2.897  0.9318  0.1171  1.2066
  417MOL0     H55005   4.590   4.953   2.963  0.2434  0.6011 -2.0391
  417MOL0     H55006   4.246   4.746   3.159  1.9537  0.5584  1.4952
  417MOL0     H55007   4.134   4.519   3.147 -0.3145 -1.3916 -1.3217
  417MOL0     H55008   3.871   4.182   3.069  3.8692 -0.7478 -4.7089
  417MOL0     H55009   3.799   3.958   3.093 -0.9239 -0.2652  0.1023
  417MOL0     H55010   3.936   3.652   3.356 -1.5516 -0.8991 -0.2473
  417MOL0     H55011   4.086   3.652   3.261 -1.2674  0.6035  1.5376
  417MOL0     H55012   3.834   3.513   3.191  0.3746 -1.7154  0.1482
  417MOL0     H55013   4.005   3.450   3.215  2.1761  0.9914 -0.9286
  417MOL0     H55014   4.072   3.575   3.007 -0.0765  0.5072  0.4141
  417MOL0     H55015   3.910   3.631   2.993  0.3664  0.3834 -0.2721
  417MOL0     H55016   3.935   3.451   2.832 -0.4566  0.5575  0.2287
  417MOL0     H55017   4.017   3.349   2.949 -0.1407  0.3250 -3.0079
  417MOL0     H55018   3.728   3.440   2.949  0.7518  0.8243 -1.8707
  417MOL0     H55019   3.800   3.327   3.066 -1.2044 -0.7227 -0.7121
  417MOL0     H55020   3.821   3.158   2.870  0.2891  0.5933  0.6720
  417MOL0     H55021   3.799   3.294   2.762 -3.0673 -1.4695 -2.5874
  417MOL0     H55022   3.592   3.140   2.806 -0.3233  1.1742 -1.2493
  417MOL0     H55023   3.592   3.214   2.971 -0.4319  1.0888  1.0192
  417MOL0     H55024   3.586   3.381   2.719 -1.6051  0.4062 -0.5549
  417MOL0     H55025   3.530   3.431   2.876 -0.3554 -0.9072  0.7754
  417MOL0     H55026   4.160   3.848   3.302 -0.9601 -0.0894  0.6554
  417MOL0     H55027   4.229   4.089   3.307 -1.1919  0.5511  1.7898
  417MOL0     H55028   4.508   4.337   3.040  0.5715  0.4325 -0.3704
  417MOL0     H55029   4.622   4.563   3.049  0.9653 -3.5520 -0.5836
  417MOL0     H55030   5.022   4.696   4.595 -3.2443  1.1714  1.2446
  417MOL0     H55031   4.997   4.826   4.808 -0.0843 -0.6749  0.3268
  417MOL0     H55032   5.226   5.365   5.050 -0.0694  2.3863 -2.1127
  417MOL0     H55033   5.127   5.524   5.216  0.1517  1.0632 -1.5776
  417MOL0     H55034   4.918   5.684   5.114 -0.0541 -1.7729  0.3106
  417MOL0     H55035   4.877   5.759   5.267  1.1245  0.3121 -1.0842
  417MOL0     H55036   4.693   5.785   5.087 -1.0018 -1.0232 -2.0303
  417MOL0     H55037   4.684   5.615   5.082 -0.1834  1.6250 -1.2109
  417MOL0     H55038   4.623   5.805   5.305  2.3625 -0.5674 -0.7273
  417MOL0     H55039   4.627   5.627   5.337 -0.0885 -0.4788 -0.5542
  417MOL0     H55040   4.435   5.782   5.160 -0.1056  1.0371  0.8133
  417MOL0     H55041   4.428   5.603   5.181 -1.5248  0.5166  0.6954
  417MOL0     H55042   4.231   5.784   5.517  1.1911 -1.1402  1.5732
  417MOL0     H55043   4.739   5.360   5.114  0.0689  2.8701  1.7955
  417MOL0     H55044   4.846   5.178   5.002  2.5018 -2.5420  1.5949
  418MOL0     O55045   3.077   3.964   1.352 -0.4775 -0.2977 -0.0966
  418MOL0     C55046   3.103   3.841   1.362  0.8405 -1.0623 -0.6479
  418MOL0     O55047   3.017   3.740   1.380 -0.5375  0.2983 -0.2712
  418MOL0     C55048   2.889   3.753   1.416 -0.2491  0.2066 -0.8021
  418MOL0     C55049   2.789   3.681   1.354  0.1795  0.1459 -0.0047
  418MOL0     C55050   2.660   3.708   1.381 -0.4339  0.3403  0.6349
  418MOL0     C55051   2.622   3.780   1.490  0.4915 -0.0183 -0.5300
  418MOL0     O55052   2.491   3.801   1.530 -0.1038 -1.1230  0.5308
  418MOL0     C55053   2.395   3.699   1.513 -0.8433 -0.3410 -0.2771
  418MOL0     C55054   2.254   3.758   1.458  0.0717 -0.1366  0.6220
  418MOL0     C55055   2.216   3.898   1.520  0.0928  1.1237 -0.3483
  418MOL0     C55056   2.082   3.952   1.457 -0.9064 -0.0034 -0.3254
  418MOL0     C55057   1.953   3.945   1.544 -0.4183  0.5819  0.0257
  418MOL0     C55058   1.924   3.805   1.607 -1.1044 -1.0570 -0.7645
  418MOL0     C55059   1.802   3.793   1.705 -0.6675 -0.8746  1.0737
  418MOL0     C55060   1.669   3.841   1.639  0.6500  0.2221 -0.3170
  418MOL0     N55061   1.561   3.876   1.734 -0.2506 -0.1498  0.4554
  418MOL0     C55062   1.532   4.008   1.772  0.4570 -0.1490  0.8157
  418MOL0     C55063   1.451   4.003   1.881 -0.0129  1.0266  0.0219
  418MOL0     C55064   1.390   4.115   1.966 -0.0257 -1.6745 -0.9445
  418MOL0     C55065   1.243   4.145   1.958 -0.1253  0.3584 -0.1675
  418MOL0     C55066   1.196   4.269   2.046 -0.0240  0.3628 -0.0022
  418MOL0     C55067   1.054   4.303   2.038  0.4333  0.0549  0.1229
  418MOL0     O55068   0.973   4.186   2.081 -0.4232 -0.6122  0.3903
  418MOL0     C55069   0.837   4.204   2.081  0.6723  0.4050  0.2426
  418MOL0     C55070   0.784   4.095   2.152  0.1077  0.0535  0.7844
  418MOL0     C55071   0.648   4.082   2.158 -0.1455 -0.4877  0.6145
  418MOL0     C55072   0.560   4.183   2.099 -0.1001 -0.6668 -0.3670
  418MOL0     C55073   0.407   4.171   2.105  0.6177  0.3906  0.3992
  418MOL0     O55074   0.361   4.070   2.179 -0.3651 -0.1789 -0.1682
  418MOL0     C55075   0.228   4.047   2.179 -0.4264 -0.0730 -0.1301
  418MOL0     C55076   0.174   3.929   2.120  0.7485  0.1320 -0.0163
  418MOL0     C55077   0.037   3.900   2.141  0.1227  0.3101 -0.7306
  418MOL0     C55078  -0.040   3.976   2.227 -0.9590  0.0918 -0.5075
  418MOL0     O55079  -0.162   3.936   2.268  0.2273 -0.0030 -0.1053
  418MOL0     C55080  -0.167   3.902   2.411 -0.4003  0.0930  0.6591
  418MOL0     C55081  -0.305   3.851   2.426 -0.9774 -0.4083 -0.6935
  418MOL0     C55082  -0.336   3.790   2.570  0.2855  0.1862 -0.1111
  418MOL0     C55083  -0.474   3.726   2.596 -0.0612 -0.1729  0.0563
  418MOL0     C55084  -0.477   3.641   2.720 -0.0121  0.0772 -0.3035
  418MOL0     C55085  -0.496   3.734   2.847 -0.7653 -0.7045  0.6932
  418MOL0     C55086  -0.487   3.652   2.983 -0.5732 -0.3293 -0.2351
  418MOL0     C55087  -0.623   3.596   3.019 -0.4037  0.1231  0.6940
  418MOL0    Cl55088  -0.723   3.726   3.107 -0.0429  0.5192  0.0077
  418MOL0     C55089   0.021   4.079   2.299  0.2456 -0.4959  1.1883
  418MOL0     C55090   0.150   4.122   2.265  0.0686 -0.0886 -0.6181
  418MOL0     O55091   0.338   4.247   2.035 -0.8122 -0.2923 -0.2039
  418MOL0     C55092   0.616   4.293   2.035 -0.4144 -0.0143  0.5691
  418MOL0     C55093   0.754   4.302   2.026 -0.3509 -0.5788 -0.1432
  418MOL0     N55094   1.421   3.867   1.899  0.0172  0.2295  0.7091
  418MOL0     N55095   1.477   3.791   1.806  0.2163  0.8650 -1.1271
  418MOL0     C55096   2.723   3.854   1.556  0.2939  0.4912 -0.0083
  418MOL0     C55097   2.852   3.845   1.515 -0.7094 -0.0482 -0.4126
  418MOL0     C55098   3.257   3.812   1.336 -0.7574 -0.1445  0.4673
  418MOL0     C55099   3.301   3.680   1.321 -0.0882 -0.0953  0.1590
  418MOL0     C55100   3.436   3.644   1.324  0.9445  0.6826 -1.5586
  418MOL0     C55101   3.531   3.747   1.323 -0.6085  0.2662  0.7213
  418MOL0     O55102   3.660   3.708   1.296  0.5583 -0.4540 -0.6399
  418MOL0     C55103   3.726   3.653   1.411  0.7043 -0.8774 -0.2817
  418MOL0     C55104   3.776   3.767   1.506  1.1485 -0.0813 -0.5619
  418MOL0     C55105   3.889   3.718   1.605  0.3494  0.3313 -0.0305
  418MOL0     C55106   3.956   3.834   1.685 -0.1729  1.3654 -0.0721
  418MOL0     C55107   4.073   3.784   1.759 -0.6688  0.6781 -0.3766
  418MOL0     C55108   4.177   3.758   1.816 -0.1072  1.0805 -0.2888
  418MOL0     C55109   3.493   3.876   1.325  0.8178 -0.1546 -0.9997
  418MOL0     C55110   3.355   3.914   1.336  0.4676 -0.2665  0.1514
  418MOL0     H55111   2.806   3.624   1.263  0.2587 -0.8100  0.5912
  418MOL0     H55112   2.587   3.658   1.318  2.4032 -0.2966 -2.3972
  418MOL0     H55113   2.383   3.659   1.614 -1.3535 -2.4510 -1.1144
  418MOL0     H55114   2.424   3.613   1.452 -0.5828  1.6987 -3.2587
  418MOL0     H55115   2.173   3.691   1.490 -0.4298 -0.4741 -1.1944
  418MOL0     H55116   2.248   3.756   1.348  0.3863 -1.9203  0.6163
  418MOL0     H55117   2.292   3.970   1.489  0.5828  0.7753  0.0160
  418MOL0     H55118   2.214   3.888   1.629 -2.1801  2.1358 -0.2346
  418MOL0     H55119   2.104   4.058   1.437  0.4073 -0.2235 -0.1335
  418MOL0     H55120   2.063   3.908   1.359 -2.5322  0.9303 -0.4574
  418MOL0     H55121   1.865   3.976   1.487 -1.6270  0.2857  1.6445
  418MOL0     H55122   1.970   4.009   1.631  1.8154  2.6884 -1.7991
  418MOL0     H55123   2.013   3.771   1.660 -1.0848  1.9659  1.3913
  418MOL0     H55124   1.907   3.733   1.526 -2.3077 -2.3778  0.5955
  418MOL0     H55125   1.785   3.685   1.711  1.7948 -1.2854  1.7445
  418MOL0     H55126   1.819   3.838   1.804  0.8568  0.5273  0.2171
  418MOL0     H55127   1.629   3.765   1.573  0.9744  0.1088 -0.3846
  418MOL0     H55128   1.681   3.937   1.588 -1.3593  1.7309  1.8183
  418MOL0     H55129   1.567   4.096   1.719  1.1895 -0.5309  0.6417
  418MOL0     H55130   1.449   4.207   1.958 -2.8626  0.6595  2.0620
  418MOL0     H55131   1.418   4.084   2.067 -3.7967 -0.6200  0.6028
  418MOL0     H55132   1.191   4.060   2.005 -0.6555  1.3004  1.0028
  418MOL0     H55133   1.214   4.165   1.855  1.3172  0.7409 -0.5081
  418MOL0     H55134   1.223   4.241   2.148  0.3433 -1.5205 -0.5752
  418MOL0     H55135   1.252   4.358   2.013 -0.2001  0.4561 -0.0517
  418MOL0     H55136   1.030   4.345   1.940 -1.9716  4.6345  2.3444
  418MOL0     H55137   1.022   4.394   2.091 -2.7817  1.2946 -3.3777
  418MOL0     H55138   0.845   4.022   2.204 -0.3382 -1.3719 -0.6032
  418MOL0     H55139   0.607   3.991   2.200 -2.6918  0.5268  0.5306
  418MOL0     H55140   0.237   3.856   2.071  0.0091 -0.3377 -0.2630
  418MOL0     H55141  -0.014   3.815   2.096  1.3875 -0.7114 -0.3056
  418MOL0     H55142  -0.152   3.989   2.476 -0.4599  0.2864  0.4169
  418MOL0     H55143  -0.094   3.826   2.443  1.0773  1.1987  0.0736
  418MOL0     H55144  -0.305   3.758   2.367  0.6512 -0.3564 -0.8477
  418MOL0     H55145  -0.381   3.924   2.398 -1.3717 -1.0706 -1.4040
  418MOL0     H55146  -0.312   3.864   2.647 -2.5303  2.1138 -0.9002
  418MOL0     H55147  -0.273   3.703   2.588 -1.1288 -0.5741  1.4762
  418MOL0     H55148  -0.540   3.814   2.600 -0.8615 -0.7998  1.1026
  418MOL0     H55149  -0.509   3.673   2.507  1.0783 -0.8507 -0.0138
  418MOL0     H55150  -0.383   3.590   2.737  0.7549  1.4850 -0.1575
  418MOL0     H55151  -0.568   3.579   2.720 -0.0071  0.0472  0.8529
  418MOL0     H55152  -0.588   3.792   2.842 -1.2782 -1.5824 -0.7214
  418MOL0     H55153  -0.408   3.798   2.858 -0.8609 -0.0805 -1.5862
  418MOL0     H55154  -0.412   3.572   2.976  0.4377  0.5896 -0.2468
  418MOL0     H55155  -0.452   3.719   3.062  0.0695 -0.6810 -0.2139
  418MOL0     H55156  -0.618   3.501   3.074 -0.5927  0.7851  1.8777
  418MOL0     H55157  -0.665   3.575   2.920  3.3569  2.0704 -1.5605
  418MOL0     H55158  -0.039   4.141   2.365 -3.0630  1.4193 -3.1232
  418MOL0     H55159   0.190   4.212   2.312  1.0527 -0.3158 -0.9985
  418MOL0     H55160   0.548   4.360   1.984  0.0554  0.3262  0.3820
  418MOL0     H55161   0.789   4.388   1.970 -3.0288 -0.4697 -1.8722
  418MOL0     H55162   2.704   3.919   1.641  2.0314  0.0272  0.7833
  418MOL0     H55163   2.925   3.903   1.569 -1.0792 -0.7697  0.9000
  418MOL0     H55164   3.225   3.603   1.327 -0.1971 -0.4128 -3.5134
  418MOL0     H55165   3.453   3.537   1.326 -0.2697  0.4708  0.5807
  418MOL0     H55166   3.806   3.588   1.372  0.9631 -1.1650  0.6965
  418MOL0     H55167   3.656   3.588   1.465 -0.4521 -0.9635 -1.8057
  418MOL0     H55168   3.809   3.848   1.441 -0.2440  0.3300 -0.7839
  418MOL0     H55169   3.695   3.802   1.571  2.1672  2.2398 -0.4468
  418MOL0     H55170   3.962   3.669   1.541  0.4054 -0.4038  0.5899
  418MOL0     H55171   3.842   3.647   1.674  0.5075  1.5206  1.3448
  418MOL0     H55172   3.980   3.910   1.610 -3.1479  2.1222 -0.3699
  418MOL0     H55173   3.882   3.876   1.754 -1.9219 -0.7249 -0.5664
  418MOL0     H55174   4.269   3.729   1.863 -0.5866 -0.5666 -0.2887
  418MOL0     H55175   3.577   3.945   1.330 -1.5667  2.8713  1.3641
  418MOL0     H55176   3.332   4.017   1.361  1.0624 -0.4537  1.5567
  419MOL0     O55177   2.373   7.613   2.082 -0.1562 -0.1001  0.2106
  419MOL0     C55178   2.288   7.581   2.009  0.4857  0.2738  0.8659
  419MOL0     O55179   2.307   7.560   1.868  0.3802 -0.1253 -0.4231
  419MOL0     C55180   2.435   7.578   1.820 -0.0496  0.7798 -0.1646
  419MOL0     C55181   2.548   7.519   1.877 -0.2376 -0.6608  0.7379
  419MOL0     C55182   2.676   7.570   1.858  0.7697  0.5113 -0.1694
  419MOL0     C55183   2.696   7.675   1.772 -0.1024 -0.6616 -0.9327
  419MOL0     O55184   2.826   7.733   1.754 -0.1497 -0.4823 -0.1133
  419MOL0     C55185   2.935   7.642   1.726  0.4095 -0.2198  0.4920
  419MOL0     C55186   3.054   7.723   1.679 -0.7675  0.0593 -0.9460
  419MOL0     C55187   3.180   7.634   1.655  0.2139 -0.0117  0.7002
  419MOL0     C55188   3.291   7.705   1.573  0.4460 -0.6245 -1.0703
  419MOL0     C55189   3.427   7.653   1.586  0.2637  0.9127 -0.0233
  419MOL0     C55190   3.522   7.746   1.504  0.3025  0.2401 -0.3968
  419MOL0     C55191   3.666   7.680   1.498  0.1019 -0.0674  0.5981
  419MOL0     C55192   3.763   7.780   1.453 -0.1101  0.1734 -0.3064
  419MOL0     N55193   3.892   7.713   1.433 -0.2308  0.6709  1.0246
  419MOL0     C55194   3.991   7.688   1.531  0.7355 -0.2710  0.3386
  419MOL0     C55195   4.089   7.634   1.463 -0.2226  0.0847 -0.2804
  419MOL0     C55196   4.223   7.596   1.517 -0.3830 -0.1287  1.4486
  419MOL0     C55197   4.321   7.711   1.495 -0.0635 -0.1239  0.6628
  419MOL0     C55198   4.460   7.653   1.497 -0.1708 -0.1333 -0.4500
  419MOL0     C55199   4.556   7.763   1.462  0.4402  0.1466  0.5094
  419MOL0     O55200   4.537   7.872   1.552 -0.5590  0.5076  0.0320
  419MOL0     C55201   4.630   7.971   1.554  0.5588 -0.7416  0.0040
  419MOL0     C55202   4.627   8.041   1.677  0.1834  0.0685 -0.0578
  419MOL0     C55203   4.726   8.130   1.704  0.5144  0.4361  0.2501
  419MOL0     C55204   4.820   8.158   1.610  0.0129  0.1097  0.0756
  419MOL0     C55205   4.936   8.232   1.656  0.2024  0.0434 -0.2666
  419MOL0     O55206   4.932   8.307   1.778  0.7002  0.5491  0.9218
  419MOL0     C55207   5.059   8.327   1.841 -0.6707  0.1776  0.3300
  419MOL0     C55208   5.160   8.225   1.859 -0.2182  0.3909 -1.0635
  419MOL0     C55209   5.277   8.259   1.925  0.0841 -0.3532  0.4478
  419MOL0     C55210   5.299   8.389   1.977  0.0554 -0.4874  0.4930
  419MOL0     O55211   5.415   8.433   2.035  0.2924  0.2291 -0.2840
  419MOL0     C55212   5.524   8.334   2.046  0.2516  0.3439 -0.3707
  419MOL0     C55213   5.655   8.393   2.102 -0.0382 -0.5881 -0.2760
  419MOL0     C55214   5.623   8.474   2.230  0.2832  0.1673 -0.2851
  419MOL0     C55215   5.618   8.382   2.360  0.1587 -0.6596 -1.2975
  419MOL0     C55216   5.587   8.449   2.493 -0.9924 -0.0918  0.5345
  419MOL0     C55217   5.622   8.364   2.621 -1.0411 -0.5143  0.6441
  419MOL0     C55218   5.612   8.450   2.750  0.2471 -0.0160 -0.2265
  419MOL0     C55219   5.620   8.372   2.887 -0.3155 -0.7260 -0.4445
  419MOL0    Cl55220   5.767   8.269   2.880  0.1600 -0.3938  0.4109
  419MOL0     C55221   5.208   8.497   1.951 -1.2188  0.0561  0.4035
  419MOL0     C55222   5.091   8.459   1.891 -1.0115 -0.2776  0.7480
  419MOL0     O55223   5.031   8.231   1.580 -1.2061 -0.6439  0.1916
  419MOL0     C55224   4.820   8.099   1.478 -0.6379  0.1028  0.3925
  419MOL0     C55225   4.720   8.007   1.450 -0.5629  0.4824 -0.4344
  419MOL0     N55226   4.054   7.630   1.325 -0.4466  0.5806  0.2078
  419MOL0     N55227   3.940   7.679   1.310 -0.1354 -0.3626 -0.0741
  419MOL0     C55228   2.587   7.720   1.701 -0.2873 -0.9507 -0.5027
  419MOL0     C55229   2.460   7.679   1.735  0.4280 -0.1443  0.0047
  419MOL0     C55230   2.146   7.593   2.064 -0.5483  0.2533 -0.0407
  419MOL0     C55231   2.111   7.589   2.202  0.0150  0.4959 -0.1470
  419MOL0     C55232   1.980   7.618   2.246 -0.4742 -0.3841  0.3159
  419MOL0     C55233   1.877   7.654   2.159 -0.5979  0.4116 -0.3891
  419MOL0     O55234   1.751   7.678   2.198  0.2287  0.3932 -0.1444
  419MOL0     C55235   1.727   7.725   2.324  0.0347 -0.2182  0.7884
  419MOL0     C55236   1.611   7.828   2.318 -0.8966 -0.4991 -0.2244
  419MOL0     C55237   1.475   7.766   2.342  0.4775  0.1168 -0.5603
  419MOL0     C55238   1.364   7.864   2.376  1.0301  0.6298  0.5192
  419MOL0     C55239   1.248   7.784   2.427  1.3006  0.2807  0.0567
  419MOL0     C55240   1.145   7.719   2.449  0.3421  0.3514  0.4778
  419MOL0     C55241   1.919   7.649   2.017  0.6135 -0.7093 -1.5539
  419MOL0     C55242   2.050   7.622   1.971 -0.4114  0.0388  0.5166
  419MOL0     H55243   2.546   7.445   1.956  3.1983  1.1278  2.7701
  419MOL0     H55244   2.749   7.513   1.915  2.5322  2.8762  0.0663
  419MOL0     H55245   2.915   7.573   1.644 -1.0637  1.8310 -0.9795
  419MOL0     H55246   2.960   7.596   1.822 -0.1365  1.6145  1.5729
  419MOL0     H55247   3.075   7.800   1.753 -0.1328 -3.3637  2.7560
  419MOL0     H55248   3.038   7.782   1.588 -2.1470  0.9420 -0.1669
  419MOL0     H55249   3.172   7.534   1.613  1.5324 -0.9038  2.4159
  419MOL0     H55250   3.212   7.601   1.754 -0.1837 -1.4588  0.3622
  419MOL0     H55251   3.260   7.706   1.468 -0.4028 -0.9047 -0.8272
  419MOL0     H55252   3.294   7.811   1.599  0.2605 -1.0939  1.1061
  419MOL0     H55253   3.437   7.554   1.540  1.0591  1.3598 -0.8573
  419MOL0     H55254   3.448   7.644   1.693  0.3838 -0.0125 -0.1201
  419MOL0     H55255   3.535   7.842   1.554 -3.6829  0.6649  0.1674
  419MOL0     H55256   3.484   7.772   1.404 -1.6364  2.4918  0.8290
  419MOL0     H55257   3.697   7.627   1.588  1.6676 -2.5736 -1.2738
  419MOL0     H55258   3.663   7.598   1.426 -2.0588  0.4059  0.0708
  419MOL0     H55259   3.770   7.862   1.525  3.9735  1.6672 -2.0672
  419MOL0     H55260   3.728   7.822   1.358 -0.0271 -1.6286 -1.1862
  419MOL0     H55261   3.985   7.715   1.636 -3.1695 -0.7294  0.3970
  419MOL0     H55262   4.258   7.510   1.460  1.6265  2.1403 -0.9951
  419MOL0     H55263   4.219   7.570   1.623 -1.7824 -0.5025  1.3202
  419MOL0     H55264   4.309   7.786   1.574 -1.6214 -0.0759  0.4115
  419MOL0     H55265   4.295   7.772   1.409  0.0574  0.3927  0.9899
  419MOL0     H55266   4.476   7.617   1.599  1.4517  0.9816 -0.2878
  419MOL0     H55267   4.473   7.568   1.428  0.2810  0.5830 -1.2607
  419MOL0     H55268   4.539   7.803   1.362 -0.4243 -2.0599 -0.2869
  419MOL0     H55269   4.650   7.707   1.450  0.2515 -0.0395 -0.1705
  419MOL0     H55270   4.558   8.037   1.761  0.3161  3.1760  0.3186
  419MOL0     H55271   4.722   8.180   1.800 -3.0709  0.0613  0.4055
  419MOL0     H55272   5.139   8.123   1.828  0.4397  0.2455 -1.0598
  419MOL0     H55273   5.345   8.183   1.962  0.3331  0.5152  1.8405
  419MOL0     H55274   5.551   8.299   1.946  2.6578  0.8291  0.0414
  419MOL0     H55275   5.495   8.257   2.118  0.9605 -1.9322 -2.3894
  419MOL0     H55276   5.706   8.453   2.027 -1.6286 -1.0214 -1.7684
  419MOL0     H55277   5.731   8.318   2.122  1.2770  0.2915 -1.7692
  419MOL0     H55278   5.534   8.535   2.213  1.0019  0.9795 -1.2264
  419MOL0     H55279   5.704   8.546   2.242 -0.9417  1.4783  0.4257
  419MOL0     H55280   5.541   8.305   2.368  1.2824 -1.5912  3.1248
  419MOL0     H55281   5.716   8.333   2.363  1.4965  1.8689  0.8872
  419MOL0     H55282   5.487   8.493   2.501 -0.1925  1.7776  0.7580
  419MOL0     H55283   5.657   8.533   2.490 -3.0163  1.6630 -0.6569
  419MOL0     H55284   5.726   8.331   2.611  0.2302  2.8101  1.4836
  419MOL0     H55285   5.554   8.278   2.624  0.4443 -1.7777  0.0661
  419MOL0     H55286   5.695   8.521   2.751  1.7674 -1.6883 -0.8540
  419MOL0     H55287   5.512   8.493   2.739  0.5122  0.5814 -0.3338
  419MOL0     H55288   5.531   8.310   2.896 -0.7536 -0.7595 -3.6714
  419MOL0     H55289   5.633   8.446   2.966  0.8838 -1.9653  0.5720
  419MOL0     H55290   5.225   8.600   1.982  1.1618  0.5615 -2.1717
  419MOL0     H55291   5.022   8.542   1.876 -2.0129 -0.7724  2.3651
  419MOL0     H55292   4.898   8.123   1.407  0.1897  1.1430  1.6235
  419MOL0     H55293   4.724   7.955   1.355  3.8624 -3.0212  1.2823
  419MOL0     H55294   2.601   7.803   1.632 -1.3151 -0.1974  0.1628
  419MOL0     H55295   2.368   7.725   1.699  0.7497  0.3886 -0.1464
  419MOL0     H55296   2.193   7.574   2.272  1.0130 -1.1342 -1.6012
  419MOL0     H55297   1.951   7.610   2.350 -0.1236 -1.8192  0.3225
  419MOL0     H55298   1.814   7.778   2.362 -2.3603  3.8875  1.1342
  419MOL0     H55299   1.718   7.640   2.392 -1.0494  0.8710  2.0602
  419MOL0     H55300   1.640   7.876   2.412  3.1456 -2.7892 -0.0374
  419MOL0     H55301   1.626   7.894   2.232  5.4880  0.3870  1.0484
  419MOL0     H55302   1.485   7.690   2.420 -0.0052  0.4249 -0.1906
  419MOL0     H55303   1.450   7.707   2.253 -0.7617 -0.5968  0.2258
  419MOL0     H55304   1.397   7.935   2.453 -1.1872  0.3906  1.7682
  419MOL0     H55305   1.333   7.912   2.283  0.3779  0.3525  0.5893
  419MOL0     H55306   1.067   7.651   2.472  3.3362 -3.7793 -0.4123
  419MOL0     H55307   1.838   7.680   1.951 -0.3993  1.2286  0.4814
  419MOL0     H55308   2.065   7.619   1.863 -1.7048 -0.5914  0.3470
  420MOL0     O55309   9.780   6.686   7.762  0.1414 -0.0946 -0.6495
  420MOL0     C55310   9.809   6.687   7.882 -0.2326 -0.2212  1.1240
  420MOL0     O55311   9.726   6.715   7.985 -0.1233  0.0877 -0.6094
  420MOL0     C55312   9.596   6.754   7.971 -0.6521 -0.7110  0.1053
  420MOL0     C55313   9.552   6.895   7.955  0.4633  0.3796  0.1176
  420MOL0     C55314   9.430   6.929   7.922  0.5360 -0.0468  0.2199
  420MOL0     C55315   9.340   6.823   7.892 -0.6151  0.1619 -0.1033
  420MOL0     O55316   9.215   6.856   7.846 -0.5106 -0.2933 -0.3995
  420MOL0     C55317   9.105   6.781   7.894 -0.5757  0.7324  0.0928
  420MOL0     C55318   8.996   6.883   7.923 -0.4991  0.3684  0.2254
  420MOL0     C55319   8.861   6.823   7.966 -0.6152 -0.1584 -0.1247
  420MOL0     C55320   8.764   6.922   8.012 -0.7069 -0.2182  0.2420
  420MOL0     C55321   8.620   6.880   8.040  0.4934  0.0912  0.2841
  420MOL0     C55322   8.545   7.006   8.082  0.0584  0.9397 -0.4252
  420MOL0     C55323   8.399   6.972   8.138 -0.2326 -0.5181  0.5735
  420MOL0     C55324   8.325   6.887   8.032 -0.9352  0.1594  0.5055
  420MOL0     N55325   8.170   6.894   8.051 -0.3518 -0.1013  0.6710
  420MOL0     C55326   8.104   6.831   8.153  0.1942  0.0980 -0.1782
  420MOL0     C55327   7.974   6.867   8.141  0.8747  0.0062  0.7317
  420MOL0     C55328   7.868   6.831   8.240  0.3003 -0.7392  0.7415
  420MOL0     C55329   7.738   6.918   8.230  0.0176 -1.1612  1.3815
  420MOL0     C55330   7.752   7.060   8.285 -0.4569 -0.0703 -0.3976
  420MOL0     C55331   7.625   7.131   8.260  0.5216 -0.2064  0.0873
  420MOL0     O55332   7.498   7.068   8.280  0.7844  0.4326 -0.2198
  420MOL0     C55333   7.383   7.146   8.295 -1.0460  0.6717 -0.7935
  420MOL0     C55334   7.384   7.278   8.256  0.8403  0.5118  0.4091
  420MOL0     C55335   7.268   7.356   8.268 -0.5319  0.2507 -0.1050
  420MOL0     C55336   7.161   7.310   8.343 -0.1949 -0.2640  0.7548
  420MOL0     C55337   7.042   7.402   8.361 -0.8823 -0.0256 -0.0715
  420MOL0     O55338   6.950   7.348   8.440 -0.0324  0.0206  0.7478
  420MOL0     C55339   6.824   7.408   8.459 -0.1041  0.5253 -0.1489
  420MOL0     C55340   6.749   7.447   8.358  1.0694  0.6923 -0.4324
  420MOL0     C55341   6.622   7.509   8.379 -0.0015 -0.8784  0.6062
  420MOL0     C55342   6.558   7.499   8.512 -0.7098  0.3330  0.6077
  420MOL0     O55343   6.424   7.538   8.506 -0.3524 -0.3749 -0.7452
  420MOL0     C55344   6.339   7.485   8.607 -0.1142 -0.1543 -0.5848
  420MOL0     C55345   6.201   7.547   8.588  0.8314 -0.9091 -0.3445
  420MOL0     C55346   6.108   7.493   8.695 -0.9457 -0.6548  1.2646
  420MOL0     C55347   6.115   7.590   8.813  0.7785 -0.4988  0.7786
  420MOL0     C55348   6.063   7.541   8.956 -0.9798 -0.1373  0.3657
  420MOL0     C55349   5.910   7.556   8.979 -0.1183  0.6219 -0.1837
  420MOL0     C55350   5.866   7.555   9.132  0.0053  0.1918 -0.0761
  420MOL0     C55351   5.718   7.594   9.142 -1.2254  0.1833  1.2044
  420MOL0    Cl55352   5.604   7.506   9.045 -0.3431 -0.4260 -0.3061
  420MOL0     C55353   6.633   7.442   8.619 -0.7158 -0.1244  0.0663
  420MOL0     C55354   6.766   7.397   8.589  0.3691  1.1694 -0.8659
  420MOL0     O55355   7.040   7.514   8.306  0.1568  0.6754 -0.5461
  420MOL0     C55356   7.170   7.180   8.398 -0.4676 -0.3137  0.6451
  420MOL0     C55357   7.280   7.097   8.376 -0.0511 -0.8839  0.2588
  420MOL0     N55358   7.958   6.931   8.018  0.3378 -0.7959 -0.0353
  420MOL0     N55359   8.074   6.951   7.966 -0.5547  0.3038 -0.0647
  420MOL0     C55360   9.374   6.689   7.908 -0.1706 -0.8562 -0.4308
  420MOL0     C55361   9.497   6.662   7.963 -1.0265  0.0963  0.6545
  420MOL0     C55362   9.950   6.660   7.913 -0.3795  0.5735 -1.2483
  420MOL0     C55363  10.051   6.645   7.817 -0.1666  0.7462 -0.1113
  420MOL0     C55364  10.187   6.620   7.852  0.3181  0.0437  0.2461
  420MOL0     C55365  10.221   6.610   7.984  0.0721 -0.7046 -0.4194
  420MOL0     O55366  10.352   6.586   8.021  0.5379  0.2723 -0.2414
  420MOL0     C55367  10.435   6.519   7.924  0.1437 -0.6442  0.2670
  420MOL0     C55368  10.533   6.415   7.991 -0.2740 -0.0420 -0.3602
  420MOL0     C55369  10.602   6.319   7.895  0.0010  0.2130 -0.1757
  420MOL0     C55370  10.684   6.207   7.949  0.7004 -0.4661  0.1891
  420MOL0     C55371  10.796   6.249   8.029 -0.0780 -0.2615 -0.1146
  420MOL0     C55372  10.892   6.265   8.100 -0.4620  0.1693  0.0246
  420MOL0     C55373  10.121   6.619   8.080  0.6105  0.2271 -0.7205
  420MOL0     C55374   9.993   6.647   8.043  0.2542  0.6735 -0.7432
  420MOL0     H55375   9.630   6.966   7.981  0.9094 -0.5899  1.5872
  420MOL0     H55376   9.414   7.037   7.917 -1.7895 -0.3867 -0.8149
  420MOL0     H55377   9.136   6.723   7.981  0.6082 -1.4850 -1.6725
  420MOL0     H55378   9.070   6.711   7.817 -0.0586  1.2510 -0.6359
  420MOL0     H55379   8.992   6.947   7.834  5.8742  1.9538  0.6351
  420MOL0     H55380   9.038   6.963   7.985 -1.1187  1.5778 -0.8441
  420MOL0     H55381   8.873   6.743   8.040  1.9703  0.6432  0.4051
  420MOL0     H55382   8.829   6.771   7.875  3.3722 -3.7603  0.2289
  420MOL0     H55383   8.794   6.961   8.110 -1.6441  1.1756  0.0067
  420MOL0     H55384   8.763   7.003   7.939 -0.5799  0.5236  1.0458
  420MOL0     H55385   8.614   6.802   8.116 -0.2721 -0.5477 -0.4188
  420MOL0     H55386   8.573   6.852   7.946 -1.7237 -0.0383  1.3498
  420MOL0     H55387   8.541   7.071   7.995  0.6605  1.1672 -0.2866
  420MOL0     H55388   8.593   7.049   8.170 -2.2087  0.1450  1.2905
  420MOL0     H55389   8.411   6.918   8.232  1.1771 -5.5365 -2.0988
  420MOL0     H55390   8.353   7.070   8.154 -1.9871 -1.0238 -1.0146
  420MOL0     H55391   8.350   6.781   8.047 -5.3012 -0.8099  2.7277
  420MOL0     H55392   8.359   6.916   7.932 -0.2052 -0.0281  0.6913
  420MOL0     H55393   8.138   6.782   8.244 -1.7100 -0.7259  0.1355
  420MOL0     H55394   7.900   6.831   8.344 -1.4134 -1.0503  1.3000
  420MOL0     H55395   7.846   6.727   8.211 -0.1550 -0.0486 -1.6874
  420MOL0     H55396   7.663   6.866   8.291 -2.5897 -0.1585 -0.7618
  420MOL0     H55397   7.710   6.934   8.126  1.0900  0.1956  1.2884
  420MOL0     H55398   7.773   7.061   8.392 -1.4344  1.9184 -0.1736
  420MOL0     H55399   7.831   7.114   8.232  0.8797 -2.7112 -1.2884
  420MOL0     H55400   7.629   7.183   8.164 -2.6338 -2.1621 -1.2575
  420MOL0     H55401   7.622   7.209   8.337 -1.6871 -1.3282  1.2400
  420MOL0     H55402   7.464   7.321   8.197 -2.2391  2.7857 -2.5354
  420MOL0     H55403   7.258   7.445   8.207  0.7765  0.0436 -0.6606
  420MOL0     H55404   6.786   7.423   8.259  1.1773 -0.3878 -0.1450
  420MOL0     H55405   6.559   7.522   8.292  3.6772  1.1142 -2.0336
  420MOL0     H55406   6.374   7.491   8.710  2.1274 -0.4567 -1.2726
  420MOL0     H55407   6.330   7.380   8.578  3.4676 -0.4676 -1.0351
  420MOL0     H55408   6.168   7.501   8.494  4.1541 -2.5648 -0.8298
  420MOL0     H55409   6.206   7.656   8.580 -0.0611 -0.5699  2.4985
  420MOL0     H55410   6.127   7.390   8.725  1.6709 -0.4832  0.4458
  420MOL0     H55411   6.005   7.501   8.658 -0.7382 -0.9263  0.6086
  420MOL0     H55412   6.219   7.622   8.827  0.7967  0.0408 -0.5111
  420MOL0     H55413   6.066   7.684   8.784  3.5132  1.1992  1.2565
  420MOL0     H55414   6.106   7.598   9.038  0.7992 -0.0593 -0.5849
  420MOL0     H55415   6.098   7.438   8.965  3.3688  0.8745 -2.1572
  420MOL0     H55416   5.856   7.480   8.922  0.3162  1.8492 -2.3412
  420MOL0     H55417   5.881   7.651   8.932 -1.4305 -0.5420 -1.8831
  420MOL0     H55418   5.874   7.455   9.174  0.7610  0.6479  0.9144
  420MOL0     H55419   5.919   7.629   9.193  2.1075  0.0942 -1.6696
  420MOL0     H55420   5.709   7.703   9.133 -0.6988  0.4468  3.3187
  420MOL0     H55421   5.695   7.583   9.248  0.2016  3.6244  1.9807
  420MOL0     H55422   6.587   7.424   8.716 -1.3177  1.3388  0.0855
  420MOL0     H55423   6.811   7.332   8.663 -4.2908 -0.0027  1.3234
  420MOL0     H55424   7.091   7.137   8.459  1.2998 -3.8010  0.7374
  420MOL0     H55425   7.278   7.007   8.436 -0.3252 -1.4427 -0.5688
  420MOL0     H55426   9.299   6.611   7.907  0.8660 -1.9284 -2.6807
  420MOL0     H55427   9.527   6.559   7.984 -1.7818 -0.3789 -0.5199
  420MOL0     H55428  10.021   6.649   7.712  3.9322  3.3849 -1.4043
  420MOL0     H55429  10.264   6.625   7.776  2.3003 -2.7972  1.8629
  420MOL0     H55430  10.495   6.586   7.861 -3.9884  0.6378 -2.7801
  420MOL0     H55431  10.374   6.467   7.849  1.4630 -0.5856 -0.8805
  420MOL0     H55432  10.616   6.465   8.041 -0.2315 -0.2459 -0.2282
  420MOL0     H55433  10.477   6.357   8.064  1.3664 -0.2418  0.7821
  420MOL0     H55434  10.677   6.372   7.835  0.2791 -0.2448 -0.2338
  420MOL0     H55435  10.525   6.271   7.834  0.1916 -0.4699  0.1176
  420MOL0     H55436  10.609   6.149   8.004  0.2212 -0.3490 -0.3387
  420MOL0     H55437  10.732   6.146   7.872 -2.2581 -3.0426  0.1968
  420MOL0     H55438  10.977   6.268   8.165 -0.7487  1.8746  0.3705
  420MOL0     H55439  10.136   6.618   8.188  0.0329  2.1712 -0.5758
  420MOL0     H55440   9.918   6.646   8.122 -1.5469  2.9968 -2.3026
  421MOL0     O55441   7.595   9.674   8.791 -0.0533 -0.4488  0.0684
  421MOL0     C55442   7.601   9.653   8.915 -0.5791 -0.1207  0.0390
  421MOL0     O55443   7.504   9.605   9.001 -0.7085 -0.8143  0.1570
  421MOL0     C55444   7.365   9.625   8.977  0.4640 -1.2451 -0.7716
  421MOL0     C55445   7.267   9.566   9.067 -0.3551 -0.2436  0.8284
  421MOL0     C55446   7.133   9.592   9.062  0.2247 -0.8894  0.0164
  421MOL0     C55447   7.081   9.661   8.959 -0.2901 -0.3173 -0.9196
  421MOL0     O55448   6.946   9.687   8.961  0.7692 -0.6032  0.4363
  421MOL0     C55449   6.867   9.674   8.837  0.0313 -0.2180 -0.4206
  421MOL0     C55450   6.762   9.574   8.863 -0.3274 -0.1238  0.2511
  421MOL0     C55451   6.654   9.563   8.759 -0.1321 -0.6571 -0.2745
  421MOL0     C55452   6.518   9.640   8.792  1.3157  0.4344 -0.6798
  421MOL0     C55453   6.413   9.581   8.699  0.1185 -0.2013 -0.4741
  421MOL0     C55454   6.287   9.652   8.719  0.7019 -0.2886  0.1096
  421MOL0     C55455   6.177   9.604   8.622  0.3680 -0.0601 -0.6644
  421MOL0     C55456   6.054   9.687   8.608  0.7846  0.1032  0.2426
  421MOL0     N55457   5.953   9.653   8.708 -0.5313 -0.3841  0.0187
  421MOL0     C55458   5.939   9.714   8.828  0.9353 -0.0879 -0.1857
  421MOL0     C55459   5.854   9.625   8.887  0.2188 -0.1750 -0.4161
  421MOL0     C55460   5.809   9.636   9.035 -0.4422 -0.7713  0.8538
  421MOL0     C55461   5.655   9.683   9.052 -0.3843  0.5645  0.0165
  421MOL0     C55462   5.560   9.580   9.105 -0.2427 -0.3221 -0.2533
  421MOL0     C55463   5.570   9.526   9.244 -0.6251  0.1760  0.1481
  421MOL0     O55464   5.530   9.624   9.338 -0.0452  0.7225  0.2827
  421MOL0     C55465   5.407   9.611   9.402 -0.2388  0.4839  0.6456
  421MOL0     C55466   5.297   9.543   9.351 -0.2431  0.1199  0.4518
  421MOL0     C55467   5.174   9.527   9.419 -0.4303  0.0584  0.5468
  421MOL0     C55468   5.153   9.586   9.544 -0.3198 -0.0400  0.7186
  421MOL0     C55469   5.017   9.580   9.607 -0.3166  0.0378  0.0792
  421MOL0     O55470   4.912   9.531   9.529 -0.6253  0.1350 -0.0158
  421MOL0     C55471   4.785   9.523   9.575 -0.1874  0.5982  0.1738
  421MOL0     C55472   4.677   9.542   9.481 -0.4221  0.8780  0.4327
  421MOL0     C55473   4.547   9.506   9.508 -0.3851 -0.1085  0.2471
  421MOL0     C55474   4.521   9.458   9.635  0.0076 -0.4873  0.1963
  421MOL0     O55475   4.387   9.439   9.656 -0.0084 -0.0254 -0.3912
  421MOL0     C55476   4.343   9.325   9.736 -0.3197 -0.4943  0.4484
  421MOL0     C55477   4.199   9.294   9.712 -0.1363 -0.4878  0.5767
  421MOL0     C55478   4.129   9.191   9.810  0.9497 -0.1469 -0.0285
  421MOL0     C55479   3.992   9.165   9.761  0.1187 -0.4948  0.4589
  421MOL0     C55480   3.929   9.046   9.843  0.0828 -0.7636 -0.3496
  421MOL0     C55481   3.793   9.004   9.788  0.0777 -0.8020 -0.3538
  421MOL0     C55482   3.682   9.114   9.771 -0.3778  0.5194 -0.7904
  421MOL0     C55483   3.542   9.057   9.727  0.3735  0.2016 -0.0301
  421MOL0    Cl55484   3.478   8.933   9.841 -0.2795 -0.0926  0.1924
  421MOL0     C55485   4.620   9.432   9.730 -0.2640 -0.6936 -0.3081
  421MOL0     C55486   4.753   9.463   9.702  0.5609 -0.2190 -0.1699
  421MOL0     O55487   4.995   9.622   9.723  0.3906 -0.0667  0.2527
  421MOL0     C55488   5.263   9.654   9.604 -0.2074  0.0585 -0.5865
  421MOL0     C55489   5.389   9.659   9.533 -0.0130  0.0061  0.0837
  421MOL0     N55490   5.808   9.524   8.803 -0.6922 -0.0273  0.1032
  421MOL0     N55491   5.870   9.542   8.691 -0.9294 -0.5152  1.0342
  421MOL0     C55492   7.168   9.709   8.861  0.1347  0.9133 -0.5831
  421MOL0     C55493   7.304   9.697   8.874 -0.2955 -0.3656  0.3392
  421MOL0     C55494   7.744   9.664   8.973  0.2723 -0.2744  0.3781
  421MOL0     C55495   7.851   9.708   8.896  0.1494 -0.9401 -0.2350
  421MOL0     C55496   7.980   9.731   8.940 -1.3134  0.0064 -0.3318
  421MOL0     C55497   8.002   9.721   9.080 -0.8317 -0.1429 -0.2539
  421MOL0     O55498   8.127   9.740   9.149  0.4204 -0.3281  0.1338
  421MOL0     C55499   8.254   9.758   9.087  0.0344  0.3774  0.3235
  421MOL0     C55500   8.342   9.827   9.191  0.7067 -0.6419  0.2702
  421MOL0     C55501   8.482   9.845   9.138 -0.5693  0.4706  0.0625
  421MOL0     C55502   8.552   9.727   9.059  0.3958 -0.4113  0.1179
  421MOL0     C55503   8.694   9.761   9.045  0.1693 -0.3748  0.1810
  421MOL0     C55504   8.809   9.780   9.001 -0.5613 -0.8888 -0.0825
  421MOL0     C55505   7.903   9.665   9.161 -0.6099 -0.4018  0.5367
  421MOL0     C55506   7.773   9.645   9.106 -0.5202  0.4711  0.1731
  421MOL0     H55507   7.300   9.509   9.153 -1.8510 -1.6121  0.5398
  421MOL0     H55508   7.073   9.560   9.147  1.2473 -0.4480  0.9247
  421MOL0     H55509   6.919   9.633   8.750 -1.9194 -0.6218 -1.4478
  421MOL0     H55510   6.826   9.773   8.818 -2.6750 -1.5479 -2.0846
  421MOL0     H55511   6.721   9.589   8.963 -3.1611  0.6274 -0.9474
  421MOL0     H55512   6.820   9.481   8.854  2.1250  1.3772 -0.4946
  421MOL0     H55513   6.624   9.462   8.732  1.4892 -1.6131  1.2743
  421MOL0     H55514   6.687   9.612   8.667  1.0470 -1.7753 -0.4605
  421MOL0     H55515   6.507   9.614   8.898  0.7044  1.8487 -0.3833
  421MOL0     H55516   6.532   9.748   8.785 -0.8521  0.7464 -0.6841
  421MOL0     H55517   6.405   9.472   8.707  3.9139 -0.6586 -1.0981
  421MOL0     H55518   6.446   9.601   8.596  0.4998  1.6507 -0.0378
  421MOL0     H55519   6.306   9.759   8.712 -2.7480  0.3702 -0.8124
  421MOL0     H55520   6.244   9.634   8.818  0.9461  6.2879  1.8691
  421MOL0     H55521   6.223   9.602   8.522  1.2198  0.6022 -0.3014
  421MOL0     H55522   6.147   9.501   8.640  2.4838 -0.4245  1.2747
  421MOL0     H55523   6.005   9.657   8.515 -2.1899  0.5674  1.5384
  421MOL0     H55524   6.068   9.795   8.610 -1.8002  0.5615 -1.2515
  421MOL0     H55525   5.993   9.800   8.865 -1.3202  1.6101 -0.5992
  421MOL0     H55526   5.863   9.720   9.079  0.1131 -0.6378 -0.0633
  421MOL0     H55527   5.824   9.541   9.086 -0.5308 -1.0074  0.4414
  421MOL0     H55528   5.629   9.717   8.951 -0.3453  1.2400  0.2296
  421MOL0     H55529   5.644   9.775   9.110  0.5382  0.4283  0.4335
  421MOL0     H55530   5.460   9.624   9.095 -0.0639 -0.0630 -1.0013
  421MOL0     H55531   5.567   9.491   9.042 -1.0771 -0.4584 -0.1652
  421MOL0     H55532   5.672   9.501   9.273 -0.7092  1.6129  1.8417
  421MOL0     H55533   5.509   9.437   9.261 -0.1134 -0.1276  0.4250
  421MOL0     H55534   5.308   9.505   9.250  0.9472 -0.5401  0.8074
  421MOL0     H55535   5.096   9.469   9.371 -1.5724  0.0278  2.3074
  421MOL0     H55536   4.707   9.578   9.383  2.1172  0.3829  0.9574
  421MOL0     H55537   4.459   9.519   9.447  1.4017  0.9392 -2.2616
  421MOL0     H55538   4.369   9.349   9.840  1.4215  0.3986 -0.1690
  421MOL0     H55539   4.406   9.237   9.720  1.4255  0.3372  2.2327
  421MOL0     H55540   4.184   9.252   9.613  0.5783  0.4868  0.0349
  421MOL0     H55541   4.141   9.387   9.710 -2.4156 -1.8481 -0.8069
  421MOL0     H55542   4.128   9.213   9.917 -2.4096 -1.4263  0.3194
  421MOL0     H55543   4.182   9.095   9.798 -0.1510 -0.5904 -1.6364
  421MOL0     H55544   3.923   9.249   9.773 -0.3314 -1.1294  2.9828
  421MOL0     H55545   4.003   9.127   9.659  0.3488 -0.3590  0.4336
  421MOL0     H55546   3.935   9.067   9.950  1.0309 -1.9614 -0.1392
  421MOL0     H55547   3.994   8.957   9.842 -0.6547 -1.3147 -1.0207
  421MOL0     H55548   3.748   8.942   9.866  0.9276  0.6013  1.2922
  421MOL0     H55549   3.810   8.944   9.698 -2.9648  1.4314 -2.6046
  421MOL0     H55550   3.663   9.162   9.867 -2.8471  0.9948 -1.4593
  421MOL0     H55551   3.709   9.184   9.690 -1.7866 -1.5447 -3.1915
  421MOL0     H55552   3.557   9.015   9.627  0.3266  2.3972 -1.0103
  421MOL0     H55553   3.465   9.129   9.699 -0.3081 -1.4850 -2.8443
  421MOL0     H55554   4.597   9.392   9.828 -0.7010  2.0509  0.7736
  421MOL0     H55555   4.813   9.426   9.784 -2.0342 -0.8673  1.5656
  421MOL0     H55556   5.241   9.689   9.705  1.0460 -3.0873  0.9185
  421MOL0     H55557   5.474   9.705   9.581 -1.3064  1.9613  0.6061
  421MOL0     H55558   7.118   9.768   8.786 -3.3068 -2.0024 -0.8342
  421MOL0     H55559   7.360   9.740   8.791  2.1670 -0.9441  1.6136
  421MOL0     H55560   7.833   9.737   8.793  3.2708  0.7310 -0.4343
  421MOL0     H55561   8.059   9.762   8.872 -0.1596  0.5953  1.2137
  421MOL0     H55562   8.254   9.815   8.993 -0.8063 -0.8402 -0.4428
  421MOL0     H55563   8.290   9.657   9.064  0.6264  0.5727  0.3652
  421MOL0     H55564   8.294   9.919   9.226  1.2313  0.3404 -1.4697
  421MOL0     H55565   8.334   9.758   9.276  0.5247  0.4872  1.1998
  421MOL0     H55566   8.545   9.878   9.221  0.2095 -2.9187  0.9564
  421MOL0     H55567   8.479   9.927   9.066 -1.1059  2.2549  1.9944
  421MOL0     H55568   8.540   9.628   9.104 -1.2896 -0.6915 -0.8251
  421MOL0     H55569   8.520   9.716   8.954 -1.0756 -2.0398  0.6871
  421MOL0     H55570   8.903   9.812   8.960  1.3020  0.3607  4.5325
  421MOL0     H55571   7.903   9.657   9.269 -0.5849 -1.3382  0.4829
  421MOL0     H55572   7.693   9.625   9.177  0.6988  0.5573  1.6068
  422MOL0     O55573   6.786   1.109   7.889  0.6454  0.0058  0.2878
  422MOL0     C55574   6.720   1.033   7.820 -0.0279 -0.2115 -0.3565
  422MOL0     O55575   6.761   0.939   7.726 -0.1525 -0.2053 -0.2970
  422MOL0     C55576   6.885   0.888   7.716  0.1066 -0.3106 -0.2003
  422MOL0     C55577   6.893   0.786   7.631 -0.2081 -0.5922 -0.3713
  422MOL0     C55578   7.011   0.714   7.604 -1.0508  0.0062  0.2138
  422MOL0     C55579   7.135   0.761   7.663  0.0507 -0.3203  0.5341
  422MOL0     O55580   7.259   0.702   7.641  0.9055 -0.0779 -0.2957
  422MOL0     C55581   7.254   0.570   7.598  0.3319 -0.3434 -0.3602
  422MOL0     C55582   7.395   0.509   7.591  0.3758  0.1220 -0.9292
  422MOL0     C55583   7.473   0.569   7.472 -1.0109  0.2722 -0.7871
  422MOL0     C55584   7.620   0.526   7.484 -0.3923  0.3929 -0.2250
  422MOL0     C55585   7.712   0.582   7.372 -0.0604 -0.0988  0.4181
  422MOL0     C55586   7.671   0.516   7.237 -0.6462 -0.1384  0.4576
  422MOL0     C55587   7.756   0.571   7.128  0.2210 -0.2718 -0.0680
  422MOL0     C55588   7.724   0.539   6.985  0.4238  0.0390 -0.0085
  422MOL0     N55589   7.588   0.579   6.955  0.7398 -0.6070 -0.4499
  422MOL0     C55590   7.485   0.490   6.963  0.1612  0.3801  0.6414
  422MOL0     C55591   7.380   0.571   6.952 -0.7848 -0.0168 -0.4621
  422MOL0     C55592   7.245   0.506   6.961  0.6802  0.0059 -0.1312
  422MOL0     C55593   7.197   0.489   7.104  0.4276  0.5751 -0.4751
  422MOL0     C55594   7.154   0.625   7.165 -0.4521 -0.4775 -0.9251
  422MOL0     C55595   7.015   0.663   7.132  1.2542 -0.5936  0.2637
  422MOL0     O55596   6.919   0.595   7.222 -0.1912  0.1060  0.1730
  422MOL0     C55597   6.786   0.569   7.180  0.0003 -0.1825  0.3123
  422MOL0     C55598   6.727   0.479   7.270  0.5890 -0.1695  1.4574
  422MOL0     C55599   6.596   0.438   7.234 -0.4781 -0.4593 -0.2020
  422MOL0     C55600   6.525   0.488   7.128 -0.2006 -0.3627  0.8274
  422MOL0     C55601   6.391   0.447   7.092 -0.0445  0.1315 -0.7656
  422MOL0     O55602   6.329   0.503   6.980  0.0245 -0.5582 -0.2014
  422MOL0     C55603   6.191   0.487   6.981 -0.4217  0.2406  0.9268
  422MOL0     C55604   6.133   0.370   6.920 -0.4557 -0.2856  0.4545
  422MOL0     C55605   5.994   0.344   6.923  1.1172  0.7429 -0.2251
  422MOL0     C55606   5.914   0.433   6.991  0.4057  0.0090 -0.6105
  422MOL0     O55607   5.775   0.412   7.000  0.3800  0.8711  0.6520
  422MOL0     C55608   5.695   0.524   6.955 -0.1854  0.3035  0.4887
  422MOL0     C55609   5.553   0.514   7.011  0.0770 -0.0578 -0.9301
  422MOL0     C55610   5.467   0.434   6.925  0.1578 -0.2495 -0.2945
  422MOL0     C55611   5.320   0.412   6.964  0.8612 -0.0015  0.0427
  422MOL0     C55612   5.205   0.483   6.895  0.5823  0.5222 -0.2521
  422MOL0     C55613   5.080   0.424   6.943 -0.0519  0.5922  0.1020
  422MOL0     C55614   4.966   0.521   6.954 -0.2754  0.0772 -0.3629
  422MOL0     C55615   4.845   0.438   6.980  0.1230 -1.4755 -0.5041
  422MOL0    Cl55616   4.718   0.558   7.012  0.5388 -0.1636 -0.1597
  422MOL0     C55617   5.970   0.540   7.053  0.1394 -0.0430  0.4366
  422MOL0     C55618   6.102   0.566   7.056 -0.0004  0.3175  0.0261
  422MOL0     O55619   6.335   0.372   7.172 -0.1186 -0.1141  0.4367
  422MOL0     C55620   6.590   0.588   7.048 -0.5922  0.1937 -0.1646
  422MOL0     C55621   6.720   0.619   7.074  0.6257 -0.1699 -0.2307
  422MOL0     N55622   7.418   0.700   6.922  0.1534 -0.7884 -0.2395
  422MOL0     N55623   7.542   0.701   6.920 -0.2431  0.2630 -0.3714
  422MOL0     C55624   7.132   0.867   7.752 -0.2910 -0.5372 -1.0303
  422MOL0     C55625   7.008   0.928   7.778  0.2047  0.1862 -0.5031
  422MOL0     C55626   6.574   1.052   7.827 -0.4578 -0.2141  0.2583
  422MOL0     C55627   6.525   1.179   7.873 -0.2533 -0.4428  0.9238
  422MOL0     C55628   6.387   1.203   7.870 -0.6375  0.0732 -0.1288
  422MOL0     C55629   6.293   1.103   7.825  0.6647  0.6336 -0.2922
  422MOL0     O55630   6.161   1.133   7.827  0.1267 -0.3252  1.0414
  422MOL0     C55631   6.057   1.029   7.810 -0.7120 -0.5957 -0.2583
  422MOL0     C55632   5.929   1.085   7.827  0.7388 -0.1100  0.4634
  422MOL0     C55633   5.811   0.975   7.822 -0.3858 -0.5313  0.4201
  422MOL0     C55634   5.693   1.042   7.891 -0.1817  0.5409  0.3761
  422MOL0     C55635   5.577   0.957   7.865  0.1942 -0.1782  0.8365
  422MOL0     C55636   5.471   0.886   7.854 -0.4314 -0.6254  0.2922
  422MOL0     C55637   6.349   0.980   7.777 -0.0861  0.0760 -0.5481
  422MOL0     C55638   6.488   0.949   7.777  0.1554 -0.2338 -1.1174
  422MOL0     H55639   6.802   0.773   7.574 -1.9561  6.3122  0.0295
  422MOL0     H55640   7.008   0.637   7.529  1.9546  2.0171 -2.2381
  422MOL0     H55641   7.207   0.555   7.500 -0.1887  2.2860 -0.5821
  422MOL0     H55642   7.201   0.497   7.660  0.5571  0.7735  1.1976
  422MOL0     H55643   7.394   0.400   7.588  0.2815  0.0606  0.6748
  422MOL0     H55644   7.450   0.541   7.679  1.1883  1.9987 -2.0586
  422MOL0     H55645   7.465   0.678   7.483 -4.3284  0.0824 -0.1476
  422MOL0     H55646   7.431   0.541   7.376  0.5983  1.0127 -1.7492
  422MOL0     H55647   7.662   0.560   7.580 -0.5199 -1.0075  0.3534
  422MOL0     H55648   7.626   0.417   7.475  1.9496  0.5575 -1.4729
  422MOL0     H55649   7.810   0.537   7.389 -0.7134 -1.8426 -0.1755
  422MOL0     H55650   7.708   0.691   7.370  0.2316 -0.0910  0.3231
  422MOL0     H55651   7.564   0.537   7.225 -0.6651  0.2284  1.2281
  422MOL0     H55652   7.689   0.408   7.244  0.2263 -0.1869 -1.8595
  422MOL0     H55653   7.743   0.680   7.129  0.5866 -0.1917 -1.5018
  422MOL0     H55654   7.864   0.552   7.136  0.6677  2.3331  1.0631
  422MOL0     H55655   7.732   0.431   6.971 -0.7948  0.2177 -2.6906
  422MOL0     H55656   7.794   0.596   6.923  1.2159 -0.0103  0.8108
  422MOL0     H55657   7.484   0.384   6.986 -0.1263  0.2776  0.1579
  422MOL0     H55658   7.240   0.414   6.901  1.3338 -0.0180 -0.1514
  422MOL0     H55659   7.171   0.563   6.905 -0.1609 -1.9310 -1.1099
  422MOL0     H55660   7.274   0.447   7.170  0.3142 -2.7813 -2.2786
  422MOL0     H55661   7.114   0.418   7.102 -1.0816  2.1154  2.2024
  422MOL0     H55662   7.155   0.619   7.274 -1.5292 -1.7387 -0.9615
  422MOL0     H55663   7.225   0.698   7.124  0.3084  0.3600  1.7174
  422MOL0     H55664   6.998   0.633   7.028 -1.0187 -0.4822  0.5657
  422MOL0     H55665   7.007   0.770   7.151  2.8381 -0.3457 -0.2912
  422MOL0     H55666   6.783   0.421   7.341 -0.5245 -2.2453  0.7158
  422MOL0     H55667   6.555   0.355   7.291 -1.0247 -1.4762 -1.9777
  422MOL0     H55668   6.202   0.312   6.860  1.8962  1.6533  1.1292
  422MOL0     H55669   5.947   0.254   6.884  0.7748  0.5540  0.5931
  422MOL0     H55670   5.704   0.525   6.846 -1.8826 -1.9948  0.2483
  422MOL0     H55671   5.741   0.617   6.990  0.6959 -0.6721  2.0959
  422MOL0     H55672   5.507   0.613   7.025  1.0169 -0.0254  3.1398
  422MOL0     H55673   5.562   0.465   7.108 -1.8002  1.1609 -0.0692
  422MOL0     H55674   5.523   0.345   6.896  3.1367  1.5262 -0.3555
  422MOL0     H55675   5.462   0.492   6.832  1.9197  1.2784  0.4956
  422MOL0     H55676   5.307   0.303   6.964 -1.3207  0.1682  2.2464
  422MOL0     H55677   5.322   0.447   7.068  2.6641  3.4556 -0.9884
  422MOL0     H55678   5.200   0.484   6.786 -0.6341 -0.4858 -0.2355
  422MOL0     H55679   5.201   0.589   6.919 -1.0584  0.3023  0.6417
  422MOL0     H55680   5.095   0.372   7.037  0.6240  0.4348 -0.0938
  422MOL0     H55681   5.065   0.346   6.867  3.3557 -0.4914  0.3909
  422MOL0     H55682   4.977   0.592   7.037 -0.8509  0.6762 -0.7924
  422MOL0     H55683   4.954   0.573   6.859 -2.2099 -0.7230 -0.5969
  422MOL0     H55684   4.854   0.379   7.072  0.8635 -1.7989 -0.7825
  422MOL0     H55685   4.810   0.363   6.909  1.8854  0.0203 -3.1061
  422MOL0     H55686   5.905   0.604   7.111 -1.0460  0.1820 -1.0980
  422MOL0     H55687   6.149   0.644   7.114  0.3237  0.2228 -0.1054
  422MOL0     H55688   6.551   0.638   6.960  0.0031 -1.1556 -1.2207
  422MOL0     H55689   6.765   0.701   7.019 -2.5391  1.8752 -0.0371
  422MOL0     H55690   7.229   0.904   7.782 -1.2219  3.4294 -2.2209
  422MOL0     H55691   7.001   1.004   7.855 -4.5367 -0.6755  0.1777
  422MOL0     H55692   6.592   1.260   7.899  1.2709 -2.1884  2.6416
  422MOL0     H55693   6.356   1.300   7.907  2.6758  1.3043 -0.1878
  422MOL0     H55694   6.085   0.945   7.874 -0.4517  0.0398  0.4903
  422MOL0     H55695   6.062   0.988   7.709  1.0224 -0.6004 -0.2032
  422MOL0     H55696   5.922   1.131   7.926  0.3409 -0.8331  0.7795
  422MOL0     H55697   5.908   1.152   7.744  0.5637  0.0630  0.6471
  422MOL0     H55698   5.836   0.885   7.879 -1.6305 -0.3157  1.3569
  422MOL0     H55699   5.799   0.951   7.716  3.2000  0.6903 -0.4246
  422MOL0     H55700   5.717   1.051   7.997  0.4576  1.0039  0.1993
  422MOL0     H55701   5.678   1.141   7.846  0.1480 -0.5461 -2.3155
  422MOL0     H55702   5.386   0.825   7.833 -1.0182  0.1005  0.5061
  422MOL0     H55703   6.285   0.898   7.745 -1.3839  0.9867 -0.3476
  422MOL0     H55704   6.536   0.865   7.728 -1.8492 -1.8522 -0.4481
  423MOL0     O55705   8.106   8.499  10.577 -0.5171  0.1198  0.6722
  423MOL0     C55706   8.077   8.379  10.594 -0.3156 -0.4150  0.1771
  423MOL0     O55707   7.959   8.317  10.556 -0.6497  0.0942  0.0243
  423MOL0     C55708   7.852   8.398  10.555  1.4827  0.1385 -0.3470
  423MOL0     C55709   7.820   8.470  10.668  0.6618 -0.2081 -0.9207
  423MOL0     C55710   7.712   8.556  10.677 -0.6379  0.7260 -0.2551
  423MOL0     C55711   7.606   8.536  10.581 -0.2141  0.9865  0.3634
  423MOL0     O55712   7.481   8.587  10.578 -0.1330 -0.6516 -0.0944
  423MOL0     C55713   7.456   8.710  10.652 -0.1479  1.0163 -0.0658
  423MOL0     C55714   7.455   8.833  10.568  0.0957  0.2683  0.6580
  423MOL0     C55715   7.315   8.864  10.523  0.3713  0.5844  0.0755
  423MOL0     C55716   7.319   8.995  10.433 -0.1467  0.1560 -0.2243
  423MOL0     C55717   7.181   9.043  10.405 -0.5518 -0.3262 -0.4516
  423MOL0     C55718   7.188   9.160  10.308 -0.3483 -0.3970 -0.2642
  423MOL0     C55719   7.047   9.226  10.282  0.6366  0.4366 -0.2213
  423MOL0     C55720   6.965   9.142  10.176  0.0983 -0.6024 -0.3129
  423MOL0     N55721   6.820   9.166  10.194 -0.2039 -0.0841 -0.6704
  423MOL0     C55722   6.764   9.290  10.161 -0.0815  1.0028  0.4954
  423MOL0     C55723   6.636   9.285  10.211  0.1340 -0.3427 -0.0355
  423MOL0     C55724   6.531   9.395  10.196 -0.4451  0.2694 -0.3399
  423MOL0     C55725   6.395   9.352  10.153  0.8542  0.6516 -0.1489
  423MOL0     C55726   6.289   9.456  10.125 -0.9351  0.3161 -0.7463
  423MOL0     C55727   6.151   9.400  10.122 -0.0818 -0.1872 -0.5310
  423MOL0     O55728   6.078   9.480  10.025  0.1810  0.1506  0.1187
  423MOL0     C55729   5.941   9.487  10.028  1.1882 -0.1938  0.6164
  423MOL0     C55730   5.858   9.439  10.133  0.0932 -0.2078 -0.6875
  423MOL0     C55731   5.721   9.455  10.126 -0.1275 -0.8021 -0.2772
  423MOL0     C55732   5.662   9.511  10.014  0.7054  0.6567 -1.5168
  423MOL0     C55733   5.515   9.534  10.008  0.1185 -0.1705 -0.4095
  423MOL0     O55734   5.434   9.480  10.113 -0.2367 -1.4971 -0.2573
  423MOL0     C55735   5.296   9.459  10.116 -0.0638  0.2463  0.0558
  423MOL0     C55736   5.200   9.487  10.014 -0.7233 -1.4207  0.7298
  423MOL0     C55737   5.067   9.474  10.035  0.3817  0.1236  0.3755
  423MOL0     C55738   5.019   9.416  10.155  0.5314  0.3545 -0.4146
  423MOL0     O55739   4.882   9.388  10.183 -1.0970 -0.4168  0.6620
  423MOL0     C55740   4.789   9.453  10.097 -0.5565 -0.2384  0.3576
  423MOL0     C55741   4.663   9.484  10.177  0.1444 -0.2305  0.6478
  423MOL0     C55742   4.575   9.356  10.179 -0.6095  0.5399 -0.7689
  423MOL0     C55743   4.444   9.390  10.247 -0.2754 -0.7345  0.0347
  423MOL0     C55744   4.364   9.268  10.290  0.5299 -0.4975 -0.4796
  423MOL0     C55745   4.305   9.183  10.175 -0.5284  0.5398 -0.7982
  423MOL0     C55746   4.254   9.046  10.241 -0.1051  0.2627 -0.8239
  423MOL0     C55747   4.215   8.944  10.130  1.4483 -0.2746 -0.3352
  423MOL0    Cl55748   4.345   8.892  10.031 -0.3778  0.1086 -0.4623
  423MOL0     C55749   5.110   9.374  10.257  0.7831 -0.4385  0.1260
  423MOL0     C55750   5.247   9.400  10.236  0.0732  0.0581  0.6172
  423MOL0     O55751   5.469   9.599   9.915  0.3522  0.0894 -0.0291
  423MOL0     C55752   5.743   9.562   9.917 -0.0508 -0.3164  0.0732
  423MOL0     C55753   5.884   9.555   9.921 -0.1663  0.3259  0.7925
  423MOL0     N55754   6.618   9.162  10.270 -0.0897 -1.0398 -0.0896
  423MOL0     N55755   6.728   9.092  10.269 -0.1200  0.7609 -0.4910
  423MOL0     C55756   7.637   8.463  10.464 -0.5720 -0.4021 -0.5520
  423MOL0     C55757   7.754   8.385  10.458  0.7098 -0.4879  0.7511
  423MOL0     C55758   8.179   8.289  10.662 -0.2480  0.9360  0.6161
  423MOL0     C55759   8.307   8.334  10.672  0.1761 -0.3009  1.1966
  423MOL0     C55760   8.406   8.264  10.737 -0.4171 -1.3043  0.3433
  423MOL0     C55761   8.374   8.144  10.798  0.1315 -0.4034  0.9116
  423MOL0     O55762   8.468   8.057  10.834  0.1260  0.3859 -0.3674
  423MOL0     C55763   8.478   8.040  10.984 -1.3307 -0.1315  0.6320
  423MOL0     C55764   8.584   8.137  11.039 -1.0911  0.2818 -0.4187
  423MOL0     C55765   8.730   8.101  11.006  0.0701  0.7708  0.0543
  423MOL0     C55766   8.828   8.133  11.122  0.1178  0.4988  0.1700
  423MOL0     C55767   8.790   8.069  11.247 -0.0472  0.4952 -0.1248
  423MOL0     C55768   8.757   8.032  11.361 -0.7006 -0.3899  1.3462
  423MOL0     C55769   8.246   8.098  10.800  1.5618  0.0678 -0.0301
  423MOL0     C55770   8.148   8.168  10.732  0.2361 -0.0983 -0.2013
  423MOL0     H55771   7.899   8.482  10.743 -0.4666 -2.4184  0.7203
  423MOL0     H55772   7.722   8.633  10.752 -0.7329  0.8376 -0.3551
  423MOL0     H55773   7.516   8.714  10.743  2.1519  0.1762 -1.4690
  423MOL0     H55774   7.359   8.679  10.693  0.7414 -0.3643  1.0673
  423MOL0     H55775   7.519   8.824  10.480 -0.8120  1.0412 -0.1194
  423MOL0     H55776   7.492   8.918  10.627 -1.1390  1.0235  0.4044
  423MOL0     H55777   7.237   8.891  10.595 -0.0899  1.0191 -0.5697
  423MOL0     H55778   7.280   8.779  10.463  0.0322  0.7572  0.0217
  423MOL0     H55779   7.382   9.071  10.481  1.8589 -2.1756  1.0523
  423MOL0     H55780   7.372   8.962  10.344  0.5947 -2.1904  1.0086
  423MOL0     H55781   7.133   9.087  10.493 -0.3150 -0.7004 -0.1296
  423MOL0     H55782   7.118   8.962  10.368  0.6623 -1.4435 -0.1569
  423MOL0     H55783   7.239   9.125  10.218 -0.3879 -0.4577 -0.2632
  423MOL0     H55784   7.244   9.243  10.351 -0.0604 -1.8968  2.4738
  423MOL0     H55785   6.992   9.236  10.376 -0.8279 -0.1958 -0.9782
  423MOL0     H55786   7.044   9.330  10.246 -1.2707 -0.3822 -2.7240
  423MOL0     H55787   6.993   9.036  10.176  1.2493 -0.3919  2.4320
  423MOL0     H55788   6.997   9.172  10.076  0.4319  0.7138  0.1621
  423MOL0     H55789   6.788   9.365  10.087 -0.0356 -0.3924 -0.9626
  423MOL0     H55790   6.572   9.459  10.117 -1.7500  1.3834 -0.1402
  423MOL0     H55791   6.522   9.441  10.295  1.3025 -1.7638  0.8712
  423MOL0     H55792   6.349   9.286  10.227  0.4982  0.7792 -0.2548
  423MOL0     H55793   6.405   9.300  10.057 -0.5653  0.8017 -0.3901
  423MOL0     H55794   6.290   9.534  10.201  0.0549 -0.3878 -0.0100
  423MOL0     H55795   6.314   9.478  10.021  0.3102 -2.0066 -1.0035
  423MOL0     H55796   6.100   9.405  10.218 -1.4408  0.7371 -1.2783
  423MOL0     H55797   6.154   9.297  10.087  0.2708  0.2336 -1.8162
  423MOL0     H55798   5.887   9.412  10.234 -0.6120  0.4588 -0.2943
  423MOL0     H55799   5.665   9.437  10.217 -1.3713 -0.8132 -1.0162
  423MOL0     H55800   5.225   9.530   9.918  0.7909 -3.0117  0.3667
  423MOL0     H55801   5.001   9.516   9.960  1.3863  0.7810 -0.1568
  423MOL0     H55802   4.762   9.394  10.008 -1.1982  0.9058 -0.2317
  423MOL0     H55803   4.830   9.548  10.062 -2.1205  1.0735  1.9451
  423MOL0     H55804   4.600   9.559  10.129  2.5267  1.5352  0.1306
  423MOL0     H55805   4.691   9.526  10.274 -0.6656  0.5432  0.5537
  423MOL0     H55806   4.627   9.281  10.240 -0.4679  0.0841 -1.4332
  423MOL0     H55807   4.559   9.313  10.079 -0.6101 -3.9557  0.9701
  423MOL0     H55808   4.465   9.435  10.345 -1.7929  0.9823 -0.3716
  423MOL0     H55809   4.390   9.471  10.196  3.7590  1.6844 -0.8036
  423MOL0     H55810   4.279   9.306  10.347  0.7607  0.1750 -0.5797
  423MOL0     H55811   4.427   9.201  10.350  2.7789  1.4559 -0.5346
  423MOL0     H55812   4.376   9.153  10.098 -1.5377 -2.8298 -0.5896
  423MOL0     H55813   4.231   9.249  10.130 -1.1152  0.0355 -0.5978
  423MOL0     H55814   4.335   9.000  10.298  0.2910  0.0163 -1.5733
  423MOL0     H55815   4.175   9.070  10.314 -0.4617 -1.0298 -0.7576
  423MOL0     H55816   4.131   8.989  10.076  1.3828  1.1342  0.8682
  423MOL0     H55817   4.170   8.861  10.184 -1.6716  1.5055  0.0712
  423MOL0     H55818   5.085   9.334  10.355  0.8958  2.8708  1.6605
  423MOL0     H55819   5.322   9.374  10.310  0.9377  0.5914 -0.0459
  423MOL0     H55820   5.696   9.626   9.842  1.8058 -2.1960 -2.9121
  423MOL0     H55821   5.951   9.585   9.841 -0.8297 -2.0133 -0.7414
  423MOL0     H55822   7.564   8.452  10.385 -1.4569 -0.6140  0.2704
  423MOL0     H55823   7.762   8.321  10.370  0.4564  2.2283 -1.3947
  423MOL0     H55824   8.329   8.428  10.622 -1.5381  0.3237  1.5288
  423MOL0     H55825   8.509   8.300  10.734 -1.0803  0.5960 -1.7259
  423MOL0     H55826   8.510   7.936  10.995 -2.3910 -0.3043  2.5505
  423MOL0     H55827   8.380   8.053  11.031 -1.6742 -0.5383  0.0457
  423MOL0     H55828   8.562   8.237  11.000 -2.2147  0.9398  1.7299
  423MOL0     H55829   8.571   8.130  11.147 -0.2521 -1.7993 -0.4119
  423MOL0     H55830   8.770   8.142  10.913  1.3710 -1.3191 -0.3926
  423MOL0     H55831   8.735   7.993  10.985 -0.0091  0.4335  1.6613
  423MOL0     H55832   8.925   8.091  11.095  0.3008  1.9768 -1.6890
  423MOL0     H55833   8.840   8.240  11.139  0.3092  0.1361  2.7005
  423MOL0     H55834   8.735   8.015  11.464 -0.1288  0.6940  1.6636
  423MOL0     H55835   8.214   8.008  10.853 -0.9027 -0.1365 -1.6807
  423MOL0     H55836   8.048   8.128  10.742  0.3399 -0.3642 -0.2399
  424MOL0     O55837   0.504   8.945   7.172 -0.5005 -0.4017  0.5352
  424MOL0     C55838   0.591   9.039   7.175 -0.0656  0.4180  0.1427
  424MOL0     O55839   0.577   9.155   7.110 -0.7829 -0.5273  0.5006
  424MOL0     C55840   0.509   9.173   6.995  0.6880 -0.2334 -0.3115
  424MOL0     C55841   0.568   9.184   6.871  0.1407  0.0469 -0.9353
  424MOL0     C55842   0.488   9.225   6.759 -0.6254  0.2297  0.3482
  424MOL0     C55843   0.349   9.259   6.771  0.9225  0.4427 -0.0607
  424MOL0     O55844   0.265   9.285   6.668  0.2014  0.5500 -0.6702
  424MOL0     C55845   0.317   9.334   6.543 -0.2567  0.1378 -0.0042
  424MOL0     C55846   0.359   9.480   6.562 -0.3546 -0.2817  0.1558
  424MOL0     C55847   0.508   9.502   6.590  0.3887 -0.5772  0.7207
  424MOL0     C55848   0.534   9.653   6.622 -0.1028  0.5938 -0.1488
  424MOL0     C55849   0.683   9.690   6.631 -0.0308  0.1990 -0.2529
  424MOL0     C55850   0.749   9.666   6.768  0.3510  0.2991 -0.2578
  424MOL0     C55851   0.891   9.730   6.789 -0.7026 -0.2690  0.0893
  424MOL0     C55852   0.976   9.670   6.674  0.6207 -0.8876  0.8470
  424MOL0     N55853   1.116   9.685   6.691 -0.6397  0.3792  0.1285
  424MOL0     C55854   1.172   9.808   6.724 -0.6896 -0.4286  0.3366
  424MOL0     C55855   1.298   9.774   6.750 -1.3343 -0.2721 -0.1804
  424MOL0     C55856   1.398   9.876   6.803  0.6389 -0.0709  0.0169
  424MOL0     C55857   1.370  10.023   6.766  0.4325  0.4256 -0.2659
  424MOL0     C55858   1.507  10.107   6.736 -0.0566  0.1707 -1.1831
  424MOL0     C55859   1.569  10.142   6.872  0.0006 -0.0103  0.7490
  424MOL0     O55860   1.654  10.038   6.925 -0.0791  1.0566 -0.6933
  424MOL0     C55861   1.787  10.051   6.927  0.1398 -0.6748  0.6148
  424MOL0     C55862   1.853   9.991   7.023  0.6549  0.4759 -1.2039
  424MOL0     C55863   1.993  10.004   7.038 -0.5671  0.4493  0.0604
  424MOL0     C55864   2.068  10.087   6.949 -1.2164  0.1784 -0.3351
  424MOL0     C55865   2.215  10.112   6.951  1.1352  0.5530  0.0749
  424MOL0     O55866   2.276  10.055   7.059  0.0099  0.0941  0.3528
  424MOL0     C55867   2.412  10.039   7.059  0.2689 -0.2760  0.0680
  424MOL0     C55868   2.468   9.910   7.061 -0.8074 -0.1776  0.4694
  424MOL0     C55869   2.610   9.893   7.058  0.1740 -0.0941 -0.7284
  424MOL0     C55870   2.704   9.993   7.051  0.4206  0.6421 -0.0964
  424MOL0     O55871   2.840   9.960   7.018  1.0697 -1.0386  0.2899
  424MOL0     C55872   2.936  10.052   6.966 -0.0512  0.0693 -0.1322
  424MOL0     C55873   3.071   9.989   6.994 -0.6071  0.2947 -0.4862
  424MOL0     C55874   3.086   9.966   7.147  0.3491 -0.7796  0.5521
  424MOL0     C55875   3.230   9.940   7.192  0.2304 -0.9410 -0.5588
  424MOL0     C55876   3.234   9.883   7.338  0.1646 -0.2895  0.0048
  424MOL0     C55877   3.189   9.981   7.453  0.4183 -0.8766 -0.1502
  424MOL0     C55878   3.180   9.919   7.593 -0.6919 -0.0330  0.3630
  424MOL0     C55879   3.238  10.005   7.702  0.1929 -0.5193 -0.8576
  424MOL0    Cl55880   3.216   9.913   7.860  0.1713 -0.3785  0.2883
  424MOL0     C55881   2.645  10.122   7.057  0.1167  0.0968  0.4612
  424MOL0     C55882   2.501  10.145   7.068 -0.8502 -0.4582  0.8071
  424MOL0     O55883   2.265  10.182   6.865 -0.2003  0.2500  0.0920
  424MOL0     C55884   2.000  10.144   6.836 -0.5120  0.7689 -0.0704
  424MOL0     C55885   1.862  10.120   6.825 -0.1856  0.7884 -0.6065
  424MOL0     N55886   1.325   9.643   6.727  0.7029  0.0118 -0.6972
  424MOL0     N55887   1.213   9.590   6.694  0.6310  0.3396 -0.0868
  424MOL0     C55888   0.292   9.242   6.892 -0.4544  0.1123 -0.0132
  424MOL0     C55889   0.373   9.196   7.005 -0.0340 -0.0255  0.6348
  424MOL0     C55890   0.718   9.016   7.234  0.6253 -0.1431  0.0788
  424MOL0     C55891   0.845   9.049   7.186  0.2995  0.6472  0.2023
  424MOL0     C55892   0.960   9.003   7.256  0.1297 -0.7356 -0.7620
  424MOL0     C55893   0.950   8.941   7.380  0.8151  0.3814  0.0292
  424MOL0     O55894   1.055   8.892   7.455  0.5971  0.8291  0.1760
  424MOL0     C55895   1.190   8.919   7.413  0.3821 -0.8036 -0.5837
  424MOL0     C55896   1.272   8.925   7.544  0.0124 -0.4478 -0.0073
  424MOL0     C55897   1.320   8.797   7.618  0.2416 -0.5626  1.2800
  424MOL0     C55898   1.468   8.768   7.589 -0.1504 -0.2136 -0.6174
  424MOL0     C55899   1.493   8.746   7.450 -0.3001  1.2888  0.3943
  424MOL0     C55900   1.510   8.729   7.333 -0.4607  0.0794 -0.1798
  424MOL0     C55901   0.817   8.904   7.424 -0.6325 -0.1478 -0.0881
  424MOL0     C55902   0.702   8.950   7.356  0.0682  0.9238  0.3428
  424MOL0     H55903   0.676   9.173   6.865  0.1009 -0.7445 -0.3514
  424MOL0     H55904   0.539   9.218   6.663 -1.9263 -1.6259 -0.2508
  424MOL0     H55905   0.244   9.326   6.462  1.2855  1.0369 -1.5749
  424MOL0     H55906   0.402   9.279   6.500  0.4832  0.5202  0.9319
  424MOL0     H55907   0.300   9.516   6.647 -0.1767 -0.7563  0.4841
  424MOL0     H55908   0.339   9.523   6.463  0.4380 -1.7842 -0.7027
  424MOL0     H55909   0.568   9.465   6.506  3.6808 -2.6360  3.7409
  424MOL0     H55910   0.552   9.451   6.675  0.7745  0.0007  0.8744
  424MOL0     H55911   0.480   9.720   6.556 -2.6358 -0.2592  0.9120
  424MOL0     H55912   0.477   9.662   6.715  0.6230 -3.4570  0.9193
  424MOL0     H55913   0.685   9.798   6.616  0.9396  0.3937  1.0943
  424MOL0     H55914   0.733   9.645   6.545 -1.9476 -1.9907 -0.3385
  424MOL0     H55915   0.758   9.558   6.783  2.7222  0.6562  1.5487
  424MOL0     H55916   0.680   9.695   6.847  0.4360  0.8086 -0.3706
  424MOL0     H55917   0.886   9.839   6.785 -1.9556 -0.1146  3.2299
  424MOL0     H55918   0.939   9.717   6.887 -0.4089  0.1254 -0.0007
  424MOL0     H55919   0.951   9.720   6.580  2.6923 -0.3048  0.5633
  424MOL0     H55920   0.958   9.562   6.669  1.1773 -0.9069 -2.5730
  424MOL0     H55921   1.107   9.892   6.744 -2.6189 -1.3631 -1.5961
  424MOL0     H55922   1.499   9.846   6.774  0.1252 -2.5269  0.5503
  424MOL0     H55923   1.400   9.865   6.912  2.0386 -0.0148  0.0104
  424MOL0     H55924   1.295  10.062   6.835 -1.3506 -1.6902 -0.8775
  424MOL0     H55925   1.315  10.023   6.671  0.8241  1.7487 -0.5117
  424MOL0     H55926   1.582  10.058   6.672  1.2874 -1.4691  1.4610
  424MOL0     H55927   1.479  10.205   6.697  1.5888  0.6975 -1.1421
  424MOL0     H55928   1.497  10.166   6.951  0.9729 -1.6147  2.2161
  424MOL0     H55929   1.634  10.229   6.861  1.3668 -1.0424  0.3906
  424MOL0     H55930   1.806   9.925   7.096  0.4038  0.6445 -1.2120
  424MOL0     H55931   2.046   9.950   7.115  0.2533 -0.9218 -1.3982
  424MOL0     H55932   2.407   9.821   7.072  0.5194 -0.9506  1.9105
  424MOL0     H55933   2.649   9.792   7.064  1.5333  0.4128 -0.9046
  424MOL0     H55934   2.936  10.136   7.035  2.0352 -3.0011  4.0625
  424MOL0     H55935   2.908  10.076   6.863  0.1796 -1.7105 -0.6604
  424MOL0     H55936   3.143  10.063   6.956  2.9493 -1.1845  2.6791
  424MOL0     H55937   3.096   9.898   6.939 -0.8722  2.0470 -3.7302
  424MOL0     H55938   3.032   9.873   7.169  0.5053 -0.9573  0.1849
  424MOL0     H55939   3.053  10.056   7.199  0.6669 -2.0291  3.0890
  424MOL0     H55940   3.278   9.869   7.123 -1.5680 -1.1846 -1.6394
  424MOL0     H55941   3.286  10.033   7.192 -0.9702 -0.1801 -1.5527
  424MOL0     H55942   3.336   9.851   7.362  0.1849 -0.4296 -0.2640
  424MOL0     H55943   3.178   9.789   7.339 -4.8161  2.3180  0.3711
  424MOL0     H55944   3.092  10.023   7.423  1.3469 -1.4128 -4.6203
  424MOL0     H55945   3.248  10.073   7.456 -1.6411  0.5012  0.7395
  424MOL0     H55946   3.080   9.875   7.595 -2.4441  3.2377 -3.1519
  424MOL0     H55947   3.247   9.833   7.601  2.3027  2.1818  0.9657
  424MOL0     H55948   3.191  10.104   7.712  2.2661  0.5138 -0.9115
  424MOL0     H55949   3.345  10.019   7.685  1.2431 -2.1199  3.2346
  424MOL0     H55950   2.708  10.210   7.054  0.4878 -0.1068  1.7475
  424MOL0     H55951   2.466  10.245   7.047  0.4646 -0.4755 -2.0017
  424MOL0     H55952   2.061  10.186   6.756 -1.7517  2.3544 -0.2287
  424MOL0     H55953   1.804  10.142   6.736 -1.9377  0.2868  0.3833
  424MOL0     H55954   0.185   9.254   6.904 -0.4608 -0.0782  0.1398
  424MOL0     H55955   0.329   9.150   7.093 -1.1192 -1.7086 -0.7200
  424MOL0     H55956   0.860   9.100   7.091  3.2011  0.4016  0.4496
  424MOL0     H55957   1.049   9.028   7.200 -0.7647 -1.1034 -2.3887
  424MOL0     H55958   1.184   9.018   7.366  0.0447 -0.5244  0.0310
  424MOL0     H55959   1.242   8.845   7.351 -1.2405 -1.9861 -0.5827
  424MOL0     H55960   1.365   8.979   7.521  0.4651 -1.1450  0.1691
  424MOL0     H55961   1.218   8.990   7.614  1.1577 -0.0438  0.5350
  424MOL0     H55962   1.252   8.719   7.583 -3.3950  3.0160 -0.5058
  424MOL0     H55963   1.299   8.823   7.722 -3.0014 -0.0839  0.6142
  424MOL0     H55964   1.542   8.837   7.630  0.6240 -0.6547 -1.2509
  424MOL0     H55965   1.489   8.681   7.651  0.2324 -1.0294 -1.8566
  424MOL0     H55966   1.520   8.723   7.226  1.3600 -2.4820  0.0440
  424MOL0     H55967   0.812   8.839   7.510 -0.9026 -0.7706 -0.5697
  424MOL0     H55968   0.606   8.925   7.399  1.1421 -0.6369  1.9569
  425MOL0     O55969   2.607  10.277   0.447  1.0261 -0.1737  0.0846
  425MOL0     C55970   2.602  10.163   0.390 -0.3795 -0.0896  0.4818
  425MOL0     O55971   2.496  10.108   0.328 -0.3276 -0.4882 -0.2860
  425MOL0     C55972   2.369  10.161   0.334 -0.1631  0.3154 -0.4175
  425MOL0     C55973   2.326  10.229   0.447 -0.6308  0.0223 -0.0107
  425MOL0     C55974   2.204  10.289   0.445  0.2328 -0.2633  0.4776
  425MOL0     C55975   2.105  10.253   0.338 -0.0807  0.3463  0.0420
  425MOL0     O55976   1.982  10.293   0.338  0.0947  0.1934 -0.8082
  425MOL0     C55977   1.937  10.384   0.431  0.4552 -0.5181 -0.2923
  425MOL0     C55978   1.795  10.441   0.389  0.5202 -0.1537  0.5503
  425MOL0     C55979   1.698  10.330   0.417  0.1169 -0.0328  0.2678
  425MOL0     C55980   1.549  10.373   0.395  0.3473  0.0391 -0.0888
  425MOL0     C55981   1.465  10.239   0.401 -0.2555  0.3256 -0.2555
  425MOL0     C55982   1.324  10.278   0.385 -0.1959  0.5317 -0.0138
  425MOL0     C55983   1.230  10.152   0.397 -0.1145  1.0941  0.4053
  425MOL0     C55984   1.225  10.065   0.262 -0.5370 -1.3789 -1.1283
  425MOL0     N55985   1.139  10.120   0.154 -0.4227 -0.1848 -0.0552
  425MOL0     C55986   1.003  10.136   0.163  0.0879 -0.2445  0.1838
  425MOL0     C55987   0.973  10.212   0.046 -0.5816 -0.2137  0.0965
  425MOL0     C55988   0.844  10.264  -0.013  0.2384 -0.4409  0.0959
  425MOL0     C55989   0.737  10.247   0.095 -0.2447 -0.2747  0.2573
  425MOL0     C55990   0.595  10.251   0.042  0.5738  0.4227  0.1421
  425MOL0     C55991   0.547  10.132  -0.044  0.1670  0.3459 -0.4865
  425MOL0     O55992   0.547  10.162  -0.185  0.0825  0.2947 -0.2240
  425MOL0     C55993   0.425  10.209  -0.236 -0.3916  0.0820  0.9594
  425MOL0     C55994   0.321  10.252  -0.159  0.7874 -0.6703 -0.2189
  425MOL0     C55995   0.204  10.291  -0.218  0.1382  0.7769 -0.5063
  425MOL0     C55996   0.180  10.278  -0.356 -0.1102  0.2558 -0.2774
  425MOL0     C55997   0.062  10.326  -0.431  0.4296 -0.7641  0.8545
  425MOL0     O55998   0.057  10.297  -0.560 -0.3825  0.5737  0.0128
  425MOL0     C55999  -0.054  10.339  -0.630 -0.3173 -0.1015 -0.0338
  425MOL0     C56000  -0.043  10.455  -0.705  0.0133  0.6734  0.3024
  425MOL0     C56001  -0.145  10.488  -0.798 -0.5158  0.1710 -1.1337
  425MOL0     C56002  -0.265  10.425  -0.800 -0.4605 -1.2379 -0.2529
  425MOL0     O56003  -0.369  10.462  -0.886 -0.0554  0.0696  0.0709
  425MOL0     C56004  -0.372  10.600  -0.939  0.5685  0.4492  0.5785
  425MOL0     C56005  -0.510  10.648  -0.973  0.3427  0.3622 -0.0251
  425MOL0     C56006  -0.563  10.557  -1.088  0.6079 -0.1675  0.4087
  425MOL0     C56007  -0.710  10.549  -1.113 -0.0393  0.4670 -0.8290
  425MOL0     C56008  -0.771  10.671  -1.172 -0.2722 -0.5726  0.3222
  425MOL0     C56009  -0.892  10.634  -1.256  0.2252 -0.4949 -0.6915
  425MOL0     C56010  -0.994  10.745  -1.283 -0.0337 -0.0755  0.3049
  425MOL0     C56011  -1.052  10.707  -1.418  0.1991  0.3178  0.3442
  425MOL0    Cl56012  -0.943  10.756  -1.557  0.3955 -0.0795  0.1590
  425MOL0     C56013  -0.280  10.318  -0.709 -0.1056  0.1052  0.4467
  425MOL0     C56014  -0.175  10.269  -0.627 -0.4062  0.0978 -0.6366
  425MOL0     O56015  -0.017  10.398  -0.374  0.4963 -0.2596  0.2519
  425MOL0     C56016   0.287  10.226  -0.430  0.0283 -0.5575 -0.2290
  425MOL0     C56017   0.407  10.185  -0.374  0.1386  0.3158  0.4371
  425MOL0     N56018   1.098  10.259  -0.011 -0.2176 -0.1241 -0.2432
  425MOL0     N56019   1.189  10.194   0.056  0.2106  0.7005 -0.0066
  425MOL0     C56020   2.153  10.163   0.236  0.2499  0.2355 -1.0898
  425MOL0     C56021   2.278  10.118   0.235 -0.0093  1.0152 -1.1347
  425MOL0     C56022   2.732  10.095   0.382 -0.2780 -0.1686  0.5593
  425MOL0     C56023   2.859  10.165   0.407  0.1934 -0.1892  0.1194
  425MOL0     C56024   2.976  10.093   0.418 -0.1012 -0.7972 -1.2178
  425MOL0     C56025   2.975   9.953   0.390 -0.2857 -1.0504  0.3375
  425MOL0     O56026   3.100   9.891   0.396 -0.0562  0.3906  0.4712
  425MOL0     C56027   3.150   9.840   0.272  0.9613 -0.1744 -0.4134
  425MOL0     C56028   3.288   9.902   0.233  1.2233 -1.0904 -0.2768
  425MOL0     C56029   3.419   9.855   0.314 -0.7571 -0.2310 -0.0578
  425MOL0     C56030   3.410   9.913   0.460 -0.0517 -0.2392 -0.4130
  425MOL0     C56031   3.545   9.894   0.518  0.1998 -0.4495 -0.8258
  425MOL0     C56032   3.659   9.875   0.563  0.3661  0.1784 -0.6552
  425MOL0     C56033   2.857   9.881   0.378 -0.0028 -0.7338  0.1379
  425MOL0     C56034   2.734   9.956   0.369 -0.3522  0.4221 -0.0726
  425MOL0     H56035   2.386  10.254   0.533  1.3525 -0.9725 -1.0345
  425MOL0     H56036   2.178  10.342   0.536 -1.5886 -0.3280  0.0492
  425MOL0     H56037   2.008  10.467   0.434 -0.4864  0.3907 -1.7994
  425MOL0     H56038   1.937  10.342   0.532 -0.5925  0.3489  0.0793
  425MOL0     H56039   1.791  10.470   0.284 -2.5263  2.2832  1.1907
  425MOL0     H56040   1.775  10.533   0.445 -0.4712  0.6129 -1.0139
  425MOL0     H56041   1.707  10.296   0.520 -1.4636  0.3291  0.5651
  425MOL0     H56042   1.718  10.242   0.356  0.3753 -0.8350  1.4696
  425MOL0     H56043   1.520  10.448   0.469  0.4623 -0.0099  0.0067
  425MOL0     H56044   1.525  10.426   0.302 -3.2151  2.0608  1.7810
  425MOL0     H56045   1.491  10.204   0.501 -1.5804  2.2128  0.8198
  425MOL0     H56046   1.497  10.168   0.324  2.8547  0.9990  0.3031
  425MOL0     H56047   1.310  10.326   0.287 -0.4678 -0.5107 -0.5027
  425MOL0     H56048   1.304  10.349   0.465 -1.9220 -0.4224  0.4540
  425MOL0     H56049   1.273  10.090   0.476 -0.5934  0.7302  0.3797
  425MOL0     H56050   1.127  10.180   0.419 -0.5737 -1.6929  2.3632
  425MOL0     H56051   1.199   9.962   0.286  2.7353 -1.7181  1.7715
  425MOL0     H56052   1.328  10.064   0.225  0.1295 -2.0432  0.6561
  425MOL0     H56053   0.934  10.087   0.231  1.2580 -1.4092  0.5682
  425MOL0     H56054   0.814  10.199  -0.096  1.2074 -2.4547  1.2443
  425MOL0     H56055   0.852  10.364  -0.055 -2.1934 -0.3731 -0.3073
  425MOL0     H56056   0.755  10.327   0.167 -0.8193 -1.0894  1.3411
  425MOL0     H56057   0.752  10.149   0.143  0.0553 -0.4898 -0.2676
  425MOL0     H56058   0.517  10.254   0.119  0.3214  1.1966 -0.1305
  425MOL0     H56059   0.595  10.340  -0.022  1.3594 -0.6670 -1.4441
  425MOL0     H56060   0.448  10.100  -0.011  0.7170  1.0641  2.0538
  425MOL0     H56061   0.613  10.046  -0.025 -3.2466 -2.4930 -0.4625
  425MOL0     H56062   0.327  10.272  -0.053  1.5090  1.1104 -0.5597
  425MOL0     H56063   0.125  10.327  -0.154 -0.3413  1.8039 -1.6324
  425MOL0     H56064   0.051  10.510  -0.701 -0.6634  1.7961  2.6382
  425MOL0     H56065  -0.123  10.556  -0.879  0.7749 -1.4010 -2.1527
  425MOL0     H56066  -0.304  10.613  -1.024  1.5877 -0.2761  1.2579
  425MOL0     H56067  -0.334  10.674  -0.868  0.3925  0.8321  0.2772
  425MOL0     H56068  -0.500  10.754  -0.999  0.5305  0.1682 -0.7819
  425MOL0     H56069  -0.585  10.648  -0.894  0.1186 -0.3606 -0.2243
  425MOL0     H56070  -0.542  10.452  -1.064 -1.6610 -0.5949  0.8249
  425MOL0     H56071  -0.521  10.572  -1.188 -0.1531  1.5576  0.3229
  425MOL0     H56072  -0.713  10.474  -1.193  0.9096  1.0316 -1.4250
  425MOL0     H56073  -0.762  10.506  -1.028 -0.3145  2.6613  0.1656
  425MOL0     H56074  -0.697  10.722  -1.234  0.8455 -1.6341  0.7398
  425MOL0     H56075  -0.806  10.747  -1.100 -1.1262  1.8912 -2.4985
  425MOL0     H56076  -0.959  10.560  -1.211  2.1428 -2.0872 -0.2783
  425MOL0     H56077  -0.847  10.583  -1.342  1.2833 -1.2694  0.2904
  425MOL0     H56078  -1.080  10.741  -1.215  0.0216 -0.4800  0.3550
  425MOL0     H56079  -0.948  10.844  -1.290  0.7936 -0.4731  0.0122
  425MOL0     H56080  -1.139  10.773  -1.418  1.5983  2.3908  3.5478
  425MOL0     H56081  -1.097  10.607  -1.421  0.0182  0.3398  1.6423
  425MOL0     H56082  -0.379  10.277  -0.693 -0.1528  0.3836  0.8857
  425MOL0     H56083  -0.188  10.190  -0.553 -3.7555 -1.7655 -2.9161
  425MOL0     H56084   0.285  10.192  -0.533  1.6741  2.7786 -1.5239
  425MOL0     H56085   0.475  10.140  -0.445 -0.7189  0.3334 -0.4148
  425MOL0     H56086   2.091  10.138   0.151  3.6117 -0.8347 -3.3998
  425MOL0     H56087   2.304  10.049   0.156 -1.0686  0.4219 -0.9812
  425MOL0     H56088   2.857  10.272   0.430 -2.5310 -0.5849  2.2780
  425MOL0     H56089   3.075  10.136   0.431 -0.2953 -1.2168  2.5863
  425MOL0     H56090   3.076   9.870   0.197  0.6969  1.9594  0.6269
  425MOL0     H56091   3.165   9.732   0.271 -0.5927 -0.4260 -2.0500
  425MOL0     H56092   3.294   9.874   0.127 -1.5807 -0.4718 -0.6716
  425MOL0     H56093   3.278  10.011   0.225 -0.6532 -1.1499  0.6273
  425MOL0     H56094   3.508   9.914   0.288 -0.3402  1.4977  4.4248
  425MOL0     H56095   3.439   9.748   0.304 -0.8243 -0.4798  2.0902
  425MOL0     H56096   3.382  10.018   0.476  0.9659 -0.1957  1.2933
  425MOL0     H56097   3.337   9.851   0.513  0.1010 -0.5278 -0.5392
  425MOL0     H56098   3.755   9.852   0.603  0.7470  1.8006 -0.5840
  425MOL0     H56099   2.858   9.774   0.357 -1.7411 -0.6466 -0.5984
  425MOL0     H56100   2.643   9.901   0.348  0.7569 -1.2685 -0.7152
  426MOL0     O56101   6.690   6.350   4.919  0.8700 -0.0644  0.1889
  426MOL0     C56102   6.680   6.279   4.822  0.1905  1.3398 -0.0657
  426MOL0     O56103   6.782   6.209   4.762  0.4104 -0.2196  0.0377
  426MOL0     C56104   6.914   6.222   4.795 -0.7393 -0.1038 -0.2260
  426MOL0     C56105   6.964   6.248   4.925  0.3087  0.1370  0.0131
  426MOL0     C56106   7.101   6.262   4.952 -0.5145 -0.1786  0.9818
  426MOL0     C56107   7.193   6.244   4.855 -0.2912 -0.0275  0.0514
  426MOL0     O56108   7.323   6.233   4.910  0.4489 -0.1174  0.5683
  426MOL0     C56109   7.435   6.223   4.818  1.1415  0.5684  0.8976
  426MOL0     C56110   7.561   6.218   4.899  0.0923 -1.1687  0.5156
  426MOL0     C56111   7.685   6.191   4.815  0.0757 -0.3611  1.3225
  426MOL0     C56112   7.812   6.189   4.895  0.4927  0.0081 -0.3770
  426MOL0     C56113   7.932   6.138   4.821  0.2673  0.1427  0.2756
  426MOL0     C56114   7.916   5.979   4.807 -1.0064 -0.2909  0.1520
  426MOL0     C56115   8.053   5.908   4.804  0.5681  0.5480 -0.3263
  426MOL0     C56116   8.045   5.766   4.857 -0.7786  0.3045 -0.4364
  426MOL0     N56117   7.965   5.676   4.771 -0.7559 -0.3604 -0.0792
  426MOL0     C56118   7.829   5.651   4.787  0.1267  0.0399 -1.0354
  426MOL0     C56119   7.801   5.568   4.688 -0.1065  0.6787 -0.6411
  426MOL0     C56120   7.665   5.517   4.657  0.3740  0.6803 -0.1341
  426MOL0     C56121   7.604   5.581   4.528  0.5967  0.4076 -0.7320
  426MOL0     C56122   7.488   5.501   4.475  0.6089  0.0087  0.4323
  426MOL0     C56123   7.463   5.554   4.335 -0.4720  0.5832  0.1154
  426MOL0     O56124   7.419   5.694   4.330  0.1245 -0.3409  0.2913
  426MOL0     C56125   7.288   5.736   4.340 -0.3791  0.9235  0.5793
  426MOL0     C56126   7.278   5.878   4.363  0.6200 -0.0674  1.3330
  426MOL0     C56127   7.151   5.940   4.362  0.2489  0.8232 -0.6626
  426MOL0     C56128   7.038   5.854   4.340 -0.6450  0.5048  0.3226
  426MOL0     C56129   6.894   5.898   4.341  0.0054  0.6730  0.6440
  426MOL0     O56130   6.801   5.799   4.349  0.3456  0.4589  0.1982
  426MOL0     C56131   6.666   5.843   4.348 -0.5505  0.1103  0.8211
  426MOL0     C56132   6.581   5.855   4.232 -0.3801  1.3412  0.8982
  426MOL0     C56133   6.445   5.893   4.230 -0.2974  0.5557  0.2377
  426MOL0     C56134   6.390   5.910   4.358  0.4084  0.2792  0.1569
  426MOL0     O56135   6.251   5.928   4.354  0.1933 -0.4948 -0.0699
  426MOL0     C56136   6.160   5.895   4.461 -0.0975 -0.1613 -0.4435
  426MOL0     C56137   6.036   5.818   4.410  0.0707 -0.6377 -0.3360
  426MOL0     C56138   5.969   5.887   4.287  0.0888 -0.1792 -0.2831
  426MOL0     C56139   5.850   5.799   4.242  0.2437  0.4521  0.2108
  426MOL0     C56140   5.771   5.883   4.142  0.0368 -1.0548  0.5795
  426MOL0     C56141   5.626   5.849   4.124  0.2378  0.7776  0.6817
  426MOL0     C56142   5.529   5.899   4.238  1.1262  0.8937  0.2080
  426MOL0     C56143   5.389   5.939   4.183  0.4113  0.0012  0.2034
  426MOL0    Cl56144   5.387   6.103   4.152  0.0953  0.2280  0.0047
  426MOL0     C56145   6.466   5.884   4.475  0.1937  0.1960  0.2533
  426MOL0     C56146   6.596   5.848   4.467 -0.7616  0.6411 -0.0676
  426MOL0     O56147   6.870   6.023   4.334 -0.2549  0.2775 -1.0099
  426MOL0     C56148   7.063   5.714   4.322  0.1968  0.4940  0.3524
  426MOL0     C56149   7.184   5.649   4.319  0.3119 -0.4875 -1.4936
  426MOL0     N56150   7.910   5.555   4.604 -0.1071 -0.3489 -0.3972
  426MOL0     N56151   7.999   5.622   4.656 -0.0961  0.7417  0.6335
  426MOL0     C56152   7.146   6.211   4.725 -0.3259 -0.8463 -0.4775
  426MOL0     C56153   7.013   6.198   4.696  0.7043  0.5477 -0.0731
  426MOL0     C56154   6.555   6.284   4.745  0.0228 -0.1158 -0.2836
  426MOL0     C56155   6.536   6.212   4.627 -0.0611  0.5472 -0.6905
  426MOL0     C56156   6.423   6.223   4.548  1.2515  0.7969  0.3500
  426MOL0     C56157   6.316   6.308   4.592  0.0617 -0.4859  0.1803
  426MOL0     O56158   6.200   6.332   4.511  0.2891  0.7546 -0.3728
  426MOL0     C56159   6.076   6.355   4.576  0.2658 -0.1065  0.7200
  426MOL0     C56160   5.967   6.327   4.468  0.9956 -0.1282  0.8678
  426MOL0     C56161   5.825   6.347   4.523  0.7429  0.8934  0.9953
  426MOL0     C56162   5.716   6.254   4.458 -0.0205  0.0725 -0.7853
  426MOL0     C56163   5.733   6.115   4.503  0.1456  0.2777  1.0795
  426MOL0     C56164   5.717   6.009   4.540  0.6732 -0.2034 -0.6920
  426MOL0     C56165   6.335   6.379   4.713  0.8749  0.2879 -0.1492
  426MOL0     C56166   6.457   6.375   4.778 -0.9753  0.3635 -0.6778
  426MOL0     H56167   6.893   6.263   5.005 -0.4972 -0.2735 -0.6093
  426MOL0     H56168   7.140   6.295   5.048  0.2217 -0.5688  0.8181
  426MOL0     H56169   7.435   6.304   4.745 -2.7231  0.2773  0.3602
  426MOL0     H56170   7.418   6.136   4.755  1.4939  0.3281  1.1320
  426MOL0     H56171   7.566   6.135   4.971  2.1163 -0.5000  1.2208
  426MOL0     H56172   7.577   6.304   4.964 -0.9400 -1.5961  1.3584
  426MOL0     H56173   7.682   6.274   4.744 -1.4847 -1.5501 -0.0707
  426MOL0     H56174   7.676   6.102   4.752  1.3462 -0.3246  1.0454
  426MOL0     H56175   7.840   6.287   4.936 -0.4119  0.0988  0.0551
  426MOL0     H56176   7.780   6.126   4.979 -3.6941  0.4213 -1.4231
  426MOL0     H56177   8.028   6.157   4.871  1.0612 -1.4753 -0.5320
  426MOL0     H56178   7.947   6.182   4.722 -0.7879 -1.3729 -0.5877
  426MOL0     H56179   7.849   5.941   4.730 -0.1413 -0.5131 -0.5034
  426MOL0     H56180   7.883   5.952   4.908  0.3836  0.9641  0.9886
  426MOL0     H56181   8.082   5.901   4.699  2.9341  1.6172  0.1773
  426MOL0     H56182   8.131   5.952   4.868 -0.2058  0.4063  0.7369
  426MOL0     H56183   8.004   5.766   4.958  0.6181 -3.6304  0.2740
  426MOL0     H56184   8.139   5.714   4.872 -1.5030 -0.2105  2.9970
  426MOL0     H56185   7.767   5.674   4.874  0.0761 -0.6008 -0.8922
  426MOL0     H56186   7.595   5.525   4.740  0.6196 -4.4095  0.8949
  426MOL0     H56187   7.663   5.412   4.627 -0.3862  0.5506  0.3563
  426MOL0     H56188   7.689   5.577   4.458  0.1289  2.1010 -1.4596
  426MOL0     H56189   7.570   5.682   4.550  2.5040  1.4075 -2.0217
  426MOL0     H56190   7.506   5.393   4.478 -2.0920 -0.5577 -0.7729
  426MOL0     H56191   7.398   5.519   4.535 -0.7633 -0.9443 -1.2516
  426MOL0     H56192   7.398   5.485   4.280  0.4119 -0.9253  0.9118
  426MOL0     H56193   7.557   5.544   4.280 -2.3228 -1.5435 -2.9821
  426MOL0     H56194   7.368   5.928   4.397  1.4813  1.7127 -2.9720
  426MOL0     H56195   7.135   6.043   4.391 -0.1251  1.3775 -2.6904
  426MOL0     H56196   6.637   5.840   4.140  0.2611  1.4810  1.2572
  426MOL0     H56197   6.387   5.908   4.140  0.3155  2.7869  0.1446
  426MOL0     H56198   6.114   5.987   4.499 -2.0167 -2.1694  2.5501
  426MOL0     H56199   6.215   5.849   4.544  0.6016  1.0945 -0.1837
  426MOL0     H56200   5.961   5.817   4.489  1.7978 -1.0539  1.3867
  426MOL0     H56201   6.066   5.717   4.379  2.3664 -0.1744  0.1390
  426MOL0     H56202   6.035   5.910   4.203 -0.1503 -2.0553 -1.0241
  426MOL0     H56203   5.940   5.989   4.315  4.3749  1.5933 -1.4447
  426MOL0     H56204   5.877   5.708   4.188 -1.9177  1.7553 -3.4248
  426MOL0     H56205   5.786   5.789   4.329 -0.2031 -0.2816 -0.1946
  426MOL0     H56206   5.827   5.863   4.050  0.5276  0.9809  0.3821
  426MOL0     H56207   5.789   5.990   4.156  0.0840 -0.8526 -0.8697
  426MOL0     H56208   5.609   5.742   4.113 -2.7215  1.2420 -0.3630
  426MOL0     H56209   5.601   5.907   4.034  3.5275  0.7026 -0.3955
  426MOL0     H56210   5.525   5.822   4.316 -1.0168  0.4635 -0.2869
  426MOL0     H56211   5.571   5.988   4.286  0.5595 -0.0441  2.6118
  426MOL0     H56212   5.306   5.921   4.252 -3.1891 -0.6797 -3.8085
  426MOL0     H56213   5.362   5.883   4.092  1.1198 -1.4071  0.8205
  426MOL0     H56214   6.417   5.881   4.572 -1.9560  0.7219 -0.7581
  426MOL0     H56215   6.649   5.823   4.558  0.8317 -0.0492 -1.1273
  426MOL0     H56216   6.973   5.657   4.306  0.3963  0.8074 -2.3996
  426MOL0     H56217   7.201   5.541   4.323  0.3551 -0.4672  2.0218
  426MOL0     H56218   7.218   6.196   4.644 -0.2946  0.4390 -0.7049
  426MOL0     H56219   6.975   6.177   4.597  0.4110  0.7346 -0.0008
  426MOL0     H56220   6.611   6.140   4.597  2.4376  2.9902 -0.7409
  426MOL0     H56221   6.411   6.174   4.452 -1.6222  2.4765 -0.2692
  426MOL0     H56222   6.068   6.454   4.624  1.3419 -0.8195  2.4706
  426MOL0     H56223   6.069   6.280   4.656  3.4923 -2.2491 -0.8168
  426MOL0     H56224   5.995   6.392   4.385  0.6125 -0.2300  0.6571
  426MOL0     H56225   5.973   6.226   4.426 -1.8075  0.1549 -0.4265
  426MOL0     H56226   5.802   6.452   4.504 -1.1981  0.1752 -1.1079
  426MOL0     H56227   5.828   6.345   4.633 -1.5151  4.3114  1.2687
  426MOL0     H56228   5.614   6.274   4.492 -0.2975 -0.6880 -1.1435
  426MOL0     H56229   5.727   6.267   4.350  0.2980  0.6861 -0.6821
  426MOL0     H56230   5.696   5.914   4.585  0.8480 -0.4355 -1.0954
  426MOL0     H56231   6.259   6.447   4.750  0.5705  0.0388 -0.3067
  426MOL0     H56232   6.468   6.438   4.866 -2.5545  2.0757 -1.6334
  427MOL0     O56233  10.353   5.224   6.964  0.3200  0.0587 -0.2452
  427MOL0     C56234  10.402   5.300   6.889  0.0278  1.0708 -0.0221
  427MOL0     O56235  10.338   5.389   6.815  0.4580  0.1695 -0.0866
  427MOL0     C56236  10.199   5.401   6.820 -0.6770 -0.7450  0.5482
  427MOL0     C56237  10.112   5.300   6.832 -0.3840  1.0976 -0.0923
  427MOL0     C56238   9.972   5.310   6.839 -0.4815 -0.0536  0.1885
  427MOL0     C56239   9.915   5.436   6.823 -0.5324 -0.3015 -0.2131
  427MOL0     O56240   9.782   5.469   6.831  0.3520 -0.5724  0.0390
  427MOL0     C56241   9.680   5.366   6.838 -0.8190 -0.1858 -0.6741
  427MOL0     C56242   9.547   5.424   6.836  0.5608 -0.1423  0.5997
  427MOL0     C56243   9.442   5.321   6.884 -0.1757  0.6944 -0.4157
  427MOL0     C56244   9.306   5.383   6.907 -0.8760  0.0400 -0.4727
  427MOL0     C56245   9.203   5.287   6.991  0.3895 -0.5231 -0.5333
  427MOL0     C56246   9.092   5.371   7.058 -0.9849 -0.0881  0.2260
  427MOL0     C56247   8.998   5.410   6.951 -0.2006 -0.2805  0.0035
  427MOL0     C56248   8.872   5.433   7.016  0.3009 -1.0798 -0.4030
  427MOL0     N56249   8.781   5.481   6.905 -0.4004 -0.4615  0.0286
  427MOL0     C56250   8.679   5.404   6.835  0.1474  0.1580 -0.1714
  427MOL0     C56251   8.614   5.499   6.759 -0.1588  0.0755  0.1407
  427MOL0     C56252   8.512   5.483   6.647  0.0495  0.4015  0.2705
  427MOL0     C56253   8.408   5.591   6.659 -0.3168 -0.5083  0.1052
  427MOL0     C56254   8.337   5.574   6.794  0.2358  1.0417 -0.1507
  427MOL0     C56255   8.214   5.485   6.777  0.1417 -0.1329 -0.0522
  427MOL0     O56256   8.243   5.346   6.774  0.6494  0.6976  0.2783
  427MOL0     C56257   8.163   5.269   6.692  0.7136 -0.2402  0.2116
  427MOL0     C56258   8.232   5.178   6.618 -0.5240  1.2007 -0.8032
  427MOL0     C56259   8.162   5.097   6.527  0.5549 -0.2341 -0.1847
  427MOL0     C56260   8.023   5.111   6.506 -0.0987 -0.2818 -0.1269
  427MOL0     C56261   7.949   5.012   6.421 -0.4250  0.0390 -0.3253
  427MOL0     O56262   7.817   5.043   6.384 -0.6567 -0.2659 -0.4793
  427MOL0     C56263   7.739   4.942   6.330 -0.5160  0.2475 -0.5870
  427MOL0     C56264   7.655   4.870   6.411  0.3748 -0.6305 -0.2036
  427MOL0     C56265   7.560   4.791   6.357  0.2426 -0.3996  0.3196
  427MOL0     C56266   7.538   4.789   6.219 -0.4174  1.3516 -0.2069
  427MOL0     O56267   7.435   4.733   6.152  0.1746  0.0883  0.0103
  427MOL0     C56268   7.336   4.679   6.232 -0.0489 -0.5491 -0.0815
  427MOL0     C56269   7.220   4.666   6.133  0.5938 -0.0747 -0.2691
  427MOL0     C56270   7.115   4.575   6.196  0.0262 -0.8892  0.6461
  427MOL0     C56271   6.996   4.582   6.107  0.1188  0.0505  0.4416
  427MOL0     C56272   6.881   4.497   6.165  0.2743 -0.0307  0.9137
  427MOL0     C56273   6.751   4.518   6.086 -0.1727  0.4858 -0.3763
  427MOL0     C56274   6.635   4.432   6.148 -0.4020 -0.9258  0.2658
  427MOL0     C56275   6.493   4.445   6.099  0.7002  0.1411  0.6418
  427MOL0    Cl56276   6.491   4.450   5.921 -0.0005 -0.3077  0.0157
  427MOL0     C56277   7.628   4.860   6.136 -0.0363 -0.2922  0.4146
  427MOL0     C56278   7.725   4.934   6.196 -0.1960 -1.0668  0.0739
  427MOL0     O56279   8.010   4.915   6.377  0.7869  0.3109 -0.3686
  427MOL0     C56280   7.951   5.201   6.597 -0.4258 -0.5032 -0.1888
  427MOL0     C56281   8.020   5.275   6.693  0.4223 -0.6240 -0.5772
  427MOL0     N56282   8.676   5.624   6.766  0.1907  0.5358 -0.5610
  427MOL0     N56283   8.772   5.611   6.853  0.1144  0.4369 -0.0812
  427MOL0     C56284  10.002   5.549   6.804  0.9532 -0.5481 -0.0199
  427MOL0     C56285  10.147   5.531   6.804  0.5953  0.5229 -0.1660
  427MOL0     C56286  10.541   5.280   6.853  0.3901 -0.2329  0.1823
  427MOL0     C56287  10.622   5.384   6.790  0.5094  0.0402  0.7955
  427MOL0     C56288  10.760   5.363   6.754 -0.4729 -0.2045  0.0150
  427MOL0     C56289  10.822   5.244   6.780 -0.0242  0.7935  0.2387
  427MOL0     O56290  10.943   5.223   6.719  0.2789 -0.2357  0.0085
  427MOL0     C56291  11.002   5.098   6.714  0.0907  1.0469  0.7236
  427MOL0     C56292  11.098   5.087   6.601 -0.4606  0.5499  0.2608
  427MOL0     C56293  11.167   4.960   6.577  0.7343  0.5181 -0.3193
  427MOL0     C56294  11.295   4.972   6.492 -0.0718 -0.1337  1.3119
  427MOL0     C56295  11.416   5.003   6.568  1.5274  0.4673 -0.0039
  427MOL0     C56296  11.520   5.013   6.637 -0.8148 -0.7034  0.3264
  427MOL0     C56297  10.745   5.144   6.839 -0.4935  0.1948 -0.2317
  427MOL0     C56298  10.609   5.163   6.876 -0.4177 -0.3827  0.3045
  427MOL0     H56299  10.154   5.201   6.841  0.6658  1.3891 -1.4012
  427MOL0     H56300   9.915   5.220   6.859  2.2881 -1.2384  3.9275
  427MOL0     H56301   9.692   5.306   6.928 -1.8665 -0.8191 -0.9462
  427MOL0     H56302   9.691   5.299   6.752  2.3658  1.4761 -1.7417
  427MOL0     H56303   9.526   5.454   6.733  3.1133  1.8697  0.5369
  427MOL0     H56304   9.556   5.518   6.893  1.8114 -0.2763  0.6589
  427MOL0     H56305   9.482   5.266   6.969 -0.1486 -0.1895 -0.9853
  427MOL0     H56306   9.425   5.243   6.809 -1.7441 -0.7689  1.3711
  427MOL0     H56307   9.316   5.484   6.946  1.2646 -1.0093  1.9980
  427MOL0     H56308   9.270   5.406   6.806  0.4494 -0.7128 -1.1524
  427MOL0     H56309   9.259   5.240   7.072 -0.9260 -3.3791 -1.1797
  427MOL0     H56310   9.161   5.211   6.924  0.2365  1.0338 -2.3110
  427MOL0     H56311   9.143   5.446   7.119  0.2303 -0.3998 -0.3788
  427MOL0     H56312   9.030   5.310   7.124 -0.7298  0.4810  1.0020
  427MOL0     H56313   9.038   5.489   6.887 -1.1990 -1.0124 -1.5981
  427MOL0     H56314   8.984   5.327   6.881  0.7994 -0.4570  0.0047
  427MOL0     H56315   8.873   5.506   7.097  0.6174 -0.4369 -0.9832
  427MOL0     H56316   8.844   5.341   7.069 -0.3323 -0.7585 -0.1625
  427MOL0     H56317   8.647   5.302   6.854 -0.0019  0.6605  2.7754
  427MOL0     H56318   8.482   5.378   6.656  0.3120  0.0661 -2.0551
  427MOL0     H56319   8.565   5.495   6.551  1.3256 -0.2635  0.8620
  427MOL0     H56320   8.335   5.597   6.577  1.2715  0.1969 -1.3112
  427MOL0     H56321   8.446   5.693   6.668 -2.7441  0.4722  0.1515
  427MOL0     H56322   8.397   5.539   6.878  0.9293  0.1070 -1.0080
  427MOL0     H56323   8.311   5.676   6.824  0.8651  1.3469 -0.6087
  427MOL0     H56324   8.164   5.520   6.686 -1.0823  2.2811  1.4697
  427MOL0     H56325   8.153   5.502   6.866 -0.7135 -0.0098 -0.6496
  427MOL0     H56326   8.339   5.164   6.628 -0.6127  1.8994  1.9041
  427MOL0     H56327   8.214   5.007   6.492 -1.0835 -1.8385  1.3288
  427MOL0     H56328   7.674   4.878   6.518  1.5009  0.6023 -0.4717
  427MOL0     H56329   7.495   4.737   6.425  4.4142 -0.8529  4.3963
  427MOL0     H56330   7.293   4.753   6.300 -0.1869 -0.6473 -0.0609
  427MOL0     H56331   7.361   4.589   6.288 -0.2716 -0.3294  0.3716
  427MOL0     H56332   7.261   4.615   6.046 -0.3849 -2.1550  0.4337
  427MOL0     H56333   7.172   4.763   6.117 -1.2013 -1.1252 -1.6672
  427MOL0     H56334   7.088   4.602   6.298 -0.3910  1.7765 -0.0938
  427MOL0     H56335   7.164   4.477   6.187  2.1335  0.0336  1.3159
  427MOL0     H56336   6.957   4.682   6.130 -0.2652 -0.0304  0.1514
  427MOL0     H56337   7.031   4.554   6.007 -1.9834 -2.2110  0.2234
  427MOL0     H56338   6.859   4.513   6.271 -2.3410  2.0923  0.1465
  427MOL0     H56339   6.900   4.389   6.155 -4.6377 -1.1870  1.1772
  427MOL0     H56340   6.779   4.478   5.988  0.7454 -2.1648  0.8487
  427MOL0     H56341   6.713   4.620   6.077 -1.7911  0.1175  1.5619
  427MOL0     H56342   6.664   4.326   6.143  1.7034 -0.3794 -0.0717
  427MOL0     H56343   6.637   4.463   6.253  0.4940 -0.6110  0.1695
  427MOL0     H56344   6.458   4.545   6.127 -1.6666 -0.9958  2.0143
  427MOL0     H56345   6.430   4.369   6.146  2.1379  0.3135  3.0181
  427MOL0     H56346   7.610   4.864   6.029  1.9763  1.0145  0.0623
  427MOL0     H56347   7.782   5.014   6.149 -1.7162  1.0419  1.6611
  427MOL0     H56348   7.844   5.204   6.611 -0.4816 -2.4075  0.1205
  427MOL0     H56349   7.958   5.332   6.761 -2.1564 -3.0716 -0.6682
  427MOL0     H56350   9.954   5.642   6.779 -4.3462 -2.5802  1.3568
  427MOL0     H56351  10.212   5.617   6.793  3.6832 -1.5643  0.3997
  427MOL0     H56352  10.579   5.477   6.754 -1.5894 -1.2188 -0.1709
  427MOL0     H56353  10.829   5.437   6.715  1.6728 -1.3884  1.3746
  427MOL0     H56354  10.924   5.023   6.702 -1.2413  2.5408 -0.3389
  427MOL0     H56355  11.034   5.078   6.816  1.0936  3.2485  0.8999
  427MOL0     H56356  11.049   5.116   6.507 -3.2152 -0.6558  1.2111
  427MOL0     H56357  11.182   5.150   6.632  0.8806 -0.3701 -1.3683
  427MOL0     H56358  11.104   4.887   6.525 -0.2131  0.4148  0.9415
  427MOL0     H56359  11.183   4.916   6.676  3.9918 -0.1094 -1.0036
  427MOL0     H56360  11.319   4.876   6.445 -3.0980 -1.1040  1.5483
  427MOL0     H56361  11.285   5.044   6.411  0.0688 -1.8972 -0.3388
  427MOL0     H56362  11.607   5.019   6.699  0.1526 -3.9670 -0.5200
  427MOL0     H56363  10.794   5.052   6.867  0.1250  0.4832 -0.3470
  427MOL0     H56364  10.559   5.078   6.922  1.1952 -3.1022 -2.5445
  428MOL0     O56365   3.180   7.357   1.410 -0.0386  0.4544  0.0101
  428MOL0     C56366   3.258   7.412   1.336 -0.4033 -0.1730 -1.1294
  428MOL0     O56367   3.232   7.523   1.259  0.1489  0.3073  0.1866
  428MOL0     C56368   3.109   7.578   1.263 -0.3418 -0.5138  0.3242
  428MOL0     C56369   2.991   7.494   1.235  0.4171  0.5870  0.5269
  428MOL0     C56370   2.868   7.558   1.222 -1.0609  0.4712  0.5132
  428MOL0     C56371   2.864   7.702   1.213  0.5862 -0.2824 -0.1079
  428MOL0     O56372   2.735   7.751   1.208 -0.3282  0.1117 -0.0384
  428MOL0     C56373   2.683   7.777   1.337 -0.2342  1.0105 -0.6392
  428MOL0     C56374   2.536   7.779   1.325 -0.6570  0.6613 -0.5000
  428MOL0     C56375   2.469   7.888   1.228 -0.4048 -0.0019 -0.0624
  428MOL0     C56376   2.330   7.833   1.193 -0.4682  0.2721  0.4211
  428MOL0     C56377   2.244   7.922   1.096 -0.2889  0.6358 -0.1451
  428MOL0     C56378   2.156   7.841   1.006 -0.3699 -0.0681  0.4272
  428MOL0     C56379   2.026   7.806   1.080  0.2594  0.3007  0.1953
  428MOL0     C56380   1.944   7.728   0.979  0.0200 -0.3470  0.6706
  428MOL0     N56381   1.873   7.810   0.881  0.0031  0.8792 -0.3039
  428MOL0     C56382   1.871   7.784   0.749 -0.0890  0.0082  0.3486
  428MOL0     C56383   1.779   7.872   0.703  0.0527  0.2064 -0.0905
  428MOL0     C56384   1.713   7.873   0.559 -0.1530  1.0684  0.0304
  428MOL0     C56385   1.631   8.003   0.528  0.1355 -0.9346 -0.5842
  428MOL0     C56386   1.608   8.029   0.378 -0.0080  0.6577 -0.6681
  428MOL0     C56387   1.732   8.097   0.310  0.1044  0.2630 -0.2904
  428MOL0     O56388   1.728   8.072   0.169 -0.2181 -0.3510 -0.4668
  428MOL0     C56389   1.645   8.151   0.092  0.5343  0.6294  0.3861
  428MOL0     C56390   1.660   8.131  -0.046 -0.0978  0.3163 -0.4159
  428MOL0     C56391   1.570   8.183  -0.139  1.1965  0.5899  0.3334
  428MOL0     C56392   1.472   8.279  -0.098  0.3008  0.3897 -0.3319
  428MOL0     C56393   1.359   8.320  -0.184 -0.0977  0.5942 -0.9194
  428MOL0     O56394   1.379   8.300  -0.316  0.8930  0.3560 -0.3872
  428MOL0     C56395   1.292   8.369  -0.395 -0.4768 -0.4914 -0.8067
  428MOL0     C56396   1.153   8.328  -0.413  0.1296  0.0697  0.4158
  428MOL0     C56397   1.067   8.404  -0.486 -0.1440  0.4182  0.7576
  428MOL0     C56398   1.110   8.514  -0.553  0.6304  0.5069 -0.0810
  428MOL0     O56399   1.019   8.584  -0.623 -0.0528  0.4499  0.5019
  428MOL0     C56400   1.032   8.622  -0.760 -0.9436  0.8703  0.4524
  428MOL0     C56401   0.999   8.766  -0.782 -0.6019 -0.9705  0.0756
  428MOL0     C56402   1.018   8.810  -0.937  0.2511  1.1279 -0.6891
  428MOL0     C56403   0.974   8.952  -0.953  0.0356 -1.0931  0.0714
  428MOL0     C56404   0.950   8.997  -1.106  0.3209  0.8805  0.2635
  428MOL0     C56405   0.900   9.132  -1.115 -0.0837 -0.3854  0.1558
  428MOL0     C56406   0.873   9.164  -1.263 -0.3016 -0.0493  0.2297
  428MOL0     C56407   0.999   9.173  -1.356  0.0689  0.0557  1.1185
  428MOL0    Cl56408   0.949   9.215  -1.517  0.0422 -0.3661 -0.0541
  428MOL0     C56409   1.244   8.553  -0.551 -0.6638  0.6347 -0.5193
  428MOL0     C56410   1.337   8.468  -0.482 -0.7748 -0.1235  0.2526
  428MOL0     O56411   1.265   8.378  -0.136 -0.5191 -0.4568  0.2125
  428MOL0     C56412   1.482   8.317   0.036  0.4560 -0.1027 -0.3707
  428MOL0     C56413   1.562   8.253   0.133 -0.4812 -1.5601  0.3110
  428MOL0     N56414   1.728   7.952   0.806 -0.7070 -0.5131  1.0024
  428MOL0     N56415   1.796   7.919   0.909  1.2950  1.2949 -0.2078
  428MOL0     C56416   2.976   7.783   1.233  0.1698  0.1873 -0.2155
  428MOL0     C56417   3.096   7.719   1.258  0.2966 -0.7608  0.8228
  428MOL0     C56418   3.406   7.377   1.334  0.6207 -0.0731 -1.1669
  428MOL0     C56419   3.497   7.420   1.235  1.0275 -0.5310 -1.2253
  428MOL0     C56420   3.631   7.377   1.241  0.4411  0.0411 -0.5129
  428MOL0     C56421   3.670   7.277   1.334 -0.1101  0.7284  0.1705
  428MOL0     O56422   3.793   7.213   1.336  1.1389  1.0193 -0.3683
  428MOL0     C56423   3.886   7.255   1.234  0.9887 -0.5535  0.5680
  428MOL0     C56424   4.010   7.164   1.259 -0.0550  0.6113 -0.3429
  428MOL0     C56425   4.094   7.224   1.374  0.2331  0.0022 -0.1230
  428MOL0     C56426   4.244   7.186   1.366 -0.3332 -1.4508 -0.2897
  428MOL0     C56427   4.310   7.257   1.252  0.4329  0.1891  0.4456
  428MOL0     C56428   4.378   7.332   1.175 -0.3775  0.0487  0.0293
  428MOL0     C56429   3.582   7.246   1.438  0.4103  0.3365 -0.5724
  428MOL0     C56430   3.447   7.288   1.431 -0.1351  0.4413 -0.0242
  428MOL0     H56431   2.991   7.386   1.244 -2.4746  0.1209 -2.5715
  428MOL0     H56432   2.774   7.503   1.223 -1.1151  0.5616  1.3017
  428MOL0     H56433   2.722   7.867   1.386 -2.4295  1.6148  0.0896
  428MOL0     H56434   2.709   7.698   1.408  1.8006 -1.4272 -3.8003
  428MOL0     H56435   2.492   7.788   1.425  0.7451  3.1461 -0.0448
  428MOL0     H56436   2.516   7.677   1.289 -3.2929  1.4913 -1.6264
  428MOL0     H56437   2.533   7.907   1.141  1.2364 -1.6489  0.7008
  428MOL0     H56438   2.453   7.985   1.276  0.3725 -0.3195  0.8543
  428MOL0     H56439   2.347   7.731   1.158 -0.0519  0.5324 -0.1462
  428MOL0     H56440   2.271   7.806   1.281 -0.0085 -0.0348  0.6404
  428MOL0     H56441   2.320   7.982   1.047  1.6028  0.4539  2.3463
  428MOL0     H56442   2.183   7.989   1.158 -1.8231 -0.5103 -0.3504
  428MOL0     H56443   2.211   7.754   0.970 -0.3837 -0.4326  1.2775
  428MOL0     H56444   2.121   7.905   0.924  2.4563 -0.4358 -1.1664
  428MOL0     H56445   2.043   7.743   1.168 -1.1855  0.3001  0.4997
  428MOL0     H56446   1.963   7.886   1.121 -0.0576  0.2689 -0.2272
  428MOL0     H56447   1.878   7.651   1.019 -1.6596  0.8305  0.2414
  428MOL0     H56448   2.011   7.664   0.919  0.3803  0.4769  0.1713
  428MOL0     H56449   1.916   7.709   0.685  0.9763 -0.1848  1.3055
  428MOL0     H56450   1.634   7.797   0.557  0.5693  0.2773  1.2440
  428MOL0     H56451   1.787   7.861   0.479 -1.1937 -1.0258 -0.7042
  428MOL0     H56452   1.679   8.093   0.569  0.8109 -0.1992 -2.8649
  428MOL0     H56453   1.530   7.995   0.569  0.0723  1.2390 -0.1990
  428MOL0     H56454   1.585   7.937   0.324  2.9690 -2.2606  2.4816
  428MOL0     H56455   1.529   8.102   0.357 -0.3869  0.5615  0.3593
  428MOL0     H56456   1.825   8.052   0.346 -1.6713 -3.4808  0.1207
  428MOL0     H56457   1.738   8.206   0.320  0.5160  0.4845 -2.5229
  428MOL0     H56458   1.723   8.045  -0.066 -2.0910 -1.9064  2.0137
  428MOL0     H56459   1.573   8.150  -0.242 -2.8788 -0.6984  0.4734
  428MOL0     H56460   1.105   8.239  -0.374 -1.6456 -0.2161 -2.1492
  428MOL0     H56461   0.965   8.369  -0.492  0.7147 -2.3295  0.8506
  428MOL0     H56462   0.973   8.561  -0.829 -0.3075 -0.2831  0.9001
  428MOL0     H56463   1.133   8.616  -0.803 -0.0840  1.0352  2.3431
  428MOL0     H56464   1.059   8.832  -0.719  0.1123 -1.8140  0.2889
  428MOL0     H56465   0.894   8.789  -0.762 -0.7854 -0.5484 -1.2972
  428MOL0     H56466   0.957   8.742  -0.997  1.2943  0.9927 -1.6317
  428MOL0     H56467   1.117   8.794  -0.979  0.1653  0.0231 -0.4962
  428MOL0     H56468   0.884   8.977  -0.896 -0.6945  1.3919 -1.9799
  428MOL0     H56469   1.054   9.012  -0.910 -2.6037  2.4350  0.5482
  428MOL0     H56470   0.858   8.953  -1.144  0.4111  0.8306  0.1053
  428MOL0     H56471   1.033   8.985  -1.176 -0.8573 -1.0264 -0.8643
  428MOL0     H56472   0.968   9.204  -1.067 -0.9002  0.4724  0.0562
  428MOL0     H56473   0.821   9.131  -1.040  1.3243 -0.2968  1.7171
  428MOL0     H56474   0.818   9.076  -1.298  2.4769 -2.1045  0.6325
  428MOL0     H56475   0.820   9.259  -1.266  0.0971  0.3261  3.0307
  428MOL0     H56476   1.039   9.072  -1.363  0.9200  0.4692 -2.7752
  428MOL0     H56477   1.073   9.239  -1.310 -1.0651  2.2538 -0.0361
  428MOL0     H56478   1.270   8.639  -0.611 -1.7283  1.9175  0.7658
  428MOL0     H56479   1.442   8.487  -0.465 -0.0517 -3.5210  0.4442
  428MOL0     H56480   1.418   8.393   0.080  1.3878  0.7023 -0.3905
  428MOL0     H56481   1.543   8.279   0.237  2.5448  0.0670  0.5647
  428MOL0     H56482   2.976   7.892   1.233  1.9062  0.3352  3.0275
  428MOL0     H56483   3.188   7.776   1.268 -1.4115  2.3729  0.0310
  428MOL0     H56484   3.465   7.500   1.170 -0.7454 -0.6632 -0.5818
  428MOL0     H56485   3.706   7.427   1.181 -0.9957 -0.3393 -2.7389
  428MOL0     H56486   3.912   7.362   1.233 -0.4834 -0.1371 -1.5675
  428MOL0     H56487   3.833   7.225   1.143  1.7687  1.5865 -0.6783
  428MOL0     H56488   3.969   7.065   1.277 -0.1340  0.8478  0.8667
  428MOL0     H56489   4.075   7.166   1.171 -0.1036 -2.2737 -0.5412
  428MOL0     H56490   4.053   7.196   1.471  1.5993  0.0046  0.4810
  428MOL0     H56491   4.084   7.333   1.376 -2.1383 -0.1333 -0.9590
  428MOL0     H56492   4.297   7.209   1.459  0.9687  0.1121 -1.3562
  428MOL0     H56493   4.266   7.081   1.343 -0.8182 -1.4404 -0.8438
  428MOL0     H56494   4.442   7.389   1.111  1.4935 -1.1107  0.7995
  428MOL0     H56495   3.632   7.185   1.513 -0.8081 -3.2565 -2.4682
  428MOL0     H56496   3.377   7.255   1.508 -1.4378 -0.0804 -1.3869
  429MOL0     O56497   7.863   3.745   3.928 -0.2407 -0.1294  0.8915
  429MOL0     C56498   7.902   3.861   3.926 -0.3217 -0.0974 -0.4792
  429MOL0     O56499   7.824   3.968   3.893 -0.2970 -0.2381 -0.2986
  429MOL0     C56500   7.692   3.956   3.852 -0.2883 -0.7480 -0.5096
  429MOL0     C56501   7.625   4.076   3.882 -1.0106 -0.3804 -0.3121
  429MOL0     C56502   7.496   4.091   3.852 -0.4198 -0.3246  0.2228
  429MOL0     C56503   7.414   3.986   3.802 -0.9749 -0.1060  0.6482
  429MOL0     O56504   7.277   4.017   3.785  0.0768  0.5735  0.6665
  429MOL0     C56505   7.222   3.935   3.688 -0.0586  0.6588 -0.0174
  429MOL0     C56506   7.085   4.001   3.673  0.7138 -0.1140  0.0074
  429MOL0     C56507   7.001   3.931   3.566 -0.2052 -0.3864  0.9028
  429MOL0     C56508   6.863   3.998   3.559 -0.8164 -0.5813  1.2031
  429MOL0     C56509   6.765   3.903   3.483  0.9582  0.2668  0.2735
  429MOL0     C56510   6.617   3.931   3.530  0.2163 -0.4650  0.1590
  429MOL0     C56511   6.518   3.828   3.469 -0.6226 -0.7493  0.2303
  429MOL0     C56512   6.372   3.879   3.490  0.5840  0.5603  0.2364
  429MOL0     N56513   6.270   3.793   3.435 -0.0285 -0.3641  0.6237
  429MOL0     C56514   6.170   3.727   3.503  0.3058 -0.5144  0.2256
  429MOL0     C56515   6.096   3.673   3.409 -0.8661 -0.4851  0.3209
  429MOL0     C56516   5.974   3.588   3.429 -0.8262 -0.5474  0.5564
  429MOL0     C56517   5.863   3.644   3.505 -0.3445 -0.1050 -0.0618
  429MOL0     C56518   5.734   3.570   3.462 -0.4612 -0.3486  0.1363
  429MOL0     C56519   5.609   3.601   3.542 -0.2787 -0.1296  0.1275
  429MOL0     O56520   5.493   3.527   3.510  0.4022 -0.5618  0.2922
  429MOL0     C56521   5.429   3.449   3.602 -0.1046  1.6265 -0.4155
  429MOL0     C56522   5.510   3.374   3.696 -0.4486  0.5001  0.4005
  429MOL0     C56523   5.467   3.271   3.772  0.1537 -0.0265 -0.6429
  429MOL0     C56524   5.331   3.244   3.770  1.4408  0.3309 -0.5576
  429MOL0     C56525   5.279   3.122   3.855  0.6365  0.3283 -0.4917
  429MOL0     O56526   5.387   3.062   3.928 -0.6357  0.0289  1.0739
  429MOL0     C56527   5.380   2.954   4.008  0.9240  0.4108 -1.3136
  429MOL0     C56528   5.261   2.885   4.044 -0.0102  0.1011 -1.1064
  429MOL0     C56529   5.277   2.770   4.123  0.4271 -0.0518 -0.3499
  429MOL0     C56530   5.399   2.704   4.153  0.6766 -0.7188  0.0810
  429MOL0     O56531   5.393   2.603   4.242 -0.0532 -0.3568  0.2920
  429MOL0     C56532   5.486   2.599   4.352 -0.1962  0.2730 -0.4643
  429MOL0     C56533   5.446   2.487   4.451 -0.0868 -0.3828 -0.2840
  429MOL0     C56534   5.505   2.358   4.398 -0.1647 -0.5797 -0.2035
  429MOL0     C56535   5.522   2.259   4.512 -0.2220  0.6596  0.1169
  429MOL0     C56536   5.389   2.210   4.561 -0.4854  1.0587 -0.6371
  429MOL0     C56537   5.404   2.116   4.687 -0.6468 -0.1410 -0.2643
  429MOL0     C56538   5.456   1.980   4.652 -0.2386  0.3350 -0.2857
  429MOL0     C56539   5.376   1.911   4.536 -0.5430 -0.7321 -0.0299
  429MOL0    Cl56540   5.199   1.914   4.557 -0.2892 -0.3989 -0.2231
  429MOL0     C56541   5.515   2.770   4.103 -0.3813  0.8482 -0.1043
  429MOL0     C56542   5.502   2.890   4.037  0.0552 -0.1745  1.5028
  429MOL0     O56543   5.161   3.089   3.857  0.5240 -0.2207  0.5197
  429MOL0     C56544   5.249   3.319   3.685  1.8258 -0.2159  0.3562
  429MOL0     C56545   5.294   3.417   3.594  0.5875  0.4554  0.4048
  429MOL0     N56546   6.140   3.719   3.283  0.1130 -0.0815 -0.1081
  429MOL0     N56547   6.244   3.787   3.301 -0.5480 -0.4393 -0.4346
  429MOL0     C56548   7.479   3.861   3.769  0.3681  0.0287 -0.3630
  429MOL0     C56549   7.616   3.845   3.800  0.8315  0.4788 -1.0690
  429MOL0     C56550   8.040   3.878   3.966  0.4565 -0.0663  0.5172
  429MOL0     C56551   8.089   4.007   3.996  0.6639 -0.5524 -0.3201
  429MOL0     C56552   8.226   4.038   4.013  0.2278 -0.0301 -0.5862
  429MOL0     C56553   8.319   3.932   4.017  0.3422 -0.3643  0.3596
  429MOL0     O56554   8.454   3.958   4.027  0.2910 -0.5547 -0.1387
  429MOL0     C56555   8.513   4.031   3.920  0.9714 -0.8462 -0.2511
  429MOL0     C56556   8.566   3.935   3.813  0.1732  0.3767  0.5001
  429MOL0     C56557   8.710   3.876   3.835 -0.2312 -0.2399  0.6795
  429MOL0     C56558   8.823   3.977   3.800 -0.9379  0.1606 -0.2483
  429MOL0     C56559   8.951   3.903   3.810 -0.8113 -0.6401 -1.2061
  429MOL0     C56560   9.056   3.848   3.797  0.5352 -0.5432  0.5783
  429MOL0     C56561   8.270   3.801   4.011 -1.2237 -0.5719 -0.5857
  429MOL0     C56562   8.133   3.773   3.985  0.0165 -0.6860 -0.6576
  429MOL0     H56563   7.678   4.164   3.917 -1.9108 -0.3033  0.9524
  429MOL0     H56564   7.446   4.184   3.877 -1.0686 -0.3147 -1.0192
  429MOL0     H56565   7.213   3.828   3.711  2.1464  0.4351  0.0144
  429MOL0     H56566   7.283   3.949   3.598 -0.4855  3.8943  0.0877
  429MOL0     H56567   7.091   4.105   3.642  1.6948 -0.3709 -0.6980
  429MOL0     H56568   7.036   3.990   3.770  3.1726 -1.1410  1.2238
  429MOL0     H56569   6.991   3.824   3.588 -1.9066 -0.1319  1.5288
  429MOL0     H56570   7.058   3.944   3.474  1.7483 -0.0621  2.1179
  429MOL0     H56571   6.836   4.033   3.659 -0.0074  1.2600  0.8191
  429MOL0     H56572   6.868   4.094   3.506  1.1086  1.3149  4.4462
  429MOL0     H56573   6.781   3.796   3.502  1.6178  0.1831 -0.6835
  429MOL0     H56574   6.779   3.905   3.375  0.7405 -0.1617  0.2354
  429MOL0     H56575   6.572   4.028   3.510 -4.6062 -1.5510  3.8827
  429MOL0     H56576   6.631   3.929   3.638  1.3243 -0.0443  0.0375
  429MOL0     H56577   6.541   3.814   3.363  0.4790 -1.8989  0.5978
  429MOL0     H56578   6.542   3.731   3.512  3.1612 -0.2854 -0.5238
  429MOL0     H56579   6.364   3.980   3.448 -0.2852  1.1797  1.8068
  429MOL0     H56580   6.356   3.882   3.598  0.7846 -2.2670  0.4231
  429MOL0     H56581   6.152   3.699   3.606 -0.7008 -1.0915 -0.0931
  429MOL0     H56582   6.007   3.490   3.465  0.5390 -0.2339  0.2300
  429MOL0     H56583   5.947   3.553   3.329  1.6637 -1.5934  0.1646
  429MOL0     H56584   5.857   3.753   3.504 -4.3732 -0.1433 -2.6133
  429MOL0     H56585   5.879   3.621   3.610  0.7256 -0.1922 -0.2325
  429MOL0     H56586   5.706   3.578   3.357  0.3431  0.0035 -0.0597
  429MOL0     H56587   5.744   3.463   3.483  1.0656  0.0502  1.7087
  429MOL0     H56588   5.582   3.704   3.515  0.8333  0.1516  0.0291
  429MOL0     H56589   5.621   3.610   3.651 -2.4313 -2.0964  0.5834
  429MOL0     H56590   5.619   3.375   3.698 -0.3082  0.3590 -2.4021
  429MOL0     H56591   5.534   3.217   3.838 -0.6002  0.9145  0.9352
  429MOL0     H56592   5.161   2.921   4.019 -1.1946 -1.9368  0.3764
  429MOL0     H56593   5.191   2.716   4.159  1.5308 -0.1464  2.3798
  429MOL0     H56594   5.472   2.694   4.405  0.3615 -1.4221  3.0560
  429MOL0     H56595   5.592   2.594   4.325 -0.2133  3.2888 -1.4674
  429MOL0     H56596   5.338   2.479   4.437 -0.2049  3.8280 -4.0430
  429MOL0     H56597   5.481   2.527   4.546  1.4263 -2.1408 -0.0436
  429MOL0     H56598   5.606   2.368   4.358 -0.0001  2.5581  0.7269
  429MOL0     H56599   5.440   2.323   4.317 -1.6318  2.1527 -0.3569
  429MOL0     H56600   5.575   2.169   4.480 -1.7902 -1.8488  3.8685
  429MOL0     H56601   5.576   2.299   4.599  6.2901 -4.8552 -0.5649
  429MOL0     H56602   5.333   2.165   4.478  2.1881 -2.3995 -0.7795
  429MOL0     H56603   5.333   2.296   4.600 -2.3287 -0.2096 -0.3622
  429MOL0     H56604   5.313   2.106   4.746  0.1845 -2.5479  0.7111
  429MOL0     H56605   5.475   2.163   4.755 -0.4429 -0.0713 -0.5196
  429MOL0     H56606   5.561   1.967   4.621 -0.6917 -3.7932 -0.5835
  429MOL0     H56607   5.436   1.911   4.734  1.3670 -1.2967 -1.1919
  429MOL0     H56608   5.412   1.808   4.546  2.6525  0.3906  1.5695
  429MOL0     H56609   5.404   1.942   4.435  0.0184 -2.8760 -0.5817
  429MOL0     H56610   5.614   2.726   4.116  0.1036  2.0656  0.4856
  429MOL0     H56611   5.588   2.956   4.025 -0.4353  0.3735  0.9944
  429MOL0     H56612   5.149   3.279   3.676  1.9862 -0.4830 -0.2563
  429MOL0     H56613   5.239   3.470   3.517 -2.6662 -1.0425  1.5298
  429MOL0     H56614   7.425   3.777   3.725 -1.1744  1.5985 -1.6053
  429MOL0     H56615   7.652   3.744   3.783  2.9412  0.9135  0.4572
  429MOL0     H56616   8.019   4.090   3.987  0.5969 -0.8201 -3.8712
  429MOL0     H56617   8.238   4.143   4.034 -1.2216 -0.2675  1.9233
  429MOL0     H56618   8.596   4.089   3.961 -0.3396  1.3771 -0.5861
  429MOL0     H56619   8.434   4.089   3.872  1.1647  0.0832  0.5253
  429MOL0     H56620   8.498   3.849   3.810  0.2892  0.3062 -0.0369
  429MOL0     H56621   8.561   3.966   3.709 -2.3346 -4.6384 -1.1766
  429MOL0     H56622   8.723   3.789   3.770  0.4739  0.9583 -0.8516
  429MOL0     H56623   8.725   3.863   3.943 -1.3227 -1.6425  0.6873
  429MOL0     H56624   8.795   4.007   3.699 -0.9675  0.0830 -0.2632
  429MOL0     H56625   8.829   4.061   3.869 -1.4144 -0.3585  0.4437
  429MOL0     H56626   9.144   3.790   3.781  0.6376  0.0938 -1.6425
  429MOL0     H56627   8.349   3.727   4.014 -0.9002 -0.2495 -1.1263
  429MOL0     H56628   8.104   3.668   3.985  0.4248 -0.8153  0.2696
  430MOL0     O56629   4.508   2.375   4.655  1.0137  0.5377  0.3194
  430MOL0     C56630   4.615   2.348   4.601  0.2340  1.1758 -0.0030
  430MOL0     O56631   4.628   2.333   4.466 -0.3311 -0.8967  0.5351
  430MOL0     C56632   4.527   2.384   4.382 -1.1493 -0.4084 -0.5889
  430MOL0     C56633   4.515   2.308   4.269  0.2323  0.2822 -0.0726
  430MOL0     C56634   4.424   2.350   4.177  0.2489 -0.0260  0.2467
  430MOL0     C56635   4.347   2.457   4.189 -0.7161  0.1272 -0.0469
  430MOL0     O56636   4.265   2.504   4.096 -0.2897  0.3733  0.0550
  430MOL0     C56637   4.126   2.450   4.108 -0.4154  0.2236 -0.1276
  430MOL0     C56638   4.058   2.525   3.996  0.3818 -0.1478 -0.4371
  430MOL0     C56639   3.910   2.519   4.003 -0.0505 -0.2399 -0.0183
  430MOL0     C56640   3.856   2.615   3.884  0.0646 -0.4438  0.7243
  430MOL0     C56641   3.701   2.619   3.883  0.4669  0.9247 -0.4007
  430MOL0     C56642   3.645   2.732   3.795  0.3857  0.7967  0.6226
  430MOL0     C56643   3.491   2.755   3.793  0.2927  0.4924 -0.3072
  430MOL0     C56644   3.427   2.820   3.918 -0.4241  0.0884  0.7491
  430MOL0     N56645   3.289   2.864   3.902  0.2503 -0.3545 -0.1102
  430MOL0     C56646   3.180   2.817   3.979 -0.0067 -0.1408 -0.1662
  430MOL0     C56647   3.081   2.897   3.939 -0.0830  0.1133  1.2349
  430MOL0     C56648   2.942   2.906   3.994  0.5614 -0.7227 -0.1123
  430MOL0     C56649   2.849   3.005   3.917  0.1267 -0.8973 -0.3664
  430MOL0     C56650   2.822   2.929   3.775  0.1846  0.6015  0.5747
  430MOL0     C56651   2.704   3.007   3.712  0.4419  0.6996 -0.2452
  430MOL0     O56652   2.589   3.016   3.797 -0.9452  0.3959  0.8637
  430MOL0     C56653   2.533   2.895   3.834  0.7393 -0.3878 -0.0371
  430MOL0     C56654   2.526   2.779   3.755  0.5111 -0.2646 -0.5354
  430MOL0     C56655   2.452   2.662   3.793  0.4176  0.2460  0.6395
  430MOL0     C56656   2.393   2.659   3.926 -0.0798 -0.4602 -0.0988
  430MOL0     C56657   2.330   2.546   3.991 -0.4977 -0.6269  0.2477
  430MOL0     O56658   2.256   2.566   4.106  0.3337  0.4491 -0.3052
  430MOL0     C56659   2.199   2.456   4.164 -0.1285  0.2004 -0.1975
  430MOL0     C56660   2.268   2.373   4.256 -0.9350 -0.0996  0.1143
  430MOL0     C56661   2.216   2.250   4.300  0.6213  0.2506  0.7440
  430MOL0     C56662   2.079   2.217   4.273 -0.3403 -0.4773  0.3557
  430MOL0     O56663   2.012   2.110   4.320  0.2494 -0.1832  0.2786
  430MOL0     C56664   2.050   2.060   4.445 -1.2710  0.1605  0.3295
  430MOL0     C56665   1.940   1.964   4.501 -0.5668  0.0617 -0.3190
  430MOL0     C56666   1.980   1.927   4.640  0.2827 -0.4448  0.1007
  430MOL0     C56667   1.884   1.823   4.690  0.1163  0.4595  0.0941
  430MOL0     C56668   1.890   1.794   4.838 -0.3435 -0.0041  0.4194
  430MOL0     C56669   1.782   1.692   4.876  0.2931  0.4993 -0.0387
  430MOL0     C56670   1.792   1.658   5.020  0.0090  0.2398 -0.5430
  430MOL0     C56671   1.687   1.542   5.055  0.4697 -0.3329  0.2962
  430MOL0    Cl56672   1.529   1.622   5.087  0.2390  0.2631  0.4019
  430MOL0     C56673   2.004   2.313   4.208 -0.4293  0.0610 -0.0427
  430MOL0     C56674   2.063   2.430   4.152 -0.3813 -0.6545 -0.1703
  430MOL0     O56675   2.357   2.432   3.950 -0.1559 -0.0947  0.2156
  430MOL0     C56676   2.406   2.781   4.006 -0.2289 -0.5180  1.3625
  430MOL0     C56677   2.482   2.892   3.959  0.4670 -0.2025 -0.6959
  430MOL0     N56678   3.137   2.992   3.849 -0.4659  0.1237  0.4064
  430MOL0     N56679   3.255   2.977   3.823  0.0441 -0.8213 -1.0194
  430MOL0     C56680   4.357   2.534   4.308  0.7469  0.5264  0.5958
  430MOL0     C56681   4.440   2.496   4.407  0.0675  0.3073 -0.3592
  430MOL0     C56682   4.730   2.310   4.678 -0.3253 -0.4515  0.6545
  430MOL0     C56683   4.841   2.267   4.604  0.2535 -0.8854  0.5935
  430MOL0     C56684   4.957   2.225   4.670  0.4966 -0.9308 -0.2599
  430MOL0     C56685   4.976   2.247   4.804 -0.0149  0.5221  0.3224
  430MOL0     O56686   5.093   2.198   4.861 -0.5694  0.1595  0.3820
  430MOL0     C56687   5.105   2.204   5.009  0.0369 -0.1326  0.6896
  430MOL0     C56688   5.217   2.119   5.058  0.1250  0.0050  0.2818
  430MOL0     C56689   5.183   1.973   5.037 -0.1143 -0.7822  0.7751
  430MOL0     C56690   5.263   1.872   5.113 -0.2815 -0.4132 -0.0862
  430MOL0     C56691   5.193   1.750   5.125 -0.4086  0.3525 -0.3690
  430MOL0     C56692   5.117   1.652   5.142 -0.4142 -1.0070 -0.3657
  430MOL0     C56693   4.870   2.294   4.880  1.0402 -0.7417  0.5239
  430MOL0     C56694   4.742   2.329   4.818 -0.7337  0.5287  0.4210
  430MOL0     H56695   4.578   2.223   4.245 -1.5599 -0.4401 -2.6251
  430MOL0     H56696   4.422   2.302   4.080  0.1723 -2.0011  1.1865
  430MOL0     H56697   4.082   2.469   4.206  1.4687 -0.4168  0.8843
  430MOL0     H56698   4.130   2.341   4.101 -3.0756  0.1169 -1.0825
  430MOL0     H56699   4.100   2.490   3.901  1.1628  3.9332 -1.7966
  430MOL0     H56700   4.081   2.632   4.001  2.1619 -0.4271 -1.6668
  430MOL0     H56701   3.887   2.573   4.095  1.5589 -2.4964  1.8037
  430MOL0     H56702   3.873   2.416   4.001  2.4785 -1.2470 -2.5891
  430MOL0     H56703   3.888   2.715   3.916  1.5050 -1.5897  3.2125
  430MOL0     H56704   3.875   2.585   3.780  0.2759 -0.6734  0.8282
  430MOL0     H56705   3.662   2.627   3.984  1.2422  0.7336 -0.0790
  430MOL0     H56706   3.670   2.525   3.837 -2.1701  2.1174 -1.2957
  430MOL0     H56707   3.676   2.697   3.696 -1.3359 -0.4188  0.4576
  430MOL0     H56708   3.710   2.819   3.804 -1.6642  2.5473 -0.4919
  430MOL0     H56709   3.473   2.819   3.706  0.2263 -1.9683 -2.1816
  430MOL0     H56710   3.451   2.657   3.768 -1.6140  0.9479  0.7131
  430MOL0     H56711   3.484   2.911   3.939 -1.3494  1.1467 -1.0637
  430MOL0     H56712   3.427   2.751   4.003  1.0887  2.9078  3.2736
  430MOL0     H56713   3.173   2.729   4.042 -1.0998 -0.9517 -1.3761
  430MOL0     H56714   2.958   2.940   4.096  0.5658 -0.7305 -0.1106
  430MOL0     H56715   2.891   2.809   3.999 -0.7460 -0.0100  1.0435
  430MOL0     H56716   2.888   3.105   3.898 -1.4954 -0.0882  0.3971
  430MOL0     H56717   2.752   3.017   3.965 -2.2688  1.2956 -5.0909
  430MOL0     H56718   2.904   2.939   3.703  0.5064 -3.1676  0.2174
  430MOL0     H56719   2.794   2.823   3.770 -2.5491  1.2777  0.0832
  430MOL0     H56720   2.680   2.964   3.615 -1.0320  4.2314 -1.6080
  430MOL0     H56721   2.736   3.109   3.687  2.1277 -0.0767 -1.4451
  430MOL0     H56722   2.576   2.782   3.659 -0.7197  0.1381 -1.1899
  430MOL0     H56723   2.459   2.570   3.736 -0.1405  0.5143  0.1297
  430MOL0     H56724   2.371   2.395   4.282 -0.9928 -1.3820  1.6121
  430MOL0     H56725   2.265   2.182   4.369  2.2989  0.8069  0.1580
  430MOL0     H56726   2.066   2.144   4.513 -0.5249  0.2070  0.1034
  430MOL0     H56727   2.140   1.998   4.439 -1.3922  0.1730 -2.7118
  430MOL0     H56728   1.952   1.871   4.445 -0.9478  0.2969 -0.8039
  430MOL0     H56729   1.842   2.010   4.483 -0.1849  1.0431  0.0322
  430MOL0     H56730   1.981   2.015   4.704  4.1217  0.4444 -0.9784
  430MOL0     H56731   2.071   1.867   4.648  0.7601  0.3868  1.1388
  430MOL0     H56732   1.780   1.851   4.672  0.4516  1.2330 -0.7148
  430MOL0     H56733   1.905   1.729   4.637 -1.0888 -0.6578  1.5045
  430MOL0     H56734   1.871   1.885   4.896  2.1141  1.5625 -1.0395
  430MOL0     H56735   1.992   1.757   4.855  0.4490  1.4508 -0.8961
  430MOL0     H56736   1.808   1.598   4.826  0.2927  0.4611  0.0328
  430MOL0     H56737   1.684   1.730   4.846  1.3311  3.0145 -0.4780
  430MOL0     H56738   1.895   1.632   5.045 -0.2917 -0.5230 -0.0508
  430MOL0     H56739   1.767   1.742   5.084  0.6925 -1.1099  1.6042
  430MOL0     H56740   1.723   1.489   5.144 -0.2191 -0.4927  0.4798
  430MOL0     H56741   1.684   1.477   4.967 -2.3278 -1.2707  0.9977
  430MOL0     H56742   1.897   2.302   4.194 -0.5064  0.2707  0.3632
  430MOL0     H56743   2.009   2.507   4.096  1.5703 -0.7281 -2.3071
  430MOL0     H56744   2.364   2.787   4.106 -0.6737 -5.1627  1.6912
  430MOL0     H56745   2.484   2.986   4.014 -0.4006 -0.5510 -0.0504
  430MOL0     H56746   4.294   2.622   4.321 -1.1314 -0.3157 -1.9964
  430MOL0     H56747   4.436   2.567   4.490  3.6554  1.1518 -0.7132
  430MOL0     H56748   4.840   2.246   4.498 -1.7648 -0.3458  0.4772
  430MOL0     H56749   5.045   2.188   4.618  0.5232 -0.6249 -0.4350
  430MOL0     H56750   5.016   2.178   5.067 -0.2809  0.7320  0.6125
  430MOL0     H56751   5.129   2.308   5.033 -0.9146  0.2430  0.0819
  430MOL0     H56752   5.318   2.133   5.018 -0.0928 -0.6525 -0.5343
  430MOL0     H56753   5.223   2.141   5.165 -0.6497  1.1618  0.1025
  430MOL0     H56754   5.192   1.951   4.930  0.8310 -0.0614  0.6869
  430MOL0     H56755   5.077   1.959   5.060 -0.9980  4.3324  0.9167
  430MOL0     H56756   5.359   1.840   5.071  1.8521  1.3964  3.0251
  430MOL0     H56757   5.273   1.915   5.213 -0.6340  1.4853 -0.8326
  430MOL0     H56758   5.056   1.564   5.147 -0.3621 -1.0017  0.7980
  430MOL0     H56759   4.880   2.306   4.987  2.3400  0.8131  0.2731
  430MOL0     H56760   4.658   2.371   4.873 -0.1577  3.7433 -0.8919
  431MOL0     O56761   2.684   3.236   8.316  0.1047 -0.6084  0.6310
  431MOL0     C56762   2.702   3.176   8.418 -0.4754  0.0880  0.2621
  431MOL0     O56763   2.606   3.121   8.503  0.4105 -0.3747 -0.4708
  431MOL0     C56764   2.494   3.088   8.444 -0.7031  0.5469  0.2245
  431MOL0     C56765   2.493   2.964   8.381  0.5874  0.2213 -1.0236
  431MOL0     C56766   2.370   2.921   8.324 -0.5230 -0.1408  0.4304
  431MOL0     C56767   2.251   2.996   8.338 -0.1134 -0.4643  1.0662
  431MOL0     O56768   2.132   2.944   8.291  0.9807  0.0606 -0.0073
  431MOL0     C56769   2.032   3.037   8.239 -0.1439  0.6335  0.4168
  431MOL0     C56770   1.915   2.963   8.178 -0.5153 -0.5599 -0.9245
  431MOL0     C56771   1.846   2.886   8.291  0.3394  0.2991 -0.7287
  431MOL0     C56772   1.696   2.927   8.290  0.2773 -0.3554 -0.0239
  431MOL0     C56773   1.618   2.835   8.383  0.4500  0.6072 -1.4922
  431MOL0     C56774   1.638   2.861   8.532 -0.6916 -0.7773 -0.0692
  431MOL0     C56775   1.563   2.761   8.613  0.3481  0.1876 -0.2033
  431MOL0     C56776   1.417   2.808   8.630  0.8298 -0.1042  0.6714
  431MOL0     N56777   1.326   2.709   8.698 -0.4928  0.4597 -0.2155
  431MOL0     C56778   1.319   2.699   8.833 -0.6582 -0.1909  1.0948
  431MOL0     C56779   1.260   2.578   8.860  0.7207 -0.8840 -0.0862
  431MOL0     C56780   1.249   2.500   8.993 -0.3933 -0.1484 -0.1904
  431MOL0     C56781   1.141   2.393   8.983  0.1993 -0.1315  0.1250
  431MOL0     C56782   1.140   2.309   9.118  0.4479 -0.1886  0.3523
  431MOL0     C56783   1.026   2.352   9.208  0.0755 -0.2396  0.4404
  431MOL0     O56784   1.026   2.498   9.208  0.1313 -0.2087 -0.0698
  431MOL0     C56785   0.902   2.560   9.239 -0.1642  0.9147  1.0732
  431MOL0     C56786   0.851   2.657   9.155 -1.2966 -0.1921 -0.1114
  431MOL0     C56787   0.721   2.704   9.167  0.2225  0.7877 -1.2307
  431MOL0     C56788   0.632   2.660   9.266  0.3118  0.5501 -0.2399
  431MOL0     C56789   0.486   2.696   9.267 -0.2293 -0.7400  1.0767
  431MOL0     O56790   0.439   2.797   9.186 -0.5267  0.0800  0.3435
  431MOL0     C56791   0.307   2.832   9.219  0.0876 -1.3318  0.8477
  431MOL0     C56792   0.278   2.945   9.292 -0.6457  0.6332  0.2178
  431MOL0     C56793   0.146   2.994   9.295  0.4375  0.2773 -0.3823
  431MOL0     C56794   0.046   2.936   9.217 -0.1009  0.7834 -1.3047
  431MOL0     O56795  -0.086   2.960   9.239 -0.5261 -0.3308  0.1690
  431MOL0     C56796  -0.177   2.851   9.224 -0.0995  0.3493 -1.1227
  431MOL0     C56797  -0.306   2.909   9.275 -0.6702  0.6491 -0.2991
  431MOL0     C56798  -0.432   2.843   9.217 -0.0406 -0.4959 -0.5739
  431MOL0     C56799  -0.556   2.886   9.291  1.3075  0.2267  0.3901
  431MOL0     C56800  -0.693   2.838   9.255 -0.0099 -0.3880 -0.7398
  431MOL0     C56801  -0.803   2.921   9.309 -0.1474  0.6826  0.2712
  431MOL0     C56802  -0.927   2.825   9.332 -0.2392 -0.6151 -0.6376
  431MOL0     C56803  -1.044   2.919   9.387 -0.4097 -1.1999 -0.6272
  431MOL0    Cl56804  -1.206   2.855   9.325  0.4948  0.2074  0.4098
  431MOL0     C56805   0.085   2.834   9.124  0.5826  0.2653  0.2146
  431MOL0     C56806   0.213   2.779   9.132  0.2150 -0.6419  0.2224
  431MOL0     O56807   0.416   2.625   9.342  0.8725 -0.0071  0.6738
  431MOL0     C56808   0.685   2.558   9.358  0.0830  1.0294 -0.1052
  431MOL0     C56809   0.817   2.520   9.345  0.2930  0.0341 -0.0441
  431MOL0     N56810   1.241   2.516   8.742  0.5268 -0.2673 -0.0306
  431MOL0     N56811   1.274   2.594   8.641 -0.0987  0.0526  0.5649
  431MOL0     C56812   2.255   3.119   8.412 -0.0231 -1.5340  0.8915
  431MOL0     C56813   2.380   3.163   8.464  0.3710  0.1726  0.0949
  431MOL0     C56814   2.848   3.183   8.473 -0.0412  0.2197 -0.1817
  431MOL0     C56815   2.949   3.260   8.410 -0.1600  0.0681  0.1818
  431MOL0     C56816   3.078   3.257   8.468  0.8629  0.0104 -0.5115
  431MOL0     C56817   3.104   3.184   8.589  0.0155  0.7007  0.2491
  431MOL0     O56818   3.229   3.180   8.647  0.3030  0.3435  0.2921
  431MOL0     C56819   3.271   3.044   8.680 -0.6365  0.4496  0.7393
  431MOL0     C56820   3.394   3.019   8.592 -0.3680  0.1190 -0.6730
  431MOL0     C56821   3.470   2.877   8.625  1.0084 -0.2576 -0.2739
  431MOL0     C56822   3.600   2.877   8.540 -0.3141  0.1655  0.5064
  431MOL0     C56823   3.710   2.942   8.614  0.5093 -0.5199 -0.7760
  431MOL0     C56824   3.794   3.002   8.679 -0.4896  0.0963  0.5297
  431MOL0     C56825   2.999   3.114   8.649 -0.1991  0.4448  0.4690
  431MOL0     C56826   2.881   3.109   8.586  0.9087  0.4445 -0.3905
  431MOL0     H56827   2.584   2.906   8.365 -1.2505 -2.5494 -2.3212
  431MOL0     H56828   2.364   2.841   8.251 -0.2242  2.6937 -2.9454
  431MOL0     H56829   2.091   3.089   8.162  1.4158 -2.8204 -0.9756
  431MOL0     H56830   2.001   3.109   8.314 -2.2745  1.0245 -0.7652
  431MOL0     H56831   1.943   2.893   8.099  0.1309 -3.4106  1.6768
  431MOL0     H56832   1.846   3.038   8.138  0.3162  1.5870  1.4126
  431MOL0     H56833   1.883   2.913   8.391  0.0539 -1.4444 -0.1189
  431MOL0     H56834   1.851   2.777   8.288 -0.8242  0.2233 -0.2458
  431MOL0     H56835   1.679   3.033   8.311  0.1620 -0.1477 -1.0944
  431MOL0     H56836   1.663   2.907   8.188  1.6306  2.3462 -1.0861
  431MOL0     H56837   1.647   2.732   8.361  2.2443  0.4805  1.0242
  431MOL0     H56838   1.513   2.850   8.354 -0.7923 -1.5700  1.3315
  431MOL0     H56839   1.616   2.966   8.557  0.5181  0.1586 -2.5465
  431MOL0     H56840   1.743   2.846   8.560  0.0502  1.4719 -1.3277
  431MOL0     H56841   1.560   2.658   8.576 -0.5959  0.3009 -0.4667
  431MOL0     H56842   1.605   2.757   8.713  0.0253 -0.8505 -0.0968
  431MOL0     H56843   1.378   2.825   8.529 -0.9124  5.1267  1.9674
  431MOL0     H56844   1.424   2.906   8.678  0.3498  0.4084 -0.2766
  431MOL0     H56845   1.349   2.760   8.918 -2.1112  1.1552  0.6911
  431MOL0     H56846   1.243   2.561   9.085  0.8634  0.9949 -0.8310
  431MOL0     H56847   1.339   2.440   9.007 -0.9792 -0.6681  1.7316
  431MOL0     H56848   1.161   2.315   8.909  0.6601  0.6024 -0.5443
  431MOL0     H56849   1.041   2.433   8.965  2.0797  4.0742 -2.5925
  431MOL0     H56850   1.108   2.212   9.078 -1.6505  0.7626 -0.4027
  431MOL0     H56851   1.235   2.316   9.172 -0.8793  0.1180  2.7523
  431MOL0     H56852   1.047   2.317   9.309  0.5244  1.7845  1.1015
  431MOL0     H56853   0.934   2.308   9.169  1.0486 -0.1610 -2.1304
  431MOL0     H56854   0.899   2.703   9.069 -0.9262  1.7804  1.0907
  431MOL0     H56855   0.680   2.767   9.089 -0.4957 -1.2464 -2.5885
  431MOL0     H56856   0.356   2.993   9.350  1.6437  2.6616 -4.0534
  431MOL0     H56857   0.138   3.078   9.363  1.0402 -0.7152  0.9773
  431MOL0     H56858  -0.159   2.763   9.286 -0.9743  1.1560  0.3466
  431MOL0     H56859  -0.176   2.810   9.122  2.6972  0.8562 -1.3707
  431MOL0     H56860  -0.303   3.018   9.263  1.6685  0.6913  0.0664
  431MOL0     H56861  -0.308   2.881   9.381 -3.1506 -1.6749 -0.8423
  431MOL0     H56862  -0.425   2.734   9.220 -2.8799 -0.8832 -3.1307
  431MOL0     H56863  -0.448   2.864   9.111 -3.1110  0.2461 -0.0699
  431MOL0     H56864  -0.544   2.865   9.398  0.2651  0.4525  0.5653
  431MOL0     H56865  -0.569   2.993   9.279 -1.3072 -0.0043  0.5292
  431MOL0     H56866  -0.696   2.736   9.294 -2.3280  0.7039  2.3709
  431MOL0     H56867  -0.702   2.834   9.146  0.1960 -0.0223 -0.7724
  431MOL0     H56868  -0.823   2.993   9.229  1.7357 -0.1682 -1.0089
  431MOL0     H56869  -0.770   2.970   9.401  1.0017 -0.9130  0.7407
  431MOL0     H56870  -0.966   2.784   9.239 -1.0917 -0.9209 -0.1546
  431MOL0     H56871  -0.908   2.745   9.405  0.1132 -0.1030 -0.1610
  431MOL0     H56872  -1.031   3.019   9.346 -0.4167  0.7829  3.6913
  431MOL0     H56873  -1.034   2.936   9.495 -1.2469 -3.1784 -0.1926
  431MOL0     H56874   0.018   2.767   9.071 -0.3417  2.5487 -1.7305
  431MOL0     H56875   0.228   2.693   9.067  0.4692 -1.0236  0.7751
  431MOL0     H56876   0.640   2.509   9.444 -1.0240 -0.8661 -1.7026
  431MOL0     H56877   0.848   2.434   9.404  0.3767 -0.3042 -0.5831
  431MOL0     H56878   2.172   3.187   8.427 -0.4777 -2.2621  1.8056
  431MOL0     H56879   2.383   3.259   8.515  1.1654 -0.5900  1.5799
  431MOL0     H56880   2.936   3.311   8.315  4.2551  2.2477  0.4840
  431MOL0     H56881   3.163   3.313   8.430  0.2393 -0.7873 -3.3181
  431MOL0     H56882   3.197   2.965   8.663 -0.2142 -0.2626  2.0235
  431MOL0     H56883   3.304   3.029   8.783 -0.6686 -4.1411  0.3090
  431MOL0     H56884   3.351   3.008   8.492  0.9682  2.0175 -1.4999
  431MOL0     H56885   3.474   3.093   8.594  0.2481 -0.5359  1.2159
  431MOL0     H56886   3.406   2.795   8.589 -1.4931  0.9082  1.2003
  431MOL0     H56887   3.491   2.861   8.731  1.3214  0.5858 -0.2010
  431MOL0     H56888   3.626   2.772   8.523  1.1928  0.3386  1.6008
  431MOL0     H56889   3.580   2.926   8.444 -1.0392  1.2465  1.1772
  431MOL0     H56890   3.865   3.055   8.739 -2.0884  3.0048 -0.0043
  431MOL0     H56891   3.022   3.055   8.737  2.1704  0.0738 -0.3322
  431MOL0     H56892   2.806   3.037   8.618 -1.9841  2.9462 -1.0591
  432MOL0     O56893   8.357   4.266   7.382  0.0968  0.9098 -0.0864
  432MOL0     C56894   8.430   4.184   7.332 -0.6505 -0.3280 -0.1051
  432MOL0     O56895   8.407   4.049   7.315 -0.5218  0.2654  0.6127
  432MOL0     C56896   8.282   4.010   7.340  0.2343  0.2725 -0.5390
  432MOL0     C56897   8.259   3.908   7.440 -0.0798  0.1837  0.6621
  432MOL0     C56898   8.127   3.861   7.438  0.2402 -0.7268 -0.7336
  432MOL0     C56899   8.021   3.913   7.368  0.8104 -0.7898  0.5491
  432MOL0     O56900   7.899   3.854   7.386  0.1674 -0.2534  0.2998
  432MOL0     C56901   7.796   3.938   7.432 -0.2799 -0.6436 -0.7216
  432MOL0     C56902   7.655   3.910   7.381 -0.4806 -0.7421  0.5430
  432MOL0     C56903   7.560   3.949   7.498  0.4847 -0.2684  0.4806
  432MOL0     C56904   7.415   3.928   7.460  0.0521  0.7266 -0.1639
  432MOL0     C56905   7.322   4.002   7.561  0.5242  0.4333  0.5763
  432MOL0     C56906   7.181   3.993   7.518 -0.0814 -0.3089 -1.6395
  432MOL0     C56907   7.105   4.103   7.601  0.4127 -0.2475 -0.3926
  432MOL0     C56908   6.967   4.130   7.552  1.0160 -0.3140  0.7036
  432MOL0     N56909   6.884   4.007   7.574  0.5334 -0.5690  0.6662
  432MOL0     C56910   6.870   3.905   7.481  0.4072  0.0754 -0.1921
  432MOL0     C56911   6.805   3.800   7.545 -0.0833  0.0844 -0.6098
  432MOL0     C56912   6.785   3.662   7.497 -0.0971  0.1581  0.5938
  432MOL0     C56913   6.635   3.624   7.500  0.9183  0.5934 -0.3099
  432MOL0     C56914   6.604   3.517   7.388 -0.5693 -0.9699 -1.2491
  432MOL0     C56915   6.469   3.459   7.418 -0.2466 -0.2666  0.7715
  432MOL0     O56916   6.439   3.367   7.315  0.8227  0.4309 -0.2108
  432MOL0     C56917   6.308   3.335   7.278 -0.5045 -0.5669  0.7204
  432MOL0     C56918   6.290   3.243   7.173 -0.7084 -0.2991  0.4481
  432MOL0     C56919   6.162   3.204   7.132 -0.1532 -0.1489  0.6938
  432MOL0     C56920   6.048   3.249   7.205  0.2308 -0.6676  0.1820
  432MOL0     C56921   5.914   3.230   7.150  0.1948 -0.5504 -0.2007
  432MOL0     O56922   5.894   3.154   7.030 -0.4911 -0.6515 -0.6770
  432MOL0     C56923   5.762   3.119   6.985  0.6414  0.0041  0.3541
  432MOL0     C56924   5.647   3.198   6.973 -0.3927  0.2390 -0.1840
  432MOL0     C56925   5.534   3.142   6.919  0.5660  0.3213  0.3665
  432MOL0     C56926   5.528   3.017   6.854 -0.0978  0.6561 -1.0277
  432MOL0     O56927   5.403   2.991   6.804 -0.0116  0.2259 -0.2117
  432MOL0     C56928   5.372   2.881   6.712 -0.6024  0.1945 -0.5340
  432MOL0     C56929   5.240   2.904   6.657 -0.1059  0.8168 -0.1355
  432MOL0     C56930   5.139   2.844   6.758  0.0532 -0.6860 -0.6775
  432MOL0     C56931   4.998   2.845   6.698 -0.2449  0.0540 -0.5864
  432MOL0     C56932   4.939   2.988   6.696  0.5347  0.7495 -0.9700
  432MOL0     C56933   4.792   2.985   6.658  0.2627  0.3228  0.5481
  432MOL0     C56934   4.720   3.122   6.663 -0.4526 -0.4810  0.3289
  432MOL0     C56935   4.670   3.148   6.810 -0.4214 -0.9174  0.4357
  432MOL0    Cl56936   4.528   3.054   6.848 -0.4024 -0.1242  0.0094
  432MOL0     C56937   5.649   2.950   6.827  0.3885 -1.0933  0.4431
  432MOL0     C56938   5.766   2.999   6.898 -0.1819 -0.3557 -0.1413
  432MOL0     O56939   5.823   3.280   7.214 -0.5963  0.2289 -0.2606
  432MOL0     C56940   6.070   3.325   7.316  0.3661 -1.0342 -1.3224
  432MOL0     C56941   6.197   3.382   7.345  1.0004 -0.9348  0.2216
  432MOL0     N56942   6.789   3.844   7.684  0.3313  0.4056  0.1876
  432MOL0     N56943   6.823   3.962   7.692 -0.1301 -0.2888  0.6348
  432MOL0     C56944   8.051   4.016   7.276 -0.7969 -0.6148  0.0027
  432MOL0     C56945   8.179   4.066   7.265 -0.8786 -0.3773 -0.2146
  432MOL0     C56946   8.577   4.214   7.312  1.3046  0.2303  0.5443
  432MOL0     C56947   8.620   4.341   7.349 -0.0267 -0.0590  0.5459
  432MOL0     C56948   8.756   4.376   7.333  0.4634  0.8941 -0.7234
  432MOL0     C56949   8.844   4.293   7.264 -0.9358  0.7187 -0.2855
  432MOL0     O56950   8.979   4.316   7.241  0.8500  0.0161  0.0294
  432MOL0     C56951   9.047   4.416   7.306 -0.1962 -1.2355  0.1654
  432MOL0     C56952   9.187   4.432   7.240  0.7617 -1.2246  0.6119
  432MOL0     C56953   9.282   4.510   7.328 -0.3586 -0.9594  0.6204
  432MOL0     C56954   9.412   4.565   7.263  0.4776  0.1162 -0.6771
  432MOL0     C56955   9.396   4.651   7.148 -0.1842 -0.4563 -1.0917
  432MOL0     C56956   9.410   4.727   7.053  0.3253  0.1849  0.0876
  432MOL0     C56957   8.798   4.168   7.226  0.3120 -0.3816 -0.3900
  432MOL0     C56958   8.668   4.124   7.241 -1.1354 -0.3349 -0.2377
  432MOL0     H56959   8.331   3.867   7.510 -0.6653 -1.7109  0.2147
  432MOL0     H56960   8.106   3.784   7.512 -0.1777  0.9464  0.9455
  432MOL0     H56961   7.819   4.038   7.394 -0.8944 -0.4651 -0.6314
  432MOL0     H56962   7.797   3.941   7.541 -1.5367  3.3048 -0.6542
  432MOL0     H56963   7.645   3.804   7.354  0.7201 -0.3370 -1.8084
  432MOL0     H56964   7.637   3.972   7.292  0.4710 -1.3456 -0.0905
  432MOL0     H56965   7.570   4.058   7.501 -1.2052 -0.0907  1.0276
  432MOL0     H56966   7.582   3.896   7.591 -3.2214  0.2351  1.8201
  432MOL0     H56967   7.403   3.961   7.356 -0.0095  0.5391 -0.2159
  432MOL0     H56968   7.403   3.820   7.468  1.0932  0.7311  1.9498
  432MOL0     H56969   7.353   4.105   7.579 -0.0395  0.5400  0.9857
  432MOL0     H56970   7.329   3.937   7.649  0.5557 -1.2939 -0.6510
  432MOL0     H56971   7.127   3.900   7.535 -4.7126  2.5418  1.3522
  432MOL0     H56972   7.178   4.012   7.410 -2.3498 -1.6032 -1.8770
  432MOL0     H56973   7.101   4.064   7.703  1.8923  0.7139  0.0598
  432MOL0     H56974   7.161   4.197   7.594 -1.6939  1.0893 -0.4612
  432MOL0     H56975   6.971   4.161   7.447 -0.6903  0.5187  0.8448
  432MOL0     H56976   6.925   4.216   7.605  1.5045  0.0401  0.5283
  432MOL0     H56977   6.887   3.902   7.374  1.0417 -0.5315 -0.0839
  432MOL0     H56978   6.832   3.589   7.564  0.6926 -0.2617 -0.3932
  432MOL0     H56979   6.826   3.640   7.398  0.6971  0.8102  0.7718
  432MOL0     H56980   6.576   3.712   7.477  0.3307 -0.1093 -1.5379
  432MOL0     H56981   6.609   3.586   7.600 -1.2860 -0.4020 -1.2019
  432MOL0     H56982   6.595   3.565   7.290 -2.2441  1.6396  0.0718
  432MOL0     H56983   6.677   3.436   7.392  1.2177  0.6178  0.4802
  432MOL0     H56984   6.398   3.541   7.407 -1.4212 -1.5844 -2.9717
  432MOL0     H56985   6.467   3.412   7.517  0.8987 -0.8786  0.5276
  432MOL0     H56986   6.377   3.198   7.125 -0.9790 -0.9900  0.5842
  432MOL0     H56987   6.162   3.154   7.036 -2.0053 -2.3444  1.7352
  432MOL0     H56988   5.634   3.296   7.017  0.1858 -0.9467  2.8944
  432MOL0     H56989   5.448   3.207   6.923  2.0754  2.3694  1.3983
  432MOL0     H56990   5.388   2.785   6.762  0.9602  0.3124 -0.7501
  432MOL0     H56991   5.441   2.881   6.626 -0.9623  2.0506 -0.8534
  432MOL0     H56992   5.234   2.855   6.560  0.5999  2.5152 -1.0698
  432MOL0     H56993   5.228   3.012   6.649 -0.2624  1.0332  2.2390
  432MOL0     H56994   5.142   2.895   6.854  1.5084 -0.2408 -0.9251
  432MOL0     H56995   5.177   2.743   6.778 -1.3875 -2.0748 -4.1314
  432MOL0     H56996   5.010   2.799   6.599 -0.7395  1.3580 -1.2769
  432MOL0     H56997   4.933   2.788   6.765 -1.0318  2.2793  0.6375
  432MOL0     H56998   5.004   3.058   6.642  0.9858  2.3890  1.4950
  432MOL0     H56999   4.942   3.028   6.798  3.8096 -0.7135 -0.3538
  432MOL0     H57000   4.738   2.912   6.718  0.4727 -0.8064 -0.5970
  432MOL0     H57001   4.787   2.939   6.559 -0.6224  0.5579  0.4749
  432MOL0     H57002   4.786   3.206   6.636 -1.1075 -0.2440 -0.6142
  432MOL0     H57003   4.637   3.125   6.592 -0.3936 -1.5421  0.2101
  432MOL0     H57004   4.641   3.253   6.822  1.8409 -0.3460  1.4392
  432MOL0     H57005   4.748   3.128   6.885  3.5024  5.7449 -1.0352
  432MOL0     H57006   5.645   2.854   6.777  0.6062 -0.1717 -1.4285
  432MOL0     H57007   5.866   2.957   6.895 -1.1334 -2.9846  1.3219
  432MOL0     H57008   5.985   3.347   7.380  1.1602 -2.6044  0.3187
  432MOL0     H57009   6.209   3.445   7.432 -3.4766  2.3062 -1.1574
  432MOL0     H57010   7.974   4.063   7.216 -0.2298  2.4636  1.4805
  432MOL0     H57011   8.193   4.160   7.213 -0.2953  0.1044  0.7933
  432MOL0     H57012   8.554   4.415   7.393  0.1083 -1.3740  3.1103
  432MOL0     H57013   8.793   4.466   7.381  0.5998 -0.0077  0.9471
  432MOL0     H57014   9.063   4.388   7.411  3.0956  0.5796  0.2912
  432MOL0     H57015   8.992   4.511   7.305  2.3177  0.3121 -0.8034
  432MOL0     H57016   9.220   4.328   7.227 -2.1985 -2.2326  0.4310
  432MOL0     H57017   9.173   4.486   7.147 -1.9504  0.0806  1.6531
  432MOL0     H57018   9.301   4.459   7.423  2.3733  0.0408  0.6783
  432MOL0     H57019   9.213   4.590   7.356 -3.5376 -2.9328 -0.9729
  432MOL0     H57020   9.454   4.627   7.344  1.9283 -0.9389 -0.5815
  432MOL0     H57021   9.481   4.487   7.229  1.6234  0.9392 -0.3015
  432MOL0     H57022   9.434   4.799   6.978  1.4768 -0.4188 -0.1474
  432MOL0     H57023   8.871   4.110   7.171  3.7597 -0.2384  3.5510
  432MOL0     H57024   8.645   4.028   7.196 -1.4864 -0.0811 -0.6095
  433MOL0     O57025   0.761   7.540   4.753 -0.8812  0.4935 -0.3723
  433MOL0     C57026   0.764   7.485   4.644  0.4433  0.4288  1.5611
  433MOL0     O57027   0.649   7.465   4.561 -0.9450 -0.0721 -0.3750
  433MOL0     C57028   0.531   7.453   4.628 -0.6000 -0.1288 -0.0271
  433MOL0     C57029   0.489   7.329   4.675 -0.1879  1.0131  0.4535
  433MOL0     C57030   0.372   7.322   4.751  0.1119  0.5809  0.1392
  433MOL0     C57031   0.289   7.429   4.764  0.8067 -0.0618 -0.6644
  433MOL0     O57032   0.167   7.408   4.822 -0.4383 -0.2514 -0.3952
  433MOL0     C57033   0.058   7.483   4.773 -0.0847 -0.7411  0.5548
  433MOL0     C57034  -0.071   7.444   4.840 -0.6827 -0.0194 -0.6323
  433MOL0     C57035  -0.190   7.468   4.738  0.0478  0.1233 -0.6061
  433MOL0     C57036  -0.313   7.396   4.793  0.5172 -0.4264  0.0050
  433MOL0     C57037  -0.438   7.470   4.743  0.0964  1.5713 -0.4589
  433MOL0     C57038  -0.568   7.420   4.813  0.3614  0.0432 -0.7980
  433MOL0     C57039  -0.620   7.287   4.776 -0.7683  0.9852 -0.1434
  433MOL0     C57040  -0.680   7.276   4.638  0.8015 -0.1289 -0.2831
  433MOL0     N57041  -0.825   7.314   4.640 -0.1121  0.6211  0.5271
  433MOL0     C57042  -0.917   7.217   4.646  0.1514  0.5295  0.1721
  433MOL0     C57043  -1.031   7.287   4.637  0.1409 -0.3195 -0.6516
  433MOL0     C57044  -1.160   7.217   4.652  1.2051  0.4644  0.0037
  433MOL0     C57045  -1.230   7.227   4.520 -0.3426 -0.3628 -0.3323
  433MOL0     C57046  -1.373   7.178   4.521 -0.8091 -0.0798  0.5998
  433MOL0     C57047  -1.432   7.176   4.374 -1.2622  0.2020 -0.0494
  433MOL0     O57048  -1.568   7.124   4.372 -0.2404 -0.1088 -0.0395
  433MOL0     C57049  -1.677   7.197   4.389 -0.3204  1.1440  0.5820
  433MOL0     C57050  -1.800   7.129   4.419  0.1839 -0.9250  0.3011
  433MOL0     C57051  -1.920   7.202   4.450 -0.7691  0.9550  0.0712
  433MOL0     C57052  -1.923   7.340   4.439  0.3913 -0.4532 -0.8375
  433MOL0     C57053  -2.047   7.424   4.456 -0.9872  0.3811  0.6813
  433MOL0     O57054  -2.022   7.562   4.455  0.0380  0.4379 -0.3854
  433MOL0     C57055  -2.126   7.647   4.503  0.4442  0.5962  0.5595
  433MOL0     C57056  -2.119   7.687   4.636  0.7183  0.6123 -0.0180
  433MOL0     C57057  -2.211   7.784   4.682 -0.5808  0.4321  0.0160
  433MOL0     C57058  -2.301   7.834   4.593 -0.5633  0.2039 -0.1818
  433MOL0     O57059  -2.388   7.938   4.624  0.3468 -0.4411  0.1943
  433MOL0     C57060  -2.438   7.961   4.760 -0.6358  0.5431  0.7493
  433MOL0     C57061  -2.534   7.856   4.811 -0.7110 -0.2610  0.7820
  433MOL0     C57062  -2.569   7.872   4.962 -0.4704 -0.9315  0.6670
  433MOL0     C57063  -2.654   7.762   5.019  0.0243 -0.4809 -1.0644
  433MOL0     C57064  -2.769   7.728   4.921  0.3180 -0.1027  0.5189
  433MOL0     C57065  -2.865   7.635   5.001 -0.0124 -0.3883  0.2668
  433MOL0     C57066  -3.002   7.618   4.936  0.0121  0.3187 -0.1557
  433MOL0     C57067  -2.990   7.545   4.798 -0.0158  0.1484 -1.4860
  433MOL0    Cl57068  -3.129   7.498   4.726 -0.6440  0.0374  0.2480
  433MOL0     C57069  -2.291   7.798   4.462 -0.1539  0.5365  0.0214
  433MOL0     C57070  -2.204   7.704   4.408  0.2613  1.2717 -0.2966
  433MOL0     O57071  -2.153   7.360   4.461 -0.2159  0.0731 -0.4398
  433MOL0     C57072  -1.805   7.401   4.414 -0.7230  0.1489 -0.6074
  433MOL0     C57073  -1.684   7.337   4.387  0.3935  0.1851 -0.1894
  433MOL0     N57074  -1.013   7.423   4.628  0.3311  0.6464 -0.3271
  433MOL0     N57075  -0.886   7.435   4.651  0.7277  0.3433 -0.3357
  433MOL0     C57076   0.329   7.552   4.715  0.8901  0.9030  0.6857
  433MOL0     C57077   0.461   7.568   4.657  0.3141  0.7123 -0.1362
  433MOL0     C57078   0.893   7.447   4.587  0.1907 -0.5796 -1.2336
  433MOL0     C57079   1.007   7.498   4.659 -0.0296  0.7505 -0.1454
  433MOL0     C57080   1.131   7.491   4.592  0.3501  0.1025  0.4907
  433MOL0     C57081   1.151   7.412   4.473  0.1880  0.4861 -0.0543
  433MOL0     O57082   1.266   7.400   4.408  0.3069  0.5046  0.3276
  433MOL0     C57083   1.359   7.507   4.404 -0.0297 -0.4499 -0.2452
  433MOL0     C57084   1.451   7.490   4.522 -0.0591 -0.1138  0.3417
  433MOL0     C57085   1.563   7.392   4.494 -0.0810  0.1845 -0.0285
  433MOL0     C57086   1.677   7.440   4.407 -0.0053  0.0090  0.0007
  433MOL0     C57087   1.776   7.339   4.389  0.0733  0.7081  0.1483
  433MOL0     C57088   1.852   7.248   4.358 -0.7118 -1.1192 -0.5140
  433MOL0     C57089   1.042   7.348   4.419  0.0750 -0.2818 -0.3342
  433MOL0     C57090   0.913   7.367   4.474  0.6336  0.1884 -0.0046
  433MOL0     H57091   0.555   7.246   4.652  1.5509  2.4308  0.1628
  433MOL0     H57092   0.339   7.221   4.775  1.3675  0.1747  0.2573
  433MOL0     H57093   0.052   7.465   4.665  2.0447  1.8394 -0.0940
  433MOL0     H57094   0.068   7.588   4.800  0.7334 -0.9693  1.1747
  433MOL0     H57095  -0.089   7.488   4.938 -0.1294  2.4229 -1.5671
  433MOL0     H57096  -0.066   7.336   4.860  0.8424  0.3277  1.1934
  433MOL0     H57097  -0.173   7.450   4.632  2.0122 -2.7779  0.0918
  433MOL0     H57098  -0.218   7.574   4.743 -0.8913 -0.1454  0.2456
  433MOL0     H57099  -0.317   7.288   4.772  4.0420 -0.3974 -1.5526
  433MOL0     H57100  -0.315   7.424   4.899 -0.9166  2.5808 -0.7056
  433MOL0     H57101  -0.455   7.455   4.636 -3.4662 -1.5196  0.3191
  433MOL0     H57102  -0.434   7.578   4.754  1.2273  1.8355 -2.8373
  433MOL0     H57103  -0.645   7.498   4.810 -2.3841 -2.4627 -0.0937
  433MOL0     H57104  -0.543   7.413   4.919  0.5080 -0.4163 -0.8593
  433MOL0     H57105  -0.546   7.209   4.796 -1.0990  0.6211 -0.3006
  433MOL0     H57106  -0.700   7.278   4.851  1.0342  0.4863  1.7950
  433MOL0     H57107  -0.663   7.170   4.615  0.2218 -0.7682  1.9099
  433MOL0     H57108  -0.626   7.338   4.567  2.9552 -1.1998  0.3308
  433MOL0     H57109  -0.888   7.112   4.644  2.0105  1.0045  0.1063
  433MOL0     H57110  -1.213   7.273   4.729  0.7659  1.3943 -0.9459
  433MOL0     H57111  -1.148   7.112   4.679  2.0755  0.9256  1.5039
  433MOL0     H57112  -1.175   7.181   4.438  0.8451  0.3538  0.0440
  433MOL0     H57113  -1.245   7.332   4.492 -0.7776 -0.3281  0.0065
  433MOL0     H57114  -1.364   7.075   4.556  1.6731 -1.0789 -2.5587
  433MOL0     H57115  -1.441   7.244   4.577 -2.0392  0.4565 -1.4232
  433MOL0     H57116  -1.372   7.116   4.306 -0.7645  2.1376 -1.3845
  433MOL0     H57117  -1.426   7.279   4.337  1.8072  0.7675  1.6213
  433MOL0     H57118  -1.797   7.021   4.425  0.2487 -0.9533 -0.1788
  433MOL0     H57119  -2.002   7.140   4.484  1.1767 -0.7737  1.9984
  433MOL0     H57120  -2.050   7.628   4.696  0.9559 -0.6292 -1.4658
  433MOL0     H57121  -2.223   7.828   4.781 -4.0226  0.8463 -0.4551
  433MOL0     H57122  -2.494   8.054   4.773 -0.7753  0.7590 -1.2367
  433MOL0     H57123  -2.355   7.977   4.830 -0.2880  2.2573 -0.0227
  433MOL0     H57124  -2.495   7.755   4.798 -0.6341 -0.0865 -0.5185
  433MOL0     H57125  -2.625   7.853   4.750  0.6206 -0.0455 -1.3253
  433MOL0     H57126  -2.606   7.974   4.975  2.5585  0.4431 -0.5909
  433MOL0     H57127  -2.476   7.872   5.019  0.6148  2.2147 -0.8621
  433MOL0     H57128  -2.589   7.675   5.030  2.0378  1.3127  5.1746
  433MOL0     H57129  -2.684   7.792   5.120  1.1754  1.8384 -1.3488
  433MOL0     H57130  -2.730   7.672   4.836 -0.5516 -0.6884  0.4950
  433MOL0     H57131  -2.815   7.814   4.871  0.9678 -0.7483 -1.2340
  433MOL0     H57132  -2.883   7.684   5.097 -2.5082 -1.8209  0.6327
  433MOL0     H57133  -2.814   7.543   5.031  0.8211  0.2587  0.8528
  433MOL0     H57134  -3.071   7.560   4.998 -1.5732 -0.8795 -2.8504
  433MOL0     H57135  -3.054   7.713   4.922 -0.8910 -0.3907 -1.8675
  433MOL0     H57136  -2.933   7.452   4.808 -2.0974 -1.1918 -1.6728
  433MOL0     H57137  -2.925   7.610   4.737  0.8874 -1.1539 -1.9600
  433MOL0     H57138  -2.349   7.850   4.387  0.5441  0.0977 -0.8512
  433MOL0     H57139  -2.203   7.683   4.302  1.5714 -0.8091  0.0621
  433MOL0     H57140  -1.802   7.509   4.420 -0.4875  0.1062  0.0934
  433MOL0     H57141  -1.595   7.398   4.374  0.0347  0.6624 -0.4448
  433MOL0     H57142   0.261   7.636   4.719 -1.4154 -0.8159 -0.3943
  433MOL0     H57143   0.500   7.667   4.635 -0.7455  1.1708  0.0264
  433MOL0     H57144   1.009   7.556   4.751  3.2345  2.2999 -1.0291
  433MOL0     H57145   1.212   7.551   4.632  0.3283 -0.9702  2.2739
  433MOL0     H57146   1.324   7.609   4.415 -0.6604 -0.5104 -1.5496
  433MOL0     H57147   1.422   7.510   4.314  0.5752 -0.8358  0.1494
  433MOL0     H57148   1.495   7.586   4.547 -1.9903  0.2048  2.8892
  433MOL0     H57149   1.407   7.464   4.619 -0.7760  3.4546  1.0905
  433MOL0     H57150   1.516   7.301   4.455 -1.6121 -0.2897  2.6310
  433MOL0     H57151   1.620   7.361   4.582  1.8115  3.7161  0.1664
  433MOL0     H57152   1.635   7.456   4.307 -2.1612 -4.7303 -0.1339
  433MOL0     H57153   1.719   7.526   4.461  0.4574  0.4143 -0.9692
  433MOL0     H57154   1.939   7.188   4.342  0.8006  1.2015 -1.7174
  433MOL0     H57155   1.053   7.281   4.333 -3.4047 -1.2057 -0.2207
  433MOL0     H57156   0.826   7.319   4.432 -0.0574  0.7465  0.7588
  434MOL0     O57157   3.841   8.809   6.480 -0.2889 -0.9547  0.0705
  434MOL0     C57158   3.909   8.914   6.487 -0.9458 -0.9528  0.1711
  434MOL0     O57159   3.884   9.021   6.565  0.4053 -0.0887  0.3962
  434MOL0     C57160   3.771   9.011   6.640 -0.7426  0.0953 -0.9088
  434MOL0     C57161   3.648   9.047   6.591  0.6338 -0.4258  1.0707
  434MOL0     C57162   3.532   9.044   6.671 -0.2563 -0.0158  0.3628
  434MOL0     C57163   3.538   9.017   6.806  0.5020 -0.6455  0.2176
  434MOL0     O57164   3.410   9.002   6.858 -0.5107 -0.3147 -0.4478
  434MOL0     C57165   3.400   9.051   7.000  0.4629 -0.5409  0.1212
  434MOL0     C57166   3.248   9.076   7.046  0.2443 -0.1436  0.7276
  434MOL0     C57167   3.183   9.183   6.963  0.8343  0.4710  0.0112
  434MOL0     C57168   3.127   9.120   6.843 -0.0349 -0.2578  0.4226
  434MOL0     C57169   3.035   9.201   6.770  1.0163  0.0356  0.0249
  434MOL0     C57170   2.975   9.128   6.636 -0.5578  0.4323 -0.2472
  434MOL0     C57171   2.896   9.000   6.655  0.1469  0.1059 -0.1688
  434MOL0     C57172   2.771   9.024   6.743 -0.0394 -0.7254  0.3842
  434MOL0     N57173   2.646   9.051   6.673  0.0767 -0.6595 -0.5648
  434MOL0     C57174   2.557   9.133   6.733 -0.3315  0.5531 -0.8001
  434MOL0     C57175   2.449   9.107   6.659 -0.7365 -0.7266  0.1102
  434MOL0     C57176   2.308   9.134   6.680 -0.7691  0.4784 -0.5981
  434MOL0     C57177   2.258   9.273   6.648  0.4208 -0.1560 -0.4918
  434MOL0     C57178   2.208   9.262   6.506  0.1064 -0.4796 -0.4127
  434MOL0     C57179   2.152   9.397   6.458  0.7655  0.0356  0.3420
  434MOL0     O57180   2.076   9.382   6.333  0.1311 -0.1425  0.2258
  434MOL0     C57181   1.948   9.336   6.331 -0.1172  0.0101  0.3757
  434MOL0     C57182   1.881   9.336   6.209  0.1239  0.0262 -0.1011
  434MOL0     C57183   1.747   9.302   6.185 -0.5314 -0.7714 -0.2341
  434MOL0     C57184   1.673   9.244   6.297 -0.2682  0.4243  0.4720
  434MOL0     C57185   1.532   9.207   6.281  0.7847  0.2651 -0.0564
  434MOL0     O57186   1.480   9.228   6.154 -0.2804  0.2205  0.6971
  434MOL0     C57187   1.342   9.202   6.130 -0.7066  0.1821 -0.1847
  434MOL0     C57188   1.300   9.062   6.128  0.3605 -0.2811 -0.0378
  434MOL0     C57189   1.167   9.031   6.093  0.5450  0.6874 -0.0678
  434MOL0     C57190   1.073   9.141   6.063  0.0633  0.7175 -0.4755
  434MOL0     O57191   0.943   9.115   6.035  0.6260 -0.6732 -0.7967
  434MOL0     C57192   0.880   8.989   6.055 -0.1858 -1.0444 -1.2089
  434MOL0     C57193   0.734   8.975   6.028  0.3353  0.2152 -0.2107
  434MOL0     C57194   0.694   9.013   5.884 -0.6570 -0.7762 -0.4302
  434MOL0     C57195   0.568   9.090   5.889  0.0978 -0.2165  0.0012
  434MOL0     C57196   0.515   9.098   5.746  0.6774  0.1825  0.4134
  434MOL0     C57197   0.376   9.171   5.743  0.4764 -0.4408  0.7790
  434MOL0     C57198   0.297   9.152   5.613 -0.0037  0.6606  0.4940
  434MOL0     C57199   0.155   9.212   5.608  0.2876  0.3462 -0.7750
  434MOL0    Cl57200   0.043   9.142   5.480 -0.3135  0.1083  0.1667
  434MOL0     C57201   1.116   9.272   6.078 -0.0907 -0.1270 -0.1669
  434MOL0     C57202   1.249   9.300   6.105  0.0787 -1.0248 -0.8550
  434MOL0     O57203   1.463   9.182   6.382 -0.6824 -0.6014  0.6768
  434MOL0     C57204   1.741   9.234   6.423  0.7886  0.7083  0.9135
  434MOL0     C57205   1.872   9.283   6.440 -0.2020 -0.1097  0.4123
  434MOL0     N57206   2.478   9.013   6.559 -0.4773 -0.1058 -0.1705
  434MOL0     N57207   2.603   9.003   6.558  1.0011  0.3536 -0.0692
  434MOL0     C57208   3.662   8.981   6.857  0.8108  0.5228 -0.1822
  434MOL0     C57209   3.778   8.978   6.775  0.2080 -0.2048  0.3390
  434MOL0     C57210   4.051   8.906   6.439 -0.8976 -0.2659  1.1744
  434MOL0     C57211   4.088   8.828   6.337 -0.9801  1.3356  0.1660
  434MOL0     C57212   4.225   8.801   6.310  0.4429  0.8984 -0.2756
  434MOL0     C57213   4.318   8.849   6.387 -0.2913 -0.1462  0.6053
  434MOL0     O57214   4.452   8.827   6.359 -0.1455  0.5511 -0.4099
  434MOL0     C57215   4.541   8.824   6.476  0.3444  0.2965  0.2090
  434MOL0     C57216   4.674   8.753   6.446 -0.7417 -0.6565  0.5387
  434MOL0     C57217   4.749   8.730   6.580  1.3575  0.1582  1.0049
  434MOL0     C57218   4.683   8.607   6.653 -0.0216 -0.0403  0.6498
  434MOL0     C57219   4.755   8.576   6.778 -0.7692 -0.3050  0.6779
  434MOL0     C57220   4.825   8.540   6.866  0.0707 -0.1212  0.0521
  434MOL0     C57221   4.285   8.936   6.493  0.3060  0.7179 -0.1573
  434MOL0     C57222   4.149   8.959   6.523 -0.0153  0.3323 -0.8793
  434MOL0     H57223   3.644   9.084   6.489 -2.1966  1.9001  1.8826
  434MOL0     H57224   3.435   9.064   6.626 -0.8741 -1.6693  0.8880
  434MOL0     H57225   3.449   9.147   7.017 -0.5238 -0.0226  0.0868
  434MOL0     H57226   3.439   8.971   7.064 -1.3550 -2.5894 -1.1727
  434MOL0     H57227   3.238   9.113   7.148  0.6814  0.9654  0.3851
  434MOL0     H57228   3.192   8.982   7.036 -0.3149  0.1744  0.8533
  434MOL0     H57229   3.251   9.264   6.939  0.5914  0.8035  0.4383
  434MOL0     H57230   3.103   9.219   7.028  1.1529 -0.7667  1.1251
  434MOL0     H57231   3.210   9.115   6.772  2.2941  4.7990  2.2839
  434MOL0     H57232   3.084   9.022   6.864 -0.6291 -0.7341 -2.6006
  434MOL0     H57233   3.097   9.284   6.736  1.6272 -0.2760  0.3645
  434MOL0     H57234   2.955   9.243   6.832  1.0039  2.7268 -1.6515
  434MOL0     H57235   3.062   9.106   6.573 -1.0022 -2.7547  0.1097
  434MOL0     H57236   2.908   9.203   6.592 -2.6414 -0.8877  0.5557
  434MOL0     H57237   2.874   8.956   6.558 -2.2371 -3.6485  1.8607
  434MOL0     H57238   2.960   8.918   6.690  0.0454 -0.6139 -1.6022
  434MOL0     H57239   2.793   9.103   6.816  1.9465  0.8353 -1.7415
  434MOL0     H57240   2.751   8.936   6.804 -2.0960  1.5358  3.2715
  434MOL0     H57241   2.560   9.185   6.828  2.4127 -1.9237  0.6239
  434MOL0     H57242   2.280   9.128   6.785 -2.3354  3.2911 -0.7518
  434MOL0     H57243   2.253   9.054   6.629  1.0730 -1.2985  0.0879
  434MOL0     H57244   2.336   9.349   6.659  0.7109 -0.7127  1.6108
  434MOL0     H57245   2.174   9.313   6.705  1.7915  2.7158 -0.3163
  434MOL0     H57246   2.293   9.231   6.445 -1.9850 -0.5257 -3.4940
  434MOL0     H57247   2.128   9.187   6.503  1.0346 -1.7558  2.5646
  434MOL0     H57248   2.227   9.469   6.426 -0.2669  0.0174 -2.4238
  434MOL0     H57249   2.094   9.445   6.537  2.2267  0.1120  1.4123
  434MOL0     H57250   1.944   9.368   6.126  1.9064 -1.2667  0.6700
  434MOL0     H57251   1.696   9.316   6.090 -2.4895  0.1854  0.9000
  434MOL0     H57252   1.374   8.989   6.160  3.4962  1.8990 -1.8517
  434MOL0     H57253   1.126   8.931   6.101 -0.2665  1.0922  1.1926
  434MOL0     H57254   0.899   8.975   6.162  0.2818  1.2643 -0.9255
  434MOL0     H57255   0.927   8.906   6.002  0.9651 -2.0692  1.2252
  434MOL0     H57256   0.684   9.045   6.096 -1.7430 -0.0154 -1.4248
  434MOL0     H57257   0.694   8.874   6.035 -0.8490  0.5932 -1.0542
  434MOL0     H57258   0.681   8.915   5.837  0.0786 -1.3706  0.5490
  434MOL0     H57259   0.773   9.066   5.830 -1.7121 -0.4603 -1.6991
  434MOL0     H57260   0.489   9.040   5.945 -2.6740  3.4968 -0.2373
  434MOL0     H57261   0.568   9.188   5.937 -2.1935 -1.3707  2.5968
  434MOL0     H57262   0.493   8.997   5.710 -2.7569  1.3176 -1.0609
  434MOL0     H57263   0.583   9.150   5.676  1.4352  0.6460  1.4712
  434MOL0     H57264   0.379   9.279   5.757 -0.5243 -0.3105  0.0822
  434MOL0     H57265   0.321   9.127   5.826  1.1101  0.9996  1.9946
  434MOL0     H57266   0.363   9.183   5.531 -0.1143  2.8996  1.1862
  434MOL0     H57267   0.278   9.045   5.608  1.4442  0.4227 -0.8889
  434MOL0     H57268   0.153   9.320   5.620  0.3730  0.0995  1.9973
  434MOL0     H57269   0.106   9.167   5.695  0.6191 -1.3504 -1.4215
  434MOL0     H57270   1.037   9.348   6.075 -1.5445 -1.1202  4.3459
  434MOL0     H57271   1.285   9.402   6.096 -0.0688 -0.7202  1.4159
  434MOL0     H57272   1.673   9.199   6.500 -0.0358  0.1222 -0.0501
  434MOL0     H57273   1.918   9.279   6.538  0.5781 -0.3901  0.0481
  434MOL0     H57274   3.675   8.960   6.963  0.0471 -2.2660 -0.5479
  434MOL0     H57275   3.867   8.951   6.831  0.3006 -2.1497 -0.6688
  434MOL0     H57276   4.005   8.774   6.293 -1.5138  1.5400  0.9020
  434MOL0     H57277   4.249   8.732   6.230  1.9665  2.9231 -1.6461
  434MOL0     H57278   4.486   8.773   6.556  2.2367 -2.5693 -0.1874
  434MOL0     H57279   4.572   8.922   6.512  1.4671  1.1411 -2.7354
  434MOL0     H57280   4.667   8.658   6.392 -2.2913  0.8480 -2.0803
  434MOL0     H57281   4.723   8.828   6.384 -2.2652  0.9946  1.2585
  434MOL0     H57282   4.739   8.818   6.644 -0.4639 -0.4435  1.5965
  434MOL0     H57283   4.855   8.714   6.557  1.5407  2.6613 -0.1773
  434MOL0     H57284   4.580   8.624   6.684 -0.6634 -0.1013 -1.3050
  434MOL0     H57285   4.682   8.520   6.586 -1.4852  1.0163 -0.7822
  434MOL0     H57286   4.884   8.506   6.950  0.2273 -2.3489 -0.8820
  434MOL0     H57287   4.358   8.970   6.566 -0.5731 -0.1316  1.1669
  434MOL0     H57288   4.135   9.019   6.612  0.0509 -1.0293  0.0835
  435MOL0     O57289   9.666   6.967  11.010  0.7169 -0.7773 -0.3156
  435MOL0     C57290   9.592   6.883  10.969  0.4031  0.1800 -0.6599
  435MOL0     O57291   9.458   6.894  10.950 -0.0794 -0.1209  0.4983
  435MOL0     C57292   9.381   6.982  11.011  0.7899 -0.8450  0.5184
  435MOL0     C57293   9.400   7.119  10.994 -0.0035 -0.0667  0.2883
  435MOL0     C57294   9.317   7.222  11.048 -0.2310  0.4565  0.1351
  435MOL0     C57295   9.212   7.187  11.128  0.3298 -0.7766 -0.0009
  435MOL0     O57296   9.142   7.290  11.190 -0.6954  0.0656  0.1162
  435MOL0     C57297   9.073   7.247  11.316  0.8965 -0.6194  0.2165
  435MOL0     C57298   8.920   7.221  11.290 -0.3742  0.5309 -0.1274
  435MOL0     C57299   8.838   7.341  11.246  0.1613 -0.5519  0.2491
  435MOL0     C57300   8.860   7.469  11.326  0.5777  0.5827 -0.8433
  435MOL0     C57301   8.732   7.557  11.329  0.3376 -0.0522 -0.8616
  435MOL0     C57302   8.683   7.584  11.190  0.5794 -0.3005  0.6026
  435MOL0     C57303   8.595   7.703  11.191 -0.1936  0.9275 -0.3766
  435MOL0     C57304   8.471   7.704  11.281  0.4909 -0.1398  0.1601
  435MOL0     N57305   8.407   7.834  11.282 -0.2615 -0.2153  0.2665
  435MOL0     C57306   8.280   7.855  11.233  0.3820  0.6150  0.4652
  435MOL0     C57307   8.243   7.976  11.273 -0.2139 -0.6553  0.0561
  435MOL0     C57308   8.101   8.017  11.265 -0.3338 -0.3757  0.2537
  435MOL0     C57309   8.011   7.947  11.363 -0.2653 -0.2500  0.7974
  435MOL0     C57310   7.866   7.987  11.334 -0.5088  0.2841 -0.0083
  435MOL0     C57311   7.810   7.950  11.193  0.6232 -0.3990 -0.1910
  435MOL0     O57312   7.681   7.876  11.205 -0.7285 -0.5279 -0.1639
  435MOL0     C57313   7.563   7.949  11.211 -0.0833  0.1316  0.6443
  435MOL0     C57314   7.440   7.877  11.213  0.2585 -0.1178  0.2833
  435MOL0     C57315   7.316   7.944  11.214 -0.4926  0.3367 -0.3221
  435MOL0     C57316   7.316   8.081  11.249  0.5194 -0.1663 -0.5409
  435MOL0     C57317   7.186   8.155  11.276 -0.5718 -0.9617  0.2609
  435MOL0     O57318   7.073   8.079  11.251 -0.1124  0.2871  0.5099
  435MOL0     C57319   6.958   8.148  11.272 -0.4525  0.3252  1.0250
  435MOL0     C57320   6.908   8.139  11.399  0.6359 -0.7578  0.0526
  435MOL0     C57321   6.791   8.211  11.440  0.7223  0.3709  0.6997
  435MOL0     C57322   6.724   8.289  11.344 -0.7658 -0.1983 -0.4733
  435MOL0     O57323   6.611   8.351  11.377  0.3693 -0.0647 -0.0619
  435MOL0     C57324   6.599   8.390  11.523 -0.4330  0.7741 -0.0650
  435MOL0     C57325   6.505   8.512  11.552 -0.8552 -0.1559 -0.7179
  435MOL0     C57326   6.577   8.650  11.526  0.4669 -0.3096 -1.3040
  435MOL0     C57327   6.564   8.707  11.382  0.5791  0.0963  0.3550
  435MOL0     C57328   6.423   8.736  11.346  0.1343 -0.4360  0.1427
  435MOL0     C57329   6.325   8.798  11.453  0.4268 -0.5503 -0.9057
  435MOL0     C57330   6.190   8.833  11.389 -0.6029  0.2902  0.4102
  435MOL0     C57331   6.087   8.876  11.488  0.1932 -0.2078 -0.0358
  435MOL0    Cl57332   6.028   8.743  11.606 -0.1863 -0.5473 -0.4248
  435MOL0     C57333   6.767   8.295  11.207 -1.1602 -0.1514  0.0573
  435MOL0     C57334   6.884   8.214  11.173 -0.1697  0.2447  0.1787
  435MOL0     O57335   7.191   8.274  11.321 -0.2353 -0.6200  0.0040
  435MOL0     C57336   7.439   8.148  11.244 -0.3067 -0.1461 -0.3738
  435MOL0     C57337   7.560   8.084  11.231 -0.1788 -0.9279 -0.4449
  435MOL0     N57338   8.339   8.027  11.366 -0.1450 -0.0805 -0.4035
  435MOL0     N57339   8.438   7.945  11.355  0.2110 -0.6570 -0.1973
  435MOL0     C57340   9.172   7.049  11.124  0.1037 -0.3695 -1.0540
  435MOL0     C57341   9.255   6.945  11.068 -0.8124 -0.5361 -0.5137
  435MOL0     C57342   9.649   6.757  10.939 -0.2760 -0.0425  0.6064
  435MOL0     C57343   9.789   6.735  10.955 -0.1951  0.6741  0.0272
  435MOL0     C57344   9.859   6.613  10.935  0.5114  0.4490  0.0180
  435MOL0     C57345   9.777   6.502  10.905  0.3083  0.0791  0.4860
  435MOL0     O57346   9.830   6.373  10.880  0.0591  0.0183  0.5889
  435MOL0     C57347   9.963   6.382  10.815 -1.1470 -0.0448 -0.2825
  435MOL0     C57348  10.013   6.241  10.766  0.3488 -0.4756 -0.8734
  435MOL0     C57349  10.140   6.186  10.825 -0.0953 -0.1724  0.3611
  435MOL0     C57350  10.165   6.044  10.773 -0.4378 -0.7538  0.3889
  435MOL0     C57351  10.270   5.986  10.844  0.8005 -0.7259  0.1100
  435MOL0     C57352  10.353   5.914  10.889 -0.5016 -0.0787  0.0294
  435MOL0     C57353   9.633   6.523  10.902 -0.0026  0.0619 -0.8382
  435MOL0     C57354   9.570   6.649  10.898 -0.3270 -0.4904 -0.2684
  435MOL0     H57355   9.478   7.169  10.938 -0.8089  1.4477  0.4632
  435MOL0     H57356   9.343   7.327  11.045  3.6055 -0.3501 -1.5257
  435MOL0     H57357   9.082   7.316  11.401  0.8035 -1.1473  0.6619
  435MOL0     H57358   9.115   7.153  11.353 -1.8448 -2.4221 -0.9114
  435MOL0     H57359   8.886   7.187  11.388 -2.5099 -2.0546 -1.6204
  435MOL0     H57360   8.921   7.130  11.228  3.2562  2.3707 -3.1910
  435MOL0     H57361   8.732   7.315  11.247 -0.4405  1.5717 -1.1255
  435MOL0     H57362   8.865   7.371  11.144  2.1329 -0.4388  0.7644
  435MOL0     H57363   8.890   7.440  11.427 -1.4759  1.0672 -0.0495
  435MOL0     H57364   8.944   7.516  11.274  2.6563 -0.9012  0.9777
  435MOL0     H57365   8.752   7.651  11.381 -3.0711 -0.2940  1.1858
  435MOL0     H57366   8.649   7.521  11.392  0.1423  2.6982  0.6267
  435MOL0     H57367   8.642   7.495  11.141  0.2822  0.2579 -0.1778
  435MOL0     H57368   8.762   7.615  11.121 -1.5597 -0.9105 -2.3451
  435MOL0     H57369   8.645   7.797  11.218 -0.8357  0.9581  0.7623
  435MOL0     H57370   8.557   7.714  11.089 -1.7217 -2.4280 -0.3049
  435MOL0     H57371   8.503   7.685  11.384  1.6231 -0.3227 -0.2181
  435MOL0     H57372   8.402   7.626  11.247 -0.3751 -0.5368  2.6234
  435MOL0     H57373   8.215   7.795  11.170  0.2998  0.3765  0.7703
  435MOL0     H57374   8.072   7.990  11.163  0.3260 -4.1608  0.9092
  435MOL0     H57375   8.096   8.126  11.257  0.4802 -0.3428  0.1013
  435MOL0     H57376   8.035   7.992  11.459  3.4535  0.8418 -0.4512
  435MOL0     H57377   8.027   7.840  11.379  1.5891 -0.2068 -0.4127
  435MOL0     H57378   7.802   7.945  11.413 -0.1440  0.4671  0.3895
  435MOL0     H57379   7.840   8.091  11.355 -3.6668 -0.6469  1.4053
  435MOL0     H57380   7.886   7.886  11.147  0.0594 -0.5999 -0.8535
  435MOL0     H57381   7.800   8.046  11.143  0.2282 -0.1700  0.3193
  435MOL0     H57382   7.449   7.770  11.198 -0.5127  0.0196 -1.4191
  435MOL0     H57383   7.218   7.898  11.208 -0.9182  1.2839 -0.8907
  435MOL0     H57384   6.977   8.090  11.468  2.1452 -2.2824 -2.3900
  435MOL0     H57385   6.745   8.192  11.537 -0.4422 -0.4272  0.0050
  435MOL0     H57386   6.694   8.421  11.565 -0.5744  0.1069  0.7871
  435MOL0     H57387   6.561   8.307  11.583 -4.6826  0.1233 -3.1318
  435MOL0     H57388   6.484   8.503  11.659  5.6177  1.3641  1.1225
  435MOL0     H57389   6.410   8.503  11.500 -1.3314  2.7078 -0.4656
  435MOL0     H57390   6.686   8.636  11.527  0.1153 -3.8893 -0.8685
  435MOL0     H57391   6.544   8.705  11.615 -0.8262 -0.4796 -1.6652
  435MOL0     H57392   6.629   8.794  11.366 -0.7530  0.9269 -0.7330
  435MOL0     H57393   6.605   8.639  11.306  0.6105  0.5564 -0.0501
  435MOL0     H57394   6.379   8.646  11.303  0.8684  0.1218 -1.8563
  435MOL0     H57395   6.429   8.810  11.265  3.4399  2.2548  2.5126
  435MOL0     H57396   6.363   8.890  11.497 -0.9322  1.1530 -3.0771
  435MOL0     H57397   6.294   8.729  11.532  0.6616  1.7132  1.2792
  435MOL0     H57398   6.198   8.910  11.313  2.0509 -1.0972 -0.8638
  435MOL0     H57399   6.152   8.745  11.336 -3.3317  1.6971 -0.1080
  435MOL0     H57400   5.999   8.909  11.431  0.5960  2.3455  0.7097
  435MOL0     H57401   6.115   8.967  11.541 -1.6095  1.0484 -1.1206
  435MOL0     H57402   6.714   8.354  11.132 -1.6237 -1.6805 -0.8648
  435MOL0     H57403   6.926   8.232  11.074  1.8701  3.3426  1.4590
  435MOL0     H57404   7.447   8.256  11.256 -1.2186 -0.1707  0.6094
  435MOL0     H57405   7.654   8.136  11.242  0.5238 -2.1706 -0.3859
  435MOL0     H57406   9.082   7.013  11.172  1.9711 -0.6989  2.4963
  435MOL0     H57407   9.245   6.839  11.089  0.4998 -0.1449  2.8360
  435MOL0     H57408   9.841   6.822  10.993 -0.9607  0.4893  1.5511
  435MOL0     H57409   9.968   6.608  10.935  0.5443  0.4730  1.6201
  435MOL0     H57410  10.031   6.418  10.893  0.4454 -0.2488 -1.5180
  435MOL0     H57411   9.961   6.459  10.738  0.3806 -1.9458 -2.3677
  435MOL0     H57412   9.941   6.171  10.809  0.4753  0.9864  2.0439
  435MOL0     H57413  10.006   6.239  10.657 -1.8944  2.7127 -0.9350
  435MOL0     H57414  10.148   6.182  10.934  0.8147 -0.5128  0.2925
  435MOL0     H57415  10.219   6.254  10.791 -0.6787  0.7000  0.6994
  435MOL0     H57416  10.081   5.974  10.777 -1.5786  0.2446 -2.7370
  435MOL0     H57417  10.197   6.049  10.668 -0.8156  2.8115  0.2940
  435MOL0     H57418  10.430   5.852  10.931 -0.9546 -1.4861 -1.1444
  435MOL0     H57419   9.583   6.426  10.900 -0.2966 -0.1811  4.4870
  435MOL0     H57420   9.464   6.652  10.877  0.0814 -0.2530 -2.6593
  436MOL0     O57421  10.643   2.437   1.282  0.3921 -0.3277 -0.5474
  436MOL0     C57422  10.666   2.453   1.166 -0.2234  0.5380  0.1776
  436MOL0     O57423  10.570   2.477   1.072 -0.0991  0.4243  0.2381
  436MOL0     C57424  10.440   2.461   1.097 -0.8592 -0.2741 -0.0925
  436MOL0     C57425  10.370   2.518   1.207 -0.1731 -0.5403  0.6959
  436MOL0     C57426  10.233   2.492   1.223 -0.4503 -0.5976 -0.4328
  436MOL0     C57427  10.162   2.412   1.130 -0.5733 -0.4929  0.0672
  436MOL0     O57428  10.034   2.386   1.165  0.3626 -0.3101 -0.7355
  436MOL0     C57429   9.951   2.293   1.078  0.5201 -0.2978 -0.4573
  436MOL0     C57430   9.826   2.266   1.147  0.0426 -0.4621 -0.4686
  436MOL0     C57431   9.731   2.382   1.155 -0.6188  0.3810  0.9872
  436MOL0     C57432   9.591   2.351   1.207  0.7876 -0.7530 -0.8883
  436MOL0     C57433   9.514   2.244   1.134  0.2936  1.1322  0.0729
  436MOL0     C57434   9.370   2.233   1.174 -0.5472  0.0375  0.7266
  436MOL0     C57435   9.285   2.126   1.096 -0.7935  0.0285  0.1364
  436MOL0     C57436   9.311   1.982   1.159 -0.2047  0.4462 -0.2573
  436MOL0     N57437   9.215   1.877   1.112  0.0972 -0.4388 -0.2916
  436MOL0     C57438   9.087   1.850   1.150  0.1698 -0.0833 -0.2858
  436MOL0     C57439   9.056   1.734   1.086  1.0780 -1.0506 -1.1418
  436MOL0     C57440   8.948   1.645   1.132 -0.1027  0.1627 -1.1349
  436MOL0     C57441   8.801   1.704   1.119 -0.1097 -0.3052 -0.1630
  436MOL0     C57442   8.706   1.629   1.215  0.0534 -0.5788 -0.1549
  436MOL0     C57443   8.558   1.663   1.202  0.1543 -0.2176  0.5402
  436MOL0     O57444   8.484   1.582   1.294  0.8180  0.3215 -0.7513
  436MOL0     C57445   8.346   1.580   1.277 -0.2617  0.4828  0.6455
  436MOL0     C57446   8.270   1.511   1.380  0.1936 -0.8421  0.6869
  436MOL0     C57447   8.135   1.527   1.401 -0.5142  0.2352  0.3545
  436MOL0     C57448   8.058   1.590   1.303  0.0918  0.8148 -0.6185
  436MOL0     C57449   7.915   1.594   1.321  0.0155 -0.0542  0.5527
  436MOL0     O57450   7.858   1.565   1.449  0.4304  0.1307  0.4696
  436MOL0     C57451   7.721   1.580   1.482  0.0894 -0.7017  0.5024
  436MOL0     C57452   7.638   1.686   1.439 -0.0228  0.1641  0.1489
  436MOL0     C57453   7.498   1.687   1.474  0.2870 -0.3863 -0.4024
  436MOL0     C57454   7.440   1.585   1.556  0.3784 -0.0972 -0.9212
  436MOL0     O57455   7.313   1.601   1.612 -0.7668 -0.5668  0.1791
  436MOL0     C57456   7.261   1.487   1.672  0.8311 -0.5567  0.6901
  436MOL0     C57457   7.107   1.498   1.664 -0.1363  0.5613  0.4387
  436MOL0     C57458   7.051   1.359   1.725  0.9259  0.2935 -0.1028
  436MOL0     C57459   6.902   1.356   1.722  0.1590 -0.6744  0.1422
  436MOL0     C57460   6.850   1.278   1.602  0.2205 -0.2146 -0.3344
  436MOL0     C57461   6.696   1.307   1.575 -0.1268 -0.0278  0.0153
  436MOL0     C57462   6.612   1.299   1.702  0.3713 -0.6282  0.9402
  436MOL0     C57463   6.463   1.302   1.674 -0.3858  0.0004 -0.4657
  436MOL0    Cl57464   6.426   1.426   1.553 -0.0567 -0.1584 -0.3718
  436MOL0     C57465   7.529   1.477   1.587  0.4448  0.7865 -0.0573
  436MOL0     C57466   7.663   1.481   1.556 -0.9126  0.0720 -1.0729
  436MOL0     O57467   7.844   1.623   1.223 -0.3088 -0.2082  0.9223
  436MOL0     C57468   8.126   1.637   1.193  1.0063  0.4201 -0.3579
  436MOL0     C57469   8.266   1.646   1.181  0.1783 -0.3553  0.2526
  436MOL0     N57470   9.159   1.705   1.007  1.1399  0.1532 -0.3373
  436MOL0     N57471   9.256   1.791   1.019  0.3022  0.1375 -0.4182
  436MOL0     C57472  10.237   2.374   1.007 -0.0707 -0.1468 -0.4622
  436MOL0     C57473  10.376   2.392   1.007 -0.4313 -0.6035 -0.2157
  436MOL0     C57474  10.811   2.458   1.138  0.4057  1.0231 -0.3596
  436MOL0     C57475  10.907   2.396   1.229 -0.5341  0.3716 -0.0841
  436MOL0     C57476  11.036   2.382   1.185  0.1189  0.3233 -0.2861
  436MOL0     C57477  11.078   2.440   1.061  0.8379  0.3134 -0.7514
  436MOL0     O57478  11.210   2.418   1.046 -0.5897  0.3536  0.0227
  436MOL0     C57479  11.275   2.467   0.931 -0.1865  0.0833  0.8731
  436MOL0     C57480  11.425   2.463   0.950  0.5125  0.0515 -0.7437
  436MOL0     C57481  11.502   2.531   0.836 -0.3935  0.6854 -0.2377
  436MOL0     C57482  11.492   2.685   0.841 -0.3393 -0.0708 -0.1907
  436MOL0     C57483  11.594   2.742   0.757 -0.6355 -0.8461 -0.0412
  436MOL0     C57484  11.681   2.790   0.682 -0.8021  0.2918  0.0929
  436MOL0     C57485  10.987   2.499   0.978  0.9080 -0.2287  0.1075
  436MOL0     C57486  10.856   2.515   1.015  0.1582 -0.8516  0.1825
  436MOL0     H57487  10.428   2.587   1.267 -0.2136  0.2993 -0.2033
  436MOL0     H57488  10.175   2.519   1.311 -0.2695 -1.6695  0.0413
  436MOL0     H57489  10.008   2.201   1.061 -0.6852 -0.9731 -0.9122
  436MOL0     H57490   9.922   2.338   0.983 -2.7974 -0.7233  0.2389
  436MOL0     H57491   9.851   2.230   1.247 -0.8053 -1.1178 -0.4802
  436MOL0     H57492   9.772   2.193   1.086 -1.9913  1.2209 -0.7729
  436MOL0     H57493   9.729   2.433   1.058 -0.5588  2.3672  1.9826
  436MOL0     H57494   9.784   2.450   1.223  3.5366  0.3691 -1.8247
  436MOL0     H57495   9.596   2.319   1.312 -1.4902  3.9356  0.9109
  436MOL0     H57496   9.547   2.450   1.211 -1.8928 -1.8871  0.2435
  436MOL0     H57497   9.559   2.144   1.142  0.8757  1.4428  0.8036
  436MOL0     H57498   9.534   2.263   1.028 -2.2409 -0.1831 -0.7235
  436MOL0     H57499   9.333   2.334   1.158  1.6109  1.1240  2.0383
  436MOL0     H57500   9.366   2.211   1.281  1.4126  0.0764  0.8496
  436MOL0     H57501   9.180   2.153   1.107 -0.8246  1.3041 -2.4936
  436MOL0     H57502   9.301   2.133   0.988 -1.6316  1.8323  0.0965
  436MOL0     H57503   9.303   1.991   1.268  1.9443 -0.1494 -0.0055
  436MOL0     H57504   9.414   1.956   1.132  0.1875  3.6430 -2.3713
  436MOL0     H57505   9.036   1.898   1.233  1.4674  0.7985  0.0328
  436MOL0     H57506   8.972   1.635   1.238  2.8410  0.3659 -1.6921
  436MOL0     H57507   8.966   1.542   1.100 -0.2096  0.0780 -0.9249
  436MOL0     H57508   8.775   1.706   1.013  1.5705 -1.2467 -0.6287
  436MOL0     H57509   8.785   1.806   1.154 -1.3970  0.0610 -1.6959
  436MOL0     H57510   8.722   1.522   1.199 -0.3053 -0.8299  1.0301
  436MOL0     H57511   8.743   1.664   1.312 -0.1493  1.4403 -0.7719
  436MOL0     H57512   8.534   1.640   1.098  2.4684 -0.9097  0.0847
  436MOL0     H57513   8.538   1.768   1.224 -3.0364 -1.2302  3.2504
  436MOL0     H57514   8.311   1.430   1.439  0.3478 -2.1369 -1.0832
  436MOL0     H57515   8.101   1.475   1.490  0.6258 -2.0602 -0.4700
  436MOL0     H57516   7.680   1.769   1.382 -2.4284  1.7155  0.4781
  436MOL0     H57517   7.442   1.773   1.440 -0.1853 -1.4304 -2.4307
  436MOL0     H57518   7.289   1.473   1.777 -0.3474 -0.3528  1.0360
  436MOL0     H57519   7.290   1.400   1.612  0.8268  0.0671 -0.2247
  436MOL0     H57520   7.089   1.498   1.556  4.4718 -2.9717 -0.6602
  436MOL0     H57521   7.062   1.581   1.718  0.9425  0.9454  0.7704
  436MOL0     H57522   7.079   1.349   1.830  1.4510  1.0653 -0.1661
  436MOL0     H57523   7.098   1.276   1.671  0.3010  0.5457 -1.0548
  436MOL0     H57524   6.853   1.315   1.811 -2.0326  1.4472  0.0213
  436MOL0     H57525   6.869   1.460   1.717  1.8503  0.1037  2.9255
  436MOL0     H57526   6.876   1.173   1.613  3.4801  0.5217 -0.0135
  436MOL0     H57527   6.901   1.315   1.513  1.0987 -1.5206 -0.3912
  436MOL0     H57528   6.663   1.235   1.500 -0.2492  0.4930 -0.4387
  436MOL0     H57529   6.691   1.405   1.526  0.7989  0.5548  1.0428
  436MOL0     H57530   6.625   1.201   1.751 -2.3643 -0.6655  1.7250
  436MOL0     H57531   6.644   1.389   1.755 -1.6735  1.3086 -0.9654
  436MOL0     H57532   6.418   1.322   1.771 -1.0236  1.6972 -1.0857
  436MOL0     H57533   6.432   1.201   1.644  2.1089 -0.7117 -0.9034
  436MOL0     H57534   7.514   1.390   1.649 -0.1237 -0.4755 -1.8617
  436MOL0     H57535   7.730   1.400   1.586 -0.3199  1.1225  0.5636
  436MOL0     H57536   8.066   1.693   1.122  2.8653  1.3027 -1.2993
  436MOL0     H57537   8.300   1.709   1.099 -2.2525 -0.7040 -1.1353
  436MOL0     H57538  10.191   2.316   0.928 -1.1068  2.7694 -2.1459
  436MOL0     H57539  10.424   2.351   0.919 -1.8126 -0.6429 -0.9825
  436MOL0     H57540  10.872   2.365   1.327  0.0060  3.1074  1.0546
  436MOL0     H57541  11.109   2.341   1.254 -0.0871  1.1479  0.4534
  436MOL0     H57542  11.252   2.572   0.913  2.7865  0.4158 -1.7256
  436MOL0     H57543  11.234   2.408   0.848 -0.1091  0.9366  0.2198
  436MOL0     H57544  11.445   2.522   1.040  0.2601  4.0334 -3.0465
  436MOL0     H57545  11.470   2.364   0.959  1.2336  0.5499  1.9760
  436MOL0     H57546  11.465   2.498   0.738 -0.2278 -1.8149  0.4637
  436MOL0     H57547  11.609   2.508   0.840 -0.5719  0.0359  1.5706
  436MOL0     H57548  11.395   2.716   0.802 -0.0632  2.1515  0.7338
  436MOL0     H57549  11.507   2.726   0.941  1.6344  1.5082 -1.0678
  436MOL0     H57550  11.752   2.831   0.614  2.3673 -1.1385  2.3244
  436MOL0     H57551  10.998   2.556   0.886 -1.0472 -1.9969 -1.3312
  436MOL0     H57552  10.791   2.571   0.949  0.4504  0.4144  0.9228
  437MOL0     O57553   7.217  10.696  10.239 -0.6914 -0.0889 -0.2822
  437MOL0     C57554   7.222  10.606  10.155  0.0046 -0.8220  0.3160
  437MOL0     O57555   7.116  10.547  10.087  0.3907  0.0659  1.0932
  437MOL0     C57556   6.986  10.589  10.095 -0.9871  0.0078 -0.1285
  437MOL0     C57557   6.892  10.488  10.105  1.1975  0.2732 -0.6577
  437MOL0     C57558   6.756  10.530  10.119  0.6612  0.0494 -0.6763
  437MOL0     C57559   6.711  10.666  10.101 -1.1141 -0.0627 -0.6881
  437MOL0     O57560   6.578  10.708  10.105 -0.3791  0.3422 -0.0072
  437MOL0     C57561   6.490  10.640  10.014  0.2440 -0.2455  0.2431
  437MOL0     C57562   6.349  10.690  10.023  1.1017 -0.0089  0.0134
  437MOL0     C57563   6.249  10.653   9.900 -1.3641  0.6517 -0.1040
  437MOL0     C57564   6.309  10.658   9.757 -1.0154 -0.3309  0.6260
  437MOL0     C57565   6.371  10.525   9.701  0.1973 -0.0653  0.5255
  437MOL0     C57566   6.411  10.527   9.554  0.4041 -0.5856  0.0459
  437MOL0     C57567   6.294  10.565   9.451 -0.0246  0.2187  0.2827
  437MOL0     C57568   6.331  10.533   9.306  0.5358 -0.5969 -0.6249
  437MOL0     N57569   6.458  10.589   9.258 -0.3214  0.2148  0.1511
  437MOL0     C57570   6.504  10.716   9.287 -0.4549  0.0717 -0.4041
  437MOL0     C57571   6.621  10.732   9.215 -0.0678  0.5723 -0.5235
  437MOL0     C57572   6.708  10.839   9.205 -1.5418 -0.8489  0.1526
  437MOL0     C57573   6.653  10.949   9.123 -0.0819  0.9249  0.4735
  437MOL0     C57574   6.684  10.931   8.969  0.2208 -0.2141 -0.8008
  437MOL0     C57575   6.548  10.939   8.891 -0.3425  0.8766  0.9449
  437MOL0     O57576   6.476  11.060   8.908 -0.0243  0.5398 -0.1756
  437MOL0     C57577   6.345  11.055   8.863 -0.5815  0.3453  0.3366
  437MOL0     C57578   6.291  10.963   8.772 -0.5046  0.0128  0.1922
  437MOL0     C57579   6.163  10.986   8.712 -0.6179 -0.2191  0.5157
  437MOL0     C57580   6.091  11.106   8.733 -0.5998 -0.3051 -0.6712
  437MOL0     C57581   5.958  11.120   8.693  0.1638 -0.4020  0.4275
  437MOL0     O57582   5.910  11.019   8.600  0.4031 -0.4521 -0.5404
  437MOL0     C57583   5.779  11.036   8.552 -0.9336 -0.2286 -0.3267
  437MOL0     C57584   5.676  10.996   8.634  0.1133  0.2992 -0.5410
  437MOL0     C57585   5.552  10.998   8.574  0.4348 -0.2545 -0.6513
  437MOL0     C57586   5.520  11.048   8.446  0.0838  0.2254  0.5926
  437MOL0     O57587   5.389  11.055   8.408  0.1355  0.0204  0.1228
  437MOL0     C57588   5.312  10.944   8.429  0.4448  0.2930 -0.5573
  437MOL0     C57589   5.201  10.993   8.523  0.1269 -0.0519 -0.0583
  437MOL0     C57590   5.090  10.892   8.545 -0.3661  0.1126  0.2699
  437MOL0     C57591   4.959  10.946   8.617  0.0217  1.1168  0.8150
  437MOL0     C57592   4.858  10.829   8.627 -0.8988 -0.0417  0.3284
  437MOL0     C57593   4.729  10.846   8.702  0.4210 -0.2430 -0.2316
  437MOL0     C57594   4.619  10.737   8.691  0.3382 -0.1578  0.1268
  437MOL0     C57595   4.497  10.782   8.772 -0.4649 -0.8216  0.0940
  437MOL0    Cl57596   4.493  10.684   8.919 -0.0574  0.3292 -0.1572
  437MOL0     C57597   5.628  11.090   8.371  0.6195 -0.8537 -0.3073
  437MOL0     C57598   5.758  11.077   8.423 -0.3330  0.7818 -0.5759
  437MOL0     O57599   5.901  11.229   8.715  0.0163 -0.3201  0.0476
  437MOL0     C57600   6.150  11.201   8.825  0.1198 -0.1506 -0.4157
  437MOL0     C57601   6.269  11.167   8.893 -0.5413 -0.5594 -0.0025
  437MOL0     N57602   6.634  10.614   9.144 -0.0832 -0.3237  0.3217
  437MOL0     N57603   6.544  10.531   9.172  0.0872  0.2069  0.1951
  437MOL0     C57604   6.814  10.765  10.087  0.1064 -0.0153  1.0041
  437MOL0     C57605   6.946  10.726  10.084 -0.2829 -0.2210  0.1938
  437MOL0     C57606   7.354  10.545  10.123  0.8588 -0.3543  1.0621
  437MOL0     C57607   7.452  10.560  10.199 -0.0999 -0.2924 -0.8545
  437MOL0     C57608   7.575  10.494  10.184  1.1923 -0.0297 -0.9752
  437MOL0     C57609   7.592  10.399  10.084 -0.1559 -0.3666 -0.5184
  437MOL0     O57610   7.705  10.324  10.080 -0.7767  0.0031  0.2505
  437MOL0     C57611   7.722  10.238   9.961 -0.1552 -0.3983  0.5102
  437MOL0     C57612   7.861  10.189   9.975 -0.3299  0.4391 -0.2677
  437MOL0     C57613   7.924  10.111  10.106  0.9569 -0.9714  0.0406
  437MOL0     C57614   7.978  10.209  10.206  0.2125  0.2458 -0.2098
  437MOL0     C57615   8.097  10.285  10.162  0.8795  0.0048 -0.4104
  437MOL0     C57616   8.198  10.346  10.145 -0.1766 -0.5905  0.5332
  437MOL0     C57617   7.476  10.385   9.995  0.7657  0.5679 -0.7344
  437MOL0     C57618   7.359  10.456  10.012 -0.4455 -0.6866 -0.2227
  437MOL0     H57619   6.921  10.386  10.126  0.6925  0.2101 -0.2616
  437MOL0     H57620   6.676  10.461  10.142  1.7094 -1.0715 -0.3209
  437MOL0     H57621   6.490  10.531  10.014 -0.9516 -0.3301 -2.2889
  437MOL0     H57622   6.519  10.672   9.913 -0.8170 -0.8455 -0.2680
  437MOL0     H57623   6.336  10.798  10.034 -0.5509 -0.3244  1.7451
  437MOL0     H57624   6.307  10.658  10.119 -2.0959 -0.3644 -1.3860
  437MOL0     H57625   6.179  10.738   9.899  0.3519  2.2433  2.5587
  437MOL0     H57626   6.197  10.558   9.915 -0.1940 -0.8078 -3.9270
  437MOL0     H57627   6.221  10.690   9.701 -0.4121  1.6143  0.7286
  437MOL0     H57628   6.374  10.744   9.740 -2.7504  1.2206  1.5422
  437MOL0     H57629   6.302  10.441   9.715  1.2476 -1.1625 -0.6324
  437MOL0     H57630   6.451  10.488   9.766 -1.8962 -3.3563  1.4650
  437MOL0     H57631   6.459  10.430   9.535  0.4175 -0.3265 -1.2622
  437MOL0     H57632   6.492  10.600   9.542 -2.7064  2.9708 -1.0952
  437MOL0     H57633   6.206  10.505   9.474 -1.2226  0.8711 -2.1810
  437MOL0     H57634   6.268  10.669   9.470  0.6139  0.1693  1.4798
  437MOL0     H57635   6.239  10.547   9.248 -0.3752  1.4672  1.1852
  437MOL0     H57636   6.344  10.424   9.306 -0.5259 -0.7787  1.3313
  437MOL0     H57637   6.465  10.790   9.357 -0.1545  0.2812 -0.4604
  437MOL0     H57638   6.796  10.792   9.161 -1.8568 -1.6516  0.3555
  437MOL0     H57639   6.737  10.875   9.304 -2.5563 -1.8418  0.8376
  437MOL0     H57640   6.693  11.047   9.152 -2.0992  1.3427  2.0140
  437MOL0     H57641   6.544  10.953   9.133 -0.0840  0.7338  0.5357
  437MOL0     H57642   6.753  11.004   8.927  0.2589  0.0128 -0.3571
  437MOL0     H57643   6.713  10.828   8.946 -1.5413 -0.9339  0.0049
  437MOL0     H57644   6.490  10.852   8.924 -0.2627  0.1913 -0.6235
  437MOL0     H57645   6.571  10.928   8.785  0.8539  3.5922  0.8513
  437MOL0     H57646   6.337  10.866   8.756 -1.4976 -0.6717  1.4019
  437MOL0     H57647   6.117  10.908   8.652 -2.0589  1.3780 -0.5413
  437MOL0     H57648   5.681  10.953   8.734 -3.2182 -0.0672 -0.4204
  437MOL0     H57649   5.484  10.969   8.654  0.5074  0.6075 -0.2642
  437MOL0     H57650   5.367  10.862   8.476 -0.8603  0.8697  2.1930
  437MOL0     H57651   5.259  10.903   8.342 -0.7575 -3.2472  1.6176
  437MOL0     H57652   5.147  11.076   8.477 -0.3528  0.1008  0.7620
  437MOL0     H57653   5.227  11.033   8.622  2.7049  2.0381 -1.4558
  437MOL0     H57654   5.123  10.814   8.614  1.2899 -0.1838 -0.8177
  437MOL0     H57655   5.080  10.842   8.448  1.5400 -3.7027  1.8453
  437MOL0     H57656   4.994  10.979   8.715  0.5241 -0.9675  1.3783
  437MOL0     H57657   4.916  11.027   8.557 -2.7981 -0.9718 -0.2280
  437MOL0     H57658   4.909  10.738   8.658 -0.8156 -0.1851 -0.2071
  437MOL0     H57659   4.833  10.802   8.524 -0.8991  2.5247 -0.4102
  437MOL0     H57660   4.688  10.944   8.677  0.4117 -0.8047 -2.6619
  437MOL0     H57661   4.757  10.853   8.808  1.3212 -3.0380 -0.2101
  437MOL0     H57662   4.584  10.739   8.587  1.0776 -1.2219 -0.1564
  437MOL0     H57663   4.666  10.640   8.706  3.9757  1.1875 -1.3052
  437MOL0     H57664   4.401  10.765   8.721 -0.6053  0.4558 -0.0971
  437MOL0     H57665   4.511  10.881   8.816  1.2411 -0.8934 -0.2091
  437MOL0     H57666   5.605  11.127   8.271 -0.6324  1.8532  0.8748
  437MOL0     H57667   5.838  11.116   8.361 -0.3780  2.4422  0.3378
  437MOL0     H57668   6.098  11.290   8.858  1.8266  0.5256  0.5544
  437MOL0     H57669   6.315  11.238   8.960 -0.0693  0.8266 -1.7104
  437MOL0     H57670   6.797  10.869  10.064  1.8468  0.1231  0.1269
  437MOL0     H57671   7.017  10.806  10.064  0.6323 -0.9494  0.4951
  437MOL0     H57672   7.442  10.608  10.296  1.1023 -0.7665 -0.4713
  437MOL0     H57673   7.643  10.492  10.269  0.3016 -1.7499 -0.2351
  437MOL0     H57674   7.727  10.293   9.867 -0.0774 -3.9072 -1.7453
  437MOL0     H57675   7.646  10.158   9.961 -2.5261  1.7210  1.0424
  437MOL0     H57676   7.870  10.124   9.887  0.8773  0.1701  0.0339
  437MOL0     H57677   7.934  10.269   9.955 -0.2129  0.7993  1.4307
  437MOL0     H57678   8.001  10.036  10.085  0.6556 -1.5243  0.8518
  437MOL0     H57679   7.841  10.058  10.155 -0.1697  1.6675  1.1743
  437MOL0     H57680   7.899  10.278  10.236  1.5320  2.0753 -0.8023
  437MOL0     H57681   8.011  10.149  10.292  0.4619 -1.6202 -1.5374
  437MOL0     H57682   8.286  10.402  10.117  0.1354 -1.6217 -0.6319
  437MOL0     H57683   7.481  10.304   9.924 -0.9993 -0.7255  0.5192
  437MOL0     H57684   7.284  10.439   9.936  1.0161  0.4016 -1.9897
  438MOL0     O57685  11.279   9.062   2.243 -0.5547 -0.5788  0.3858
  438MOL0     C57686  11.316   8.983   2.157 -0.4036  0.0400  0.2691
  438MOL0     O57687  11.227   8.920   2.070  0.2629 -0.4346  0.0189
  438MOL0     C57688  11.093   8.935   2.077 -0.4381  0.6165  0.6742
  438MOL0     C57689  11.030   8.930   2.202  0.2954  0.2919  0.4267
  438MOL0     C57690  10.891   8.944   2.208 -0.4304 -1.0644  0.4282
  438MOL0     C57691  10.818   8.953   2.089 -0.6216 -0.1930  0.1566
  438MOL0     O57692  10.682   8.959   2.094  0.4710 -0.3762  0.8458
  438MOL0     C57693  10.590   8.957   1.981 -0.1998 -0.1491  0.5787
  438MOL0     C57694  10.461   9.010   2.027  0.1910 -0.2470 -0.0342
  438MOL0     C57695  10.341   8.954   1.952 -0.3041 -0.3733 -0.3516
  438MOL0     C57696  10.351   8.950   1.798 -0.0772 -0.2943 -0.5655
  438MOL0     C57697  10.213   8.927   1.732 -0.0761  0.0588 -0.2408
  438MOL0     C57698  10.136   8.819   1.800  0.6081 -0.2772 -0.8325
  438MOL0     C57699  10.003   8.773   1.727  0.2498  0.2067 -0.0077
  438MOL0     C57700  10.011   8.653   1.632  0.5642 -0.2128  0.4916
  438MOL0     N57701   9.881   8.652   1.566 -0.6434 -0.2970 -0.7149
  438MOL0     C57702   9.771   8.604   1.627  0.5327 -0.2124 -0.0251
  438MOL0     C57703   9.676   8.633   1.536  1.0222 -0.7196 -0.1960
  438MOL0     C57704   9.526   8.623   1.545  0.3657 -0.4247  0.3911
  438MOL0     C57705   9.471   8.497   1.604 -0.4984  0.3641  0.3005
  438MOL0     C57706   9.325   8.474   1.579 -0.0979  0.0269  0.6431
  438MOL0     C57707   9.259   8.391   1.677 -0.3468 -0.6340  0.6722
  438MOL0     O57708   9.115   8.387   1.651  0.3138  0.2332  0.1323
  438MOL0     C57709   9.023   8.292   1.699  0.6050 -1.7546  0.5168
  438MOL0     C57710   9.062   8.169   1.752  0.2749  0.0261 -0.0843
  438MOL0     C57711   8.969   8.077   1.784  0.2489 -0.3025 -0.2835
  438MOL0     C57712   8.826   8.101   1.774 -0.3697  0.3671  0.0995
  438MOL0     C57713   8.727   8.000   1.808  0.4250  0.0104 -0.0943
  438MOL0     O57714   8.776   7.886   1.866 -0.6026  1.2660  1.0766
  438MOL0     C57715   8.682   7.783   1.888 -0.8661 -0.6971 -0.3302
  438MOL0     C57716   8.579   7.812   1.980 -0.6658 -0.4592  0.0368
  438MOL0     C57717   8.469   7.722   1.993 -0.3177  0.3753  0.4333
  438MOL0     C57718   8.478   7.603   1.927 -0.3764 -0.0370 -0.6774
  438MOL0     O57719   8.370   7.521   1.949 -0.3971  0.5568 -0.1949
  438MOL0     C57720   8.277   7.538   1.842 -0.0695 -0.3896  0.5358
  438MOL0     C57721   8.157   7.446   1.867 -0.6028  0.6178 -0.1999
  438MOL0     C57722   8.095   7.447   2.008 -0.0484  0.1776 -0.2077
  438MOL0     C57723   8.007   7.329   2.022  0.0325  0.6278  0.3575
  438MOL0     C57724   7.877   7.335   1.951  0.4143  0.1660 -0.9155
  438MOL0     C57725   7.772   7.227   2.002  0.9878  0.5056  0.0858
  438MOL0     C57726   7.633   7.247   1.924 -0.8609  0.3159  0.4755
  438MOL0     C57727   7.537   7.152   1.973 -0.5962  0.6628  0.1817
  438MOL0    Cl57728   7.491   7.232   2.135 -0.2635 -0.2194  0.4520
  438MOL0     C57729   8.590   7.561   1.853 -0.2272 -0.2410 -0.3610
  438MOL0     C57730   8.694   7.657   1.835  0.3045  0.5742  0.4983
  438MOL0     O57731   8.608   8.014   1.773  0.1054  0.5786 -0.1430
  438MOL0     C57732   8.784   8.224   1.726  0.0567 -0.1522  0.3331
  438MOL0     C57733   8.885   8.322   1.679 -0.0389  0.0671  0.1448
  438MOL0     N57734   9.724   8.695   1.429 -0.0436  0.8149 -0.5776
  438MOL0     N57735   9.851   8.706   1.444  0.8169  0.9474  0.1211
  438MOL0     C57736  10.887   8.946   1.967 -1.0168 -0.1493 -1.0396
  438MOL0     C57737  11.022   8.931   1.959 -1.2138 -0.1917  0.7323
  438MOL0     C57738  11.459   8.984   2.132 -0.3208 -0.5780 -0.1109
  438MOL0     C57739  11.544   9.069   2.197 -0.3703 -0.2310  0.6530
  438MOL0     C57740  11.684   9.064   2.178 -0.0397 -0.9022  0.6420
  438MOL0     C57741  11.740   8.973   2.093 -0.4083  0.6516 -0.8184
  438MOL0     O57742  11.874   8.953   2.067  0.0196 -0.6228  0.3708
  438MOL0     C57743  11.973   8.934   2.175  0.0766 -0.1795 -0.1962
  438MOL0     C57744  12.088   8.838   2.126  0.4911  0.0340 -0.5129
  438MOL0     C57745  12.216   8.925   2.107 -0.1683  0.6499  0.1896
  438MOL0     C57746  12.266   8.973   2.241 -1.2338  0.9327 -0.6738
  438MOL0     C57747  12.339   8.859   2.304 -0.5716  0.4766  0.0898
  438MOL0     C57748  12.402   8.758   2.347 -0.4396 -0.3738 -0.0930
  438MOL0     C57749  11.660   8.886   2.025  0.9623 -0.1330 -0.4027
  438MOL0     C57750  11.522   8.894   2.043  0.0065 -0.9019  0.1922
  438MOL0     H57751  11.099   8.929   2.285  1.7896  1.5024 -0.7473
  438MOL0     H57752  10.842   8.956   2.304 -0.2876 -1.0588  0.5002
  438MOL0     H57753  10.572   8.858   1.938 -2.1689  0.8995 -1.2257
  438MOL0     H57754  10.620   9.031   1.906 -0.3873  2.4183  2.8742
  438MOL0     H57755  10.466   9.119   2.024 -2.6615 -0.0219  0.6003
  438MOL0     H57756  10.443   8.992   2.133 -1.0388  2.4158  0.2938
  438MOL0     H57757  10.255   9.015   1.980  0.5875  0.8414 -0.1783
  438MOL0     H57758  10.328   8.853   1.992  1.5690 -1.2294 -1.7257
  438MOL0     H57759  10.397   9.040   1.758 -1.3921  0.2098 -0.9860
  438MOL0     H57760  10.415   8.867   1.765 -1.5458 -1.3935 -0.7786
  438MOL0     H57761  10.223   8.918   1.623 -1.3053 -1.2845 -0.2705
  438MOL0     H57762  10.156   9.020   1.743 -0.9941 -0.3065 -1.6431
  438MOL0     H57763  10.106   8.845   1.902  0.5047 -1.2181 -0.6163
  438MOL0     H57764  10.199   8.732   1.818  1.9969  0.5269 -1.6055
  438MOL0     H57765   9.941   8.737   1.809  1.1764  0.4811  0.8415
  438MOL0     H57766   9.964   8.859   1.673  1.0845 -0.4235 -1.6827
  438MOL0     H57767  10.028   8.556   1.679 -2.0667 -2.2281 -2.3026
  438MOL0     H57768  10.077   8.676   1.548 -1.0636 -0.2244 -0.8572
  438MOL0     H57769   9.765   8.563   1.727  0.0677 -1.6664 -0.6183
  438MOL0     H57770   9.487   8.660   1.449 -0.8577  1.0728  1.4069
  438MOL0     H57771   9.499   8.706   1.611  2.2733 -0.7713  1.6750
  438MOL0     H57772   9.486   8.503   1.712 -0.8060 -1.6918  0.4947
  438MOL0     H57773   9.525   8.414   1.556  2.8592  1.1236  2.4463
  438MOL0     H57774   9.271   8.568   1.567  3.2543  1.8656 -1.5438
  438MOL0     H57775   9.317   8.435   1.477  1.7979 -0.4352  0.6206
  438MOL0     H57776   9.277   8.436   1.775 -0.6871 -1.2034  1.0040
  438MOL0     H57777   9.302   8.292   1.660  2.2942  0.7745 -1.8400
  438MOL0     H57778   9.167   8.145   1.760  0.0236 -1.7280 -1.4222
  438MOL0     H57779   9.007   7.995   1.845  1.1949 -0.0336 -0.5028
  438MOL0     H57780   8.569   7.903   2.039  1.2917 -1.1136  1.4698
  438MOL0     H57781   8.377   7.736   2.049 -1.9111  1.7068 -2.3247
  438MOL0     H57782   8.321   7.511   1.745 -2.2095  0.7020 -0.8379
  438MOL0     H57783   8.249   7.644   1.839 -0.3580 -0.4769 -0.2935
  438MOL0     H57784   8.169   7.348   1.820 -1.6385 -0.2717  1.3208
  438MOL0     H57785   8.083   7.491   1.801 -1.6008 -0.8807 -0.1358
  438MOL0     H57786   8.031   7.533   2.026  0.3074  0.3811  0.0928
  438MOL0     H57787   8.170   7.427   2.085 -0.8540 -1.6469  0.1519
  438MOL0     H57788   8.056   7.235   1.994  1.4175  1.4415 -0.0172
  438MOL0     H57789   7.980   7.320   2.128  2.4136  1.0865  1.0636
  438MOL0     H57790   7.892   7.318   1.844 -1.4863 -0.3610 -1.1369
  438MOL0     H57791   7.840   7.437   1.964  2.2827  0.9130 -1.1395
  438MOL0     H57792   7.757   7.247   2.109  1.7236 -2.7572  0.9056
  438MOL0     H57793   7.798   7.123   1.979 -1.0471  0.4201 -2.2165
  438MOL0     H57794   7.589   7.345   1.906 -1.7615 -0.6276 -3.2773
  438MOL0     H57795   7.665   7.218   1.824 -2.0017  0.1675  0.1406
  438MOL0     H57796   7.578   7.052   1.989 -1.4899  0.1020 -0.8955
  438MOL0     H57797   7.448   7.143   1.910 -0.6822  1.8315  0.1195
  438MOL0     H57798   8.595   7.464   1.805  0.8617  0.1223 -1.0189
  438MOL0     H57799   8.766   7.630   1.758  2.7589  3.0893  1.7087
  438MOL0     H57800   8.678   8.242   1.720  0.0788 -0.5086 -1.8500
  438MOL0     H57801   8.834   8.408   1.637 -2.7947 -1.7654 -0.5504
  438MOL0     H57802  10.835   8.964   1.873 -0.2759 -0.2787 -1.4858
  438MOL0     H57803  11.074   8.921   1.864 -5.4704 -0.2821 -1.8506
  438MOL0     H57804  11.509   9.139   2.272 -0.4225  0.7325 -0.2416
  438MOL0     H57805  11.751   9.139   2.220 -1.0198 -0.3064  1.1969
  438MOL0     H57806  11.930   8.884   2.262  2.3331 -0.9619  0.5284
  438MOL0     H57807  11.999   9.029   2.221 -2.8783  0.5107  0.2813
  438MOL0     H57808  12.096   8.754   2.195 -0.1334  1.0360  0.8204
  438MOL0     H57809  12.061   8.797   2.028 -2.0434  3.7789 -1.6190
  438MOL0     H57810  12.191   9.004   2.036 -3.3901 -1.5302 -1.3384
  438MOL0     H57811  12.293   8.866   2.056  1.9602  3.9069 -0.6974
  438MOL0     H57812  12.333   9.059   2.250 -1.5650  1.2427 -1.1617
  438MOL0     H57813  12.187   9.006   2.308 -0.7233  1.1753 -0.1754
  438MOL0     H57814  12.467   8.681   2.383  0.0140 -0.2499 -0.6504
  438MOL0     H57815  11.697   8.803   1.966 -0.5003  1.2878 -3.5092
  438MOL0     H57816  11.452   8.834   1.986 -0.2946  0.9328 -1.5042
  439MOL0     O57817   4.943   7.033   2.044  0.1688 -0.2183  0.3256
  439MOL0     C57818   4.975   7.155   2.054  0.4953 -0.6778  0.9062
  439MOL0     O57819   4.897   7.250   2.100  0.1500 -0.3974 -0.1639
  439MOL0     C57820   4.769   7.213   2.137  0.2310  0.7345 -0.6869
  439MOL0     C57821   4.730   7.215   2.271 -0.3059  0.0526 -0.7895
  439MOL0     C57822   4.599   7.184   2.317  0.0014  0.3763 -0.1055
  439MOL0     C57823   4.511   7.132   2.215  0.3648 -0.1608 -0.4161
  439MOL0     O57824   4.396   7.086   2.268  0.1221  0.3600  0.2758
  439MOL0     C57825   4.282   7.166   2.231  0.7129  0.5633  0.3228
  439MOL0     C57826   4.161   7.089   2.272 -0.4238  1.0461  0.1579
  439MOL0     C57827   4.032   7.169   2.259 -0.6692  0.7066  0.2054
  439MOL0     C57828   3.922   7.100   2.345  0.1408 -1.3344 -0.0867
  439MOL0     C57829   3.782   7.179   2.327  0.2031 -0.7500  0.4779
  439MOL0     C57830   3.686   7.113   2.424 -0.0300 -0.2398  0.5574
  439MOL0     C57831   3.540   7.162   2.421 -1.3853  0.6608  0.5079
  439MOL0     C57832   3.516   7.273   2.514 -0.5983 -0.4977 -0.1202
  439MOL0     N57833   3.363   7.280   2.536 -0.1858  0.7868 -0.3989
  439MOL0     C57834   3.300   7.207   2.638 -0.4794  0.1547 -0.1237
  439MOL0     C57835   3.177   7.270   2.647 -0.3754  0.5690  0.9320
  439MOL0     C57836   3.064   7.223   2.729 -0.1759 -0.0696  0.4471
  439MOL0     C57837   2.992   7.344   2.777  0.0239  0.7526  0.4710
  439MOL0     C57838   2.962   7.328   2.926 -0.0859  0.1138 -0.3729
  439MOL0     C57839   2.876   7.442   2.979 -0.1244  0.5878  0.1676
  439MOL0     O57840   2.864   7.406   3.118 -0.2598  0.5925 -0.3751
  439MOL0     C57841   2.752   7.342   3.155  1.2782 -0.2270 -0.4857
  439MOL0     C57842   2.710   7.385   3.283 -0.5422 -0.2555  0.1444
  439MOL0     C57843   2.590   7.336   3.336 -0.4228 -0.7660 -0.1701
  439MOL0     C57844   2.509   7.251   3.258 -1.1251 -1.0773 -1.0628
  439MOL0     C57845   2.391   7.186   3.327 -0.9908 -0.7839 -0.8485
  439MOL0     O57846   2.375   7.205   3.462 -0.6516 -1.1202 -0.6051
  439MOL0     C57847   2.267   7.142   3.518 -0.5505 -0.2239  0.3599
  439MOL0     C57848   2.194   7.207   3.614 -0.9706  0.3366 -0.8867
  439MOL0     C57849   2.087   7.146   3.682  0.1730 -0.1453  0.5907
  439MOL0     C57850   2.048   7.016   3.653  1.0329  0.6254  0.5919
  439MOL0     O57851   1.941   6.955   3.714  0.8469  0.5172 -0.0691
  439MOL0     C57852   1.887   6.997   3.837 -0.1301  0.0358  1.1890
  439MOL0     C57853   1.848   6.875   3.921 -0.4157 -0.4887 -1.0778
  439MOL0     C57854   1.728   6.795   3.859  0.0402 -0.7752 -0.0006
  439MOL0     C57855   1.706   6.656   3.920 -0.6454  0.1690  0.5028
  439MOL0     C57856   1.571   6.594   3.919  0.5963 -0.2280  0.3579
  439MOL0     C57857   1.477   6.646   4.025 -0.6104 -0.6597 -0.8441
  439MOL0     C57858   1.338   6.642   3.980 -0.0794 -0.9555  0.1822
  439MOL0     C57859   1.245   6.703   4.089  0.4637  0.4227 -0.5203
  439MOL0    Cl57860   1.077   6.654   4.049 -0.1821 -0.4727  0.3854
  439MOL0     C57861   2.115   6.952   3.550 -0.4526 -0.4706 -0.0073
  439MOL0     C57862   2.225   7.011   3.486 -0.1796  0.5883 -0.5947
  439MOL0     O57863   2.311   7.145   3.247 -0.0414  0.1257  0.2160
  439MOL0     C57864   2.545   7.218   3.133 -0.9709 -0.2081 -0.5992
  439MOL0     C57865   2.665   7.257   3.084  0.1592  0.1881 -0.7420
  439MOL0     N57866   3.170   7.353   2.535 -0.2955 -0.4523 -0.9805
  439MOL0     N57867   3.279   7.370   2.477  0.3187  0.9440 -0.7051
  439MOL0     C57868   4.553   7.125   2.082  0.8746 -0.4156  0.4126
  439MOL0     C57869   4.680   7.160   2.042  0.4959 -0.2071 -0.0784
  439MOL0     C57870   5.090   7.193   1.978  0.3173 -0.1800 -0.3796
  439MOL0     C57871   5.109   7.327   1.942  0.4941 -0.0505 -0.1916
  439MOL0     C57872   5.226   7.370   1.890  0.1824 -0.4725 -0.0654
  439MOL0     C57873   5.337   7.282   1.879 -0.2418 -0.8004  0.4275
  439MOL0     O57874   5.456   7.319   1.823 -0.5686 -0.7471 -0.7156
  439MOL0     C57875   5.496   7.461   1.823 -0.6077  0.6873  0.7456
  439MOL0     C57876   5.619   7.473   1.729 -0.1603 -0.1850  0.3954
  439MOL0     C57877   5.582   7.451   1.575 -0.0842 -0.8565 -0.6774
  439MOL0     C57878   5.500   7.580   1.534  0.6041 -0.1911 -0.0430
  439MOL0     C57879   5.474   7.577   1.386  0.5796 -0.2142 -0.2252
  439MOL0     C57880   5.469   7.576   1.261  0.4139  0.0316 -0.3208
  439MOL0     C57881   5.318   7.153   1.913 -0.2402 -0.0737 -0.7141
  439MOL0     C57882   5.200   7.111   1.960 -0.4785  0.0066  0.3905
  439MOL0     H57883   4.806   7.236   2.346 -0.5757  2.2303 -1.0618
  439MOL0     H57884   4.572   7.177   2.422 -0.5395 -1.4459 -0.3268
  439MOL0     H57885   4.278   7.170   2.122 -1.6454 -1.1668  0.2646
  439MOL0     H57886   4.289   7.261   2.285 -1.2616  1.5026 -0.9725
  439MOL0     H57887   4.190   7.062   2.374 -1.4129 -2.2117 -0.3179
  439MOL0     H57888   4.161   6.999   2.211  1.7875  1.1865 -0.1534
  439MOL0     H57889   3.998   7.175   2.156  0.6962  1.3476 -0.2379
  439MOL0     H57890   4.062   7.271   2.284  0.3796  1.3502 -3.1858
  439MOL0     H57891   3.910   6.993   2.329  1.8888 -1.4270 -1.0096
  439MOL0     H57892   3.945   7.125   2.449 -1.5639  2.1736 -0.3934
  439MOL0     H57893   3.738   7.164   2.228 -0.8177  0.0134  0.7890
  439MOL0     H57894   3.794   7.287   2.343 -0.0945 -0.1133 -2.9659
  439MOL0     H57895   3.724   7.123   2.526 -1.1145  0.2994  0.9311
  439MOL0     H57896   3.690   7.004   2.413  0.2969 -0.1640 -0.1764
  439MOL0     H57897   3.511   7.193   2.320  1.0414  2.0669  0.1494
  439MOL0     H57898   3.474   7.078   2.445  0.3414 -1.6574 -2.2598
  439MOL0     H57899   3.561   7.365   2.477 -1.9251 -0.5798 -2.1151
  439MOL0     H57900   3.551   7.239   2.612  2.8116 -2.0800 -1.7107
  439MOL0     H57901   3.347   7.130   2.699  0.4589  2.8067  2.7918
  439MOL0     H57902   3.093   7.165   2.817 -2.0213 -1.0698  0.4502
  439MOL0     H57903   3.001   7.160   2.665  0.3617 -2.2073  1.9115
  439MOL0     H57904   2.895   7.366   2.731  0.2471 -2.1697 -1.7076
  439MOL0     H57905   3.059   7.429   2.764  1.4313  0.0929  2.8882
  439MOL0     H57906   2.901   7.239   2.943  1.6774 -0.8777  1.1611
  439MOL0     H57907   3.052   7.324   2.989 -1.1357 -2.1526  1.1082
  439MOL0     H57908   2.779   7.440   2.929 -0.0141  0.7747 -0.0539
  439MOL0     H57909   2.940   7.527   2.954  0.9547 -0.2134  0.1768
  439MOL0     H57910   2.772   7.452   3.342  0.5215  0.5805 -1.8310
  439MOL0     H57911   2.561   7.383   3.430 -1.1526  1.6152 -1.5103
  439MOL0     H57912   2.232   7.303   3.648 -0.6947 -0.7558  2.1947
  439MOL0     H57913   2.033   7.222   3.737  1.4841  1.5961 -0.4367
  439MOL0     H57914   1.799   7.059   3.816 -0.0122  0.1433  1.0053
  439MOL0     H57915   1.959   7.061   3.889 -0.4163  2.3806 -1.0645
  439MOL0     H57916   1.827   6.913   4.022  1.0273  1.2257 -1.3714
  439MOL0     H57917   1.937   6.813   3.932  0.7556  1.2995  0.1279
  439MOL0     H57918   1.755   6.792   3.753  1.0671  3.5620 -0.0446
  439MOL0     H57919   1.639   6.857   3.876  1.4116  1.1789  0.4225
  439MOL0     H57920   1.767   6.590   3.858 -1.2389  0.6029 -0.5934
  439MOL0     H57921   1.751   6.657   4.019  3.8254 -0.7161 -1.2646
  439MOL0     H57922   1.576   6.487   3.941 -3.1022 -0.3724  1.1336
  439MOL0     H57923   1.523   6.606   3.821 -1.1866  2.2105  1.4379
  439MOL0     H57924   1.509   6.749   4.044 -0.9954 -0.5153 -0.9682
  439MOL0     H57925   1.487   6.588   4.118  2.1242 -1.2001 -1.3786
  439MOL0     H57926   1.321   6.698   3.887  0.4959  1.3347  1.3770
  439MOL0     H57927   1.313   6.537   3.965  0.4617 -0.7834 -2.5166
  439MOL0     H57928   1.263   6.811   4.087 -1.0962  0.8039  1.7428
  439MOL0     H57929   1.267   6.664   4.189 -1.6924 -2.3745 -1.0148
  439MOL0     H57930   2.081   6.854   3.521  3.3851 -2.3379  1.1367
  439MOL0     H57931   2.279   6.951   3.414  0.7079 -1.6218  1.7572
  439MOL0     H57932   2.487   7.167   3.058  1.9359  0.4602 -3.5180
  439MOL0     H57933   2.687   7.247   2.978  0.7627  1.9025 -0.8129
  439MOL0     H57934   4.481   7.105   2.003  3.1967 -0.0708 -1.9335
  439MOL0     H57935   4.713   7.155   1.938  0.9650 -2.7781  0.1467
  439MOL0     H57936   5.034   7.405   1.952 -1.6233 -1.7894 -1.5500
  439MOL0     H57937   5.237   7.472   1.854  0.5494 -1.4234 -2.8968
  439MOL0     H57938   5.521   7.502   1.922  1.0132  0.1874  0.5649
  439MOL0     H57939   5.418   7.513   1.767  1.3279  0.4087 -2.4343
  439MOL0     H57940   5.650   7.577   1.740  0.8231 -0.3719 -0.4416
  439MOL0     H57941   5.700   7.410   1.769  1.7905  0.1019 -2.7675
  439MOL0     H57942   5.529   7.357   1.556  2.0271 -2.0039 -1.2418
  439MOL0     H57943   5.671   7.445   1.511 -0.3518 -0.0393 -1.1457
  439MOL0     H57944   5.403   7.586   1.584  1.3830  0.5906  1.4331
  439MOL0     H57945   5.564   7.665   1.560  0.3340  0.7170 -2.1689
  439MOL0     H57946   5.463   7.569   1.154  0.1333 -3.1709 -0.1935
  439MOL0     H57947   5.400   7.084   1.899  2.2200  2.2185  1.2889
  439MOL0     H57948   5.190   7.012   2.004  0.8416  0.3949  1.6497
  440MOL0     O57949   6.820   7.373   6.548  0.3326 -0.6792 -0.2725
  440MOL0     C57950   6.895   7.353   6.451  0.5752 -0.3013  0.0206
  440MOL0     O57951   6.846   7.353   6.315 -0.4636  0.7042 -0.7239
  440MOL0     C57952   6.711   7.384   6.300  0.3992  0.4663  0.0843
  440MOL0     C57953   6.628   7.283   6.251  0.4142  0.5579  0.6602
  440MOL0     C57954   6.488   7.301   6.226  0.8905  0.3804 -0.3948
  440MOL0     C57955   6.434   7.425   6.252 -0.8435  1.4944  0.4115
  440MOL0     O57956   6.301   7.446   6.226 -0.1098 -0.4522  0.6213
  440MOL0     C57957   6.216   7.333   6.192 -0.2198  0.4493 -0.0125
  440MOL0     C57958   6.081   7.392   6.185  0.5210 -0.1542 -0.0274
  440MOL0     C57959   6.053   7.470   6.060 -0.2890  0.4568  0.5343
  440MOL0     C57960   5.898   7.480   6.043  0.8011  0.6059 -1.1065
  440MOL0     C57961   5.857   7.517   5.906 -0.3596 -1.0267 -0.4688
  440MOL0     C57962   5.698   7.536   5.901  0.4546  0.1710 -0.4452
  440MOL0     C57963   5.661   7.578   5.753 -0.6846 -0.4025  0.8743
  440MOL0     C57964   5.512   7.546   5.719  0.0282  0.0999  0.3316
  440MOL0     N57965   5.398   7.623   5.779  0.3764 -0.0979  1.1398
  440MOL0     C57966   5.343   7.740   5.736 -0.0016 -0.0071 -0.0600
  440MOL0     C57967   5.225   7.754   5.799  0.6297  0.1996  0.6408
  440MOL0     C57968   5.122   7.863   5.787  0.6988  0.0120 -0.5849
  440MOL0     C57969   4.973   7.813   5.775 -0.2951  0.4845 -0.2130
  440MOL0     C57970   4.961   7.684   5.686  0.5213  0.3076 -0.2444
  440MOL0     C57971   4.805   7.665   5.652 -0.1378 -0.3744 -0.2314
  440MOL0     O57972   4.783   7.579   5.537  0.0697  1.0914  0.3833
  440MOL0     C57973   4.654   7.544   5.495 -0.6098 -0.3567  0.3159
  440MOL0     C57974   4.539   7.605   5.540 -0.2557  0.1778 -0.2981
  440MOL0     C57975   4.416   7.570   5.500 -0.2578 -0.3388  0.1893
  440MOL0     C57976   4.393   7.466   5.406  0.2005  0.2860  0.6003
  440MOL0     C57977   4.259   7.438   5.347 -0.5988  0.3006  0.7879
  440MOL0     O57978   4.266   7.371   5.229 -0.6149 -0.3965 -0.0574
  440MOL0     C57979   4.159   7.326   5.155 -0.3374  0.0468 -0.3935
  440MOL0     C57980   4.024   7.312   5.203 -0.3907 -0.0202  0.2810
  440MOL0     C57981   3.929   7.251   5.126  0.3646  0.8603  0.2050
  440MOL0     C57982   3.957   7.202   5.001 -0.6251 -0.0817 -0.4523
  440MOL0     O57983   3.855   7.149   4.931 -0.2660  0.1026  0.0352
  440MOL0     C57984   3.874   7.042   4.832 -0.3066  0.5063 -0.3085
  440MOL0     C57985   3.749   6.967   4.822 -0.5909 -0.2598 -0.6166
  440MOL0     C57986   3.772   6.849   4.730  0.3942 -0.7834  0.4212
  440MOL0     C57987   3.651   6.752   4.726 -0.5964  1.1044 -0.6427
  440MOL0     C57988   3.675   6.624   4.648  0.8262  0.4428  0.4164
  440MOL0     C57989   3.551   6.534   4.639  0.3023  0.8720  0.6477
  440MOL0     C57990   3.570   6.411   4.563 -0.2103 -0.5418  0.1514
  440MOL0     C57991   3.439   6.346   4.509 -0.1785 -0.3325  0.2377
  440MOL0    Cl57992   3.327   6.319   4.654  0.2242  0.2127 -0.3959
  440MOL0     C57993   4.087   7.208   4.960 -0.7352  0.0634 -0.3769
  440MOL0     C57994   4.190   7.270   5.032  0.8044  0.8054  0.2337
  440MOL0     O57995   4.161   7.488   5.398 -0.4046 -0.0623 -0.8040
  440MOL0     C57996   4.507   7.406   5.353 -0.3846 -0.9046 -0.6167
  440MOL0     C57997   4.638   7.448   5.393  0.3991  0.3439  0.7766
  440MOL0     N57998   5.211   7.645   5.884  0.3065  0.5383 -0.5448
  440MOL0     N57999   5.318   7.571   5.876  0.9829 -0.0511  0.1053
  440MOL0     C58000   6.507   7.522   6.318 -0.3567 -1.1319  0.0151
  440MOL0     C58001   6.647   7.502   6.335 -0.1044 -0.3070  0.9683
  440MOL0     C58002   7.037   7.327   6.473  0.1130  0.2576  0.2687
  440MOL0     C58003   7.114   7.289   6.364  0.5122  0.0583  0.0220
  440MOL0     C58004   7.254   7.278   6.370  0.2896  0.0043  0.5174
  440MOL0     C58005   7.322   7.292   6.487  0.4636  0.8018  0.0118
  440MOL0     O58006   7.459   7.263   6.487  0.3427  0.3431 -0.1724
  440MOL0     C58007   7.539   7.293   6.596  0.2061  0.9277 -0.3486
  440MOL0     C58008   7.646   7.181   6.614 -0.2052 -0.2176 -0.7237
  440MOL0     C58009   7.756   7.222   6.705  0.3453  0.0265  0.0742
  440MOL0     C58010   7.854   7.311   6.629 -0.5327  0.6167 -0.1042
  440MOL0     C58011   7.941   7.391   6.711 -0.7170  0.3341 -0.4793
  440MOL0     C58012   8.016   7.452   6.785  0.1188 -0.3494 -0.7723
  440MOL0     C58013   7.246   7.316   6.603 -0.1098 -0.5131 -0.5620
  440MOL0     C58014   7.100   7.340   6.595 -1.9164  0.2693 -0.5665
  440MOL0     H58015   6.660   7.180   6.240 -1.7668 -0.3350  1.9013
  440MOL0     H58016   6.432   7.212   6.199  0.3683 -0.1959  2.2417
  440MOL0     H58017   6.229   7.254   6.267  2.0701  0.6435 -0.1375
  440MOL0     H58018   6.224   7.287   6.093  2.2372 -0.8777  0.7060
  440MOL0     H58019   6.085   7.467   6.265  0.2298 -0.2300  0.0598
  440MOL0     H58020   6.000   7.325   6.215 -2.2206  2.0040 -2.0177
  440MOL0     H58021   6.088   7.405   5.979 -1.4818 -0.9161  1.0710
  440MOL0     H58022   6.110   7.563   6.052  1.1060 -0.4341 -0.3784
  440MOL0     H58023   5.841   7.391   6.072  2.1824  0.6193  2.0639
  440MOL0     H58024   5.862   7.554   6.116 -1.1740 -1.0595 -0.2619
  440MOL0     H58025   5.900   7.444   5.837 -0.2887 -1.2879 -0.1534
  440MOL0     H58026   5.887   7.619   5.879 -0.2369 -1.2592 -1.2140
  440MOL0     H58027   5.668   7.603   5.982  0.9552 -0.0969 -0.0323
  440MOL0     H58028   5.657   7.435   5.911 -0.0305  0.1291 -2.4223
  440MOL0     H58029   5.680   7.683   5.729 -0.5606 -0.9408 -1.6961
  440MOL0     H58030   5.729   7.526   5.684 -0.0554  3.7979 -2.0362
  440MOL0     H58031   5.489   7.439   5.725  0.3898 -0.0104 -0.1378
  440MOL0     H58032   5.495   7.562   5.612  3.0278  3.3977  0.1594
  440MOL0     H58033   5.398   7.803   5.667  0.0576  2.3567  2.0130
  440MOL0     H58034   5.146   7.931   5.705 -2.9406  0.3877 -1.5434
  440MOL0     H58035   5.133   7.925   5.876  1.3360  2.2985 -2.1755
  440MOL0     H58036   4.916   7.891   5.724 -1.1828 -1.3706 -2.2185
  440MOL0     H58037   4.927   7.802   5.873 -3.2425  0.2429 -1.5229
  440MOL0     H58038   5.024   7.706   5.599  0.7165 -1.3093 -0.5582
  440MOL0     H58039   4.994   7.593   5.737 -1.5296 -0.3003  0.0918
  440MOL0     H58040   4.764   7.763   5.628  0.7848  0.3380  0.9783
  440MOL0     H58041   4.752   7.631   5.742 -0.7200 -2.3221 -1.2406
  440MOL0     H58042   4.546   7.690   5.608  1.5286 -1.1877  1.3236
  440MOL0     H58043   4.331   7.609   5.555 -0.8149  2.8931 -2.5705
  440MOL0     H58044   3.993   7.339   5.304  0.7280 -2.0604  1.2239
  440MOL0     H58045   3.829   7.245   5.168 -0.7443 -5.0311 -2.2533
  440MOL0     H58046   3.965   6.987   4.858  2.3398  4.6946  0.1845
  440MOL0     H58047   3.907   7.090   4.740  2.9138 -0.0205  0.4533
  440MOL0     H58048   3.673   7.039   4.792  0.1810  1.0415  0.4594
  440MOL0     H58049   3.732   6.934   4.925  0.9304  2.2388  0.5284
  440MOL0     H58050   3.861   6.801   4.771 -0.2211 -2.6138 -0.2991
  440MOL0     H58051   3.783   6.881   4.626 -0.1005 -1.3724  0.1857
  440MOL0     H58052   3.629   6.714   4.827 -0.2329  0.7904 -0.6779
  440MOL0     H58053   3.560   6.804   4.694 -1.0610  0.5202 -0.2972
  440MOL0     H58054   3.760   6.569   4.689  2.3523  1.3535 -1.3763
  440MOL0     H58055   3.713   6.659   4.552  0.9701  1.7180  0.9232
  440MOL0     H58056   3.468   6.591   4.597  0.4235  0.9353  0.4924
  440MOL0     H58057   3.515   6.519   4.741 -2.0362  1.6475  0.0052
  440MOL0     H58058   3.635   6.427   4.476 -1.0545 -0.1702 -0.4256
  440MOL0     H58059   3.629   6.346   4.627 -1.8813 -2.8928 -0.5361
  440MOL0     H58060   3.464   6.252   4.459 -0.1024 -0.0908 -0.1781
  440MOL0     H58061   3.389   6.401   4.429 -1.1159 -2.2467 -0.5645
  440MOL0     H58062   4.119   7.183   4.859 -0.7975  0.3570 -0.4694
  440MOL0     H58063   4.294   7.262   5.001  0.6587 -1.3779  0.0865
  440MOL0     H58064   4.496   7.340   5.267  0.5300  0.4893 -1.8472
  440MOL0     H58065   4.728   7.416   5.341  1.1358  1.5681  1.2408
  440MOL0     H58066   6.454   7.615   6.337  2.7106  0.3783  2.0005
  440MOL0     H58067   6.708   7.586   6.367 -1.2903  1.2579 -0.7093
  440MOL0     H58068   7.056   7.290   6.271 -1.3841  2.3069  1.1260
  440MOL0     H58069   7.323   7.249   6.291 -0.5160  0.6601 -0.4558
  440MOL0     H58070   7.486   7.309   6.690  2.2201 -0.6059  1.1415
  440MOL0     H58071   7.588   7.387   6.568  0.4371  0.5211 -1.3543
  440MOL0     H58072   7.586   7.103   6.661  0.3701  0.7352  1.7516
  440MOL0     H58073   7.688   7.157   6.516 -2.0125 -0.3192 -1.5027
  440MOL0     H58074   7.816   7.137   6.739  3.4864  1.4206 -1.4928
  440MOL0     H58075   7.715   7.280   6.788 -1.6087  1.5456 -1.8625
  440MOL0     H58076   7.911   7.237   6.572  0.8557  0.8217  0.9595
  440MOL0     H58077   7.807   7.370   6.550 -1.2037 -2.7253 -2.3892
  440MOL0     H58078   8.079   7.509   6.850 -1.2326 -0.2395  0.4995
  440MOL0     H58079   7.289   7.318   6.703  0.8718 -2.8413 -0.8588
  440MOL0     H58080   7.052   7.391   6.678  1.3695  2.5287  0.1514
  441MOL0     O58081   5.562   4.891   5.259 -1.0724 -0.5380 -0.1513
  441MOL0     C58082   5.571   5.012   5.225  0.9936  0.0327 -0.0417
  441MOL0     O58083   5.469   5.103   5.227 -0.6362 -0.2722 -0.5513
  441MOL0     C58084   5.343   5.059   5.258 -0.4931 -0.0393  0.0221
  441MOL0     C58085   5.282   4.945   5.203 -0.0709 -0.2377 -0.3565
  441MOL0     C58086   5.155   4.920   5.257 -0.4749 -0.4799  0.0624
  441MOL0     C58087   5.087   5.007   5.345  0.4734 -0.1178  0.5770
  441MOL0     O58088   4.962   4.978   5.388 -0.5673 -0.0799  0.1808
  441MOL0     C58089   4.868   4.977   5.280 -0.1064 -0.0429  0.0234
  441MOL0     C58090   4.752   5.076   5.303 -0.3064 -0.2954  0.6989
  441MOL0     C58091   4.654   5.007   5.396  0.4206  0.0826  1.1822
  441MOL0     C58092   4.645   5.054   5.535 -1.1924 -0.1921 -0.2594
  441MOL0     C58093   4.542   4.990   5.628  0.4856  0.3432 -0.1937
  441MOL0     C58094   4.399   5.037   5.566  0.8390  0.1733  0.1326
  441MOL0     C58095   4.280   4.988   5.655  0.1364  0.0392  0.3077
  441MOL0     C58096   4.144   5.035   5.618  0.2897 -0.6159  0.7913
  441MOL0     N58097   4.028   4.969   5.691 -0.1437 -0.2796 -0.0351
  441MOL0     C58098   3.966   5.035   5.799 -1.3775  0.9993  1.0926
  441MOL0     C58099   3.873   4.943   5.839  0.6613  0.0589  0.0466
  441MOL0     C58100   3.774   4.969   5.948  0.4704  0.0414  0.3578
  441MOL0     C58101   3.660   5.067   5.903  0.7497  0.0750 -1.1034
  441MOL0     C58102   3.534   4.994   5.864 -0.1753 -0.5414 -0.1996
  441MOL0     C58103   3.415   5.079   5.898  0.8530  0.0451  0.5975
  441MOL0     O58104   3.313   4.996   5.840 -0.0733 -0.4224 -0.0434
  441MOL0     C58105   3.187   4.999   5.900 -0.5365  1.0141  0.8956
  441MOL0     C58106   3.117   4.878   5.913 -0.1017 -0.3314 -0.0134
  441MOL0     C58107   2.985   4.876   5.965  0.3297 -0.5174  0.0442
  441MOL0     C58108   2.929   4.993   6.004 -0.2332 -0.7683 -0.3470
  441MOL0     C58109   2.794   4.980   6.062 -0.3209  0.6360 -1.0070
  441MOL0     O58110   2.741   5.094   6.112  0.5027  0.8356  0.2894
  441MOL0     C58111   2.628   5.085   6.186  0.7244  0.3647  0.5361
  441MOL0     C58112   2.515   5.153   6.138 -0.1728 -0.5059  0.2837
  441MOL0     C58113   2.394   5.142   6.211 -0.3661  0.5724 -0.1389
  441MOL0     C58114   2.387   5.067   6.333  0.5096  0.0234  0.3787
  441MOL0     O58115   2.271   5.049   6.398  0.9322 -1.0391  1.0967
  441MOL0     C58116   2.155   5.027   6.313 -0.1074  0.4024 -0.0610
  441MOL0     C58117   2.043   4.992   6.413  0.4934 -1.1283 -0.1068
  441MOL0     C58118   2.021   5.111   6.509 -0.4360 -0.0890 -0.3297
  441MOL0     C58119   1.877   5.137   6.536 -0.0267 -0.1482 -0.4864
  441MOL0     C58120   1.864   5.243   6.653 -0.5934  0.5315 -0.0443
  441MOL0     C58121   1.718   5.273   6.687  1.9362  0.4001  0.1731
  441MOL0     C58122   1.712   5.372   6.813  0.3797  0.5474 -0.7252
  441MOL0     C58123   1.575   5.357   6.892 -0.2006  0.1283 -0.2088
  441MOL0    Cl58124   1.463   5.462   6.813 -0.0826 -0.2073  0.0744
  441MOL0     C58125   2.507   5.019   6.383  0.0319 -0.3052 -0.3166
  441MOL0     C58126   2.622   5.032   6.312  1.1945 -0.4342 -0.5641
  441MOL0     O58127   2.745   4.871   6.077 -0.1172  0.0444  1.0756
  441MOL0     C58128   3.000   5.117   6.002  0.1339 -0.2606  0.3095
  441MOL0     C58129   3.129   5.117   5.943 -0.9555  0.6389  0.4852
  441MOL0     N58130   3.887   4.832   5.765  0.5711  0.0455 -0.2868
  441MOL0     N58131   3.968   4.844   5.665 -0.0826 -0.3211  0.0784
  441MOL0     C58132   5.146   5.127   5.363  0.1134 -0.4575 -0.6986
  441MOL0     C58133   5.277   5.156   5.327  1.1914 -0.2910  0.8583
  441MOL0     C58134   5.705   5.051   5.180  0.0339  0.0217  0.2394
  441MOL0     C58135   5.721   5.156   5.078  0.3359 -0.7839 -0.0613
  441MOL0     C58136   5.840   5.191   5.037  0.6743  1.4476 -0.2653
  441MOL0     C58137   5.956   5.126   5.079  0.6706 -0.4159 -0.3991
  441MOL0     O58138   6.073   5.177   5.030 -1.5228 -0.2536 -0.0943
  441MOL0     C58139   6.182   5.089   5.005  1.0358 -0.2312 -0.0171
  441MOL0     C58140   6.303   5.149   4.930 -0.0304 -0.5550  0.2088
  441MOL0     C58141   6.401   5.042   4.879  0.2087 -0.6555  0.4684
  441MOL0     C58142   6.464   5.088   4.746 -0.1571 -0.3093 -0.4139
  441MOL0     C58143   6.577   5.179   4.776 -0.1759 -0.1156  0.0571
  441MOL0     C58144   6.678   5.245   4.799 -0.2693  0.0668  0.1745
  441MOL0     C58145   5.949   5.017   5.172 -0.0761 -0.2538  0.4875
  441MOL0     C58146   5.819   4.989   5.227 -0.5725  0.5011  0.3680
  441MOL0     H58147   5.340   4.871   5.149  4.2848  2.0881  0.6731
  441MOL0     H58148   5.111   4.822   5.238  1.9577 -2.2892  2.8974
  441MOL0     H58149   4.846   4.870   5.266  0.7685 -0.4632  1.6646
  441MOL0     H58150   4.918   5.000   5.185  2.5856 -1.7686  0.8941
  441MOL0     H58151   4.714   5.113   5.207 -0.2713 -0.2001  0.7212
  441MOL0     H58152   4.787   5.166   5.355 -1.3945  0.2451  0.5283
  441MOL0     H58153   4.676   4.900   5.393 -0.2502 -0.1746  3.5098
  441MOL0     H58154   4.556   5.013   5.348  0.9338  0.2430  0.1242
  441MOL0     H58155   4.744   5.033   5.579  0.6686  2.7306 -2.6477
  441MOL0     H58156   4.649   5.162   5.550  0.9515 -0.3122  0.4373
  441MOL0     H58157   4.549   5.007   5.735 -1.2504  1.3499 -0.1944
  441MOL0     H58158   4.555   4.883   5.610  1.1407  0.1328  1.4223
  441MOL0     H58159   4.387   4.990   5.468 -3.0539  1.4033 -0.1734
  441MOL0     H58160   4.384   5.144   5.549  2.2318  0.3811  0.0809
  441MOL0     H58161   4.283   4.878   5.656 -3.0326 -0.1832  2.4177
  441MOL0     H58162   4.286   5.026   5.758  0.7549  1.8208 -0.3512
  441MOL0     H58163   4.122   5.018   5.512  1.4270  1.9066  0.0622
  441MOL0     H58164   4.137   5.138   5.654  0.7813 -0.8998  1.7260
  441MOL0     H58165   3.993   5.136   5.829 -1.8632  1.3938  0.2440
  441MOL0     H58166   3.827   5.025   6.024  2.7272 -1.7136  0.2005
  441MOL0     H58167   3.742   4.873   5.991  1.9553 -1.6018 -1.9352
  441MOL0     H58168   3.694   5.135   5.824 -0.9445  1.7265 -0.5037
  441MOL0     H58169   3.641   5.121   5.996  1.7158 -2.1942  0.4869
  441MOL0     H58170   3.534   4.978   5.756 -1.6264 -1.2139 -0.1223
  441MOL0     H58171   3.522   4.903   5.924  0.6225  1.4447  3.2497
  441MOL0     H58172   3.416   5.166   5.831 -0.4482 -0.9171 -0.7440
  441MOL0     H58173   3.409   5.111   6.002 -2.8456 -2.5460  1.3569
  441MOL0     H58174   3.154   4.783   5.876 -0.8251 -0.3483 -0.7163
  441MOL0     H58175   2.936   4.779   5.970  0.5797 -0.6153  0.6755
  441MOL0     H58176   2.518   5.199   6.040 -1.4052  0.5084  0.6875
  441MOL0     H58177   2.301   5.187   6.177 -1.4989  0.8947  3.0906
  441MOL0     H58178   2.176   4.955   6.233  2.6605  1.1404 -0.0820
  441MOL0     H58179   2.130   5.127   6.277  0.8059 -0.2775 -2.8423
  441MOL0     H58180   2.062   4.904   6.476 -0.6921 -1.1880  0.1912
  441MOL0     H58181   1.951   4.967   6.358  0.0018 -3.2750  1.5268
  441MOL0     H58182   2.072   5.204   6.485 -0.6017 -0.6338 -3.0872
  441MOL0     H58183   2.058   5.081   6.608 -2.2193 -2.0530 -0.1821
  441MOL0     H58184   1.816   5.176   6.453 -4.5313 -0.0944  2.5055
  441MOL0     H58185   1.834   5.042   6.568  3.5217 -1.8005 -0.2759
  441MOL0     H58186   1.898   5.345   6.634  0.9431 -0.1577 -1.1796
  441MOL0     H58187   1.920   5.215   6.743 -0.3627 -1.6838 -0.8069
  441MOL0     H58188   1.660   5.185   6.717 -2.3753  3.1450  0.8620
  441MOL0     H58189   1.660   5.321   6.608 -0.0555 -1.0748  0.6226
  441MOL0     H58190   1.789   5.344   6.885  0.4546 -1.2308 -1.4390
  441MOL0     H58191   1.725   5.476   6.780  0.2173  0.4304 -1.1701
  441MOL0     H58192   1.600   5.397   6.991  0.4136  0.3492 -0.4514
  441MOL0     H58193   1.541   5.253   6.899  0.4212 -0.0450  0.3097
  441MOL0     H58194   2.510   4.979   6.483  1.3908  0.2061 -0.1293
  441MOL0     H58195   2.711   4.999   6.363  0.1643 -0.3742  1.3557
  441MOL0     H58196   2.967   5.217   6.026 -2.6843 -1.3757  1.4973
  441MOL0     H58197   3.173   5.213   5.916 -3.4515  1.0555 -2.7273
  441MOL0     H58198   5.092   5.202   5.419  0.0382 -0.0161 -1.3615
  441MOL0     H58199   5.332   5.248   5.346  0.1560  0.8266 -1.1890
  441MOL0     H58200   5.634   5.200   5.031  2.0153  0.5276 -2.1349
  441MOL0     H58201   5.852   5.256   4.951 -0.5466  0.9043 -0.8624
  441MOL0     H58202   6.162   4.998   4.948  1.6858  0.7668 -1.9680
  441MOL0     H58203   6.215   5.046   5.100  2.3256  0.2008 -0.2502
  441MOL0     H58204   6.274   5.221   4.852  0.0901 -1.0067 -0.2549
  441MOL0     H58205   6.354   5.220   4.995 -0.2061  1.0489 -1.3225
  441MOL0     H58206   6.344   4.948   4.876 -0.4618 -0.3303  1.9694
  441MOL0     H58207   6.480   5.022   4.952  0.7141  3.1955  1.1855
  441MOL0     H58208   6.510   5.007   4.689  1.2216  0.4837 -0.4502
  441MOL0     H58209   6.387   5.128   4.679 -0.1454  0.0824 -0.1946
  441MOL0     H58210   6.762   5.307   4.822 -0.3615  0.0135  0.6666
  441MOL0     H58211   6.037   4.965   5.206  2.6420  2.7179 -1.4145
  441MOL0     H58212   5.804   4.899   5.286  1.4887 -0.2181 -0.0981
  442MOL0     O58213  10.640   3.972   9.743  0.4223 -0.1523  0.4508
  442MOL0     C58214  10.699   3.866   9.741  0.8087 -0.6521  0.4136
  442MOL0     O58215  10.659   3.759   9.682  0.2078 -0.1364  0.3987
  442MOL0     C58216  10.549   3.766   9.599 -0.1852  1.3425 -0.2941
  442MOL0     C58217  10.452   3.654   9.592  0.6205 -0.0902 -0.4422
  442MOL0     C58218  10.337   3.655   9.514 -0.0725 -0.0758  0.6151
  442MOL0     C58219  10.314   3.760   9.428  1.0294 -0.0494  0.8932
  442MOL0     O58220  10.194   3.775   9.355 -0.4330  0.5849 -0.4068
  442MOL0     C58221  10.155   3.658   9.285 -0.0183 -0.2832 -0.5722
  442MOL0     C58222  10.030   3.704   9.213 -1.2713 -0.1232  0.3990
  442MOL0     C58223   9.918   3.719   9.321  0.5435 -0.1407 -0.0234
  442MOL0     C58224   9.823   3.829   9.273 -0.4193 -0.5501  0.7495
  442MOL0     C58225   9.701   3.820   9.359  0.1001 -0.2810 -0.9977
  442MOL0     C58226   9.596   3.930   9.313  0.6338  0.4302  0.3845
  442MOL0     C58227   9.458   3.909   9.358 -0.8167  0.0517 -0.1744
  442MOL0     C58228   9.451   3.957   9.497  1.1104 -0.0867 -0.0150
  442MOL0     N58229   9.312   3.963   9.550 -0.0635 -0.4982 -0.2268
  442MOL0     C58230   9.224   3.854   9.559  0.3436  0.1994  0.5559
  442MOL0     C58231   9.116   3.905   9.630 -0.1679 -0.3554  1.1940
  442MOL0     C58232   8.989   3.838   9.677 -0.5069  0.4339 -0.1168
  442MOL0     C58233   9.018   3.736   9.787 -0.4358 -0.2043 -0.3355
  442MOL0     C58234   8.885   3.649   9.816  0.3120 -0.2218 -0.2583
  442MOL0     C58235   8.900   3.553   9.936  0.2927  0.2900 -0.0986
  442MOL0     O58236   8.810   3.586  10.041  0.1656  0.3394  0.2269
  442MOL0     C58237   8.682   3.530  10.051 -0.1196  0.6790  0.1324
  442MOL0     C58238   8.614   3.530  10.176 -0.3273  0.0682  0.2608
  442MOL0     C58239   8.494   3.469  10.196  0.3497  0.2324 -0.0758
  442MOL0     C58240   8.426   3.402  10.092 -0.4772  0.0969 -0.1622
  442MOL0     C58241   8.308   3.313  10.114 -0.2390  0.1711 -0.1751
  442MOL0     O58242   8.260   3.248  10.009  1.4077  0.2244  0.2501
  442MOL0     C58243   8.174   3.144  10.014  0.1233  0.3958  0.7136
  442MOL0     C58244   8.034   3.158  10.033  0.2166  0.7922  0.3516
  442MOL0     C58245   7.954   3.048  10.021 -0.2392  0.5468  0.2752
  442MOL0     C58246   8.000   2.921   9.990  0.0721  0.4068 -0.5606
  442MOL0     O58247   7.922   2.810   9.989 -0.5317 -1.0373  0.0221
  442MOL0     C58248   7.808   2.816  10.075  0.0871 -0.5527 -0.3910
  442MOL0     C58249   7.751   2.680  10.105  0.5158 -0.6441  0.0270
  442MOL0     C58250   7.623   2.682  10.190 -0.1219  0.5362 -0.2667
  442MOL0     C58251   7.623   2.751  10.329 -0.1218 -0.2232  0.6928
  442MOL0     C58252   7.521   2.705  10.426  0.0057 -0.3907 -0.1501
  442MOL0     C58253   7.384   2.773  10.394  0.1876 -0.6378 -0.4421
  442MOL0     C58254   7.263   2.691  10.456 -0.3838  0.2625  0.1227
  442MOL0     C58255   7.135   2.780  10.440 -0.1415  0.6727 -0.0582
  442MOL0    Cl58256   7.137   2.917  10.548 -0.1829  0.1806 -0.7358
  442MOL0     C58257   8.127   2.912   9.964  0.0757 -0.9675 -0.5203
  442MOL0     C58258   8.214   3.022   9.968 -0.9896 -0.5130  1.2572
  442MOL0     O58259   8.263   3.302  10.232 -0.2091  0.4027 -0.1930
  442MOL0     C58260   8.504   3.381   9.980 -0.4151 -0.6448 -0.6608
  442MOL0     C58261   8.620   3.456   9.953  0.2632  0.0052  0.8083
  442MOL0     N58262   9.145   4.039   9.659 -0.7338 -0.1688 -1.2103
  442MOL0     N58263   9.263   4.070   9.614  0.7731 -0.8800 -0.2340
  442MOL0     C58264  10.402   3.867   9.432 -0.6322 -0.4438 -0.4919
  442MOL0     C58265  10.523   3.864   9.501  0.1735  0.6766 -0.5508
  442MOL0     C58266  10.821   3.868   9.818 -0.0876  1.0180  1.4931
  442MOL0     C58267  10.882   3.992   9.845  1.0899 -0.2878 -0.2182
  442MOL0     C58268  11.011   3.996   9.896  0.6560  0.1294  0.0583
  442MOL0     C58269  11.081   3.878   9.926  0.1273 -0.0782  1.8760
  442MOL0     O58270  11.211   3.880   9.981 -0.5302  0.1290  0.2669
  442MOL0     C58271  11.295   4.001   9.986  0.1993 -0.1898  0.5296
  442MOL0     C58272  11.438   3.970  10.043 -0.2558 -0.1078  0.3785
  442MOL0     C58273  11.545   3.922   9.942 -0.0244 -0.5460 -0.8256
  442MOL0     C58274  11.578   4.041   9.851  0.0894  0.1629 -0.4136
  442MOL0     C58275  11.724   4.078   9.845 -0.6774  0.2380  0.3154
  442MOL0     C58276  11.841   4.113   9.855  0.8201  0.5673  0.1200
  442MOL0     C58277  11.012   3.760   9.911 -0.5472 -0.1876  0.2865
  442MOL0     C58278  10.882   3.748   9.860  0.1006  0.9132  0.2956
  442MOL0     H58279  10.474   3.565   9.651 -0.7735  1.0704  1.9706
  442MOL0     H58280  10.275   3.570   9.538  0.1629  0.4200  3.3268
  442MOL0     H58281  10.134   3.574   9.352 -0.2975  1.1069  1.1497
  442MOL0     H58282  10.232   3.642   9.208  1.5447  3.5892 -0.0477
  442MOL0     H58283  10.008   3.651   9.120  0.9394 -0.2678 -0.0927
  442MOL0     H58284  10.049   3.801   9.165 -0.2922  0.3159  1.6361
  442MOL0     H58285   9.959   3.748   9.418 -1.6783  1.5952  0.4724
  442MOL0     H58286   9.863   3.626   9.340 -0.1830  0.4984  1.1226
  442MOL0     H58287   9.873   3.925   9.287 -3.9032  1.5407  0.0645
  442MOL0     H58288   9.804   3.817   9.166  0.2918  1.0749  0.4098
  442MOL0     H58289   9.727   3.825   9.465  0.3201 -0.2608 -1.0505
  442MOL0     H58290   9.657   3.722   9.339 -1.3161 -0.3110  1.7597
  442MOL0     H58291   9.609   3.929   9.204  0.7791  0.2888  0.4034
  442MOL0     H58292   9.629   4.027   9.351  1.0341  0.4566 -0.0221
  442MOL0     H58293   9.383   3.960   9.297  0.4162  1.5156 -0.5363
  442MOL0     H58294   9.439   3.801   9.363  2.9163 -0.7429 -0.2930
  442MOL0     H58295   9.480   4.062   9.493 -1.7510  0.7313 -1.2528
  442MOL0     H58296   9.523   3.899   9.555  1.0862 -0.0421  0.0586
  442MOL0     H58297   9.243   3.751   9.530  1.7427  1.0253 -1.7222
  442MOL0     H58298   8.949   3.790   9.587  1.6553  0.3351 -1.0878
  442MOL0     H58299   8.916   3.908   9.717  0.3936  1.6617 -0.5801
  442MOL0     H58300   9.055   3.789   9.875 -3.9999  1.0147  0.6060
  442MOL0     H58301   9.102   3.671   9.760 -0.5626 -2.2962  3.5405
  442MOL0     H58302   8.802   3.717   9.832  1.7244  1.4018  0.5099
  442MOL0     H58303   8.849   3.596   9.727 -3.8928  2.6714 -0.5401
  442MOL0     H58304   8.999   3.555   9.983 -0.8546  0.4742  2.4631
  442MOL0     H58305   8.895   3.449   9.901  0.5815  0.9557 -2.2973
  442MOL0     H58306   8.659   3.580  10.261  1.0227 -3.7085  1.9592
  442MOL0     H58307   8.443   3.482  10.291  4.1403  3.8099  1.7680
  442MOL0     H58308   7.986   3.249  10.070 -3.0062  0.6116 -2.8567
  442MOL0     H58309   7.846   3.060  10.031 -0.5986 -2.7217  1.4042
  442MOL0     H58310   7.731   2.884  10.038 -0.7944 -2.9069 -3.2804
  442MOL0     H58311   7.841   2.847  10.174 -0.7472 -0.2807 -0.1869
  442MOL0     H58312   7.832   2.632  10.161  0.5707  1.3595  1.7982
  442MOL0     H58313   7.748   2.635  10.005  1.1353  0.6380 -0.5979
  442MOL0     H58314   7.587   2.579  10.204  0.1966  0.6091  1.3027
  442MOL0     H58315   7.547   2.731  10.129 -0.2950  1.4305  0.6374
  442MOL0     H58316   7.723   2.732  10.369  0.6148 -1.1049 -1.3894
  442MOL0     H58317   7.635   2.860  10.326 -0.7432 -0.1199  1.7019
  442MOL0     H58318   7.544   2.730  10.530 -1.1596 -1.9497  0.5276
  442MOL0     H58319   7.504   2.597  10.420 -1.1173 -0.2281 -0.1328
  442MOL0     H58320   7.386   2.766  10.285 -0.7992 -1.8322 -0.4034
  442MOL0     H58321   7.385   2.882  10.410  3.2761 -0.4281 -1.4264
  442MOL0     H58322   7.261   2.592  10.409  1.7774  0.3622 -0.2608
  442MOL0     H58323   7.283   2.686  10.563 -1.0891  1.4087  0.3244
  442MOL0     H58324   7.041   2.731  10.469 -0.9729  1.9058 -0.5959
  442MOL0     H58325   7.129   2.813  10.336  0.6066 -0.9454 -0.6514
  442MOL0     H58326   8.171   2.812   9.962 -1.9814 -1.9613  0.5084
  442MOL0     H58327   8.320   2.999   9.955 -0.7202  1.0423  0.4316
  442MOL0     H58328   8.479   3.310   9.902  2.2894 -1.9898 -0.4040
  442MOL0     H58329   8.678   3.444   9.862  2.5277 -0.1442  2.1686
  442MOL0     H58330  10.388   3.956   9.372  1.0316 -0.0531 -0.3604
  442MOL0     H58331  10.586   3.951   9.483  1.1156  0.2367  0.5465
  442MOL0     H58332  10.840   4.090   9.825  3.3194  1.6019  3.2778
  442MOL0     H58333  11.067   4.088   9.912  1.5670  0.0826 -2.3754
  442MOL0     H58334  11.253   4.072  10.059  1.0544 -1.4261  2.3149
  442MOL0     H58335  11.300   4.047   9.887 -4.1205 -1.2642 -0.4222
  442MOL0     H58336  11.473   4.059  10.095  1.2340 -0.4344 -0.0054
  442MOL0     H58337  11.426   3.905  10.130 -1.2722 -0.2853  0.1226
  442MOL0     H58338  11.517   3.832   9.888  1.7509 -0.3525 -2.1841
  442MOL0     H58339  11.630   3.892  10.003 -1.3034 -0.2275  1.2021
  442MOL0     H58340  11.551   4.010   9.749  0.5460  0.5993 -0.6760
  442MOL0     H58341  11.525   4.134   9.873  3.1923  2.1749 -0.8435
  442MOL0     H58342  11.940   4.153   9.853  1.4682 -1.0213 -0.7989
  442MOL0     H58343  11.067   3.670   9.935  1.1942  0.1541 -2.0363
  442MOL0     H58344  10.837   3.651   9.847  0.6777  0.8033 -1.0363
  443MOL0     O58345   1.992   5.605   6.290 -0.4572 -0.4637  0.1592
  443MOL0     C58346   2.078   5.694   6.308 -1.0131  0.5194  0.0511
  443MOL0     O58347   2.149   5.720   6.416  0.1711  0.0005  0.2458
  443MOL0     C58348   2.185   5.613   6.491  0.5106  0.7812  0.1777
  443MOL0     C58349   2.183   5.621   6.630  1.0111  0.4072 -0.4753
  443MOL0     C58350   2.229   5.508   6.707 -0.3861 -1.2004 -0.4621
  443MOL0     C58351   2.269   5.390   6.653  0.6919  0.7154  0.0551
  443MOL0     O58352   2.309   5.285   6.739  0.3839 -0.4981 -0.0046
  443MOL0     C58353   2.391   5.180   6.683 -0.2073  0.1417 -0.3781
  443MOL0     C58354   2.468   5.122   6.800 -0.4623 -0.8159  0.2081
  443MOL0     C58355   2.385   5.044   6.900 -0.2410  0.1343 -0.2112
  443MOL0     C58356   2.479   5.001   7.014  0.3683  0.5393  0.6766
  443MOL0     C58357   2.403   4.929   7.123 -0.7174  0.5364 -0.5614
  443MOL0     C58358   2.311   5.025   7.197  0.1804 -0.4302 -0.2292
  443MOL0     C58359   2.230   4.939   7.289 -0.2237 -0.4525 -0.1116
  443MOL0     C58360   2.196   5.002   7.426  0.7959  0.4045 -0.5156
  443MOL0     N58361   2.321   5.018   7.505  0.6381  0.3506 -0.1625
  443MOL0     C58362   2.416   5.121   7.487  0.5082  0.9581 -0.2189
  443MOL0     C58363   2.537   5.083   7.540 -0.5636  0.0906 -0.2248
  443MOL0     C58364   2.655   5.171   7.558  0.2812  0.6684 -0.1033
  443MOL0     C58365   2.790   5.103   7.546  0.7413  0.0897 -0.1663
  443MOL0     C58366   2.799   4.988   7.443  0.0609  0.7728 -0.3954
  443MOL0     C58367   2.740   5.034   7.314 -0.4951 -0.2909  0.3292
  443MOL0     O58368   2.792   5.166   7.281  0.4169  0.8860 -0.0754
  443MOL0     C58369   2.918   5.191   7.266  0.5900  0.4739 -0.4146
  443MOL0     C58370   3.006   5.094   7.216 -1.2541  0.8300 -0.3109
  443MOL0     C58371   3.137   5.136   7.199  0.4459  0.3604  0.2414
  443MOL0     C58372   3.189   5.268   7.234 -0.4035 -0.0578  0.3307
  443MOL0     C58373   3.329   5.295   7.230 -0.2191  0.5421 -0.1491
  443MOL0     O58374   3.358   5.431   7.253  0.0478  0.2786  0.4234
  443MOL0     C58375   3.488   5.476   7.273 -0.7524 -0.0094 -0.1395
  443MOL0     C58376   3.587   5.413   7.356  0.4967 -0.3647 -0.9535
  443MOL0     C58377   3.712   5.465   7.387 -0.5112  0.9109  1.0835
  443MOL0     C58378   3.751   5.584   7.331  0.3074 -0.4186  0.6742
  443MOL0     O58379   3.872   5.656   7.363  0.3898  0.5937 -0.6989
  443MOL0     C58380   3.979   5.576   7.408 -0.0892 -0.5006 -0.6253
  443MOL0     C58381   4.105   5.660   7.382 -0.3294  0.6108  0.2582
  443MOL0     C58382   4.236   5.567   7.378 -0.6681 -0.0943 -0.0950
  443MOL0     C58383   4.368   5.657   7.349  0.1956  0.0012 -0.3012
  443MOL0     C58384   4.480   5.580   7.425 -0.1113  0.8429 -0.5209
  443MOL0     C58385   4.511   5.444   7.360 -0.0628 -0.1978  0.3218
  443MOL0     C58386   4.625   5.366   7.426 -0.3728 -0.1540 -0.1522
  443MOL0     C58387   4.655   5.227   7.379  1.0147 -0.7398  0.2211
  443MOL0    Cl58388   4.606   5.192   7.203  0.4155 -0.2766  0.0992
  443MOL0     C58389   3.658   5.646   7.238 -0.9469 -0.0296  0.1854
  443MOL0     C58390   3.535   5.594   7.203  0.7285 -0.6471  0.5898
  443MOL0     O58391   3.407   5.205   7.203  0.5895  0.0279  0.7763
  443MOL0     C58392   3.091   5.364   7.291 -0.3308  0.8902  0.3852
  443MOL0     C58393   2.962   5.314   7.304 -0.7315 -0.3140  0.2872
  443MOL0     N58394   2.521   4.948   7.590  0.5592 -0.5489  0.2660
  443MOL0     N58395   2.390   4.915   7.563  0.7018  0.5414  0.0847
  443MOL0     C58396   2.276   5.383   6.507 -0.5927  0.4687 -0.4250
  443MOL0     C58397   2.246   5.499   6.435  0.1945 -1.3617  0.2991
  443MOL0     C58398   2.085   5.796   6.198  0.6908  0.0645 -0.5770
  443MOL0     C58399   2.147   5.771   6.079  0.0807 -0.0180  0.0459
  443MOL0     C58400   2.133   5.862   5.974  0.4453 -0.5844  0.6136
  443MOL0     C58401   2.054   5.978   6.003  0.6184 -0.5073 -0.1365
  443MOL0     O58402   2.037   6.072   5.904  0.2720  0.2019 -0.9841
  443MOL0     C58403   1.930   6.054   5.811  0.0774  0.4137  0.1426
  443MOL0     C58404   1.957   6.132   5.677  0.7292  0.8528 -0.7172
  443MOL0     C58405   1.917   6.278   5.686  0.2888 -0.0440 -0.3317
  443MOL0     C58406   1.949   6.360   5.568 -0.7359 -0.9114 -0.8318
  443MOL0     C58407   2.094   6.384   5.556  0.0621  0.2518  0.4164
  443MOL0     C58408   2.212   6.380   5.518 -0.1394  0.0911 -0.5690
  443MOL0     C58409   1.990   6.003   6.121 -0.5059  0.1110 -0.0212
  443MOL0     C58410   2.001   5.911   6.217 -0.0593 -0.4185 -0.3122
  443MOL0     H58411   2.164   5.717   6.677  0.6242 -1.4809  3.6429
  443MOL0     H58412   2.229   5.518   6.815  0.1901 -0.1599 -0.5439
  443MOL0     H58413   2.465   5.214   6.609 -2.1860  0.2839 -2.4089
  443MOL0     H58414   2.318   5.105   6.651 -0.9524  0.1398  1.2589
  443MOL0     H58415   2.524   5.198   6.855  0.1519  1.0606 -2.8324
  443MOL0     H58416   2.553   5.066   6.760  1.0374  1.6090 -0.2144
  443MOL0     H58417   2.322   4.966   6.856 -4.9476  0.8442  4.3133
  443MOL0     H58418   2.313   5.117   6.938 -0.8207  1.2527 -3.1754
  443MOL0     H58419   2.562   4.940   6.977 -0.5984  0.6873 -1.8773
  443MOL0     H58420   2.531   5.086   7.059  0.8363  1.2581 -1.1342
  443MOL0     H58421   2.477   4.895   7.196  0.7952 -1.3970 -2.8374
  443MOL0     H58422   2.366   4.834   7.083 -0.2404 -0.5238  1.3802
  443MOL0     H58423   2.242   5.073   7.128  3.0679  2.1663 -1.5776
  443MOL0     H58424   2.365   5.107   7.246  1.3896 -0.2444 -1.7752
  443MOL0     H58425   2.139   4.903   7.240 -0.9535 -1.7671  2.0684
  443MOL0     H58426   2.293   4.852   7.309  1.8560  0.6961 -1.3638
  443MOL0     H58427   2.132   4.933   7.482  0.4854  0.8645 -0.3020
  443MOL0     H58428   2.147   5.098   7.414  0.3230  0.4580  1.4846
  443MOL0     H58429   2.396   5.224   7.458  0.2016  1.1144  0.5408
  443MOL0     H58430   2.655   5.210   7.660 -3.6508 -0.2812  0.4067
  443MOL0     H58431   2.641   5.249   7.482 -0.0138 -0.1809 -0.9320
  443MOL0     H58432   2.794   5.056   7.645 -0.3716  0.0296 -0.1407
  443MOL0     H58433   2.872   5.175   7.536 -1.6411  3.4478  2.2529
  443MOL0     H58434   2.902   4.955   7.426 -0.4310 -1.5231  0.7424
  443MOL0     H58435   2.753   4.897   7.483  3.2475 -0.7200  0.2318
  443MOL0     H58436   2.631   5.028   7.323 -0.7243  2.9638  0.8382
  443MOL0     H58437   2.763   4.961   7.236 -0.6489  1.7013 -1.6614
  443MOL0     H58438   2.978   4.991   7.200 -0.0642  0.2411  1.1770
  443MOL0     H58439   3.201   5.058   7.159 -3.0443 -0.1740 -5.4201
  443MOL0     H58440   3.572   5.314   7.398  3.9214 -0.4044  0.5886
  443MOL0     H58441   3.772   5.415   7.463  0.4064  0.3431  0.0115
  443MOL0     H58442   3.986   5.485   7.348  1.4167 -0.9432  0.1723
  443MOL0     H58443   3.967   5.543   7.511 -1.8419  2.1315  0.1340
  443MOL0     H58444   4.117   5.742   7.453  0.4993  2.2691 -1.6823
  443MOL0     H58445   4.099   5.700   7.280 -1.0946 -0.2262 -0.0354
  443MOL0     H58446   4.233   5.484   7.306 -2.4976 -2.1644  2.1845
  443MOL0     H58447   4.242   5.519   7.476  1.8691  1.2652  0.5017
  443MOL0     H58448   4.386   5.666   7.241  1.3209 -2.2450 -0.3669
  443MOL0     H58449   4.350   5.758   7.387  1.4485 -0.3164  1.2397
  443MOL0     H58450   4.454   5.565   7.531  2.3405 -1.6655 -0.1511
  443MOL0     H58451   4.574   5.636   7.425  1.4664 -1.6173 -1.9471
  443MOL0     H58452   4.531   5.463   7.254 -0.6806  2.0534  0.5583
  443MOL0     H58453   4.426   5.376   7.363  0.0284 -0.4698 -1.7848
  443MOL0     H58454   4.710   5.436   7.424 -1.7155  1.5683  0.6020
  443MOL0     H58455   4.605   5.357   7.533  0.8424 -3.4193 -0.0963
  443MOL0     H58456   4.593   5.163   7.444 -2.3828  0.5215 -1.5806
  443MOL0     H58457   4.759   5.201   7.402  1.1024 -0.9405 -0.3867
  443MOL0     H58458   3.684   5.738   7.186  0.9853  0.2798  1.5961
  443MOL0     H58459   3.470   5.649   7.136  2.5840  3.0695  1.5657
  443MOL0     H58460   3.114   5.465   7.325 -0.3983  1.9671 -2.4704
  443MOL0     H58461   2.885   5.385   7.333  0.9677  1.1826  1.3704
  443MOL0     H58462   2.314   5.290   6.467  2.6876  1.1301  0.7887
  443MOL0     H58463   2.279   5.506   6.332  1.9178  1.8552  0.9688
  443MOL0     H58464   2.210   5.683   6.072 -1.1307 -1.0548  1.4876
  443MOL0     H58465   2.190   5.864   5.882  1.2192  0.7118  1.0993
  443MOL0     H58466   1.836   6.079   5.862 -0.7078 -1.6449 -0.1922
  443MOL0     H58467   1.921   5.948   5.789 -1.6258  0.1288  1.9209
  443MOL0     H58468   2.062   6.116   5.651  1.6264  0.1772  2.7752
  443MOL0     H58469   1.909   6.086   5.590  0.9216 -1.4146  0.2931
  443MOL0     H58470   1.972   6.326   5.768  2.9394 -0.3430 -1.8373
  443MOL0     H58471   1.809   6.285   5.701  0.1693 -0.7692 -0.8111
  443MOL0     H58472   1.913   6.302   5.483 -2.7956 -0.1278 -0.5422
  443MOL0     H58473   1.890   6.452   5.567  0.0496 -0.3909 -1.6651
  443MOL0     H58474   2.311   6.366   5.481  0.5512  0.7680  0.9529
  443MOL0     H58475   1.923   6.089   6.130 -0.6769 -0.1438  1.5595
  443MOL0     H58476   1.961   5.931   6.316 -1.7694 -1.7545 -0.6933
  444MOL0     O58477   7.742   7.605   3.860  0.2692 -0.0684  0.4193
  444MOL0     C58478   7.770   7.535   3.961  0.0196 -0.2030  0.1313
  444MOL0     O58479   7.674   7.491   4.050 -0.0510  0.6463  0.2606
  444MOL0     C58480   7.545   7.493   4.021 -0.1543 -0.3581 -0.2189
  444MOL0     C58481   7.446   7.553   4.110 -0.2923  0.3145 -0.5754
  444MOL0     C58482   7.314   7.550   4.070  0.2882 -0.2286  0.2665
  444MOL0     C58483   7.277   7.500   3.943  0.2623 -0.1334  0.6304
  444MOL0     O58484   7.153   7.502   3.881 -0.0776  0.0318  0.8419
  444MOL0     C58485   7.051   7.582   3.951  0.0829 -0.0550  1.3590
  444MOL0     C58486   6.933   7.563   3.859 -0.2132 -0.5800  0.7395
  444MOL0     C58487   6.791   7.594   3.923  0.4662 -0.3411  0.4637
  444MOL0     C58488   6.666   7.548   3.831 -0.9306  0.0980  0.1229
  444MOL0     C58489   6.532   7.574   3.901  0.2239  0.4213  1.0965
  444MOL0     C58490   6.445   7.464   3.832 -0.4706 -0.3579  0.5938
  444MOL0     C58491   6.309   7.452   3.889  0.0675 -0.1767  0.1711
  444MOL0     C58492   6.253   7.588   3.906 -0.1341  0.2062  0.8309
  444MOL0     N58493   6.101   7.595   3.910 -0.2245  0.7234  0.3277
  444MOL0     C58494   6.023   7.696   3.961 -0.0838  0.7027 -0.1507
  444MOL0     C58495   5.892   7.655   3.950  0.3103  0.0869 -0.7900
  444MOL0     C58496   5.786   7.740   4.010 -0.6257 -0.5056 -0.2999
  444MOL0     C58497   5.692   7.806   3.911 -0.9957 -0.3664  0.3781
  444MOL0     C58498   5.572   7.725   3.900 -0.0205 -0.6799  0.4209
  444MOL0     C58499   5.480   7.805   3.809  0.4293  1.1058 -0.6968
  444MOL0     O58500   5.431   7.916   3.886 -0.2792 -0.2322  0.5299
  444MOL0     C58501   5.302   7.956   3.868  0.2938 -1.0929 -0.0200
  444MOL0     C58502   5.202   7.865   3.875  0.5908 -0.4868 -0.1712
  444MOL0     C58503   5.074   7.912   3.853 -0.0322 -0.2300 -0.2445
  444MOL0     C58504   5.041   8.048   3.827  0.7417 -0.5626  0.1970
  444MOL0     C58505   4.907   8.095   3.792  1.0118  0.4633 -0.1816
  444MOL0     O58506   4.810   8.009   3.842 -0.3019 -0.2748 -0.0479
  444MOL0     C58507   4.679   8.018   3.820  0.4906 -0.1744  0.6063
  444MOL0     C58508   4.618   7.891   3.823  0.2546  0.2329  0.3556
  444MOL0     C58509   4.481   7.877   3.790 -0.0338 -0.6552  0.3729
  444MOL0     C58510   4.400   7.989   3.759 -0.4761  0.2304 -0.8953
  444MOL0     O58511   4.275   7.967   3.713 -0.3384  0.4152 -0.3270
  444MOL0     C58512   4.223   8.067   3.622 -0.0535 -0.4083  0.0287
  444MOL0     C58513   4.084   8.020   3.558  0.0743 -0.3097  0.7615
  444MOL0     C58514   3.961   8.008   3.661 -0.2726 -0.1824 -0.1226
  444MOL0     C58515   3.843   7.951   3.594 -0.9506 -0.1811 -0.0762
  444MOL0     C58516   3.846   7.802   3.556 -0.3169  0.9023  0.1036
  444MOL0     C58517   3.716   7.770   3.468 -0.0105  0.5622  0.2902
  444MOL0     C58518   3.711   7.842   3.335 -0.7807  0.4801  0.3437
  444MOL0     C58519   3.592   7.789   3.251 -1.7009  0.1423 -0.6140
  444MOL0    Cl58520   3.639   7.640   3.158  0.3229 -0.2905 -0.3273
  444MOL0     C58521   4.458   8.115   3.780 -0.6529 -0.5687  0.4927
  444MOL0     C58522   4.604   8.132   3.802 -1.2059 -0.4957  0.3463
  444MOL0     O58523   4.890   8.203   3.738  0.9479  0.4198  0.4212
  444MOL0     C58524   5.149   8.137   3.837 -0.0268  1.0837  0.4928
  444MOL0     C58525   5.282   8.088   3.853 -0.0668  0.0528  1.2346
  444MOL0     N58526   5.889   7.522   3.904 -0.2179 -1.0421 -0.9098
  444MOL0     N58527   6.015   7.496   3.884  0.1706 -0.5514  0.5188
  444MOL0     C58528   7.368   7.430   3.875 -0.1293 -0.6430  0.1528
  444MOL0     C58529   7.504   7.430   3.915 -0.6157  0.5014  0.3711
  444MOL0     C58530   7.910   7.517   4.007 -0.4384  0.5109 -0.1363
  444MOL0     C58531   8.015   7.574   3.930 -0.4690 -0.6918 -0.9746
  444MOL0     C58532   8.148   7.541   3.971  0.7018 -1.9541  0.2054
  444MOL0     C58533   8.177   7.473   4.084  0.0807  1.1368  0.2343
  444MOL0     O58534   8.305   7.471   4.136  1.1283  0.2433 -0.2827
  444MOL0     C58535   8.377   7.355   4.116  0.5746 -0.3834  0.4681
  444MOL0     C58536   8.473   7.366   3.998  0.3808  0.9648  0.0694
  444MOL0     C58537   8.570   7.247   3.975  1.0092  0.4408 -0.6308
  444MOL0     C58538   8.674   7.212   4.092  1.1000 -0.5080  0.1129
  444MOL0     C58539   8.779   7.307   4.117  0.6664  0.7602 -0.9256
  444MOL0     C58540   8.872   7.382   4.131  0.5541  1.0484  1.0515
  444MOL0     C58541   8.068   7.424   4.158 -0.1914 -0.3367 -0.9649
  444MOL0     C58542   7.938   7.445   4.122 -0.2407 -0.0044  1.2652
  444MOL0     H58543   7.476   7.621   4.189  1.4173 -0.7296 -0.2558
  444MOL0     H58544   7.249   7.585   4.149  1.9163  0.1251  1.5148
  444MOL0     H58545   7.102   7.677   3.966  0.6011 -0.0924 -0.0625
  444MOL0     H58546   7.029   7.549   4.053  1.2138 -1.5308  1.1665
  444MOL0     H58547   6.933   7.465   3.810  2.4812 -0.1707 -0.2658
  444MOL0     H58548   6.936   7.622   3.767 -0.5640 -0.4602  0.8067
  444MOL0     H58549   6.786   7.700   3.951 -0.9933 -0.9081  2.5826
  444MOL0     H58550   6.784   7.536   4.015 -1.5860  0.2137  0.6930
  444MOL0     H58551   6.674   7.603   3.737  1.6834  1.5287  1.0507
  444MOL0     H58552   6.682   7.442   3.813  1.0242 -0.4770  4.0891
  444MOL0     H58553   6.483   7.671   3.891 -0.5327  0.0130  0.7572
  444MOL0     H58554   6.548   7.553   4.007 -0.1778  0.7982  1.2347
  444MOL0     H58555   6.493   7.367   3.849  0.2798  0.0000  0.5499
  444MOL0     H58556   6.427   7.488   3.727 -2.4990 -0.5297  0.8558
  444MOL0     H58557   6.256   7.394   3.813 -0.6723 -2.8367  2.5766
  444MOL0     H58558   6.308   7.389   3.978  3.7043  0.5532  0.8902
  444MOL0     H58559   6.285   7.648   3.820  3.1342  0.6678  2.2143
  444MOL0     H58560   6.297   7.627   3.998  0.5728 -2.6581  1.8177
  444MOL0     H58561   6.048   7.791   4.008 -2.1688  0.6369  1.1759
  444MOL0     H58562   5.839   7.813   4.072 -1.8754  0.4452 -0.3073
  444MOL0     H58563   5.735   7.683   4.089  0.7760 -1.4045 -0.0025
  444MOL0     H58564   5.740   7.811   3.812 -0.9820  0.5402  0.4274
  444MOL0     H58565   5.669   7.908   3.942  0.8687  0.2851 -0.2738
  444MOL0     H58566   5.578   7.622   3.864 -0.2100 -0.8623  0.9048
  444MOL0     H58567   5.516   7.720   3.994 -1.7909  0.6399 -0.5073
  444MOL0     H58568   5.398   7.736   3.787  3.5421 -3.3639  0.3430
  444MOL0     H58569   5.523   7.834   3.713  1.9388  0.8994 -0.1176
  444MOL0     H58570   5.214   7.759   3.892  1.6303 -0.1615  1.3373
  444MOL0     H58571   5.001   7.837   3.884 -2.0340  0.0165 -3.8667
  444MOL0     H58572   4.670   7.798   3.843 -1.0517 -0.8513 -1.0672
  444MOL0     H58573   4.437   7.780   3.771 -2.2141  0.7351 -2.4948
  444MOL0     H58574   4.299   8.080   3.545  2.3814  2.3338  2.6066
  444MOL0     H58575   4.212   8.162   3.675 -1.2230 -1.7223  2.3517
  444MOL0     H58576   4.091   7.925   3.504  0.0834 -0.3379  0.8118
  444MOL0     H58577   4.049   8.102   3.494 -0.2797 -2.7084 -2.3516
  444MOL0     H58578   3.944   8.107   3.704  1.5698  1.2581 -2.3978
  444MOL0     H58579   3.991   7.956   3.752  2.1412  1.6447  0.2329
  444MOL0     H58580   3.757   7.954   3.663  0.3038  2.9128  1.5690
  444MOL0     H58581   3.824   8.021   3.512 -1.7968 -0.3932 -0.0750
  444MOL0     H58582   3.855   7.742   3.647 -0.1589 -1.1812 -1.2230
  444MOL0     H58583   3.936   7.773   3.501  1.0578  2.2998  1.4816
  444MOL0     H58584   3.627   7.799   3.524  0.4739  2.0391  0.3140
  444MOL0     H58585   3.709   7.667   3.431  2.7281  0.6063 -0.5112
  444MOL0     H58586   3.709   7.950   3.353  0.8492  0.1294  3.0964
  444MOL0     H58587   3.796   7.822   3.269  0.5117  1.7311  1.5610
  444MOL0     H58588   3.537   7.859   3.187 -0.6825  1.4906 -0.0887
  444MOL0     H58589   3.522   7.757   3.329  0.4716  1.8231  2.2619
  444MOL0     H58590   4.399   8.205   3.765 -0.4492 -0.8191 -2.4804
  444MOL0     H58591   4.657   8.226   3.796  1.7547 -2.0035  1.1672
  444MOL0     H58592   5.126   8.243   3.829 -0.6652  0.8418 -1.7511
  444MOL0     H58593   5.367   8.155   3.850  0.7576 -0.9951  0.0738
  444MOL0     H58594   7.346   7.399   3.774  0.9340 -1.8614  0.2731
  444MOL0     H58595   7.562   7.375   3.842 -0.8080 -0.6285  1.0510
  444MOL0     H58596   7.985   7.650   3.858 -0.6418  0.0924 -0.1004
  444MOL0     H58597   8.235   7.584   3.922 -0.5813  2.0943  1.1124
  444MOL0     H58598   8.313   7.266   4.115 -0.9692  0.6957 -0.2155
  444MOL0     H58599   8.432   7.336   4.209  1.1831 -1.3788 -0.0719
  444MOL0     H58600   8.409   7.372   3.909 -1.1363  0.8685  1.1141
  444MOL0     H58601   8.535   7.456   4.002 -0.6641  1.7427 -0.5885
  444MOL0     H58602   8.621   7.270   3.881  4.1876 -1.4288  0.4679
  444MOL0     H58603   8.515   7.155   3.951 -0.9770  1.3368  0.2773
  444MOL0     H58604   8.625   7.186   4.186 -1.2258  0.6745 -0.6691
  444MOL0     H58605   8.712   7.116   4.056 -2.1308 -0.3941 -4.4814
  444MOL0     H58606   8.948   7.453   4.156  0.8904  0.3600  2.0448
  444MOL0     H58607   8.087   7.384   4.257  0.0228 -0.6817 -1.1427
  444MOL0     H58608   7.868   7.396   4.189 -1.0206  1.2191  1.3882
  445MOL0     O58609   9.254   9.443   7.568  0.1192  0.0509  0.7907
  445MOL0     C58610   9.329   9.452   7.475 -0.0757  0.2025 -0.5117
  445MOL0     O58611   9.301   9.403   7.348  0.0041  0.1994 -0.0436
  445MOL0     C58612   9.175   9.345   7.327  0.5770  0.3461  0.6694
  445MOL0     C58613   9.128   9.252   7.415  0.1197  0.3582 -0.5611
  445MOL0     C58614   9.001   9.197   7.399 -0.9996 -0.3762  0.7070
  445MOL0     C58615   8.916   9.222   7.288  0.6747 -0.3088  0.4442
  445MOL0     O58616   8.795   9.164   7.257 -0.0389  0.9798 -0.3929
  445MOL0     C58617   8.769   9.033   7.321  0.6595 -0.8410 -0.7065
  445MOL0     C58618   8.655   8.967   7.246  0.3616  0.1066  0.7479
  445MOL0     C58619   8.531   9.051   7.222 -0.9979 -0.4716 -0.1505
  445MOL0     C58620   8.449   9.083   7.343  0.8408  0.5031  0.7486
  445MOL0     C58621   8.313   9.145   7.306 -0.6274 -0.0743 -0.7219
  445MOL0     C58622   8.240   9.199   7.424  0.4698  0.6506 -0.7349
  445MOL0     C58623   8.108   9.267   7.373  0.3860  0.7023 -0.9469
  445MOL0     C58624   8.010   9.154   7.346 -0.1915 -0.9941  0.3600
  445MOL0     N58625   7.873   9.203   7.343 -0.3319  0.6238  0.8348
  445MOL0     C58626   7.762   9.126   7.314 -0.3530  0.7801 -0.2066
  445MOL0     C58627   7.658   9.211   7.296 -0.7127  0.3153  0.1198
  445MOL0     C58628   7.511   9.179   7.248 -0.0374  0.9808 -0.6824
  445MOL0     C58629   7.511   9.156   7.101  0.5868 -0.0622 -0.0530
  445MOL0     C58630   7.570   9.271   7.027 -0.0638 -0.9172  0.8015
  445MOL0     C58631   7.492   9.401   7.038  0.6920  0.5568 -0.2393
  445MOL0     O58632   7.355   9.373   6.989 -0.6095 -0.0671 -0.6919
  445MOL0     C58633   7.250   9.436   7.053  0.1636  0.4385  0.0737
  445MOL0     C58634   7.235   9.466   7.191  0.2257 -0.1830 -0.0573
  445MOL0     C58635   7.108   9.495   7.238  0.9863 -0.0760  0.3254
  445MOL0     C58636   7.008   9.520   7.149  0.4542 -0.1671 -0.4696
  445MOL0     C58637   6.879   9.562   7.206  0.3411 -0.7065  0.3557
  445MOL0     O58638   6.850   9.538   7.337 -0.1948 -0.4316  0.6894
  445MOL0     C58639   6.729   9.529   7.394  0.3199 -0.4984  1.3122
  445MOL0     C58640   6.608   9.521   7.319  0.4783 -0.6473  0.5160
  445MOL0     C58641   6.494   9.520   7.389 -0.4800  0.4214 -0.9212
  445MOL0     C58642   6.492   9.517   7.529  0.4374 -0.1028  0.1143
  445MOL0     O58643   6.384   9.490   7.611 -0.0546 -0.3930  0.0123
  445MOL0     C58644   6.282   9.406   7.552  0.3009  0.4418  0.3709
  445MOL0     C58645   6.147   9.431   7.614 -0.8512 -0.0679  0.0251
  445MOL0     C58646   6.148   9.408   7.777  1.1870  0.8194  0.0554
  445MOL0     C58647   6.026   9.471   7.847  0.9196 -0.3136  0.0955
  445MOL0     C58648   5.881   9.409   7.807  0.5468  0.1273  0.1792
  445MOL0     C58649   5.771   9.488   7.871  0.4899  1.3652 -0.7848
  445MOL0     C58650   5.635   9.429   7.824  0.2794 -0.1944  0.2721
  445MOL0     C58651   5.517   9.526   7.843  0.0539  0.4010 -1.2690
  445MOL0    Cl58652   5.516   9.643   7.709 -0.5038 -0.3125 -0.0118
  445MOL0     C58653   6.608   9.524   7.593 -0.1553 -0.7398  0.1453
  445MOL0     C58654   6.729   9.537   7.532  0.6440  0.7643 -0.2529
  445MOL0     O58655   6.802   9.622   7.124  0.5229 -0.2736 -0.2716
  445MOL0     C58656   7.022   9.514   7.010 -0.3200 -0.1635 -0.8816
  445MOL0     C58657   7.142   9.455   6.965  1.6678  0.7179 -1.1505
  445MOL0     N58658   7.705   9.337   7.323  0.9422  0.0977  1.0755
  445MOL0     N58659   7.830   9.329   7.351  1.0989  0.5100 -0.4158
  445MOL0     C58660   8.973   9.322   7.204  0.2470 -0.4804  0.5470
  445MOL0     C58661   9.101   9.383   7.212  1.4622  0.1153 -0.8347
  445MOL0     C58662   9.455   9.528   7.481  0.0814 -0.1191 -0.3184
  445MOL0     C58663   9.498   9.594   7.600  0.6781 -0.3609  0.5267
  445MOL0     C58664   9.620   9.660   7.601 -0.2494  0.0212  0.1636
  445MOL0     C58665   9.719   9.644   7.491  0.6228 -0.6441  0.6239
  445MOL0     O58666   9.848   9.709   7.481 -0.1221  0.0382 -0.4432
  445MOL0     C58667   9.903   9.787   7.580  0.3601 -0.3427  0.1506
  445MOL0     C58668   9.894   9.933   7.523 -0.4655 -0.0611 -0.3973
  445MOL0     C58669   9.919  10.028   7.636 -0.2051  0.2583 -0.1430
  445MOL0     C58670   9.958  10.175   7.598 -0.1449  0.3275  0.0687
  445MOL0     C58671   9.954  10.269   7.712  0.6861 -0.9084  0.6329
  445MOL0     C58672   9.953  10.392   7.862 -0.5344 -0.5651  0.5490
  445MOL0     C58673   9.673   9.576   7.376  0.5280 -0.4489  0.0296
  445MOL0     C58674   9.545   9.525   7.375 -0.2795 -0.0682  0.6546
  445MOL0     H58675   9.180   9.216   7.503 -1.1175  1.3902  0.6455
  445MOL0     H58676   8.961   9.118   7.462  0.7060 -4.1655 -2.5353
  445MOL0     H58677   8.747   9.046   7.427 -0.8909  4.0452 -1.3636
  445MOL0     H58678   8.856   8.967   7.310  2.8550  1.5049  1.3115
  445MOL0     H58679   8.620   8.876   7.295 -2.1258 -0.3324 -1.6310
  445MOL0     H58680   8.696   8.936   7.149 -1.8523  2.2846 -1.0040
  445MOL0     H58681   8.480   9.001   7.139  0.5178 -0.3537 -1.1955
  445MOL0     H58682   8.559   9.148   7.180 -0.4031 -0.4405  0.2962
  445MOL0     H58683   8.429   9.000   7.412  1.6027  0.6009  1.0988
  445MOL0     H58684   8.509   9.150   7.405  0.6757  1.4405 -0.0766
  445MOL0     H58685   8.265   9.062   7.253  1.6330 -1.7602 -0.2648
  445MOL0     H58686   8.334   9.225   7.234  0.2046  0.8276  0.4890
  445MOL0     H58687   8.303   9.262   7.488  1.0630 -1.1226  0.4996
  445MOL0     H58688   8.216   9.110   7.482 -1.7678  1.0516 -0.9572
  445MOL0     H58689   8.074   9.323   7.461  0.0907  0.2197 -0.7492
  445MOL0     H58690   8.127   9.325   7.283 -3.1103  1.1762 -1.5357
  445MOL0     H58691   8.019   9.072   7.418  3.5298 -0.6424  0.4692
  445MOL0     H58692   8.048   9.113   7.252 -1.0759 -1.4967  0.2113
  445MOL0     H58693   7.767   9.019   7.293  3.6977  0.9613 -1.0293
  445MOL0     H58694   7.439   9.258   7.267 -0.7171  0.4201 -0.8531
  445MOL0     H58695   7.477   9.090   7.301  2.6746 -0.6029 -1.3950
  445MOL0     H58696   7.407   9.135   7.071  0.2406 -1.5523  1.9904
  445MOL0     H58697   7.568   9.065   7.082  0.2040 -0.8538  2.2039
  445MOL0     H58698   7.673   9.297   7.056  0.3843  0.7190 -1.8254
  445MOL0     H58699   7.575   9.254   6.919 -1.6931  1.7210  0.2296
  445MOL0     H58700   7.536   9.471   6.966 -0.7295  1.4329 -0.2994
  445MOL0     H58701   7.507   9.442   7.139  3.4352 -3.2721  1.1315
  445MOL0     H58702   7.320   9.471   7.259  1.3364  3.3905 -1.5000
  445MOL0     H58703   7.098   9.507   7.346  1.2328 -1.0097  0.4671
  445MOL0     H58704   6.595   9.521   7.211  0.6648 -0.2567  0.4954
  445MOL0     H58705   6.400   9.541   7.339 -0.5143  1.1116 -0.5819
  445MOL0     H58706   6.316   9.303   7.551  0.1604  0.3140  2.4594
  445MOL0     H58707   6.256   9.429   7.448 -3.0096  0.3846  1.0518
  445MOL0     H58708   6.082   9.356   7.569  0.9179 -2.5283  1.3176
  445MOL0     H58709   6.112   9.531   7.586 -1.4039 -0.0514  0.7523
  445MOL0     H58710   6.230   9.465   7.822 -0.9223  1.7175  3.0431
  445MOL0     H58711   6.153   9.302   7.799 -0.1897  0.5079 -0.9906
  445MOL0     H58712   6.043   9.451   7.953  0.7161  0.0256  0.1930
  445MOL0     H58713   6.035   9.578   7.825 -0.4257  0.0378  1.1205
  445MOL0     H58714   5.873   9.303   7.835 -0.9251 -0.1262 -1.0564
  445MOL0     H58715   5.875   9.419   7.699  1.4318  0.7757  0.1812
  445MOL0     H58716   5.786   9.594   7.845  1.4774  1.9579  1.8882
  445MOL0     H58717   5.780   9.481   7.980  0.3698 -0.6235 -0.8800
  445MOL0     H58718   5.641   9.404   7.717 -2.3864 -0.5714  0.1401
  445MOL0     H58719   5.620   9.337   7.880  0.4542  1.1404  2.6293
  445MOL0     H58720   5.514   9.579   7.939 -0.5223 -1.6886 -0.0653
  445MOL0     H58721   5.425   9.468   7.841  2.2611 -3.4168 -2.6290
  445MOL0     H58722   6.606   9.522   7.702  1.4787  2.4237  0.3481
  445MOL0     H58723   6.822   9.545   7.587 -1.2370  2.6109  2.9718
  445MOL0     H58724   6.938   9.534   6.945 -1.3326 -0.5023  0.2890
  445MOL0     H58725   7.140   9.424   6.861 -1.8223 -1.3781 -0.5923
  445MOL0     H58726   8.917   9.354   7.117  1.4065 -2.0516 -0.8488
  445MOL0     H58727   9.132   9.451   7.133  1.1583 -1.9574 -2.8582
  445MOL0     H58728   9.425   9.606   7.679 -0.9519 -0.8097 -0.8558
  445MOL0     H58729   9.644   9.718   7.690  4.3500 -0.5273 -0.4580
  445MOL0     H58730  10.005   9.753   7.600 -0.1758 -1.4874  1.1104
  445MOL0     H58731   9.847   9.794   7.674 -0.2395 -1.3542 -0.1053
  445MOL0     H58732   9.974   9.943   7.450 -0.9696 -2.3522 -1.3700
  445MOL0     H58733   9.800   9.947   7.468 -0.4766  1.6401  0.0039
  445MOL0     H58734  10.002   9.978   7.686  2.1241  1.9904 -2.0080
  445MOL0     H58735   9.843  10.027   7.715 -0.1386 -1.0702 -0.0776
  445MOL0     H58736  10.062  10.180   7.564 -0.9251  1.2726 -2.3498
  445MOL0     H58737   9.887  10.213   7.525 -2.7265  0.1658  2.3128
  445MOL0     H58738   9.935  10.459   7.944 -1.0547 -1.0794  0.8626
  445MOL0     H58739   9.742   9.557   7.295  0.5678 -0.8249  0.1474
  445MOL0     H58740   9.517   9.469   7.286  0.5983  0.6417 -0.0893
  446MOL0     O58741   1.776  10.218   3.203  0.7632 -0.7561  0.0984
  446MOL0     C58742   1.822  10.179   3.308 -0.0844  0.7071  0.3357
  446MOL0     O58743   1.769  10.082   3.392 -0.0053 -0.3973  0.7962
  446MOL0     C58744   1.643  10.020   3.380  0.4984 -0.1245 -0.7350
  446MOL0     C58745   1.631   9.885   3.395 -0.7431 -0.7497  0.5410
  446MOL0     C58746   1.508   9.816   3.403  0.2875 -0.1873 -0.1595
  446MOL0     C58747   1.393   9.896   3.396  0.6467  0.3364 -0.1377
  446MOL0     O58748   1.263   9.851   3.410  0.0122 -0.0736  0.1832
  446MOL0     C58749   1.245   9.777   3.535 -0.1456 -0.0009 -0.1188
  446MOL0     C58750   1.126   9.818   3.619  0.1642 -0.1261  1.1748
  446MOL0     C58751   1.117   9.965   3.642 -1.1829  0.1100  0.3456
  446MOL0     C58752   0.999  10.017   3.712  0.7219  0.2552 -0.4287
  446MOL0     C58753   0.879  10.041   3.624  0.3089  0.0339 -0.4423
  446MOL0     C58754   0.780  10.111   3.719 -0.0943  0.6875  0.1047
  446MOL0     C58755   0.694  10.181   3.624 -0.1756 -0.3633 -0.5177
  446MOL0     C58756   0.619  10.281   3.713  0.5333  0.5183  1.0502
  446MOL0     N58757   0.509  10.348   3.647  0.4895 -1.2078  0.5800
  446MOL0     C58758   0.475  10.339   3.509 -0.8429 -0.9676 -0.4415
  446MOL0     C58759   0.387  10.449   3.494 -0.7160  0.7194  1.1648
  446MOL0     C58760   0.295  10.470   3.377 -0.9964  0.5018 -0.5433
  446MOL0     C58761   0.305  10.597   3.292 -0.2922 -0.1723  0.1652
  446MOL0     C58762   0.207  10.593   3.182  0.4493  0.6298  0.0879
  446MOL0     C58763   0.070  10.636   3.216  0.1770 -0.4527  0.2766
  446MOL0     O58764  -0.020  10.617   3.113  0.6991  0.9623  1.1815
  446MOL0     C58765  -0.151  10.663   3.122 -0.4173 -0.5587  0.0331
  446MOL0     C58766  -0.226  10.691   3.004  0.8074 -0.6465 -0.1021
  446MOL0     C58767  -0.365  10.721   3.013  0.3236  0.3283  0.3723
  446MOL0     C58768  -0.424  10.742   3.139  0.6075  0.3517 -0.4839
  446MOL0     C58769  -0.571  10.764   3.146  0.1819 -0.6750 -0.3910
  446MOL0     O58770  -0.629  10.770   3.267  0.0138 -0.7155  0.1370
  446MOL0     C58771  -0.757  10.819   3.284 -1.0071 -0.5670  0.1232
  446MOL0     C58772  -0.862  10.823   3.184 -0.2780 -0.1409  0.1361
  446MOL0     C58773  -0.986  10.867   3.215  0.5479 -0.0427 -0.1088
  446MOL0     C58774  -1.013  10.928   3.340  1.1596 -0.4501  1.8186
  446MOL0     O58775  -1.136  10.975   3.379  0.1178  0.4880  0.2215
  446MOL0     C58776  -1.251  10.910   3.323  0.1316  0.0498  0.0452
  446MOL0     C58777  -1.375  10.945   3.395 -0.6270 -1.4625 -0.1592
  446MOL0     C58778  -1.494  10.961   3.310 -0.4203  0.7061  0.0476
  446MOL0     C58779  -1.614  10.985   3.404 -0.4994 -0.4321  0.9384
  446MOL0     C58780  -1.737  10.975   3.317  0.8697  0.6312  0.4958
  446MOL0     C58781  -1.855  11.015   3.398  0.5472  0.6927 -0.0322
  446MOL0     C58782  -1.888  10.912   3.513  0.0739 -0.6434 -0.9070
  446MOL0     C58783  -2.032  10.937   3.562  0.0255 -0.2045 -0.1263
  446MOL0    Cl58784  -2.158  10.857   3.456 -0.1357  0.1073 -0.0385
  446MOL0     C58785  -0.911  10.938   3.436 -0.8585 -0.7370  0.1617
  446MOL0     C58786  -0.784  10.879   3.406  0.6533  0.1387 -0.6393
  446MOL0     O58787  -0.628  10.770   3.034 -0.6444  0.4831  0.0670
  446MOL0     C58788  -0.354  10.710   3.252 -0.1444  0.4217 -0.2297
  446MOL0     C58789  -0.224  10.665   3.242 -0.2030 -0.3423  0.3037
  446MOL0     N58790   0.381  10.519   3.615  0.6985 -1.2251  0.5915
  446MOL0     N58791   0.454  10.458   3.707  0.3268 -0.2461 -0.3377
  446MOL0     C58792   1.400  10.035   3.373  0.1626  0.3655 -0.3670
  446MOL0     C58793   1.525  10.098   3.363 -0.1018  0.7778  0.0164
  446MOL0     C58794   1.955  10.242   3.344 -0.0496 -0.5587  1.0563
  446MOL0     C58795   2.020  10.333   3.260 -0.3793  0.7284  0.3839
  446MOL0     C58796   2.150  10.371   3.281  0.0317 -0.5286 -0.8855
  446MOL0     C58797   2.214  10.327   3.399 -0.3689 -0.1599 -0.7863
  446MOL0     O58798   2.342  10.362   3.437 -0.4415 -0.4057  0.0429
  446MOL0     C58799   2.398  10.484   3.380 -0.0401 -0.6452 -0.2868
  446MOL0     C58800   2.508  10.544   3.468  0.4462 -0.1771  0.7048
  446MOL0     C58801   2.629  10.460   3.509  0.7195  0.5486  0.3702
  446MOL0     C58802   2.737  10.549   3.568  0.5225 -0.0380  0.0859
  446MOL0     C58803   2.695  10.582   3.706  0.2823  0.3509  0.0304
  446MOL0     C58804   2.653  10.596   3.818  1.1475  0.0071 -0.4180
  446MOL0     C58805   2.149  10.254   3.495  0.0805  0.1898  0.9097
  446MOL0     C58806   2.022  10.208   3.462  0.2211  0.3736 -0.2141
  446MOL0     H58807   1.725   9.832   3.410  2.0250  4.1523  3.4574
  446MOL0     H58808   1.501   9.709   3.418 -0.3759 -0.0182  0.8312
  446MOL0     H58809   1.340   9.779   3.589  0.0387 -5.1251  0.2197
  446MOL0     H58810   1.225   9.673   3.510  0.7589 -0.3144  0.4247
  446MOL0     H58811   1.130   9.752   3.706 -0.5837 -1.8019 -0.0011
  446MOL0     H58812   1.031   9.794   3.570 -0.0630  1.3277  0.8609
  446MOL0     H58813   1.134  10.014   3.546 -1.7598 -3.5827 -1.8267
  446MOL0     H58814   1.204  10.005   3.695 -1.2320  1.9030 -0.8304
  446MOL0     H58815   0.967   9.952   3.794 -0.1597 -0.0380 -0.9924
  446MOL0     H58816   1.024  10.117   3.750 -0.8707  0.4290  0.2416
  446MOL0     H58817   0.825   9.953   3.590 -1.7731  1.2565 -0.4927
  446MOL0     H58818   0.918  10.096   3.538  3.4619  2.3244  2.1734
  446MOL0     H58819   0.836  10.182   3.780  1.1869  2.1512 -2.5619
  446MOL0     H58820   0.715  10.037   3.767 -0.3201 -0.1527 -1.4270
  446MOL0     H58821   0.747  10.244   3.552  0.2412  1.4389  1.2662
  446MOL0     H58822   0.638  10.107   3.566  1.7659 -1.8301 -0.6178
  446MOL0     H58823   0.693  10.358   3.737 -0.1442  1.3413  0.5417
  446MOL0     H58824   0.576  10.235   3.802  0.2692 -0.1580  0.5763
  446MOL0     H58825   0.513  10.263   3.442  0.5183  1.4595 -2.5792
  446MOL0     H58826   0.197  10.474   3.424 -0.2912  1.0971  0.9398
  446MOL0     H58827   0.306  10.381   3.314  0.4005 -0.6837  1.2670
  446MOL0     H58828   0.409  10.593   3.256 -0.0140 -0.5674  0.9879
  446MOL0     H58829   0.279  10.682   3.355 -1.1554 -0.3803  0.0936
  446MOL0     H58830   0.236  10.656   3.098  1.4026 -0.8095 -0.7131
  446MOL0     H58831   0.199  10.493   3.138 -1.3710  1.8230 -2.5785
  446MOL0     H58832   0.074  10.745   3.228  0.8770 -0.2309 -1.5145
  446MOL0     H58833   0.030  10.575   3.297 -1.1516 -1.9495 -1.4104
  446MOL0     H58834  -0.172  10.679   2.911  2.0563  1.3119  0.3126
  446MOL0     H58835  -0.421  10.729   2.921  1.1730 -1.5662 -0.3515
  446MOL0     H58836  -0.861  10.765   3.092 -1.4128  1.4178 -0.9077
  446MOL0     H58837  -1.065  10.853   3.142  0.0929  0.4132  0.2863
  446MOL0     H58838  -1.236  10.802   3.323 -2.2320 -0.3950  2.2100
  446MOL0     H58839  -1.271  10.933   3.218 -1.4218 -2.7230 -0.3631
  446MOL0     H58840  -1.362  11.041   3.447  0.1768 -1.5066 -0.2735
  446MOL0     H58841  -1.384  10.862   3.466  2.1246 -0.8759  1.0060
  446MOL0     H58842  -1.512  10.864   3.263  1.3874  1.0756 -1.5199
  446MOL0     H58843  -1.495  11.041   3.235 -1.6323  0.6480 -0.0134
  446MOL0     H58844  -1.625  10.907   3.480 -1.2748  1.4996  2.9141
  446MOL0     H58845  -1.597  11.088   3.438  2.0412 -1.1845  2.2145
  446MOL0     H58846  -1.751  10.873   3.279 -0.6072  0.9521  0.1008
  446MOL0     H58847  -1.722  11.043   3.233  3.8594  1.6912  1.7660
  446MOL0     H58848  -1.940  11.004   3.329  0.3594 -1.2468  0.4725
  446MOL0     H58849  -1.857  11.120   3.430 -2.4470 -0.0905  2.9962
  446MOL0     H58850  -1.881  10.809   3.479  1.4495 -0.3787 -1.4915
  446MOL0     H58851  -1.815  10.926   3.592 -0.0384  0.8052 -1.0335
  446MOL0     H58852  -2.050  11.045   3.557  1.0027 -0.0735 -1.1074
  446MOL0     H58853  -2.042  10.903   3.666 -0.2596  1.1724  0.3155
  446MOL0     H58854  -0.923  10.983   3.534  0.4251 -1.4901  0.6917
  446MOL0     H58855  -0.708  10.870   3.483 -0.2589  0.4318  0.3231
  446MOL0     H58856  -0.396  10.713   3.352  0.7440  2.5242  0.1452
  446MOL0     H58857  -0.176  10.647   3.338 -0.1423  2.0447  0.7776
  446MOL0     H58858   1.312  10.099   3.369  1.4473  2.2535 -0.1087
  446MOL0     H58859   1.537  10.206   3.359  1.2279  0.6028 -1.4827
  446MOL0     H58860   1.972  10.366   3.168 -0.9471 -2.6401 -0.6511
  446MOL0     H58861   2.203  10.440   3.216  1.4465 -0.7650 -0.0154
  446MOL0     H58862   2.320  10.561   3.376 -1.8504 -2.4520 -2.5317
  446MOL0     H58863   2.444  10.466   3.283 -0.8883  0.4112 -0.9151
  446MOL0     H58864   2.541  10.633   3.413  1.8269 -2.3039 -2.1688
  446MOL0     H58865   2.461  10.581   3.559  0.7397 -0.6384  1.0449
  446MOL0     H58866   2.679  10.412   3.424  3.5363  0.9012  1.7291
  446MOL0     H58867   2.594  10.381   3.576 -2.2932  1.4014 -0.0525
  446MOL0     H58868   2.830  10.492   3.564  0.3577 -0.2658 -0.6561
  446MOL0     H58869   2.753  10.635   3.502 -1.7273  0.6288  0.3350
  446MOL0     H58870   2.611  10.611   3.916 -0.6072 -1.6460 -0.8544
  446MOL0     H58871   2.205  10.222   3.582  2.0602 -0.4908 -0.5291
  446MOL0     H58872   1.978  10.140   3.535 -2.1978  3.0012  0.9770
  447MOL0     O58873  10.127   3.672   7.241  0.5585 -0.4015 -0.0613
  447MOL0     C58874  10.143   3.734   7.141 -0.0519  0.4711  0.1121
  447MOL0     O58875  10.043   3.800   7.072  0.0321 -0.1681 -0.9911
  447MOL0     C58876   9.913   3.779   7.108 -0.1748 -0.1144  0.1476
  447MOL0     C58877   9.823   3.871   7.051 -0.1487 -0.0579 -0.1909
  447MOL0     C58878   9.688   3.857   7.070 -0.1471 -0.2641 -0.5243
  447MOL0     C58879   9.636   3.753   7.143 -0.0972  0.1600 -0.0470
  447MOL0     O58880   9.494   3.751   7.152  0.7680 -0.1441 -0.2278
  447MOL0     C58881   9.433   3.653   7.238 -0.8986  1.2786 -0.0701
  447MOL0     C58882   9.286   3.690   7.268 -0.7245  0.6365 -0.9793
  447MOL0     C58883   9.216   3.623   7.393 -0.5475 -0.4649 -0.7027
  447MOL0     C58884   9.179   3.478   7.360  0.4770 -0.0987  0.3597
  447MOL0     C58885   9.108   3.389   7.469 -0.7037 -1.1058  0.1697
  447MOL0     C58886   8.964   3.426   7.501  0.4580 -0.5235  0.9646
  447MOL0     C58887   8.871   3.398   7.381 -0.2435 -1.0853 -0.8245
  447MOL0     C58888   8.850   3.241   7.365 -0.0854  0.4984  0.2681
  447MOL0     N58889   8.716   3.192   7.424  0.4936 -0.6495  0.7568
  447MOL0     C58890   8.596   3.229   7.371 -0.3219 -0.3201  0.2981
  447MOL0     C58891   8.508   3.134   7.426 -1.3740 -1.3161 -1.0542
  447MOL0     C58892   8.362   3.121   7.403  0.4139  0.2294  0.2306
  447MOL0     C58893   8.352   3.027   7.284 -0.6644  0.6076  0.4004
  447MOL0     C58894   8.371   2.879   7.331 -0.7785 -0.0847  0.4227
  447MOL0     C58895   8.238   2.836   7.400 -0.1310  0.6834 -0.2043
  447MOL0     O58896   8.141   2.810   7.302  0.4943 -0.3731 -0.4390
  447MOL0     C58897   8.003   2.805   7.335 -0.5799  0.5596  0.0604
  447MOL0     C58898   7.951   2.790   7.467  0.5086 -0.3481  0.0344
  447MOL0     C58899   7.815   2.796   7.489 -0.4363  0.4880 -0.3160
  447MOL0     C58900   7.727   2.814   7.382  0.0960 -0.1535  0.8709
  447MOL0     C58901   7.579   2.781   7.396  0.0713  0.3188  0.6837
  447MOL0     O58902   7.528   2.771   7.516  0.4435 -0.4657 -0.0626
  447MOL0     C58903   7.396   2.723   7.529 -0.0148 -0.2660  0.2391
  447MOL0     C58904   7.335   2.618   7.461  0.2654  0.7283  0.0060
  447MOL0     C58905   7.201   2.593   7.481  0.1989  0.0712 -0.4759
  447MOL0     C58906   7.132   2.665   7.586  1.0277  0.0426  0.5936
  447MOL0     O58907   6.995   2.645   7.582  0.1051 -0.0971 -0.5154
  447MOL0     C58908   6.906   2.729   7.672 -0.0947 -0.5353 -0.2064
  447MOL0     C58909   6.763   2.685   7.675  0.6755  0.4822  0.1435
  447MOL0     C58910   6.679   2.743   7.773  0.4209  0.3382 -0.3689
  447MOL0     C58911   6.525   2.706   7.744 -0.3610 -0.5726 -0.9216
  447MOL0     C58912   6.424   2.687   7.864  0.1586  0.3568 -0.2383
  447MOL0     C58913   6.446   2.555   7.938 -0.0013 -0.2836  0.8723
  447MOL0     C58914   6.315   2.533   8.017  0.2414  0.3693  0.3497
  447MOL0     C58915   6.321   2.418   8.120 -0.0861  0.0846  0.4467
  447MOL0    Cl58916   6.440   2.479   8.245 -0.1462 -0.3695  0.0039
  447MOL0     C58917   7.194   2.762   7.656  0.0084 -0.0049 -0.5607
  447MOL0     C58918   7.332   2.782   7.633  0.0453  0.1975  0.0079
  447MOL0     O58919   7.526   2.758   7.291  0.5404  0.3574  0.4746
  447MOL0     C58920   7.783   2.831   7.254  0.4999  0.3971 -0.1558
  447MOL0     C58921   7.920   2.818   7.228  0.0157  0.0456 -0.3399
  447MOL0     N58922   8.589   3.052   7.512  0.1848  0.4929  0.3936
  447MOL0     N58923   8.712   3.084   7.502  0.2672  0.5819 -0.2430
  447MOL0     C58924   9.725   3.660   7.197  0.3324  0.1853  0.6087
  447MOL0     C58925   9.859   3.676   7.180  0.0171  0.1862 -0.9164
  447MOL0     C58926  10.280   3.749   7.088 -0.0888  0.1527 -0.1586
  447MOL0     C58927  10.397   3.711   7.167  0.5372  0.4168  0.2201
  447MOL0     C58928  10.528   3.744   7.125 -0.0390  0.5956 -1.0760
  447MOL0     C58929  10.545   3.798   6.999 -0.6189 -0.8516  0.3315
  447MOL0     O58930  10.673   3.824   6.948  1.0528  0.3633  0.5654
  447MOL0     C58931  10.789   3.767   7.020 -0.3330  1.1290  0.2800
  447MOL0     C58932  10.908   3.752   6.926  0.6835  0.6810  0.3115
  447MOL0     C58933  10.999   3.866   6.911 -0.1463 -0.3921 -0.3180
  447MOL0     C58934  10.933   3.986   6.849  0.9350 -0.4356 -0.4206
  447MOL0     C58935  11.031   4.086   6.802  0.3414 -0.4031  0.1184
  447MOL0     C58936  11.115   4.167   6.767  0.1571  0.5973  0.8442
  447MOL0     C58937  10.438   3.835   6.914  0.3182 -0.2458 -0.7271
  447MOL0     C58938  10.310   3.809   6.964  0.1637  0.0139  1.0642
  447MOL0     H58939   9.864   3.947   6.985  1.8094 -2.9210 -2.5469
  447MOL0     H58940   9.626   3.938   7.035 -3.4419 -1.9565  0.8971
  447MOL0     H58941   9.486   3.660   7.334 -0.0400 -0.2863 -0.4039
  447MOL0     H58942   9.453   3.558   7.189 -0.7259 -0.1662  2.6121
  447MOL0     H58943   9.217   3.679   7.184 -2.6837  2.0988  0.3485
  447MOL0     H58944   9.285   3.797   7.288 -1.4689  0.2268  1.6020
  447MOL0     H58945   9.129   3.685   7.418 -1.0865 -1.5334  0.1240
  447MOL0     H58946   9.290   3.635   7.474  2.3933 -0.3726 -3.2100
  447MOL0     H58947   9.116   3.470   7.271 -0.9468 -3.5035  1.5108
  447MOL0     H58948   9.272   3.422   7.344 -0.1848 -1.0928 -0.0896
  447MOL0     H58949   9.161   3.409   7.563  0.5701 -3.1268 -0.0815
  447MOL0     H58950   9.117   3.283   7.445 -0.8058 -0.5667 -2.5112
  447MOL0     H58951   8.947   3.532   7.524 -1.6424 -0.9469  1.5938
  447MOL0     H58952   8.941   3.371   7.593  0.4674  0.8211  1.8057
  447MOL0     H58953   8.776   3.445   7.407  1.5428  1.3249  2.0048
  447MOL0     H58954   8.915   3.437   7.289  3.1956  2.8594  2.0452
  447MOL0     H58955   8.923   3.172   7.408 -0.7568  0.2810  1.0832
  447MOL0     H58956   8.849   3.221   7.257  0.3914 -0.8352  0.4893
  447MOL0     H58957   8.575   3.312   7.303  0.6823 -1.1972 -1.1406
  447MOL0     H58958   8.301   3.212   7.400  0.4062  0.3090  1.7650
  447MOL0     H58959   8.327   3.069   7.493  1.2434 -2.2603 -0.8174
  447MOL0     H58960   8.410   3.060   7.198 -0.3876 -0.5251  0.1322
  447MOL0     H58961   8.246   3.028   7.255 -0.6369 -0.2511  0.2241
  447MOL0     H58962   8.403   2.815   7.248 -1.1306 -1.0810  1.0356
  447MOL0     H58963   8.453   2.864   7.401 -0.3513 -1.1755 -0.2725
  447MOL0     H58964   8.216   2.909   7.479  3.8876  1.5668  0.3245
  447MOL0     H58965   8.252   2.744   7.458  1.2895  0.7753 -0.3652
  447MOL0     H58966   8.029   2.766   7.538  2.9207  0.8503 -2.0342
  447MOL0     H58967   7.780   2.773   7.589  1.8980  1.9516  0.9486
  447MOL0     H58968   7.394   2.563   7.388  1.0352 -3.0989  3.1800
  447MOL0     H58969   7.145   2.531   7.412 -0.0375 -0.7725  0.4482
  447MOL0     H58970   6.900   2.835   7.644  1.7565  0.2112  1.9048
  447MOL0     H58971   6.937   2.738   7.776 -0.0276  2.2100 -0.3804
  447MOL0     H58972   6.759   2.576   7.681  0.2779  0.3094 -2.3978
  447MOL0     H58973   6.732   2.710   7.573  0.3793  2.3624  0.6476
  447MOL0     H58974   6.696   2.850   7.789  3.2645 -0.3554  2.2318
  447MOL0     H58975   6.708   2.691   7.865 -2.2615 -0.0512  0.3339
  447MOL0     H58976   6.489   2.788   7.681 -1.6868  1.2675  2.0610
  447MOL0     H58977   6.521   2.609   7.693 -4.6374 -0.4393 -1.1751
  447MOL0     H58978   6.325   2.679   7.819 -0.6666  1.3099  1.2862
  447MOL0     H58979   6.426   2.767   7.939  2.6381 -1.5137  1.8937
  447MOL0     H58980   6.526   2.568   8.012  2.5082 -3.2638 -1.0952
  447MOL0     H58981   6.473   2.470   7.875 -1.0542  0.1748 -0.2319
  447MOL0     H58982   6.274   2.627   8.056 -0.0285  0.1609  0.5684
  447MOL0     H58983   6.241   2.503   7.942 -0.3629  0.0883  1.0521
  447MOL0     H58984   6.352   2.321   8.078  0.2227 -0.3025  1.5365
  447MOL0     H58985   6.223   2.407   8.166 -1.3220 -0.4186 -2.1343
  447MOL0     H58986   7.141   2.810   7.737  0.8227 -2.0797  1.3113
  447MOL0     H58987   7.389   2.851   7.694 -2.0673 -0.1974  2.6382
  447MOL0     H58988   7.733   2.841   7.158  0.8518 -2.0148 -0.6622
  447MOL0     H58989   7.967   2.827   7.131 -1.5313  0.5496 -1.0884
  447MOL0     H58990   9.683   3.568   7.237  2.4072 -0.8696  0.5263
  447MOL0     H58991   9.918   3.599   7.230 -2.9847 -0.6258  1.7234
  447MOL0     H58992  10.376   3.673   7.266  0.5085  2.3365  1.0090
  447MOL0     H58993  10.604   3.720   7.199  0.3793 -1.8832 -2.2371
  447MOL0     H58994  10.764   3.667   7.056 -0.6380  0.8899 -0.5586
  447MOL0     H58995  10.803   3.833   7.105 -1.1639  1.7838 -0.0751
  447MOL0     H58996  10.953   3.660   6.964 -1.6634 -0.2792  0.9837
  447MOL0     H58997  10.863   3.733   6.828 -0.0656 -1.3184  0.9924
  447MOL0     H58998  11.083   3.838   6.847 -0.2226  0.2379 -0.7058
  447MOL0     H58999  11.037   3.888   7.011  1.1901  1.5379 -1.1976
  447MOL0     H59000  10.873   3.951   6.765  0.5988 -1.5450  0.2690
  447MOL0     H59001  10.872   4.043   6.921  2.8418  0.7126  0.3768
  447MOL0     H59002  11.194   4.233   6.736  0.7289  0.0317  1.0655
  447MOL0     H59003  10.461   3.896   6.827  2.2185 -0.4413 -0.4023
  447MOL0     H59004  10.233   3.847   6.897  2.3966  3.2791  0.1353
  448MOL0     O59005   4.450  11.312   8.165  0.1703 -0.6368 -0.2404
  448MOL0     C59006   4.503  11.293   8.057  0.0587 -0.0790 -0.1804
  448MOL0     O59007   4.485  11.181   7.979  0.3989 -0.9863  0.8607
  448MOL0     C59008   4.394  11.083   7.994  0.0108 -0.4076 -0.0555
  448MOL0     C59009   4.274  11.104   8.076  0.5835 -0.0451  0.8254
  448MOL0     C59010   4.192  10.997   8.102  0.3288 -0.4861 -0.2179
  448MOL0     C59011   4.226  10.869   8.059  0.2806  0.2944  0.4096
  448MOL0     O59012   4.162  10.754   8.099 -0.0646 -0.3989 -0.7202
  448MOL0     C59013   4.020  10.765   8.100  0.6757 -0.4215 -0.3549
  448MOL0     C59014   3.973  10.619   8.145 -0.7701 -0.5575 -0.6947
  448MOL0     C59015   3.817  10.600   8.133 -0.5020 -0.5597 -0.7709
  448MOL0     C59016   3.770  10.463   8.183 -0.2143 -0.6158  0.0652
  448MOL0     C59017   3.621  10.455   8.208  0.5300 -0.2033 -0.0735
  448MOL0     C59018   3.540  10.495   8.078  0.5524 -0.2435 -0.1357
  448MOL0     C59019   3.416  10.405   8.070 -0.3570  0.1939  0.5439
  448MOL0     C59020   3.355  10.405   7.925  0.3229  0.8569 -0.3627
  448MOL0     N59021   3.218  10.462   7.939 -0.3589  0.3644  0.5039
  448MOL0     C59022   3.188  10.580   8.002  0.7380  0.2265  0.0804
  448MOL0     C59023   3.051  10.581   7.997 -0.4998  0.1165 -0.4889
  448MOL0     C59024   2.957  10.678   8.059  0.1451 -0.8160  0.2819
  448MOL0     C59025   2.824  10.614   8.099 -0.2192  0.2451 -0.4697
  448MOL0     C59026   2.707  10.700   8.103 -0.8268  0.3139 -0.5440
  448MOL0     C59027   2.591  10.625   8.167 -0.0262 -0.5590 -0.8641
  448MOL0     O59028   2.491  10.723   8.213  0.7734 -0.3816  0.2093
  448MOL0     C59029   2.357  10.700   8.190 -0.4572  0.9828  0.0061
  448MOL0     C59030   2.269  10.802   8.159  0.1928  0.5444  0.0577
  448MOL0     C59031   2.135  10.779   8.131 -0.3003 -0.8698  0.4747
  448MOL0     C59032   2.072  10.651   8.143 -0.0611 -0.5847 -0.4331
  448MOL0     C59033   1.934  10.634   8.144  0.4067  0.4974  0.4245
  448MOL0     O59034   1.889  10.520   8.192  0.0154  0.9345  0.3669
  448MOL0     C59035   1.761  10.501   8.215  1.2500 -0.6656 -0.7879
  448MOL0     C59036   1.713  10.370   8.189  0.5491 -0.1132 -0.2300
  448MOL0     C59037   1.583  10.332   8.224  0.2483 -0.4506 -0.0264
  448MOL0     C59038   1.493  10.424   8.290  0.3567 -0.2767 -0.1430
  448MOL0     O59039   1.369  10.380   8.313  0.4469  0.7305 -0.6484
  448MOL0     C59040   1.315  10.434   8.432 -0.3986  0.5792  0.2543
  448MOL0     C59041   1.192  10.378   8.493 -0.5349 -0.2285 -0.2494
  448MOL0     C59042   1.174  10.225   8.461  0.0308  0.6607  0.2561
  448MOL0     C59043   1.028  10.171   8.487  0.0644 -0.3843 -0.2298
  448MOL0     C59044   1.008  10.037   8.400 -0.2303 -0.5085  0.1083
  448MOL0     C59045   0.878   9.963   8.430  0.5500  0.1884 -0.1300
  448MOL0     C59046   0.862   9.824   8.361  0.5999 -1.0235 -0.9393
  448MOL0     C59047   0.705   9.812   8.341  0.3309  0.3899 -0.0034
  448MOL0    Cl59048   0.668   9.634   8.323  0.1092  0.1775  0.1928
  448MOL0     C59049   1.534  10.559   8.297 -1.0753  0.7004 -0.8311
  448MOL0     C59050   1.661  10.594   8.254  0.5500  0.0306  0.3361
  448MOL0     O59051   1.866  10.722   8.090 -1.0326 -0.0917  0.3502
  448MOL0     C59052   2.160  10.548   8.172  0.4980  1.0020 -0.2878
  448MOL0     C59053   2.297  10.572   8.195  0.2261 -0.1525 -0.0694
  448MOL0     N59054   3.010  10.457   7.934 -0.5005  0.1795  1.1307
  448MOL0     N59055   3.112  10.385   7.910 -0.7981  0.3155 -0.2331
  448MOL0     C59056   4.334  10.849   7.974 -0.0337 -0.8676  0.2309
  448MOL0     C59057   4.415  10.957   7.940  0.5817  1.0207 -0.3531
  448MOL0     C59058   4.611  11.385   8.020  0.9875  0.5203 -0.6278
  448MOL0     C59059   4.633  11.502   8.090 -1.0782 -0.1108  0.6597
  448MOL0     C59060   4.730  11.593   8.052  0.8934  0.3719  0.3902
  448MOL0     C59061   4.822  11.570   7.949  0.0549  0.0467  0.9439
  448MOL0     O59062   4.920  11.658   7.929  0.6143  0.0417  0.4384
  448MOL0     C59063   4.989  11.647   7.808  0.1020  0.5766 -0.4042
  448MOL0     C59064   5.089  11.759   7.814  0.0388 -0.2842  0.1326
  448MOL0     C59065   5.141  11.772   7.664 -0.7869 -0.3914 -0.3059
  448MOL0     C59066   5.225  11.902   7.667  0.3387  0.0226  0.1408
  448MOL0     C59067   5.263  11.933   7.527  0.1639  0.0104 -1.4950
  448MOL0     C59068   5.285  11.958   7.413 -0.2672 -0.1540  0.4291
  448MOL0     C59069   4.808  11.441   7.888 -0.6233  0.5218 -0.6783
  448MOL0     C59070   4.710  11.351   7.929  0.7076  0.2459  0.4901
  448MOL0     H59071   4.253  11.199   8.125 -2.1912  1.2652 -2.4708
  448MOL0     H59072   4.105  11.008   8.166 -0.4267 -2.4304 -0.8127
  448MOL0     H59073   3.976  10.791   8.003 -0.6313 -0.2925  0.2553
  448MOL0     H59074   3.982  10.832   8.177 -1.7113 -1.5630 -0.4560
  448MOL0     H59075   4.018  10.581   8.237  1.0056  0.1796 -1.2238
  448MOL0     H59076   4.013  10.546   8.074 -1.5053 -1.5646 -0.0972
  448MOL0     H59077   3.800  10.597   8.025  0.8888 -1.1949 -1.0035
  448MOL0     H59078   3.772  10.686   8.184  1.0779  1.2587 -2.2492
  448MOL0     H59079   3.788  10.391   8.103 -2.3014 -0.6160 -0.4445
  448MOL0     H59080   3.822  10.423   8.270  0.6398  0.7563  0.2279
  448MOL0     H59081   3.582  10.525   8.283 -1.1056 -0.8103 -0.3179
  448MOL0     H59082   3.582  10.364   8.253 -2.3401  1.0016  0.1182
  448MOL0     H59083   3.606  10.470   7.994  1.1492  1.9432 -0.3824
  448MOL0     H59084   3.504  10.598   8.071 -1.4712 -0.7384  1.9664
  448MOL0     H59085   3.450  10.303   8.089 -0.7882 -0.4508 -1.8573
  448MOL0     H59086   3.340  10.435   8.142  0.5313  0.3497  1.4458
  448MOL0     H59087   3.354  10.299   7.899  0.8541  1.0636 -1.2688
  448MOL0     H59088   3.412  10.466   7.855 -0.2423  0.0361 -1.5804
  448MOL0     H59089   3.244  10.657   8.054 -1.6073  5.1624 -3.8327
  448MOL0     H59090   2.951  10.763   7.991  0.5616 -0.1975  1.0010
  448MOL0     H59091   3.008  10.722   8.145  2.4594  2.4939 -2.5209
  448MOL0     H59092   2.843  10.573   8.198  1.2861  3.5435  0.7355
  448MOL0     H59093   2.803  10.532   8.029 -0.3018 -1.0441  1.0319
  448MOL0     H59094   2.729  10.780   8.175 -0.0815 -0.6230  0.3062
  448MOL0     H59095   2.679  10.733   8.003  1.0486  2.7995 -0.3639
  448MOL0     H59096   2.611  10.558   8.251 -1.9427 -0.8754 -0.6154
  448MOL0     H59097   2.551  10.560   8.088 -0.7842 -0.8064 -0.2834
  448MOL0     H59098   2.310  10.902   8.152 -0.2399  0.5998 -2.7554
  448MOL0     H59099   2.068  10.859   8.100  0.2316  0.2682  2.1320
  448MOL0     H59100   1.788  10.306   8.144 -0.3829 -1.5608  0.2237
  448MOL0     H59101   1.557  10.227   8.211  0.9831 -0.7452  0.7947
  448MOL0     H59102   1.284  10.536   8.409  0.8005  0.5146 -1.9318
  448MOL0     H59103   1.390  10.440   8.512  0.1345 -2.2608  0.0779
  448MOL0     H59104   1.103  10.440   8.480  0.4395  2.0079  2.7469
  448MOL0     H59105   1.217  10.384   8.599  0.1097  2.8547 -0.4961
  448MOL0     H59106   1.239  10.160   8.519 -0.7514 -0.5557 -0.1900
  448MOL0     H59107   1.191  10.204   8.354 -0.2954 -0.1540  0.3550
  448MOL0     H59108   1.006  10.149   8.592 -1.3460 -2.2930 -0.8516
  448MOL0     H59109   0.953  10.245   8.457 -0.5311 -0.8065  0.1702
  448MOL0     H59110   1.095   9.975   8.424  0.4636  1.7902  4.7144
  448MOL0     H59111   1.021  10.051   8.293  2.7271 -0.4839  0.3873
  448MOL0     H59112   0.801  10.031   8.393  1.3464  0.9642 -0.3941
  448MOL0     H59113   0.880   9.943   8.537  2.8881  0.3657 -0.1007
  448MOL0     H59114   0.917   9.823   8.266 -1.1925 -1.4618 -2.0317
  448MOL0     H59115   0.899   9.743   8.425  0.2962 -0.1355  0.3945
  448MOL0     H59116   0.666   9.872   8.258 -0.5854 -0.9430 -0.5781
  448MOL0     H59117   0.656   9.840   8.435 -1.1182 -4.5221  1.0242
  448MOL0     H59118   1.476  10.640   8.340 -1.3992  0.3816 -0.6612
  448MOL0     H59119   1.683  10.699   8.275 -0.9909  0.4125  0.2022
  448MOL0     H59120   2.108  10.454   8.186 -2.5303  2.7578  1.1499
  448MOL0     H59121   2.348  10.478   8.210 -0.1100 -0.3129  0.0731
  448MOL0     H59122   4.352  10.754   7.925 -0.3519 -1.0259  0.4169
  448MOL0     H59123   4.496  10.942   7.870  2.4270  1.6686  1.5354
  448MOL0     H59124   4.581  11.531   8.181  1.1350 -0.1010  1.9866
  448MOL0     H59125   4.716  11.691   8.096 -0.1750  0.3125  0.2067
  448MOL0     H59126   4.922  11.641   7.722  1.2198  2.8886 -1.5250
  448MOL0     H59127   5.045  11.555   7.792 -1.6022 -0.7455  0.7196
  448MOL0     H59128   5.039  11.849   7.850 -0.0978 -0.3164  0.0245
  448MOL0     H59129   5.170  11.728   7.880 -0.2994 -0.5150  0.4412
  448MOL0     H59130   5.059  11.789   7.594 -0.1413 -0.4541 -1.0921
  448MOL0     H59131   5.202  11.689   7.627 -0.4648 -0.5463  0.5316
  448MOL0     H59132   5.155  11.978   7.701 -1.0457 -0.6410 -1.0644
  448MOL0     H59133   5.317  11.899   7.726  1.1815 -2.0751 -1.1395
  448MOL0     H59134   5.335  11.963   7.318 -1.1301 -1.2586 -0.0998
  448MOL0     H59135   4.878  11.408   7.812 -1.1917 -0.2895 -0.8677
  448MOL0     H59136   4.718  11.260   7.871 -2.3100 -0.0611  0.4156
  449MOL0     O59137   6.669   1.347   7.366  0.2724  0.1091 -0.5261
  449MOL0     C59138   6.705   1.375   7.479  0.8435  0.6843  0.3969
  449MOL0     O59139   6.617   1.394   7.587 -0.0343 -0.2262 -0.3512
  449MOL0     C59140   6.482   1.363   7.562 -0.4090 -0.2209 -0.0023
  449MOL0     C59141   6.397   1.459   7.601  0.1393 -0.1475 -0.2859
  449MOL0     C59142   6.268   1.437   7.588  0.0874  0.1247  0.3976
  449MOL0     C59143   6.210   1.319   7.554  0.1207  0.0786  0.2228
  449MOL0     O59144   6.076   1.289   7.536 -0.9741  0.6169 -0.1968
  449MOL0     C59145   5.990   1.380   7.595  0.1278  0.4428 -0.4635
  449MOL0     C59146   5.947   1.511   7.541 -0.3113 -0.3481  0.6291
  449MOL0     C59147   5.887   1.507   7.399 -0.0267  0.1028 -0.5527
  449MOL0     C59148   5.885   1.654   7.337  0.1038  0.0288 -0.6868
  449MOL0     C59149   5.796   1.644   7.223  0.6047  0.2864 -0.3394
  449MOL0     C59150   5.762   1.788   7.189  0.5458  0.5057  0.0028
  449MOL0     C59151   5.665   1.804   7.080 -0.0773 -0.1270 -0.4032
  449MOL0     C59152   5.644   1.955   7.048 -0.3851  0.0834 -0.5174
  449MOL0     N59153   5.547   1.984   6.945 -0.4892  0.2061  0.5138
  449MOL0     C59154   5.582   2.011   6.815  0.2013  0.1762 -0.2165
  449MOL0     C59155   5.466   2.052   6.758  0.0479 -1.1405 -0.4121
  449MOL0     C59156   5.443   2.043   6.610 -0.0570  0.6172  0.1791
  449MOL0     C59157   5.308   2.001   6.553  0.0893 -0.2132 -0.0970
  449MOL0     C59158   5.194   2.101   6.541  0.5693 -0.9446  0.1076
  449MOL0     C59159   5.100   2.055   6.432 -0.0932  1.0518 -0.4685
  449MOL0     O59160   4.965   2.102   6.458  0.3088  0.1164 -0.3578
  449MOL0     C59161   4.856   2.014   6.446  0.1156 -0.1000  0.3730
  449MOL0     C59162   4.750   2.007   6.536  0.5353  0.4343 -0.4356
  449MOL0     C59163   4.640   1.918   6.513 -0.9213 -0.8841  0.1386
  449MOL0     C59164   4.630   1.842   6.395  0.0562  0.4385  0.7750
  449MOL0     C59165   4.505   1.757   6.366 -0.8469  0.0804 -0.2276
  449MOL0     O59166   4.405   1.777   6.456  0.1655  0.2281 -0.2497
  449MOL0     C59167   4.300   1.693   6.438  0.0028 -0.2142  0.1877
  449MOL0     C59168   4.314   1.556   6.417  0.6820 -0.0879 -0.2783
  449MOL0     C59169   4.202   1.470   6.424  0.2455  0.1862 -0.2031
  449MOL0     C59170   4.076   1.520   6.444 -0.0372  0.0838  0.2600
  449MOL0     O59171   3.972   1.426   6.449 -0.3689  0.1926  0.4578
  449MOL0     C59172   3.856   1.455   6.376 -0.5375  0.3863 -0.0664
  449MOL0     C59173   3.779   1.337   6.326  0.4143 -0.0195  0.1027
  449MOL0     C59174   3.630   1.377   6.294 -0.6887 -0.1247 -0.1151
  449MOL0     C59175   3.607   1.430   6.152  1.5431  0.9869  0.0081
  449MOL0     C59176   3.460   1.411   6.134 -0.0131  0.2489  0.2925
  449MOL0     C59177   3.367   1.499   6.221 -0.5451 -0.0706 -0.0411
  449MOL0     C59178   3.231   1.509   6.158  0.2814 -0.6122  0.9216
  449MOL0     C59179   3.135   1.394   6.177  0.1541 -1.7132 -0.4295
  449MOL0    Cl59180   3.106   1.371   6.346 -0.1788 -0.3041 -0.3604
  449MOL0     C59181   4.065   1.661   6.455 -0.5770  1.0282 -0.1078
  449MOL0     C59182   4.176   1.745   6.456  0.3422 -0.9765 -0.3737
  449MOL0     O59183   4.505   1.696   6.262  0.7818  0.4820  0.0505
  449MOL0     C59184   4.728   1.856   6.296  0.6155  0.8586 -0.2170
  449MOL0     C59185   4.837   1.936   6.328 -1.5776  0.1148  0.0298
  449MOL0     N59186   5.364   2.047   6.856 -0.2126 -1.0446 -0.8227
  449MOL0     N59187   5.419   2.015   6.970  0.5186 -0.3744 -0.1797
  449MOL0     C59188   6.294   1.222   7.506  0.1402  1.0913 -0.5636
  449MOL0     C59189   6.434   1.241   7.509 -0.6554  0.4576 -0.3231
  449MOL0     C59190   6.851   1.397   7.505 -1.3316 -0.0227  0.6860
  449MOL0     C59191   6.883   1.466   7.618 -0.1328  0.0950  0.0246
  449MOL0     C59192   7.013   1.504   7.641 -0.1001  0.7552 -0.1397
  449MOL0     C59193   7.126   1.464   7.573 -0.7541  0.5473  0.3359
  449MOL0     O59194   7.249   1.510   7.621  0.4266  0.1254  0.0486
  449MOL0     C59195   7.368   1.462   7.555  0.3437 -0.3376  0.3514
  449MOL0     C59196   7.499   1.514   7.621 -1.0538  0.1612  0.0861
  449MOL0     C59197   7.627   1.445   7.553 -0.4996 -0.1998 -0.5229
  449MOL0     C59198   7.747   1.509   7.609 -0.4984 -0.1374  0.8998
  449MOL0     C59199   7.885   1.477   7.562 -0.1230  0.5958 -0.4012
  449MOL0     C59200   7.983   1.416   7.533 -0.0268 -0.8772  0.2809
  449MOL0     C59201   7.094   1.369   7.472 -0.4131 -0.8019 -0.3029
  449MOL0     C59202   6.958   1.347   7.426  0.1639 -1.4957 -1.1370
  449MOL0     H59203   6.437   1.555   7.633 -1.0466 -0.1830  1.4535
  449MOL0     H59204   6.200   1.519   7.611 -2.3411 -1.5551 -0.4297
  449MOL0     H59205   6.023   1.406   7.696 -2.9470  2.5240  0.1364
  449MOL0     H59206   5.897   1.328   7.619 -0.3595  1.0767 -0.9107
  449MOL0     H59207   6.033   1.577   7.524  0.8939 -2.3284 -1.5171
  449MOL0     H59208   5.871   1.543   7.613 -0.0763 -0.1584  0.7897
  449MOL0     H59209   5.793   1.454   7.417  2.0906 -3.6602  0.7960
  449MOL0     H59210   5.935   1.442   7.325 -3.0194 -1.0266 -1.6168
  449MOL0     H59211   5.854   1.724   7.415 -0.5435  0.7092 -1.5320
  449MOL0     H59212   5.983   1.695   7.312  0.1423  0.8088  0.6568
  449MOL0     H59213   5.704   1.591   7.252  0.3180  1.6698  1.4945
  449MOL0     H59214   5.838   1.589   7.138 -2.3222 -0.4139 -1.4538
  449MOL0     H59215   5.852   1.845   7.168 -0.9466  3.0331  0.0084
  449MOL0     H59216   5.726   1.842   7.277  0.0255  2.4301 -1.3356
  449MOL0     H59217   5.703   1.750   6.993  1.9792  0.0040  0.3700
  449MOL0     H59218   5.574   1.760   7.122  1.8291 -3.8183  0.3024
  449MOL0     H59219   5.735   1.999   7.007 -1.5797  2.5923 -0.6477
  449MOL0     H59220   5.617   2.005   7.142 -1.9762  0.3711 -1.1011
  449MOL0     H59221   5.680   2.000   6.768  1.5020  0.7946  2.2048
  449MOL0     H59222   5.505   1.958   6.580 -2.8260 -0.6622 -2.3395
  449MOL0     H59223   5.480   2.131   6.556  1.3383 -1.2431 -2.1078
  449MOL0     H59224   5.265   1.919   6.611 -1.1475  0.0395 -0.6229
  449MOL0     H59225   5.338   1.966   6.454  2.5556  2.4491 -0.4296
  449MOL0     H59226   5.135   2.107   6.632 -2.6420 -1.9810 -1.7346
  449MOL0     H59227   5.227   2.203   6.519 -1.4682 -0.4579 -0.9646
  449MOL0     H59228   5.087   1.947   6.439 -4.4388  1.4804  1.2418
  449MOL0     H59229   5.132   2.077   6.330  2.0673 -2.1874 -0.6341
  449MOL0     H59230   4.754   2.059   6.631 -0.2417 -3.4576  1.9797
  449MOL0     H59231   4.563   1.923   6.589 -1.4659  2.2871 -0.5102
  449MOL0     H59232   4.413   1.514   6.409  3.2341  4.8706  1.1797
  449MOL0     H59233   4.230   1.365   6.424 -0.8594 -0.1335 -1.0985
  449MOL0     H59234   3.882   1.509   6.284  2.7540  0.7351  0.9380
  449MOL0     H59235   3.798   1.520   6.442 -1.8583  0.8034 -1.5623
  449MOL0     H59236   3.779   1.264   6.408  0.7537 -1.6284 -1.2636
  449MOL0     H59237   3.833   1.283   6.248  2.5436 -0.7351  1.9817
  449MOL0     H59238   3.594   1.444   6.373 -0.7572  0.2476 -0.4592
  449MOL0     H59239   3.583   1.279   6.306  0.8442 -0.9429 -0.4777
  449MOL0     H59240   3.629   1.537   6.141 -1.5586  1.6315 -1.0327
  449MOL0     H59241   3.659   1.360   6.086 -1.6448 -0.4706 -1.1516
  449MOL0     H59242   3.422   1.311   6.156 -3.3148  1.2602 -0.3288
  449MOL0     H59243   3.438   1.427   6.028  0.6910  0.1720  0.1232
  449MOL0     H59244   3.412   1.596   6.240 -0.0342 -0.3522  0.2159
  449MOL0     H59245   3.363   1.449   6.318 -0.4518 -1.5116 -0.7403
  449MOL0     H59246   3.183   1.594   6.207 -1.9881  0.3587 -2.5917
  449MOL0     H59247   3.249   1.537   6.054  0.9505 -2.7263  0.4303
  449MOL0     H59248   3.183   1.306   6.133 -1.4731 -1.1169 -3.6702
  449MOL0     H59249   3.037   1.409   6.131 -0.7092 -0.1805  1.7405
  449MOL0     H59250   3.970   1.711   6.472 -0.5420  1.4382 -1.0265
  449MOL0     H59251   4.157   1.848   6.485  2.6666 -1.3363  2.9659
  449MOL0     H59252   4.724   1.804   6.200 -0.5316  0.2553  0.1394
  449MOL0     H59253   4.919   1.949   6.258 -2.2244 -2.3782 -1.3302
  449MOL0     H59254   6.258   1.128   7.466  2.6635 -0.8209  1.3596
  449MOL0     H59255   6.499   1.160   7.480 -0.6617 -0.8681  2.9524
  449MOL0     H59256   6.801   1.502   7.680 -0.2387 -0.0859 -0.0088
  449MOL0     H59257   7.012   1.559   7.734 -3.1028 -0.8529  0.9061
  449MOL0     H59258   7.368   1.494   7.451 -1.4350 -2.0349 -0.2191
  449MOL0     H59259   7.374   1.353   7.556  0.3281 -0.5254 -3.9844
  449MOL0     H59260   7.507   1.623   7.612 -0.3350  0.0689 -0.3991
  449MOL0     H59261   7.512   1.494   7.728 -0.9490  1.1398  0.2665
  449MOL0     H59262   7.625   1.458   7.445  1.6109 -2.0790 -0.8385
  449MOL0     H59263   7.623   1.339   7.581  2.2673 -0.3181 -0.3386
  449MOL0     H59264   7.749   1.617   7.592  2.2570 -0.2654 -0.1278
  449MOL0     H59265   7.744   1.505   7.719 -1.8111  2.9773  1.0734
  449MOL0     H59266   8.058   1.347   7.499 -0.7871 -0.8859 -1.4810
  449MOL0     H59267   7.180   1.323   7.425  1.8903  1.7588  1.1055
  449MOL0     H59268   6.944   1.284   7.340  2.0626  1.8342 -4.1366
  450MOL0     O59269   3.525   0.972  11.208  0.4638 -0.5217 -0.0866
  450MOL0     C59270   3.547   1.092  11.248 -0.1630 -0.5722  0.2765
  450MOL0     O59271   3.458   1.194  11.261 -0.1356  0.0871  0.3018
  450MOL0     C59272   3.321   1.174  11.265 -0.2349  0.4935  0.4239
  450MOL0     C59273   3.241   1.289  11.237  0.1624 -0.0693  0.2888
  450MOL0     C59274   3.098   1.279  11.232 -0.1739  0.0420 -0.2974
  450MOL0     C59275   3.045   1.156  11.267 -0.1319  0.1512  0.2656
  450MOL0     O59276   2.915   1.124  11.289  0.5193 -0.2094  0.6215
  450MOL0     C59277   2.827   1.165  11.179 -0.0533  0.5722 -0.0726
  450MOL0     C59278   2.833   1.061  11.061 -0.7062  0.1083  0.3836
  450MOL0     C59279   2.773   0.927  11.112 -0.0600 -0.0333  0.1738
  450MOL0     C59280   2.798   0.801  11.023  0.4643 -0.4853 -0.2463
  450MOL0     C59281   2.785   0.667  11.097  0.4167  1.0421 -0.1444
  450MOL0     C59282   2.748   0.553  10.996  0.0783 -0.0796  0.1755
  450MOL0     C59283   2.756   0.413  11.071  0.2469 -0.4829  0.4801
  450MOL0     C59284   2.657   0.320  11.003 -0.6304 -0.2776 -0.3437
  450MOL0     N59285   2.668   0.182  11.060  0.0466 -0.1857  0.0241
  450MOL0     C59286   2.749   0.082  11.008  0.1923 -0.5300 -0.2278
  450MOL0     C59287   2.743  -0.022  11.098  0.2781 -1.0641 -0.1847
  450MOL0     C59288   2.818  -0.154  11.091  0.7557 -0.2841 -0.0512
  450MOL0     C59289   2.963  -0.137  11.137  0.2068  0.0328  0.3307
  450MOL0     C59290   3.037  -0.261  11.126  0.0634 -0.2953  0.2327
  450MOL0     C59291   3.175  -0.257  11.187 -0.1981 -0.4266  0.2999
  450MOL0     O59292   3.240  -0.384  11.177 -0.6752  0.6141  0.0553
  450MOL0     C59293   3.373  -0.384  11.212  0.1037  0.4550  1.4262
  450MOL0     C59294   3.442  -0.496  11.156 -0.7231 -0.7717 -0.4257
  450MOL0     C59295   3.578  -0.487  11.144 -0.2279  0.3928 -0.5320
  450MOL0     C59296   3.661  -0.388  11.211  0.9095 -0.4530  0.2740
  450MOL0     C59297   3.814  -0.395  11.220  0.5911  0.4006  0.2736
  450MOL0     O59298   3.881  -0.290  11.280 -0.0004 -0.8586  0.0949
  450MOL0     C59299   4.015  -0.281  11.294  0.2637 -0.4539  0.0692
  450MOL0     C59300   4.072  -0.184  11.380  0.3719  0.2448 -0.0951
  450MOL0     C59301   4.211  -0.155  11.387  0.4220  0.9738  0.1748
  450MOL0     C59302   4.290  -0.236  11.321  0.9021  0.3244  0.5426
  450MOL0     O59303   4.420  -0.227  11.357 -0.7893  0.1072 -0.9103
  450MOL0     C59304   4.524  -0.302  11.295 -0.4226  0.3074 -0.2530
  450MOL0     C59305   4.647  -0.287  11.381 -0.5673  0.0127  1.0227
  450MOL0     C59306   4.755  -0.245  11.283 -0.2578  0.0726  0.4642
  450MOL0     C59307   4.877  -0.222  11.366 -0.8608 -0.2444 -0.2101
  450MOL0     C59308   4.990  -0.139  11.306  1.2823 -0.2948  0.4437
  450MOL0     C59309   5.120  -0.140  11.394 -0.3185 -0.8277  0.8056
  450MOL0     C59310   5.090  -0.120  11.548  0.6035  0.3775  0.3248
  450MOL0     C59311   5.202  -0.054  11.615 -0.3777  0.4326  0.0355
  450MOL0    Cl59312   5.352  -0.162  11.643 -0.7862  0.2538  0.7046
  450MOL0     C59313   4.244  -0.341  11.233  0.0275  0.2274 -0.3457
  450MOL0     C59314   4.106  -0.363  11.220 -0.2954 -0.4567 -0.0375
  450MOL0     O59315   3.859  -0.500  11.175 -0.1108  0.7834 -1.0311
  450MOL0     C59316   3.589  -0.276  11.264 -0.0137  0.7852 -0.3741
  450MOL0     C59317   3.451  -0.277  11.263  0.8888  0.4277 -0.0614
  450MOL0     N59318   2.670   0.017  11.212 -0.0354 -0.0092 -0.0016
  450MOL0     N59319   2.622   0.136  11.181  0.1735  0.2383  0.6053
  450MOL0     C59320   3.125   1.046  11.297  0.3711  0.6721  0.2179
  450MOL0     C59321   3.261   1.044  11.302  0.2130 -0.4461 -0.4468
  450MOL0     C59322   3.684   1.116  11.300 -0.5637 -0.0528  0.5139
  450MOL0     C59323   3.728   1.225  11.373 -0.2317 -0.0073  0.1936
  450MOL0     C59324   3.861   1.239  11.413  0.1589  0.3634 -0.3257
  450MOL0     C59325   3.958   1.147  11.379 -0.1644  0.5936 -1.4534
  450MOL0     O59326   4.083   1.156  11.423  0.0496  0.3235  0.3201
  450MOL0     C59327   4.148   1.277  11.400 -0.5076  0.2189 -0.5373
  450MOL0     C59328   4.289   1.258  11.348  0.7522 -0.8277 -0.1815
  450MOL0     C59329   4.390   1.230  11.466 -0.1329 -0.4646  0.0397
  450MOL0     C59330   4.522   1.166  11.412 -0.1614 -0.4475  0.1224
  450MOL0     C59331   4.613   1.143  11.517  0.0509 -0.7831  0.5909
  450MOL0     C59332   4.685   1.124  11.611 -0.1470 -0.1832  0.3907
  450MOL0     C59333   3.922   1.043  11.303  0.1094 -0.7992  0.3877
  450MOL0     C59334   3.788   1.028  11.256 -0.7597  0.0359  0.1958
  450MOL0     H59335   3.288   1.386  11.223  1.3886 -0.9459 -2.3607
  450MOL0     H59336   3.028   1.360  11.214  0.2243  0.7260  1.1325
  450MOL0     H59337   2.832   1.267  11.140 -0.9047 -0.0503 -1.9351
  450MOL0     H59338   2.729   1.161  11.228  2.3356 -0.0871  5.4051
  450MOL0     H59339   2.936   1.051  11.025 -0.6716  3.3563 -0.7821
  450MOL0     H59340   2.784   1.100  10.971 -0.1422  0.9356  0.4201
  450MOL0     H59341   2.666   0.932  11.135  0.6902  1.9579  4.1596
  450MOL0     H59342   2.830   0.903  11.202  0.6681 -0.6469 -0.4367
  450MOL0     H59343   2.721   0.785  10.946  0.9861  0.4503 -0.9841
  450MOL0     H59344   2.896   0.814  10.976  1.1160  0.2852  1.2660
  450MOL0     H59345   2.712   0.664  11.178  2.0934 -0.4040  1.4050
  450MOL0     H59346   2.880   0.627  11.135  0.8332 -0.3749 -2.4516
  450MOL0     H59347   2.820   0.555  10.914 -1.9179  2.2923 -1.6938
  450MOL0     H59348   2.650   0.568  10.949 -1.4281 -2.9922  2.0563
  450MOL0     H59349   2.852   0.368  11.044 -0.0844 -0.8642 -0.0779
  450MOL0     H59350   2.738   0.421  11.179  2.8749  2.1196  0.8633
  450MOL0     H59351   2.681   0.310  10.897  0.3964 -0.8596 -0.0717
  450MOL0     H59352   2.558   0.361  11.024 -1.4870 -2.2278 -0.3996
  450MOL0     H59353   2.797   0.087  10.912 -0.4583 -0.4035 -0.5536
  450MOL0     H59354   2.815  -0.180  10.984 -2.7814  2.9549 -0.9469
  450MOL0     H59355   2.771  -0.233  11.150  1.4601 -0.2578  0.5568
  450MOL0     H59356   2.953  -0.124  11.245  1.5743 -0.7311  0.5675
  450MOL0     H59357   3.016  -0.057  11.085  0.1249 -1.7358 -2.6729
  450MOL0     H59358   2.974  -0.341  11.167 -2.5227  0.6115 -1.7410
  450MOL0     H59359   3.048  -0.284  11.020 -2.2268  2.1992 -0.6373
  450MOL0     H59360   3.162  -0.230  11.292  3.8573 -0.4837  0.9864
  450MOL0     H59361   3.237  -0.182  11.136  1.8876 -2.0556  0.3004
  450MOL0     H59362   3.384  -0.566  11.096  1.4683 -1.3916 -1.9298
  450MOL0     H59363   3.628  -0.570  11.094  1.9564  0.8748  0.6991
  450MOL0     H59364   4.002  -0.119  11.433  0.3954 -0.2161  0.5121
  450MOL0     H59365   4.239  -0.067  11.443 -0.1585  1.8785 -0.8972
  450MOL0     H59366   4.533  -0.255  11.197 -1.7320 -0.1627 -0.6162
  450MOL0     H59367   4.497  -0.406  11.278  2.4076 -0.4854 -0.3922
  450MOL0     H59368   4.676  -0.380  11.431 -1.3290 -0.8367 -0.0691
  450MOL0     H59369   4.636  -0.208  11.456 -2.1061  0.5751  0.2427
  450MOL0     H59370   4.735  -0.147  11.240 -1.0139  1.2578  3.2712
  450MOL0     H59371   4.788  -0.328  11.219  0.5018 -2.6844  4.0627
  450MOL0     H59372   4.859  -0.174  11.463  2.0054  0.8677 -0.1018
  450MOL0     H59373   4.925  -0.314  11.400 -0.3300 -0.2155 -0.8485
  450MOL0     H59374   4.950  -0.037  11.308 -0.4073 -0.9172  0.1907
  450MOL0     H59375   5.027  -0.173  11.209  2.9771  0.2079  0.8881
  450MOL0     H59376   5.181  -0.057  11.356 -1.6347 -1.4877 -3.1287
  450MOL0     H59377   5.171  -0.235  11.376  0.0807 -0.0814 -2.6646
  450MOL0     H59378   5.003  -0.058  11.570 -0.7476 -2.7809  5.9160
  450MOL0     H59379   5.060  -0.217  11.588  0.2263 -0.6246 -2.1941
  450MOL0     H59380   5.173  -0.034  11.718  0.0429 -0.2654  0.3021
  450MOL0     H59381   5.235   0.038  11.565  1.4294  1.3419  2.6516
  450MOL0     H59382   4.297  -0.414  11.174 -0.0372  1.6728 -2.3034
  450MOL0     H59383   4.085  -0.449  11.158  2.8475 -1.3108 -0.1297
  450MOL0     H59384   3.642  -0.191  11.304  2.5032 -0.8747  0.0131
  450MOL0     H59385   3.397  -0.194  11.307 -1.3009  0.3614 -2.4316
  450MOL0     H59386   3.067   0.957  11.317 -0.8581  1.0690 -1.3819
  450MOL0     H59387   3.316   0.956  11.335  0.9781  0.9225  2.2409
  450MOL0     H59388   3.653   1.300  11.396  0.0398 -0.2622  2.0999
  450MOL0     H59389   3.892   1.319  11.479  0.7256 -1.7108  2.0920
  450MOL0     H59390   4.137   1.341  11.488  1.1492 -1.9279  1.3571
  450MOL0     H59391   4.095   1.336  11.324 -1.5160  1.3346  0.9613
  450MOL0     H59392   4.292   1.179  11.272  2.3899 -0.7875 -0.2111
  450MOL0     H59393   4.329   1.345  11.295 -0.6842 -0.7623 -1.2168
  450MOL0     H59394   4.337   1.150  11.517  1.1211 -3.0838 -2.4623
  450MOL0     H59395   4.407   1.307  11.542 -0.8152 -0.6043  0.3359
  450MOL0     H59396   4.489   1.070  11.372 -0.0145 -2.0329  3.4797
  450MOL0     H59397   4.576   1.235  11.346 -0.4772  0.5208  0.8587
  450MOL0     H59398   4.747   1.111  11.698  0.7570  3.3381  0.4077
  450MOL0     H59399   3.995   0.971  11.270 -0.3318 -0.6513 -0.9855
  450MOL0     H59400   3.779   0.945  11.187  1.0788 -0.3340  0.3439
  451MOL0     O59401   5.969   8.497   3.973  0.0897  0.0404  0.0675
  451MOL0     C59402   6.051   8.487   4.061  0.3546 -0.2747  0.1717
  451MOL0     O59403   6.024   8.511   4.193  0.2142  0.2435  0.2510
  451MOL0     C59404   5.912   8.558   4.249  0.0998 -0.3265  0.6350
  451MOL0     C59405   5.787   8.577   4.184 -0.6712 -0.8055 -0.0433
  451MOL0     C59406   5.672   8.615   4.254  0.6304 -0.1806 -0.4788
  451MOL0     C59407   5.678   8.631   4.398 -0.3061  0.0910  0.4354
  451MOL0     O59408   5.579   8.674   4.473  0.6872 -0.4389  0.1787
  451MOL0     C59409   5.446   8.667   4.422  0.3785 -0.1299  0.4653
  451MOL0     C59410   5.339   8.699   4.533  0.2459 -1.0686  0.8352
  451MOL0     C59411   5.202   8.634   4.498 -0.9173  0.2435 -0.6063
  451MOL0     C59412   5.105   8.683   4.608  0.3172  0.2717 -0.1471
  451MOL0     C59413   4.959   8.644   4.590  0.3781 -0.5168 -0.3345
  451MOL0     C59414   4.906   8.689   4.458  0.1333  0.4462 -0.6236
  451MOL0     C59415   4.754   8.703   4.473 -0.0620  0.6968 -0.2541
  451MOL0     C59416   4.702   8.825   4.553  0.2757  0.0940  0.1134
  451MOL0     N59417   4.685   8.941   4.465  0.1822 -0.3727 -0.6696
  451MOL0     C59418   4.787   9.033   4.449 -0.5921  0.2322 -0.0876
  451MOL0     C59419   4.724   9.149   4.405  0.0764 -0.2333  0.0302
  451MOL0     C59420   4.793   9.289   4.387  0.8050 -0.7322 -1.6109
  451MOL0     C59421   4.890   9.258   4.277 -0.1884  0.1940 -0.6692
  451MOL0     C59422   4.967   9.389   4.257  0.2553 -0.4590 -0.5275
  451MOL0     C59423   5.097   9.361   4.185 -0.3952 -0.0752  0.0816
  451MOL0     O59424   5.199   9.309   4.263  0.1250  0.1563 -0.2887
  451MOL0     C59425   5.317   9.266   4.219  0.1070  0.0587  0.4098
  451MOL0     C59426   5.400   9.212   4.318  0.7570 -0.3103  0.3227
  451MOL0     C59427   5.520   9.156   4.275 -0.4739  1.0531  0.0463
  451MOL0     C59428   5.565   9.162   4.142  0.8734  0.3428  0.1444
  451MOL0     C59429   5.692   9.090   4.101 -0.0917  0.0221  0.0124
  451MOL0     O59430   5.779   9.043   4.201 -0.0546  0.4779  0.6100
  451MOL0     C59431   5.908   9.012   4.159  0.5905 -0.0442 -0.1237
  451MOL0     C59432   5.996   9.115   4.120 -0.4432 -1.2103 -0.2762
  451MOL0     C59433   6.132   9.091   4.105  0.2283 -0.4954  0.5909
  451MOL0     C59434   6.185   8.958   4.128  0.0663  0.5456 -0.2070
  451MOL0     O59435   6.316   8.909   4.113 -0.3534 -0.8499  0.4034
  451MOL0     C59436   6.418   9.008   4.090 -0.0039  0.5410 -0.1715
  451MOL0     C59437   6.549   8.940   4.054 -0.5132 -0.6050  0.7928
  451MOL0     C59438   6.675   9.029   4.048 -0.3185 -0.2323  0.3557
  451MOL0     C59439   6.800   8.945   4.023 -0.0381  0.1469  0.0040
  451MOL0     C59440   6.919   9.015   3.975 -0.1572  0.5027 -0.6506
  451MOL0     C59441   7.026   8.929   3.901  0.5343 -0.2353 -0.3522
  451MOL0     C59442   7.117   8.848   4.003 -0.0312 -0.5488  0.1458
  451MOL0     C59443   7.257   8.818   3.937  0.4524  0.0397 -0.1186
  451MOL0    Cl59444   7.392   8.815   4.055 -0.2727 -0.7766 -0.0682
  451MOL0     C59445   6.096   8.860   4.167 -0.8006  0.0766  0.3679
  451MOL0     C59446   5.960   8.886   4.196 -0.4913  0.7953 -0.2444
  451MOL0     O59447   5.715   9.096   3.983 -0.3291  0.6429 -0.0125
  451MOL0     C59448   5.487   9.227   4.043 -0.5948 -0.0520  0.9692
  451MOL0     C59449   5.373   9.289   4.090 -0.2860  0.2180  0.6089
  451MOL0     N59450   4.590   9.116   4.384  0.2367  0.1604  0.3356
  451MOL0     N59451   4.565   8.998   4.425  0.2229 -0.2912 -0.0927
  451MOL0     C59452   5.796   8.600   4.467 -0.4130 -0.7963  0.4239
  451MOL0     C59453   5.910   8.560   4.389  0.8358  0.2269  0.3109
  451MOL0     C59454   6.191   8.463   4.025 -0.1641  0.6321  0.2652
  451MOL0     C59455   6.297   8.510   4.103 -0.4761 -0.1722 -0.5333
  451MOL0     C59456   6.428   8.462   4.078  0.1086 -0.4384 -0.0249
  451MOL0     C59457   6.462   8.385   3.967  0.4152  0.2701 -0.1130
  451MOL0     O59458   6.591   8.358   3.936 -0.2398  0.1483  0.5126
  451MOL0     C59459   6.694   8.419   4.021  0.2580  1.0019 -0.2727
  451MOL0     C59460   6.826   8.398   3.960 -1.5242  0.3712 -0.0745
  451MOL0     C59461   6.939   8.502   4.000  0.9969  0.0096  0.3731
  451MOL0     C59462   7.078   8.487   3.950  0.2537  0.3975  0.1559
  451MOL0     C59463   7.125   8.346   3.950  1.1007 -0.6921  0.3739
  451MOL0     C59464   7.140   8.228   3.938 -0.6480 -0.0888 -0.4298
  451MOL0     C59465   6.357   8.359   3.877 -0.2544  0.0390  0.0763
  451MOL0     C59466   6.223   8.391   3.907 -0.6193 -0.7769 -0.2658
  451MOL0     H59467   5.769   8.589   4.078 -3.5058 -1.7623  0.2354
  451MOL0     H59468   5.579   8.642   4.205 -0.1777 -0.2697  0.9329
  451MOL0     H59469   5.429   8.570   4.375 -1.6657  0.9788 -1.3129
  451MOL0     H59470   5.427   8.733   4.337  1.0222 -0.3159  0.1771
  451MOL0     H59471   5.326   8.806   4.516  1.9787 -0.9939 -0.2553
  451MOL0     H59472   5.379   8.681   4.633 -0.0216 -0.2842  1.0908
  451MOL0     H59473   5.204   8.526   4.518  0.7960  0.4509  0.5934
  451MOL0     H59474   5.163   8.656   4.399  0.6574 -1.1569 -1.5861
  451MOL0     H59475   5.138   8.641   4.704 -3.4148  0.2245  1.2770
  451MOL0     H59476   5.119   8.791   4.614  0.0459  0.2328  2.0745
  451MOL0     H59477   4.900   8.693   4.668  0.4614  1.5798 -1.5255
  451MOL0     H59478   4.939   8.538   4.603  1.8021 -1.0458 -1.9817
  451MOL0     H59479   4.917   8.620   4.373 -0.4183  3.2031 -3.1100
  451MOL0     H59480   4.950   8.776   4.408 -1.2143 -0.1128 -2.9113
  451MOL0     H59481   4.708   8.701   4.374  0.9607 -2.1538 -0.7582
  451MOL0     H59482   4.714   8.611   4.517  1.5872 -0.7291 -1.5806
  451MOL0     H59483   4.777   8.848   4.629  0.1606  0.7466  0.0286
  451MOL0     H59484   4.609   8.794   4.602  1.7530 -2.8414  1.3418
  451MOL0     H59485   4.891   9.036   4.478 -0.9942  3.8210  1.5673
  451MOL0     H59486   4.844   9.306   4.482 -2.2578 -0.5530  0.1570
  451MOL0     H59487   4.718   9.368   4.372 -0.4671 -1.1948  1.5123
  451MOL0     H59488   4.823   9.239   4.193 -1.7825  1.4129  0.2722
  451MOL0     H59489   4.958   9.175   4.298 -1.5614 -0.8408 -0.2238
  451MOL0     H59490   4.914   9.464   4.198  1.0722  0.4695 -0.1297
  451MOL0     H59491   4.981   9.434   4.356 -0.8774 -2.4998  0.6231
  451MOL0     H59492   5.142   9.456   4.153 -1.4570  0.9399  1.5016
  451MOL0     H59493   5.075   9.298   4.098 -3.6815 -1.2606  1.6195
  451MOL0     H59494   5.360   9.211   4.419  0.4410 -0.6242  0.1984
  451MOL0     H59495   5.585   9.111   4.349 -0.7862 -0.9794 -0.8531
  451MOL0     H59496   5.964   9.216   4.096 -3.4727 -1.2588  2.8857
  451MOL0     H59497   6.200   9.168   4.070 -0.5288 -0.6262 -1.2856
  451MOL0     H59498   6.431   9.057   4.188  0.5070 -1.9971  1.1010
  451MOL0     H59499   6.392   9.080   4.011 -2.0419 -1.6878 -1.6774
  451MOL0     H59500   6.538   8.904   3.951 -2.6446 -1.6811  1.3350
  451MOL0     H59501   6.555   8.852   4.119 -2.2729 -1.9981 -0.8157
  451MOL0     H59502   6.685   9.091   4.137 -1.0210  0.1610  0.1739
  451MOL0     H59503   6.654   9.101   3.969 -0.5568  2.5922  2.8375
  451MOL0     H59504   6.823   8.885   4.111  0.4740  0.6675  0.2317
  451MOL0     H59505   6.785   8.874   3.941  0.7044 -0.0038 -0.0087
  451MOL0     H59506   6.972   9.069   4.054  1.1744 -3.7225  1.6534
  451MOL0     H59507   6.888   9.091   3.902 -4.0522  2.3202  2.4640
  451MOL0     H59508   7.085   9.003   3.846 -1.4670  1.6909 -0.0537
  451MOL0     H59509   6.972   8.864   3.831 -3.7201  0.2229  2.1226
  451MOL0     H59510   7.137   8.913   4.088 -2.8823 -0.9983  1.2738
  451MOL0     H59511   7.065   8.754   4.024 -0.7029 -0.3768 -0.6794
  451MOL0     H59512   7.280   8.908   3.879 -0.2143 -0.0273 -0.5008
  451MOL0     H59513   7.254   8.730   3.872 -1.5062  0.1122 -0.1674
  451MOL0     H59514   6.119   8.760   4.202 -4.3115 -0.0939  2.6281
  451MOL0     H59515   5.906   8.802   4.238  1.5275 -1.4884 -1.9362
  451MOL0     H59516   5.524   9.233   3.941  0.3279 -3.6970  0.9477
  451MOL0     H59517   5.304   9.342   4.025  0.9315  0.8960 -0.1710
  451MOL0     H59518   5.789   8.612   4.575  1.8586  1.2969  0.4380
  451MOL0     H59519   6.002   8.541   4.443  3.3228 -0.7029 -3.8415
  451MOL0     H59520   6.276   8.583   4.181  0.9341  1.0834 -1.2742
  451MOL0     H59521   6.507   8.476   4.152 -0.2415 -0.5926  0.3855
  451MOL0     H59522   6.690   8.374   4.121 -1.5599  1.6227 -0.0183
  451MOL0     H59523   6.676   8.526   4.033 -0.9947  0.6611  1.2009
  451MOL0     H59524   6.863   8.297   3.979  0.5420  0.7927 -1.4394
  451MOL0     H59525   6.805   8.417   3.854  1.4501  0.5036 -0.7304
  451MOL0     H59526   6.944   8.486   4.108 -1.5131 -1.5194  0.3371
  451MOL0     H59527   6.905   8.604   3.981  2.7774  0.4268 -0.7650
  451MOL0     H59528   7.077   8.514   3.844  1.7076 -2.4388 -0.6850
  451MOL0     H59529   7.140   8.554   4.011  0.2909 -1.0050  1.7210
  451MOL0     H59530   7.166   8.124   3.929 -0.8149 -0.2245  0.4804
  451MOL0     H59531   6.377   8.316   3.780 -1.2082 -0.2568  0.0072
  451MOL0     H59532   6.155   8.366   3.827  0.5047  1.0853 -1.8987
  452MOL0     O59533   0.983  11.002   5.063  0.5874  0.3757  0.1849
  452MOL0     C59534   0.983  10.878   5.065 -0.2126  0.4955  0.3964
  452MOL0     O59535   0.865  10.807   5.082  0.3952 -0.3082  1.0890
  452MOL0     C59536   0.735  10.869   5.087 -0.5910 -0.4904  0.4495
  452MOL0     C59537   0.702  10.949   5.191  0.6375  0.1373  0.4591
  452MOL0     C59538   0.575  11.010   5.200  0.7933 -0.7475 -0.3540
  452MOL0     C59539   0.483  10.988   5.093 -0.9339  0.3524 -0.0889
  452MOL0     O59540   0.359  11.042   5.086 -0.2250 -0.0801  0.9270
  452MOL0     C59541   0.317  11.134   5.188  0.6285  0.4100  1.2302
  452MOL0     C59542   0.198  11.223   5.131 -0.0719  0.7704 -0.1053
  452MOL0     C59543   0.068  11.137   5.103 -0.2191  0.1750 -0.8486
  452MOL0     C59544  -0.049  11.226   5.053 -0.2456  0.0733 -0.1706
  452MOL0     C59545  -0.185  11.153   5.062  0.1033  0.1148  0.3754
  452MOL0     C59546  -0.291  11.256   5.029  0.0117 -0.9776 -0.5560
  452MOL0     C59547  -0.424  11.192   4.998  0.1570  0.6379 -0.2419
  452MOL0     C59548  -0.409  11.113   4.868  0.1417  0.2529 -0.4390
  452MOL0     N59549  -0.530  11.049   4.826 -0.3350  0.0490  0.5710
  452MOL0     C59550  -0.606  11.106   4.731 -0.1211  0.6847 -0.9070
  452MOL0     C59551  -0.712  11.028   4.709  0.0472 -0.3567  0.3300
  452MOL0     C59552  -0.816  11.054   4.601  0.4376 -0.1589 -0.4189
  452MOL0     C59553  -0.952  11.003   4.647 -0.1091  0.7577 -0.8355
  452MOL0     C59554  -1.061  11.046   4.548  0.1763 -0.2915  0.8130
  452MOL0     C59555  -1.198  11.045   4.619  0.2376  0.5046 -0.5831
  452MOL0     O59556  -1.248  10.908   4.637  0.6997 -0.7662 -0.1136
  452MOL0     C59557  -1.382  10.884   4.658  0.2988 -0.2149  0.4322
  452MOL0     C59558  -1.475  10.984   4.677  0.1832 -0.8270  0.6124
  452MOL0     C59559  -1.616  10.965   4.681 -0.2581 -0.4642 -0.1250
  452MOL0     C59560  -1.667  10.838   4.666  0.5124  0.3916 -0.9921
  452MOL0     C59561  -1.814  10.817   4.665 -0.2292  0.2335 -0.5074
  452MOL0     O59562  -1.863  10.709   4.585 -0.4239 -0.2004 -0.2758
  452MOL0     C59563  -1.994  10.692   4.569  0.5788  0.4721  0.0940
  452MOL0     C59564  -2.034  10.676   4.437  0.7284 -0.2175  0.8025
  452MOL0     C59565  -2.166  10.648   4.407  0.6919  0.8394  0.2676
  452MOL0     C59566  -2.264  10.639   4.504  0.1601  0.0436  0.3454
  452MOL0     O59567  -2.393  10.625   4.467  0.7464  0.3502  0.3195
  452MOL0     C59568  -2.490  10.567   4.551  0.2517  1.0748  0.1052
  452MOL0     C59569  -2.631  10.546   4.485  0.3950 -0.1879 -0.1323
  452MOL0     C59570  -2.725  10.480   4.589 -0.4510  0.1243  0.8705
  452MOL0     C59571  -2.864  10.476   4.526  0.1574  0.6683 -0.5637
  452MOL0     C59572  -2.947  10.401   4.625  0.5521 -0.1188 -0.7659
  452MOL0     C59573  -3.101  10.390   4.579 -1.0225  0.4471 -0.2039
  452MOL0     C59574  -3.181  10.309   4.686  0.0357 -0.1428 -0.0848
  452MOL0     C59575  -3.130  10.167   4.696 -0.2176 -0.0884 -0.0531
  452MOL0    Cl59576  -3.178  10.086   4.865  0.0791  0.0451 -0.2424
  452MOL0     C59577  -2.220  10.653   4.642 -0.0044  0.5634 -0.5200
  452MOL0     C59578  -2.086  10.687   4.672  0.7405 -0.4421 -0.3020
  452MOL0     O59579  -1.880  10.891   4.737 -1.0050  0.3370  0.4546
  452MOL0     C59580  -1.577  10.727   4.657 -1.1973  0.5453 -0.3856
  452MOL0     C59581  -1.437  10.754   4.653  0.1175 -0.4001 -1.0506
  452MOL0     N59582  -0.692  10.910   4.786 -0.1561 -0.2180 -0.1785
  452MOL0     N59583  -0.580  10.927   4.845 -0.4451  0.6850  0.3111
  452MOL0     C59584   0.517  10.913   4.980 -0.5456 -0.1807  0.0951
  452MOL0     C59585   0.645  10.854   4.986  0.0265  0.4177  1.2428
  452MOL0     C59586   1.113  10.804   5.074 -0.1763  0.1514  0.3638
  452MOL0     C59587   1.228  10.882   5.058 -0.8479  0.4160 -0.5622
  452MOL0     C59588   1.357  10.811   5.062 -0.4478 -1.2065  0.5333
  452MOL0     C59589   1.365  10.680   5.081  0.9588  0.5986  0.5472
  452MOL0     O59590   1.486  10.620   5.081 -0.5156 -0.4468 -0.8182
  452MOL0     C59591   1.520  10.508   5.160  1.2885  0.2200 -0.2566
  452MOL0     C59592   1.668  10.501   5.183  0.0088 -0.8300  0.8053
  452MOL0     C59593   1.735  10.420   5.073 -0.5996  0.0541 -0.7359
  452MOL0     C59594   1.890  10.401   5.100  0.5196  0.1888  1.4186
  452MOL0     C59595   1.925  10.335   5.222 -0.1552 -0.0355 -0.1623
  452MOL0     C59596   1.922  10.265   5.321 -0.5387 -0.2409 -0.4971
  452MOL0     C59597   1.245  10.607   5.093 -0.3235  0.2445  0.0047
  452MOL0     C59598   1.116  10.670   5.092 -0.7519 -0.7528  0.3691
  452MOL0     H59599   0.785  10.957   5.260  1.9237  0.8231 -1.1118
  452MOL0     H59600   0.563  11.072   5.288  1.4845 -1.4030  0.2216
  452MOL0     H59601   0.402  11.199   5.210  1.7827  0.5192 -2.8205
  452MOL0     H59602   0.276  11.078   5.274 -0.3655 -0.2336  0.3680
  452MOL0     H59603   0.236  11.283   5.048 -2.3054 -1.5999 -3.0992
  452MOL0     H59604   0.178  11.290   5.215  3.1734  0.1274  1.3021
  452MOL0     H59605   0.037  11.102   5.202  0.6600  1.7134  0.0081
  452MOL0     H59606   0.079  11.055   5.030  0.7062 -0.0747 -0.4332
  452MOL0     H59607  -0.041  11.321   5.106  0.2527  0.1706 -0.4172
  452MOL0     H59608  -0.042  11.258   4.948  1.5392 -1.5316 -0.5856
  452MOL0     H59609  -0.203  11.110   5.161 -2.0696  0.5779  0.2335
  452MOL0     H59610  -0.178  11.068   4.994 -0.6136  0.1428  0.2568
  452MOL0     H59611  -0.247  11.309   4.944 -1.9633 -1.2885 -1.8167
  452MOL0     H59612  -0.299  11.338   5.101 -0.4407 -0.6853 -0.9409
  452MOL0     H59613  -0.463  11.138   5.085 -0.4195  0.8472 -0.3655
  452MOL0     H59614  -0.510  11.251   4.966 -1.8092 -3.0460 -2.5217
  452MOL0     H59615  -0.350  11.022   4.876 -1.9599 -1.0450  1.7020
  452MOL0     H59616  -0.364  11.176   4.791  2.7198 -1.0939 -0.1389
  452MOL0     H59617  -0.578  11.199   4.682 -1.6575  0.8577 -1.5067
  452MOL0     H59618  -0.779  10.995   4.516  3.9194 -2.3660  2.3036
  452MOL0     H59619  -0.817  11.160   4.574  2.5422 -0.3315 -1.3862
  452MOL0     H59620  -0.981  11.027   4.750  2.2338  3.1573 -0.6328
  452MOL0     H59621  -0.946  10.894   4.638  2.9345  0.9672 -3.1294
  452MOL0     H59622  -1.038  11.141   4.499  1.3236  0.9604  3.6116
  452MOL0     H59623  -1.062  10.972   4.467  3.4048  1.6075 -1.1771
  452MOL0     H59624  -1.255  11.112   4.555 -1.8501 -0.0929  0.5559
  452MOL0     H59625  -1.191  11.092   4.718  0.5116  2.3186 -1.4385
  452MOL0     H59626  -1.444  11.088   4.681  0.3891 -0.8275 -0.6279
  452MOL0     H59627  -1.680  11.051   4.695 -1.4533 -0.8010 -2.9432
  452MOL0     H59628  -1.960  10.666   4.358 -0.1399 -0.1676 -0.0332
  452MOL0     H59629  -2.201  10.635   4.305  0.2837 -1.3444  0.6275
  452MOL0     H59630  -2.504  10.626   4.642  1.8878 -0.0688  1.1531
  452MOL0     H59631  -2.448  10.472   4.586 -0.0365  0.1196 -2.0219
  452MOL0     H59632  -2.622  10.474   4.403 -1.8956  0.5099 -1.0662
  452MOL0     H59633  -2.669  10.639   4.442  0.7144 -0.5470 -1.2329
  452MOL0     H59634  -2.710  10.533   4.683  0.5823 -2.0245  2.0040
  452MOL0     H59635  -2.692  10.376   4.602  1.1100 -0.0040 -2.8271
  452MOL0     H59636  -2.906  10.571   4.491  1.2880  1.0420 -0.9483
  452MOL0     H59637  -2.858  10.412   4.437 -1.2828 -0.4589  0.1226
  452MOL0     H59638  -2.937  10.446   4.725  2.9653 -1.4628 -0.3167
  452MOL0     H59639  -2.900  10.303   4.636  3.0844  1.1620  0.6905
  452MOL0     H59640  -3.106  10.332   4.487 -1.8544  0.4252 -0.1526
  452MOL0     H59641  -3.132  10.493   4.564  0.5639  0.5256 -3.9131
  452MOL0     H59642  -3.167  10.369   4.777 -1.1038  5.4385 -3.0855
  452MOL0     H59643  -3.284  10.313   4.650  0.3537 -0.8447 -1.0903
  452MOL0     H59644  -3.021  10.160   4.696 -0.2571 -0.8598 -0.7884
  452MOL0     H59645  -3.175  10.112   4.612  2.5915 -1.0236 -1.0341
  452MOL0     H59646  -2.276  10.625   4.731 -1.0513  0.6157 -1.1395
  452MOL0     H59647  -2.062  10.702   4.776 -0.9422  0.0898  0.0378
  452MOL0     H59648  -1.605  10.625   4.632  1.9004  0.0324 -2.1957
  452MOL0     H59649  -1.372  10.668   4.637  0.2391 -0.2219 -1.5271
  452MOL0     H59650   0.428  10.904   4.918 -1.9662 -2.2480  2.2443
  452MOL0     H59651   0.664  10.779   4.910 -0.0664  3.0960 -1.6468
  452MOL0     H59652   1.239  10.988   5.037  1.0885  0.3107 -0.3276
  452MOL0     H59653   1.440  10.878   5.039 -0.9165  0.3224  2.9268
  452MOL0     H59654   1.477  10.418   5.114 -1.7305  1.1069  0.5420
  452MOL0     H59655   1.472  10.506   5.258  1.3513 -1.8400 -0.2182
  452MOL0     H59656   1.708  10.601   5.202 -0.5305 -1.0862  3.7203
  452MOL0     H59657   1.695  10.451   5.276  0.3523  0.1531  1.2473
  452MOL0     H59658   1.725  10.459   4.972 -3.1240 -1.6505 -1.2417
  452MOL0     H59659   1.686  10.323   5.081  0.9702 -0.5887  3.4839
  452MOL0     H59660   1.928  10.331   5.025 -0.5084 -0.4488  1.4727
  452MOL0     H59661   1.935  10.500   5.096  4.5732 -1.5064  0.6981
  452MOL0     H59662   1.928  10.197   5.404  1.0402  2.0636  1.4353
  452MOL0     H59663   1.250  10.500   5.114 -0.5896  0.2588  0.1406
  452MOL0     H59664   1.031  10.609   5.121  0.1209 -1.3963  1.6710
  453MOL0     O59665   5.215   6.637   8.964  0.1245  0.0685 -0.9072
  453MOL0     C59666   5.171   6.727   9.039  0.6049  0.4210  0.1165
  453MOL0     O59667   5.224   6.772   9.159 -0.6012  0.5323 -0.3698
  453MOL0     C59668   5.342   6.714   9.213  0.1503 -0.4288 -0.6090
  453MOL0     C59669   5.374   6.580   9.207 -0.3928 -0.1879 -0.2613
  453MOL0     C59670   5.478   6.527   9.274 -0.1408  0.5867  0.4057
  453MOL0     C59671   5.561   6.617   9.351 -0.5222  0.0742 -0.5220
  453MOL0     O59672   5.661   6.547   9.423  0.3278  0.9018  0.9146
  453MOL0     C59673   5.794   6.579   9.394  0.3211  0.0037 -0.4396
  453MOL0     C59674   5.894   6.491   9.462 -0.3367  0.0329  0.1534
  453MOL0     C59675   6.039   6.520   9.418  1.3901 -0.2806  0.0234
  453MOL0     C59676   6.122   6.409   9.493  0.5224  0.0760  0.6555
  453MOL0     C59677   6.274   6.430   9.480  0.2969  0.2514  0.0748
  453MOL0     C59678   6.350   6.299   9.506 -0.6298 -0.0858  0.7680
  453MOL0     C59679   6.342   6.256   9.654 -0.6613 -0.0321  0.8327
  453MOL0     C59680   6.407   6.355   9.752  0.3251  0.1198  0.6173
  453MOL0     N59681   6.552   6.357   9.732  0.0648 -0.4024  0.4324
  453MOL0     C59682   6.647   6.253   9.746  0.4234 -0.5328  0.6899
  453MOL0     C59683   6.758   6.298   9.675  0.6694 -0.4323 -0.2401
  453MOL0     C59684   6.890   6.225   9.656 -0.1236  0.0649  0.7337
  453MOL0     C59685   6.990   6.321   9.582  0.0793 -0.4284 -0.2916
  453MOL0     C59686   7.121   6.248   9.550 -0.0191 -0.7675 -0.0695
  453MOL0     C59687   7.228   6.343   9.496 -0.4425  0.7395  0.0485
  453MOL0     O59688   7.270   6.442   9.588 -0.4702  0.0722 -1.0254
  453MOL0     C59689   7.393   6.508   9.571 -0.1230 -0.3188 -0.3359
  453MOL0     C59690   7.434   6.598   9.675  0.3940  1.1498 -0.5287
  453MOL0     C59691   7.567   6.646   9.675 -0.1191 -0.3173  0.6058
  453MOL0     C59692   7.646   6.632   9.558  0.1796 -0.0266  0.8357
  453MOL0     C59693   7.784   6.690   9.560  0.5087  0.2998  0.1054
  453MOL0     O59694   7.863   6.656   9.449 -0.1610 -0.1878  0.0546
  453MOL0     C59695   8.002   6.661   9.476 -0.3283  0.8706 -0.0620
  453MOL0     C59696   8.070   6.772   9.434  1.1191  0.3249  0.4637
  453MOL0     C59697   8.206   6.767   9.444 -0.3898 -0.8007  0.1806
  453MOL0     C59698   8.280   6.655   9.487 -0.0153 -0.0628 -0.1499
  453MOL0     O59699   8.413   6.654   9.505  0.0573  0.5324 -0.1190
  453MOL0     C59700   8.480   6.749   9.428 -0.2811 -0.1661  0.0354
  453MOL0     C59701   8.632   6.726   9.420  0.4682  0.0006  0.4316
  453MOL0     C59702   8.729   6.837   9.386 -0.1015  0.1296  0.7237
  453MOL0     C59703   8.875   6.782   9.392  0.6164  0.4181 -0.7466
  453MOL0     C59704   8.975   6.898   9.402  0.1777  0.1506  0.0816
  453MOL0     C59705   9.071   6.913   9.281  0.5689  0.6117  0.7410
  453MOL0     C59706   9.174   7.025   9.290 -0.5819  0.7400 -0.5005
  453MOL0     C59707   9.292   7.001   9.197  0.7620  0.0835 -0.2480
  453MOL0    Cl59708   9.389   7.143   9.218 -0.0950 -0.6522 -0.2579
  453MOL0     C59709   8.212   6.544   9.532 -1.0328 -0.5176 -0.0889
  453MOL0     C59710   8.072   6.548   9.525  0.7887 -0.8366  0.8520
  453MOL0     O59711   7.820   6.746   9.664 -0.7313  0.3851 -0.0805
  453MOL0     C59712   7.597   6.560   9.450 -0.1781  0.0227  0.6806
  453MOL0     C59713   7.473   6.492   9.455  0.0347 -0.3451  0.1751
  453MOL0     N59714   6.732   6.421   9.624  0.2299  0.5755  0.5466
  453MOL0     N59715   6.613   6.452   9.661 -0.0718  0.1100 -0.6823
  453MOL0     C59716   5.531   6.761   9.361  0.2106  0.0537 -0.8828
  453MOL0     C59717   5.426   6.810   9.285  0.4993 -0.1459  0.0545
  453MOL0     C59718   5.051   6.808   8.988 -0.3378  0.0367 -0.2699
  453MOL0     C59719   5.020   6.935   9.030 -0.7784 -0.2233  0.7692
  453MOL0     C59720   4.918   7.009   8.975  0.6566 -0.8535  0.7006
  453MOL0     C59721   4.837   6.956   8.878  0.3068  0.4387 -0.7833
  453MOL0     O59722   4.763   7.040   8.806 -0.7967  0.0320 -0.2537
  453MOL0     C59723   4.725   7.008   8.672  1.2859  0.4242 -0.2346
  453MOL0     C59724   4.726   7.127   8.591 -0.4323 -0.3444  0.9891
  453MOL0     C59725   4.601   7.216   8.615 -0.4513  1.4273  0.1988
  453MOL0     C59726   4.590   7.326   8.516  0.5431  0.1472  0.2821
  453MOL0     C59727   4.534   7.268   8.391  0.4234  0.0706 -0.0959
  453MOL0     C59728   4.498   7.200   8.300  0.1149 -1.3256  0.2025
  453MOL0     C59729   4.856   6.819   8.852 -0.1572  0.0109  0.9049
  453MOL0     C59730   4.956   6.742   8.902 -0.8717 -0.1422  0.0394
  453MOL0     H59731   5.296   6.518   9.164 -1.5965  2.0655 -1.4602
  453MOL0     H59732   5.494   6.420   9.271 -2.5303  0.1971  0.1308
  453MOL0     H59733   5.800   6.685   9.419 -2.7757 -0.1675  1.5487
  453MOL0     H59734   5.811   6.572   9.286 -0.0336  1.4815 -0.6042
  453MOL0     H59735   5.876   6.386   9.440  3.0529 -0.1125 -2.6076
  453MOL0     H59736   5.879   6.509   9.569 -1.2747  1.2857 -0.1717
  453MOL0     H59737   6.074   6.618   9.450 -2.2416  0.1231  3.6807
  453MOL0     H59738   6.038   6.498   9.311 -1.5942 -0.2452 -0.0424
  453MOL0     H59739   6.101   6.390   9.599  0.0604 -2.5181  0.1426
  453MOL0     H59740   6.100   6.311   9.452 -1.7736  2.1934 -3.8969
  453MOL0     H59741   6.316   6.500   9.553  1.7868 -0.3414 -0.1753
  453MOL0     H59742   6.301   6.459   9.378  0.0843 -1.9693 -0.6661
  453MOL0     H59743   6.457   6.303   9.480 -1.0885 -1.6694 -1.7347
  453MOL0     H59744   6.310   6.218   9.444 -2.6002  0.6243  1.0564
  453MOL0     H59745   6.237   6.257   9.686 -0.7131 -0.7633  0.7031
  453MOL0     H59746   6.383   6.156   9.674  0.9571  0.8952  2.4414
  453MOL0     H59747   6.390   6.317   9.853 -0.0358 -2.5796 -0.3676
  453MOL0     H59748   6.375   6.459   9.744 -1.5090 -0.4785 -0.6880
  453MOL0     H59749   6.638   6.165   9.808  2.1259 -0.1942  1.4768
  453MOL0     H59750   6.864   6.146   9.584  1.2387  0.1218  0.1460
  453MOL0     H59751   6.934   6.186   9.747  1.4376 -4.3060 -1.5856
  453MOL0     H59752   7.001   6.407   9.650  0.6438  2.5146 -3.7763
  453MOL0     H59753   6.939   6.359   9.493 -0.8856  1.3942  0.9485
  453MOL0     H59754   7.160   6.209   9.645 -2.2554 -4.3599 -0.4464
  453MOL0     H59755   7.107   6.165   9.480  2.3873 -1.8937  0.6392
  453MOL0     H59756   7.202   6.395   9.403 -0.4510  2.3473  0.9208
  453MOL0     H59757   7.319   6.285   9.473  0.0162  1.2154  0.6309
  453MOL0     H59758   7.362   6.624   9.752 -1.7847  0.2906 -2.1312
  453MOL0     H59759   7.584   6.722   9.750 -0.6414  1.5245 -1.0699
  453MOL0     H59760   8.004   6.851   9.399 -0.0338 -1.9082 -2.9067
  453MOL0     H59761   8.244   6.863   9.411 -0.1141 -1.2502 -0.8535
  453MOL0     H59762   8.461   6.850   9.464  0.1943 -0.4032  0.9706
  453MOL0     H59763   8.443   6.756   9.325 -1.7287 -0.2759  0.5351
  453MOL0     H59764   8.646   6.645   9.347 -3.4077  0.6017 -1.2358
  453MOL0     H59765   8.662   6.698   9.522  0.6334 -0.5079  0.2479
  453MOL0     H59766   8.713   6.927   9.447  1.8191  0.5712  0.6575
  453MOL0     H59767   8.708   6.877   9.286  1.4842  0.6520  0.5692
  453MOL0     H59768   8.882   6.719   9.481 -1.0839  1.0003 -0.1562
  453MOL0     H59769   8.903   6.721   9.305  2.1969 -2.0945  1.3695
  453MOL0     H59770   9.037   6.891   9.492  0.0350  1.6674  0.3200
  453MOL0     H59771   8.923   6.993   9.415  1.7276  1.0259  0.1678
  453MOL0     H59772   9.022   6.932   9.185  0.7369 -1.3137  0.2423
  453MOL0     H59773   9.127   6.821   9.263 -0.7017 -0.0146 -0.1468
  453MOL0     H59774   9.127   7.116   9.252  1.0837  1.7243 -0.2622
  453MOL0     H59775   9.217   7.038   9.390  2.2031  1.3419 -1.6987
  453MOL0     H59776   9.259   6.997   9.093 -3.6153  0.4632  0.9138
  453MOL0     H59777   9.335   6.907   9.231 -0.9386 -0.7850 -0.3605
  453MOL0     H59778   8.256   6.459   9.583 -0.3571  0.8184  1.6200
  453MOL0     H59779   8.009   6.461   9.542 -1.3192 -0.1979 -2.6662
  453MOL0     H59780   7.657   6.546   9.361 -1.6365  0.2524 -0.3919
  453MOL0     H59781   7.437   6.440   9.367 -2.6937  0.7832  0.5161
  453MOL0     H59782   5.598   6.823   9.420  0.8231 -0.5278 -0.9536
  453MOL0     H59783   5.404   6.917   9.289 -2.4947 -0.7129  2.4836
  453MOL0     H59784   5.093   6.976   9.099  0.1842 -1.1778  0.3473
  453MOL0     H59785   4.901   7.111   9.008 -0.6532 -0.6265 -0.5568
  453MOL0     H59786   4.625   6.963   8.682  1.6327 -0.4521 -0.6073
  453MOL0     H59787   4.786   6.933   8.621 -1.1779 -1.8957 -0.0031
  453MOL0     H59788   4.819   7.180   8.615 -0.8638  0.2867  1.3010
  453MOL0     H59789   4.722   7.084   8.491 -0.2631  0.6600  0.5453
  453MOL0     H59790   4.611   7.253   8.718  0.5198  0.3141  0.5292
  453MOL0     H59791   4.504   7.165   8.617 -2.8052  5.4518  0.3253
  453MOL0     H59792   4.525   7.405   8.554  0.2280  0.6284 -1.2180
  453MOL0     H59793   4.690   7.363   8.490  0.3783 -0.9569 -2.1384
  453MOL0     H59794   4.476   7.155   8.205 -0.5196  1.1967 -0.9194
  453MOL0     H59795   4.782   6.759   8.799  2.4532 -1.6458 -1.0850
  453MOL0     H59796   4.951   6.637   8.874 -2.2191 -0.5280  1.5373
  454MOL0     O59797   3.098   4.007   7.415  1.1286  0.3633  0.4965
  454MOL0     C59798   3.129   3.884   7.433  0.2269  0.0177 -0.8437
  454MOL0     O59799   3.046   3.775   7.425 -0.5275 -0.5149 -0.8407
  454MOL0     C59800   2.915   3.784   7.372  0.1281 -0.0277  0.1891
  454MOL0     C59801   2.805   3.722   7.440 -0.6301 -0.4165 -0.1811
  454MOL0     C59802   2.677   3.721   7.380  0.0991 -0.5789 -0.8413
  454MOL0     C59803   2.652   3.781   7.258 -0.8387 -0.5687 -0.0744
  454MOL0     O59804   2.528   3.773   7.201  0.8804 -0.8740 -0.5551
  454MOL0     C59805   2.510   3.822   7.067  1.1264 -0.4074  0.4718
  454MOL0     C59806   2.427   3.951   7.072 -0.8446  0.9212  0.8993
  454MOL0     C59807   2.290   3.925   7.137  0.1005  0.2316  0.9641
  454MOL0     C59808   2.205   4.058   7.129  0.8611 -0.3041 -0.2123
  454MOL0     C59809   2.055   4.037   7.129 -0.0398 -0.4969 -0.4695
  454MOL0     C59810   1.986   4.176   7.142  0.3571 -0.6092 -0.2623
  454MOL0     C59811   1.831   4.156   7.160  0.3785 -0.3037 -0.6315
  454MOL0     C59812   1.739   4.131   7.038  0.5999 -0.2063  0.2349
  454MOL0     N59813   1.598   4.156   7.072  0.6768  0.6870 -0.5514
  454MOL0     C59814   1.527   4.089   7.165  0.4891  0.3870  0.1043
  454MOL0     C59815   1.409   4.145   7.161  0.1753 -0.4353 -0.5454
  454MOL0     C59816   1.287   4.123   7.249  0.7078  0.5259 -0.0181
  454MOL0     C59817   1.161   4.200   7.204 -0.5437  0.2220  0.6141
  454MOL0     C59818   1.046   4.141   7.281  0.1783 -0.0201 -0.4510
  454MOL0     C59819   0.909   4.203   7.239 -0.6128  0.3911 -0.2119
  454MOL0     O59820   0.810   4.139   7.329 -0.1353  0.0252  0.5880
  454MOL0     C59821   0.718   4.221   7.389 -0.2059 -0.3806  0.0051
  454MOL0     C59822   0.590   4.246   7.335  1.1540 -0.4028 -0.6982
  454MOL0     C59823   0.498   4.332   7.409 -0.4053 -0.1768  0.6064
  454MOL0     C59824   0.533   4.403   7.523 -0.0178  0.1736 -0.2949
  454MOL0     C59825   0.425   4.505   7.568 -0.6928 -0.0649 -0.2775
  454MOL0     O59826   0.357   4.561   7.471 -0.0211 -0.2396 -0.1562
  454MOL0     C59827   0.268   4.664   7.501  0.4331 -0.3830  0.6715
  454MOL0     C59828   0.127   4.645   7.523 -0.2670  0.2363 -0.6997
  454MOL0     C59829   0.035   4.748   7.540  0.4080 -0.2409 -0.1145
  454MOL0     C59830   0.070   4.884   7.526  0.0187 -0.5414 -0.7928
  454MOL0     O59831  -0.004   4.990   7.576  0.3292 -0.3187 -0.0760
  454MOL0     C59832  -0.149   4.969   7.597 -0.2761 -0.1710 -0.0364
  454MOL0     C59833  -0.218   5.098   7.652  0.0131  0.6189  0.2071
  454MOL0     C59834  -0.373   5.075   7.662 -0.1559  1.0305 -0.3473
  454MOL0     C59835  -0.424   5.120   7.797  0.2438  0.7720  0.7773
  454MOL0     C59836  -0.559   5.044   7.836  0.5829  0.3946  1.1331
  454MOL0     C59837  -0.678   5.068   7.719 -0.1618  0.9088 -0.2532
  454MOL0     C59838  -0.806   4.999   7.771  0.2717 -0.4152 -0.0313
  454MOL0     C59839  -0.865   5.043   7.908 -0.1608 -0.2800 -0.3151
  454MOL0    Cl59840  -1.015   5.133   7.884  0.0789  0.4069 -0.2984
  454MOL0     C59841   0.207   4.899   7.505  0.3994  0.3822  0.1911
  454MOL0     C59842   0.303   4.796   7.491 -0.2692  0.0291 -0.0995
  454MOL0     O59843   0.423   4.534   7.686  0.2708 -0.2273 -0.3163
  454MOL0     C59844   0.657   4.366   7.574  0.1039  0.7854 -0.7156
  454MOL0     C59845   0.748   4.277   7.505  0.2516 -0.2908 -0.1758
  454MOL0     N59846   1.409   4.253   7.066 -0.4723 -0.0021 -0.4138
  454MOL0     N59847   1.527   4.248   7.003  0.5123 -0.4304  0.3588
  454MOL0     C59848   2.762   3.866   7.206  0.5476 -1.1462 -0.3032
  454MOL0     C59849   2.891   3.857   7.255  0.0461  0.7546  0.0775
  454MOL0     C59850   3.266   3.868   7.479 -0.6754  0.1968  0.0587
  454MOL0     C59851   3.316   3.740   7.515 -0.1062  0.7886  0.2610
  454MOL0     C59852   3.456   3.716   7.554  0.7662  0.2252 -0.0356
  454MOL0     C59853   3.541   3.830   7.560 -0.0279 -0.1508 -0.2571
  454MOL0     O59854   3.668   3.809   7.591 -0.2178  0.3176 -0.0186
  454MOL0     C59855   3.756   3.924   7.605 -0.4721  0.1648  0.5117
  454MOL0     C59856   3.904   3.876   7.594 -0.9083 -0.4525 -0.4962
  454MOL0     C59857   3.947   3.806   7.726 -0.1022  0.2219  0.3700
  454MOL0     C59858   3.983   3.913   7.828 -0.2675 -0.2177  0.4167
  454MOL0     C59859   4.104   3.871   7.906 -0.0372  0.5191  0.1004
  454MOL0     C59860   4.206   3.849   7.975  0.4968  0.7059  0.9436
  454MOL0     C59861   3.482   3.955   7.529 -0.2363  0.0567  1.0200
  454MOL0     C59862   3.359   3.977   7.488  0.8964  0.0641  0.5150
  454MOL0     H59863   2.843   3.663   7.523 -0.7702 -0.4694 -0.1546
  454MOL0     H59864   2.605   3.648   7.413  0.0745 -3.0356 -5.5249
  454MOL0     H59865   2.464   3.746   7.004  1.3900 -1.3295  1.3683
  454MOL0     H59866   2.604   3.852   7.019 -0.0774  0.8893 -1.1845
  454MOL0     H59867   2.413   3.994   6.972 -0.2639  2.0830  1.2983
  454MOL0     H59868   2.487   4.021   7.131  0.9479  2.3048 -2.2841
  454MOL0     H59869   2.302   3.895   7.241 -0.9204  1.8876  1.5999
  454MOL0     H59870   2.242   3.839   7.090  1.6058 -0.4371  0.5731
  454MOL0     H59871   2.239   4.112   7.217 -2.0202 -1.6491  1.9019
  454MOL0     H59872   2.235   4.115   7.041  0.8868 -0.4219 -0.2807
  454MOL0     H59873   2.023   3.976   7.214  0.6591  1.4814  1.2945
  454MOL0     H59874   2.022   3.995   7.033 -1.2329 -0.3338 -0.1566
  454MOL0     H59875   2.008   4.226   7.047 -2.6276  2.4380  0.4666
  454MOL0     H59876   2.034   4.226   7.226 -0.7879  0.7778 -0.4090
  454MOL0     H59877   1.812   4.075   7.231  1.7577 -0.1316 -0.0326
  454MOL0     H59878   1.788   4.246   7.204  0.3485 -0.9437  0.6876
  454MOL0     H59879   1.750   4.027   7.006 -0.3018 -1.0599  2.5139
  454MOL0     H59880   1.777   4.196   6.959  2.4655  1.2821  2.2444
  454MOL0     H59881   1.556   4.015   7.240  1.4667 -3.2392 -3.5235
  454MOL0     H59882   1.307   4.151   7.352  1.0195  0.5223 -0.0769
  454MOL0     H59883   1.278   4.014   7.251 -0.4283  0.5486 -1.7816
  454MOL0     H59884   1.127   4.204   7.100 -2.8865  0.7178  1.3308
  454MOL0     H59885   1.163   4.307   7.229 -0.0064  0.0073  1.5114
  454MOL0     H59886   1.041   4.034   7.263 -1.4249 -0.0517  0.0035
  454MOL0     H59887   1.055   4.165   7.388 -0.5875  0.1823 -0.4288
  454MOL0     H59888   0.882   4.182   7.136  1.1026 -1.5288 -0.3516
  454MOL0     H59889   0.920   4.309   7.262  1.9721  0.0999  0.2089
  454MOL0     H59890   0.563   4.188   7.248  0.9137  0.7162 -1.3866
  454MOL0     H59891   0.402   4.347   7.360 -1.4765 -0.9373  2.3974
  454MOL0     H59892   0.089   4.544   7.531 -1.4587  0.5423 -2.1541
  454MOL0     H59893  -0.069   4.723   7.559  0.7038 -1.2974  0.1852
  454MOL0     H59894  -0.170   4.883   7.662 -1.9413 -0.5973 -1.0652
  454MOL0     H59895  -0.203   4.942   7.506  0.3899  0.2233 -0.5518
  454MOL0     H59896  -0.200   5.184   7.587  1.9732  0.0929 -0.0217
  454MOL0     H59897  -0.173   5.115   7.750 -2.8955 -1.8258  2.1637
  454MOL0     H59898  -0.384   4.967   7.654 -1.0491  0.9046  1.9366
  454MOL0     H59899  -0.435   5.114   7.581 -1.3210 -1.1733 -0.5855
  454MOL0     H59900  -0.352   5.098   7.876  1.4090  0.1784 -0.4127
  454MOL0     H59901  -0.453   5.226   7.798 -0.1083  0.7836 -2.0564
  454MOL0     H59902  -0.594   5.082   7.933 -1.4838  1.4383  0.0588
  454MOL0     H59903  -0.547   4.935   7.840 -0.9471  0.2025  1.1999
  454MOL0     H59904  -0.648   5.011   7.631  0.4942 -0.1342  0.6150
  454MOL0     H59905  -0.692   5.173   7.694  0.5129  2.0957  3.7179
  454MOL0     H59906  -0.890   5.004   7.700 -1.5104  1.1814  2.0331
  454MOL0     H59907  -0.791   4.891   7.768 -0.9550 -0.5918 -0.4278
  454MOL0     H59908  -0.804   5.114   7.965  0.2166 -0.2802 -0.7094
  454MOL0     H59909  -0.889   4.958   7.972  1.1534 -0.2161  0.3096
  454MOL0     H59910   0.236   5.003   7.490 -1.5009  0.8234 -0.8135
  454MOL0     H59911   0.406   4.815   7.461  0.3486  1.4818  2.5345
  454MOL0     H59912   0.710   4.407   7.659 -4.1645 -1.6332  3.6858
  454MOL0     H59913   0.846   4.265   7.550 -0.3398  3.6864  2.6325
  454MOL0     H59914   2.734   3.934   7.127 -3.4072  0.6725  2.3477
  454MOL0     H59915   2.972   3.912   7.207 -0.3116  0.5738 -0.7540
  454MOL0     H59916   3.253   3.652   7.504  0.5900  0.2976  0.1490
  454MOL0     H59917   3.502   3.621   7.579 -1.5227 -0.9207  0.0389
  454MOL0     H59918   3.739   3.981   7.697 -0.4521 -0.0268  0.6337
  454MOL0     H59919   3.747   3.993   7.521 -0.9998  0.5566  0.8784
  454MOL0     H59920   3.900   3.809   7.507 -3.0412 -0.1265 -0.7033
  454MOL0     H59921   3.966   3.961   7.562  0.0608 -0.8433  0.2878
  454MOL0     H59922   4.036   3.745   7.706 -2.4656 -2.8935 -1.6674
  454MOL0     H59923   3.868   3.739   7.762 -0.0290 -0.3520 -0.5149
  454MOL0     H59924   4.002   4.009   7.780 -0.9210  0.0248  0.6260
  454MOL0     H59925   3.903   3.916   7.903 -0.4887  0.6186  0.1572
  454MOL0     H59926   4.293   3.835   8.035  1.4340 -1.1937 -0.7185
  454MOL0     H59927   3.540   4.043   7.556  0.8212 -0.3406  0.1089
  454MOL0     H59928   3.325   4.078   7.468  0.1258 -0.4425 -0.9009
  455MOL0     O59929   9.778   2.234   8.280  0.6153 -0.5794 -0.8869
  455MOL0     C59930   9.866   2.190   8.349 -0.1587 -0.3614 -0.3105
  455MOL0     O59931   9.866   2.166   8.483  0.1159  0.6086  0.7687
  455MOL0     C59932   9.742   2.176   8.537  0.5999  0.1650 -1.2033
  455MOL0     C59933   9.716   2.270   8.634  0.2365 -0.8492 -0.4850
  455MOL0     C59934   9.588   2.283   8.697  0.1584  1.2485  0.2300
  455MOL0     C59935   9.483   2.192   8.672  0.4624  0.9734  0.0688
  455MOL0     O59936   9.358   2.213   8.736 -0.2342 -0.2762  0.3861
  455MOL0     C59937   9.268   2.099   8.739 -0.3620  0.5093  0.1605
  455MOL0     C59938   9.165   2.127   8.840 -0.2290  0.5434 -0.9127
  455MOL0     C59939   9.099   1.997   8.881 -1.4014 -0.5528  1.3020
  455MOL0     C59940   8.972   2.014   8.962 -0.8748  0.1922 -0.1086
  455MOL0     C59941   8.862   2.087   8.886  0.5662 -0.0182 -0.4963
  455MOL0     C59942   8.736   2.061   8.966  0.0958  0.3799  0.0697
  455MOL0     C59943   8.625   2.151   8.902 -0.9968  0.3448 -0.1838
  455MOL0     C59944   8.503   2.171   8.994 -0.1555 -0.2295 -0.7962
  455MOL0     N59945   8.497   2.312   9.047  0.1513  0.0414  0.5944
  455MOL0     C59946   8.565   2.386   9.134  0.1206 -0.3521 -0.9692
  455MOL0     C59947   8.504   2.500   9.141  0.4906 -0.4925  0.6805
  455MOL0     C59948   8.537   2.619   9.222  0.2014 -0.5301 -0.0399
  455MOL0     C59949   8.588   2.592   9.365 -0.4085 -0.1403 -0.3191
  455MOL0     C59950   8.495   2.524   9.458  0.1967 -0.9015 -0.3778
  455MOL0     C59951   8.567   2.510   9.587  0.4858 -0.5191 -0.3221
  455MOL0     O59952   8.674   2.414   9.590  0.1432 -0.1183 -0.9294
  455MOL0     C59953   8.657   2.298   9.523 -0.4632 -0.8775 -0.0363
  455MOL0     C59954   8.753   2.255   9.430  0.1577  0.5466  0.0934
  455MOL0     C59955   8.745   2.129   9.364 -0.1876 -0.4216 -0.0206
  455MOL0     C59956   8.618   2.065   9.370  0.1336 -0.2295 -0.1306
  455MOL0     C59957   8.599   1.928   9.309  0.1210  1.5914  0.1750
  455MOL0     O59958   8.492   1.852   9.338  0.3899  0.3313 -0.1028
  455MOL0     C59959   8.429   1.766   9.260  0.7598 -0.0783  0.4639
  455MOL0     C59960   8.449   1.757   9.120 -0.5309 -0.0164 -0.2834
  455MOL0     C59961   8.393   1.653   9.054  0.0379 -0.2300  0.5762
  455MOL0     C59962   8.301   1.566   9.111  0.2226 -0.3533 -0.1086
  455MOL0     O59963   8.257   1.463   9.028  0.5516 -0.0536  0.8628
  455MOL0     C59964   8.144   1.393   9.079 -0.2998 -0.2354 -0.3952
  455MOL0     C59965   8.091   1.288   8.986  1.1865  0.0798  0.1460
  455MOL0     C59966   8.185   1.170   8.969 -0.5011  0.6468  0.1631
  455MOL0     C59967   8.187   1.110   8.828 -0.6950  0.6911 -0.0747
  455MOL0     C59968   8.308   1.009   8.808 -0.5995  0.0713  0.1455
  455MOL0     C59969   8.309   0.927   8.679  0.3878 -0.8528 -0.4356
  455MOL0     C59970   8.430   0.843   8.659 -0.7173  0.6188  0.3733
  455MOL0     C59971   8.398   0.690   8.661 -0.1590 -0.0586  0.4237
  455MOL0    Cl59972   8.546   0.596   8.631 -0.0959 -0.5653 -0.0740
  455MOL0     C59973   8.264   1.588   9.246  0.2426 -1.1524 -0.1928
  455MOL0     C59974   8.334   1.687   9.321  0.5182 -0.2405 -0.6541
  455MOL0     O59975   8.687   1.894   9.228 -0.4249  0.2696  0.4701
  455MOL0     C59976   8.514   2.108   9.459  0.4646  0.4470  0.3500
  455MOL0     C59977   8.542   2.221   9.536 -0.3394 -0.0203  0.1854
  455MOL0     N59978   8.398   2.496   9.049 -0.4211  0.3132 -0.2760
  455MOL0     N59979   8.395   2.384   8.994 -0.3413  0.1858  0.9885
  455MOL0     C59980   9.510   2.088   8.575 -0.6977 -0.3937  1.2119
  455MOL0     C59981   9.639   2.080   8.513  0.9514  0.2573  0.0148
  455MOL0     C59982   9.995   2.180   8.281  0.3215 -0.2693 -0.2436
  455MOL0     C59983  10.025   2.242   8.160  0.4498  0.9166  0.8918
  455MOL0     C59984  10.158   2.230   8.101 -0.0627  1.3180 -0.1198
  455MOL0     C59985  10.261   2.162   8.172 -0.8672  0.4411  0.0131
  455MOL0     O59986  10.387   2.164   8.121  0.5472 -0.0632  0.5554
  455MOL0     C59987  10.479   2.058   8.132  0.1955  0.2974 -0.8550
  455MOL0     C59988  10.617   2.105   8.162  0.9012 -1.0894 -0.1668
  455MOL0     C59989  10.685   2.187   8.057  0.1951  0.0686 -0.7546
  455MOL0     C59990  10.836   2.153   8.030 -0.5658  0.6473 -0.7344
  455MOL0     C59991  10.931   2.226   8.113 -0.6808  0.0457 -0.8539
  455MOL0     C59992  11.016   2.288   8.177  0.9329  0.7552  0.2703
  455MOL0     C59993  10.229   2.099   8.286  1.2260 -0.4189 -0.5427
  455MOL0     C59994  10.104   2.109   8.338 -0.0127  0.1605  0.1641
  455MOL0     H59995   9.790   2.342   8.665  0.6506 -1.7626  0.7009
  455MOL0     H59996   9.550   2.358   8.766 -0.9222  1.7334 -0.8560
  455MOL0     H59997   9.325   2.013   8.775  0.5771  0.6342 -0.9683
  455MOL0     H59998   9.234   2.078   8.637 -0.0844 -2.1762  0.5303
  455MOL0     H59999   9.104   2.212   8.807 -2.4227  0.2424  1.9293
  455MOL0     H60000   9.222   2.161   8.927  1.9585  0.3047 -2.1959
  455MOL0     H60001   9.168   1.943   8.947 -0.3265  1.6572  2.0739
  455MOL0     H60002   9.078   1.931   8.796  1.7982 -0.9101  0.6798
  455MOL0     H60003   8.943   1.912   8.988 -1.3342  0.9848  2.8430
  455MOL0     H60004   9.001   2.053   9.060 -0.9921  0.3454 -0.1334
  455MOL0     H60005   8.864   2.047   8.784 -1.8227 -1.9751  0.1223
  455MOL0     H60006   8.885   2.194   8.887  3.0040 -0.4476 -1.6776
  455MOL0     H60007   8.755   2.096   9.067  1.1239  1.8184 -0.5907
  455MOL0     H60008   8.720   1.953   8.955  0.2683  0.5198 -2.1105
  455MOL0     H60009   8.671   2.247   8.879 -2.1274  1.2517  1.2158
  455MOL0     H60010   8.599   2.098   8.809 -1.0814 -1.2068  0.6907
  455MOL0     H60011   8.493   2.099   9.076 -2.0105  0.6893 -0.1510
  455MOL0     H60012   8.414   2.154   8.933  0.0389 -1.1039 -0.8483
  455MOL0     H60013   8.640   2.362   9.209 -1.8326  2.0202  2.0000
  455MOL0     H60014   8.450   2.684   9.225 -0.1151 -0.8772 -1.3199
  455MOL0     H60015   8.628   2.666   9.183  0.9432  0.1874  2.3281
  455MOL0     H60016   8.617   2.683   9.418  1.1106 -1.4585  1.2264
  455MOL0     H60017   8.683   2.538   9.360  1.0246  2.2569 -0.0467
  455MOL0     H60018   8.413   2.594   9.476  0.9870  0.5527 -2.0864
  455MOL0     H60019   8.445   2.434   9.421  0.6096 -1.9556  1.4869
  455MOL0     H60020   8.502   2.474   9.667 -0.1790 -0.8512 -1.0012
  455MOL0     H60021   8.593   2.613   9.613 -1.3968 -0.2312  0.5323
  455MOL0     H60022   8.847   2.310   9.426 -0.6835  2.0384 -0.0575
  455MOL0     H60023   8.828   2.090   9.306  0.1845  1.5637 -0.9288
  455MOL0     H60024   8.522   1.815   9.065  0.0673 -1.0437 -0.6171
  455MOL0     H60025   8.402   1.638   8.947  0.1644  0.8408  0.4300
  455MOL0     H60026   8.053   1.453   9.092  0.8316  1.7839 -1.3002
  455MOL0     H60027   8.175   1.354   9.177 -0.9093 -0.5898 -0.3379
  455MOL0     H60028   8.091   1.343   8.891  1.0419  0.9888  0.6645
  455MOL0     H60029   7.985   1.262   9.001  0.0070  1.8524 -3.7697
  455MOL0     H60030   8.174   1.098   9.050  1.0240  1.9510  1.6408
  455MOL0     H60031   8.283   1.215   8.989 -0.1127  1.0320 -2.3023
  455MOL0     H60032   8.094   1.052   8.822 -0.3561 -0.0117  1.0358
  455MOL0     H60033   8.185   1.187   8.750  0.9300  0.3296 -0.5183
  455MOL0     H60034   8.307   0.932   8.886  0.8330 -0.6473 -0.5313
  455MOL0     H60035   8.394   1.076   8.817 -1.0808  0.5752  1.2602
  455MOL0     H60036   8.316   0.996   8.596  3.7355  0.3912  0.7112
  455MOL0     H60037   8.214   0.874   8.667 -0.7719  1.0223  0.0611
  455MOL0     H60038   8.487   0.872   8.570  0.0299 -1.1080  0.2475
  455MOL0     H60039   8.504   0.869   8.735  0.5533 -0.8235 -0.3308
  455MOL0     H60040   8.319   0.659   8.592 -0.1312  0.2202  0.2652
  455MOL0     H60041   8.365   0.680   8.765 -2.8954  0.7835 -0.2896
  455MOL0     H60042   8.181   1.537   9.295 -0.6234 -0.6288 -1.0898
  455MOL0     H60043   8.317   1.700   9.427  2.2680  0.1595 -0.3945
  455MOL0     H60044   8.422   2.055   9.481  0.4774  0.8034  1.3300
  455MOL0     H60045   8.475   2.249   9.616 -0.0165 -0.9979  0.8030
  455MOL0     H60046   9.453   2.000   8.547 -2.3924  0.0900  2.9630
  455MOL0     H60047   9.651   1.989   8.455  0.6436  0.8314 -0.9677
  455MOL0     H60048   9.957   2.313   8.114  0.9666  2.9799  3.0538
  455MOL0     H60049  10.187   2.283   8.011  2.2471  1.0628  0.4006
  455MOL0     H60050  10.470   2.006   8.036 -1.8448 -2.1916  0.5656
  455MOL0     H60051  10.454   1.982   8.207  0.3162  0.3750 -0.7360
  455MOL0     H60052  10.616   2.157   8.258 -4.6036  0.4614 -0.7422
  455MOL0     H60053  10.679   2.017   8.185  2.9035  0.3726  0.2964
  455MOL0     H60054  10.672   2.289   8.094 -4.6870 -0.7968  0.6927
  455MOL0     H60055  10.633   2.178   7.961  2.1150 -0.9479 -1.7539
  455MOL0     H60056  10.848   2.045   8.032  2.4078  0.9090  0.6372
  455MOL0     H60057  10.849   2.181   7.926  0.9359 -2.8725 -1.6201
  455MOL0     H60058  11.089   2.334   8.241 -2.2052  3.8470  1.9474
  455MOL0     H60059  10.304   2.036   8.333  3.1323  2.2209  0.2006
  455MOL0     H60060  10.089   2.056   8.432  1.7457 -0.3760  0.1742
  456MOL0     O60061  10.197   5.836   8.500  0.0103 -0.1845 -0.1075
  456MOL0     C60062  10.179   5.779   8.606 -1.0112  0.1844  0.1506
  456MOL0     O60063  10.275   5.721   8.687  0.0508 -0.5970  0.8134
  456MOL0     C60064  10.407   5.738   8.650 -0.6045 -1.1269 -0.5234
  456MOL0     C60065  10.467   5.628   8.580 -0.2849  0.3126  0.7103
  456MOL0     C60066  10.596   5.635   8.533 -0.4926  1.3054 -0.3749
  456MOL0     C60067  10.680   5.744   8.564 -0.0864 -0.5062  0.3975
  456MOL0     O60068  10.811   5.764   8.518 -0.1105  0.6223 -0.5111
  456MOL0     C60069  10.865   5.651   8.441 -0.1440 -0.2697 -0.4121
  456MOL0     C60070  11.014   5.664   8.426 -0.1187  0.1964  0.0014
  456MOL0     C60071  11.069   5.514   8.426 -0.6907  0.0469  0.3681
  456MOL0     C60072  11.226   5.522   8.430 -0.5850  0.9798  0.5849
  456MOL0     C60073  11.296   5.404   8.378 -0.3872  0.2390  1.2507
  456MOL0     C60074  11.440   5.438   8.351  0.3459  0.0921 -0.5745
  456MOL0     C60075  11.517   5.323   8.283 -0.2427 -0.1866 -0.8663
  456MOL0     C60076  11.670   5.351   8.268 -0.4575  0.0973 -0.2282
  456MOL0     N60077  11.719   5.279   8.146 -0.7495  1.2780  0.1833
  456MOL0     C60078  11.739   5.141   8.124  0.9719  0.2825 -0.2751
  456MOL0     C60079  11.768   5.119   8.000  0.3983  0.4334  0.2444
  456MOL0     C60080  11.775   4.983   7.939 -0.1655 -0.0740  0.1478
  456MOL0     C60081  11.648   4.948   7.857  0.0936 -0.5250  0.0697
  456MOL0     C60082  11.519   4.921   7.945 -0.1144 -0.1000 -0.3879
  456MOL0     C60083  11.447   5.048   7.983 -0.2275  0.2437 -0.3795
  456MOL0     O60084  11.350   4.999   8.074 -0.4889 -0.6426 -0.4776
  456MOL0     C60085  11.225   5.060   8.090 -0.9532 -0.1696 -0.0145
  456MOL0     C60086  11.210   5.194   8.076 -0.0088 -1.2878  0.4978
  456MOL0     C60087  11.077   5.251   8.094  0.4639  0.0563  0.1650
  456MOL0     C60088  10.967   5.176   8.143  0.2572  0.2432  0.3704
  456MOL0     C60089  10.836   5.229   8.179 -0.3433 -0.4884 -0.0688
  456MOL0     O60090  10.757   5.139   8.248  0.5440 -0.1610 -0.4286
  456MOL0     C60091  10.655   5.193   8.317  0.1569 -0.0631  0.0526
  456MOL0     C60092  10.684   5.260   8.438 -0.3225  0.2371  1.2852
  456MOL0     C60093  10.580   5.309   8.518 -0.1252 -0.0880 -0.6790
  456MOL0     C60094  10.442   5.286   8.477  0.6315 -0.0688  0.3070
  456MOL0     O60095  10.325   5.333   8.530  0.1511 -0.9941 -0.5947
  456MOL0     C60096  10.292   5.282   8.663  0.7264 -0.2729 -0.3424
  456MOL0     C60097  10.158   5.209   8.647  0.9832 -0.0788 -0.2092
  456MOL0     C60098  10.059   5.298   8.574 -0.8840  0.3214 -0.0214
  456MOL0     C60099   9.924   5.228   8.570  0.0876  0.1878  0.2687
  456MOL0     C60100   9.813   5.323   8.527 -0.2665 -0.9298 -0.0150
  456MOL0     C60101   9.825   5.475   8.565 -0.3286  0.2207  0.5741
  456MOL0     C60102   9.684   5.546   8.549 -0.6510  0.7647 -0.3052
  456MOL0     C60103   9.658   5.592   8.405 -0.2392 -0.1756 -0.0806
  456MOL0    Cl60104   9.508   5.705   8.404  0.1651  0.1022 -0.1895
  456MOL0     C60105  10.417   5.224   8.355 -0.3732 -0.2068  0.0772
  456MOL0     C60106  10.522   5.176   8.278  0.2364  0.2492 -0.6860
  456MOL0     O60107  10.810   5.347   8.141 -0.1629 -0.2152 -0.8524
  456MOL0     C60108  10.995   5.038   8.165  0.4964  0.5589 -0.6520
  456MOL0     C60109  11.118   4.982   8.124 -0.2596 -0.0795  0.2903
  456MOL0     N60110  11.767   5.246   7.936  0.0540  0.4249 -0.6096
  456MOL0     N60111  11.740   5.340   8.024  0.8099 -0.3504 -0.3941
  456MOL0     C60112  10.621   5.847   8.650  0.0700  0.5088  0.3442
  456MOL0     C60113  10.490   5.839   8.694 -0.6769 -0.0931 -0.5862
  456MOL0     C60114  10.046   5.788   8.667  0.1222  0.0021  0.7723
  456MOL0     C60115  10.002   5.736   8.789  0.1037  0.6524 -0.0036
  456MOL0     C60116   9.874   5.749   8.835  0.2954 -1.3106  0.7205
  456MOL0     C60117   9.773   5.819   8.770  0.1969  0.7109  0.3556
  456MOL0     O60118   9.658   5.835   8.844  0.1992 -1.1213 -0.1381
  456MOL0     C60119   9.538   5.866   8.776 -0.4638 -0.4234  0.3330
  456MOL0     C60120   9.446   5.747   8.802  0.0915  0.0466  0.8090
  456MOL0     C60121   9.318   5.762   8.729  0.3460 -0.3833 -0.5478
  456MOL0     C60122   9.231   5.656   8.790 -0.8235  0.5010 -0.9443
  456MOL0     C60123   9.119   5.650   8.708 -0.0946 -0.5001 -0.1233
  456MOL0     C60124   9.019   5.636   8.643  0.0770  0.1828  0.0917
  456MOL0     C60125   9.809   5.865   8.633 -0.4870 -0.5350  0.5253
  456MOL0     C60126   9.943   5.857   8.588  0.6961  0.4769  0.1001
  456MOL0     H60127  10.390   5.562   8.540  0.0979 -0.2952  0.9639
  456MOL0     H60128  10.633   5.558   8.466 -2.3770  0.5490 -0.6210
  456MOL0     H60129  10.824   5.629   8.342 -0.4904 -1.8261  0.0570
  456MOL0     H60130  10.838   5.566   8.504 -2.3539  0.7995  0.1877
  456MOL0     H60131  11.049   5.718   8.514  2.2467  1.7551 -1.7684
  456MOL0     H60132  11.043   5.725   8.340 -1.9222  0.6349 -0.3424
  456MOL0     H60133  11.023   5.463   8.341 -3.3455  2.1183  0.4348
  456MOL0     H60134  11.036   5.453   8.511 -1.8353  2.4446  1.7783
  456MOL0     H60135  11.251   5.611   8.371 -0.6287  1.3408  1.1015
  456MOL0     H60136  11.256   5.543   8.533  1.6269  3.2967 -0.4129
  456MOL0     H60137  11.248   5.369   8.286  3.0417  0.3594 -0.7455
  456MOL0     H60138  11.288   5.316   8.443 -1.2454 -0.1847  0.5899
  456MOL0     H60139  11.495   5.463   8.443  1.8041  1.2252 -1.7098
  456MOL0     H60140  11.450   5.518   8.277 -0.7241 -0.4113 -1.2781
  456MOL0     H60141  11.491   5.232   8.337  2.7307  0.3286  1.7186
  456MOL0     H60142  11.480   5.314   8.181  0.1309  0.8468 -1.0973
  456MOL0     H60143  11.713   5.305   8.357 -3.1818 -0.9398  0.6682
  456MOL0     H60144  11.692   5.458   8.263  3.6710 -0.5472  0.5225
  456MOL0     H60145  11.717   5.056   8.188  1.5916 -1.8003 -2.6661
  456MOL0     H60146  11.798   4.906   8.013  0.5297 -0.5177 -0.5120
  456MOL0     H60147  11.861   4.980   7.871  1.1635  0.5952  1.7408
  456MOL0     H60148  11.667   4.853   7.805 -2.4874  0.3778 -2.8210
  456MOL0     H60149  11.605   5.017   7.784 -3.4595 -0.7524  1.7601
  456MOL0     H60150  11.447   4.865   7.885 -0.8350 -0.6257  0.9268
  456MOL0     H60151  11.556   4.871   8.035  2.5759  2.5042  0.1036
  456MOL0     H60152  11.409   5.096   7.892 -2.1257 -1.7057 -0.7188
  456MOL0     H60153  11.512   5.124   8.026 -1.7566  2.8270 -2.2939
  456MOL0     H60154  11.294   5.253   8.039  0.5484 -2.9336 -1.0362
  456MOL0     H60155  11.060   5.358   8.088  0.1434 -0.0744 -2.3463
  456MOL0     H60156  10.785   5.271   8.477 -1.0833 -0.7595  3.7061
  456MOL0     H60157  10.593   5.352   8.617  1.6033 -1.6006 -0.1953
  456MOL0     H60158  10.298   5.362   8.738 -0.2907 -2.1114  1.8244
  456MOL0     H60159  10.351   5.198   8.701  0.2675  0.6419  2.6372
  456MOL0     H60160  10.115   5.187   8.745 -0.8282  0.5184 -0.8189
  456MOL0     H60161  10.170   5.112   8.599  3.0615 -0.3326  0.7272
  456MOL0     H60162  10.094   5.306   8.471 -0.8330  1.1826  0.0519
  456MOL0     H60163  10.055   5.390   8.633 -2.4906  2.0657 -2.6543
  456MOL0     H60164   9.926   5.143   8.501  0.8703  2.2349 -2.4300
  456MOL0     H60165   9.893   5.193   8.669 -1.2968 -1.1667 -0.6068
  456MOL0     H60166   9.717   5.289   8.567 -0.7961 -0.2955 -0.7173
  456MOL0     H60167   9.795   5.316   8.420 -2.7685  0.1101  0.2823
  456MOL0     H60168   9.893   5.524   8.494 -0.7140 -1.0319 -0.6968
  456MOL0     H60169   9.866   5.481   8.666  0.0918 -1.1594  0.4982
  456MOL0     H60170   9.616   5.468   8.583  0.5917 -0.5358 -0.6835
  456MOL0     H60171   9.684   5.640   8.605  1.6882  1.1564 -0.8560
  456MOL0     H60172   9.643   5.511   8.334  0.7538  2.1209 -3.0982
  456MOL0     H60173   9.736   5.658   8.367 -1.2185  0.3710 -1.2147
  456MOL0     H60174  10.318   5.222   8.312 -0.3702  0.1378  0.0483
  456MOL0     H60175  10.498   5.147   8.177 -2.1155  3.0323 -1.0692
  456MOL0     H60176  10.920   4.972   8.207  2.2992 -1.4749 -0.4316
  456MOL0     H60177  11.124   4.874   8.123  1.6980 -0.1391 -4.1393
  456MOL0     H60178  10.675   5.939   8.670  0.3484  0.4829 -0.3024
  456MOL0     H60179  10.466   5.920   8.762  2.6650  0.4075  0.1816
  456MOL0     H60180  10.062   5.658   8.836  0.5269 -0.2262 -1.9018
  456MOL0     H60181   9.837   5.711   8.930 -1.8398 -1.1272  0.0275
  456MOL0     H60182   9.549   5.865   8.667  0.6674 -0.2553  0.4382
  456MOL0     H60183   9.504   5.966   8.806  1.2506  0.9516 -1.9778
  456MOL0     H60184   9.494   5.660   8.758 -1.7490 -1.7497  2.1434
  456MOL0     H60185   9.446   5.727   8.910  1.0611  1.4945  1.1089
  456MOL0     H60186   9.343   5.757   8.622 -0.2012 -0.1737 -0.6921
  456MOL0     H60187   9.278   5.862   8.748 -3.8452 -2.2562  1.8451
  456MOL0     H60188   9.296   5.567   8.786 -0.0184  0.9279  1.1859
  456MOL0     H60189   9.206   5.673   8.895  0.6505 -2.4341 -0.0041
  456MOL0     H60190   8.937   5.628   8.574  1.3498 -0.2331 -1.4380
  456MOL0     H60191   9.735   5.917   8.573  1.8547  2.2609 -0.1579
  456MOL0     H60192   9.972   5.887   8.487 -1.0184 -1.8715 -1.2065
  457MOL0     O60193   5.006   4.184  10.787 -0.5283 -0.4154  0.4694
  457MOL0     C60194   5.062   4.156  10.888  0.0576 -0.4018 -0.0426
  457MOL0     O60195   5.008   4.075  10.988  0.1920  0.0192 -0.0380
  457MOL0     C60196   4.879   4.034  10.978  0.3817  0.5356  0.2469
  457MOL0     C60197   4.806   4.043  11.104  0.0314 -0.3009  0.3651
  457MOL0     C60198   4.669   4.016  11.098  0.2039 -0.7435 -0.1608
  457MOL0     C60199   4.607   3.980  10.976  0.9182  0.8346 -0.5381
  457MOL0     O60200   4.468   3.969  10.995  0.8489 -0.2258  0.6442
  457MOL0     C60201   4.403   3.863  10.923  0.0977 -0.6882 -0.9256
  457MOL0     C60202   4.243   3.868  10.947 -0.0037 -0.8545  0.1854
  457MOL0     C60203   4.179   4.007  10.914 -0.2828 -0.3299 -0.1309
  457MOL0     C60204   4.025   3.998  10.906  0.8738 -0.4360 -0.1425
  457MOL0     C60205   3.964   4.130  10.838 -0.1758  0.4701 -0.2712
  457MOL0     C60206   3.823   4.108  10.797 -0.0906 -0.2589 -0.5356
  457MOL0     C60207   3.766   4.200  10.684 -0.0894  0.0197  0.3439
  457MOL0     C60208   3.739   4.337  10.742  0.7671  0.0802 -0.1654
  457MOL0     N60209   3.724   4.436  10.631  0.3709 -1.2610 -0.6889
  457MOL0     C60210   3.616   4.450  10.548 -0.2043  0.4021  0.6293
  457MOL0     C60211   3.662   4.536  10.451 -0.2837 -1.0068  0.6223
  457MOL0     C60212   3.579   4.570  10.329 -0.3400 -0.2436  0.4297
  457MOL0     C60213   3.496   4.691  10.361 -0.1526  0.1887 -0.2784
  457MOL0     C60214   3.432   4.736  10.237 -0.3025  0.1992 -0.3872
  457MOL0     C60215   3.359   4.872  10.258  0.8396 -0.4660  0.6235
  457MOL0     O60216   3.233   4.856  10.327 -0.2752  0.3393  0.0389
  457MOL0     C60217   3.114   4.845  10.268  0.2246 -0.7555 -0.9948
  457MOL0     C60218   3.005   4.916  10.331 -0.0935  0.4108 -0.1781
  457MOL0     C60219   2.876   4.911  10.285  0.4486  0.1598  0.2088
  457MOL0     C60220   2.850   4.823  10.177  0.7057  0.2058 -0.5506
  457MOL0     C60221   2.702   4.815  10.129 -0.1469 -0.4778  0.5130
  457MOL0     O60222   2.679   4.754  10.004  0.8654 -0.0971  0.8431
  457MOL0     C60223   2.556   4.767   9.951  0.4164 -0.2095 -0.5575
  457MOL0     C60224   2.516   4.884   9.880 -0.1571 -0.7031 -0.5106
  457MOL0     C60225   2.393   4.890   9.820  1.0440  0.1557 -0.2941
  457MOL0     C60226   2.297   4.794   9.828  0.0460 -0.4144  0.2434
  457MOL0     O60227   2.187   4.801   9.743  0.1379  0.8381  0.3206
  457MOL0     C60228   2.090   4.702   9.758  0.6829 -0.3989  0.4554
  457MOL0     C60229   1.981   4.742   9.650  0.0559  0.1401  0.8906
  457MOL0     C60230   1.872   4.636   9.638 -0.2248  0.1762 -0.7240
  457MOL0     C60231   1.766   4.686   9.544 -0.1478  0.8573  0.0318
  457MOL0     C60232   1.800   4.697   9.391 -0.8245 -0.1954 -0.4214
  457MOL0     C60233   1.675   4.734   9.308  0.1885  0.5477  0.6493
  457MOL0     C60234   1.571   4.611   9.299 -0.4692 -0.4117  0.1184
  457MOL0     C60235   1.449   4.644   9.211 -1.2618 -0.1752 -0.6855
  457MOL0    Cl60236   1.363   4.796   9.280 -0.1446  0.1306 -0.2198
  457MOL0     C60237   2.323   4.692   9.919  0.2586 -0.6755  0.3744
  457MOL0     C60238   2.458   4.671   9.972  0.4690  0.1134 -0.0983
  457MOL0     O60239   2.615   4.846  10.211  0.0161  0.2508 -0.4635
  457MOL0     C60240   2.951   4.758  10.111  0.8679  0.2562  0.0680
  457MOL0     C60241   3.081   4.770  10.150 -0.4767 -0.0999 -0.4503
  457MOL0     N60242   3.790   4.575  10.479 -0.5898 -0.2503  0.9795
  457MOL0     N60243   3.831   4.510  10.582  0.5422 -0.5506 -0.0067
  457MOL0     C60244   4.681   3.967  10.863 -0.1585 -0.0119  1.3580
  457MOL0     C60245   4.817   3.981  10.861 -0.8580 -0.1314 -0.3623
  457MOL0     C60246   5.202   4.202  10.902  0.9856  0.5517 -0.1714
  457MOL0     C60247   5.273   4.251  10.792  0.3183 -0.1277 -0.2352
  457MOL0     C60248   5.415   4.279  10.802 -0.2803 -0.2497 -0.1400
  457MOL0     C60249   5.482   4.244  10.924  0.1017 -0.8956  0.1195
  457MOL0     O60250   5.617   4.267  10.945  0.3110 -0.1694 -0.3755
  457MOL0     C60251   5.711   4.307  10.843  1.0253  0.0402  1.0559
  457MOL0     C60252   5.855   4.259  10.872 -0.3991 -0.5254 -1.0744
  457MOL0     C60253   5.870   4.105  10.877  0.8048 -0.4661 -0.2204
  457MOL0     C60254   6.019   4.072  10.898  0.1627 -0.4318 -0.0736
  457MOL0     C60255   6.052   3.936  10.949  0.0490  0.0255  0.0070
  457MOL0     C60256   6.094   3.828  10.985 -0.6008  0.2053  0.9150
  457MOL0     C60257   5.407   4.194  11.030 -0.2131  0.7464  0.8679
  457MOL0     C60258   5.273   4.163  11.016  0.1867 -0.6199  0.1762
  457MOL0     H60259   4.855   4.078  11.194 -2.7459 -1.2322  2.3967
  457MOL0     H60260   4.603   4.018  11.183 -0.9228 -3.6870 -0.8487
  457MOL0     H60261   4.445   3.769  10.961  1.7791 -0.4497 -2.0834
  457MOL0     H60262   4.423   3.863  10.816 -1.1985 -0.4274 -1.1777
  457MOL0     H60263   4.225   3.838  11.051 -2.3564  0.3548  0.1971
  457MOL0     H60264   4.184   3.791  10.897  1.4739 -1.3966 -0.7878
  457MOL0     H60265   4.222   4.051  10.823  0.8695 -0.8168  0.1539
  457MOL0     H60266   4.191   4.080  10.995  2.4493 -0.7474 -0.0724
  457MOL0     H60267   4.014   3.910  10.843  0.6313 -2.3357  2.3792
  457MOL0     H60268   3.978   3.967  11.000 -3.3855 -1.7015 -2.4432
  457MOL0     H60269   4.031   4.152  10.754  1.1100 -0.0452  0.5766
  457MOL0     H60270   3.973   4.214  10.909  0.0854 -1.5515  2.2480
  457MOL0     H60271   3.765   4.124  10.888  1.6727  0.4664  0.5117
  457MOL0     H60272   3.815   4.005  10.762 -3.9040  0.7624 -3.4063
  457MOL0     H60273   3.830   4.212  10.595  0.8231  3.0166  1.2788
  457MOL0     H60274   3.669   4.155  10.659  0.6446 -1.2356 -0.3270
  457MOL0     H60275   3.808   4.371  10.820 -0.8482  0.0456  1.3523
  457MOL0     H60276   3.642   4.345  10.792  0.2775  2.0789 -1.3291
  457MOL0     H60277   3.527   4.390  10.561  1.7558 -2.7275  0.6728
  457MOL0     H60278   3.512   4.495  10.287 -1.8634  1.9254 -1.2458
  457MOL0     H60279   3.650   4.597  10.250 -0.3103  0.1108  0.5776
  457MOL0     H60280   3.561   4.773  10.392  1.0975 -0.3329 -1.3911
  457MOL0     H60281   3.421   4.673  10.438  0.6551 -2.4513  0.0093
  457MOL0     H60282   3.510   4.760  10.165  0.3930 -3.8234 -1.2436
  457MOL0     H60283   3.369   4.657  10.194  0.7731 -0.5104 -0.7063
  457MOL0     H60284   3.351   4.919  10.159  1.3894  0.3569  0.9527
  457MOL0     H60285   3.415   4.944  10.318 -0.1311 -1.2380  2.5392
  457MOL0     H60286   3.016   4.973  10.422 -1.9422 -2.1048  1.7595
  457MOL0     H60287   2.798   4.973  10.326 -0.3161  0.7813 -2.0580
  457MOL0     H60288   2.573   4.974   9.861 -2.6716  0.8714 -1.0284
  457MOL0     H60289   2.363   4.957   9.740 -0.6576 -0.0513  0.1253
  457MOL0     H60290   2.051   4.719   9.859  1.2357 -0.6558  0.7111
  457MOL0     H60291   2.126   4.603   9.731 -0.0451 -0.8923  1.2380
  457MOL0     H60292   2.032   4.752   9.553 -1.5695  1.8478  0.1630
  457MOL0     H60293   1.930   4.837   9.667 -0.7838  0.4471 -2.5403
  457MOL0     H60294   1.823   4.614   9.734 -0.6060  0.0204 -0.9505
  457MOL0     H60295   1.902   4.537   9.602 -3.0986 -0.4296 -1.7864
  457MOL0     H60296   1.682   4.616   9.544 -0.7177  1.5118  1.1249
  457MOL0     H60297   1.736   4.787   9.574 -2.6597  0.7958 -1.9158
  457MOL0     H60298   1.826   4.594   9.364 -2.2599 -0.9098  0.7781
  457MOL0     H60299   1.886   4.761   9.366  2.0947 -3.3494  0.6983
  457MOL0     H60300   1.701   4.752   9.203  2.9977  2.2489  1.5299
  457MOL0     H60301   1.628   4.828   9.340 -0.1900  0.1530  1.2600
  457MOL0     H60302   1.618   4.519   9.264 -2.0702 -1.0563 -0.3912
  457MOL0     H60303   1.527   4.589   9.397 -1.5339 -2.6716 -0.8014
  457MOL0     H60304   1.385   4.556   9.225 -1.3740  0.2573  2.0490
  457MOL0     H60305   1.478   4.653   9.106 -0.7305 -2.3914 -0.7930
  457MOL0     H60306   2.239   4.626   9.936  0.1301 -0.2808  1.3234
  457MOL0     H60307   2.472   4.591  10.044  4.3446 -0.4379 -1.2157
  457MOL0     H60308   2.932   4.703  10.019 -1.0494 -0.2003  0.6888
  457MOL0     H60309   3.161   4.725  10.092  0.9035 -0.3059  1.5226
  457MOL0     H60310   4.636   3.950  10.766  3.8474  1.4539 -0.9757
  457MOL0     H60311   4.875   3.976  10.769 -1.0669  0.9005 -0.5614
  457MOL0     H60312   5.230   4.272  10.694  0.6793 -1.1806 -0.6260
  457MOL0     H60313   5.464   4.318  10.714  0.1380 -0.4496 -0.0007
  457MOL0     H60314   5.715   4.411  10.808 -0.4864 -1.0990 -3.1663
  457MOL0     H60315   5.678   4.263  10.748  0.1183  2.1198  0.3282
  457MOL0     H60316   5.928   4.315  10.813 -1.4518  2.6615  0.4138
  457MOL0     H60317   5.881   4.292  10.973  1.7635  0.8857 -2.0015
  457MOL0     H60318   5.848   4.062  10.779 -2.6098 -2.0379  1.0714
  457MOL0     H60319   5.801   4.064  10.951 -1.4490  1.8289 -0.8834
  457MOL0     H60320   6.071   4.083  10.802 -0.1739 -0.3175 -0.2423
  457MOL0     H60321   6.063   4.142  10.969  1.5242 -1.7268  0.4300
  457MOL0     H60322   6.129   3.734  11.022 -1.5090  0.6568  3.1287
  457MOL0     H60323   5.456   4.174  11.125  1.4144 -1.2170 -0.2768
  457MOL0     H60324   5.215   4.130  11.102  1.3233 -0.8024  0.8920
  458MOL0     O60325   7.485   2.221   1.163 -0.0939 -0.3924  0.1824
  458MOL0     C60326   7.517   2.238   1.279 -0.1837 -0.0614 -0.1109
  458MOL0     O60327   7.454   2.186   1.388 -0.6677 -0.4157 -0.0468
  458MOL0     C60328   7.344   2.108   1.376  0.2546  0.1509  1.2612
  458MOL0     C60329   7.237   2.146   1.454 -1.0635  0.1060 -0.0090
  458MOL0     C60330   7.122   2.076   1.449  0.6599 -1.0283 -0.2220
  458MOL0     C60331   7.115   1.974   1.353 -0.0573  0.1639  0.4010
  458MOL0     O60332   6.987   1.907   1.351  0.1983 -0.0380  0.0053
  458MOL0     C60333   6.991   1.770   1.383  0.0434  0.0371 -0.0315
  458MOL0     C60334   6.870   1.736   1.473 -0.1269  0.1292  0.5880
  458MOL0     C60335   6.879   1.795   1.612  0.3343 -0.2793 -0.2120
  458MOL0     C60336   6.751   1.752   1.703 -0.3608  0.0219  0.2902
  458MOL0     C60337   6.619   1.834   1.678  0.0390 -0.2073 -0.3352
  458MOL0     C60338   6.497   1.784   1.759 -0.4373  0.7157 -0.6563
  458MOL0     C60339   6.520   1.798   1.919 -0.1751 -0.1212  0.2890
  458MOL0     C60340   6.380   1.769   1.996 -0.8789  0.0576 -0.2242
  458MOL0     N60341   6.307   1.637   1.961 -0.4989 -0.8450  0.8045
  458MOL0     C60342   6.213   1.617   1.862  0.2190 -0.4239 -0.7040
  458MOL0     C60343   6.167   1.497   1.902  0.2292 -0.7460 -0.3394
  458MOL0     C60344   6.035   1.457   1.842  0.4023 -0.7530 -1.2084
  458MOL0     C60345   5.981   1.318   1.884 -0.0167  0.8933 -0.0438
  458MOL0     C60346   5.891   1.318   1.998 -0.4568 -0.1017 -0.6953
  458MOL0     C60347   5.868   1.184   2.055 -0.6713  0.7462 -0.3428
  458MOL0     O60348   5.809   1.095   1.955  0.2679 -0.1386 -0.2167
  458MOL0     C60349   5.673   1.111   1.939  0.2002  1.0287  1.4236
  458MOL0     C60350   5.605   1.218   1.870 -0.1551  1.1095 -0.3869
  458MOL0     C60351   5.468   1.228   1.872  0.2601 -0.6268 -0.2448
  458MOL0     C60352   5.394   1.129   1.927 -0.5689  0.4835 -0.7353
  458MOL0     C60353   5.244   1.141   1.917  0.1455  0.8954  0.2205
  458MOL0     O60354   5.180   1.252   1.886  0.2733 -0.5620 -0.4201
  458MOL0     C60355   5.044   1.260   1.857  0.7939  0.5710 -0.3496
  458MOL0     C60356   4.993   1.343   1.748 -0.2021  0.4077  0.5210
  458MOL0     C60357   4.852   1.359   1.738 -0.4479  0.0662 -0.6820
  458MOL0     C60358   4.759   1.301   1.828 -0.5179  0.6911  0.6254
  458MOL0     O60359   4.627   1.326   1.813 -0.1243 -0.6268 -0.3498
  458MOL0     C60360   4.543   1.325   1.924 -0.1652 -0.5930 -0.8416
  458MOL0     C60361   4.409   1.404   1.895 -0.0824  0.3354  0.2248
  458MOL0     C60362   4.347   1.328   1.776 -0.0738 -0.0568 -0.5332
  458MOL0     C60363   4.219   1.376   1.714  0.2005  0.2507  0.1604
  458MOL0     C60364   4.097   1.355   1.797  0.1906 -0.4335 -0.7760
  458MOL0     C60365   3.974   1.402   1.725 -0.7096 -0.0693 -0.0891
  458MOL0     C60366   3.953   1.556   1.706  0.1436  1.0290  0.7474
  458MOL0     C60367   3.822   1.587   1.634  0.8022 -0.7806  0.4624
  458MOL0    Cl60368   3.837   1.563   1.458 -0.1895 -0.5391  0.2891
  458MOL0     C60369   4.816   1.214   1.932  0.1910 -0.0511  0.1144
  458MOL0     C60370   4.954   1.193   1.947 -0.3868  0.5049  0.0099
  458MOL0     O60371   5.181   1.034   1.950 -0.3986  0.8475  0.1551
  458MOL0     C60372   5.456   1.032   2.006 -0.1646  0.7782 -0.0496
  458MOL0     C60373   5.594   1.014   2.009  0.2185 -0.3183 -0.6131
  458MOL0     N60374   6.230   1.451   2.019  0.2237  0.3953 -0.2239
  458MOL0     N60375   6.316   1.532   2.043  0.3566 -0.5828 -0.7698
  458MOL0     C60376   7.222   1.923   1.288 -0.1027  0.7357  1.0030
  458MOL0     C60377   7.338   1.989   1.301  0.8860  0.2415 -0.6809
  458MOL0     C60378   7.647   2.297   1.310  0.6212 -0.4673  0.2365
  458MOL0     C60379   7.749   2.302   1.215  0.1237 -0.7049 -0.3526
  458MOL0     C60380   7.877   2.357   1.244 -0.1303  0.1062  0.1756
  458MOL0     C60381   7.908   2.396   1.369  0.2563  0.2432  0.2611
  458MOL0     O60382   8.042   2.432   1.399 -0.5794 -0.0736 -0.2078
  458MOL0     C60383   8.055   2.493   1.530  0.2319  0.4536  0.3364
  458MOL0     C60384   8.197   2.533   1.560 -1.2403 -0.0427 -0.7857
  458MOL0     C60385   8.236   2.659   1.477 -0.6976  0.2892  0.5874
  458MOL0     C60386   8.398   2.634   1.466  0.6940 -0.0676  0.5044
  458MOL0     C60387   8.467   2.758   1.408 -0.2442  0.6379  0.1681
  458MOL0     C60388   8.524   2.846   1.354 -0.1569  0.2471 -0.3934
  458MOL0     C60389   7.798   2.391   1.470 -0.4327  0.3848  0.6658
  458MOL0     C60390   7.671   2.342   1.441  0.5207  0.0128  0.2620
  458MOL0     H60391   7.234   2.229   1.525 -1.9202 -0.3881  0.5464
  458MOL0     H60392   7.037   2.099   1.513  0.7793 -1.5382  0.1252
  458MOL0     H60393   7.082   1.735   1.432 -0.3188 -1.6985 -0.5405
  458MOL0     H60394   6.980   1.708   1.293 -1.5535  0.8515 -0.4531
  458MOL0     H60395   6.847   1.629   1.482 -2.5536  0.6361  1.2188
  458MOL0     H60396   6.791   1.785   1.416  0.4608  0.4113 -0.0026
  458MOL0     H60397   6.898   1.903   1.613  3.0504 -0.6203  3.0560
  458MOL0     H60398   6.969   1.753   1.657  0.2247 -0.7223 -0.3996
  458MOL0     H60399   6.737   1.643   1.702 -3.0089  0.3052 -0.7331
  458MOL0     H60400   6.782   1.771   1.806 -0.0080  0.9929  0.0207
  458MOL0     H60401   6.583   1.825   1.575 -1.2639 -1.1500  0.1632
  458MOL0     H60402   6.630   1.938   1.712  0.3128 -0.5346  0.5988
  458MOL0     H60403   6.482   1.677   1.746 -0.2124  0.4258  1.1803
  458MOL0     H60404   6.407   1.833   1.720  0.2176 -0.0696 -3.3947
  458MOL0     H60405   6.592   1.721   1.946  1.3656  1.4163  0.7657
  458MOL0     H60406   6.565   1.892   1.953  2.3266 -0.6321 -1.3433
  458MOL0     H60407   6.310   1.853   1.988 -2.4309 -1.3259 -2.9511
  458MOL0     H60408   6.421   1.768   2.097  4.4709  1.5203 -2.0718
  458MOL0     H60409   6.152   1.682   1.800 -2.5942  0.0027  2.2565
  458MOL0     H60410   6.049   1.459   1.733 -2.1298  0.0965 -1.5810
  458MOL0     H60411   5.970   1.538   1.876  0.1677 -1.1436 -0.7048
  458MOL0     H60412   6.067   1.252   1.898  0.7746  1.8048 -0.4936
  458MOL0     H60413   5.926   1.270   1.803  1.1201 -3.2929  1.4117
  458MOL0     H60414   5.947   1.380   2.069 -2.7247  2.6206 -1.1048
  458MOL0     H60415   5.807   1.387   1.985  0.6331  1.1743 -1.2747
  458MOL0     H60416   5.812   1.188   2.149  0.6472  2.1248  0.4201
  458MOL0     H60417   5.958   1.128   2.082 -3.3806 -3.3634  1.1415
  458MOL0     H60418   5.659   1.284   1.804  0.2007  0.7914 -0.4155
  458MOL0     H60419   5.427   1.320   1.830 -1.0987 -1.6222 -1.2099
  458MOL0     H60420   5.059   1.389   1.675 -1.0916  0.0499 -0.5371
  458MOL0     H60421   4.813   1.426   1.663 -1.7397  0.7255  0.5283
  458MOL0     H60422   4.588   1.382   2.006  0.1190  0.0957 -1.4600
  458MOL0     H60423   4.522   1.224   1.961 -1.3685  0.1550  0.6350
  458MOL0     H60424   4.425   1.507   1.861 -1.3025  0.0838 -1.1708
  458MOL0     H60425   4.350   1.392   1.986 -0.9328 -1.1016 -0.4847
  458MOL0     H60426   4.325   1.223   1.797 -3.2433  0.6646  0.3243
  458MOL0     H60427   4.413   1.333   1.689 -2.9260  2.0086 -2.7796
  458MOL0     H60428   4.220   1.479   1.677 -2.1259 -0.3458 -1.8773
  458MOL0     H60429   4.203   1.308   1.629 -0.1934 -0.2351  0.6180
  458MOL0     H60430   4.102   1.401   1.897  0.3945  0.3931 -1.1585
  458MOL0     H60431   4.081   1.248   1.812 -0.3926 -0.3437 -0.7605
  458MOL0     H60432   3.891   1.374   1.790  0.3614 -0.9450  0.9480
  458MOL0     H60433   3.964   1.342   1.634  0.9468  0.6031 -0.7490
  458MOL0     H60434   3.952   1.603   1.805  2.7509 -1.8240  2.2925
  458MOL0     H60435   4.030   1.602   1.644  1.4355  0.4586  1.8825
  458MOL0     H60436   3.800   1.693   1.646  1.2810 -0.6661  0.3494
  458MOL0     H60437   3.734   1.528   1.664  0.1254 -0.7419 -1.2956
  458MOL0     H60438   4.756   1.167   2.009  0.4966 -0.9505 -0.1800
  458MOL0     H60439   4.980   1.131   2.032  1.3226 -0.5444 -1.2398
  458MOL0     H60440   5.394   0.972   2.073  2.6794 -1.3433  0.8979
  458MOL0     H60441   5.643   0.937   2.069  0.3922  0.5105  0.3276
  458MOL0     H60442   7.212   1.840   1.219  1.0299  0.4488  1.1495
  458MOL0     H60443   7.427   1.940   1.264  2.1832  0.7777  1.5533
  458MOL0     H60444   7.729   2.279   1.110  0.1910 -3.2795  0.1222
  458MOL0     H60445   7.952   2.363   1.166 -0.2088 -0.5442  0.0438
  458MOL0     H60446   8.034   2.421   1.609 -0.7168 -1.0034 -1.1866
  458MOL0     H60447   7.997   2.584   1.546  0.9982  0.5518  2.9979
  458MOL0     H60448   8.209   2.562   1.664 -3.8192  0.6037 -0.5937
  458MOL0     H60449   8.269   2.454   1.538  0.2261  1.0380 -0.0234
  458MOL0     H60450   8.224   2.743   1.546  2.5357 -0.5166  2.3931
  458MOL0     H60451   8.187   2.665   1.380  0.4633 -1.1009 -0.1280
  458MOL0     H60452   8.441   2.595   1.559  1.0272  2.0377  1.2773
  458MOL0     H60453   8.410   2.552   1.394 -1.6061  2.4520 -3.0725
  458MOL0     H60454   8.569   2.916   1.286 -0.2977  0.1717 -0.5668
  458MOL0     H60455   7.815   2.407   1.576  0.9930  1.8548  0.2459
  458MOL0     H60456   7.595   2.344   1.519 -1.6463  0.8640 -1.7638
  459MOL0     O60457   3.877   5.657   5.976  0.9431 -0.1781 -0.0192
  459MOL0     C60458   3.928   5.748   6.043  0.4944  1.5703  0.8487
  459MOL0     O60459   3.859   5.816   6.146  0.0373  0.3638  1.0101
  459MOL0     C60460   3.727   5.806   6.185  0.5271 -0.0347 -0.9847
  459MOL0     C60461   3.623   5.794   6.093 -0.3392 -1.0458 -0.3063
  459MOL0     C60462   3.493   5.794   6.144  0.0800 -0.5097 -0.5138
  459MOL0     C60463   3.459   5.801   6.274 -0.5509 -0.0169 -0.9355
  459MOL0     O60464   3.333   5.809   6.318 -0.0156  0.0340  0.0478
  459MOL0     C60465   3.259   5.923   6.275 -0.0244  0.1862  0.1571
  459MOL0     C60466   3.114   5.909   6.328 -0.0792 -0.0444  0.1229
  459MOL0     C60467   3.104   5.948   6.470  0.2851  0.7567  0.8948
  459MOL0     C60468   3.158   6.086   6.485 -0.6684 -1.3268  0.3489
  459MOL0     C60469   3.086   6.166   6.598  0.2120  0.1848 -0.0479
  459MOL0     C60470   3.144   6.123   6.737 -0.5293  0.4997 -0.4526
  459MOL0     C60471   3.065   6.189   6.854 -0.3074 -0.0013  0.0906
  459MOL0     C60472   3.128   6.316   6.903 -0.3453 -0.1244 -1.1940
  459MOL0     N60473   3.048   6.373   7.009  0.1643  0.2125  1.1021
  459MOL0     C60474   2.944   6.460   6.988 -0.1676 -0.7792 -0.2090
  459MOL0     C60475   2.909   6.496   7.114 -0.3661  0.1100  0.1147
  459MOL0     C60476   2.825   6.608   7.148 -0.7199 -0.4355  0.8203
  459MOL0     C60477   2.678   6.584   7.161 -0.1083 -0.3804 -0.2098
  459MOL0     C60478   2.636   6.439   7.197  0.6368  0.4845  0.3863
  459MOL0     C60479   2.483   6.446   7.219  0.0208  0.7493 -0.3335
  459MOL0     O60480   2.419   6.316   7.178 -0.3018  0.5184 -0.3839
  459MOL0     C60481   2.282   6.314   7.161 -0.4654  0.0606 -0.3587
  459MOL0     C60482   2.191   6.418   7.187 -0.0025  0.9775  0.4267
  459MOL0     C60483   2.049   6.385   7.190 -0.7503 -1.0405 -0.2096
  459MOL0     C60484   2.000   6.264   7.149 -0.3785 -0.5741  0.4050
  459MOL0     C60485   1.857   6.249   7.124 -0.2915  0.2804  1.1962
  459MOL0     O60486   1.775   6.353   7.106 -0.1443  0.1094  0.2138
  459MOL0     C60487   1.643   6.319   7.118 -0.3124 -0.4558  0.2546
  459MOL0     C60488   1.586   6.284   7.244 -0.8583  0.5194  0.0455
  459MOL0     C60489   1.454   6.248   7.254 -0.4598  0.0138  1.2166
  459MOL0     C60490   1.378   6.262   7.136  0.0788  0.5460  0.1095
  459MOL0     O60491   1.252   6.213   7.154  0.0523  0.0876  0.4669
  459MOL0     C60492   1.152   6.254   7.053  0.3255 -0.6708 -0.9409
  459MOL0     C60493   1.013   6.233   7.105 -0.1211  0.9834 -0.8234
  459MOL0     C60494   0.907   6.246   7.000  0.3485  0.3544 -0.2920
  459MOL0     C60495   0.761   6.224   7.049  0.3876  1.3281  0.4486
  459MOL0     C60496   0.669   6.261   6.944 -0.1644 -0.4972  0.2698
  459MOL0     C60497   0.524   6.234   6.974  0.4238  0.6821 -0.4982
  459MOL0     C60498   0.426   6.331   6.893 -0.7776  0.6555 -0.4558
  459MOL0     C60499   0.297   6.281   6.850  0.1769  0.5783 -0.6974
  459MOL0    Cl60500   0.222   6.211   6.993  0.0450  0.2665 -0.0701
  459MOL0     C60501   1.430   6.308   7.019 -0.3118 -0.6276 -0.4191
  459MOL0     C60502   1.559   6.338   7.011 -1.1022  1.0628 -0.7305
  459MOL0     O60503   1.823   6.130   7.109  0.4627  0.5108 -0.3490
  459MOL0     C60504   2.090   6.164   7.121  0.3079 -0.3707  0.1090
  459MOL0     C60505   2.226   6.195   7.133 -0.2863  0.2172 -0.9335
  459MOL0     N60506   2.995   6.441   7.203  0.5021  1.5231  0.4864
  459MOL0     N60507   3.073   6.365   7.138  0.1019 -0.4003 -0.1893
  459MOL0     C60508   3.565   5.804   6.364 -0.3037  0.4997  0.9579
  459MOL0     C60509   3.702   5.811   6.319 -0.0444 -0.4864 -0.2843
  459MOL0     C60510   4.070   5.791   6.008  0.4337 -0.7460 -0.5093
  459MOL0     C60511   4.143   5.728   5.904  0.6573  0.1920 -0.0405
  459MOL0     C60512   4.274   5.757   5.878 -0.9714  0.8191 -0.0237
  459MOL0     C60513   4.332   5.862   5.944 -0.5284 -0.3609  0.0951
  459MOL0     O60514   4.460   5.896   5.913 -0.3954 -0.2107  0.7410
  459MOL0     C60515   4.562   5.799   5.906  0.8117 -0.4056  1.0937
  459MOL0     C60516   4.691   5.845   5.971 -0.2844 -0.1378 -0.6726
  459MOL0     C60517   4.693   5.840   6.128 -0.5867  0.0626 -0.2844
  459MOL0     C60518   4.830   5.903   6.190 -0.5705 -0.2240 -0.4285
  459MOL0     C60519   4.935   5.804   6.179  0.0520 -0.0162 -0.5699
  459MOL0     C60520   5.032   5.729   6.155  0.5300 -0.5883 -0.4686
  459MOL0     C60521   4.266   5.917   6.051 -0.3234 -0.6304 -0.3242
  459MOL0     C60522   4.140   5.888   6.086  1.3099  0.0686  0.3467
  459MOL0     H60523   3.636   5.778   5.986  1.3596 -2.9926  0.1296
  459MOL0     H60524   3.411   5.803   6.073 -0.2946  1.7939  0.1435
  459MOL0     H60525   3.258   5.919   6.166  0.9247  3.2277 -0.0736
  459MOL0     H60526   3.307   6.020   6.296  1.2452 -0.8626  2.5166
  459MOL0     H60527   3.083   5.806   6.307  2.4483 -0.8008 -0.1752
  459MOL0     H60528   3.044   5.980   6.282 -1.0638  0.8137  2.7694
  459MOL0     H60529   3.170   5.882   6.525  0.4797  0.1819 -0.0016
  459MOL0     H60530   2.999   5.954   6.502 -0.4472  0.1976 -1.1859
  459MOL0     H60531   3.264   6.089   6.511 -0.8650 -0.0119  1.0859
  459MOL0     H60532   3.147   6.139   6.389 -0.8560 -0.5529  0.7878
  459MOL0     H60533   2.979   6.141   6.594  0.2946 -0.5850  1.6795
  459MOL0     H60534   3.092   6.274   6.578  0.6146  0.2175  0.2361
  459MOL0     H60535   3.252   6.139   6.746  0.6747 -5.6422  0.2218
  459MOL0     H60536   3.124   6.016   6.746 -5.0527  1.2985  2.1847
  459MOL0     H60537   2.961   6.194   6.822 -0.7270 -0.0589  1.3981
  459MOL0     H60538   3.076   6.116   6.934 -2.9425 -1.3630 -0.7067
  459MOL0     H60539   3.153   6.371   6.812  3.4228 -2.3075 -1.6422
  459MOL0     H60540   3.220   6.291   6.956 -1.0611 -1.7312 -0.6211
  459MOL0     H60541   2.911   6.508   6.896  1.0558 -0.1187 -0.3316
  459MOL0     H60542   2.831   6.686   7.072 -2.6029 -0.5424  0.5203
  459MOL0     H60543   2.857   6.646   7.246 -0.1951 -0.2274  0.5711
  459MOL0     H60544   2.636   6.602   7.062 -2.6899 -1.9481  0.4936
  459MOL0     H60545   2.635   6.653   7.234 -0.5624  0.1317 -0.9514
  459MOL0     H60546   2.655   6.363   7.120 -1.8656  0.4527 -0.2862
  459MOL0     H60547   2.692   6.398   7.282 -0.9326 -3.5482 -0.2799
  459MOL0     H60548   2.449   6.527   7.154  1.3832 -0.9998 -3.4491
  459MOL0     H60549   2.453   6.463   7.323  3.2964  0.6962  0.7063
  459MOL0     H60550   2.213   6.522   7.207  3.2379  0.7843 -1.4641
  459MOL0     H60551   1.970   6.455   7.216  0.0969 -0.2022  0.1781
  459MOL0     H60552   1.663   6.277   7.320 -0.5879  0.6634 -0.2120
  459MOL0     H60553   1.417   6.200   7.343 -2.0007 -1.0195  0.0730
  459MOL0     H60554   1.153   6.192   6.962 -3.8554 -0.4958 -1.2815
  459MOL0     H60555   1.167   6.357   7.021 -2.1513  0.4907  1.3135
  459MOL0     H60556   1.012   6.315   7.177  1.9439 -0.6945  1.2674
  459MOL0     H60557   1.000   6.142   7.165  0.3719  1.0927 -0.5506
  459MOL0     H60558   0.928   6.187   6.910 -0.1965  1.8737 -1.4476
  459MOL0     H60559   0.918   6.347   6.962  3.0583 -1.0950 -3.9591
  459MOL0     H60560   0.750   6.117   7.069  2.7499  0.8324 -0.6085
  459MOL0     H60561   0.743   6.277   7.143  0.1923  2.8053 -0.3893
  459MOL0     H60562   0.697   6.211   6.851  1.2123 -0.2446  0.5173
  459MOL0     H60563   0.674   6.367   6.916  2.7476 -0.6452 -0.1588
  459MOL0     H60564   0.506   6.223   7.081  0.3358 -2.9388 -0.7683
  459MOL0     H60565   0.499   6.135   6.934  1.0836 -0.0735  0.9018
  459MOL0     H60566   0.413   6.423   6.952 -2.6550 -0.0802  0.3661
  459MOL0     H60567   0.476   6.360   6.800 -0.8027  1.8791 -0.1076
  459MOL0     H60568   0.303   6.204   6.773  0.1179 -1.2697  1.0556
  459MOL0     H60569   0.228   6.361   6.821 -4.5021 -3.5110 -2.3023
  459MOL0     H60570   1.355   6.325   6.942 -2.7311 -0.3179  1.8723
  459MOL0     H60571   1.610   6.376   6.923  0.0328  1.5836  0.1178
  459MOL0     H60572   2.067   6.069   7.072 -1.2946 -1.6629  3.0944
  459MOL0     H60573   2.304   6.120   7.127  0.1435  0.1404  3.0348
  459MOL0     H60574   3.553   5.811   6.471  5.2960  2.8154  1.7704
  459MOL0     H60575   3.772   5.824   6.401 -2.1564 -0.2491  1.5824
  459MOL0     H60576   4.100   5.637   5.863  0.3624 -0.0601  0.8117
  459MOL0     H60577   4.313   5.699   5.795 -1.5666  1.3201 -0.6646
  459MOL0     H60578   4.573   5.788   5.798  1.5773 -0.4388  1.1663
  459MOL0     H60579   4.545   5.704   5.958 -1.5268 -0.6183  0.0395
  459MOL0     H60580   4.763   5.767   5.945  0.0237  0.5741 -2.0104
  459MOL0     H60581   4.727   5.939   5.930 -0.1314  0.7703  1.4129
  459MOL0     H60582   4.669   5.738   6.162 -1.6792 -1.0448 -3.9731
  459MOL0     H60583   4.622   5.917   6.159  1.3326  3.5987 -3.7778
  459MOL0     H60584   4.854   5.979   6.115 -2.4025 -0.5758 -1.4336
  459MOL0     H60585   4.826   5.941   6.292 -0.6929 -2.1454  0.3114
  459MOL0     H60586   5.114   5.670   6.119  2.3583 -0.4327  3.0550
  459MOL0     H60587   4.312   6.004   6.099 -3.1734  2.5227 -2.8379
  459MOL0     H60588   4.087   5.935   6.169  1.8106  3.2334 -0.9906
  460MOL0     O60589  10.826   3.221   1.871  0.2927 -0.1411  0.2225
  460MOL0     C60590  10.873   3.124   1.802  0.3242 -0.3055 -0.8324
  460MOL0     O60591  10.804   3.038   1.724 -0.1097  0.1308 -0.6020
  460MOL0     C60592  10.671   3.035   1.746  0.9373  0.2727 -0.2631
  460MOL0     C60593  10.609   3.019   1.873  0.1031  0.5947 -0.6069
  460MOL0     C60594  10.473   3.020   1.881  0.8365  0.2066 -0.1765
  460MOL0     C60595  10.388   3.028   1.766 -0.5019 -0.4098 -0.4438
  460MOL0     O60596  10.249   3.012   1.799 -0.5601 -0.5078  0.5685
  460MOL0     C60597  10.149   3.011   1.689 -0.5156 -0.1564 -1.7004
  460MOL0     C60598  10.013   2.976   1.748  0.1281  0.0385  0.6077
  460MOL0     C60599   9.927   2.942   1.628 -0.4293  0.6556  0.0217
  460MOL0     C60600   9.775   2.940   1.660 -0.9068 -1.0631  0.2258
  460MOL0     C60601   9.743   2.819   1.748 -0.5384 -0.2440  0.3482
  460MOL0     C60602   9.597   2.810   1.769  0.1790  0.0496 -0.3807
  460MOL0     C60603   9.550   2.682   1.834 -0.3243  0.7151  0.3369
  460MOL0     C60604   9.545   2.565   1.741  0.5214 -0.5055 -1.1865
  460MOL0     N60605   9.454   2.592   1.633 -0.1454  0.4059 -0.4230
  460MOL0     C60606   9.321   2.613   1.644 -0.4674  1.3804 -0.2912
  460MOL0     C60607   9.280   2.602   1.517 -0.0247 -0.3084 -0.3810
  460MOL0     C60608   9.128   2.599   1.471  0.0542 -0.3821  1.4423
  460MOL0     C60609   9.098   2.492   1.362  1.1206  0.1225  0.1611
  460MOL0     C60610   8.952   2.485   1.311 -0.4059 -0.5186 -0.7894
  460MOL0     C60611   8.924   2.384   1.199  0.6152 -0.1823 -0.5360
  460MOL0     O60612   8.924   2.246   1.251 -0.0096 -0.4251  0.4630
  460MOL0     C60613   8.812   2.186   1.306  0.1968 -0.4636  0.0264
  460MOL0     C60614   8.679   2.208   1.263 -0.3377 -0.4268 -0.1870
  460MOL0     C60615   8.570   2.129   1.304  0.3317  0.1531 -0.1310
  460MOL0     C60616   8.590   2.025   1.399 -0.2108 -0.0285 -0.7451
  460MOL0     C60617   8.470   1.948   1.450 -0.5165 -0.2379  0.7522
  460MOL0     O60618   8.350   1.993   1.394 -0.1681  0.0576 -0.3382
  460MOL0     C60619   8.232   1.977   1.458  0.2449  0.6415  0.8962
  460MOL0     C60620   8.184   1.856   1.509 -0.0282  0.0742 -1.8335
  460MOL0     C60621   8.050   1.844   1.550 -0.1850  0.2075  0.1208
  460MOL0     C60622   7.966   1.955   1.542  0.1998 -0.1674  0.0786
  460MOL0     O60623   7.837   1.933   1.579 -0.1531  0.0445  0.7142
  460MOL0     C60624   7.742   2.043   1.590 -0.0788  0.0349  0.1553
  460MOL0     C60625   7.597   2.002   1.620  0.4267  0.3387 -0.7151
  460MOL0     C60626   7.581   1.923   1.753  0.1845  0.0937  1.1155
  460MOL0     C60627   7.427   1.895   1.766  0.9990  0.3069  0.5895
  460MOL0     C60628   7.379   1.871   1.900  0.3998  0.3004 -0.5555
  460MOL0     C60629   7.231   1.834   1.909  0.9861 -0.2128  0.6864
  460MOL0     C60630   7.164   1.813   2.044 -0.4103  0.1819  0.7896
  460MOL0     C60631   7.048   1.717   2.051 -0.5609  0.2302  0.1464
  460MOL0    Cl60632   7.010   1.723   2.228  0.2655  0.2428  0.0662
  460MOL0     C60633   8.017   2.078   1.505 -0.5248  0.6135 -0.0089
  460MOL0     C60634   8.149   2.087   1.460  0.3110 -0.4630 -0.4077
  460MOL0     O60635   8.483   1.856   1.526  0.4098 -0.0109  0.2190
  460MOL0     C60636   8.717   2.002   1.447 -0.6143 -0.5241 -0.4242
  460MOL0     C60637   8.826   2.084   1.400  0.2637  0.4473  0.6898
  460MOL0     N60638   9.386   2.580   1.440 -0.1705 -0.2967 -0.3880
  460MOL0     N60639   9.492   2.561   1.508 -0.1008 -0.2398 -0.1734
  460MOL0     C60640  10.442   3.066   1.644 -0.1161 -0.3047 -0.4335
  460MOL0     C60641  10.584   3.059   1.634 -0.0283 -1.1569 -0.3628
  460MOL0     C60642  11.022   3.102   1.811  0.4841 -1.0521 -0.3185
  460MOL0     C60643  11.088   2.983   1.770  0.0404  0.2014  0.2108
  460MOL0     C60644  11.214   2.949   1.815 -0.4364  0.3966 -0.1370
  460MOL0     C60645  11.292   3.036   1.892 -0.2600 -0.2918  0.5130
  460MOL0     O60646  11.423   3.017   1.945 -0.5100 -0.9553  0.5881
  460MOL0     C60647  11.496   2.898   1.911  0.3879 -0.6852  0.1872
  460MOL0     C60648  11.438   2.781   1.995  0.5128 -0.3571 -0.5466
  460MOL0     C60649  11.545   2.663   1.995  0.1918  0.0578  0.8275
  460MOL0     C60650  11.486   2.546   2.078 -0.0945 -0.3292 -0.3843
  460MOL0     C60651  11.573   2.428   2.063 -0.5567  0.4548 -0.0535
  460MOL0     C60652  11.650   2.338   2.034 -0.3768 -0.0050 -0.3677
  460MOL0     C60653  11.238   3.158   1.920 -0.3314  0.2231 -0.1866
  460MOL0     C60654  11.104   3.191   1.887  0.2624 -0.6737  0.3752
  460MOL0     H60655  10.656   2.993   1.967 -2.4076  0.0349  0.5620
  460MOL0     H60656  10.417   2.998   1.971  1.2144 -4.2913 -0.7885
  460MOL0     H60657  10.180   2.939   1.613  2.8957 -2.6906  1.7172
  460MOL0     H60658  10.159   3.110   1.643  1.8306  0.5199  0.0524
  460MOL0     H60659   9.971   3.060   1.803 -1.1186 -1.0241  1.3350
  460MOL0     H60660  10.031   2.900   1.825 -0.5661 -0.3397  0.4033
  460MOL0     H60661   9.964   2.841   1.606  1.9885  0.7794  2.7932
  460MOL0     H60662   9.949   3.000   1.538  2.4834 -3.8114 -2.5824
  460MOL0     H60663   9.758   3.033   1.715  1.2050 -0.8554  0.6224
  460MOL0     H60664   9.728   2.929   1.562 -0.0609  2.7940 -0.7631
  460MOL0     H60665   9.787   2.833   1.847 -0.6745 -1.5510  0.6119
  460MOL0     H60666   9.785   2.729   1.704  2.7335  0.8185  1.0535
  460MOL0     H60667   9.540   2.822   1.676 -0.4339 -0.3895 -0.0686
  460MOL0     H60668   9.565   2.893   1.833 -0.7959  1.0307 -2.0703
  460MOL0     H60669   9.607   2.658   1.924 -0.2054 -2.9445 -0.5413
  460MOL0     H60670   9.448   2.699   1.868 -0.8326  0.2743 -0.8849
  460MOL0     H60671   9.505   2.485   1.803 -1.1606  1.3244  0.2351
  460MOL0     H60672   9.645   2.532   1.710  0.1127 -3.3887  0.3033
  460MOL0     H60673   9.255   2.629   1.729 -0.4567 -0.3658  0.0868
  460MOL0     H60674   9.089   2.689   1.422  0.6901 -1.8144 -2.0320
  460MOL0     H60675   9.064   2.578   1.557 -2.2228 -0.5287 -0.1805
  460MOL0     H60676   9.138   2.393   1.385 -1.6235 -2.1424 -3.5729
  460MOL0     H60677   9.146   2.516   1.267 -1.1070  0.3259 -0.9851
  460MOL0     H60678   8.884   2.460   1.393 -0.9650 -0.9885 -1.3796
  460MOL0     H60679   8.932   2.582   1.264  1.6602 -0.6461 -2.0308
  460MOL0     H60680   8.995   2.396   1.116  2.5854 -2.1577  0.7506
  460MOL0     H60681   8.825   2.418   1.166 -0.2244 -2.5893 -0.7377
  460MOL0     H60682   8.657   2.283   1.188 -1.7694  1.8273  2.2650
  460MOL0     H60683   8.474   2.164   1.268 -0.6528 -0.0612  2.1228
  460MOL0     H60684   8.247   1.768   1.517 -1.1419 -0.6665 -0.7545
  460MOL0     H60685   8.026   1.760   1.614 -0.1613  2.0487  2.7061
  460MOL0     H60686   7.745   2.097   1.495  3.3173 -1.3299 -0.6778
  460MOL0     H60687   7.780   2.116   1.662  2.4185  0.0175 -1.0326
  460MOL0     H60688   7.550   1.948   1.538  0.4475 -2.1645  0.8351
  460MOL0     H60689   7.542   2.097   1.631 -0.7308 -0.5992  3.3235
  460MOL0     H60690   7.608   1.983   1.840  2.0492 -0.1363  0.7403
  460MOL0     H60691   7.634   1.826   1.750  0.3262  0.1831 -0.4201
  460MOL0     H60692   7.379   1.991   1.741  0.0154 -0.1018  0.8503
  460MOL0     H60693   7.403   1.821   1.690  3.8240  0.2990 -0.3853
  460MOL0     H60694   7.389   1.970   1.946  0.5386  0.9681 -1.9607
  460MOL0     H60695   7.438   1.790   1.943 -0.8697 -1.0737 -1.2853
  460MOL0     H60696   7.210   1.744   1.851 -0.2512 -0.2887  1.2284
  460MOL0     H60697   7.171   1.909   1.856  2.4214  0.0470 -0.6756
  460MOL0     H60698   7.249   1.787   2.108  2.7268  1.7842 -2.3644
  460MOL0     H60699   7.129   1.912   2.074 -4.1929 -0.5284 -0.7486
  460MOL0     H60700   7.078   1.616   2.022 -0.5399  0.8265 -2.0598
  460MOL0     H60701   6.965   1.743   1.985  1.4974  0.2041 -2.6523
  460MOL0     H60702   7.949   2.162   1.499 -0.8254  0.3420 -0.5373
  460MOL0     H60703   8.174   2.182   1.415 -1.8310  0.1045 -0.4809
  460MOL0     H60704   8.740   1.913   1.505  0.9272 -0.7749 -1.3586
  460MOL0     H60705   8.928   2.060   1.428  0.6510  0.9543 -0.2416
  460MOL0     H60706  10.387   3.048   1.552  0.0268 -1.7170 -0.2687
  460MOL0     H60707  10.634   3.055   1.538 -1.0954 -0.5886 -0.9518
  460MOL0     H60708  11.035   2.907   1.713  2.1607 -1.0305 -0.2070
  460MOL0     H60709  11.246   2.854   1.776 -2.5487  0.8031 -3.2437
  460MOL0     H60710  11.601   2.906   1.941 -0.2252  1.0224  2.1170
  460MOL0     H60711  11.476   2.892   1.804  0.5851  0.9799  0.0304
  460MOL0     H60712  11.430   2.803   2.102  1.1440 -0.0489 -0.5595
  460MOL0     H60713  11.346   2.734   1.961  0.4489  0.6638 -1.8239
  460MOL0     H60714  11.642   2.698   2.030  0.5634 -0.6695  0.5445
  460MOL0     H60715  11.565   2.632   1.891  1.5619 -1.1821  1.4273
  460MOL0     H60716  11.476   2.578   2.182  3.1036  0.4580 -0.2066
  460MOL0     H60717  11.386   2.518   2.045 -1.7527 -1.0462  4.5479
  460MOL0     H60718  11.731   2.268   2.030  2.2009  2.5509  2.3373
  460MOL0     H60719  11.283   3.223   1.994 -1.7455 -0.2996  1.2007
  460MOL0     H60720  11.080   3.289   1.927  3.5373 -0.0116  1.0720
  461MOL0     O60721   8.146   6.521   3.914  0.3923 -0.1841  0.5405
  461MOL0     C60722   8.212   6.604   3.843 -0.7623 -0.7364  0.0141
  461MOL0     O60723   8.179   6.731   3.827 -0.0678  0.3467 -0.0948
  461MOL0     C60724   8.061   6.780   3.884 -0.7093 -0.6494 -0.4679
  461MOL0     C60725   8.043   6.806   4.029  0.3744  0.5883  0.4478
  461MOL0     C60726   7.921   6.856   4.077  0.0255 -1.3061 -0.4899
  461MOL0     C60727   7.824   6.890   3.986  0.7450  0.4365  0.3721
  461MOL0     O60728   7.700   6.937   4.030 -0.3168  0.9138  0.7528
  461MOL0     C60729   7.728   7.063   4.106 -0.0213 -0.8914  0.2681
  461MOL0     C60730   7.601   7.144   4.107 -0.1918 -0.1770 -0.4428
  461MOL0     C60731   7.479   7.082   4.181  0.4303 -0.0041  0.2985
  461MOL0     C60732   7.356   7.170   4.140 -0.4237  0.5533 -0.3301
  461MOL0     C60733   7.228   7.114   4.198 -0.3284 -0.0186  0.1036
  461MOL0     C60734   7.123   7.226   4.176 -0.5439  0.4794 -1.1151
  461MOL0     C60735   6.981   7.166   4.173 -0.2861  0.0367  0.3794
  461MOL0     C60736   6.875   7.260   4.137 -0.2381  0.0488 -0.0762
  461MOL0     N60737   6.735   7.208   4.147  0.0782  0.1053  0.3880
  461MOL0     C60738   6.673   7.169   4.264  0.3504  0.2513 -0.1460
  461MOL0     C60739   6.562   7.107   4.219  0.3475 -0.4748  0.4667
  461MOL0     C60740   6.442   7.055   4.305 -0.3836 -0.0224 -0.0884
  461MOL0     C60741   6.328   7.155   4.320 -0.1033 -0.3054 -1.1265
  461MOL0     C60742   6.260   7.196   4.189 -0.4682  0.2636  0.3864
  461MOL0     C60743   6.195   7.075   4.107 -0.1378 -0.4660  0.3560
  461MOL0     O60744   6.088   7.020   4.193 -0.1366  0.0527 -0.7491
  461MOL0     C60745   5.964   7.076   4.190  0.5947 -0.8596 -0.3159
  461MOL0     C60746   5.932   7.205   4.132 -0.4722  1.2396 -0.0718
  461MOL0     C60747   5.802   7.264   4.149  1.0824  0.1294 -0.6534
  461MOL0     C60748   5.710   7.206   4.234  1.0784  0.1766  1.2261
  461MOL0     C60749   5.575   7.264   4.265  0.8400  0.2613  0.0271
  461MOL0     O60750   5.545   7.372   4.197 -0.0045 -0.9954 -0.1499
  461MOL0     C60751   5.407   7.411   4.198 -0.2127 -0.0022  0.8467
  461MOL0     C60752   5.356   7.434   4.069  0.3232  0.2065  1.3074
  461MOL0     C60753   5.231   7.490   4.058  1.2315  0.8357  0.1260
  461MOL0     C60754   5.160   7.539   4.163 -0.4745 -0.7691  0.0119
  461MOL0     O60755   5.035   7.589   4.132 -0.6482 -0.2182 -0.4206
  461MOL0     C60756   4.960   7.692   4.198  0.1518 -0.0475  0.6786
  461MOL0     C60757   4.817   7.695   4.142  0.1989  0.1427  0.1223
  461MOL0     C60758   4.721   7.773   4.235  0.0685 -0.2382 -0.0517
  461MOL0     C60759   4.588   7.795   4.160  0.2485 -0.2167  0.6596
  461MOL0     C60760   4.473   7.776   4.263 -1.1321  0.2666 -0.7258
  461MOL0     C60761   4.338   7.780   4.198 -0.6198  0.4601  0.4680
  461MOL0     C60762   4.226   7.782   4.296 -0.4394  0.1400 -0.1203
  461MOL0     C60763   4.113   7.726   4.231  0.3471 -1.0308  0.4927
  461MOL0    Cl60764   4.082   7.811   4.083  0.1130 -0.2018 -0.1753
  461MOL0     C60765   5.213   7.520   4.292 -0.0781  0.3385 -0.0094
  461MOL0     C60766   5.343   7.457   4.310  1.2665 -0.2431 -0.0407
  461MOL0     O60767   5.491   7.197   4.331 -0.7020 -0.4176 -0.9750
  461MOL0     C60768   5.744   7.086   4.289  0.1779 -0.3910 -0.0611
  461MOL0     C60769   5.868   7.021   4.272  0.4596 -0.4929  0.4209
  461MOL0     N60770   6.553   7.118   4.076 -0.2225 -0.4397 -0.8636
  461MOL0     N60771   6.657   7.186   4.035 -0.3542 -0.1724 -0.6556
  461MOL0     C60772   7.845   6.862   3.850  0.4775  0.4472 -0.5881
  461MOL0     C60773   7.961   6.813   3.800 -0.0710 -0.9522  0.1172
  461MOL0     C60774   8.334   6.548   3.762  0.3132 -0.0455  1.1717
  461MOL0     C60775   8.350   6.411   3.738  0.3940  0.5678  0.4125
  461MOL0     C60776   8.457   6.359   3.656 -0.2856  0.7285 -1.0168
  461MOL0     C60777   8.565   6.442   3.622  0.0804 -0.3750 -0.2666
  461MOL0     O60778   8.665   6.375   3.570  0.1170 -0.1853  1.0528
  461MOL0     C60779   8.789   6.389   3.653  0.6532  0.2963 -0.4594
  461MOL0     C60780   8.916   6.374   3.558  0.1300 -0.5346  0.1564
  461MOL0     C60781   8.940   6.510   3.489  0.6543 -0.8062  0.4762
  461MOL0     C60782   9.027   6.608   3.573  0.6690  1.1077  0.2870
  461MOL0     C60783   9.165   6.562   3.585 -0.2408 -0.1439 -0.5171
  461MOL0     C60784   9.278   6.526   3.597 -0.4638 -0.7376 -0.8555
  461MOL0     C60785   8.547   6.576   3.646 -0.6059 -0.0902  0.7065
  461MOL0     C60786   8.433   6.633   3.713 -0.1142  0.8430 -0.5277
  461MOL0     H60787   8.132   6.779   4.084  3.3246  4.2253 -2.0293
  461MOL0     H60788   7.895   6.863   4.182 -1.5391  1.2136 -0.9460
  461MOL0     H60789   7.808   7.121   4.059 -1.4437  1.5307  0.6849
  461MOL0     H60790   7.756   7.038   4.209 -0.7196  1.8658  1.2062
  461MOL0     H60791   7.587   7.171   4.002  2.5248 -1.5015 -1.2359
  461MOL0     H60792   7.624   7.238   4.157 -0.3156 -1.0390  1.3225
  461MOL0     H60793   7.491   7.063   4.288  1.5158  0.3373  0.2582
  461MOL0     H60794   7.463   6.988   4.128  3.3835 -1.1714  1.2430
  461MOL0     H60795   7.377   7.272   4.176  0.2239 -0.0260  0.9903
  461MOL0     H60796   7.348   7.171   4.031  0.9720 -2.5182 -0.5487
  461MOL0     H60797   7.228   7.085   4.303 -0.6409 -1.3378 -0.2398
  461MOL0     H60798   7.204   7.025   4.139 -1.3020 -0.3766  1.0040
  461MOL0     H60799   7.151   7.286   4.088 -1.3106  0.0854 -1.6355
  461MOL0     H60800   7.122   7.308   4.249 -0.2793  0.2629 -0.8681
  461MOL0     H60801   6.989   7.086   4.098  4.6434  2.0638 -1.6837
  461MOL0     H60802   6.964   7.112   4.266  1.3799 -2.2272 -0.5201
  461MOL0     H60803   6.886   7.289   4.032 -0.0606  0.9281  0.1806
  461MOL0     H60804   6.895   7.354   4.189  0.9571  1.1478 -2.3716
  461MOL0     H60805   6.695   7.182   4.369 -0.6701 -1.4458  0.3164
  461MOL0     H60806   6.480   7.025   4.403  0.6778  2.2404  0.2541
  461MOL0     H60807   6.401   6.968   4.253 -2.6290  1.7359 -1.4549
  461MOL0     H60808   6.379   7.244   4.359 -0.3864  0.0053 -1.4595
  461MOL0     H60809   6.246   7.127   4.387 -1.4895  1.2486 -2.0971
  461MOL0     H60810   6.180   7.269   4.207  0.2520  2.3796 -3.8008
  461MOL0     H60811   6.335   7.254   4.134  1.0120 -0.0633  1.9789
  461MOL0     H60812   6.272   6.999   4.095  0.3593 -0.4520  3.0024
  461MOL0     H60813   6.167   7.101   4.004 -1.6768 -0.3145  0.7857
  461MOL0     H60814   6.001   7.267   4.076  0.8246 -0.5310 -0.5260
  461MOL0     H60815   5.784   7.363   4.109 -5.8925  0.3510  1.7415
  461MOL0     H60816   5.417   7.411   3.982 -1.4724  2.1145 -0.5950
  461MOL0     H60817   5.181   7.505   3.963 -0.1889  1.6095  0.9474
  461MOL0     H60818   5.006   7.789   4.178  0.5296 -0.4625 -0.5857
  461MOL0     H60819   4.954   7.669   4.305  1.1519 -0.6920  0.6181
  461MOL0     H60820   4.778   7.593   4.140  2.1709 -0.6488 -0.2094
  461MOL0     H60821   4.815   7.738   4.041  0.2631  0.0650  0.0872
  461MOL0     H60822   4.769   7.863   4.274  2.2813 -1.8931  1.2935
  461MOL0     H60823   4.699   7.713   4.324 -1.1729 -0.3117 -0.3944
  461MOL0     H60824   4.589   7.897   4.120 -0.6440 -1.2153 -2.2210
  461MOL0     H60825   4.567   7.725   4.078 -0.7690 -0.8106  1.3996
  461MOL0     H60826   4.480   7.853   4.340 -0.8792 -0.2770 -0.2030
  461MOL0     H60827   4.484   7.676   4.306 -1.4498  1.2119  1.6961
  461MOL0     H60828   4.332   7.694   4.131 -0.3374  0.2724  0.6811
  461MOL0     H60829   4.340   7.867   4.131  0.3695 -0.0826 -0.2439
  461MOL0     H60830   4.252   7.715   4.379  1.0578  1.1349  0.2437
  461MOL0     H60831   4.187   7.879   4.326 -2.7151 -0.6174 -0.3958
  461MOL0     H60832   4.016   7.739   4.280 -0.9280 -2.1776 -1.5718
  461MOL0     H60833   4.142   7.623   4.208 -2.0706 -1.1152 -3.0058
  461MOL0     H60834   5.149   7.555   4.372 -1.4667 -1.0106 -0.4836
  461MOL0     H60835   5.388   7.429   4.404  3.1108 -0.9156 -1.0792
  461MOL0     H60836   5.681   7.026   4.354  3.0826 -3.4011  0.3005
  461MOL0     H60837   5.888   6.925   4.319 -0.8206 -0.3628  1.2707
  461MOL0     H60838   7.759   6.880   3.786  0.8998  2.4964 -0.6441
  461MOL0     H60839   7.983   6.815   3.694  0.3606 -0.8774  0.2084
  461MOL0     H60840   8.269   6.348   3.773 -1.9754  1.3902 -3.0620
  461MOL0     H60841   8.459   6.252   3.639 -2.4490  0.5928 -0.6598
  461MOL0     H60842   8.786   6.299   3.715  0.3844 -1.3504 -2.7420
  461MOL0     H60843   8.792   6.480   3.713 -0.3977 -0.3452  0.6024
  461MOL0     H60844   8.997   6.339   3.623  0.9962  2.1545  0.6523
  461MOL0     H60845   8.893   6.314   3.470 -0.8528  0.4304 -0.2595
  461MOL0     H60846   8.847   6.560   3.461  0.0051 -1.1892  1.9122
  461MOL0     H60847   8.996   6.495   3.395 -2.2375  0.9490 -1.6972
  461MOL0     H60848   9.028   6.700   3.512  1.8773  0.6755 -0.3735
  461MOL0     H60849   8.984   6.639   3.668 -2.5587  0.1962 -0.7384
  461MOL0     H60850   9.381   6.497   3.603 -0.0804  0.1188 -2.5996
  461MOL0     H60851   8.634   6.631   3.610 -0.5622  0.6420  1.8724
  461MOL0     H60852   8.417   6.734   3.747  0.4879  0.8651 -0.3005
  462MOL0     O60853   8.640   3.437  10.586 -0.0790 -0.0958 -0.1516
  462MOL0     C60854   8.578   3.484  10.678  0.5618  0.5171 -0.3654
  462MOL0     O60855   8.634   3.512  10.793 -0.2973  0.1288 -0.5089
  462MOL0     C60856   8.773   3.494  10.823  0.3458  0.9968  0.6894
  462MOL0     C60857   8.832   3.371  10.809  0.0547  1.0865 -0.2838
  462MOL0     C60858   8.966   3.352  10.850 -0.4506 -0.1694  0.1354
  462MOL0     C60859   9.025   3.457  10.926 -0.4483 -1.0576 -0.0589
  462MOL0     O60860   9.139   3.423  10.990  0.0618  0.5776  0.2004
  462MOL0     C60861   9.253   3.409  10.908 -0.3577  0.6717  0.2677
  462MOL0     C60862   9.373   3.372  10.996 -0.1838  0.3146 -0.6152
  462MOL0     C60863   9.393   3.484  11.093 -0.1293  0.1551 -0.7361
  462MOL0     C60864   9.538   3.480  11.153 -0.1654 -0.1048 -0.4587
  462MOL0     C60865   9.578   3.367  11.233 -0.1068 -0.6630  0.0475
  462MOL0     C60866   9.710   3.377  11.315  0.4077  0.3057  1.0037
  462MOL0     C60867   9.831   3.440  11.243 -0.3917 -0.0213 -0.6003
  462MOL0     C60868   9.961   3.366  11.300  0.3559 -0.7250  0.5648
  462MOL0     N60869   9.966   3.226  11.257 -0.6239  0.0904  0.9577
  462MOL0     C60870   9.942   3.180  11.127  0.1482 -0.8026  0.2192
  462MOL0     C60871   9.941   3.048  11.134 -0.2353  0.3470 -0.0995
  462MOL0     C60872   9.911   2.952  11.028 -0.2927  0.5386  0.5087
  462MOL0     C60873   9.811   3.005  10.922  0.1469  0.0396  0.3617
  462MOL0     C60874   9.671   3.030  10.979 -0.9089  0.0269  0.5840
  462MOL0     C60875   9.566   3.034  10.868  0.0572  0.3261 -0.4916
  462MOL0     O60876   9.438   3.020  10.937 -0.1272  0.1615  1.0041
  462MOL0     C60877   9.329   3.005  10.855  0.5369  0.3338 -0.8281
  462MOL0     C60878   9.318   3.070  10.728 -0.7317  0.3717 -0.7595
  462MOL0     C60879   9.198   3.077  10.668 -0.2423 -0.2920  0.6859
  462MOL0     C60880   9.083   3.022  10.719  0.6363 -0.4183  0.0481
  462MOL0     C60881   8.956   3.037  10.655  0.2687 -0.5740 -0.1243
  462MOL0     O60882   8.844   2.977  10.710 -0.2853  0.5217 -0.0951
  462MOL0     C60883   8.715   2.989  10.662 -0.5935  0.2051  0.3903
  462MOL0     C60884   8.666   3.098  10.588  0.7835  0.3044  0.2229
  462MOL0     C60885   8.528   3.099  10.548 -0.2740  1.2250  0.2201
  462MOL0     C60886   8.451   2.989  10.586  1.0221  0.7769  0.3038
  462MOL0     O60887   8.323   2.976  10.551  0.4645 -0.2237 -0.3336
  462MOL0     C60888   8.263   3.066  10.451  0.6972  0.2563  0.2269
  462MOL0     C60889   8.108   3.056  10.481 -1.0308  0.3307  0.4211
  462MOL0     C60890   8.025   3.156  10.397  0.0797 -0.0956 -0.2260
  462MOL0     C60891   7.872   3.160  10.433  0.1529  1.2304  0.0007
  462MOL0     C60892   7.803   3.258  10.330 -0.4032  0.3027  0.0613
  462MOL0     C60893   7.657   3.290  10.353 -0.0643 -0.0776 -0.1054
  462MOL0     C60894   7.555   3.173  10.320  0.1003 -0.1296  0.1385
  462MOL0     C60895   7.554   3.143  10.166  1.0640 -0.9953 -0.5664
  462MOL0    Cl60896   7.408   3.047  10.116 -0.6849  0.1631  0.1477
  462MOL0     C60897   8.497   2.876  10.660  0.0730 -0.2159 -0.1110
  462MOL0     C60898   8.628   2.880  10.705  0.2720 -0.1623  0.4363
  462MOL0     O60899   8.949   3.116  10.566  0.4701 -0.3588  0.5918
  462MOL0     C60900   9.096   2.940  10.829  0.0380  0.3025  0.8058
  462MOL0     C60901   9.227   2.922  10.896 -0.2246  0.8020 -1.5063
  462MOL0     N60902   9.976   3.015  11.264 -0.1364  1.1899  0.1425
  462MOL0     N60903   9.984   3.119  11.336 -0.1657 -0.2085 -0.1233
  462MOL0     C60904   8.958   3.585  10.945  0.0927  0.4046 -0.5591
  462MOL0     C60905   8.831   3.600  10.886  0.4619  0.5634 -0.0471
  462MOL0     C60906   8.430   3.513  10.689  0.5671  1.1779 -0.3712
  462MOL0     C60907   8.377   3.565  10.807  0.2160 -0.3535  0.6176
  462MOL0     C60908   8.249   3.602  10.819  0.1030 -0.5812  0.4391
  462MOL0     C60909   8.155   3.583  10.716 -1.6487 -0.5427  0.2643
  462MOL0     O60910   8.034   3.637  10.725 -0.9015  0.7158  0.2616
  462MOL0     C60911   7.921   3.592  10.641  0.2025  0.0780  0.3579
  462MOL0     C60912   7.883   3.445  10.674  0.7933 -0.5615 -0.7135
  462MOL0     C60913   7.819   3.437  10.817 -0.1868  0.0216  0.1255
  462MOL0     C60914   7.777   3.303  10.875  0.9574  0.8033  0.7852
  462MOL0     C60915   7.711   3.212  10.783 -0.0336 -0.1855  1.0413
  462MOL0     C60916   7.664   3.136  10.698 -0.3022  0.8154  0.5145
  462MOL0     C60917   8.206   3.527  10.592 -0.3638 -0.0507 -0.5414
  462MOL0     C60918   8.341   3.489  10.584 -0.3338  0.4429  0.1645
  462MOL0     H60919   8.772   3.288  10.774 -1.2891  0.7751  2.4505
  462MOL0     H60920   9.017   3.256  10.858  3.5675  1.8059  0.8714
  462MOL0     H60921   9.278   3.496  10.847 -1.3152 -0.2426 -1.4958
  462MOL0     H60922   9.239   3.319  10.848  1.0731 -0.5363  1.6753
  462MOL0     H60923   9.466   3.357  10.939 -0.0501 -2.0045  0.1244
  462MOL0     H60924   9.344   3.279  11.046 -0.5668  2.4806  3.6686
  462MOL0     H60925   9.325   3.478  11.178 -1.2213 -4.4679 -1.6481
  462MOL0     H60926   9.372   3.583  11.051 -2.3383  0.3053  0.5840
  462MOL0     H60927   9.605   3.483  11.067  0.9948  0.7453  0.4403
  462MOL0     H60928   9.567   3.572  11.204 -0.4267  0.2726 -0.9843
  462MOL0     H60929   9.576   3.278  11.169 -0.4608 -1.4451  1.1154
  462MOL0     H60930   9.494   3.349  11.300 -0.4826  2.1153  0.4436
  462MOL0     H60931   9.721   3.272  11.344 -2.3192 -0.7935 -1.4219
  462MOL0     H60932   9.683   3.432  11.406 -2.5845 -2.5870  2.0767
  462MOL0     H60933   9.820   3.424  11.136  1.0121  1.1448 -0.9520
  462MOL0     H60934   9.832   3.549  11.255 -0.2616 -0.0866  0.0384
  462MOL0     H60935   9.949   3.377  11.409  0.8890  1.7235  0.4357
  462MOL0     H60936  10.050   3.418  11.264 -0.0086 -0.3675  0.1708
  462MOL0     H60937   9.920   3.226  11.031  1.6408  1.7659  1.0263
  462MOL0     H60938   9.883   2.854  11.066  2.0311 -1.3318 -2.1805
  462MOL0     H60939  10.010   2.937  10.985 -1.2711  0.3573 -1.8140
  462MOL0     H60940   9.812   2.930  10.842  0.0274  0.7188 -0.2908
  462MOL0     H60941   9.845   3.095  10.870  1.8280  1.9995  4.3905
  462MOL0     H60942   9.654   2.946  11.047  2.9075 -0.4331  1.2000
  462MOL0     H60943   9.665   3.118  11.043  1.2197  1.2000 -0.7261
  462MOL0     H60944   9.571   2.952  10.796  1.2419 -0.5616  0.5610
  462MOL0     H60945   9.577   3.124  10.806 -0.6149 -0.0687 -1.2052
  462MOL0     H60946   9.406   3.122  10.694  0.6950 -1.2555  0.2811
  462MOL0     H60947   9.197   3.115  10.566  4.6751  2.3291  1.2764
  462MOL0     H60948   8.711   3.196  10.575  0.4434  0.1821 -2.4634
  462MOL0     H60949   8.496   3.187  10.493 -1.9128 -0.8681 -2.4488
  462MOL0     H60950   8.271   3.015  10.355  0.2239  0.9873 -0.2078
  462MOL0     H60951   8.305   3.167  10.450  1.9221 -0.1688  2.1391
  462MOL0     H60952   8.086   3.087  10.584 -0.3331  1.1394  0.3317
  462MOL0     H60953   8.075   2.955  10.455  2.5709 -0.9109  0.2361
  462MOL0     H60954   8.036   3.126  10.292  0.6523  0.6524 -0.3862
  462MOL0     H60955   8.067   3.255  10.418  1.0039 -0.6283  0.5221
  462MOL0     H60956   7.828   3.060  10.429 -4.0332  2.8607  0.1606
  462MOL0     H60957   7.853   3.188  10.537 -3.1381  0.4878 -0.3061
  462MOL0     H60958   7.812   3.225  10.226 -2.1462  1.8110 -0.6133
  462MOL0     H60959   7.853   3.355  10.337 -1.0678  0.6166  0.4898
  462MOL0     H60960   7.630   3.380  10.298  0.8646 -0.8795 -1.9398
  462MOL0     H60961   7.634   3.311  10.458  0.1419 -0.1170 -0.0529
  462MOL0     H60962   7.560   3.081  10.378 -0.1700 -0.2561 -0.0358
  462MOL0     H60963   7.459   3.218  10.347 -0.5601  0.8140 -3.2526
  462MOL0     H60964   7.640   3.081  10.140 -0.0139 -2.3432 -1.0912
  462MOL0     H60965   7.562   3.234  10.107  1.1491  1.1036  2.4745
  462MOL0     H60966   8.434   2.787  10.656 -1.8084  1.0098  0.7855
  462MOL0     H60967   8.662   2.795  10.763  0.5488 -0.2049  0.2134
  462MOL0     H60968   9.010   2.881  10.855  1.9563 -3.0642  0.1046
  462MOL0     H60969   9.229   2.869  10.991  1.5925  0.0523 -1.9279
  462MOL0     H60970   9.000   3.661  11.010  1.6280 -1.0774  0.2591
  462MOL0     H60971   8.783   3.697  10.888  1.0561  0.8851 -0.8098
  462MOL0     H60972   8.441   3.592  10.890 -0.1979  2.3969  0.1385
  462MOL0     H60973   8.215   3.649  10.911  2.0828  0.3226  0.7526
  462MOL0     H60974   7.948   3.603  10.536 -3.7101  2.8642 -0.5420
  462MOL0     H60975   7.833   3.656  10.645  0.3283  0.2301  0.8344
  462MOL0     H60976   7.819   3.401  10.598 -2.8363  1.9099  0.6422
  462MOL0     H60977   7.972   3.383  10.660  0.4320 -0.6993 -2.6831
  462MOL0     H60978   7.726   3.494  10.815  1.4037  2.8118 -2.1531
  462MOL0     H60979   7.892   3.485  10.883  2.4666 -0.9830 -1.8735
  462MOL0     H60980   7.869   3.251  10.904  0.9174  1.3716  1.9963
  462MOL0     H60981   7.707   3.333  10.954  1.1594  2.0132  0.5182
  462MOL0     H60982   7.616   3.079  10.621 -2.0977 -0.7253  2.6338
  462MOL0     H60983   8.152   3.514  10.498 -0.4911 -2.4777 -0.1949
  462MOL0     H60984   8.373   3.440  10.493 -0.1264 -0.3121  0.6410
  463MOL0     O60985   9.107   4.982   1.551  0.1676  0.5235 -0.4572
  463MOL0     C60986   9.026   5.061   1.584 -0.6448 -1.0420 -0.8358
  463MOL0     O60987   9.057   5.182   1.633  0.5099 -0.2211  0.2980
  463MOL0     C60988   9.187   5.218   1.650 -0.4247  1.2414  0.2847
  463MOL0     C60989   9.254   5.200   1.771 -0.9226  1.0687  0.9954
  463MOL0     C60990   9.393   5.224   1.770  0.0905  0.6678 -0.6149
  463MOL0     C60991   9.461   5.271   1.664 -0.7532 -0.5005 -0.0204
  463MOL0     O60992   9.595   5.294   1.659 -0.9389  0.3620 -0.6278
  463MOL0     C60993   9.681   5.225   1.571  0.5990 -0.0184 -0.1344
  463MOL0     C60994   9.834   5.236   1.595 -0.5726 -0.1456  0.1285
  463MOL0     C60995   9.901   5.370   1.557 -0.3205 -0.0493  0.7738
  463MOL0     C60996   9.831   5.493   1.619  0.2973 -1.4721  0.0809
  463MOL0     C60997   9.908   5.625   1.605  0.0479 -0.3903 -0.8935
  463MOL0     C60998  10.005   5.659   1.715  0.2763 -1.0548 -0.4075
  463MOL0     C60999  10.068   5.793   1.680  0.4260  0.0678  0.4294
  463MOL0     C61000  10.186   5.833   1.770 -0.3157  0.0130 -0.2223
  463MOL0     N61001  10.245   5.967   1.772 -0.8848  0.1117  0.8148
  463MOL0     C61002  10.280   6.045   1.884  0.3135 -0.5133  0.8329
  463MOL0     C61003  10.328   6.165   1.826  0.3436 -0.9661  0.6697
  463MOL0     C61004  10.379   6.284   1.896  0.4421 -0.7422 -0.7088
  463MOL0     C61005  10.525   6.316   1.861 -1.3988 -0.1765  0.2126
  463MOL0     C61006  10.576   6.461   1.912  0.0058  0.0516 -0.0734
  463MOL0     C61007  10.722   6.497   1.876  0.5729 -0.6151 -0.6855
  463MOL0     O61008  10.759   6.615   1.945 -0.5899 -0.1051 -0.8234
  463MOL0     C61009  10.892   6.637   1.973  0.1676 -0.9332  0.3978
  463MOL0     C61010  10.925   6.766   2.001  0.2739  0.1292  0.1626
  463MOL0     C61011  11.059   6.804   2.025 -0.3040 -0.4054  0.2152
  463MOL0     C61012  11.165   6.720   2.000 -0.2070  0.2490 -0.0901
  463MOL0     C61013  11.305   6.767   2.010  0.3008  0.5927  1.0116
  463MOL0     O61014  11.404   6.671   2.026  0.1230 -0.7586 -0.5939
  463MOL0     C61015  11.531   6.718   2.019 -0.3250 -0.5547  0.6303
  463MOL0     C61016  11.573   6.810   2.121  0.3773  0.0186  0.2189
  463MOL0     C61017  11.703   6.859   2.123 -0.3834  0.0607 -0.5091
  463MOL0     C61018  11.793   6.821   2.018  0.1585  0.1877 -0.0341
  463MOL0     O61019  11.913   6.880   2.034  0.4881 -0.0573 -0.1090
  463MOL0     C61020  12.018   6.788   2.045  0.1266  0.3829  1.5321
  463MOL0     C61021  12.140   6.852   2.116 -0.5908 -0.1584 -0.5953
  463MOL0     C61022  12.270   6.768   2.109 -0.2323  0.2494 -0.3517
  463MOL0     C61023  12.383   6.805   2.204  0.1158 -0.7574 -0.5873
  463MOL0     C61024  12.516   6.803   2.129 -0.1896 -1.1188 -0.0253
  463MOL0     C61025  12.620   6.880   2.210 -0.5171  0.0095 -0.5452
  463MOL0     C61026  12.763   6.847   2.166 -0.5330  0.0125  0.3356
  463MOL0     C61027  12.889   6.910   2.246  0.0636  0.0998 -0.8515
  463MOL0    Cl61028  12.909   6.788   2.376  0.0212 -0.3365  0.1835
  463MOL0     C61029  11.746   6.738   1.923  0.8234  1.1952  0.2052
  463MOL0     C61030  11.620   6.679   1.924 -0.0688  0.0276 -0.0588
  463MOL0     O61031  11.327   6.883   1.983  0.1969 -0.6765  0.0663
  463MOL0     C61032  11.129   6.586   1.962 -0.4075  0.5810 -0.0552
  463MOL0     C61033  10.997   6.551   1.943  1.0135 -0.3352 -0.0251
  463MOL0     N61034  10.321   6.147   1.683 -0.1422 -1.4996  0.0908
  463MOL0     N61035  10.275   6.031   1.653  0.7278 -1.3289 -0.0271
  463MOL0     C61036   9.397   5.303   1.551  0.0011  0.1069  0.2409
  463MOL0     C61037   9.258   5.272   1.541  0.5254  0.0202  0.2766
  463MOL0     C61038   8.886   5.026   1.586  0.8714  0.1577  0.1682
  463MOL0     C61039   8.832   4.928   1.497  0.2721 -0.3666  0.5781
  463MOL0     C61040   8.694   4.907   1.495  0.4306 -0.3948 -0.0432
  463MOL0     C61041   8.612   4.983   1.580  0.0908 -0.2017  0.3509
  463MOL0     O61042   8.477   4.976   1.592  0.6924  0.2776  1.1062
  463MOL0     C61043   8.401   4.991   1.468  0.7390  0.1238  0.4145
  463MOL0     C61044   8.248   5.011   1.496 -0.3823 -0.4093  0.5200
  463MOL0     C61045   8.190   4.901   1.587  0.3433 -0.3739 -0.6723
  463MOL0     C61046   8.038   4.894   1.603 -0.8806  0.1956  0.2251
  463MOL0     C61047   7.970   4.869   1.474  0.6385  0.9561 -0.7644
  463MOL0     C61048   7.915   4.811   1.385  0.6201  0.4358 -0.1301
  463MOL0     C61049   8.667   5.077   1.665  0.2053 -0.9369 -0.0809
  463MOL0     C61050   8.803   5.096   1.672  0.0426  0.3421 -0.6172
  463MOL0     H61051   9.202   5.160   1.858 -5.2135 -1.4804 -2.3368
  463MOL0     H61052   9.448   5.209   1.862 -0.0756 -2.7886 -0.9508
  463MOL0     H61053   9.659   5.253   1.468 -0.5421 -1.2499 -0.2529
  463MOL0     H61054   9.663   5.117   1.564  1.2305 -0.1794  0.5212
  463MOL0     H61055   9.878   5.158   1.532  1.3192 -0.2562  1.4769
  463MOL0     H61056   9.859   5.211   1.699 -0.6165 -1.1052 -0.0828
  463MOL0     H61057   9.899   5.366   1.448 -4.9069 -1.0382  0.7194
  463MOL0     H61058  10.004   5.374   1.594  0.0908  1.5552 -0.4277
  463MOL0     H61059   9.736   5.509   1.567  0.3995 -1.8612 -0.2289
  463MOL0     H61060   9.822   5.471   1.726  3.2747  2.4345  1.3711
  463MOL0     H61061   9.837   5.708   1.600 -0.5633 -0.7944  0.5805
  463MOL0     H61062   9.966   5.629   1.512  0.9211 -2.1458 -0.4653
  463MOL0     H61063  10.085   5.584   1.722 -0.1136 -1.3571  1.2839
  463MOL0     H61064   9.962   5.666   1.815  0.9439 -0.4613 -0.1535
  463MOL0     H61065  10.111   5.798   1.580  1.3679 -1.0875  0.7445
  463MOL0     H61066   9.987   5.866   1.687  0.4286 -0.0127  1.6455
  463MOL0     H61067  10.265   5.761   1.750 -1.3185  0.0353 -5.4441
  463MOL0     H61068  10.148   5.810   1.871 -0.0959 -3.0378 -0.7661
  463MOL0     H61069  10.279   6.028   1.991  1.7778  0.6315  1.0606
  463MOL0     H61070  10.365   6.268   2.003  0.6475 -0.9846 -0.7179
  463MOL0     H61071  10.330   6.380   1.874  1.6015  0.4304  1.4711
  463MOL0     H61072  10.522   6.317   1.752 -3.2284  3.8374  0.1241
  463MOL0     H61073  10.592   6.239   1.902 -0.9756 -1.0454 -1.9882
  463MOL0     H61074  10.511   6.543   1.879 -0.3064  0.1006  0.6403
  463MOL0     H61075  10.566   6.463   2.021 -1.1612 -1.3484 -0.1156
  463MOL0     H61076  10.729   6.516   1.768  0.5911 -1.0715 -0.7665
  463MOL0     H61077  10.786   6.410   1.890  0.2337 -0.5975  1.1161
  463MOL0     H61078  10.841   6.833   2.014 -0.8497 -1.0017 -1.0843
  463MOL0     H61079  11.082   6.906   2.053  1.2248 -0.5423 -0.4051
  463MOL0     H61080  11.496   6.842   2.191 -0.1468  0.7216 -0.6591
  463MOL0     H61081  11.730   6.942   2.188  4.2429  1.4074 -3.6109
  463MOL0     H61082  12.052   6.763   1.944 -4.8857  1.8765 -0.8553
  463MOL0     H61083  11.978   6.699   2.094 -0.8829  0.3925  0.7552
  463MOL0     H61084  12.114   6.865   2.222 -0.2046 -0.3336 -0.4739
  463MOL0     H61085  12.158   6.956   2.085 -0.1450  0.0664  0.3708
  463MOL0     H61086  12.305   6.784   2.007 -0.1034  0.9192 -0.2050
  463MOL0     H61087  12.260   6.659   2.114  1.5902  0.0390 -0.4811
  463MOL0     H61088  12.366   6.903   2.249 -0.0800 -1.2016  0.3243
  463MOL0     H61089  12.375   6.730   2.283 -3.0382 -2.4337 -2.2748
  463MOL0     H61090  12.513   6.825   2.022  2.2195 -1.6371 -0.2534
  463MOL0     H61091  12.545   6.697   2.132 -0.6740 -1.2353  1.2253
  463MOL0     H61092  12.609   6.853   2.315  1.4829  4.3820  1.0259
  463MOL0     H61093  12.619   6.989   2.200  3.5915  0.1472 -1.1549
  463MOL0     H61094  12.778   6.739   2.158  1.9307  0.3486 -0.4581
  463MOL0     H61095  12.773   6.890   2.066 -3.7038 -0.3740 -0.2506
  463MOL0     H61096  12.877   7.010   2.288  1.2813 -0.2905  0.5014
  463MOL0     H61097  12.978   6.918   2.182 -1.0814  3.4512 -2.2108
  463MOL0     H61098  11.816   6.711   1.845 -0.6358 -2.6934  0.0526
  463MOL0     H61099  11.593   6.618   1.839 -1.7556  0.7159 -0.0605
  463MOL0     H61100  11.203   6.514   1.929 -1.6468  1.3384 -5.4854
  463MOL0     H61101  10.975   6.449   1.912 -2.1827  0.3803 -0.4996
  463MOL0     H61102   9.454   5.354   1.474 -2.1984  0.6674 -1.0859
  463MOL0     H61103   9.211   5.283   1.444 -0.6431 -1.1959  0.6723
  463MOL0     H61104   8.909   4.868   1.448  0.2918 -1.6995  2.1362
  463MOL0     H61105   8.654   4.828   1.433  2.8140 -2.5534  0.9700
  463MOL0     H61106   8.426   4.909   1.400  0.1049  0.5997 -0.4206
  463MOL0     H61107   8.437   5.082   1.419 -1.3774  0.7185 -0.1482
  463MOL0     H61108   8.225   5.107   1.541 -1.8723 -0.7450  0.5452
  463MOL0     H61109   8.192   5.002   1.402 -0.3015 -1.2004  0.5368
  463MOL0     H61110   8.230   4.904   1.689 -2.3779 -0.8019  0.5084
  463MOL0     H61111   8.226   4.804   1.551 -3.2194 -1.8974 -0.6404
  463MOL0     H61112   8.005   4.815   1.671 -2.1695 -0.4257 -1.0626
  463MOL0     H61113   7.995   4.987   1.640  1.4317  1.9901 -1.3105
  463MOL0     H61114   7.860   4.759   1.309  2.2285 -1.4682 -0.0536
  463MOL0     H61115   8.595   5.125   1.730 -0.6788 -0.2037 -1.5529
  463MOL0     H61116   8.852   5.156   1.748  2.4985 -2.1652 -0.0406
  464MOL0     O61117   2.501   4.304   6.620 -0.2567  0.6160  0.1102
  464MOL0     C61118   2.520   4.221   6.712  0.2550 -0.2243  0.3314
  464MOL0     O61119   2.429   4.140   6.775 -0.5700  0.0339  0.1329
  464MOL0     C61120   2.299   4.181   6.739  1.2310 -0.0524 -0.1989
  464MOL0     C61121   2.206   4.102   6.678  0.6721  0.4805  0.5222
  464MOL0     C61122   2.077   4.137   6.659  0.2996 -0.0420  0.5095
  464MOL0     C61123   2.030   4.254   6.719  0.4730  0.2566  0.2482
  464MOL0     O61124   1.892   4.288   6.723 -0.3545 -0.6228  0.4426
  464MOL0     C61125   1.797   4.222   6.628  0.3740 -0.8082  0.1015
  464MOL0     C61126   1.691   4.329   6.609  0.3073  0.2059  0.6152
  464MOL0     C61127   1.548   4.260   6.606  0.5207 -0.5118  0.1588
  464MOL0     C61128   1.460   4.374   6.548 -0.1267  0.1808  1.0677
  464MOL0     C61129   1.310   4.333   6.556 -0.1049 -0.0096  0.0833
  464MOL0     C61130   1.249   4.319   6.700  0.0841 -0.6735 -0.7342
  464MOL0     C61131   1.111   4.276   6.674  0.4296  0.6334  0.1202
  464MOL0     C61132   1.029   4.305   6.805 -0.7418 -0.3230 -0.6054
  464MOL0     N61133   0.892   4.244   6.812 -0.7917 -0.0443  0.1673
  464MOL0     C61134   0.778   4.312   6.816  0.1611  0.2377  0.1784
  464MOL0     C61135   0.681   4.214   6.812 -0.4377  0.3471  0.5162
  464MOL0     C61136   0.533   4.244   6.801  0.8230 -0.6426 -0.0561
  464MOL0     C61137   0.455   4.176   6.902  0.2629 -0.2562  0.2397
  464MOL0     C61138   0.304   4.208   6.898 -0.7077 -1.1058  0.3269
  464MOL0     C61139   0.225   4.115   6.992 -0.5650  0.0284  0.6117
  464MOL0     O61140   0.251   4.149   7.135  0.3322  0.4424  0.0045
  464MOL0     C61141   0.147   4.205   7.208  1.3732  0.4445 -0.3989
  464MOL0     C61142   0.021   4.137   7.225 -0.7632 -0.3756  0.6674
  464MOL0     C61143  -0.092   4.205   7.269 -0.3198  0.2874  0.5397
  464MOL0     C61144  -0.087   4.346   7.297 -0.3762 -0.4862 -0.8653
  464MOL0     C61145  -0.201   4.427   7.355  0.4256 -0.4018  0.1242
  464MOL0     O61146  -0.299   4.364   7.418  0.4103 -0.1062  0.2173
  464MOL0     C61147  -0.415   4.428   7.460  0.0723  0.3256 -0.0440
  464MOL0     C61148  -0.422   4.567   7.491 -0.0709  0.2936  0.4177
  464MOL0     C61149  -0.543   4.626   7.514 -0.3863  0.2991  0.3392
  464MOL0     C61150  -0.662   4.555   7.523 -0.2519  0.0165  0.1155
  464MOL0     O61151  -0.784   4.628   7.531 -0.5488 -0.0225 -0.1909
  464MOL0     C61152  -0.912   4.567   7.503  0.3067  0.3639  0.4731
  464MOL0     C61153  -0.989   4.526   7.626 -0.8585 -0.5871 -0.1779
  464MOL0     C61154  -1.051   4.656   7.710 -0.8623  0.2956  0.4142
  464MOL0     C61155  -1.164   4.623   7.801  0.3865  0.2250  0.3609
  464MOL0     C61156  -1.195   4.727   7.910 -0.2233 -0.4346  0.3121
  464MOL0     C61157  -1.241   4.869   7.846 -0.1139 -0.2329  0.2785
  464MOL0     C61158  -1.323   4.975   7.927 -0.5850  0.2222 -0.6338
  464MOL0     C61159  -1.474   4.992   7.893  0.5810 -0.2949 -0.7118
  464MOL0    Cl61160  -1.567   4.833   7.900  0.5271  0.4746 -0.0674
  464MOL0     C61161  -0.654   4.413   7.506 -0.1153  1.0833 -0.0354
  464MOL0     C61162  -0.530   4.350   7.482  0.1541 -0.0766 -1.0884
  464MOL0     O61163  -0.200   4.550   7.316 -0.3752  0.3148 -0.3517
  464MOL0     C61164   0.045   4.409   7.294  0.4088  0.5554 -0.4968
  464MOL0     C61165   0.158   4.346   7.233 -0.1122  0.6168  0.4679
  464MOL0     N61166   0.734   4.088   6.808  0.2476 -1.3377 -0.5656
  464MOL0     N61167   0.862   4.108   6.825 -0.0324 -0.4123  0.4861
  464MOL0     C61168   2.120   4.338   6.788  0.4942  0.3491 -0.0900
  464MOL0     C61169   2.251   4.307   6.791 -0.4781  0.7612 -0.1782
  464MOL0     C61170   2.654   4.225   6.767 -0.1924 -0.1148 -0.3537
  464MOL0     C61171   2.668   4.184   6.905 -0.3857  0.0049  0.5092
  464MOL0     C61172   2.793   4.179   6.959 -0.4775 -0.1804 -0.3560
  464MOL0     C61173   2.911   4.210   6.887 -0.9603 -0.0977  1.0846
  464MOL0     O61174   3.036   4.190   6.941 -0.1078 -0.7504  0.5551
  464MOL0     C61175   3.066   4.287   7.040 -0.2245  0.5293 -0.0853
  464MOL0     C61176   3.176   4.235   7.129 -0.0677 -0.2185  0.1727
  464MOL0     C61177   3.309   4.236   7.050 -0.1720  0.4282 -0.9847
  464MOL0     C61178   3.419   4.188   7.149 -0.7443  0.1705  0.7802
  464MOL0     C61179   3.467   4.306   7.230 -0.3515  0.4060 -0.7111
  464MOL0     C61180   3.509   4.395   7.304  0.2312  0.1882  0.0642
  464MOL0     C61181   2.903   4.256   6.753  0.3054  0.4810  0.3808
  464MOL0     C61182   2.773   4.273   6.693 -0.0197 -0.2597 -0.7600
  464MOL0     H61183   2.237   4.001   6.653  1.2814  1.2471 -2.2162
  464MOL0     H61184   2.011   4.072   6.602  1.9108 -0.0691 -1.4426
  464MOL0     H61185   1.755   4.140   6.687 -0.3514  0.2582  1.1216
  464MOL0     H61186   1.838   4.174   6.539  0.2637  0.4928 -0.6801
  464MOL0     H61187   1.718   4.380   6.517  3.3237 -1.0908  0.6620
  464MOL0     H61188   1.689   4.396   6.696 -0.0873 -1.3850  1.8961
  464MOL0     H61189   1.528   4.225   6.708  2.2875  0.0827  0.7433
  464MOL0     H61190   1.543   4.174   6.538  0.1321  0.3165 -0.8862
  464MOL0     H61191   1.472   4.470   6.600 -0.7253  2.8512 -3.1855
  464MOL0     H61192   1.480   4.397   6.443 -0.6812  0.8481  1.0958
  464MOL0     H61193   1.291   4.240   6.504 -0.2522  1.0421 -1.8346
  464MOL0     H61194   1.252   4.400   6.491 -1.7821 -2.2282 -0.8323
  464MOL0     H61195   1.238   4.410   6.760 -2.8723 -1.5062  0.1277
  464MOL0     H61196   1.313   4.260   6.766  0.4600  2.6089  2.1418
  464MOL0     H61197   1.067   4.336   6.594 -3.2840  0.1287  1.5748
  464MOL0     H61198   1.112   4.170   6.647 -2.6361  0.2650  1.0492
  464MOL0     H61199   1.010   4.412   6.815 -2.5178 -0.7593  1.7774
  464MOL0     H61200   1.095   4.266   6.883 -0.1556 -0.4903 -1.1737
  464MOL0     H61201   0.764   4.420   6.814  0.6471  0.3020  0.1494
  464MOL0     H61202   0.498   4.209   6.703  0.6664 -3.1038  0.8108
  464MOL0     H61203   0.518   4.352   6.803 -2.2279 -0.8509 -3.1238
  464MOL0     H61204   0.499   4.201   7.000  0.0093  0.2661  0.2271
  464MOL0     H61205   0.466   4.070   6.880 -2.1933 -0.8420  1.5263
  464MOL0     H61206   0.291   4.311   6.931  3.5903 -0.9885  2.2959
  464MOL0     H61207   0.269   4.200   6.794 -2.5698  1.1702  0.7026
  464MOL0     H61208   0.245   4.011   6.967 -0.6328 -0.1210  1.1514
  464MOL0     H61209   0.118   4.131   6.975 -0.1974  3.2276  0.6756
  464MOL0     H61210   0.008   4.035   7.191 -1.0172  0.1902 -1.0180
  464MOL0     H61211  -0.187   4.152   7.276 -0.8379  1.2957  1.3153
  464MOL0     H61212  -0.346   4.642   7.473 -0.1483  0.2195 -0.2739
  464MOL0     H61213  -0.543   4.734   7.504 -0.7236  0.2513 -0.2209
  464MOL0     H61214  -0.906   4.482   7.435 -2.6400 -2.0456  2.9787
  464MOL0     H61215  -0.962   4.645   7.445  0.2738 -0.0315 -0.0282
  464MOL0     H61216  -0.919   4.461   7.679 -0.4603 -0.6849 -0.8119
  464MOL0     H61217  -1.074   4.469   7.588 -0.2406 -1.6346 -0.0454
  464MOL0     H61218  -1.068   4.741   7.642  4.8359  3.1454  1.8543
  464MOL0     H61219  -0.972   4.695   7.775  0.1100 -2.4317  0.9985
  464MOL0     H61220  -1.258   4.612   7.745  0.2251  1.1992  0.4296
  464MOL0     H61221  -1.143   4.536   7.863 -1.2701  0.7802  1.7735
  464MOL0     H61222  -1.106   4.746   7.971 -0.0433  1.4434 -0.4689
  464MOL0     H61223  -1.278   4.697   7.975  0.7438 -0.8423  1.3888
  464MOL0     H61224  -1.298   4.833   7.760  1.8416  2.0638 -2.1218
  464MOL0     H61225  -1.148   4.908   7.805  0.1297 -1.3222 -0.2478
  464MOL0     H61226  -1.324   4.961   8.035 -0.7777 -3.1957 -0.9609
  464MOL0     H61227  -1.282   5.074   7.906 -3.2133  1.5237  0.0146
  464MOL0     H61228  -1.494   5.030   7.792 -0.1939  2.2545  0.3313
  464MOL0     H61229  -1.511   5.071   7.959  0.4677  1.0609 -2.3343
  464MOL0     H61230  -0.743   4.354   7.527  0.2799  1.3431  2.6438
  464MOL0     H61231  -0.535   4.250   7.439 -0.9117  0.2129 -1.6832
  464MOL0     H61232   0.048   4.516   7.313 -0.2172 -0.0125  3.6019
  464MOL0     H61233   0.253   4.391   7.210  1.5074 -2.0944  1.3776
  464MOL0     H61234   2.081   4.432   6.826 -2.1008 -0.5066 -0.4410
  464MOL0     H61235   2.329   4.362   6.844  0.9660 -1.4747  0.1635
  464MOL0     H61236   2.585   4.151   6.965 -2.5171 -0.4573 -2.4780
  464MOL0     H61237   2.797   4.149   7.063  2.4037  2.9091  0.6272
  464MOL0     H61238   2.989   4.327   7.107 -0.6477 -0.5139  0.0674
  464MOL0     H61239   3.101   4.378   6.991  1.9705  0.4724  1.2231
  464MOL0     H61240   3.179   4.309   7.210  0.4206  0.1152 -0.1498
  464MOL0     H61241   3.138   4.139   7.168 -0.1239  0.2664  1.3655
  464MOL0     H61242   3.320   4.338   7.012 -1.7116  2.0918  2.5159
  464MOL0     H61243   3.317   4.163   6.970  1.8837 -1.7404  1.0464
  464MOL0     H61244   3.380   4.111   7.215  0.1475  0.3303  1.5081
  464MOL0     H61245   3.502   4.140   7.096 -1.2210  1.5561 -1.3483
  464MOL0     H61246   3.537   4.488   7.350 -0.9065 -0.5843  2.4712
  464MOL0     H61247   2.994   4.292   6.705 -0.1058 -0.3547 -1.1124
  464MOL0     H61248   2.757   4.314   6.593 -2.1945 -0.6551 -0.6070
  465MOL0     O61249   7.436   1.532   6.667  0.3177 -0.2777  0.1580
  465MOL0     C61250   7.491   1.433   6.629 -0.5274 -0.1187  0.3841
  465MOL0     O61251   7.430   1.318   6.583  0.6809 -1.0346  0.8470
  465MOL0     C61252   7.294   1.312   6.564  0.0947  0.0441  0.2834
  465MOL0     C61253   7.264   1.208   6.476  0.2963 -0.8393 -1.0149
  465MOL0     C61254   7.136   1.166   6.462  0.0258 -0.2176 -0.7166
  465MOL0     C61255   7.030   1.239   6.525  0.4838 -0.0265 -0.4477
  465MOL0     O61256   6.894   1.205   6.487 -0.3119  0.2117 -0.0257
  465MOL0     C61257   6.831   1.301   6.412 -0.0590 -0.4920  0.3575
  465MOL0     C61258   6.716   1.373   6.492 -0.1744  0.6819 -0.1699
  465MOL0     C61259   6.642   1.267   6.563  0.4514  0.4836  0.1431
  465MOL0     C61260   6.501   1.321   6.609  0.5625  0.3896  0.6311
  465MOL0     C61261   6.407   1.204   6.614  0.2640 -0.5924 -0.0413
  465MOL0     C61262   6.272   1.221   6.557  0.4165 -0.1829  0.0802
  465MOL0     C61263   6.185   1.086   6.556  0.7725 -0.1475  0.8846
  465MOL0     C61264   6.216   0.999   6.684  0.6734  0.4462  0.2519
  465MOL0     N61265   6.109   0.903   6.703 -0.2714  0.8843  0.4501
  465MOL0     C61266   6.116   0.782   6.644  1.2749 -0.1155  0.3033
  465MOL0     C61267   6.003   0.726   6.692  0.3850  0.7500  0.4994
  465MOL0     C61268   5.942   0.590   6.637 -0.4994 -0.0776 -0.1220
  465MOL0     C61269   5.924   0.593   6.484  0.2242 -0.7550 -0.4615
  465MOL0     C61270   5.853   0.468   6.437  0.3428  0.1091 -0.6888
  465MOL0     C61271   5.821   0.478   6.285  0.3473  0.7427  0.5804
  465MOL0     O61272   5.777   0.346   6.238 -0.0702  0.3110  0.2202
  465MOL0     C61273   5.662   0.354   6.159 -0.6441 -0.2199  0.4552
  465MOL0     C61274   5.670   0.341   6.021 -0.2109 -0.1968 -0.4747
  465MOL0     C61275   5.571   0.364   5.933 -0.2670 -0.5103 -0.6750
  465MOL0     C61276   5.446   0.405   5.978  0.8236 -0.7794 -0.5421
  465MOL0     C61277   5.336   0.433   5.889 -0.4896  0.3728  0.6273
  465MOL0     O61278   5.226   0.497   5.925 -0.1573 -0.0672 -0.6424
  465MOL0     C61279   5.119   0.515   5.849  0.5411 -0.0657  0.2911
  465MOL0     C61280   5.018   0.595   5.911 -0.9380  1.6627 -0.6099
  465MOL0     C61281   4.901   0.612   5.847 -0.4455 -0.0519 -0.1915
  465MOL0     C61282   4.866   0.548   5.732  1.0428  0.3040 -0.2738
  465MOL0     O61283   4.737   0.570   5.694  0.7340 -0.4304  0.1470
  465MOL0     C61284   4.678   0.477   5.607 -1.1396 -0.2093  0.4315
  465MOL0     C61285   4.530   0.510   5.597  0.1396 -0.2592 -0.0791
  465MOL0     C61286   4.446   0.409   5.526  0.0515  0.1543  0.2376
  465MOL0     C61287   4.304   0.460   5.499 -0.3369  0.4030  0.0881
  465MOL0     C61288   4.218   0.357   5.430  0.6732  0.8872  0.2864
  465MOL0     C61289   4.086   0.427   5.394  0.9008 -0.6122 -0.5267
  465MOL0     C61290   3.989   0.340   5.313 -0.3394  0.8427  0.8161
  465MOL0     C61291   3.875   0.416   5.250  0.0748 -0.6701 -0.1319
  465MOL0    Cl61292   3.931   0.474   5.085  0.1086 -0.2411  0.1246
  465MOL0     C61293   4.962   0.463   5.665  0.9430 -0.4602 -0.2186
  465MOL0     C61294   5.084   0.445   5.726 -0.5833 -0.4778  0.2198
  465MOL0     O61295   5.358   0.398   5.776  0.9597 -0.4405  0.2597
  465MOL0     C61296   5.435   0.428   6.124 -0.9177 -0.7312 -0.2073
  465MOL0     C61297   5.538   0.390   6.215 -1.3234 -0.1186  1.1805
  465MOL0     N61298   5.938   0.813   6.780 -0.3710 -0.2669 -0.0788
  465MOL0     N61299   6.005   0.920   6.789  0.0890  0.4614 -0.4016
  465MOL0     C61300   7.062   1.351   6.610 -0.0689 -0.3268 -0.6965
  465MOL0     C61301   7.196   1.387   6.629 -0.0304 -0.0981  0.8799
  465MOL0     C61302   7.639   1.418   6.651  0.3160  0.5421  0.3429
  465MOL0     C61303   7.707   1.474   6.760  0.0368 -0.0260 -0.1227
  465MOL0     C61304   7.847   1.448   6.772  0.5340 -1.2048  0.4316
  465MOL0     C61305   7.915   1.377   6.669 -1.0610 -1.4804  0.1499
  465MOL0     O61306   8.047   1.340   6.673 -0.0851 -0.6372 -0.0679
  465MOL0     C61307   8.132   1.398   6.773 -0.3276  0.1926 -0.5240
  465MOL0     C61308   8.170   1.536   6.720 -0.0336 -0.5998  0.7747
  465MOL0     C61309   8.290   1.610   6.783 -0.0023  0.2638 -0.5495
  465MOL0     C61310   8.334   1.729   6.705 -1.0976 -1.4204 -0.6084
  465MOL0     C61311   8.381   1.715   6.563  0.2989 -1.6440  0.2454
  465MOL0     C61312   8.430   1.714   6.453 -0.6670  0.4825 -0.0131
  465MOL0     C61313   7.843   1.330   6.562  0.3296  0.1232  0.2369
  465MOL0     C61314   7.706   1.337   6.549 -0.0198  0.1393 -0.0937
  465MOL0     H61315   7.340   1.144   6.431 -0.4674 -1.7991 -0.9699
  465MOL0     H61316   7.115   1.083   6.395  2.1392  0.9517 -3.0009
  465MOL0     H61317   6.792   1.246   6.326  0.9600 -0.3735 -0.1942
  465MOL0     H61318   6.907   1.368   6.373 -0.9417 -0.5261 -1.5321
  465MOL0     H61319   6.641   1.410   6.422  0.6365  0.5863 -1.1042
  465MOL0     H61320   6.765   1.447   6.556  0.1353 -1.3574  2.1040
  465MOL0     H61321   6.698   1.226   6.647 -3.7215 -1.4832  2.2150
  465MOL0     H61322   6.639   1.190   6.486  2.1727  0.1478  0.3621
  465MOL0     H61323   6.507   1.381   6.700 -2.8657 -1.0227  1.9773
  465MOL0     H61324   6.446   1.390   6.545  2.1216  2.9703  1.9376
  465MOL0     H61325   6.400   1.177   6.720  1.7822  2.6751  0.9902
  465MOL0     H61326   6.453   1.121   6.559  1.6383  0.0298  0.1308
  465MOL0     H61327   6.274   1.257   6.453 -0.7018 -4.0952 -1.4682
  465MOL0     H61328   6.216   1.302   6.605 -0.6046 -0.6834 -0.2438
  465MOL0     H61329   6.081   1.118   6.558  1.0265  1.0889 -1.5971
  465MOL0     H61330   6.209   1.022   6.471  4.7256  1.5779  0.4367
  465MOL0     H61331   6.223   1.056   6.777 -1.7387  0.5208  0.4553
  465MOL0     H61332   6.310   0.944   6.671  0.7735  0.9704 -1.6111
  465MOL0     H61333   6.188   0.747   6.571  0.1377 -0.0770 -0.8820
  465MOL0     H61334   5.846   0.584   6.689 -0.0351 -3.5395  0.5790
  465MOL0     H61335   6.004   0.502   6.653  0.8105  1.0120  0.9544
  465MOL0     H61336   6.025   0.612   6.446 -0.4486  0.6133 -1.6482
  465MOL0     H61337   5.862   0.678   6.454  2.0859  0.6542 -0.5276
  465MOL0     H61338   5.920   0.384   6.456 -0.8864 -0.4348  1.5793
  465MOL0     H61339   5.765   0.454   6.501 -1.1390  1.9947 -2.1845
  465MOL0     H61340   5.893   0.527   6.218 -1.5692  2.9514  0.0336
  465MOL0     H61341   5.743   0.554   6.292  0.1283  0.9504 -2.5218
  465MOL0     H61342   5.773   0.320   5.992 -0.3830 -0.0702 -1.1832
  465MOL0     H61343   5.588   0.367   5.826  1.4514 -3.3409 -0.5692
  465MOL0     H61344   5.041   0.637   6.008  0.2996  1.4334 -0.7962
  465MOL0     H61345   4.830   0.663   5.911 -0.4265  2.5491 -2.1096
  465MOL0     H61346   4.704   0.379   5.650  1.6202  0.1993 -0.1043
  465MOL0     H61347   4.714   0.481   5.504 -0.8396 -2.3420  0.4067
  465MOL0     H61348   4.525   0.604   5.542 -2.0763  0.4368  1.1792
  465MOL0     H61349   4.482   0.536   5.693 -1.7089  4.5292 -1.9926
  465MOL0     H61350   4.434   0.329   5.599 -0.6837  0.1727  0.1430
  465MOL0     H61351   4.486   0.372   5.431  1.4866  2.1870 -0.0066
  465MOL0     H61352   4.262   0.500   5.592 -2.0001  0.5933 -0.6946
  465MOL0     H61353   4.293   0.546   5.432 -3.2839  1.2443  1.4745
  465MOL0     H61354   4.201   0.269   5.493  0.4192  0.2919 -0.6047
  465MOL0     H61355   4.266   0.323   5.338  2.6610  1.9295  0.8686
  465MOL0     H61356   4.108   0.516   5.335  1.1254  1.8887  3.0260
  465MOL0     H61357   4.035   0.451   5.488  1.3455 -2.4516  0.2340
  465MOL0     H61358   4.054   0.295   5.237  1.9889  1.4457  2.3467
  465MOL0     H61359   3.954   0.250   5.364  1.5933 -1.0212 -0.9304
  465MOL0     H61360   3.841   0.505   5.305  1.2874  0.1110 -0.6099
  465MOL0     H61361   3.786   0.354   5.237  0.4571 -1.8823  2.4003
  465MOL0     H61362   4.928   0.402   5.581  2.9625 -1.3987 -0.4138
  465MOL0     H61363   5.146   0.367   5.683 -0.1249 -0.6947  1.2439
  465MOL0     H61364   5.339   0.457   6.166 -0.8396 -1.0925  0.2200
  465MOL0     H61365   5.530   0.389   6.323  0.9522 -4.3756  1.5260
  465MOL0     H61366   6.987   1.400   6.672  1.0777  0.1726  0.3221
  465MOL0     H61367   7.231   1.458   6.704  0.1072  4.8423 -3.2723
  465MOL0     H61368   7.645   1.524   6.835 -1.1560 -0.3588 -0.8594
  465MOL0     H61369   7.900   1.499   6.852  0.0208  1.1063 -0.6046
  465MOL0     H61370   8.231   1.353   6.783 -0.1370  0.9700  1.8995
  465MOL0     H61371   8.083   1.411   6.870 -0.4702 -2.1538 -0.2257
  465MOL0     H61372   8.192   1.532   6.613  3.9256 -0.1422  1.4055
  465MOL0     H61373   8.088   1.608   6.720 -0.0555 -0.5406 -1.6745
  465MOL0     H61374   8.377   1.544   6.797  1.5798  2.7861  2.8073
  465MOL0     H61375   8.261   1.633   6.886  0.3723 -0.7062 -0.2066
  465MOL0     H61376   8.246   1.792   6.695 -1.2183 -1.0453  2.1488
  465MOL0     H61377   8.412   1.782   6.762 -1.0943 -2.2348  0.1747
  465MOL0     H61378   8.478   1.700   6.358 -2.3002 -1.3195 -0.6251
  465MOL0     H61379   7.893   1.272   6.486  1.3084 -0.5891  1.3805
  465MOL0     H61380   7.651   1.290   6.468 -2.1218  2.0496  0.1146
  466MOL0     O61381   4.350   1.394   4.431 -0.0714  0.4482  0.0403
  466MOL0     C61382   4.438   1.313   4.449  0.0862  0.6124  0.2429
  466MOL0     O61383   4.426   1.181   4.475 -0.1130  0.9258  0.2173
  466MOL0     C61384   4.308   1.119   4.518  0.2377  0.0483  0.6377
  466MOL0     C61385   4.242   1.037   4.426  0.3206 -0.7593  0.9666
  466MOL0     C61386   4.114   0.997   4.448  0.7661  0.1283  0.5049
  466MOL0     C61387   4.040   1.048   4.563  0.0591  0.4139 -0.2364
  466MOL0     O61388   3.913   1.009   4.580  0.1983  0.8734  0.4734
  466MOL0     C61389   3.824   1.115   4.556  1.1178  0.4756 -0.6604
  466MOL0     C61390   3.682   1.054   4.525 -0.7959 -0.2856  0.0277
  466MOL0     C61391   3.681   0.925   4.450  0.6274  0.9237  0.2467
  466MOL0     C61392   3.540   0.889   4.401 -0.3382 -0.2514 -0.1515
  466MOL0     C61393   3.525   0.763   4.329  0.2408  0.5574  0.2927
  466MOL0     C61394   3.393   0.697   4.351 -0.4233 -0.4689  0.4768
  466MOL0     C61395   3.267   0.786   4.333 -1.0184 -0.6030  0.0759
  466MOL0     C61396   3.141   0.701   4.322  0.1211  0.0129 -0.2072
  466MOL0     N61397   3.103   0.662   4.456  0.0284 -0.0371 -0.7445
  466MOL0     C61398   2.986   0.697   4.521  0.7983  0.4619 -0.2370
  466MOL0     C61399   2.978   0.618   4.624  0.3826  0.0442  0.0987
  466MOL0     C61400   2.863   0.610   4.726  0.0120 -0.6302 -0.2543
  466MOL0     C61401   2.742   0.547   4.655 -0.1524 -0.6511  0.2715
  466MOL0     C61402   2.623   0.532   4.745 -0.2005  0.3171 -0.3825
  466MOL0     C61403   2.510   0.471   4.664 -0.2721 -0.5527 -0.7264
  466MOL0     O61404   2.453   0.562   4.572  0.0352 -0.1045 -0.3687
  466MOL0     C61405   2.348   0.521   4.509  0.1813 -0.2570 -0.7945
  466MOL0     C61406   2.275   0.403   4.541 -0.0385  0.5425 -0.5904
  466MOL0     C61407   2.152   0.378   4.481  0.0580  0.3548  0.5872
  466MOL0     C61408   2.093   0.470   4.394 -0.3330  0.3145 -0.3621
  466MOL0     C61409   1.959   0.449   4.355  0.0717 -0.0527 -0.0876
  466MOL0     O61410   1.927   0.524   4.246  0.4233  0.2145  0.2727
  466MOL0     C61411   1.803   0.507   4.186 -0.7329  0.3323  0.5683
  466MOL0     C61412   1.710   0.605   4.191 -0.0069 -0.7604  0.5112
  466MOL0     C61413   1.584   0.576   4.147  0.4065  0.7272  0.0944
  466MOL0     C61414   1.552   0.450   4.092 -1.3402  0.5207 -0.4110
  466MOL0     O61415   1.425   0.432   4.046  0.2026  0.4468 -0.8313
  466MOL0     C61416   1.400   0.320   3.952  0.2544 -0.6817 -0.5231
  466MOL0     C61417   1.259   0.344   3.902 -0.6206  0.1799 -0.8579
  466MOL0     C61418   1.238   0.472   3.827  0.1519  0.3443 -0.9509
  466MOL0     C61419   1.088   0.498   3.797 -0.4577 -0.0640 -0.7567
  466MOL0     C61420   1.076   0.638   3.717 -0.3479 -0.8839  0.0323
  466MOL0     C61421   1.104   0.604   3.567  0.4686  0.8093  0.1144
  466MOL0     C61422   1.107   0.726   3.472 -0.4309  0.2074  0.4483
  466MOL0     C61423   1.085   0.687   3.324  0.2201 -0.5894 -0.6258
  466MOL0    Cl61424   1.235   0.619   3.253 -0.2470  0.2450 -0.0496
  466MOL0     C61425   1.652   0.350   4.078  0.5818 -0.1393 -0.6805
  466MOL0     C61426   1.773   0.376   4.139  0.0881  0.3267 -0.7919
  466MOL0     O61427   1.883   0.372   4.419  0.3828 -0.2076  0.6587
  466MOL0     C61428   2.169   0.589   4.368 -0.1585  0.3301 -1.2328
  466MOL0     C61429   2.297   0.605   4.421 -0.8637  0.0550 -0.2423
  466MOL0     N61430   3.079   0.523   4.619 -0.5228 -0.0079 -0.5973
  466MOL0     N61431   3.150   0.554   4.520 -0.2134  0.3776 -0.7507
  466MOL0     C61432   4.113   1.110   4.661  1.1761 -0.5829  0.3382
  466MOL0     C61433   4.243   1.152   4.637 -0.2790 -0.0367  1.0888
  466MOL0     C61434   4.573   1.365   4.426  0.1140  0.7556 -0.0966
  466MOL0     C61435   4.584   1.491   4.373  0.0385  0.8436 -0.1208
  466MOL0     C61436   4.717   1.537   4.340 -1.0966  0.6541 -0.6149
  466MOL0     C61437   4.829   1.450   4.346  0.1426 -0.4946  0.0372
  466MOL0     O61438   4.955   1.498   4.313 -0.5169 -0.1819  0.3792
  466MOL0     C61439   4.968   1.641   4.326  0.2071  0.2290 -0.9046
  466MOL0     C61440   5.117   1.685   4.332  0.9730  0.0161  0.5620
  466MOL0     C61441   5.193   1.608   4.215 -0.1157 -0.3497  0.2386
  466MOL0     C61442   5.340   1.675   4.202  0.1831  0.2982  0.2787
  466MOL0     C61443   5.339   1.818   4.155  0.4019  0.4102 -0.9470
  466MOL0     C61444   5.327   1.940   4.144 -0.3297  0.2982 -0.9036
  466MOL0     C61445   4.809   1.322   4.390 -0.7414 -0.5307 -1.1550
  466MOL0     C61446   4.685   1.279   4.426  0.9491  0.5609 -0.7567
  466MOL0     H61447   4.276   1.014   4.326 -0.8263  0.9123  0.1465
  466MOL0     H61448   4.072   0.937   4.368  4.2790 -0.3167 -1.2053
  466MOL0     H61449   3.849   1.180   4.471  1.2365  1.2074 -0.0690
  466MOL0     H61450   3.821   1.183   4.641 -1.8348  0.3147 -0.5206
  466MOL0     H61451   3.635   1.129   4.461 -0.7554  0.3886  0.7668
  466MOL0     H61452   3.616   1.048   4.613 -2.6686  1.5253 -1.1641
  466MOL0     H61453   3.725   0.854   4.520  1.3674  2.4382  1.3532
  466MOL0     H61454   3.739   0.935   4.358 -2.7958 -0.0644 -2.2488
  466MOL0     H61455   3.484   0.868   4.493 -3.3894  2.3081 -1.1991
  466MOL0     H61456   3.489   0.977   4.359 -3.9560  0.0391  4.0466
  466MOL0     H61457   3.591   0.686   4.371  2.2311  1.5344 -0.8715
  466MOL0     H61458   3.540   0.786   4.224 -0.0865  0.5386  0.2415
  466MOL0     H61459   3.397   0.671   4.457 -2.5591  2.6971  1.4900
  466MOL0     H61460   3.382   0.608   4.288 -1.6455  0.1729 -0.2504
  466MOL0     H61461   3.257   0.849   4.422 -1.1676 -1.0200  0.3612
  466MOL0     H61462   3.287   0.863   4.258 -2.1338 -0.0564  0.3294
  466MOL0     H61463   3.160   0.615   4.257  0.4374  1.0036 -1.4571
  466MOL0     H61464   3.069   0.769   4.276  1.8521  0.5913 -2.1982
  466MOL0     H61465   2.919   0.781   4.507  1.0582  1.0334  1.6537
  466MOL0     H61466   2.826   0.707   4.760  0.8349  0.4986 -2.4458
  466MOL0     H61467   2.889   0.538   4.804  3.0361  1.1293  0.5177
  466MOL0     H61468   2.769   0.444   4.632  2.3025 -0.6507  2.5519
  466MOL0     H61469   2.716   0.597   4.562 -0.5645 -0.1543  0.6471
  466MOL0     H61470   2.651   0.470   4.831 -2.2736 -1.3943 -0.8589
  466MOL0     H61471   2.593   0.626   4.791 -1.2979 -0.0336 -0.3455
  466MOL0     H61472   2.441   0.430   4.738  0.4306  0.8154  0.7462
  466MOL0     H61473   2.539   0.375   4.618  1.6841 -1.1782  1.6225
  466MOL0     H61474   2.302   0.320   4.605 -3.6399 -1.0462 -0.9017
  466MOL0     H61475   2.107   0.282   4.501  0.4448  0.0118 -0.1771
  466MOL0     H61476   1.738   0.704   4.226  1.2104 -0.5276 -1.0370
  466MOL0     H61477   1.503   0.648   4.145  0.1065  0.3858 -1.4134
  466MOL0     H61478   1.405   0.220   3.997 -0.2024  0.6654  2.7717
  466MOL0     H61479   1.466   0.318   3.865  0.7675 -2.4138 -0.1342
  466MOL0     H61480   1.201   0.350   3.995  0.9527 -1.1853  0.2623
  466MOL0     H61481   1.229   0.256   3.844 -2.0053  1.8118 -2.7397
  466MOL0     H61482   1.302   0.475   3.738  1.2818  1.5332 -0.1334
  466MOL0     H61483   1.266   0.556   3.892  0.0550 -0.6793  0.4558
  466MOL0     H61484   1.047   0.413   3.742 -0.5554 -1.2008  0.9959
  466MOL0     H61485   1.027   0.509   3.887  0.4086  0.9617 -0.2858
  466MOL0     H61486   1.144   0.706   3.768 -3.7262  1.9339  1.2144
  466MOL0     H61487   0.972   0.669   3.728 -1.2125 -2.5707 -2.4172
  466MOL0     H61488   1.014   0.549   3.538  0.1317  1.0340  0.7250
  466MOL0     H61489   1.192   0.541   3.553  1.1001  1.6955 -0.0334
  466MOL0     H61490   1.021   0.789   3.493 -1.3719 -1.3294  1.3954
  466MOL0     H61491   1.202   0.781   3.481  0.5036 -1.3109  0.2699
  466MOL0     H61492   1.053   0.778   3.273  2.0339  1.8256  2.2233
  466MOL0     H61493   1.009   0.608   3.325 -1.0108  0.5355 -1.3621
  466MOL0     H61494   1.629   0.248   4.050 -3.2122  0.0110  1.1096
  466MOL0     H61495   1.852   0.302   4.141 -0.0908  0.1262 -1.1157
  466MOL0     H61496   2.119   0.662   4.306 -2.6964  2.0330  2.4684
  466MOL0     H61497   2.337   0.703   4.397 -1.9659  0.7341  0.5851
  466MOL0     H61498   4.048   1.126   4.747  2.3931  2.4933  0.7948
  466MOL0     H61499   4.293   1.220   4.705 -1.0155 -0.0113  1.6151
  466MOL0     H61500   4.501   1.561   4.383 -2.0419 -1.0381 -2.6668
  466MOL0     H61501   4.726   1.642   4.313 -1.9711  0.9545  0.1992
  466MOL0     H61502   4.914   1.675   4.415  1.2197 -0.4491 -0.0109
  466MOL0     H61503   4.916   1.685   4.240 -2.7231 -0.6384  0.2858
  466MOL0     H61504   5.126   1.793   4.319  2.8086 -0.3372 -1.6462
  466MOL0     H61505   5.163   1.655   4.427  1.6745  1.1513  0.6022
  466MOL0     H61506   5.141   1.632   4.122  0.7094  4.2949  0.7764
  466MOL0     H61507   5.216   1.501   4.227  1.1473 -0.5012 -2.7239
  466MOL0     H61508   5.407   1.672   4.288  0.4628  5.3502  0.5062
  466MOL0     H61509   5.389   1.624   4.118  0.1322  1.1110 -0.2550
  466MOL0     H61510   5.306   2.043   4.125  0.3919  0.7800  0.7049
  466MOL0     H61511   4.890   1.251   4.400  1.3490  1.7248 -1.2068
  466MOL0     H61512   4.678   1.182   4.472  0.6728  1.9863  2.4778
  467MOL0     O61513   0.452   3.279   2.291 -0.3257 -0.1347  0.4689
  467MOL0     C61514   0.395   3.238   2.392 -0.0590 -0.4090  0.3015
  467MOL0     O61515   0.440   3.243   2.524  0.0617  0.6458  0.5093
  467MOL0     C61516   0.574   3.275   2.554 -0.1321 -0.0887 -0.1065
  467MOL0     C61517   0.633   3.210   2.666 -0.3061 -0.1307  0.2946
  467MOL0     C61518   0.774   3.213   2.701  0.3221  0.3086  0.0310
  467MOL0     C61519   0.853   3.285   2.610  0.6950 -0.1324  0.2069
  467MOL0     O61520   0.985   3.320   2.634  0.4066  0.7871 -0.1147
  467MOL0     C61521   1.076   3.213   2.646  0.3597 -0.6825 -0.0822
  467MOL0     C61522   1.111   3.163   2.511 -0.6835  0.2687  0.0155
  467MOL0     C61523   1.167   3.270   2.427  0.1447 -0.3009  0.6248
  467MOL0     C61524   1.164   3.230   2.281  0.3272 -0.4442  0.9210
  467MOL0     C61525   1.243   3.105   2.251  0.1275  0.5596 -0.2227
  467MOL0     C61526   1.221   3.080   2.101 -0.4453 -0.1941  1.1286
  467MOL0     C61527   1.272   2.930   2.072  0.2336 -0.0711 -0.9990
  467MOL0     C61528   1.222   2.877   1.947 -0.8232  0.6737  0.2297
  467MOL0     N61529   1.339   2.879   1.844  0.9545 -0.4677 -0.0702
  467MOL0     C61530   1.364   2.997   1.769  0.7602  0.1765  0.0181
  467MOL0     C61531   1.455   2.966   1.675  0.0916  1.3969  0.8615
  467MOL0     C61532   1.485   3.045   1.557 -0.0726 -0.7017  0.3788
  467MOL0     C61533   1.388   3.016   1.443  0.1206 -0.6815 -0.5997
  467MOL0     C61534   1.383   3.119   1.329 -0.1797 -0.5151 -0.1096
  467MOL0     C61535   1.509   3.107   1.234 -0.5088 -0.2652 -0.1371
  467MOL0     O61536   1.616   3.155   1.315 -0.4317  0.0233  0.1454
  467MOL0     C61537   1.736   3.160   1.248  1.4352  0.6227 -0.1343
  467MOL0     C61538   1.752   3.242   1.140  0.1118 -0.0624 -0.0108
  467MOL0     C61539   1.868   3.247   1.065 -0.0579 -0.1940 -0.3531
  467MOL0     C61540   1.971   3.154   1.092  0.0820 -1.1235 -0.3349
  467MOL0     C61541   2.094   3.145   1.020  0.2342 -0.3348  0.4792
  467MOL0     O61542   2.099   3.205   0.899 -0.6307  0.1552 -0.3472
  467MOL0     C61543   2.208   3.196   0.810 -0.4066 -0.4407 -0.6890
  467MOL0     C61544   2.191   3.247   0.688  0.2271  0.9315  0.5437
  467MOL0     C61545   2.293   3.249   0.596 -0.2487  0.0353 -0.2932
  467MOL0     C61546   2.419   3.213   0.626 -0.9310  0.2027  0.1972
  467MOL0     O61547   2.508   3.224   0.522 -0.0160 -0.0407  0.1301
  467MOL0     C61548   2.636   3.152   0.538 -0.2549 -0.1901 -0.3220
  467MOL0     C61549   2.755   3.248   0.556  0.6233  0.5759 -0.4640
  467MOL0     C61550   2.885   3.162   0.569 -0.5470  0.0278  0.5670
  467MOL0     C61551   2.997   3.243   0.621 -0.0006 -0.7095  0.0836
  467MOL0     C61552   3.053   3.334   0.513  0.3266  0.4627  0.3142
  467MOL0     C61553   3.157   3.424   0.567 -0.0004  0.5482 -0.0146
  467MOL0     C61554   3.287   3.431   0.481 -0.3984 -0.5887 -0.1385
  467MOL0     C61555   3.370   3.306   0.485 -0.1309 -0.3158 -0.7204
  467MOL0    Cl61556   3.438   3.263   0.657 -0.2362  0.0014  0.2194
  467MOL0     C61557   2.452   3.181   0.762 -0.1109 -0.2146 -0.5100
  467MOL0     C61558   2.340   3.177   0.850 -0.7446  0.3356 -0.7050
  467MOL0     O61559   2.169   3.059   1.066 -0.2978  0.1043  0.4570
  467MOL0     C61560   1.955   3.073   1.210  0.2327  0.5521  0.6330
  467MOL0     C61561   1.842   3.076   1.289  0.5896 -0.0106  0.8852
  467MOL0     N61562   1.479   2.831   1.686 -0.3968 -0.1202 -0.1865
  467MOL0     N61563   1.412   2.778   1.789 -0.5109 -0.4571 -1.1333
  467MOL0     C61564   0.790   3.358   2.506  0.3438 -0.3563  0.0915
  467MOL0     C61565   0.661   3.350   2.468 -0.9293  0.1946 -0.2783
  467MOL0     C61566   0.253   3.222   2.384  0.6959  0.2277 -0.3852
  467MOL0     C61567   0.168   3.236   2.495 -0.2569  0.5609  0.7717
  467MOL0     C61568   0.040   3.194   2.507 -0.3985 -0.6521  0.5247
  467MOL0     C61569  -0.024   3.145   2.391 -0.0604  0.7960 -0.2098
  467MOL0     O61570  -0.154   3.109   2.401 -1.1784  0.0168  0.2121
  467MOL0     C61571  -0.240   3.122   2.287 -0.2904 -0.2157 -0.3857
  467MOL0     C61572  -0.245   2.986   2.209 -1.3538  0.0078 -0.6591
  467MOL0     C61573  -0.294   2.873   2.289  0.5223  0.3879  0.0659
  467MOL0     C61574  -0.398   2.790   2.221  0.2127 -0.2923  0.5475
  467MOL0     C61575  -0.333   2.738   2.101  0.5012 -0.8571  0.6596
  467MOL0     C61576  -0.277   2.688   2.012  0.0663 -0.5180  1.0654
  467MOL0     C61577   0.057   3.128   2.278  0.3663 -0.0258 -0.4253
  467MOL0     C61578   0.193   3.164   2.276 -0.2951  0.0899  0.0713
  467MOL0     H61579   0.570   3.147   2.727  0.9836 -1.0025  0.7775
  467MOL0     H61580   0.815   3.153   2.781  0.3696 -0.7482 -0.7521
  467MOL0     H61581   1.045   3.132   2.712  2.4581 -0.1676  1.6579
  467MOL0     H61582   1.173   3.239   2.691  1.2352  2.2358 -3.1832
  467MOL0     H61583   1.020   3.138   2.457  0.1888 -1.6253 -0.6464
  467MOL0     H61584   1.183   3.081   2.518  1.6650  2.1542 -0.6325
  467MOL0     H61585   1.275   3.279   2.440  0.4245 -0.8970 -1.0771
  467MOL0     H61586   1.104   3.360   2.432  0.0041 -0.1968 -1.8287
  467MOL0     H61587   1.060   3.226   2.247  0.4617  1.7186  0.0578
  467MOL0     H61588   1.211   3.310   2.223  1.8962 -2.5641 -0.8902
  467MOL0     H61589   1.206   3.024   2.315  0.8191 -0.3173 -0.8972
  467MOL0     H61590   1.350   3.102   2.277  0.2436  2.3996 -0.3507
  467MOL0     H61591   1.266   3.161   2.041  0.5362 -1.1834  0.4876
  467MOL0     H61592   1.119   3.088   2.064 -0.2101 -0.3380  0.4280
  467MOL0     H61593   1.380   2.944   2.061  0.7620 -1.4483  1.6106
  467MOL0     H61594   1.247   2.863   2.155  0.8708 -0.4625 -1.1119
  467MOL0     H61595   1.138   2.933   1.905  1.0055  3.5327  0.0881
  467MOL0     H61596   1.185   2.776   1.968  0.0755  0.1060 -0.7757
  467MOL0     H61597   1.328   3.099   1.777  1.0416  0.4762 -2.0128
  467MOL0     H61598   1.584   3.024   1.515 -0.1190 -0.1263 -0.0360
  467MOL0     H61599   1.477   3.151   1.582 -1.9666 -0.0478 -2.4561
  467MOL0     H61600   1.286   3.001   1.482  1.5097  0.8351  4.3541
  467MOL0     H61601   1.407   2.914   1.407 -0.3334 -1.8787  2.2122
  467MOL0     H61602   1.296   3.106   1.264  0.0064 -2.7034 -0.0141
  467MOL0     H61603   1.387   3.220   1.370  0.2372  0.2451 -1.9301
  467MOL0     H61604   1.501   3.173   1.147 -1.9766 -0.2344 -0.0084
  467MOL0     H61605   1.518   3.008   1.190 -2.8553  0.2884 -2.1129
  467MOL0     H61606   1.668   3.306   1.113  0.7491  0.6082 -0.4563
  467MOL0     H61607   1.886   3.320   0.987  0.3730  0.6008  0.4689
  467MOL0     H61608   2.097   3.294   0.660 -0.0665 -0.0001 -0.0993
  467MOL0     H61609   2.266   3.272   0.493  2.3924 -0.5399 -1.1988
  467MOL0     H61610   2.667   3.093   0.452  2.9743 -0.1925  0.7261
  467MOL0     H61611   2.629   3.083   0.623 -0.1454 -0.4201 -0.4992
  467MOL0     H61612   2.726   3.294   0.651 -0.7826 -0.7001 -0.2266
  467MOL0     H61613   2.749   3.324   0.478 -0.6265  2.8030  1.6454
  467MOL0     H61614   2.918   3.123   0.473  1.0587  3.4725 -0.4585
  467MOL0     H61615   2.864   3.085   0.644  0.3926 -0.3281  0.4770
  467MOL0     H61616   2.966   3.294   0.712  1.3143  2.2339 -0.9933
  467MOL0     H61617   3.080   3.179   0.652  2.0945  0.9385 -1.7954
  467MOL0     H61618   2.972   3.401   0.481 -0.6028 -0.3046  0.9966
  467MOL0     H61619   3.083   3.269   0.430 -3.2712 -0.5201 -0.3858
  467MOL0     H61620   3.191   3.393   0.667  0.6529  1.1755 -0.0396
  467MOL0     H61621   3.116   3.525   0.568  0.1204  0.6083 -0.7010
  467MOL0     H61622   3.271   3.469   0.379 -0.3587  3.2300  1.1025
  467MOL0     H61623   3.351   3.508   0.525  1.8853 -3.1631  1.3246
  467MOL0     H61624   3.462   3.320   0.427  0.9496  1.9260  1.3425
  467MOL0     H61625   3.324   3.214   0.448  2.4324 -2.5249  1.1236
  467MOL0     H61626   2.550   3.148   0.795  0.6120  0.1233 -2.1836
  467MOL0     H61627   2.355   3.171   0.958 -0.4363  0.8603 -0.7132
  467MOL0     H61628   2.034   3.008   1.245 -1.6246 -2.4490 -0.3480
  467MOL0     H61629   1.821   3.012   1.374 -2.1305 -1.1407 -0.5123
  467MOL0     H61630   0.862   3.412   2.445  0.9024 -1.3119 -0.1141
  467MOL0     H61631   0.636   3.396   2.373  1.1356 -0.4597 -1.1844
  467MOL0     H61632   0.202   3.267   2.593 -0.4854  3.2793  0.0713
  467MOL0     H61633  -0.016   3.203   2.600 -0.2154 -0.0068  0.5756
  467MOL0     H61634  -0.205   3.184   2.203 -2.6170  0.5089 -0.8944
  467MOL0     H61635  -0.342   3.147   2.318 -0.3206 -0.7703 -0.0385
  467MOL0     H61636  -0.305   3.003   2.119 -2.5488  0.7820  0.2476
  467MOL0     H61637  -0.143   2.957   2.182 -1.0989 -1.1158  1.3237
  467MOL0     H61638  -0.326   2.909   2.387  0.3790 -0.1166  0.2085
  467MOL0     H61639  -0.209   2.811   2.318  0.8403  1.0118  0.4773
  467MOL0     H61640  -0.447   2.714   2.283  0.4258  0.8663  2.1962
  467MOL0     H61641  -0.474   2.860   2.186  2.6315  3.4874  2.1308
  467MOL0     H61642  -0.224   2.644   1.930 -4.1711 -0.2103 -2.2106
  467MOL0     H61643   0.022   3.094   2.181  2.3733  1.6440 -1.8053
  467MOL0     H61644   0.263   3.144   2.196  0.9610 -2.7326  1.7081
  468MOL0     O61645   1.638   6.175   7.852  0.1097  0.6787  0.3261
  468MOL0     C61646   1.662   6.215   7.742  0.9221 -0.2801 -0.1253
  468MOL0     O61647   1.561   6.264   7.663 -0.7336  0.4069  0.5192
  468MOL0     C61648   1.436   6.275   7.710 -0.4504  0.2308 -0.0101
  468MOL0     C61649   1.327   6.189   7.660 -0.8003 -0.8250  0.4142
  468MOL0     C61650   1.197   6.216   7.697 -0.3341 -0.2240 -0.2975
  468MOL0     C61651   1.165   6.324   7.785  0.0008  0.4312  0.7975
  468MOL0     O61652   1.030   6.335   7.820 -0.0975 -0.2556  0.4233
  468MOL0     C61653   0.990   6.443   7.903  0.0985  0.9958 -0.4830
  468MOL0     C61654   0.845   6.438   7.943  0.7399 -0.8392 -0.5730
  468MOL0     C61655   0.754   6.520   7.848  0.1009 -0.2112  0.0465
  468MOL0     C61656   0.606   6.508   7.874 -0.4747 -0.3233  0.6630
  468MOL0     C61657   0.527   6.603   7.781 -0.0454  0.0610  0.0146
  468MOL0     C61658   0.381   6.571   7.788 -0.6154  0.0504 -0.6466
  468MOL0     C61659   0.293   6.675   7.705 -0.0871 -0.3233  0.0034
  468MOL0     C61660   0.283   6.650   7.553  0.2961  0.3874 -0.1470
  468MOL0     N61661   0.180   6.736   7.494  0.9027  0.4188 -0.5688
  468MOL0     C61662   0.202   6.842   7.415 -0.5750  0.6247 -0.1434
  468MOL0     C61663   0.091   6.892   7.376 -0.1066 -0.2769  0.6013
  468MOL0     C61664   0.059   7.024   7.315 -0.3403  0.6892  0.5093
  468MOL0     C61665   0.141   7.033   7.179  0.8054 -1.2625 -0.2302
  468MOL0     C61666   0.116   7.173   7.110 -0.1713  0.4391 -0.6427
  468MOL0     C61667   0.245   7.199   7.025 -0.0446  0.2788  0.4035
  468MOL0     O61668   0.248   7.090   6.930 -0.7692  0.3601  0.3191
  468MOL0     C61669   0.365   7.042   6.882 -0.2227  0.4870 -0.7590
  468MOL0     C61670   0.372   6.911   6.835 -0.2060 -0.4356  0.3764
  468MOL0     C61671   0.503   6.853   6.825 -0.9139 -0.1710 -0.4323
  468MOL0     C61672   0.621   6.917   6.850  0.0359  0.0418  0.6910
  468MOL0     C61673   0.755   6.859   6.807  0.5837  0.2903  0.3725
  468MOL0     O61674   0.752   6.732   6.759 -0.4714  0.0769  0.5526
  468MOL0     C61675   0.876   6.674   6.743 -0.2886  0.2987 -0.2087
  468MOL0     C61676   0.960   6.649   6.856  0.2015  0.8762 -0.0039
  468MOL0     C61677   1.082   6.579   6.837 -1.0018  0.3681 -0.1538
  468MOL0     C61678   1.120   6.525   6.716 -0.3230  0.4390 -0.6762
  468MOL0     O61679   1.238   6.458   6.717 -0.4509  0.1895  0.0024
  468MOL0     C61680   1.283   6.411   6.589 -0.2460 -0.2934 -1.4248
  468MOL0     C61681   1.425   6.355   6.589 -0.0112  0.8278 -0.1870
  468MOL0     C61682   1.431   6.220   6.656  0.4395 -0.2697  0.4226
  468MOL0     C61683   1.362   6.108   6.571 -0.4296  0.2247 -0.1925
  468MOL0     C61684   1.375   5.969   6.630 -0.7370  0.2045 -0.1537
  468MOL0     C61685   1.325   5.948   6.774  0.0871 -0.1809  1.0408
  468MOL0     C61686   1.310   5.807   6.823  0.7482  0.4577 -0.3123
  468MOL0     C61687   1.281   5.818   6.970  0.7114 -0.7755 -0.1580
  468MOL0    Cl61688   1.151   5.914   7.024  0.1896  0.6255  0.5928
  468MOL0     C61689   1.032   6.545   6.610 -0.6634 -0.7235 -0.0810
  468MOL0     C61690   0.906   6.610   6.619  0.0700 -0.4142  0.6247
  468MOL0     O61691   0.852   6.925   6.844  0.6134  0.6773  0.9431
  468MOL0     C61692   0.612   7.059   6.881  0.0160 -0.6407 -0.4517
  468MOL0     C61693   0.478   7.112   6.898 -0.0660  0.2078  0.1967
  468MOL0     N61694  -0.006   6.807   7.430  1.2972  1.1708 -0.8199
  468MOL0     N61695   0.050   6.711   7.507 -0.2967 -0.0999  0.9846
  468MOL0     C61696   1.271   6.416   7.813 -0.6157  0.4950  0.3330
  468MOL0     C61697   1.402   6.382   7.790 -1.0755 -1.2485  0.4231
  468MOL0     C61698   1.804   6.191   7.703  0.0113  0.2847 -0.0442
  468MOL0     C61699   1.857   6.233   7.579  0.5698 -0.1231 -0.0799
  468MOL0     C61700   1.990   6.217   7.543 -0.5455 -0.0723  0.4511
  468MOL0     C61701   2.076   6.132   7.617 -0.7170 -0.3481  0.2063
  468MOL0     O61702   2.195   6.090   7.581 -0.6939  0.2074 -0.6395
  468MOL0     C61703   2.276   6.194   7.520 -0.4030 -0.1126 -1.1182
  468MOL0     C61704   2.410   6.147   7.481 -0.0903  0.8153 -0.2816
  468MOL0     C61705   2.502   6.156   7.599 -0.5037 -1.0028  0.5008
  468MOL0     C61706   2.633   6.079   7.577  1.0719 -0.4476  0.0705
  468MOL0     C61707   2.702   6.065   7.701 -0.5440 -0.5206 -0.2193
  468MOL0     C61708   2.776   6.056   7.801 -0.5282 -0.2907 -0.2244
  468MOL0     C61709   2.022   6.080   7.732 -0.3888  0.8278 -0.2037
  468MOL0     C61710   1.891   6.104   7.773  0.6064 -1.4165  0.1864
  468MOL0     H61711   1.336   6.097   7.604 -2.7768  1.2515 -3.7793
  468MOL0     H61712   1.123   6.143   7.666 -0.2824 -0.9842  1.2320
  468MOL0     H61713   1.016   6.536   7.852  1.6480  1.9416  1.8694
  468MOL0     H61714   1.037   6.441   8.001  0.8139  2.5123 -0.7701
  468MOL0     H61715   0.832   6.473   8.045  2.6594  2.7917 -1.3827
  468MOL0     H61716   0.807   6.336   7.941 -1.1919 -0.1479 -2.1306
  468MOL0     H61717   0.776   6.501   7.742  2.8764 -0.0194  0.4975
  468MOL0     H61718   0.784   6.623   7.868  1.3986 -0.6780  0.6847
  468MOL0     H61719   0.578   6.403   7.864 -2.8172  0.3450 -0.5211
  468MOL0     H61720   0.597   6.532   7.980  1.4682 -0.8213  0.9799
  468MOL0     H61721   0.552   6.601   7.674  4.2021  3.5119  0.6529
  468MOL0     H61722   0.545   6.705   7.817  0.1412  0.5555 -1.4068
  468MOL0     H61723   0.363   6.578   7.895  0.7871 -0.0314 -0.3864
  468MOL0     H61724   0.371   6.464   7.767 -0.3511  0.1684 -1.4313
  468MOL0     H61725   0.196   6.648   7.749 -0.0684  1.6186  1.3809
  468MOL0     H61726   0.315   6.779   7.731  1.3380  0.0339 -2.4106
  468MOL0     H61727   0.256   6.546   7.533  1.6443 -0.0897  0.4385
  468MOL0     H61728   0.382   6.669   7.511  0.6707 -1.2030 -0.0111
  468MOL0     H61729   0.302   6.881   7.397  0.5809 -1.9359  0.2931
  468MOL0     H61730   0.110   7.096   7.380  1.2342  0.7304 -0.6897
  468MOL0     H61731  -0.045   7.050   7.296 -0.7204 -0.9149  0.2927
  468MOL0     H61732   0.099   6.956   7.114 -0.6778  0.1927 -1.0648
  468MOL0     H61733   0.248   7.012   7.186  1.3962  1.8902  2.6338
  468MOL0     H61734   0.018   7.177   7.062 -0.8494  2.3817  0.7677
  468MOL0     H61735   0.116   7.244   7.193 -1.7552 -0.9727  0.6281
  468MOL0     H61736   0.338   7.200   7.082  0.0140  0.7324  0.2995
  468MOL0     H61737   0.236   7.293   6.969  1.3397  2.3635  3.3828
  468MOL0     H61738   0.281   6.860   6.806 -0.6544  1.8362 -2.6364
  468MOL0     H61739   0.499   6.755   6.779 -2.3794  0.7025 -2.2667
  468MOL0     H61740   0.937   6.692   6.953 -1.8696 -1.4310  0.6075
  468MOL0     H61741   1.149   6.559   6.920  0.5571 -1.3142 -1.7161
  468MOL0     H61742   1.287   6.488   6.512 -2.6854  0.0953 -1.2445
  468MOL0     H61743   1.228   6.329   6.542  0.7092 -0.6782 -1.8955
  468MOL0     H61744   1.481   6.428   6.649  2.7079 -1.7430  0.6475
  468MOL0     H61745   1.465   6.354   6.487  1.3048  0.0686  0.3067
  468MOL0     H61746   1.392   6.224   6.758  2.4003 -0.5831  1.2273
  468MOL0     H61747   1.539   6.204   6.663  0.8496  1.5065 -1.1900
  468MOL0     H61748   1.257   6.131   6.555 -0.9601 -1.7965  0.1238
  468MOL0     H61749   1.409   6.102   6.472 -2.8213  0.7996 -1.4399
  468MOL0     H61750   1.479   5.937   6.633 -1.3109 -1.8667 -0.3225
  468MOL0     H61751   1.314   5.903   6.567 -0.1117 -1.5007  0.9343
  468MOL0     H61752   1.226   5.995   6.778  0.9720  2.0920 -1.2067
  468MOL0     H61753   1.395   5.995   6.844 -1.1885  0.2470  2.0637
  468MOL0     H61754   1.237   5.755   6.761  2.2260 -2.3040  0.0660
  468MOL0     H61755   1.404   5.753   6.808  1.1245  1.3838 -1.3795
  468MOL0     H61756   1.373   5.847   7.021  0.2139  0.5022  0.0531
  468MOL0     H61757   1.270   5.715   7.006 -1.2638 -0.5746 -0.0575
  468MOL0     H61758   1.056   6.511   6.509  0.0830  2.7299 -1.2068
  468MOL0     H61759   0.833   6.606   6.538  3.4522  0.1463 -2.7027
  468MOL0     H61760   0.699   7.121   6.899 -0.9014 -0.0091  2.5085
  468MOL0     H61761   0.476   7.219   6.916  0.8436 -0.2904  4.0362
  468MOL0     H61762   1.254   6.509   7.866 -1.0788  0.1137  0.8713
  468MOL0     H61763   1.478   6.450   7.828 -1.2978 -0.3101 -0.7320
  468MOL0     H61764   1.797   6.288   7.506  0.9489  3.4672  2.0462
  468MOL0     H61765   2.004   6.254   7.441  0.0984  1.1429  0.9520
  468MOL0     H61766   2.284   6.272   7.596  1.3983 -1.7646  0.4822
  468MOL0     H61767   2.226   6.230   7.429  0.8401  1.8871 -1.0864
  468MOL0     H61768   2.405   6.052   7.428 -2.1856  0.0267  1.1817
  468MOL0     H61769   2.436   6.222   7.406 -0.3422  1.2846  0.0913
  468MOL0     H61770   2.442   6.140   7.689  0.3120  3.2771  2.0247
  468MOL0     H61771   2.526   6.262   7.613 -0.4599 -1.3849  4.5446
  468MOL0     H61772   2.608   5.979   7.541 -2.4542  0.3444 -0.0346
  468MOL0     H61773   2.700   6.120   7.501  1.3569 -4.1664 -1.9269
  468MOL0     H61774   2.859   6.041   7.867  2.3839 -1.5270 -3.8394
  468MOL0     H61775   2.082   6.013   7.794  0.0949 -0.2157 -1.7467
  468MOL0     H61776   1.842   6.056   7.858 -0.6558  0.5738  0.6411
  469MOL0     O61777   3.503   2.540   8.446 -0.1535 -0.0663 -0.1184
  469MOL0     C61778   3.515   2.502   8.330 -0.9064 -0.0674  0.1613
  469MOL0     O61779   3.635   2.482   8.264  0.9912  0.4643 -0.2871
  469MOL0     C61780   3.760   2.489   8.322  0.5382  0.5795  0.0092
  469MOL0     C61781   3.860   2.461   8.238  0.3801 -0.1567 -0.2070
  469MOL0     C61782   3.995   2.473   8.275  0.3198 -0.8561  0.5990
  469MOL0     C61783   4.036   2.520   8.402  0.6899 -0.0571  0.2293
  469MOL0     O61784   4.168   2.546   8.428 -0.2253  0.1346 -0.2987
  469MOL0     C61785   4.191   2.584   8.570 -0.5657 -0.0735  0.6345
  469MOL0     C61786   4.348   2.591   8.578 -0.0242  0.0955 -0.4643
  469MOL0     C61787   4.401   2.620   8.724  0.3001  0.1874  0.4691
  469MOL0     C61788   4.559   2.584   8.721 -0.5056 -0.2385 -0.4586
  469MOL0     C61789   4.650   2.680   8.822 -0.2212  0.2846  0.4808
  469MOL0     C61790   4.794   2.655   8.806  0.3682 -0.1328 -0.8066
  469MOL0     C61791   4.878   2.712   8.925 -0.3629  0.0504  0.3422
  469MOL0     C61792   4.886   2.862   8.939  0.0219  0.3210 -0.1010
  469MOL0     N61793   4.962   2.904   9.061  0.2835 -0.3558  0.1644
  469MOL0     C61794   5.024   2.822   9.159  0.8922 -0.0633  0.6219
  469MOL0     C61795   5.081   2.913   9.235 -0.2903  0.8679 -0.2181
  469MOL0     C61796   5.166   2.902   9.360  0.7656  0.4089 -0.4768
  469MOL0     C61797   5.282   2.795   9.357 -0.0009  0.0038 -0.2315
  469MOL0     C61798   5.378   2.794   9.471 -0.2742 -0.4701 -1.1072
  469MOL0     C61799   5.476   2.921   9.487  0.1421  0.2930 -0.0495
  469MOL0     O61800   5.548   2.913   9.602  0.4558 -0.7798 -0.5648
  469MOL0     C61801   5.658   2.987   9.626 -0.5949  0.2230  0.7563
  469MOL0     C61802   5.722   2.973   9.748 -0.9065 -0.3162  0.0554
  469MOL0     C61803   5.838   3.050   9.783  0.1687  0.6092  0.5091
  469MOL0     C61804   5.890   3.149   9.691 -0.1391 -0.2781 -0.1102
  469MOL0     C61805   6.011   3.223   9.727  0.0272  0.2443 -0.1301
  469MOL0     O61806   6.050   3.226   9.858  0.7556  0.0826  0.7490
  469MOL0     C61807   6.139   3.311   9.914  0.1254 -0.5034 -0.0142
  469MOL0     C61808   6.155   3.291  10.052 -0.0393  0.9145 -0.0505
  469MOL0     C61809   6.219   3.390  10.126 -0.4341  0.3036  0.7592
  469MOL0     C61810   6.302   3.486  10.059 -0.5125  1.1015  0.7245
  469MOL0     O61811   6.384   3.577  10.123  0.5185 -0.1140 -0.0147
  469MOL0     C61812   6.433   3.552  10.254  0.2335 -0.0154  0.6197
  469MOL0     C61813   6.539   3.442  10.239 -0.4867  0.2238  0.6404
  469MOL0     C61814   6.598   3.428  10.380 -0.4179 -0.5622 -0.4488
  469MOL0     C61815   6.732   3.354  10.372 -1.0011 -0.1475 -0.3781
  469MOL0     C61816   6.793   3.341  10.516 -0.4578 -0.4365 -1.4623
  469MOL0     C61817   6.931   3.271  10.515 -0.4163 -0.8130  0.1060
  469MOL0     C61818   7.042   3.376  10.487  0.7544  0.5781 -0.1246
  469MOL0     C61819   7.179   3.304  10.481 -0.2287  0.1609  0.0428
  469MOL0    Cl61820   7.314   3.421  10.467  0.2575 -0.1780  0.0652
  469MOL0     C61821   6.297   3.490   9.921  0.0762 -0.8243  0.0522
  469MOL0     C61822   6.213   3.410   9.854  0.3600 -0.6397  0.1012
  469MOL0     O61823   6.047   3.299   9.639  0.3430  0.3275  0.1136
  469MOL0     C61824   5.818   3.163   9.573 -0.3550  0.6684  0.8784
  469MOL0     C61825   5.711   3.075   9.534 -0.0226  0.2213  0.6484
  469MOL0     N61826   5.052   3.045   9.189 -0.3504  0.0279  0.0620
  469MOL0     N61827   4.994   3.031   9.079  1.0854  0.5657  1.3784
  469MOL0     C61828   3.927   2.556   8.489 -0.4819  0.8798 -1.2001
  469MOL0     C61829   3.796   2.534   8.450  0.3119  1.1929  0.4797
  469MOL0     C61830   3.392   2.471   8.254 -0.0740  0.1637 -0.4412
  469MOL0     C61831   3.268   2.514   8.298 -0.6386  0.1349 -0.3794
  469MOL0     C61832   3.149   2.475   8.234  0.5206  0.0866  0.4624
  469MOL0     C61833   3.159   2.405   8.110  0.2349  0.8652  0.9669
  469MOL0     O61834   3.041   2.401   8.038  0.3108 -0.3677 -1.6369
  469MOL0     C61835   3.024   2.317   7.929  0.0757  0.1043 -0.7074
  469MOL0     C61836   2.880   2.323   7.865 -0.5229  0.0765 -0.1735
  469MOL0     C61837   2.824   2.461   7.846  0.2352 -0.8368  0.3237
  469MOL0     C61838   2.902   2.565   7.748 -0.4975  0.1843  0.2620
  469MOL0     C61839   2.867   2.703   7.769  1.0014 -0.1579  0.2904
  469MOL0     C61840   2.830   2.815   7.785 -0.8064  0.2277 -0.6248
  469MOL0     C61841   3.287   2.378   8.056 -0.0733 -0.1892 -0.0274
  469MOL0     C61842   3.400   2.396   8.134  1.0257 -0.0810  0.4905
  469MOL0     H61843   3.848   2.417   8.139 -0.1784 -1.2504  0.3404
  469MOL0     H61844   4.075   2.449   8.206 -0.0414 -0.5843  0.0808
  469MOL0     H61845   4.156   2.508   8.640 -0.0856 -2.2752 -1.3743
  469MOL0     H61846   4.150   2.684   8.585 -1.8299 -0.4987  0.1400
  469MOL0     H61847   4.381   2.669   8.508 -2.1695  1.4673 -0.0545
  469MOL0     H61848   4.383   2.492   8.549  1.1126 -0.6171  2.9903
  469MOL0     H61849   4.352   2.557   8.799 -0.8258  0.7699  0.2484
  469MOL0     H61850   4.382   2.723   8.757  2.8094  0.8664  0.0324
  469MOL0     H61851   4.571   2.483   8.762  1.1920  0.5631  1.2267
  469MOL0     H61852   4.598   2.594   8.619 -0.4803 -0.7669 -0.5034
  469MOL0     H61853   4.623   2.665   8.927  2.1874 -2.8242  0.8016
  469MOL0     H61854   4.632   2.782   8.786  1.7635 -0.3065 -2.4994
  469MOL0     H61855   4.821   2.696   8.708 -0.0976  0.6005 -0.6344
  469MOL0     H61856   4.793   2.546   8.806 -4.0450 -0.2837 -0.0653
  469MOL0     H61857   4.831   2.665   9.012  0.1715 -3.3229 -1.0501
  469MOL0     H61858   4.980   2.675   8.932 -0.7012 -0.5371  3.6801
  469MOL0     H61859   4.788   2.908   8.924 -0.1589 -0.2132 -0.6383
  469MOL0     H61860   4.956   2.896   8.863  0.9659  0.0114  0.6145
  469MOL0     H61861   5.026   2.714   9.161 -2.6026 -0.3368 -2.0475
  469MOL0     H61862   5.102   2.873   9.443  1.0256 -1.8932 -1.0068
  469MOL0     H61863   5.210   2.999   9.386  2.5551 -0.3055 -0.6937
  469MOL0     H61864   5.346   2.813   9.270  0.4576 -3.6207 -0.8118
  469MOL0     H61865   5.244   2.693   9.351  1.1507 -0.3672 -1.7071
  469MOL0     H61866   5.327   2.768   9.564 -2.0753  0.1210 -1.8964
  469MOL0     H61867   5.442   2.707   9.454  1.4282  0.5828 -0.4405
  469MOL0     H61868   5.422   3.016   9.490 -0.6043 -0.1398  0.2202
  469MOL0     H61869   5.541   2.911   9.399 -1.4029 -0.8288 -1.1055
  469MOL0     H61870   5.687   2.900   9.821 -0.3648 -0.8582 -0.2259
  469MOL0     H61871   5.869   3.042   9.886  0.7284  0.8158  0.3595
  469MOL0     H61872   6.091   3.228  10.113 -1.3452  0.6260 -1.6379
  469MOL0     H61873   6.205   3.380  10.233  2.4934 -0.3661  1.1632
  469MOL0     H61874   6.345   3.526  10.313 -2.4074 -2.6637 -3.9361
  469MOL0     H61875   6.473   3.647  10.292 -0.0811 -0.4242  2.0180
  469MOL0     H61876   6.607   3.478  10.162 -0.1954 -1.0552  0.2903
  469MOL0     H61877   6.495   3.350  10.201  0.2286  1.1029 -2.5980
  469MOL0     H61878   6.537   3.371  10.452  0.8002 -2.0229 -0.5203
  469MOL0     H61879   6.617   3.529  10.418 -3.4823  1.6700 -4.0736
  469MOL0     H61880   6.729   3.252  10.330  2.2711 -0.4343 -0.2199
  469MOL0     H61881   6.803   3.405  10.306 -1.9245  0.8325 -0.6371
  469MOL0     H61882   6.729   3.275  10.575  2.3602 -1.0441  1.1706
  469MOL0     H61883   6.797   3.443  10.556  0.6147 -0.4651 -1.4780
  469MOL0     H61884   6.932   3.200  10.432 -0.6905 -2.2513  1.3053
  469MOL0     H61885   6.957   3.216  10.606 -0.2205  0.9602  1.1646
  469MOL0     H61886   7.025   3.419  10.388  2.5016 -2.3655 -1.8573
  469MOL0     H61887   7.051   3.446  10.570  0.4489  1.3185 -0.7105
  469MOL0     H61888   7.191   3.236  10.396 -0.4137 -1.9810  1.6649
  469MOL0     H61889   7.185   3.246  10.573 -0.7785 -0.5670 -0.3782
  469MOL0     H61890   6.370   3.557   9.878 -0.3021  0.1521  0.8776
  469MOL0     H61891   6.213   3.430   9.747 -0.1831 -1.6253 -0.1014
  469MOL0     H61892   5.838   3.232   9.492 -2.4592 -1.9017 -2.0604
  469MOL0     H61893   5.651   3.100   9.447  1.7944  0.1393 -0.7011
  469MOL0     H61894   3.953   2.594   8.587  1.4069 -0.9636 -0.9196
  469MOL0     H61895   3.716   2.565   8.516  0.4533  0.8564  0.8172
  469MOL0     H61896   3.273   2.563   8.394  2.9897 -1.9994  0.7107
  469MOL0     H61897   3.051   2.504   8.273 -0.5197  1.1686 -2.6857
  469MOL0     H61898   3.037   2.217   7.972 -2.4092  0.7065  1.7047
  469MOL0     H61899   3.102   2.333   7.854 -0.5158 -1.6687 -1.7660
  469MOL0     H61900   2.874   2.260   7.776 -0.5354 -0.3492  0.1247
  469MOL0     H61901   2.818   2.265   7.934 -0.0685  2.1320  2.1092
  469MOL0     H61902   2.828   2.498   7.948 -0.8900  0.7594 -0.1782
  469MOL0     H61903   2.718   2.450   7.821  0.0467 -0.0827  0.7642
  469MOL0     H61904   3.007   2.547   7.771 -0.9843 -2.2334  0.9397
  469MOL0     H61905   2.879   2.540   7.643 -0.0022 -0.9086  0.3943
  469MOL0     H61906   2.796   2.915   7.807 -2.9950 -0.8260  1.2519
  469MOL0     H61907   3.297   2.325   7.961  2.9355 -1.3565  0.8075
  469MOL0     H61908   3.497   2.364   8.095  0.7262 -1.7951  1.0582
  470MOL0     O61909   4.930   6.907   7.676  0.1919 -0.2225  0.6124
  470MOL0     C61910   5.016   6.979   7.637 -0.1986  0.2575  0.8944
  470MOL0     O61911   5.000   7.100   7.580  0.0320  0.0918 -0.2277
  470MOL0     C61912   4.868   7.136   7.554 -0.5778 -0.2944  0.7142
  470MOL0     C61913   4.805   7.253   7.587 -0.4051  0.4537 -0.6583
  470MOL0     C61914   4.669   7.278   7.555  0.1951  0.4057  0.4306
  470MOL0     C61915   4.595   7.196   7.460 -0.4359 -0.4636 -0.7238
  470MOL0     O61916   4.472   7.220   7.409 -0.1382 -0.1820  0.3544
  470MOL0     C61917   4.410   7.345   7.427 -0.1422 -0.6484 -0.1198
  470MOL0     C61918   4.445   7.443   7.320  0.4039  0.8225  0.0280
  470MOL0     C61919   4.341   7.554   7.308  0.0646  0.7038 -0.3502
  470MOL0     C61920   4.368   7.647   7.196  0.1006  1.0493 -0.1545
  470MOL0     C61921   4.257   7.751   7.160  0.4634  0.1447  0.6748
  470MOL0     C61922   4.294   7.858   7.055 -0.1205 -0.0149  0.4870
  470MOL0     C61923   4.168   7.948   7.023 -0.0517 -0.0993 -0.2144
  470MOL0     C61924   4.164   8.055   6.905 -0.3371  0.7562 -0.2771
  470MOL0     N61925   4.286   8.132   6.904 -0.3792  0.3096 -0.1121
  470MOL0     C61926   4.347   8.208   6.998 -0.3092  0.2485 -1.1655
  470MOL0     C61927   4.473   8.243   6.962  0.3937  0.0431  0.1239
  470MOL0     C61928   4.573   8.310   7.039 -0.4186  0.0860 -0.1539
  470MOL0     C61929   4.704   8.228   7.076  0.3160 -0.3732 -0.5040
  470MOL0     C61930   4.784   8.180   6.953  0.4328 -0.0481 -0.0000
  470MOL0     C61931   4.909   8.102   7.013  0.4919 -0.6076  1.3536
  470MOL0     O61932   4.869   8.000   7.109  0.0057 -0.1222 -0.0925
  470MOL0     C61933   4.970   7.975   7.194  0.3516  0.1861 -0.7914
  470MOL0     C61934   4.948   8.033   7.326  0.4269  0.2211 -0.6201
  470MOL0     C61935   5.047   8.016   7.425 -0.5027 -0.0315  0.0655
  470MOL0     C61936   5.172   7.959   7.395  0.6087 -0.2164 -0.2260
  470MOL0     C61937   5.282   7.947   7.496 -0.4436 -0.1737 -0.0774
  470MOL0     O61938   5.394   7.877   7.456 -0.2398 -0.2707 -0.0354
  470MOL0     C61939   5.484   7.830   7.548  0.3247 -0.5897  0.6861
  470MOL0     C61940   5.613   7.882   7.529 -0.5448 -0.4077 -0.1127
  470MOL0     C61941   5.717   7.827   7.607 -0.3306  0.7060  0.5271
  470MOL0     C61942   5.702   7.720   7.700  0.8784  0.6720 -0.4471
  470MOL0     O61943   5.805   7.665   7.766  0.4755  0.4757 -0.2458
  470MOL0     C61944   5.925   7.731   7.751 -0.8020  0.6896 -0.2171
  470MOL0     C61945   6.039   7.658   7.830  0.3400 -0.8517  0.2767
  470MOL0     C61946   6.174   7.736   7.820  0.2965  0.6403  0.0033
  470MOL0     C61947   6.280   7.641   7.875 -0.0369 -0.0255  0.4605
  470MOL0     C61948   6.414   7.727   7.889 -0.3930 -0.6163  0.5268
  470MOL0     C61949   6.535   7.655   7.941  0.0591 -0.5435  0.0129
  470MOL0     C61950   6.663   7.740   7.937 -0.5842  0.1224  0.5453
  470MOL0     C61951   6.789   7.660   7.945  0.3782 -0.1204 -0.2508
  470MOL0    Cl61952   6.817   7.549   7.796 -0.0290 -0.3804  0.0336
  470MOL0     C61953   5.570   7.674   7.720 -0.0453  0.4297  0.2394
  470MOL0     C61954   5.463   7.725   7.643 -0.3570  0.0509 -0.1221
  470MOL0     O61955   5.264   7.993   7.606  0.2973 -0.3063  0.2877
  470MOL0     C61956   5.189   7.913   7.263 -0.1098 -0.1258  0.0991
  470MOL0     C61957   5.086   7.903   7.168  0.5875  0.7542  0.5997
  470MOL0     N61958   4.485   8.203   6.829  0.4379 -0.1698  0.1036
  470MOL0     N61959   4.371   8.140   6.798  0.3195  0.0514 -0.3632
  470MOL0     C61960   4.669   7.073   7.422  0.7351 -0.1955  0.0604
  470MOL0     C61961   4.800   7.045   7.463 -0.1955 -0.2749  0.6120
  470MOL0     C61962   5.157   6.947   7.670 -0.8960 -0.2251  0.2796
  470MOL0     C61963   5.190   6.838   7.749  0.6976 -0.8500  0.9533
  470MOL0     C61964   5.327   6.810   7.784 -0.0210 -0.0972  0.0433
  470MOL0     C61965   5.430   6.884   7.731  0.1672  0.5815  0.1321
  470MOL0     O61966   5.553   6.838   7.749 -0.1432  0.7576  0.0763
  470MOL0     C61967   5.658   6.936   7.746  0.8909  0.1558 -0.4843
  470MOL0     C61968   5.785   6.893   7.818  0.2070  0.5303 -0.4852
  470MOL0     C61969   5.833   6.987   7.933  0.1395  0.6291  1.1778
  470MOL0     C61970   5.961   6.930   8.014  0.5204 -0.0739 -0.6649
  470MOL0     C61971   6.076   6.937   7.930  0.1910 -0.4696 -0.5124
  470MOL0     C61972   6.179   6.940   7.863  0.6454 -0.7620 -0.6794
  470MOL0     C61973   5.395   6.992   7.648 -0.2691  0.3471 -1.0134
  470MOL0     C61974   5.261   7.028   7.622 -0.2284 -0.1414 -0.7655
  470MOL0     H61975   4.867   7.321   7.645 -0.6209  1.4546 -1.5550
  470MOL0     H61976   4.629   7.370   7.596 -0.8536 -1.3431  3.6959
  470MOL0     H61977   4.425   7.386   7.527  1.6521 -0.7384 -0.3184
  470MOL0     H61978   4.303   7.332   7.414 -0.5525  0.1546  2.0321
  470MOL0     H61979   4.437   7.387   7.226  0.2383 -1.1081  1.1407
  470MOL0     H61980   4.541   7.491   7.336  0.8305 -0.6072  2.1335
  470MOL0     H61981   4.336   7.611   7.401 -0.3741 -1.5075  1.0695
  470MOL0     H61982   4.245   7.502   7.291 -0.2976  1.4638 -0.6697
  470MOL0     H61983   4.457   7.704   7.224  0.1276  1.6228 -1.3579
  470MOL0     H61984   4.394   7.578   7.115 -2.2618 -4.5290  3.2417
  470MOL0     H61985   4.226   7.814   7.243 -1.2775 -1.6136  1.4334
  470MOL0     H61986   4.166   7.700   7.127  0.3983  0.0093  1.0595
  470MOL0     H61987   4.312   7.807   6.960  0.1482 -1.3416  1.2325
  470MOL0     H61988   4.382   7.915   7.085  0.8726 -2.1626  1.8672
  470MOL0     H61989   4.097   7.871   6.992  0.7377 -0.1232 -2.1216
  470MOL0     H61990   4.135   8.002   7.112  0.0080  0.6009 -0.6123
  470MOL0     H61991   4.075   8.116   6.919  0.8155  1.8973  3.2904
  470MOL0     H61992   4.156   8.000   6.811  0.5186 -3.3781  1.8054
  470MOL0     H61993   4.299   8.228   7.094 -2.9045 -3.7544 -1.3944
  470MOL0     H61994   4.525   8.346   7.131  0.7235  0.6377  0.2538
  470MOL0     H61995   4.614   8.396   6.985  1.0587 -0.0775  0.6565
  470MOL0     H61996   4.661   8.144   7.132  2.3180 -0.4998  0.9530
  470MOL0     H61997   4.776   8.283   7.138  1.9531 -0.7550 -2.0131
  470MOL0     H61998   4.724   8.118   6.886  1.7943 -0.0907 -1.2284
  470MOL0     H61999   4.818   8.273   6.907 -0.7751  2.4209  3.6410
  470MOL0     H62000   4.970   8.185   7.050 -0.0641  0.3261  0.2259
  470MOL0     H62001   4.963   8.055   6.931 -1.0443 -1.3877  0.7367
  470MOL0     H62002   4.861   8.095   7.344  0.5615  0.6631 -1.4851
  470MOL0     H62003   5.021   8.042   7.527 -2.0565 -1.6669  0.1522
  470MOL0     H62004   5.634   7.964   7.461  2.0768  2.3897  3.6510
  470MOL0     H62005   5.814   7.870   7.584  1.0930 -1.6650  1.7485
  470MOL0     H62006   5.912   7.837   7.774 -5.1814 -0.0991  2.0911
  470MOL0     H62007   5.965   7.712   7.651 -0.3507 -0.4508  0.1594
  470MOL0     H62008   6.038   7.556   7.791 -1.7976 -0.6146 -0.4577
  470MOL0     H62009   6.017   7.658   7.937 -1.2113 -3.6024  0.0447
  470MOL0     H62010   6.176   7.827   7.880  0.5036 -0.2348  1.3761
  470MOL0     H62011   6.196   7.752   7.714  0.0654 -1.4750 -0.4048
  470MOL0     H62012   6.244   7.613   7.975  0.2815 -0.2296  0.5194
  470MOL0     H62013   6.285   7.554   7.809  3.0814 -0.2998  0.9236
  470MOL0     H62014   6.406   7.817   7.950  1.4925 -0.6916  0.9582
  470MOL0     H62015   6.441   7.758   7.788  0.8076 -0.5276  0.8573
  470MOL0     H62016   6.538   7.551   7.909 -0.4165 -0.8888  1.0535
  470MOL0     H62017   6.515   7.631   8.046  1.7081 -1.3562  0.1767
  470MOL0     H62018   6.665   7.787   7.838  0.9754 -0.5904  0.2188
  470MOL0     H62019   6.663   7.814   8.018 -0.3515  0.1840  0.4881
  470MOL0     H62020   6.788   7.595   8.033 -0.3870  0.4385  0.1592
  470MOL0     H62021   6.874   7.729   7.949  0.3521  0.0385 -1.7941
  470MOL0     H62022   5.541   7.596   7.789  0.1028 -0.2593 -0.4668
  470MOL0     H62023   5.361   7.689   7.657 -0.3746  0.7365  1.8079
  470MOL0     H62024   5.276   7.854   7.236  0.7178  0.5112  1.2892
  470MOL0     H62025   5.094   7.854   7.071 -4.0749 -0.3315  0.5254
  470MOL0     H62026   4.630   7.014   7.341  0.1601  0.6196 -0.2708
  470MOL0     H62027   4.860   6.960   7.434 -0.7223 -0.5118  0.2074
  470MOL0     H62028   5.115   6.778   7.800  1.2152 -1.6204  0.8257
  470MOL0     H62029   5.347   6.724   7.847 -2.7905 -1.2408 -0.4465
  470MOL0     H62030   5.628   7.032   7.788 -3.0194  0.1317 -2.6498
  470MOL0     H62031   5.699   6.962   7.647 -0.1002  1.0248 -0.6939
  470MOL0     H62032   5.762   6.799   7.870 -0.4112  1.7246  1.5276
  470MOL0     H62033   5.867   6.876   7.748  1.1461  0.1635  0.6632
  470MOL0     H62034   5.752   7.006   8.003  1.0693  1.7267  1.9906
  470MOL0     H62035   5.850   7.089   7.894  0.6552 -0.5386 -1.9999
  470MOL0     H62036   5.976   6.991   8.103  0.0871  0.1748 -0.7564
  470MOL0     H62037   5.933   6.829   8.048 -4.0154  1.1043 -0.1670
  470MOL0     H62038   6.267   6.929   7.803  1.5941  0.4853  0.4013
  470MOL0     H62039   5.476   7.038   7.592 -1.6550  2.5659 -1.3452
  470MOL0     H62040   5.236   7.118   7.566 -2.6376  0.5886  1.3124
  471MOL0     O62041   9.041   3.487   5.631 -0.3008  0.5626  0.2140
  471MOL0     C62042   9.015   3.423   5.523 -0.0319 -0.1562 -0.5993
  471MOL0     O62043   9.092   3.429   5.404  0.1581  0.3135 -0.7054
  471MOL0     C62044   9.221   3.461   5.418 -0.1874  0.0653  0.1917
  471MOL0     C62045   9.304   3.435   5.534  0.1871  0.1296  0.1139
  471MOL0     C62046   9.431   3.486   5.537  0.0776 -0.7996 -0.3145
  471MOL0     C62047   9.473   3.581   5.444  0.0403 -0.4749 -0.0179
  471MOL0     O62048   9.597   3.639   5.445 -0.5828  0.0930 -0.5065
  471MOL0     C62049   9.597   3.769   5.494 -0.4229 -0.2110 -0.3040
  471MOL0     C62050   9.698   3.794   5.606  0.3151  1.4729  0.0741
  471MOL0     C62051   9.850   3.783   5.573 -0.0919  0.3915 -0.1051
  471MOL0     C62052   9.933   3.738   5.687 -0.4758  0.2817 -0.8665
  471MOL0     C62053  10.075   3.721   5.643  0.0592  0.2260 -0.2163
  471MOL0     C62054  10.153   3.641   5.743 -1.0789  0.3261 -0.7468
  471MOL0     C62055  10.201   3.732   5.861  0.2382  0.5620  0.4394
  471MOL0     C62056  10.342   3.784   5.827  0.2964 -1.0033 -0.4207
  471MOL0     N62057  10.395   3.850   5.944  0.4175  0.5717 -0.1078
  471MOL0     C62058  10.339   3.960   6.011  0.6022 -0.0374 -0.1095
  471MOL0     C62059  10.430   3.981   6.119  0.4625 -0.4322 -0.3113
  471MOL0     C62060  10.433   4.105   6.209  0.1665  0.3003  0.7089
  471MOL0     C62061  10.298   4.175   6.251 -1.1223  0.7318 -0.2704
  471MOL0     C62062  10.220   4.072   6.350 -0.4054  0.1021 -0.3621
  471MOL0     C62063  10.076   4.095   6.377 -0.2560  0.1475 -0.3689
  471MOL0     O62064   9.997   4.096   6.258  0.2607 -0.5546  0.0647
  471MOL0     C62065   9.855   4.101   6.279  0.2206 -0.6828  0.0537
  471MOL0     C62066   9.781   4.089   6.396 -0.0412 -0.7256  1.0761
  471MOL0     C62067   9.648   4.100   6.410 -0.1029  0.0246  0.6943
  471MOL0     C62068   9.563   4.120   6.292 -0.5622 -0.5151 -0.2144
  471MOL0     C62069   9.416   4.125   6.318 -0.4023  0.0371  0.3277
  471MOL0     O62070   9.371   4.071   6.435 -0.9447 -0.2191  0.0384
  471MOL0     C62071   9.247   4.076   6.468  0.0130 -0.5268 -0.3031
  471MOL0     C62072   9.196   4.129   6.591  0.1272 -0.8394 -0.5477
  471MOL0     C62073   9.063   4.129   6.623  0.5062  0.0896 -0.8416
  471MOL0     C62074   8.967   4.070   6.541 -0.8305  0.6653 -0.4268
  471MOL0     O62075   8.835   4.069   6.577 -0.1429 -0.5741  0.0421
  471MOL0     C62076   8.770   4.168   6.487  0.8183  0.8402 -0.3060
  471MOL0     C62077   8.643   4.213   6.554  0.3822 -0.0994 -0.1558
  471MOL0     C62078   8.655   4.229   6.711 -0.6422  0.3112 -0.0279
  471MOL0     C62079   8.548   4.311   6.790  0.4013  0.3818  0.4652
  471MOL0     C62080   8.540   4.466   6.767 -0.2208  0.1765 -0.3528
  471MOL0     C62081   8.664   4.545   6.824  0.5242 -0.3522 -0.6042
  471MOL0     C62082   8.676   4.548   6.979  0.0310 -0.3176  0.2357
  471MOL0     C62083   8.821   4.558   7.029 -0.3367 -0.1897  0.1749
  471MOL0    Cl62084   8.895   4.713   6.991 -0.1414 -0.0058  0.0286
  471MOL0     C62085   9.010   4.015   6.422  0.1527 -0.0620  1.1662
  471MOL0     C62086   9.147   4.020   6.389  0.7175  0.0530 -0.4460
  471MOL0     O62087   9.352   4.181   6.226  1.1247  0.6237 -0.1625
  471MOL0     C62088   9.638   4.128   6.169 -0.7325 -0.2220 -0.3359
  471MOL0     C62089   9.776   4.118   6.160  0.3640  0.9705  0.7181
  471MOL0     N62090  10.522   3.890   6.113 -0.3026  0.7750  0.3893
  471MOL0     N62091  10.502   3.812   6.008 -1.1254  0.1792  0.5836
  471MOL0     C62092   9.396   3.607   5.333 -0.1222 -0.3389 -0.4826
  471MOL0     C62093   9.280   3.549   5.323  0.5814  0.1450  0.9799
  471MOL0     C62094   8.894   3.324   5.537 -0.2961  0.3889  0.8382
  471MOL0     C62095   8.865   3.238   5.434  0.2860  0.1918 -0.0623
  471MOL0     C62096   8.759   3.150   5.436 -0.0897  0.0345 -0.0893
  471MOL0     C62097   8.673   3.147   5.552 -0.2344  0.4292  0.2025
  471MOL0     O62098   8.580   3.050   5.543  0.6387 -0.1553 -0.1402
  471MOL0     C62099   8.464   3.082   5.629  0.0721  0.5212 -0.2412
  471MOL0     C62100   8.350   3.012   5.558 -0.3857  0.2245  0.4180
  471MOL0     C62101   8.216   3.020   5.634  0.3658 -0.1123  0.0793
  471MOL0     C62102   8.238   2.965   5.778  0.5266 -0.0079  0.5305
  471MOL0     C62103   8.112   2.923   5.832  0.6764 -0.1378  0.4212
  471MOL0     C62104   8.028   2.863   5.899  0.3140 -1.5441  0.0882
  471MOL0     C62105   8.693   3.242   5.654 -0.8150 -0.2112 -1.0195
  471MOL0     C62106   8.805   3.327   5.646  1.1345  0.6705 -0.5566
  471MOL0     H62107   9.272   3.374   5.617 -2.6013  1.4971  0.1529
  471MOL0     H62108   9.488   3.475   5.628 -1.0517  0.0945  0.5192
  471MOL0     H62109   9.499   3.800   5.532  0.8534  1.7511  1.5816
  471MOL0     H62110   9.603   3.838   5.410  0.6047  1.5190  1.1261
  471MOL0     H62111   9.670   3.730   5.691 -0.3116  2.3659  0.5595
  471MOL0     H62112   9.673   3.893   5.644 -5.4531 -0.2399  1.7289
  471MOL0     H62113   9.883   3.879   5.532  0.2624  0.2638 -0.1254
  471MOL0     H62114   9.877   3.705   5.501  4.1512  0.3434  1.2727
  471MOL0     H62115   9.925   3.786   5.785 -2.9890 -1.6991 -0.0094
  471MOL0     H62116   9.897   3.640   5.720 -1.0205  0.8008  0.1003
  471MOL0     H62117  10.129   3.815   5.625 -1.1728  0.7957 -1.0719
  471MOL0     H62118  10.078   3.653   5.557  0.5809 -0.6170  0.4503
  471MOL0     H62119  10.238   3.588   5.700 -0.2921  0.5997  0.4257
  471MOL0     H62120  10.095   3.554   5.776 -0.1709 -0.8239 -2.0879
  471MOL0     H62121  10.133   3.815   5.885  0.1904  0.3910  0.8988
  471MOL0     H62122  10.224   3.665   5.944 -2.6104 -1.5236 -0.2918
  471MOL0     H62123  10.337   3.859   5.747 -0.5590 -2.3582 -1.6751
  471MOL0     H62124  10.406   3.698   5.806  0.2528 -1.6090  1.6963
  471MOL0     H62125  10.254   4.021   5.982 -1.0977 -2.1977  0.1024
  471MOL0     H62126  10.482   4.182   6.148 -1.0488 -2.3585 -4.1693
  471MOL0     H62127  10.487   4.085   6.302  0.1398  1.3168  0.9574
  471MOL0     H62128  10.239   4.187   6.160  0.4152  1.0036 -1.2763
  471MOL0     H62129  10.318   4.272   6.298  0.3144 -0.3814  1.5724
  471MOL0     H62130  10.229   3.968   6.315 -0.9287 -0.2029  0.3766
  471MOL0     H62131  10.276   4.084   6.444 -0.5233 -3.2021  0.2630
  471MOL0     H62132  10.068   4.188   6.433  0.6238  0.4602 -0.7444
  471MOL0     H62133  10.041   4.021   6.448 -0.3880  1.1056  0.5847
  471MOL0     H62134   9.846   4.069   6.480  2.4241 -0.0415 -0.5510
  471MOL0     H62135   9.605   4.085   6.509  1.2248 -0.8967  1.1514
  471MOL0     H62136   9.270   4.186   6.646  1.5955 -0.9095 -2.3453
  471MOL0     H62137   9.020   4.181   6.707 -0.3062 -1.1894 -0.4339
  471MOL0     H62138   8.738   4.118   6.395  0.7953 -1.9792  1.1271
  471MOL0     H62139   8.835   4.255   6.477 -0.4622  1.7965 -0.5813
  471MOL0     H62140   8.573   4.134   6.525  1.4623 -0.2245 -2.6376
  471MOL0     H62141   8.615   4.307   6.506  2.1238  1.4278  1.6473
  471MOL0     H62142   8.753   4.274   6.726 -0.8668  0.9120 -0.3150
  471MOL0     H62143   8.662   4.126   6.748  1.3346  0.6249  0.5400
  471MOL0     H62144   8.446   4.276   6.770  0.9652 -0.3111 -1.3776
  471MOL0     H62145   8.563   4.280   6.894 -0.5178  0.4596  0.6328
  471MOL0     H62146   8.461   4.514   6.825  0.5163  0.5199  0.3948
  471MOL0     H62147   8.521   4.483   6.661  3.5761  0.4650 -1.1211
  471MOL0     H62148   8.657   4.648   6.786  0.0127 -0.2560 -0.2610
  471MOL0     H62149   8.749   4.494   6.778 -0.8209 -3.2246 -0.1094
  471MOL0     H62150   8.626   4.641   7.010 -0.1513 -0.4357  0.2978
  471MOL0     H62151   8.619   4.465   7.022 -1.2195  0.2033 -0.3603
  471MOL0     H62152   8.881   4.477   6.987 -0.1081  0.7028 -1.3068
  471MOL0     H62153   8.817   4.542   7.137  0.7132 -1.0005  0.1093
  471MOL0     H62154   8.941   3.975   6.349  0.5214  1.3112  0.0315
  471MOL0     H62155   9.178   3.976   6.295 -0.8669 -4.1876  0.7963
  471MOL0     H62156   9.587   4.131   6.073  0.3662 -2.5068 -1.0815
  471MOL0     H62157   9.823   4.120   6.062 -0.7724  2.3235  0.1774
  471MOL0     H62158   9.441   3.658   5.248  1.0650 -0.6459 -0.0527
  471MOL0     H62159   9.214   3.567   5.239 -0.4218 -0.4143  1.6269
  471MOL0     H62160   8.942   3.235   5.357 -1.2559 -1.1312 -1.6294
  471MOL0     H62161   8.738   3.095   5.345 -0.9090  0.9041 -0.4423
  471MOL0     H62162   8.442   3.189   5.632 -1.3324  0.6939 -5.5529
  471MOL0     H62163   8.469   3.039   5.729  1.2794 -1.7107 -1.1927
  471MOL0     H62164   8.338   3.062   5.461 -0.0151 -0.0953  0.2044
  471MOL0     H62165   8.390   2.913   5.534  0.5140  0.5479  0.5160
  471MOL0     H62166   8.142   2.963   5.577  0.6775  0.8573 -1.3260
  471MOL0     H62167   8.183   3.124   5.634 -0.2907 -0.2970 -1.3268
  471MOL0     H62168   8.302   2.877   5.785  1.2072  0.4191 -0.2043
  471MOL0     H62169   8.279   3.046   5.839 -1.2927  1.6957 -0.3986
  471MOL0     H62170   7.946   2.812   5.944 -0.7292 -0.7430 -0.8537
  471MOL0     H62171   8.643   3.257   5.749  0.2026 -2.3161 -0.0742
  471MOL0     H62172   8.820   3.390   5.733  0.0307 -0.4122  0.4624
  472MOL0     O62173   5.440   6.410   8.160  0.0401 -0.1377 -0.6681
  472MOL0     C62174   5.499   6.402   8.053 -0.4095 -0.2084 -0.9902
  472MOL0     O62175   5.446   6.411   7.927 -0.3778  0.0775 -0.1046
  472MOL0     C62176   5.316   6.447   7.911 -0.0444  0.4393  0.3117
  472MOL0     C62177   5.248   6.542   7.995  0.1144  0.7052  0.0763
  472MOL0     C62178   5.110   6.554   7.989 -0.8235  0.0943  0.0724
  472MOL0     C62179   5.034   6.496   7.890 -0.3596 -0.7160 -0.2382
  472MOL0     O62180   4.897   6.515   7.865 -1.6022  0.0777 -0.0945
  472MOL0     C62181   4.835   6.627   7.942 -0.7755 -0.8232 -0.5110
  472MOL0     C62182   4.696   6.653   7.897  1.2699  0.0610 -0.1425
  472MOL0     C62183   4.613   6.740   7.998  0.2314 -0.3934  0.2443
  472MOL0     C62184   4.461   6.731   7.967  0.3759 -0.3674 -0.5862
  472MOL0     C62185   4.394   6.791   8.091 -0.0547 -0.2614  0.8002
  472MOL0     C62186   4.324   6.692   8.189  0.4752  0.0700  0.3723
  472MOL0     C62187   4.250   6.763   8.295 -0.9078 -0.1381 -0.4647
  472MOL0     C62188   4.335   6.846   8.395 -0.3193  0.2259  0.2092
  472MOL0     N62189   4.422   6.764   8.482 -0.4333 -0.4718  0.5041
  472MOL0     C62190   4.370   6.679   8.579  0.0951 -0.1259  0.5182
  472MOL0     C62191   4.479   6.630   8.641 -0.0244 -0.1095  0.3352
  472MOL0     C62192   4.479   6.526   8.752  0.6175  0.1398  0.3498
  472MOL0     C62193   4.523   6.597   8.894 -0.4540 -0.7391  0.5032
  472MOL0     C62194   4.422   6.692   8.953 -0.0451 -0.5505  0.3370
  472MOL0     C62195   4.307   6.623   9.020  0.2443 -0.2709  0.2349
  472MOL0     O62196   4.212   6.556   8.931  0.1347  0.2461 -0.0630
  472MOL0     C62197   4.130   6.623   8.837 -0.9373 -0.7523 -0.1620
  472MOL0     C62198   4.054   6.544   8.749  0.2638 -0.3289  0.3831
  472MOL0     C62199   3.965   6.603   8.662 -0.7781  0.1515  0.7705
  472MOL0     C62200   3.959   6.741   8.645 -0.3249 -0.0189  0.2747
  472MOL0     C62201   3.879   6.807   8.543  0.0789  0.5954  0.2430
  472MOL0     O62202   3.861   6.942   8.545 -0.4626  0.0692  0.6139
  472MOL0     C62203   3.741   6.989   8.492 -0.0746  0.3870  0.6668
  472MOL0     C62204   3.742   7.122   8.485 -0.3955 -0.3962 -0.2123
  472MOL0     C62205   3.627   7.192   8.431  0.5963  1.1480 -0.1020
  472MOL0     C62206   3.527   7.108   8.374  0.4590  0.1260  0.2432
  472MOL0     O62207   3.434   7.165   8.295 -0.0591 -0.0714 -0.5202
  472MOL0     C62208   3.337   7.246   8.365 -0.7871 -0.5070 -0.1584
  472MOL0     C62209   3.243   7.319   8.260 -0.9356 -1.0174 -1.0962
  472MOL0     C62210   3.134   7.237   8.199 -0.5326 -0.3166 -0.4360
  472MOL0     C62211   3.058   7.320   8.100 -0.3879  0.3012 -0.4923
  472MOL0     C62212   2.953   7.426   8.155 -0.4932 -0.2031 -0.7774
  472MOL0     C62213   2.877   7.498   8.041 -0.6760  0.0917  0.0779
  472MOL0     C62214   2.775   7.596   8.096  0.4374 -0.3194  0.0303
  472MOL0     C62215   2.716   7.693   7.994  0.0803 -0.3286  1.0874
  472MOL0    Cl62216   2.693   7.626   7.833 -0.2047 -0.1502  0.4108
  472MOL0     C62217   3.527   6.966   8.388  0.6303 -0.4092  0.3310
  472MOL0     C62218   3.640   6.913   8.447  0.3542  0.0770  0.4635
  472MOL0     O62219   3.851   6.733   8.447 -0.1595 -0.3824 -0.4130
  472MOL0     C62220   4.043   6.823   8.727 -0.8674 -0.5763 -0.8793
  472MOL0     C62221   4.121   6.767   8.832  0.3123  0.1672  0.5070
  472MOL0     N62222   4.594   6.676   8.565  0.4053 -0.1048 -0.4717
  472MOL0     N62223   4.562   6.770   8.489  0.3959  0.3854 -0.2406
  472MOL0     C62224   5.098   6.411   7.810  0.2537  0.6381  1.0887
  472MOL0     C62225   5.232   6.374   7.824  0.2616 -0.0895  0.7352
  472MOL0     C62226   5.642   6.395   8.064  0.0784 -0.3066  0.0725
  472MOL0     C62227   5.719   6.444   7.957  1.0047  0.6014  0.9981
  472MOL0     C62228   5.859   6.441   7.965  0.1114  0.0565 -0.0321
  472MOL0     C62229   5.935   6.386   8.066 -0.0086  0.5557 -0.8813
  472MOL0     O62230   6.071   6.394   8.055  0.3481  0.2279 -1.2013
  472MOL0     C62231   6.149   6.378   8.172 -0.1540 -0.5097  0.3944
  472MOL0     C62232   6.191   6.517   8.232 -0.2429 -0.0901 -0.0194
  472MOL0     C62233   6.254   6.609   8.126 -0.1117  0.0391  0.6204
  472MOL0     C62234   6.405   6.611   8.130 -0.6970  0.1134  0.2539
  472MOL0     C62235   6.475   6.486   8.159 -1.0903  0.0627 -0.0980
  472MOL0     C62236   6.546   6.383   8.177 -0.1546 -0.7280 -0.6971
  472MOL0     C62237   5.859   6.335   8.171 -0.1569 -0.0034 -0.4149
  472MOL0     C62238   5.714   6.343   8.177  0.6829  0.4617 -0.7197
  472MOL0     H62239   5.301   6.608   8.063 -1.5793  1.1018  1.0758
  472MOL0     H62240   5.078   6.626   8.064  1.5609 -1.5927  2.9438
  472MOL0     H62241   4.893   6.719   7.936  1.3335 -1.9068  1.4420
  472MOL0     H62242   4.841   6.601   8.048  0.1552  0.6987 -0.1677
  472MOL0     H62243   4.633   6.564   7.889  0.0233  1.1089 -3.3998
  472MOL0     H62244   4.701   6.698   7.798  1.9196  1.3728  0.4675
  472MOL0     H62245   4.646   6.843   7.987 -2.8139  1.0131  2.6936
  472MOL0     H62246   4.632   6.708   8.101  0.3583 -2.4741 -0.3688
  472MOL0     H62247   4.446   6.790   7.875  1.2314  0.1927 -0.3806
  472MOL0     H62248   4.427   6.627   7.962  1.1327 -0.5742 -2.2552
  472MOL0     H62249   4.311   6.855   8.061 -2.7518 -1.5814  4.6561
  472MOL0     H62250   4.455   6.872   8.132 -2.1270  2.4786 -1.1379
  472MOL0     H62251   4.401   6.639   8.245  4.2099  3.9542 -0.5571
  472MOL0     H62252   4.258   6.622   8.136  1.5646 -1.2158  0.6594
  472MOL0     H62253   4.178   6.828   8.244  0.0243  1.2011 -0.1405
  472MOL0     H62254   4.199   6.694   8.362 -2.8660  1.2559 -0.4218
  472MOL0     H62255   4.266   6.911   8.451  0.9570 -0.6464  2.9944
  472MOL0     H62256   4.398   6.905   8.328 -1.2942  4.2243  2.4810
  472MOL0     H62257   4.263   6.666   8.583 -0.1440  1.6599  0.7133
  472MOL0     H62258   4.540   6.439   8.724  0.1633 -0.1264  0.1791
  472MOL0     H62259   4.377   6.489   8.766  0.9575 -0.7790  0.5132
  472MOL0     H62260   4.613   6.653   8.867  1.3652 -1.5152  4.3092
  472MOL0     H62261   4.556   6.522   8.967 -0.5941 -0.7793  0.5250
  472MOL0     H62262   4.461   6.747   9.039 -1.0716 -0.0414  0.4879
  472MOL0     H62263   4.380   6.766   8.884  0.5043 -0.9209 -0.4031
  472MOL0     H62264   4.246   6.704   9.061  0.8399  1.8414 -2.6809
  472MOL0     H62265   4.345   6.563   9.103 -2.8414  0.5788  2.4558
  472MOL0     H62266   4.053   6.436   8.754 -0.8201 -0.3819 -0.4561
  472MOL0     H62267   3.920   6.530   8.596  0.4014 -1.1002  1.2948
  472MOL0     H62268   3.823   7.177   8.530  0.4029 -1.4053 -0.3638
  472MOL0     H62269   3.602   7.296   8.412 -0.0931  1.1520  0.7753
  472MOL0     H62270   3.390   7.320   8.425  0.9887 -1.5965 -0.3066
  472MOL0     H62271   3.265   7.188   8.423 -1.3990  1.6164  1.3078
  472MOL0     H62272   3.301   7.367   8.181 -1.7091 -0.2575 -1.2080
  472MOL0     H62273   3.196   7.396   8.322  2.6095  0.8827 -0.4820
  472MOL0     H62274   3.066   7.195   8.275  0.1504  0.4664  0.6346
  472MOL0     H62275   3.181   7.148   8.157 -0.1989 -1.4656  2.1555
  472MOL0     H62276   3.133   7.373   8.042 -1.1937  1.0955 -0.8329
  472MOL0     H62277   3.003   7.251   8.035 -1.3085  1.2682 -0.7730
  472MOL0     H62278   3.009   7.496   8.217 -1.7835 -0.5715  0.8943
  472MOL0     H62279   2.880   7.378   8.221 -0.6516 -0.4752 -1.1479
  472MOL0     H62280   2.832   7.435   7.963  2.6496 -0.0719 -1.9080
  472MOL0     H62281   2.954   7.548   7.982 -1.3911 -1.2120 -2.0892
  472MOL0     H62282   2.701   7.533   8.147  0.4759  0.4194  1.0194
  472MOL0     H62283   2.812   7.663   8.173  1.5060 -2.0514  1.0926
  472MOL0     H62284   2.787   7.775   7.985 -1.3119  0.7465 -0.7072
  472MOL0     H62285   2.631   7.744   8.040  0.7277  0.7359  1.1183
  472MOL0     H62286   3.448   6.910   8.338  0.6542  2.4833 -3.3140
  472MOL0     H62287   3.634   6.805   8.449 -2.2734  0.1002 -0.8770
  472MOL0     H62288   4.036   6.931   8.725  2.5527 -0.1019  2.3502
  472MOL0     H62289   4.171   6.837   8.898  0.4772 -0.4695  1.0714
  472MOL0     H62290   5.044   6.359   7.731  0.2494  0.2959  1.3150
  472MOL0     H62291   5.267   6.292   7.763 -0.5534  0.3374 -0.3485
  472MOL0     H62292   5.666   6.481   7.870  0.1947 -1.1016  0.7312
  472MOL0     H62293   5.906   6.483   7.877 -2.7799  3.1893 -0.2703
  472MOL0     H62294   6.236   6.319   8.143  1.2376  0.8204  1.6289
  472MOL0     H62295   6.090   6.319   8.243  0.3427 -0.8582  0.5188
  472MOL0     H62296   6.102   6.558   8.280 -0.7180  1.5803 -2.1669
  472MOL0     H62297   6.261   6.499   8.313  1.0515  0.1330 -1.0491
  472MOL0     H62298   6.223   6.713   8.114 -0.0384 -0.0639 -0.5795
  472MOL0     H62299   6.240   6.570   8.025  0.6668 -1.0244  0.8998
  472MOL0     H62300   6.442   6.651   8.036  1.4030 -0.3061  0.8409
  472MOL0     H62301   6.435   6.683   8.207  0.7924  0.4734 -0.6306
  472MOL0     H62302   6.609   6.297   8.192  1.1270 -0.0865 -2.0933
  472MOL0     H62303   5.897   6.276   8.254  1.9929  0.1753 -1.2099
  472MOL0     H62304   5.660   6.331   8.270 -1.7779  2.2006 -1.8189
  473MOL0     O62305   8.602   1.800   3.685 -0.1449 -0.7134 -0.6342
  473MOL0     C62306   8.560   1.774   3.575  0.0039 -0.0461 -0.5544
  473MOL0     O62307   8.456   1.686   3.545  0.8391  0.2849 -0.4906
  473MOL0     C62308   8.380   1.626   3.649  0.7525  1.3131  0.3138
  473MOL0     C62309   8.411   1.616   3.783 -0.2493  0.2758 -0.5445
  473MOL0     C62310   8.334   1.560   3.883  0.6843 -0.6358 -0.1946
  473MOL0     C62311   8.208   1.517   3.847 -0.9738  1.4256  0.2931
  473MOL0     O62312   8.126   1.474   3.945  0.3586 -0.0071  0.4702
  473MOL0     C62313   7.998   1.539   3.958  0.7295  0.3858 -0.0610
  473MOL0     C62314   7.916   1.498   4.080  0.2175 -1.2682  0.3536
  473MOL0     C62315   7.803   1.599   4.116  0.2027  0.6745 -0.2060
  473MOL0     C62316   7.751   1.554   4.247 -0.4467  0.0061  0.2788
  473MOL0     C62317   7.601   1.590   4.257  0.1601 -0.1413  0.0405
  473MOL0     C62318   7.533   1.538   4.389 -0.0015 -0.4880  0.4250
  473MOL0     C62319   7.602   1.577   4.515 -0.7918  0.4451  0.1808
  473MOL0     C62320   7.508   1.534   4.629  0.5697 -0.4532 -0.3299
  473MOL0     N62321   7.389   1.611   4.672 -0.5485  0.5101  0.1045
  473MOL0     C62322   7.389   1.746   4.694  0.4157 -0.6373 -0.2158
  473MOL0     C62323   7.263   1.765   4.745 -0.7977 -0.8939  0.3344
  473MOL0     C62324   7.204   1.899   4.795  0.5410  0.5901  1.2620
  473MOL0     C62325   7.234   1.946   4.936 -1.5149 -1.0430  0.2184
  473MOL0     C62326   7.392   1.969   4.941 -0.2812  0.0185 -0.0855
  473MOL0     C62327   7.453   2.083   4.864  0.2622 -0.9293  1.4606
  473MOL0     O62328   7.570   2.038   4.794  0.2969 -0.1020  0.1821
  473MOL0     C62329   7.656   2.129   4.731 -0.8089 -0.2989 -0.8684
  473MOL0     C62330   7.611   2.238   4.653  0.3269 -0.2014  0.0931
  473MOL0     C62331   7.700   2.322   4.589 -0.5183 -0.1976 -0.3211
  473MOL0     C62332   7.841   2.299   4.606 -1.2760 -0.5794  1.0117
  473MOL0     C62333   7.939   2.396   4.550 -0.3711 -0.1968  0.1620
  473MOL0     O62334   8.061   2.399   4.615 -0.1750 -0.0013 -0.0879
  473MOL0     C62335   8.156   2.471   4.548 -0.0811 -0.4845 -0.8536
  473MOL0     C62336   8.215   2.585   4.612 -0.2185 -0.3534  0.0363
  473MOL0     C62337   8.305   2.663   4.545 -0.0246 -0.3744  0.3277
  473MOL0     C62338   8.351   2.628   4.422  1.0463 -0.3121 -0.3391
  473MOL0     O62339   8.447   2.691   4.357 -0.3688 -0.1644 -0.3563
  473MOL0     C62340   8.560   2.723   4.440  0.2048 -0.1804  0.2262
  473MOL0     C62341   8.662   2.811   4.367  0.2387 -0.9065 -0.7845
  473MOL0     C62342   8.607   2.936   4.317 -0.0116 -0.2270 -0.3286
  473MOL0     C62343   8.560   3.031   4.426 -0.2335  1.0598 -0.7455
  473MOL0     C62344   8.560   3.178   4.373  0.1605 -0.3072 -0.4999
  473MOL0     C62345   8.486   3.272   4.472 -0.4250 -0.7548  0.3011
  473MOL0     C62346   8.331   3.248   4.483 -0.3993 -0.0876  0.0418
  473MOL0     C62347   8.270   3.373   4.532 -1.2254  0.4927 -0.2864
  473MOL0    Cl62348   8.093   3.339   4.520 -0.1485  0.0168 -0.0888
  473MOL0     C62349   8.292   2.515   4.362  0.0273  0.1058 -0.3095
  473MOL0     C62350   8.194   2.436   4.415 -0.3670  0.9506  0.1305
  473MOL0     O62351   7.899   2.473   4.460 -0.1963 -0.1437  0.2470
  473MOL0     C62352   7.889   2.193   4.670  0.8022  0.3709  0.0480
  473MOL0     C62353   7.801   2.104   4.731  0.2285 -0.5975  0.4292
  473MOL0     N62354   7.197   1.634   4.748  0.0371  0.0202 -0.7111
  473MOL0     N62355   7.272   1.555   4.692  0.4017  0.7117  1.0580
  473MOL0     C62356   8.166   1.522   3.715 -0.8216  0.5433 -0.6036
  473MOL0     C62357   8.257   1.562   3.613 -0.2645 -0.1491  1.0855
  473MOL0     C62358   8.623   1.838   3.453  0.4515 -0.0926  0.4215
  473MOL0     C62359   8.723   1.933   3.466 -0.9288  0.5205 -0.3221
  473MOL0     C62360   8.783   1.992   3.353  0.1687  0.4910  0.4239
  473MOL0     C62361   8.745   1.956   3.217 -0.8015 -0.0535  0.2280
  473MOL0     O62362   8.798   2.008   3.102 -0.6009  0.2402  0.0116
  473MOL0     C62363   8.865   2.128   3.105  0.5404  0.0900  0.3973
  473MOL0     C62364   8.768   2.243   3.114  0.0206 -0.2716  0.5959
  473MOL0     C62365   8.660   2.232   3.005 -0.3862  0.0914  0.0963
  473MOL0     C62366   8.562   2.356   3.038 -0.1348 -0.6163  0.0826
  473MOL0     C62367   8.618   2.475   2.956 -0.4291  0.5471 -0.7445
  473MOL0     C62368   8.662   2.580   2.914  1.1315  0.8003  0.2977
  473MOL0     C62369   8.654   1.855   3.202  0.4618 -0.0685  0.9091
  473MOL0     C62370   8.595   1.800   3.318 -0.1795 -0.1559 -0.3204
  473MOL0     H62371   8.508   1.649   3.818 -0.1754 -1.5008  1.0884
  473MOL0     H62372   8.361   1.577   3.987  0.3340  2.1952 -0.4936
  473MOL0     H62373   7.930   1.541   3.872  1.0042  3.4062 -0.3163
  473MOL0     H62374   8.024   1.644   3.970 -0.9656  0.8316  0.0467
  473MOL0     H62375   7.981   1.502   4.168 -0.6843 -0.1375  0.9970
  473MOL0     H62376   7.876   1.398   4.062 -1.3505 -0.5110 -0.5908
  473MOL0     H62377   7.734   1.589   4.032  2.7849 -1.5174 -2.2580
  473MOL0     H62378   7.853   1.696   4.124  3.0959 -0.8057  1.0002
  473MOL0     H62379   7.763   1.445   4.252  1.6878  0.1465 -0.6114
  473MOL0     H62380   7.804   1.590   4.335 -1.3793 -0.1506  0.9193
  473MOL0     H62381   7.555   1.554   4.165 -2.1820 -1.4407  1.6110
  473MOL0     H62382   7.597   1.699   4.254  1.5601 -0.0265  1.1485
  473MOL0     H62383   7.537   1.429   4.382  0.0643 -0.4994  0.6556
  473MOL0     H62384   7.426   1.561   4.391 -0.1413 -1.1733  1.7714
  473MOL0     H62385   7.695   1.522   4.532 -1.4894 -0.4262  1.2962
  473MOL0     H62386   7.623   1.684   4.529  0.3609  0.5280 -1.7696
  473MOL0     H62387   7.570   1.529   4.719  0.4968 -1.5270 -0.3279
  473MOL0     H62388   7.475   1.431   4.612  1.6344 -1.0628  1.0507
  473MOL0     H62389   7.471   1.814   4.675  0.2157 -0.7405 -1.6237
  473MOL0     H62390   7.096   1.886   4.786  0.3654  2.2261  0.6638
  473MOL0     H62391   7.243   1.973   4.724  0.9410 -0.6290  0.1502
  473MOL0     H62392   7.208   1.875   5.016  0.9668 -1.6695  0.5323
  473MOL0     H62393   7.184   2.040   4.960  1.4180  0.9514 -1.0102
  473MOL0     H62394   7.411   2.000   5.044 -2.1824  2.0805 -0.2767
  473MOL0     H62395   7.437   1.870   4.930  0.7542  0.4882 -0.2190
  473MOL0     H62396   7.485   2.165   4.929 -0.2519 -0.0980  0.6936
  473MOL0     H62397   7.381   2.121   4.790  2.4991 -0.0412 -0.3921
  473MOL0     H62398   7.506   2.268   4.653  0.9538  2.2643  1.9720
  473MOL0     H62399   7.651   2.394   4.524 -0.7854  1.2722  1.4247
  473MOL0     H62400   8.184   2.619   4.710 -2.2736 -2.0029  0.0387
  473MOL0     H62401   8.343   2.750   4.597  1.9235  1.5295 -3.7677
  473MOL0     H62402   8.621   2.641   4.479  5.0869  3.8452  2.2200
  473MOL0     H62403   8.533   2.775   4.533  0.3406 -0.4857  0.4396
  473MOL0     H62404   8.699   2.747   4.286  1.7153 -1.6285  0.4075
  473MOL0     H62405   8.741   2.834   4.439 -0.3578  0.3262 -0.4994
  473MOL0     H62406   8.522   2.926   4.248  2.3975 -0.2607 -3.5317
  473MOL0     H62407   8.686   2.977   4.253 -1.0852 -0.0989 -1.6162
  473MOL0     H62408   8.461   3.003   4.462  0.0049  4.5207  3.4659
  473MOL0     H62409   8.627   3.022   4.512 -2.4822 -1.0062  0.9148
  473MOL0     H62410   8.515   3.181   4.273 -3.3796  4.8303  0.8423
  473MOL0     H62411   8.664   3.213   4.367  0.5902 -1.6584 -1.1759
  473MOL0     H62412   8.506   3.379   4.459  2.3228 -1.1596  0.6700
  473MOL0     H62413   8.527   3.270   4.573  0.3444  2.5877  0.1969
  473MOL0     H62414   8.286   3.225   4.386 -1.0693  0.1150  0.3032
  473MOL0     H62415   8.317   3.165   4.552 -0.4042 -0.3949 -0.3245
  473MOL0     H62416   8.299   3.464   4.479 -0.1910 -0.2960 -1.1142
  473MOL0     H62417   8.288   3.386   4.640 -2.7262  1.6731 -0.1313
  473MOL0     H62418   8.332   2.492   4.264  1.7904  3.3449 -0.4874
  473MOL0     H62419   8.168   2.342   4.367  2.6812  0.4585 -0.7713
  473MOL0     H62420   7.993   2.171   4.692  0.6217 -2.2619 -1.2790
  473MOL0     H62421   7.839   2.009   4.769  1.6277 -0.5751 -0.8627
  473MOL0     H62422   8.067   1.497   3.678  1.0865 -3.9309 -3.5956
  473MOL0     H62423   8.209   1.581   3.517 -0.9430  0.9496  1.6179
  473MOL0     H62424   8.742   1.968   3.567 -0.6180 -0.0564 -0.1761
  473MOL0     H62425   8.856   2.071   3.370 -0.0235  0.2732  2.5147
  473MOL0     H62426   8.917   2.137   3.010 -1.5544 -2.5666 -1.1636
  473MOL0     H62427   8.944   2.140   3.179  0.4279 -0.3283  0.5927
  473MOL0     H62428   8.722   2.242   3.213  1.1162 -2.0701  1.1387
  473MOL0     H62429   8.813   2.341   3.096 -0.3668 -0.6668 -3.4862
  473MOL0     H62430   8.603   2.139   3.005 -2.1250  1.0703 -1.5413
  473MOL0     H62431   8.703   2.240   2.905  2.4450 -5.1214  0.5732
  473MOL0     H62432   8.465   2.328   2.997  0.0907 -1.2249 -0.0413
  473MOL0     H62433   8.538   2.379   3.143 -3.6071 -1.8607 -0.3260
  473MOL0     H62434   8.668   2.679   2.873 -2.2943  1.2997  0.7002
  473MOL0     H62435   8.614   1.837   3.103 -0.3561  0.4297  1.1385
  473MOL0     H62436   8.523   1.720   3.305  1.3090 -1.8293  1.2480
  474MOL0     O62437   0.344   2.009   4.342  0.0158 -0.3163  0.0161
  474MOL0     C62438   0.395   1.917   4.284 -0.2414  0.6445  0.6044
  474MOL0     O62439   0.323   1.820   4.218  0.2511  0.2556  0.0370
  474MOL0     C62440   0.198   1.845   4.186  0.3079 -0.3959  0.2414
  474MOL0     C62441   0.097   1.792   4.266  0.1981  0.2752  0.0547
  474MOL0     C62442  -0.037   1.809   4.230  0.0655 -0.4460  0.7004
  474MOL0     C62443  -0.074   1.880   4.114  0.3990 -0.1607  0.2258
  474MOL0     O62444  -0.202   1.913   4.070  0.0376 -0.0229  0.6607
  474MOL0     C62445  -0.320   1.870   4.131 -0.6929 -0.2092 -0.1080
  474MOL0     C62446  -0.408   2.001   4.096 -0.6469 -0.0891  0.3470
  474MOL0     C62447  -0.536   1.996   4.165  0.5431  0.0019  0.0185
  474MOL0     C62448  -0.630   2.121   4.144 -0.6158 -0.1333  0.4183
  474MOL0     C62449  -0.669   2.139   3.999  1.2763 -0.5843 -1.3581
  474MOL0     C62450  -0.796   2.217   3.980 -0.0269 -0.5413 -0.5997
  474MOL0     C62451  -0.853   2.209   3.839  0.2599 -0.9644 -0.3275
  474MOL0     C62452  -1.000   2.176   3.834  0.9307  0.2106 -0.1754
  474MOL0     N62453  -1.081   2.282   3.899  0.3098  0.4383 -0.0685
  474MOL0     C62454  -1.210   2.259   3.949 -1.6605 -0.1820  0.2463
  474MOL0     C62455  -1.264   2.379   3.961  0.3443  0.4391 -0.6126
  474MOL0     C62456  -1.413   2.397   4.012 -0.5622  0.2550  0.1479
  474MOL0     C62457  -1.402   2.442   4.157 -0.0703 -0.4494  0.1460
  474MOL0     C62458  -1.531   2.491   4.222 -0.6582  0.7050 -0.0696
  474MOL0     C62459  -1.504   2.540   4.374 -0.0988  0.3160  0.1694
  474MOL0     O62460  -1.511   2.425   4.460 -0.5364  0.3931 -0.0901
  474MOL0     C62461  -1.621   2.386   4.522 -0.0490 -0.1922 -1.1023
  474MOL0     C62462  -1.745   2.434   4.505  0.2487  0.5389  0.5211
  474MOL0     C62463  -1.857   2.393   4.595  0.1580  0.1890  0.3059
  474MOL0     C62464  -1.832   2.296   4.687 -0.1387 -0.0965  0.0270
  474MOL0     C62465  -1.947   2.241   4.766 -0.4178 -0.5512 -0.0977
  474MOL0     O62466  -2.063   2.297   4.751  0.4729 -0.2179 -0.7264
  474MOL0     C62467  -2.170   2.257   4.827 -0.4541 -1.1412 -0.3455
  474MOL0     C62468  -2.198   2.341   4.935  0.3100  0.0988  0.3198
  474MOL0     C62469  -2.310   2.317   5.011  0.5498  0.7873 -0.3321
  474MOL0     C62470  -2.400   2.210   4.988 -0.2110 -0.7636  0.3483
  474MOL0     O62471  -2.509   2.184   5.064  0.6412 -0.2532 -0.0479
  474MOL0     C62472  -2.492   2.091   5.164  0.4041 -0.2513 -0.5340
  474MOL0     C62473  -2.403   2.136   5.283  0.7786 -0.6812  0.9098
  474MOL0     C62474  -2.391   2.021   5.381  0.1031 -0.1790 -0.1902
  474MOL0     C62475  -2.518   1.992   5.460  0.6559 -0.3876  0.2147
  474MOL0     C62476  -2.494   1.889   5.571  0.5937  0.4329  0.1496
  474MOL0     C62477  -2.374   1.907   5.665 -0.5916 -0.2661 -0.0529
  474MOL0     C62478  -2.386   1.814   5.787  0.7107 -0.0367 -0.6833
  474MOL0     C62479  -2.302   1.685   5.772  0.0354  0.2098 -0.7433
  474MOL0    Cl62480  -2.343   1.577   5.908 -0.7096 -0.0039 -0.2132
  474MOL0     C62481  -2.380   2.140   4.875 -0.0572 -0.0077  0.1734
  474MOL0     C62482  -2.264   2.158   4.796  0.4141 -0.2529 -0.2173
  474MOL0     O62483  -1.918   2.154   4.848  0.1164 -0.0885  0.7625
  474MOL0     C62484  -1.705   2.269   4.709 -0.0381  0.5986 -0.0733
  474MOL0     C62485  -1.602   2.301   4.627 -0.5145  0.3304  1.0174
  474MOL0     N62486  -1.191   2.476   3.905 -0.2603  0.0443  0.0596
  474MOL0     N62487  -1.073   2.418   3.878 -0.1818  0.6899 -0.4970
  474MOL0     C62488   0.033   1.924   4.029  0.3825 -0.6054  1.1057
  474MOL0     C62489   0.166   1.915   4.073  0.1839 -0.7059 -0.6287
  474MOL0     C62490   0.544   1.908   4.269 -0.1876  0.3492  0.2585
  474MOL0     C62491   0.607   1.827   4.182  0.2935  0.7729  0.1565
  474MOL0     C62492   0.741   1.834   4.150 -1.1431  0.1377  0.0189
  474MOL0     C62493   0.827   1.935   4.206  0.9399  0.0638  0.7025
  474MOL0     O62494   0.957   1.962   4.186  0.5254 -0.0407  0.3273
  474MOL0     C62495   1.019   1.872   4.101 -0.2246 -0.4268 -0.1907
  474MOL0     C62496   1.172   1.901   4.113  0.9445 -1.0276 -0.1837
  474MOL0     C62497   1.207   2.050   4.105  0.2035 -0.1509 -0.0451
  474MOL0     C62498   1.352   2.056   4.046 -0.4247 -0.3088  0.3157
  474MOL0     C62499   1.353   2.024   3.906 -0.3407 -0.0822 -0.4702
  474MOL0     C62500   1.348   1.998   3.787  0.0959 -0.8174 -0.7886
  474MOL0     C62501   0.767   2.014   4.296 -0.6487  0.7198 -0.1393
  474MOL0     C62502   0.629   1.996   4.338 -0.8879 -0.2253  0.1998
  474MOL0     H62503   0.118   1.728   4.351  4.2334 -0.6399 -1.3586
  474MOL0     H62504  -0.113   1.782   4.303 -1.6149  0.8341 -0.4854
  474MOL0     H62505  -0.310   1.851   4.238 -1.5822  0.1718  0.0521
  474MOL0     H62506  -0.361   1.781   4.082 -3.6062  1.1969 -0.3758
  474MOL0     H62507  -0.423   1.998   3.988  2.0812 -4.6771 -0.1719
  474MOL0     H62508  -0.345   2.087   4.120  1.1489 -0.9045 -1.1982
  474MOL0     H62509  -0.513   1.979   4.270 -0.6391 -1.4353  0.0665
  474MOL0     H62510  -0.596   1.912   4.127 -0.0955  0.9601 -1.1860
  474MOL0     H62511  -0.718   2.116   4.210 -1.3487  0.6634 -0.4778
  474MOL0     H62512  -0.574   2.211   4.169  1.1895 -1.9739  3.6972
  474MOL0     H62513  -0.700   2.039   3.967 -2.8761 -0.4546  1.4541
  474MOL0     H62514  -0.585   2.180   3.942  2.1241  0.8717  0.7747
  474MOL0     H62515  -0.777   2.323   4.002 -0.4972 -1.2836  4.6413
  474MOL0     H62516  -0.860   2.185   4.063  1.7632  2.1337  2.0290
  474MOL0     H62517  -0.832   2.298   3.779 -2.2547 -1.8997 -2.8227
  474MOL0     H62518  -0.806   2.124   3.791  0.3393 -1.2823  0.2987
  474MOL0     H62519  -1.026   2.082   3.884  3.3184  0.2559  1.3142
  474MOL0     H62520  -1.026   2.170   3.728  1.1831  0.8720 -0.2744
  474MOL0     H62521  -1.261   2.163   3.957 -2.5948  0.2618 -0.2454
  474MOL0     H62522  -1.470   2.304   4.004 -0.0654 -0.0377 -0.0700
  474MOL0     H62523  -1.460   2.471   3.947 -1.0740  0.8947  1.2190
  474MOL0     H62524  -1.341   2.533   4.155 -1.1046  0.2945 -2.2548
  474MOL0     H62525  -1.354   2.367   4.219 -1.0856 -1.1655  0.0993
  474MOL0     H62526  -1.571   2.577   4.168 -2.1281 -0.7883 -1.4714
  474MOL0     H62527  -1.605   2.409   4.222  1.3151 -1.1752  0.6989
  474MOL0     H62528  -1.586   2.609   4.396 -0.9484 -0.1852 -1.2351
  474MOL0     H62529  -1.408   2.589   4.389 -1.2798  2.5704  0.9805
  474MOL0     H62530  -1.755   2.517   4.436  0.4566  0.4867  0.4299
  474MOL0     H62531  -1.953   2.443   4.585 -0.3887 -1.3316 -5.2211
  474MOL0     H62532  -2.133   2.424   4.961  1.6056 -1.3097  1.7985
  474MOL0     H62533  -2.339   2.386   5.090 -0.8469 -0.2634  0.1123
  474MOL0     H62534  -2.454   1.993   5.131  0.3876 -0.8289  1.0694
  474MOL0     H62535  -2.592   2.061   5.197 -0.3951 -0.1236 -2.6679
  474MOL0     H62536  -2.453   2.227   5.318 -0.0017 -1.1547  1.0531
  474MOL0     H62537  -2.301   2.163   5.253  0.3531  0.2806  0.2810
  474MOL0     H62538  -2.315   2.052   5.454 -0.7994 -0.1890  0.7727
  474MOL0     H62539  -2.355   1.941   5.316 -1.5920 -1.3130  0.1988
  474MOL0     H62540  -2.551   2.087   5.504 -0.1736 -0.4626 -0.2395
  474MOL0     H62541  -2.591   1.943   5.395  0.3096  1.7898 -1.1114
  474MOL0     H62542  -2.492   1.794   5.517  0.1631  1.2433 -1.3610
  474MOL0     H62543  -2.588   1.885   5.627  1.7231 -2.4980  2.0856
  474MOL0     H62544  -2.377   2.013   5.694 -1.7498  0.1740 -1.6756
  474MOL0     H62545  -2.283   1.880   5.610  1.8591 -0.9322  3.8852
  474MOL0     H62546  -2.371   1.856   5.887  2.1759  1.2302 -1.4058
  474MOL0     H62547  -2.492   1.791   5.800  0.1394  2.8353  0.5229
  474MOL0     H62548  -2.195   1.706   5.781  0.2114 -0.8818 -0.1264
  474MOL0     H62549  -2.322   1.647   5.671  2.0090 -1.7946 -0.4666
  474MOL0     H62550  -2.462   2.078   4.841  0.9516 -1.4499  0.2797
  474MOL0     H62551  -2.251   2.096   4.708 -3.8994 -1.7767  0.0071
  474MOL0     H62552  -1.694   2.197   4.790 -1.0010 -0.4417 -0.8355
  474MOL0     H62553  -1.504   2.262   4.653 -0.1513  1.0749  0.7940
  474MOL0     H62554   0.019   1.981   3.938 -2.2302 -0.3201  1.6008
  474MOL0     H62555   0.249   1.954   4.015  3.3429 -4.5793  0.8621
  474MOL0     H62556   0.541   1.754   4.136  0.0752  1.0701 -0.0007
  474MOL0     H62557   0.783   1.761   4.082  0.8208  0.6404  0.6308
  474MOL0     H62558   0.976   1.878   4.000 -4.1685 -2.2014  1.1862
  474MOL0     H62559   1.010   1.768   4.133 -1.7036  0.4664  2.5759
  474MOL0     H62560   1.196   1.872   4.215 -2.8267  3.0342  2.1672
  474MOL0     H62561   1.228   1.837   4.043  0.2501 -0.8589 -0.9122
  474MOL0     H62562   1.216   2.095   4.204 -1.9821  0.7265 -0.1837
  474MOL0     H62563   1.137   2.113   4.049  1.5879  2.6752  1.2355
  474MOL0     H62564   1.399   2.154   4.054  1.3362 -1.2913  4.1714
  474MOL0     H62565   1.413   1.993   4.111 -0.7091  0.5500  1.4563
  474MOL0     H62566   1.344   1.982   3.681 -1.2645  1.8004 -1.2224
  474MOL0     H62567   0.829   2.081   4.355 -0.1691  0.6759 -0.5822
  474MOL0     H62568   0.581   2.053   4.417  0.4337 -1.9487  2.3798
  475MOL0     O62569   8.208   8.809   7.212 -0.3184 -0.2926 -0.5714
  475MOL0     C62570   8.240   8.743   7.309 -0.1505 -0.5645 -0.3306
  475MOL0     O62571   8.168   8.711   7.421  0.3518 -0.8361 -0.7242
  475MOL0     C62572   8.030   8.735   7.431 -0.1431 -0.6975  0.0383
  475MOL0     C62573   7.977   8.747   7.562 -0.4011  0.0019 -0.8019
  475MOL0     C62574   7.833   8.746   7.571 -0.2833 -0.3092 -0.6341
  475MOL0     C62575   7.744   8.742   7.461  0.3817 -0.1694 -0.8270
  475MOL0     O62576   7.610   8.721   7.485 -0.4149  0.4587 -0.7305
  475MOL0     C62577   7.512   8.760   7.385 -0.3941  0.6615 -0.2426
  475MOL0     C62578   7.377   8.757   7.451  0.4834  0.0013  0.0116
  475MOL0     C62579   7.278   8.747   7.334 -0.5049 -0.7157 -0.3675
  475MOL0     C62580   7.279   8.874   7.249 -0.4984  0.3160  0.6604
  475MOL0     C62581   7.157   8.882   7.151 -0.1847  1.2934 -0.3437
  475MOL0     C62582   7.141   9.016   7.082 -0.1733 -0.1227 -0.3734
  475MOL0     C62583   7.008   9.016   7.005 -1.1219  0.5218 -0.6762
  475MOL0     C62584   6.965   9.159   6.973 -0.5137  0.2342 -0.0902
  475MOL0     N62585   6.875   9.159   6.863  0.0145 -0.1045  0.0736
  475MOL0     C62586   6.743   9.117   6.854  0.3182 -0.6151 -0.3746
  475MOL0     C62587   6.724   9.091   6.721  0.5910  0.2674 -0.9314
  475MOL0     C62588   6.611   9.017   6.653  0.7030 -0.3503  0.6310
  475MOL0     C62589   6.549   9.140   6.575  0.1444  0.5746  0.4342
  475MOL0     C62590   6.418   9.081   6.503  0.5938  0.5340 -0.1597
  475MOL0     C62591   6.332   9.194   6.455 -0.4546  0.1319 -0.5065
  475MOL0     O62592   6.214   9.154   6.384 -1.2304 -0.0128 -0.1661
  475MOL0     C62593   6.123   9.254   6.365  0.3605  0.3399 -0.8112
  475MOL0     C62594   6.145   9.397   6.366 -1.0159 -0.1961 -0.2675
  475MOL0     C62595   6.042   9.490   6.356 -0.6671 -0.0361  0.5331
  475MOL0     C62596   5.913   9.445   6.336 -0.0806 -0.3940 -0.3744
  475MOL0     C62597   5.800   9.537   6.313 -0.5946 -0.7100 -0.7449
  475MOL0     O62598   5.817   9.664   6.356 -0.1702  0.1003 -0.3338
  475MOL0     C62599   5.710   9.751   6.353  0.2427  0.1158  0.1129
  475MOL0     C62600   5.728   9.872   6.299 -0.1201  0.3967  0.1549
  475MOL0     C62601   5.626   9.968   6.304 -0.0119  0.2796  0.1715
  475MOL0     C62602   5.507   9.945   6.376  0.1159  0.4193 -0.3264
  475MOL0     O62603   5.419  10.049   6.381  0.5434  0.0030  0.2202
  475MOL0     C62604   5.302  10.033   6.471 -0.0193  0.0801 -0.0470
  475MOL0     C62605   5.251  10.154   6.504  0.7023 -0.4359  0.8263
  475MOL0     C62606   5.102  10.160   6.561  0.0968  0.3433 -0.0607
  475MOL0     C62607   5.030  10.296   6.565 -0.5640  0.3885  0.1972
  475MOL0     C62608   4.877  10.282   6.579 -0.7208  0.9696 -0.6672
  475MOL0     C62609   4.850  10.171   6.685  0.0130  0.6597  0.5903
  475MOL0     C62610   4.697  10.177   6.716 -0.2995 -0.2011  0.4409
  475MOL0     C62611   4.658  10.272   6.825  0.3379 -0.1894 -0.3692
  475MOL0    Cl62612   4.473  10.258   6.833 -0.3556 -0.2561 -0.3808
  475MOL0     C62613   5.485   9.819   6.426 -0.2365  0.2788  0.4478
  475MOL0     C62614   5.580   9.715   6.419  0.2430 -0.4630  0.7849
  475MOL0     O62615   5.698   9.480   6.274  0.0221  0.1871 -0.1929
  475MOL0     C62616   5.888   9.307   6.336 -0.2810  0.4250 -0.1382
  475MOL0     C62617   5.984   9.212   6.355 -0.5101  0.6159  0.2622
  475MOL0     N62618   6.834   9.130   6.654  0.2451 -0.5718 -0.3133
  475MOL0     N62619   6.932   9.157   6.736 -0.5176  0.2151 -0.1116
  475MOL0     C62620   7.804   8.739   7.338  0.2963  0.7505  1.0597
  475MOL0     C62621   7.941   8.730   7.321  0.2782  0.1410 -0.0420
  475MOL0     C62622   8.380   8.697   7.300  0.6054  0.2577  0.1595
  475MOL0     C62623   8.447   8.652   7.413 -0.5513  0.2360 -0.6916
  475MOL0     C62624   8.576   8.593   7.420 -0.7120 -0.3147  0.2075
  475MOL0     C62625   8.649   8.578   7.298  0.6215 -1.0314 -0.4173
  475MOL0     O62626   8.771   8.528   7.302  0.3947  0.1486  0.5573
  475MOL0     C62627   8.836   8.488   7.175  0.7563 -0.3797 -0.5049
  475MOL0     C62628   8.924   8.582   7.094  0.8187 -0.5383 -0.3382
  475MOL0     C62629   9.049   8.616   7.174 -0.6968  0.3934 -0.3847
  475MOL0     C62630   9.143   8.711   7.101 -0.0884 -0.5031  0.4242
  475MOL0     C62631   9.128   8.857   7.123  0.8931 -0.6620 -0.1309
  475MOL0     C62632   9.111   8.986   7.126  0.3843  0.2798  0.2988
  475MOL0     C62633   8.572   8.609   7.179  0.0433  0.2345 -0.2270
  475MOL0     C62634   8.444   8.671   7.181 -0.6109  0.1490  1.2588
  475MOL0     H62635   8.050   8.750   7.642  1.3215 -2.0235 -2.1816
  475MOL0     H62636   7.803   8.746   7.675 -1.4930 -2.5740 -0.9241
  475MOL0     H62637   7.513   8.691   7.300  0.0781 -0.8777  0.9594
  475MOL0     H62638   7.539   8.855   7.338 -0.5658  0.5081 -0.6582
  475MOL0     H62639   7.365   8.843   7.517  1.9816  0.3783 -0.1519
  475MOL0     H62640   7.364   8.674   7.521 -1.3887  2.7684  3.2184
  475MOL0     H62641   7.178   8.729   7.374 -1.5463 -0.1049 -2.4973
  475MOL0     H62642   7.308   8.654   7.286  3.1313 -2.5259  4.6096
  475MOL0     H62643   7.280   8.961   7.314  2.4284  2.1942 -1.6328
  475MOL0     H62644   7.374   8.864   7.196  0.9895  1.8711  2.8744
  475MOL0     H62645   7.073   8.851   7.213  1.2948  2.3037  2.3170
  475MOL0     H62646   7.158   8.803   7.075 -1.0549 -0.2977  1.2127
  475MOL0     H62647   7.232   9.043   7.027 -0.1219  0.9826  0.2170
  475MOL0     H62648   7.135   9.106   7.144 -1.0276  1.5564 -2.7289
  475MOL0     H62649   7.015   8.960   6.912 -2.1186  0.0015 -0.4534
  475MOL0     H62650   6.929   8.975   7.068 -1.2541 -1.2545 -1.9186
  475MOL0     H62651   7.056   9.217   6.953  1.7630 -3.2993 -0.9486
  475MOL0     H62652   6.926   9.201   7.065  1.5145 -1.8166  1.8526
  475MOL0     H62653   6.674   9.112   6.938 -2.0300 -2.2440 -2.2614
  475MOL0     H62654   6.542   8.969   6.724  1.1932 -0.0090  1.3574
  475MOL0     H62655   6.649   8.940   6.585  2.0406  1.1081 -0.3342
  475MOL0     H62656   6.617   9.182   6.501  0.8533  0.9679  1.3003
  475MOL0     H62657   6.534   9.210   6.657 -2.3314  1.0818 -0.3527
  475MOL0     H62658   6.447   9.016   6.420 -1.6984  1.0761 -1.4749
  475MOL0     H62659   6.350   9.026   6.569 -1.0996  0.6387 -1.7368
  475MOL0     H62660   6.400   9.253   6.393 -0.6844 -0.8597 -1.7496
  475MOL0     H62661   6.299   9.251   6.543 -1.5809 -2.5856  0.9379
  475MOL0     H62662   6.243   9.442   6.358 -1.2145  1.1629  3.1773
  475MOL0     H62663   6.058   9.597   6.344 -0.9395 -0.0572 -0.0291
  475MOL0     H62664   5.827   9.890   6.259  0.5551  2.0317  2.4080
  475MOL0     H62665   5.626  10.064   6.254  1.6601  0.5756  0.6894
  475MOL0     H62666   5.316   9.968   6.558  0.0050  3.4593  2.6879
  475MOL0     H62667   5.229   9.986   6.405 -0.3397 -3.2331  2.4023
  475MOL0     H62668   5.260  10.212   6.411  1.4039  1.2614  1.8973
  475MOL0     H62669   5.314  10.211   6.573 -1.0899  1.2870  1.1434
  475MOL0     H62670   5.095  10.117   6.661  0.8069  1.8057  0.6520
  475MOL0     H62671   5.050  10.088   6.498  1.9043  1.2628 -2.8366
  475MOL0     H62672   5.064  10.351   6.654 -0.9922  0.3787  0.3681
  475MOL0     H62673   5.052  10.363   6.482 -2.4331 -2.3428 -2.7097
  475MOL0     H62674   4.845  10.237   6.485  0.8514 -0.8371 -0.3852
  475MOL0     H62675   4.838  10.384   6.587 -1.8003  0.6693 -1.6974
  475MOL0     H62676   4.912  10.180   6.774  1.4316 -1.2030 -0.1229
  475MOL0     H62677   4.870  10.073   6.639 -1.7707  0.4276  0.2302
  475MOL0     H62678   4.647  10.194   6.621  1.3578 -1.1176 -0.6417
  475MOL0     H62679   4.682  10.076   6.755 -0.9303 -0.0933  0.4896
  475MOL0     H62680   4.692  10.372   6.795 -3.2466  0.2566 -3.6574
  475MOL0     H62681   4.707  10.246   6.920  0.1638 -2.5233 -0.8783
  475MOL0     H62682   5.384   9.796   6.458 -1.2263 -0.5622 -2.9309
  475MOL0     H62683   5.541   9.620   6.452 -2.6050  0.5651  0.6565
  475MOL0     H62684   5.787   9.274   6.316  0.5315 -2.8181  0.5493
  475MOL0     H62685   5.958   9.109   6.374 -3.9735  1.8539  3.4577
  475MOL0     H62686   7.734   8.740   7.255  0.9721  1.0737  0.4902
  475MOL0     H62687   7.972   8.712   7.219  2.5609  0.2850  0.5825
  475MOL0     H62688   8.401   8.659   7.511 -3.2654 -1.6373 -1.7256
  475MOL0     H62689   8.626   8.558   7.510 -1.5161  1.2210  1.3075
  475MOL0     H62690   8.749   8.454   7.117  0.0952 -1.9569  1.3235
  475MOL0     H62691   8.889   8.394   7.190  0.1965 -0.4762  1.0448
  475MOL0     H62692   8.957   8.537   7.000  3.6307  3.0111 -1.3205
  475MOL0     H62693   8.874   8.677   7.072  1.0892 -0.5195 -0.8886
  475MOL0     H62694   9.107   8.524   7.186  1.1525  1.3888 -1.2630
  475MOL0     H62695   9.022   8.652   7.273  1.8269  0.3092  0.4015
  475MOL0     H62696   9.248   8.686   7.123  0.9978  4.0533  1.4983
  475MOL0     H62697   9.136   8.683   6.996 -3.3964  2.5263 -0.3721
  475MOL0     H62698   9.118   9.093   7.135  0.8786  0.1899  1.1474
  475MOL0     H62699   8.608   8.584   7.080 -2.1644 -1.2690 -0.7476
  475MOL0     H62700   8.390   8.689   7.089 -2.0022 -0.7906  1.8593
  476MOL0     O62701   8.268   4.500   4.160 -0.9459  0.6980  0.1426
  476MOL0     C62702   8.326   4.397   4.189  0.1126  0.3189  0.5490
  476MOL0     O62703   8.278   4.286   4.247  0.4274  0.1534 -0.2430
  476MOL0     C62704   8.151   4.288   4.304 -0.2984 -0.5671  0.8008
  476MOL0     C62705   8.068   4.179   4.301  0.2965 -0.3632  0.0688
  476MOL0     C62706   7.944   4.169   4.358 -0.6064  0.5081  0.4682
  476MOL0     C62707   7.892   4.285   4.417  0.1142 -0.3588  0.1728
  476MOL0     O62708   7.768   4.282   4.460  0.1908  0.2283 -1.0342
  476MOL0     C62709   7.696   4.372   4.375  0.3927 -0.0273 -0.3699
  476MOL0     C62710   7.554   4.381   4.426 -0.8579  0.6844 -0.3234
  476MOL0     C62711   7.464   4.260   4.361 -0.1683 -0.0116 -0.1910
  476MOL0     C62712   7.440   4.271   4.209 -0.1408 -0.1939  0.8838
  476MOL0     C62713   7.312   4.198   4.160  0.2484  0.1063 -0.3951
  476MOL0     C62714   7.330   4.051   4.171  0.2946  1.0862  0.4573
  476MOL0     C62715   7.198   3.994   4.114  0.2597  0.6246  0.2218
  476MOL0     C62716   7.210   3.836   4.114 -0.0974  0.5245 -1.0669
  476MOL0     N62717   7.092   3.753   4.080  0.7374  0.0731  0.2007
  476MOL0     C62718   7.042   3.754   3.953 -0.1629 -0.2243 -0.0434
  476MOL0     C62719   6.940   3.660   3.946 -0.3180 -0.4361  0.9336
  476MOL0     C62720   6.863   3.610   3.832  0.5504 -0.1676  0.7456
  476MOL0     C62721   6.723   3.677   3.845  0.1860  0.2477  0.2956
  476MOL0     C62722   6.614   3.625   3.744  0.4959  0.3777 -0.9218
  476MOL0     C62723   6.558   3.494   3.798  0.6274  0.4641  0.3144
  476MOL0     O62724   6.443   3.453   3.723 -0.0473 -0.4117  0.0487
  476MOL0     C62725   6.317   3.470   3.773 -0.5470 -0.8419 -1.5350
  476MOL0     C62726   6.282   3.554   3.884 -0.0005  0.4653  0.1685
  476MOL0     C62727   6.144   3.560   3.927 -0.3801 -0.5510 -0.9944
  476MOL0     C62728   6.049   3.489   3.854 -0.8796  1.5198 -0.1937
  476MOL0     C62729   5.909   3.496   3.886 -0.0900  0.4400  0.1115
  476MOL0     O62730   5.883   3.599   3.969  0.6053  0.1239 -0.2138
  476MOL0     C62731   5.748   3.622   4.003 -0.3161 -0.3736  0.2059
  476MOL0     C62732   5.716   3.701   4.122  0.0816  0.6036  0.1422
  476MOL0     C62733   5.583   3.716   4.156 -0.0170 -0.8134 -0.1525
  476MOL0     C62734   5.472   3.669   4.079  0.0936 -0.0554  0.4868
  476MOL0     O62735   5.341   3.669   4.114  0.1441 -0.5061  0.0810
  476MOL0     C62736   5.303   3.783   4.187  0.0042 -0.7743  0.1492
  476MOL0     C62737   5.150   3.802   4.177 -0.6751 -0.2169  0.0092
  476MOL0     C62738   5.097   3.836   4.042 -0.0047 -0.3394 -0.2564
  476MOL0     C62739   5.132   3.979   4.006  0.8898 -0.3742 -0.9996
  476MOL0     C62740   5.071   4.015   3.876  0.1933  0.6241 -0.4451
  476MOL0     C62741   5.109   3.930   3.752 -0.6177  0.0142  0.1812
  476MOL0     C62742   5.261   3.949   3.724 -0.4482 -0.5260 -0.4206
  476MOL0     C62743   5.304   3.903   3.584  0.6573 -0.7070  0.6154
  476MOL0    Cl62744   5.238   3.739   3.562 -0.0855  0.1550  0.2171
  476MOL0     C62745   5.502   3.609   3.959  0.6896 -0.8251 -0.2437
  476MOL0     C62746   5.637   3.582   3.925 -0.6480  0.2221 -0.4343
  476MOL0     O62747   5.844   3.391   3.882  0.2757  0.4304  0.8084
  476MOL0     C62748   6.079   3.428   3.730 -0.6554  0.4510  0.9122
  476MOL0     C62749   6.216   3.415   3.705 -0.5934  1.2373  1.1006
  476MOL0     N62750   6.934   3.613   4.081  0.3469 -0.6563 -0.2951
  476MOL0     N62751   7.024   3.665   4.155  0.4669 -0.1670  0.3860
  476MOL0     C62752   7.980   4.400   4.435 -0.3243 -0.0382 -1.2705
  476MOL0     C62753   8.101   4.403   4.368 -0.0711  0.0174  0.2581
  476MOL0     C62754   8.464   4.388   4.140 -1.0465  0.1523 -0.3764
  476MOL0     C62755   8.543   4.294   4.199 -0.6172 -1.0077  0.0968
  476MOL0     C62756   8.679   4.299   4.162  0.2190  0.3698  0.1877
  476MOL0     C62757   8.732   4.399   4.081  0.0511  0.0084  0.3031
  476MOL0     O62758   8.867   4.415   4.072  0.2602  0.7316  0.2242
  476MOL0     C62759   8.928   4.305   3.996 -1.0453 -0.0399 -0.5578
  476MOL0     C62760   9.073   4.291   4.062  1.4993 -0.2137  0.5170
  476MOL0     C62761   9.158   4.193   3.987 -0.8899 -0.7522 -0.0908
  476MOL0     C62762   9.293   4.169   4.060 -0.4363  0.3231 -0.6759
  476MOL0     C62763   9.367   4.058   4.000  0.4824  0.5383  0.5866
  476MOL0     C62764   9.409   3.943   3.976  0.6853  0.2394 -0.9753
  476MOL0     C62765   8.651   4.492   4.022  0.8479 -0.3178 -0.0425
  476MOL0     C62766   8.518   4.481   4.053 -0.0235 -0.4550  1.0946
  476MOL0     H62767   8.106   4.089   4.254  2.8127  0.8063 -0.3044
  476MOL0     H62768   7.885   4.079   4.344 -1.3281  1.1980 -1.1807
  476MOL0     H62769   7.686   4.340   4.271 -2.3519 -0.4581 -0.0246
  476MOL0     H62770   7.743   4.471   4.376 -0.3050  0.3291  1.7247
  476MOL0     H62771   7.516   4.477   4.387 -1.0155  2.0727  2.9163
  476MOL0     H62772   7.554   4.380   4.535  5.4412 -3.1072  0.1291
  476MOL0     H62773   7.369   4.261   4.414 -1.3448  0.5218 -2.1721
  476MOL0     H62774   7.519   4.168   4.383  0.1432  0.2438  0.1021
  476MOL0     H62775   7.419   4.375   4.184 -0.2721 -0.3311  0.4232
  476MOL0     H62776   7.526   4.235   4.151  0.2714  1.8578  0.1527
  476MOL0     H62777   7.302   4.225   4.055 -0.3616  0.0628 -0.3512
  476MOL0     H62778   7.227   4.230   4.221 -0.0182 -1.2067 -0.0418
  476MOL0     H62779   7.334   4.030   4.278 -0.9680 -0.3269  0.2655
  476MOL0     H62780   7.419   4.015   4.117  0.2834  1.4297  0.2041
  476MOL0     H62781   7.115   4.033   4.174 -0.5999 -0.1947 -0.4222
  476MOL0     H62782   7.180   4.032   4.014 -1.2277 -2.6135 -0.8662
  476MOL0     H62783   7.222   3.799   4.216 -4.0245 -0.1748 -0.6904
  476MOL0     H62784   7.296   3.807   4.053  1.8012  0.7654  1.3599
  476MOL0     H62785   7.073   3.801   3.860  2.1265 -1.3231  0.1045
  476MOL0     H62786   6.859   3.503   3.808  2.0594  0.1566 -1.3084
  476MOL0     H62787   6.905   3.659   3.744  0.9343  0.2114  1.1393
  476MOL0     H62788   6.738   3.785   3.858  1.1424  0.0446  1.0116
  476MOL0     H62789   6.686   3.655   3.946  0.0605  1.0408  0.4337
  476MOL0     H62790   6.531   3.695   3.731 -0.7890 -0.7788  0.6048
  476MOL0     H62791   6.666   3.610   3.649  0.6281 -0.9849 -0.6424
  476MOL0     H62792   6.540   3.497   3.906  2.9205 -0.9652  0.7861
  476MOL0     H62793   6.643   3.426   3.788  1.7537  2.1493 -4.1908
  476MOL0     H62794   6.358   3.608   3.939  1.2689 -0.0372 -1.0264
  476MOL0     H62795   6.116   3.616   4.016  0.1074  1.0599 -1.8122
  476MOL0     H62796   5.797   3.747   4.176  2.3822 -0.8223 -1.8727
  476MOL0     H62797   5.557   3.761   4.251  0.5329 -2.0766  0.6308
  476MOL0     H62798   5.351   3.864   4.131 -0.0244 -2.8807 -3.1774
  476MOL0     H62799   5.331   3.781   4.292  1.0190  4.5532  0.2620
  476MOL0     H62800   5.131   3.884   4.247 -0.4119 -0.9124  0.9253
  476MOL0     H62801   5.104   3.708   4.210  1.9687 -1.3140  0.8391
  476MOL0     H62802   4.989   3.827   4.056 -0.3857  1.5258 -1.5755
  476MOL0     H62803   5.134   3.766   3.967  0.2425 -1.8138  1.1842
  476MOL0     H62804   5.100   4.049   4.084  0.9050 -2.7967  1.3390
  476MOL0     H62805   5.241   3.972   3.995  1.1206  2.6411 -1.5779
  476MOL0     H62806   5.093   4.120   3.854 -2.1634  1.2249 -0.2588
  476MOL0     H62807   4.963   4.017   3.892  0.1839 -0.4222 -0.3368
  476MOL0     H62808   5.060   3.967   3.661  1.7265  0.6315 -0.9002
  476MOL0     H62809   5.095   3.822   3.763 -1.8670 -0.2836 -3.0733
  476MOL0     H62810   5.290   4.053   3.741 -0.0061 -0.2269 -2.6476
  476MOL0     H62811   5.315   3.882   3.790  0.4878 -0.9732 -1.6006
  476MOL0     H62812   5.411   3.884   3.571  0.4171 -1.9640  0.4080
  476MOL0     H62813   5.261   3.967   3.507 -2.9884 -0.3472  2.6973
  476MOL0     H62814   5.424   3.583   3.888  2.7697 -1.2875 -2.4930
  476MOL0     H62815   5.656   3.524   3.836 -3.1663 -1.1468 -0.1773
  476MOL0     H62816   6.017   3.377   3.658 -0.0560 -0.2353  0.8736
  476MOL0     H62817   6.246   3.360   3.616  0.5611 -1.5759  3.0909
  476MOL0     H62818   7.962   4.488   4.496  1.0783 -0.2862 -0.4508
  476MOL0     H62819   8.142   4.502   4.385  0.0755 -0.1535  0.9178
  476MOL0     H62820   8.500   4.224   4.269 -0.1623 -0.3880  1.0142
  476MOL0     H62821   8.749   4.230   4.208  0.1697 -0.1326 -0.4822
  476MOL0     H62822   8.929   4.339   3.892  0.5986  1.0529 -0.2138
  476MOL0     H62823   8.868   4.214   4.006  1.0968 -1.5244 -0.4732
  476MOL0     H62824   9.123   4.388   4.071  1.8026 -0.2850 -0.3570
  476MOL0     H62825   9.055   4.262   4.166  3.8593  1.8157  1.6040
  476MOL0     H62826   9.171   4.218   3.881 -0.5703  2.2509  0.5659
  476MOL0     H62827   9.102   4.099   3.982  0.0739 -1.3508  0.1567
  476MOL0     H62828   9.348   4.264   4.057  1.7251 -0.7645  1.5141
  476MOL0     H62829   9.276   4.142   4.164  2.8089  4.4980  1.2542
  476MOL0     H62830   9.447   3.843   3.968 -0.1281 -0.0774 -0.9809
  476MOL0     H62831   8.689   4.565   3.951 -0.3459  1.4282  1.0566
  476MOL0     H62832   8.439   4.541   4.008 -0.4560 -2.7569 -1.4845
  477MOL0     O62833   3.754   9.240   5.929  0.4035  0.0238  0.1302
  477MOL0     C62834   3.848   9.200   6.003  0.2254  0.1255  0.1224
  477MOL0     O62835   3.833   9.108   6.108  0.6285 -0.2840  0.7263
  477MOL0     C62836   3.721   9.048   6.146 -0.0279 -0.2375  0.7076
  477MOL0     C62837   3.593   9.105   6.151 -0.4452 -0.2913  0.4340
  477MOL0     C62838   3.482   9.033   6.187 -0.9838  1.3820  0.8019
  477MOL0     C62839   3.492   8.898   6.235 -1.0426 -0.0113 -0.9577
  477MOL0     O62840   3.388   8.814   6.285 -0.2491  0.1085  0.0561
  477MOL0     C62841   3.256   8.838   6.239  0.1989  0.7324  0.3193
  477MOL0     C62842   3.191   8.704   6.207  0.4502  0.5775  0.7746
  477MOL0     C62843   3.116   8.637   6.321 -0.0833 -0.0389 -1.0894
  477MOL0     C62844   2.988   8.698   6.360  0.0853  0.0976 -0.7836
  477MOL0     C62845   2.914   8.637   6.483  0.0343  0.6995  0.4772
  477MOL0     C62846   2.770   8.688   6.499  1.2422 -0.0293  0.3488
  477MOL0     C62847   2.684   8.649   6.620 -0.1985  0.0971 -0.0115
  477MOL0     C62848   2.592   8.527   6.585 -0.0067 -0.0521 -0.0785
  477MOL0     N62849   2.482   8.569   6.496  0.4304 -0.5109 -0.2720
  477MOL0     C62850   2.407   8.681   6.518 -0.2646 -0.2724  0.1969
  477MOL0     C62851   2.310   8.688   6.425 -0.7380  0.8239  0.1233
  477MOL0     C62852   2.204   8.794   6.414 -0.4337  0.1985 -0.4505
  477MOL0     C62853   2.117   8.784   6.544  0.6252 -0.0272 -0.0060
  477MOL0     C62854   1.986   8.869   6.543 -0.7442 -0.0809 -0.2923
  477MOL0     C62855   1.888   8.839   6.654 -0.1874 -0.4820  0.1094
  477MOL0     O62856   1.772   8.923   6.647 -0.1017 -0.1385 -0.1138
  477MOL0     C62857   1.663   8.885   6.568 -0.3245 -0.5644 -0.6266
  477MOL0     C62858   1.658   8.766   6.492 -1.1994 -0.3933  0.6377
  477MOL0     C62859   1.536   8.737   6.431  0.1010 -0.3957 -0.4273
  477MOL0     C62860   1.418   8.807   6.452  0.2443  0.0773 -0.8141
  477MOL0     C62861   1.285   8.747   6.401  0.0107  0.5916 -1.0636
  477MOL0     O62862   1.284   8.639   6.326 -0.6552  0.0512  0.1561
  477MOL0     C62863   1.166   8.589   6.272  0.2619  0.4557 -0.2314
  477MOL0     C62864   1.094   8.481   6.345  0.0942 -0.3369  0.0152
  477MOL0     C62865   0.977   8.422   6.297  0.0679 -0.6101 -0.7309
  477MOL0     C62866   0.929   8.466   6.175 -0.3346 -0.5154  0.0108
  477MOL0     O62867   0.813   8.405   6.128 -0.5323  0.1112 -0.2650
  477MOL0     C62868   0.730   8.454   6.016 -1.1227 -0.7895 -0.2704
  477MOL0     C62869   0.616   8.357   5.994 -0.0775 -0.1351  0.0288
  477MOL0     C62870   0.509   8.420   5.891 -0.7484 -0.2586  0.0512
  477MOL0     C62871   0.382   8.331   5.885  0.4095  0.3651 -0.2703
  477MOL0     C62872   0.290   8.377   5.770  0.7681 -0.4046 -0.2426
  477MOL0     C62873   0.171   8.283   5.765  0.0714 -0.1439  0.5186
  477MOL0     C62874   0.049   8.367   5.718 -0.9960 -0.5248 -0.3223
  477MOL0     C62875  -0.053   8.269   5.697  0.7924  1.2296 -0.5831
  477MOL0    Cl62876  -0.178   8.326   5.580  0.6771 -0.4666 -0.2393
  477MOL0     C62877   0.989   8.577   6.105  0.7567 -0.6742 -0.8120
  477MOL0     C62878   1.111   8.624   6.154  0.7751 -0.6118  0.1867
  477MOL0     O62879   1.180   8.804   6.438 -0.2583 -0.6140 -0.5516
  477MOL0     C62880   1.425   8.924   6.519 -0.6293 -0.2028 -0.5276
  477MOL0     C62881   1.544   8.960   6.582  0.0830  0.1765  0.4231
  477MOL0     N62882   2.336   8.586   6.337  0.3249 -0.2060  0.0477
  477MOL0     N62883   2.424   8.512   6.388 -0.0060 -0.5222  0.1682
  477MOL0     C62884   3.617   8.847   6.239 -0.3025  0.9511  0.6735
  477MOL0     C62885   3.739   8.915   6.197  0.1501 -0.3564  0.7017
  477MOL0     C62886   3.979   9.256   5.991 -0.7168  0.5779  0.1780
  477MOL0     C62887   3.998   9.376   5.909  0.8218  0.7348 -0.3727
  477MOL0     C62888   4.129   9.423   5.880  0.4305 -0.8358 -0.1002
  477MOL0     C62889   4.243   9.360   5.937  0.0119 -0.5533  0.2601
  477MOL0     O62890   4.366   9.397   5.912 -0.4583 -0.0670  0.1475
  477MOL0     C62891   4.387   9.486   5.802 -0.4512  0.7303  0.0544
  477MOL0     C62892   4.539   9.497   5.805  0.2980  0.3444 -0.5368
  477MOL0     C62893   4.599   9.576   5.687 -0.1421 -1.1552 -0.3296
  477MOL0     C62894   4.754   9.588   5.690 -0.7651 -0.1522  0.2478
  477MOL0     C62895   4.787   9.693   5.793 -0.9086  0.7279  0.4839
  477MOL0     C62896   4.804   9.772   5.886 -0.2715  0.2418  1.0016
  477MOL0     C62897   4.217   9.252   6.016  0.0132 -0.5545 -0.2647
  477MOL0     C62898   4.090   9.197   6.054 -0.6761  1.2883  0.6457
  477MOL0     H62899   3.587   9.211   6.127  2.6242 -0.0197  0.5385
  477MOL0     H62900   3.385   9.082   6.177 -1.0557  0.8534 -1.6896
  477MOL0     H62901   3.251   8.892   6.144 -0.8722 -1.4767 -0.9585
  477MOL0     H62902   3.197   8.891   6.315  1.2081 -0.3647  1.9070
  477MOL0     H62903   3.275   8.643   6.173 -1.3872 -1.9361  0.4247
  477MOL0     H62904   3.119   8.707   6.125  1.5497  0.6455 -0.2248
  477MOL0     H62905   3.176   8.640   6.412 -1.3280 -0.2477 -0.2349
  477MOL0     H62906   3.099   8.531   6.304 -1.6040 -0.1789  0.9341
  477MOL0     H62907   3.012   8.801   6.387  1.0802 -0.1810 -0.5688
  477MOL0     H62908   2.911   8.697   6.283  0.3514 -1.3576 -1.0603
  477MOL0     H62909   2.971   8.661   6.573 -1.2523  3.9187  0.5647
  477MOL0     H62910   2.916   8.527   6.484  1.9398  0.6975 -0.0409
  477MOL0     H62911   2.710   8.647   6.417 -0.2068 -2.3135  2.4360
  477MOL0     H62912   2.766   8.797   6.495 -0.1825  0.1801  3.8637
  477MOL0     H62913   2.754   8.608   6.694 -0.3499 -0.6314 -0.2590
  477MOL0     H62914   2.620   8.730   6.655 -3.2691 -1.7570 -1.0089
  477MOL0     H62915   2.548   8.488   6.677 -1.7279 -1.5026 -1.4495
  477MOL0     H62916   2.653   8.449   6.539  1.3093  2.4466 -2.9517
  477MOL0     H62917   2.428   8.759   6.591  1.0047  0.5090 -0.9477
  477MOL0     H62918   2.155   8.789   6.316  0.8930 -1.0626 -1.0851
  477MOL0     H62919   2.253   8.891   6.406 -0.9506  0.3336 -2.3655
  477MOL0     H62920   2.173   8.799   6.636 -1.3117 -1.3572  1.4855
  477MOL0     H62921   2.079   8.681   6.547 -0.9035  0.4051 -2.0488
  477MOL0     H62922   2.013   8.974   6.558 -0.4774 -0.3059  0.9576
  477MOL0     H62923   1.932   8.858   6.449 -0.4148  0.2019 -0.5175
  477MOL0     H62924   1.945   8.851   6.747  0.0435 -0.5865 -0.0188
  477MOL0     H62925   1.858   8.734   6.648  4.2927 -1.9023 -1.5671
  477MOL0     H62926   1.742   8.702   6.465  1.1499  1.3089  3.2813
  477MOL0     H62927   1.532   8.643   6.378  1.0756 -2.0613  2.2932
  477MOL0     H62928   1.152   8.453   6.433  0.8063 -1.4470 -0.7725
  477MOL0     H62929   0.929   8.345   6.356 -0.0134 -0.0755 -0.0875
  477MOL0     H62930   0.801   8.451   5.933  0.6464 -0.8085  1.2020
  477MOL0     H62931   0.703   8.559   6.030  0.0362 -0.2340 -1.9406
  477MOL0     H62932   0.560   8.355   6.088 -1.0578 -1.4055 -0.5522
  477MOL0     H62933   0.662   8.261   5.969 -0.2182 -0.2993  0.3894
  477MOL0     H62934   0.561   8.440   5.797 -1.4892  1.1663 -0.0825
  477MOL0     H62935   0.485   8.522   5.922  0.4974  1.0337 -2.8816
  477MOL0     H62936   0.394   8.224   5.865 -0.1089  0.1873  0.3416
  477MOL0     H62937   0.313   8.342   5.969 -2.1059 -3.7198 -1.4594
  477MOL0     H62938   0.341   8.368   5.673 -0.9380  0.5303 -1.2785
  477MOL0     H62939   0.272   8.482   5.792 -1.5941 -1.0559  1.3590
  477MOL0     H62940   0.144   8.238   5.861 -0.0542 -1.4347 -0.0980
  477MOL0     H62941   0.198   8.202   5.697  0.5963  0.5649 -0.1384
  477MOL0     H62942   0.019   8.432   5.800  0.9448 -0.8404  0.6906
  477MOL0     H62943   0.071   8.418   5.624  2.3730  4.1490  2.5570
  477MOL0     H62944  -0.096   8.225   5.788 -1.4364  1.0991 -1.6400
  477MOL0     H62945  -0.002   8.187   5.645 -1.9764 -1.0067  0.0087
  477MOL0     H62946   0.948   8.614   6.011 -1.7894  0.3207  0.5984
  477MOL0     H62947   1.158   8.701   6.094 -0.2226  0.6570  0.9795
  477MOL0     H62948   1.339   8.988   6.536 -0.4554 -0.3293  0.8861
  477MOL0     H62949   1.535   9.049   6.642  0.0955 -0.0310  0.7318
  477MOL0     H62950   3.622   8.745   6.275  1.0818  0.7619  0.0081
  477MOL0     H62951   3.838   8.870   6.201  0.0854 -0.6977 -1.0219
  477MOL0     H62952   3.911   9.421   5.863 -0.3876 -2.0189 -0.9962
  477MOL0     H62953   4.138   9.505   5.809 -2.6763 -2.7988 -3.0843
  477MOL0     H62954   4.340   9.584   5.816 -0.3946  0.2948  5.8937
  477MOL0     H62955   4.358   9.445   5.705 -1.6738 -1.9874  1.4529
  477MOL0     H62956   4.573   9.535   5.902 -0.5589  2.7778 -1.0995
  477MOL0     H62957   4.570   9.393   5.796  3.4092  0.8368  2.4579
  477MOL0     H62958   4.552   9.675   5.680  0.8814 -0.6432 -0.0990
  477MOL0     H62959   4.574   9.537   5.588  0.1227 -0.5244 -0.6571
  477MOL0     H62960   4.802   9.493   5.717 -1.6688 -0.7462 -0.1807
  477MOL0     H62961   4.796   9.637   5.602  0.3212  0.7047  1.2141
  477MOL0     H62962   4.818   9.844   5.964 -2.5072  0.1466  1.5608
  477MOL0     H62963   4.303   9.198   6.055  2.3560  2.3481 -0.9241
  477MOL0     H62964   4.072   9.114   6.122 -0.1911  2.3388  2.1128
  478MOL0     O62965   6.002   4.009   0.372 -0.3733  0.0446  0.1914
  478MOL0     C62966   5.947   4.034   0.479  0.7990 -1.0254 -0.5948
  478MOL0     O62967   6.008   4.083   0.587  0.4194 -0.6163  0.5484
  478MOL0     C62968   6.142   4.114   0.597 -0.3807 -0.2285  0.0181
  478MOL0     C62969   6.244   4.019   0.579 -0.3946 -0.3523  0.1666
  478MOL0     C62970   6.381   4.052   0.593  0.0728 -0.6004 -0.6221
  478MOL0     C62971   6.420   4.184   0.637  0.2341  0.2759 -0.0088
  478MOL0     O62972   6.548   4.225   0.667  0.0613 -0.2980 -0.0878
  478MOL0     C62973   6.653   4.150   0.607 -0.0442  0.6390  0.0847
  478MOL0     C62974   6.789   4.217   0.628 -0.4248  0.2974  0.1380
  478MOL0     C62975   6.906   4.126   0.571 -1.0899  0.2128  0.7661
  478MOL0     C62976   6.977   4.191   0.445  0.1869 -0.2062 -0.5494
  478MOL0     C62977   7.121   4.138   0.428  0.2074  0.4357 -0.2163
  478MOL0     C62978   7.209   4.188   0.531 -0.1351  0.2510 -0.0595
  478MOL0     C62979   7.222   4.345   0.544  0.5248  0.5965 -0.0985
  478MOL0     C62980   7.347   4.386   0.632  0.5127  0.5442  0.1416
  478MOL0     N62981   7.460   4.397   0.546 -0.3135 -0.1790 -0.2896
  478MOL0     C62982   7.525   4.516   0.521 -1.0743 -0.3578  0.3328
  478MOL0     C62983   7.646   4.473   0.476 -0.9374 -0.7975 -0.1132
  478MOL0     C62984   7.760   4.565   0.449 -0.2302  1.2817 -0.1744
  478MOL0     C62985   7.891   4.518   0.521  0.7162  0.3697 -0.5678
  478MOL0     C62986   8.010   4.597   0.489 -0.9180  0.2865 -0.3914
  478MOL0     C62987   8.139   4.518   0.521 -0.0381  0.6247 -0.3724
  478MOL0     O62988   8.235   4.610   0.477  0.7847 -0.0051  1.0117
  478MOL0     C62989   8.361   4.588   0.498 -0.0833  0.0512  0.1869
  478MOL0     C62990   8.421   4.464   0.533  0.5410  0.4371  0.6683
  478MOL0     C62991   8.563   4.450   0.547 -0.5777 -0.0362 -0.1370
  478MOL0     C62992   8.645   4.569   0.531  0.2752  0.1784  0.8001
  478MOL0     C62993   8.797   4.562   0.525  0.0749  0.1415 -0.0885
  478MOL0     O62994   8.843   4.452   0.588 -0.3108  0.1789 -0.9935
  478MOL0     C62995   8.980   4.443   0.573  0.6609  0.1577  0.8070
  478MOL0     C62996   9.072   4.530   0.638 -0.0124  0.1877 -1.6354
  478MOL0     C62997   9.212   4.500   0.633  0.2244 -0.2376  0.6909
  478MOL0     C62998   9.251   4.385   0.567 -0.1130 -0.7297  0.7042
  478MOL0     O62999   9.389   4.357   0.561  0.3375  0.1528 -0.0158
  478MOL0     C63000   9.437   4.335   0.428 -0.1609 -0.1069  0.7439
  478MOL0     C63001   9.537   4.223   0.452 -0.4048  0.7830  0.5594
  478MOL0     C63002   9.668   4.264   0.526  0.3590  0.2207  0.7813
  478MOL0     C63003   9.785   4.201   0.464  0.1914  0.1600  0.3288
  478MOL0     C63004   9.912   4.211   0.550  0.6755  0.0189  0.0774
  478MOL0     C63005  10.032   4.173   0.459  0.2311  0.3287 -1.1798
  478MOL0     C63006  10.155   4.132   0.555 -0.3877 -0.4554 -0.4264
  478MOL0     C63007  10.290   4.157   0.486  0.3972  0.2471 -0.2002
  478MOL0    Cl63008  10.302   4.326   0.425 -0.0214  0.0429  0.2453
  478MOL0     C63009   9.157   4.299   0.517  0.1419 -0.3989 -0.1723
  478MOL0     C63010   9.024   4.326   0.510  0.2680 -0.1838 -0.7921
  478MOL0     O63011   8.861   4.657   0.481 -0.2576 -0.1600 -0.6064
  478MOL0     C63012   8.582   4.688   0.502 -0.3529  0.6524  0.4471
  478MOL0     C63013   8.447   4.693   0.474 -0.4782  0.0006  0.0867
  478MOL0     N63014   7.637   4.339   0.438 -0.5291 -0.2698 -0.0915
  478MOL0     N63015   7.524   4.293   0.490  0.2007  0.5230  0.5109
  478MOL0     C63016   6.318   4.271   0.663  0.0968  0.2319 -0.5987
  478MOL0     C63017   6.180   4.240   0.641  0.7029 -0.2391  0.9737
  478MOL0     C63018   5.798   4.015   0.491  0.5231  0.9323  1.6442
  478MOL0     C63019   5.722   4.013   0.370 -0.3192  0.7986  0.1239
  478MOL0     C63020   5.582   4.011   0.374 -0.3842 -0.8458  0.4262
  478MOL0     C63021   5.521   4.002   0.496  0.3007  0.3629  0.1261
  478MOL0     O63022   5.383   4.010   0.497 -0.1891  0.4982  0.8063
  478MOL0     C63023   5.317   3.888   0.536  1.0890  0.3799  0.0214
  478MOL0     C63024   5.313   3.777   0.428  0.4017 -0.1325 -0.1213
  478MOL0     C63025   5.224   3.663   0.472 -0.8383  0.3940 -0.6238
  478MOL0     C63026   5.073   3.685   0.451 -1.3947 -0.1983 -0.2347
  478MOL0     C63027   5.031   3.646   0.323 -0.3511  0.0276 -0.5131
  478MOL0     C63028   4.971   3.607   0.225 -0.0874 -0.0651 -0.0505
  478MOL0     C63029   5.595   4.004   0.617  0.2830 -0.2476 -0.3862
  478MOL0     C63030   5.733   4.007   0.615  0.1618  1.2727  0.1448
  478MOL0     H63031   6.215   3.922   0.541  3.6114 -0.5468 -3.0994
  478MOL0     H63032   6.453   3.974   0.571  2.8785  1.7529 -0.4599
  478MOL0     H63033   6.625   4.139   0.501 -0.0837  0.9809  0.0579
  478MOL0     H63034   6.654   4.054   0.660  0.1149 -0.3000 -1.5172
  478MOL0     H63035   6.806   4.232   0.735  0.0384  0.3177  0.0671
  478MOL0     H63036   6.795   4.316   0.580 -0.2246  0.4129  0.3981
  478MOL0     H63037   6.863   4.033   0.534 -0.4046  0.9454 -2.0771
  478MOL0     H63038   6.970   4.096   0.654  0.6965  0.5306 -0.4309
  478MOL0     H63039   6.915   4.159   0.361 -1.4782 -1.1612  0.9646
  478MOL0     H63040   6.967   4.300   0.449 -1.1584 -0.3507  2.0789
  478MOL0     H63041   7.151   4.173   0.329  1.1281  0.5444  0.0935
  478MOL0     H63042   7.119   4.029   0.418 -3.3084  0.0678  2.6950
  478MOL0     H63043   7.309   4.153   0.502 -0.5747 -2.8663  1.8205
  478MOL0     H63044   7.190   4.146   0.630  1.6791 -0.3506  0.0778
  478MOL0     H63045   7.236   4.375   0.440  0.7564 -1.0752 -0.5924
  478MOL0     H63046   7.128   4.390   0.579 -0.6065 -1.2149 -0.6657
  478MOL0     H63047   7.359   4.307   0.706 -3.1440 -0.5341 -0.2060
  478MOL0     H63048   7.333   4.484   0.680  0.8505  2.0420 -2.6029
  478MOL0     H63049   7.494   4.612   0.563 -0.4976  0.5814 -1.2761
  478MOL0     H63050   7.731   4.667   0.475 -0.4902  1.7966 -2.3154
  478MOL0     H63051   7.779   4.560   0.341 -2.3069  1.8862 -0.6198
  478MOL0     H63052   7.904   4.415   0.487 -2.6007  0.1388 -1.4838
  478MOL0     H63053   7.873   4.507   0.629  1.4397 -1.1208 -0.5706
  478MOL0     H63054   8.009   4.625   0.383 -0.5145 -1.3266 -0.8559
  478MOL0     H63055   8.011   4.685   0.554  1.3083 -0.8257  1.2384
  478MOL0     H63056   8.142   4.418   0.477 -2.4927  1.3524 -2.4388
  478MOL0     H63057   8.150   4.499   0.628 -1.4761 -0.6530 -0.4182
  478MOL0     H63058   8.352   4.381   0.543  0.4529  0.3615 -0.4979
  478MOL0     H63059   8.614   4.358   0.573  2.5258  0.6922 -2.9671
  478MOL0     H63060   9.028   4.595   0.713  0.7591 -0.2585 -0.7618
  478MOL0     H63061   9.287   4.558   0.685  0.6460  0.0922 -0.2695
  478MOL0     H63062   9.483   4.427   0.390 -1.1767  0.2458  0.3439
  478MOL0     H63063   9.365   4.297   0.355  1.2353  2.4320 -2.2015
  478MOL0     H63064   9.555   4.191   0.349  0.9604  0.2415  0.9401
  478MOL0     H63065   9.488   4.137   0.499 -1.2438  1.4473  0.9153
  478MOL0     H63066   9.657   4.251   0.634 -1.9010  2.8129  0.9517
  478MOL0     H63067   9.675   4.373   0.518 -1.7360  0.6561  3.4567
  478MOL0     H63068   9.767   4.093   0.468  1.1725  0.0301  3.0167
  478MOL0     H63069   9.810   4.247   0.368 -0.0147  0.1236  0.2562
  478MOL0     H63070   9.890   4.143   0.633 -1.1270  0.6232  0.1264
  478MOL0     H63071   9.913   4.312   0.594 -1.5607 -0.6158  1.7956
  478MOL0     H63072  10.051   4.259   0.395  0.3966  1.4757  0.3516
  478MOL0     H63073  10.017   4.084   0.398  2.1342 -0.7043 -0.2188
  478MOL0     H63074  10.151   4.183   0.652 -1.6801 -2.5422  0.7046
  478MOL0     H63075  10.139   4.027   0.579 -1.2804 -0.3213 -0.3819
  478MOL0     H63076  10.301   4.078   0.411  1.9596  0.5747 -0.3354
  478MOL0     H63077  10.365   4.139   0.563  0.2363 -3.3926 -0.7126
  478MOL0     H63078   9.200   4.227   0.448 -0.5684  0.0275 -1.0943
  478MOL0     H63079   8.949   4.264   0.462  0.2322 -1.0218  0.3099
  478MOL0     H63080   8.638   4.776   0.470 -2.3807  1.6500 -0.5107
  478MOL0     H63081   8.398   4.784   0.439  1.4121  1.5365  1.1898
  478MOL0     H63082   6.343   4.369   0.704 -0.5618 -0.1852  0.8887
  478MOL0     H63083   6.104   4.313   0.665 -0.1685 -0.2620 -1.4768
  478MOL0     H63084   5.766   4.014   0.271 -0.8002  2.6243 -0.1236
  478MOL0     H63085   5.528   4.007   0.280  0.5147 -0.9131 -0.0980
  478MOL0     H63086   5.219   3.923   0.571  0.6841 -1.4559  0.8349
  478MOL0     H63087   5.353   3.851   0.632 -3.9860  0.6961  2.3950
  478MOL0     H63088   5.273   3.813   0.333 -2.9493 -2.0610  0.3749
  478MOL0     H63089   5.415   3.739   0.421  0.0003 -1.4261  0.5788
  478MOL0     H63090   5.246   3.633   0.575  1.3783 -2.1977 -1.7046
  478MOL0     H63091   5.251   3.580   0.405 -1.3412  0.5086 -0.9771
  478MOL0     H63092   5.023   3.625   0.527  0.0628  1.2473  2.0016
  478MOL0     H63093   5.043   3.790   0.464  0.0701  0.5865 -2.4953
  478MOL0     H63094   4.936   3.572   0.130  1.0137 -0.0931 -0.4518
  478MOL0     H63095   5.552   3.991   0.716 -3.2893  3.2293 -1.2326
  478MOL0     H63096   5.794   4.001   0.705  2.3782  2.8357 -1.1758
  479MOL0     O63097   6.033   6.265   9.991  0.2687  0.7222  0.1381
  479MOL0     C63098   6.068   6.161   9.933 -0.2051  0.7031  0.3383
  479MOL0     O63099   5.978   6.083   9.852 -0.0035  0.0763 -0.1373
  479MOL0     C63100   5.856   6.129   9.811 -0.0702  0.0694 -0.8840
  479MOL0     C63101   5.829   6.256   9.779  0.0815 -1.1597  0.7852
  479MOL0     C63102   5.701   6.287   9.719 -0.3227 -0.0899 -0.2634
  479MOL0     C63103   5.607   6.192   9.713  0.4497 -0.0381  1.1208
  479MOL0     O63104   5.481   6.208   9.666 -0.0830  0.2416  0.0463
  479MOL0     C63105   5.430   6.337   9.626 -0.2813  0.5463 -0.3738
  479MOL0     C63106   5.279   6.314   9.588  0.5548  0.9319 -0.0847
  479MOL0     C63107   5.216   6.406   9.484 -0.5909 -0.5236  0.3601
  479MOL0     C63108   5.073   6.357   9.454  0.4642  0.4803 -0.0987
  479MOL0     C63109   4.961   6.464   9.429  0.4011  0.5183 -0.0068
  479MOL0     C63110   5.007   6.568   9.327  0.4063  0.3708 -1.5578
  479MOL0     C63111   4.900   6.679   9.270 -0.0851 -0.4323 -0.5996
  479MOL0     C63112   4.779   6.627   9.188  0.8178  1.5063 -0.1326
  479MOL0     N63113   4.672   6.727   9.199 -0.2387 -0.8968 -0.4296
  479MOL0     C63114   4.692   6.862   9.176 -0.4203  1.1256 -0.3610
  479MOL0     C63115   4.585   6.924   9.235  0.2796  1.0481  0.4876
  479MOL0     C63116   4.568   7.072   9.228  0.0405 -0.2191 -0.9691
  479MOL0     C63117   4.440   7.116   9.152 -0.1125 -1.0112 -0.4171
  479MOL0     C63118   4.443   7.086   9.006 -1.2248  0.7404 -0.1452
  479MOL0     C63119   4.343   7.170   8.931  0.6628 -0.1608  0.3598
  479MOL0     O63120   4.218   7.110   8.965  0.3308  0.4159  0.4320
  479MOL0     C63121   4.106   7.181   8.923 -0.6908 -0.5866 -0.0102
  479MOL0     C63122   4.099   7.306   8.876  0.2253 -0.4655  0.8735
  479MOL0     C63123   3.979   7.363   8.842 -0.6200 -0.4073 -0.7935
  479MOL0     C63124   3.867   7.286   8.837 -1.0742 -0.3532  0.7679
  479MOL0     C63125   3.748   7.343   8.788  0.8185  0.4307  0.6340
  479MOL0     O63126   3.625   7.288   8.824 -0.6715 -0.4025  0.2296
  479MOL0     C63127   3.509   7.327   8.770  0.0412  0.5454 -0.2230
  479MOL0     C63128   3.420   7.220   8.733 -0.0190 -0.4980  0.1501
  479MOL0     C63129   3.290   7.259   8.680  0.2006  1.4861 -0.4268
  479MOL0     C63130   3.247   7.397   8.680 -0.5515 -0.0230  0.4157
  479MOL0     O63131   3.132   7.428   8.613 -0.6703 -0.1112  0.1900
  479MOL0     C63132   3.073   7.556   8.645 -0.5214  0.0663  0.3055
  479MOL0     C63133   2.957   7.581   8.564  1.1721  0.1124 -0.2003
  479MOL0     C63134   2.892   7.708   8.619  0.2558 -0.7757  0.0706
  479MOL0     C63135   2.783   7.772   8.537 -0.0476 -1.2349 -0.5677
  479MOL0     C63136   2.671   7.678   8.492  0.5866 -0.4955  0.4726
  479MOL0     C63137   2.583   7.747   8.383  0.3471  0.4986 -0.0663
  479MOL0     C63138   2.477   7.645   8.337  0.4781 -0.5972  0.2575
  479MOL0     C63139   2.371   7.719   8.247 -0.2487  0.9867  0.2859
  479MOL0    Cl63140   2.279   7.845   8.350  0.0179  0.7953  0.2065
  479MOL0     C63141   3.339   7.495   8.729  0.5506 -0.3500  0.3013
  479MOL0     C63142   3.465   7.461   8.772  0.7277 -0.2564  0.4096
  479MOL0     O63143   3.760   7.422   8.690  0.7010  0.6175  0.2703
  479MOL0     C63144   3.868   7.160   8.882 -0.5671  0.3992 -0.0308
  479MOL0     C63145   3.987   7.105   8.930  0.5571 -0.5023  1.2834
  479MOL0     N63146   4.499   6.826   9.292 -0.4131  0.1566 -0.4923
  479MOL0     N63147   4.557   6.715   9.280  0.3842 -0.5610  0.0320
  479MOL0     C63148   5.628   6.068   9.755 -0.3150  1.6482  0.2635
  479MOL0     C63149   5.751   6.030   9.807 -1.3402 -0.8299  0.7067
  479MOL0     C63150   6.200   6.103   9.957  0.4648 -0.3314  0.0964
  479MOL0     C63151   6.284   6.151  10.056 -0.6774 -0.4208  0.4628
  479MOL0     C63152   6.412   6.101  10.077 -0.3359 -0.3690 -0.6379
  479MOL0     C63153   6.457   5.998   9.996  0.1995 -0.1898  0.0089
  479MOL0     O63154   6.590   5.961   9.984  0.4722  0.4927  0.5038
  479MOL0     C63155   6.690   6.036  10.037 -0.2812  1.0557 -0.3720
  479MOL0     C63156   6.743   5.973  10.172  0.1194  0.3705 -0.0358
  479MOL0     C63157   6.829   6.073  10.246  0.7079 -0.0939 -1.0164
  479MOL0     C63158   6.893   5.999  10.360 -0.0294  0.5536  1.0608
  479MOL0     C63159   6.975   6.072  10.452 -0.3160  0.4944 -0.4031
  479MOL0     C63160   7.032   6.138  10.539  0.6573  1.3421  0.3050
  479MOL0     C63161   6.376   5.953   9.896 -0.2877  0.6595 -0.1105
  479MOL0     C63162   6.249   6.003   9.869  0.6223 -0.1851 -0.3518
  479MOL0     H63163   5.903   6.335   9.777  0.3449 -1.4142 -0.1815
  479MOL0     H63164   5.679   6.389   9.687 -2.3243  1.4910  5.0545
  479MOL0     H63165   5.488   6.368   9.538 -0.4727 -0.5078 -0.8911
  479MOL0     H63166   5.433   6.416   9.702  0.1170 -1.2158  1.5529
  479MOL0     H63167   5.226   6.330   9.682 -0.4388 -1.2078 -0.2284
  479MOL0     H63168   5.265   6.211   9.555  2.1719  1.4175 -2.5822
  479MOL0     H63169   5.275   6.407   9.392  0.9565 -0.0858  1.3186
  479MOL0     H63170   5.204   6.504   9.532  0.0640 -0.5180  0.5312
  479MOL0     H63171   5.075   6.290   9.368  0.5567 -0.4207  0.5947
  479MOL0     H63172   5.055   6.288   9.536 -0.6781 -0.6324 -1.2410
  479MOL0     H63173   4.929   6.516   9.519  0.9574  0.7655  0.0514
  479MOL0     H63174   4.878   6.402   9.394  2.7182 -2.5913 -0.4483
  479MOL0     H63175   5.057   6.527   9.238 -1.7926 -0.1378 -2.6374
  479MOL0     H63176   5.076   6.631   9.384 -2.5857  1.3499  1.2638
  479MOL0     H63177   4.861   6.723   9.362 -1.1140 -0.2824 -1.0951
  479MOL0     H63178   4.952   6.760   9.218  1.3516 -0.5774  0.5424
  479MOL0     H63179   4.733   6.534   9.222 -2.1996  2.0131 -2.4001
  479MOL0     H63180   4.817   6.615   9.086  0.4639 -1.2212  0.0086
  479MOL0     H63181   4.777   6.900   9.119  1.9434 -2.0961  0.6755
  479MOL0     H63182   4.651   7.120   9.175 -0.5817  1.8889 -0.1398
  479MOL0     H63183   4.572   7.117   9.328  0.6008 -2.5300  0.1019
  479MOL0     H63184   4.409   7.219   9.169 -1.1336 -1.1001 -1.6163
  479MOL0     H63185   4.359   7.052   9.188  1.0862 -2.3494 -0.0047
  479MOL0     H63186   4.541   7.118   8.969 -1.1027 -1.0840 -1.5070
  479MOL0     H63187   4.421   6.980   8.991  0.6236  0.3064 -0.0999
  479MOL0     H63188   4.362   7.162   8.824  0.3725  1.3812  0.1678
  479MOL0     H63189   4.352   7.275   8.958  0.1246  0.2429 -0.9599
  479MOL0     H63190   4.181   7.378   8.869 -2.4480  2.8211  0.9264
  479MOL0     H63191   3.981   7.464   8.802  0.1376  1.6322  3.7099
  479MOL0     H63192   3.452   7.117   8.726  1.5020  0.0499 -3.0046
  479MOL0     H63193   3.221   7.186   8.639 -1.8899  2.3476  1.3461
  479MOL0     H63194   3.143   7.636   8.617 -1.9925  0.4730 -2.5346
  479MOL0     H63195   3.051   7.574   8.751 -1.0634  1.2103  0.0239
  479MOL0     H63196   2.896   7.491   8.570 -0.1810  0.9436 -1.0464
  479MOL0     H63197   2.979   7.600   8.459 -0.6511  2.5644 -0.2372
  479MOL0     H63198   2.968   7.786   8.621  0.3736 -0.8941  1.4596
  479MOL0     H63199   2.856   7.694   8.722 -1.5472 -0.8502 -0.5325
  479MOL0     H63200   2.737   7.857   8.589 -0.5606 -1.8665  0.0202
  479MOL0     H63201   2.831   7.818   8.450  2.8586 -0.9503  1.0481
  479MOL0     H63202   2.613   7.636   8.575  0.8600  1.5344  1.7662
  479MOL0     H63203   2.719   7.600   8.433  2.0005  1.0163 -0.4774
  479MOL0     H63204   2.630   7.783   8.291 -1.4053  1.8706 -0.4779
  479MOL0     H63205   2.536   7.831   8.435  0.3243 -0.7539  2.0387
  479MOL0     H63206   2.519   7.568   8.273 -2.6887 -0.3943 -2.2706
  479MOL0     H63207   2.418   7.604   8.420 -1.5827  1.1352 -0.2587
  479MOL0     H63208   2.300   7.640   8.219 -0.6508  1.9841 -1.7485
  479MOL0     H63209   2.411   7.753   8.151 -0.0048 -2.7904 -1.1531
  479MOL0     H63210   3.328   7.603   8.732  5.0184  0.2896  1.1573
  479MOL0     H63211   3.537   7.541   8.784  0.0161  0.4535  0.0459
  479MOL0     H63212   3.778   7.099   8.879 -0.8699  0.8592 -0.2645
  479MOL0     H63213   3.989   6.999   8.955 -1.4883 -0.7119  0.7696
  479MOL0     H63214   5.545   6.000   9.738  1.6671 -0.8505  0.0565
  479MOL0     H63215   5.769   5.931   9.848 -2.1267 -2.2500 -2.1553
  479MOL0     H63216   6.262   6.236  10.120 -2.0830 -1.4476  1.4031
  479MOL0     H63217   6.473   6.162  10.144 -1.6075  0.9674 -0.6601
  479MOL0     H63218   6.664   6.141  10.055  1.1005  1.3688 -0.0461
  479MOL0     H63219   6.773   6.051   9.968 -0.0663 -1.3101 -0.6953
  479MOL0     H63220   6.652   5.954  10.230  0.4930 -1.0067  0.1410
  479MOL0     H63221   6.796   5.883  10.139 -2.0520 -1.0212  0.0428
  479MOL0     H63222   6.769   6.157  10.283  3.5102  1.7462 -0.3544
  479MOL0     H63223   6.906   6.117  10.182 -0.4510  2.6639 -0.6665
  479MOL0     H63224   6.813   5.948  10.415  0.4516  1.2766  2.4638
  479MOL0     H63225   6.959   5.927  10.310 -0.3602 -0.0824  1.5298
  479MOL0     H63226   7.071   6.182  10.628  1.6339  0.2447  0.4511
  479MOL0     H63227   6.412   5.869   9.838 -0.3945 -1.0279  2.1038
  479MOL0     H63228   6.185   5.969   9.788  1.3418  1.2921 -1.5986
  480MOL0     O63229   2.218   4.222   4.544  0.2510  0.0892 -0.1503
  480MOL0     C63230   2.136   4.305   4.504  0.5531 -0.8607 -0.0263
  480MOL0     O63231   2.000   4.282   4.479 -0.8053  0.3515 -0.1419
  480MOL0     C63232   1.947   4.157   4.494 -0.1647  0.3653  0.2010
  480MOL0     C63233   1.821   4.140   4.434  0.2206  0.0455  0.0733
  480MOL0     C63234   1.754   4.012   4.445 -0.0129  0.0830 -0.7161
  480MOL0     C63235   1.814   3.909   4.521  0.4240 -0.5071 -0.6542
  480MOL0     O63236   1.760   3.784   4.537  0.0153 -0.3447  0.3712
  480MOL0     C63237   1.620   3.767   4.509 -0.3404  0.0187 -0.7867
  480MOL0     C63238   1.525   3.852   4.601  0.0832  0.2353 -0.6316
  480MOL0     C63239   1.565   3.841   4.749  0.4127  0.2713  0.1967
  480MOL0     C63240   1.456   3.895   4.841  0.8678 -0.0053  0.2618
  480MOL0     C63241   1.488   3.842   4.988  0.0789 -0.3436 -0.7745
  480MOL0     C63242   1.396   3.901   5.091  0.6708 -0.0051  0.3667
  480MOL0     C63243   1.419   3.857   5.239 -0.1513  0.0617  0.3766
  480MOL0     C63244   1.337   3.957   5.332 -0.0566  0.0007  0.2376
  480MOL0     N63245   1.194   3.918   5.344  0.7501 -0.2044  0.4424
  480MOL0     C63246   1.095   3.944   5.244  0.3139  0.0263 -0.8323
  480MOL0     C63247   0.985   3.871   5.283  0.1682 -0.1596 -0.1571
  480MOL0     C63248   0.852   3.877   5.214 -0.5347  0.4988  0.3856
  480MOL0     C63249   0.846   3.779   5.094  0.3512  0.1824 -0.5126
  480MOL0     C63250   0.714   3.766   5.008 -0.1093 -0.0765  0.1301
  480MOL0     C63251   0.598   3.685   5.067 -0.2706  0.6274  0.1810
  480MOL0     O63252   0.495   3.681   4.965  0.4709 -0.2836  0.3301
  480MOL0     C63253   0.376   3.636   5.000 -0.0528  0.7856 -0.9084
  480MOL0     C63254   0.269   3.637   4.906 -0.0769 -0.6800 -1.2046
  480MOL0     C63255   0.138   3.592   4.946  0.3395 -0.3450 -0.6192
  480MOL0     C63256   0.111   3.538   5.081  0.1627 -0.0184 -0.2339
  480MOL0     C63257  -0.027   3.524   5.128 -0.2961  0.7242 -0.2289
  480MOL0     O63258  -0.131   3.497   5.042  0.1625 -0.3341  0.8759
  480MOL0     C63259  -0.266   3.510   5.069  0.6383 -0.0189 -0.6403
  480MOL0     C63260  -0.354   3.435   4.993  0.3320  1.0312  0.0906
  480MOL0     C63261  -0.500   3.450   4.997  0.5868  1.0959 -0.2728
  480MOL0     C63262  -0.550   3.538   5.096  0.5491  0.7184  0.6203
  480MOL0     O63263  -0.681   3.541   5.125  0.0901 -0.5493 -0.1675
  480MOL0     C63264  -0.775   3.503   5.033  1.1350 -1.1119  0.8274
  480MOL0     C63265  -0.912   3.525   5.094 -0.0893  0.5146  0.8991
  480MOL0     C63266  -1.015   3.468   4.987 -0.8249  0.2305  0.1339
  480MOL0     C63267  -1.153   3.476   5.046 -0.1962  0.1743 -0.6328
  480MOL0     C63268  -1.186   3.622   5.080 -0.4519  0.7619  0.6857
  480MOL0     C63269  -1.334   3.636   5.113 -0.8112  0.4013  0.3023
  480MOL0     C63270  -1.356   3.780   5.154  0.8294 -0.1155  0.1509
  480MOL0     C63271  -1.503   3.824   5.133 -0.3803  0.0383 -0.7529
  480MOL0    Cl63272  -1.519   3.995   5.211 -0.1021  0.2555  0.2299
  480MOL0     C63273  -0.459   3.612   5.180 -0.1662  0.0452 -0.2392
  480MOL0     C63274  -0.321   3.603   5.165 -0.2247  0.3653 -0.4801
  480MOL0     O63275  -0.043   3.551   5.245  0.2967  0.0734  0.2456
  480MOL0     C63276   0.224   3.539   5.173 -0.7832  0.5351 -0.5224
  480MOL0     C63277   0.347   3.581   5.128 -1.1645 -0.7565 -0.8021
  480MOL0     N63278   1.010   3.810   5.404 -0.0785 -0.5010 -0.9579
  480MOL0     N63279   1.136   3.825   5.422  0.7771  0.3412 -0.1887
  480MOL0     C63280   1.938   3.936   4.585  0.0264 -0.3409 -0.0190
  480MOL0     C63281   1.997   4.060   4.575  0.3296 -0.7624  0.8119
  480MOL0     C63282   2.180   4.437   4.476  0.0818 -0.5645  0.2718
  480MOL0     C63283   2.314   4.463   4.446 -0.1858 -0.0779 -0.7374
  480MOL0     C63284   2.363   4.593   4.419  0.3533  0.3628  0.1023
  480MOL0     C63285   2.271   4.699   4.404  0.3574 -0.3565 -1.2196
  480MOL0     O63286   2.303   4.829   4.375 -0.1942 -0.0023  0.2123
  480MOL0     C63287   2.421   4.852   4.299  0.4940  0.1405 -0.1265
  480MOL0     C63288   2.506   4.943   4.391  0.3532  0.5902  0.6877
  480MOL0     C63289   2.641   4.974   4.324  0.1525 -0.7224 -0.9238
  480MOL0     C63290   2.619   5.075   4.210 -0.1085  0.5278 -0.1750
  480MOL0     C63291   2.737   5.157   4.192  0.0014 -1.1937 -0.1265
  480MOL0     C63292   2.848   5.208   4.181 -0.5147 -0.4200 -0.0413
  480MOL0     C63293   2.140   4.671   4.438 -0.1713  0.3453  0.1531
  480MOL0     C63294   2.094   4.547   4.475 -0.1870 -0.0712 -0.0144
  480MOL0     H63295   1.774   4.215   4.371 -1.7825  0.6282  2.0807
  480MOL0     H63296   1.658   3.989   4.400 -1.0926  0.2255  1.3775
  480MOL0     H63297   1.607   3.662   4.537 -1.2067  0.4625  0.5800
  480MOL0     H63298   1.610   3.790   4.403 -1.0813  2.2413 -0.2849
  480MOL0     H63299   1.422   3.815   4.600  0.1567 -0.0700  0.7883
  480MOL0     H63300   1.519   3.956   4.569  0.3365  0.0617 -1.2649
  480MOL0     H63301   1.661   3.886   4.774  0.2060  0.3989  0.7922
  480MOL0     H63302   1.577   3.733   4.764  0.6508  0.3512  0.5867
  480MOL0     H63303   1.447   4.004   4.836 -4.7197 -0.0758  2.1298
  480MOL0     H63304   1.361   3.849   4.814  1.1616 -0.5797  0.1908
  480MOL0     H63305   1.590   3.873   5.012  0.1059  0.6739 -2.0417
  480MOL0     H63306   1.483   3.733   4.989  1.3479 -0.4176  0.0959
  480MOL0     H63307   1.295   3.872   5.062  1.0964  0.2688 -1.5148
  480MOL0     H63308   1.398   4.010   5.080  1.9629 -0.0531 -0.0788
  480MOL0     H63309   1.389   3.753   5.255 -2.6092  0.6077 -0.2429
  480MOL0     H63310   1.526   3.865   5.260  0.0718  0.0906 -0.6911
  480MOL0     H63311   1.352   4.064   5.312  0.9330 -0.4527 -1.6540
  480MOL0     H63312   1.380   3.950   5.433 -0.2235 -1.3823  0.2368
  480MOL0     H63313   1.104   4.017   5.164  0.1147  2.7309  1.4159
  480MOL0     H63314   0.834   3.978   5.179 -0.6477  1.0737  1.9924
  480MOL0     H63315   0.774   3.854   5.287 -0.8038 -0.4960 -0.1881
  480MOL0     H63316   0.857   3.677   5.131 -1.9859  0.5030  1.3136
  480MOL0     H63317   0.925   3.805   5.023  1.2072  0.1164  0.4056
  480MOL0     H63318   0.666   3.862   4.986 -2.4990 -1.2250 -0.0102
  480MOL0     H63319   0.736   3.720   4.911 -1.0711 -1.2554  0.4372
  480MOL0     H63320   0.560   3.723   5.162 -1.2548  1.6934 -0.6117
  480MOL0     H63321   0.638   3.586   5.090 -2.4773  0.0700  2.0292
  480MOL0     H63322   0.293   3.664   4.804  1.6435  0.4372 -0.5337
  480MOL0     H63323   0.056   3.596   4.875 -0.6926  2.6320  0.5646
  480MOL0     H63324  -0.316   3.371   4.914  2.0065  0.3595  1.3833
  480MOL0     H63325  -0.562   3.393   4.929  0.7210 -0.2196  0.6655
  480MOL0     H63326  -0.765   3.397   5.012  1.4130 -0.7988 -0.7606
  480MOL0     H63327  -0.765   3.548   4.934  1.5395 -2.6440  0.1575
  480MOL0     H63328  -0.925   3.630   5.121  3.2309  2.1848 -2.9102
  480MOL0     H63329  -0.915   3.474   5.191  1.4274 -0.6717  0.3672
  480MOL0     H63330  -0.991   3.365   4.961 -0.3700  0.8755 -2.2004
  480MOL0     H63331  -1.011   3.528   4.896 -3.2829  1.9002  1.0064
  480MOL0     H63332  -1.219   3.440   4.967 -0.2181  1.5419 -1.2655
  480MOL0     H63333  -1.164   3.411   5.133 -0.1585  1.1718  0.1368
  480MOL0     H63334  -1.151   3.687   4.999  0.8383 -1.2648 -0.4785
  480MOL0     H63335  -1.131   3.656   5.168 -0.0005 -2.0479  1.6088
  480MOL0     H63336  -1.347   3.568   5.198  0.9710  0.2676  0.5204
  480MOL0     H63337  -1.396   3.611   5.027 -1.4348  1.2185  0.5083
  480MOL0     H63338  -1.327   3.794   5.259  2.5486 -1.1325 -0.1509
  480MOL0     H63339  -1.282   3.851   5.113  2.2832  0.7943  3.9194
  480MOL0     H63340  -1.571   3.750   5.176  0.7483 -0.4727  0.1941
  480MOL0     H63341  -1.533   3.817   5.028 -0.7782 -0.6536 -0.6040
  480MOL0     H63342  -0.498   3.684   5.251  0.4443  0.6721 -0.5324
  480MOL0     H63343  -0.251   3.671   5.215  2.7825 -1.3896 -2.0163
  480MOL0     H63344   0.219   3.495   5.273  2.3710 -1.5304 -1.1022
  480MOL0     H63345   0.408   3.563   5.216  0.3929  1.7829 -1.2462
  480MOL0     H63346   1.990   3.860   4.643  1.5799 -0.5134 -1.5552
  480MOL0     H63347   2.084   4.070   4.639 -0.2293  0.0794  1.4596
  480MOL0     H63348   2.385   4.380   4.442  3.0811  2.4892 -0.3302
  480MOL0     H63349   2.470   4.609   4.422  0.6161 -0.9998 -1.0873
  480MOL0     H63350   2.399   4.902   4.204 -3.6006  1.2948  1.2156
  480MOL0     H63351   2.475   4.761   4.270 -1.3389 -0.7045 -1.0973
  480MOL0     H63352   2.453   5.029   4.433  0.7626  0.2326  1.9759
  480MOL0     H63353   2.527   4.878   4.475 -2.1923 -1.5297 -0.1900
  480MOL0     H63354   2.680   4.876   4.294  0.0844  0.1667 -4.3993
  480MOL0     H63355   2.715   5.013   4.395  1.6166 -0.7698 -2.3537
  480MOL0     H63356   2.598   5.010   4.125  0.9472 -0.2296  0.1251
  480MOL0     H63357   2.532   5.138   4.230 -3.0237 -3.6357  1.5640
  480MOL0     H63358   2.939   5.252   4.144 -1.7476 -0.3111 -3.1749
  480MOL0     H63359   2.066   4.750   4.425 -1.8401 -1.1548  0.1563
  480MOL0     H63360   1.993   4.541   4.513  0.6504 -0.1666  2.3581
  481MOL0     O63361   1.221   5.208   5.618 -0.7746 -0.4603  0.5768
  481MOL0     C63362   1.185   5.291   5.536  0.1186  0.3949 -0.1548
  481MOL0     O63363   1.060   5.337   5.522  0.5892  0.0992  0.5008
  481MOL0     C63364   0.965   5.283   5.601  0.3671 -0.6370 -0.8358
  481MOL0     C63365   0.856   5.217   5.548  0.5229 -0.3633  0.6212
  481MOL0     C63366   0.747   5.176   5.624 -0.9701  0.8364  0.0748
  481MOL0     C63367   0.748   5.203   5.763  0.4505  0.8893  1.0502
  481MOL0     O63368   0.642   5.192   5.847  0.2760  0.1184  0.2933
  481MOL0     C63369   0.525   5.113   5.803  0.2538 -0.8637 -0.5646
  481MOL0     C63370   0.421   5.109   5.908  0.7519 -0.1761 -0.4022
  481MOL0     C63371   0.313   4.999   5.882  0.8070  0.4691 -0.2339
  481MOL0     C63372   0.216   5.024   5.761  0.4506  0.6372 -0.0854
  481MOL0     C63373   0.098   4.931   5.772  0.2762 -0.2125  0.9652
  481MOL0     C63374  -0.005   4.962   5.657  0.0316  0.0850 -0.4927
  481MOL0     C63375  -0.133   4.891   5.666 -0.2776  0.0786  0.5353
  481MOL0     C63376  -0.207   4.947   5.786 -0.5685 -0.3287 -1.2650
  481MOL0     N63377  -0.354   4.935   5.770 -0.3315 -0.1090 -0.3935
  481MOL0     C63378  -0.417   4.811   5.757  0.9518  0.3207  0.0941
  481MOL0     C63379  -0.547   4.849   5.738  0.7038  0.4000 -0.5698
  481MOL0     C63380  -0.665   4.750   5.721  0.0311 -0.9906 -0.0813
  481MOL0     C63381  -0.788   4.767   5.818 -0.2751 -0.1506  0.8509
  481MOL0     C63382  -0.853   4.907   5.829 -0.2838  0.2986 -0.4182
  481MOL0     C63383  -0.991   4.902   5.906 -1.7138 -0.0823 -0.1056
  481MOL0     O63384  -1.068   4.784   5.895 -0.1870  0.0407  0.6213
  481MOL0     C63385  -1.193   4.792   5.840 -0.1637  0.0103  0.2874
  481MOL0     C63386  -1.238   4.722   5.723 -0.4332 -0.5348  0.1173
  481MOL0     C63387  -1.369   4.711   5.692 -0.3573  0.0272 -0.6629
  481MOL0     C63388  -1.469   4.793   5.760 -0.2665  0.3876 -0.2033
  481MOL0     C63389  -1.609   4.786   5.715  0.1074  0.1268 -0.3435
  481MOL0     O63390  -1.648   4.675   5.633 -0.0586  0.3032 -0.4942
  481MOL0     C63391  -1.781   4.652   5.624 -0.6770 -0.3396  1.2478
  481MOL0     C63392  -1.842   4.642   5.504 -0.3968 -0.0454  0.2733
  481MOL0     C63393  -1.977   4.611   5.490  0.2868  0.8273  0.3368
  481MOL0     C63394  -2.052   4.584   5.606  0.5955  0.3955 -0.1634
  481MOL0     O63395  -2.183   4.538   5.607 -0.3216 -0.1631  0.2543
  481MOL0     C63396  -2.266   4.602   5.503 -0.0512  0.5412 -0.0890
  481MOL0     C63397  -2.391   4.522   5.455  0.6154 -0.0261 -0.5246
  481MOL0     C63398  -2.477   4.612   5.370  0.4194  0.2713 -0.7982
  481MOL0     C63399  -2.611   4.538   5.342 -0.6345 -0.7496  0.0625
  481MOL0     C63400  -2.694   4.592   5.225  0.4281  0.5043  0.9799
  481MOL0     C63401  -2.842   4.563   5.252 -0.5421 -0.5731 -0.6455
  481MOL0     C63402  -2.930   4.643   5.154 -0.1933  0.5109 -0.6008
  481MOL0     C63403  -3.072   4.623   5.172  0.1914  0.3415  0.0312
  481MOL0    Cl63404  -3.153   4.750   5.099 -0.2569  0.0561 -0.5963
  481MOL0     C63405  -1.989   4.607   5.731  0.5458 -0.5405  0.2390
  481MOL0     C63406  -1.858   4.646   5.748 -0.2999 -0.0537  0.4793
  481MOL0     O63407  -1.684   4.866   5.776  0.3562  1.0610 -0.2697
  481MOL0     C63408  -1.426   4.868   5.870 -0.2457  0.5184 -0.4510
  481MOL0     C63409  -1.288   4.867   5.907  0.0035 -0.7419  0.2439
  481MOL0     N63410  -0.558   4.988   5.748  0.5549  0.4207 -0.4936
  481MOL0     N63411  -0.435   5.035   5.782 -0.4465 -1.0399  0.2930
  481MOL0     C63412   0.858   5.275   5.813 -0.3112 -0.1996 -0.1814
  481MOL0     C63413   0.965   5.317   5.739  0.5258 -0.7032  0.9555
  481MOL0     C63414   1.278   5.338   5.438 -0.6992  0.1774 -0.3191
  481MOL0     C63415   1.404   5.277   5.422 -0.1300  0.0852  0.0213
  481MOL0     C63416   1.477   5.295   5.307 -0.1757  0.0975  0.0130
  481MOL0     C63417   1.427   5.389   5.212  0.5560  0.0043  0.8958
  481MOL0     O63418   1.497   5.425   5.101  0.1893 -0.2215  0.1667
  481MOL0     C63419   1.524   5.344   4.994  0.6287 -0.9186 -0.9633
  481MOL0     C63420   1.411   5.344   4.878  0.1008 -0.2725  0.2257
  481MOL0     C63421   1.456   5.267   4.747  0.7875  0.1548 -0.3022
  481MOL0     C63422   1.504   5.121   4.777 -0.3072  0.1074  0.1118
  481MOL0     C63423   1.402   5.020   4.794  0.4492  0.0767  0.4949
  481MOL0     C63424   1.314   4.938   4.797 -0.7714  0.8412 -0.1507
  481MOL0     C63425   1.305   5.459   5.227 -0.3771 -0.0986 -0.2704
  481MOL0     C63426   1.232   5.429   5.343 -0.3750 -0.2773  0.0719
  481MOL0     H63427   0.844   5.215   5.440  0.7366  0.9126  0.5532
  481MOL0     H63428   0.674   5.126   5.561  1.1140  2.2193 -3.7725
  481MOL0     H63429   0.550   5.006   5.796 -1.3662 -1.2556 -0.8776
  481MOL0     H63430   0.486   5.157   5.712  0.1583  3.5942  1.4043
  481MOL0     H63431   0.374   5.207   5.917  0.5721 -0.4735  3.0556
  481MOL0     H63432   0.471   5.078   6.000  0.3672 -2.3147 -0.8733
  481MOL0     H63433   0.257   4.971   5.971  0.9910 -1.9833 -0.8251
  481MOL0     H63434   0.365   4.904   5.865  1.0941  1.2530 -5.5069
  481MOL0     H63435   0.176   5.125   5.771  0.1515  0.5005  0.1229
  481MOL0     H63436   0.276   5.009   5.671 -0.2788  0.6321 -0.5843
  481MOL0     H63437   0.046   4.944   5.867 -2.1614  1.2696 -0.4597
  481MOL0     H63438   0.122   4.824   5.774 -0.7846 -0.4832  0.3128
  481MOL0     H63439   0.042   4.945   5.560 -0.4957  2.4540 -1.2381
  481MOL0     H63440  -0.023   5.070   5.657  0.8127  0.2266  0.5946
  481MOL0     H63441  -0.185   4.914   5.573 -0.1752  0.9960  0.6995
  481MOL0     H63442  -0.134   4.782   5.673 -2.2344 -0.1590 -1.8345
  481MOL0     H63443  -0.163   5.040   5.823  0.5737 -2.2589  2.7929
  481MOL0     H63444  -0.178   4.881   5.868 -0.2259  0.4455 -0.7466
  481MOL0     H63445  -0.363   4.717   5.759 -1.6280 -1.2275  1.1434
  481MOL0     H63446  -0.627   4.648   5.732  0.1244 -0.9138  0.3190
  481MOL0     H63447  -0.710   4.763   5.622 -4.1315  1.3318  1.8563
  481MOL0     H63448  -0.758   4.743   5.920 -1.1827  2.7866  1.9083
  481MOL0     H63449  -0.857   4.691   5.780  0.4117 -0.8190  0.9026
  481MOL0     H63450  -0.782   4.974   5.878  0.3711 -0.8155  0.1861
  481MOL0     H63451  -0.860   4.949   5.728  1.2534  1.1702 -0.2018
  481MOL0     H63452  -1.041   4.993   5.871  0.5367  1.5811  0.7530
  481MOL0     H63453  -0.979   4.919   6.014 -2.2988 -0.3802  0.0127
  481MOL0     H63454  -1.162   4.668   5.667  2.4152  2.7762  0.4245
  481MOL0     H63455  -1.400   4.633   5.622 -0.9591  0.2881 -0.6985
  481MOL0     H63456  -1.789   4.649   5.410 -0.5773 -0.4838  0.1404
  481MOL0     H63457  -2.006   4.609   5.386  4.3800  3.4019 -1.0875
  481MOL0     H63458  -2.211   4.625   5.411 -3.1589 -1.9212 -2.8248
  481MOL0     H63459  -2.300   4.700   5.537  0.3069  1.6003 -2.5267
  481MOL0     H63460  -2.456   4.488   5.537 -2.8416  0.4115 -2.8746
  481MOL0     H63461  -2.360   4.441   5.388 -1.0992 -0.9445 -0.2558
  481MOL0     H63462  -2.424   4.651   5.282 -0.9743  1.2145 -1.2540
  481MOL0     H63463  -2.498   4.702   5.428 -2.2319 -0.4729 -0.4697
  481MOL0     H63464  -2.595   4.429   5.341 -1.1324 -0.8334  0.5883
  481MOL0     H63465  -2.677   4.561   5.425 -3.3210  2.0577 -2.5920
  481MOL0     H63466  -2.671   4.544   5.130 -1.3861 -1.0486  1.2531
  481MOL0     H63467  -2.693   4.701   5.225 -0.9579  0.5478 -0.3965
  481MOL0     H63468  -2.886   4.593   5.348 -3.4655  0.4633 -2.1781
  481MOL0     H63469  -2.864   4.458   5.232 -1.6066 -0.5234  0.1333
  481MOL0     H63470  -2.910   4.750   5.165 -0.4833  0.6193 -1.1011
  481MOL0     H63471  -2.899   4.626   5.050  0.8315  0.3677 -0.2848
  481MOL0     H63472  -3.095   4.602   5.277 -0.3658 -1.0750 -0.3503
  481MOL0     H63473  -3.094   4.528   5.122 -1.2533  0.0890  1.0703
  481MOL0     H63474  -2.062   4.602   5.811  0.9705 -0.4131  0.6456
  481MOL0     H63475  -1.807   4.660   5.843  4.4810 -0.8919 -1.6425
  481MOL0     H63476  -1.488   4.915   5.946  0.1526 -2.3086  1.7835
  481MOL0     H63477  -1.275   4.926   5.997 -1.6912 -0.1925  0.1654
  481MOL0     H63478   0.861   5.302   5.918  1.7296  0.1234 -0.2866
  481MOL0     H63479   1.057   5.362   5.775  0.9189 -1.6493  1.1466
  481MOL0     H63480   1.446   5.222   5.506  0.6280  2.1007  1.0264
  481MOL0     H63481   1.578   5.257   5.317  0.3901  2.0483  3.4344
  481MOL0     H63482   1.543   5.246   5.039  0.0041 -0.4139  0.4620
  481MOL0     H63483   1.610   5.368   4.932 -0.1407  1.5847 -1.1746
  481MOL0     H63484   1.322   5.295   4.919 -1.0790 -0.0513 -1.9684
  481MOL0     H63485   1.385   5.446   4.850  2.5367  1.3659  3.2512
  481MOL0     H63486   1.533   5.330   4.702 -0.4826  2.1863  0.2387
  481MOL0     H63487   1.370   5.265   4.679  1.2860 -0.1073 -0.9366
  481MOL0     H63488   1.549   5.107   4.678  0.6099  1.5453  0.3007
  481MOL0     H63489   1.589   5.121   4.845 -1.4392  1.0341  1.5892
  481MOL0     H63490   1.226   4.878   4.803 -0.9086  0.9629 -0.8927
  481MOL0     H63491   1.271   5.520   5.144  2.2772  0.3718 -1.0918
  481MOL0     H63492   1.133   5.472   5.350  0.1136  0.6379  3.1416
  482MOL0     O63493  10.095   8.071  10.070 -0.1615 -0.5798  0.3083
  482MOL0     C63494  10.059   8.022   9.957  0.0022  0.8221  0.2279
  482MOL0     O63495   9.934   7.970   9.927  0.1506 -0.4088 -0.4887
  482MOL0     C63496   9.815   8.007   9.991 -0.2228  0.2487 -0.5933
  482MOL0     C63497   9.807   8.064  10.122  0.4652 -1.1078 -0.0377
  482MOL0     C63498   9.679   8.096  10.179 -0.3628 -0.1045  0.2309
  482MOL0     C63499   9.565   8.053  10.115 -0.0202 -0.0159  0.2023
  482MOL0     O63500   9.441   8.051  10.162 -0.2597 -0.5341 -0.1874
  482MOL0     C63501   9.418   8.134  10.278 -0.0864  0.0529 -0.2543
  482MOL0     C63502   9.385   8.280  10.243  0.6411  0.6486  0.0714
  482MOL0     C63503   9.317   8.357  10.359  0.9653 -0.7362 -0.1014
  482MOL0     C63504   9.306   8.505  10.316  0.4265 -0.5160 -0.5981
  482MOL0     C63505   9.434   8.582  10.275 -0.3721  0.1373  0.1139
  482MOL0     C63506   9.557   8.595  10.371  0.6160 -0.1484  0.2892
  482MOL0     C63507   9.512   8.634  10.509  0.4339 -0.8587 -0.5159
  482MOL0     C63508   9.622   8.663  10.615  0.4332  0.2334 -0.3407
  482MOL0     N63509   9.677   8.533  10.663 -0.1959 -0.3998  0.5179
  482MOL0     C63510   9.764   8.450  10.602 -0.1964 -1.1102  0.2621
  482MOL0     C63511   9.788   8.342  10.694 -0.0011 -0.2791 -0.6618
  482MOL0     C63512   9.872   8.217  10.672  0.6800 -0.2902  0.9500
  482MOL0     C63513   9.963   8.195  10.791 -0.5152 -0.3618 -0.0353
  482MOL0     C63514  10.058   8.308  10.825  0.9646 -1.5756  0.2023
  482MOL0     C63515  10.192   8.296  10.763  0.2532 -0.2530  0.2916
  482MOL0     O63516  10.177   8.272  10.625 -0.6430  0.2643 -0.0466
  482MOL0     C63517  10.285   8.253  10.545  0.3680  0.3928 -0.4292
  482MOL0     C63518  10.419   8.248  10.586 -0.6419  0.1663 -1.0290
  482MOL0     C63519  10.511   8.199  10.492 -0.2744  0.2162 -0.2616
  482MOL0     C63520  10.482   8.180  10.355 -0.0756  0.2213  0.3688
  482MOL0     C63521  10.586   8.180  10.240 -0.6090 -0.3570  0.4268
  482MOL0     O63522  10.711   8.205  10.289 -0.1565  0.2192 -0.2915
  482MOL0     C63523  10.826   8.184  10.220 -0.0987  0.6586  0.7798
  482MOL0     C63524  10.941   8.174  10.295 -0.6079  0.3014 -0.1339
  482MOL0     C63525  11.066   8.181  10.230  0.2321 -0.0911 -1.0103
  482MOL0     C63526  11.080   8.195  10.094  0.4730  0.3081 -1.1964
  482MOL0     O63527  11.213   8.185  10.044 -0.2707 -0.0741  0.1845
  482MOL0     C63528  11.225   8.146   9.907  0.4176 -0.7449 -0.7228
  482MOL0     C63529  11.207   8.264   9.807 -1.5509 -0.1863  0.0724
  482MOL0     C63530  11.281   8.236   9.680 -0.3401 -0.4305  0.0412
  482MOL0     C63531  11.184   8.147   9.591  0.6073  0.6852 -0.0777
  482MOL0     C63532  11.257   8.116   9.460 -0.3047 -0.2268 -0.8220
  482MOL0     C63533  11.167   8.098   9.347 -0.4096 -0.1260 -0.0918
  482MOL0     C63534  11.229   8.031   9.230 -1.0107 -0.6742 -0.6884
  482MOL0     C63535  11.319   8.123   9.150  0.3885  0.1470 -0.3492
  482MOL0    Cl63536  11.445   8.034   9.053  0.2315 -0.3253  0.0542
  482MOL0     C63537  10.968   8.202  10.017  0.1403 -0.2001 -0.4835
  482MOL0     C63538  10.841   8.196  10.077  0.0290 -0.1931 -0.1412
  482MOL0     O63539  10.557   8.153  10.124 -0.0806 -0.5642 -0.4900
  482MOL0     C63540  10.346   8.196  10.317  0.1503 -0.0429  0.1130
  482MOL0     C63541  10.251   8.227  10.410  0.0027  0.3023  1.0682
  482MOL0     N63542   9.723   8.377  10.812  0.2508  0.0266 -1.3738
  482MOL0     N63543   9.648   8.481  10.785 -0.7357  0.5207 -0.0737
  482MOL0     C63544   9.575   7.998   9.987 -0.4274 -1.0247  0.3695
  482MOL0     C63545   9.698   7.973   9.931 -0.1726 -0.5864 -0.0728
  482MOL0     C63546  10.159   8.006   9.856 -0.0211 -0.4067 -0.8229
  482MOL0     C63547  10.121   8.001   9.725  0.9226  0.3259 -0.2216
  482MOL0     C63548  10.205   7.979   9.629  0.3442  0.0835  0.6992
  482MOL0     C63549  10.340   7.971   9.658  0.3661  0.2614  0.0892
  482MOL0     O63550  10.425   7.965   9.560 -1.7390 -0.3921 -0.4691
  482MOL0     C63551  10.449   7.829   9.511 -0.2653 -0.7177  0.6488
  482MOL0     C63552  10.530   7.838   9.383  0.5008 -0.2411 -0.2606
  482MOL0     C63553  10.451   7.914   9.277 -0.4137 -0.7647 -0.0700
  482MOL0     C63554  10.493   8.061   9.251 -0.1739  0.0824  0.0172
  482MOL0     C63555  10.629   8.072   9.206  0.2272  1.0758  0.5580
  482MOL0     C63556  10.749   8.078   9.173  0.5802 -0.7144  0.0319
  482MOL0     C63557  10.389   7.984   9.787 -0.8187 -0.1896 -0.2452
  482MOL0     C63558  10.299   7.990   9.891 -0.2416 -0.3300 -0.6945
  482MOL0     H63559   9.899   8.095  10.171  0.6241 -1.7378  0.0751
  482MOL0     H63560   9.677   8.162  10.265 -1.1121  1.7018 -1.1109
  482MOL0     H63561   9.496   8.133  10.354  0.0178 -0.0093 -0.3642
  482MOL0     H63562   9.323   8.095  10.315 -1.6004 -1.0249 -4.5813
  482MOL0     H63563   9.342   8.290  10.143  1.8597  1.0046 -0.4257
  482MOL0     H63564   9.483   8.326  10.233  1.6575 -1.7116 -1.6761
  482MOL0     H63565   9.364   8.347  10.457  0.2617  3.0489  0.7832
  482MOL0     H63566   9.215   8.322  10.374 -1.3026  4.1243 -2.1641
  482MOL0     H63567   9.253   8.514  10.221  0.3736 -0.8821 -0.6081
  482MOL0     H63568   9.249   8.559  10.392 -1.2537 -1.8647 -0.8382
  482MOL0     H63569   9.412   8.683  10.242  1.6498  0.8844  0.8743
  482MOL0     H63570   9.480   8.528  10.192 -2.4199 -0.0064 -0.9738
  482MOL0     H63571   9.630   8.661  10.323  3.3059 -1.9983  1.6115
  482MOL0     H63572   9.619   8.506  10.378  1.9635  0.8679  1.8205
  482MOL0     H63573   9.446   8.721  10.506  0.5739 -0.6652  1.1452
  482MOL0     H63574   9.467   8.541  10.545  0.5169 -0.9482 -0.6392
  482MOL0     H63575   9.590   8.718  10.704  2.1941  0.7464  0.0036
  482MOL0     H63576   9.706   8.715  10.568  0.5952 -1.3746 -1.9609
  482MOL0     H63577   9.811   8.465  10.505  1.9493  2.1135  1.6565
  482MOL0     H63578   9.923   8.221  10.576 -2.6821 -0.3416 -0.9635
  482MOL0     H63579   9.799   8.136  10.661  3.0029 -2.4208 -0.0108
  482MOL0     H63580  10.017   8.100  10.790  1.2247  0.5846 -0.0493
  482MOL0     H63581   9.900   8.185  10.880  0.1255  0.1590  0.4950
  482MOL0     H63582  10.012   8.406  10.806  2.4539 -0.3554  2.4181
  482MOL0     H63583  10.082   8.329  10.929  1.6702  2.7478 -0.6296
  482MOL0     H63584  10.231   8.207  10.814 -0.4698 -3.0670 -3.6021
  482MOL0     H63585  10.261   8.377  10.786  2.3883 -2.1853  1.1224
  482MOL0     H63586  10.446   8.271  10.689  0.6527 -1.8120 -0.8611
  482MOL0     H63587  10.616   8.180  10.509  0.1901  1.8146 -1.1456
  482MOL0     H63588  10.942   8.179  10.404 -1.9931  0.8057 -0.1288
  482MOL0     H63589  11.161   8.197  10.280  0.9200  2.5967 -2.9472
  482MOL0     H63590  11.149   8.074   9.875 -1.8575  0.5788  1.3623
  482MOL0     H63591  11.325   8.103   9.895 -0.2142 -3.6970  2.6129
  482MOL0     H63592  11.240   8.355   9.858  0.9123 -0.8687 -0.1827
  482MOL0     H63593  11.101   8.280   9.788 -1.2080  1.5120 -0.6308
  482MOL0     H63594  11.378   8.188   9.697 -0.3269 -0.3840  0.0951
  482MOL0     H63595  11.297   8.335   9.636  0.2885  1.0428  3.2569
  482MOL0     H63596  11.149   8.054   9.635 -1.0796 -0.4435 -3.4272
  482MOL0     H63597  11.087   8.190   9.564  0.5231  0.2760 -0.4441
  482MOL0     H63598  11.316   8.027   9.484 -0.5353  0.5706  3.6125
  482MOL0     H63599  11.327   8.199   9.445  2.3305 -2.2057 -0.2250
  482MOL0     H63600  11.117   8.187   9.308  0.1398 -0.5047 -1.7407
  482MOL0     H63601  11.087   8.027   9.372 -2.5282  2.5791  1.2743
  482MOL0     H63602  11.299   7.959   9.273  2.8897  3.5531  0.8353
  482MOL0     H63603  11.168   7.975   9.158  0.1830 -1.1120 -1.3827
  482MOL0     H63604  11.383   8.181   9.217  2.2025 -3.5767  1.4220
  482MOL0     H63605  11.258   8.195   9.095  2.4844 -0.0403 -3.0796
  482MOL0     H63606  10.959   8.189   9.909  0.4933 -0.3198 -0.4981
  482MOL0     H63607  10.751   8.203  10.017 -2.0597  0.5017  2.8390
  482MOL0     H63608  10.313   8.199  10.214 -0.2998  0.1792  0.2571
  482MOL0     H63609  10.145   8.228  10.387 -0.0113 -1.0579  0.9910
  482MOL0     H63610   9.486   7.965   9.934 -1.2610 -0.6622  1.4994
  482MOL0     H63611   9.687   7.928   9.833 -1.3340 -2.3192  0.8074
  482MOL0     H63612  10.018   8.007   9.691  0.1347  1.1173  2.0820
  482MOL0     H63613  10.167   7.956   9.530 -0.8893 -0.6253  1.3031
  482MOL0     H63614  10.356   7.774   9.495  0.0024 -1.0186  0.1224
  482MOL0     H63615  10.498   7.769   9.589  1.3648  1.9723  1.8539
  482MOL0     H63616  10.621   7.894   9.409  0.1260 -0.1238  0.8516
  482MOL0     H63617  10.553   7.737   9.349  2.4054 -0.4512  1.4196
  482MOL0     H63618  10.349   7.928   9.311 -0.4418 -1.5166  0.1822
  482MOL0     H63619  10.468   7.868   9.179 -1.5543  1.2479 -1.2649
  482MOL0     H63620  10.434   8.100   9.168 -2.6500 -0.5405  1.3911
  482MOL0     H63621  10.481   8.111   9.348  0.2981 -1.9305  1.1732
  482MOL0     H63622  10.854   8.091   9.158  0.2891 -0.0415 -1.6621
  482MOL0     H63623  10.498   7.989   9.788 -0.7948  0.8033 -2.2878
  482MOL0     H63624  10.322   7.979   9.997 -3.8046 -2.1519  0.0399
  483MOL0     O63625   6.815   7.409   5.748 -1.2990 -0.1630 -0.0877
  483MOL0     C63626   6.864   7.481   5.835 -0.5725 -0.4600 -0.0274
  483MOL0     O63627   6.808   7.595   5.883 -0.2149  0.4024 -0.3647
  483MOL0     C63628   6.674   7.607   5.858 -0.2809 -0.4167  0.6510
  483MOL0     C63629   6.582   7.557   5.944  0.5496 -0.5291 -0.9370
  483MOL0     C63630   6.440   7.576   5.926 -0.0351 -0.5435  0.0021
  483MOL0     C63631   6.394   7.654   5.822 -0.2985 -0.0749 -0.5069
  483MOL0     O63632   6.256   7.673   5.802 -0.1759 -0.3034  0.0028
  483MOL0     C63633   6.232   7.811   5.783  0.0577 -0.6419 -0.0257
  483MOL0     C63634   6.083   7.818   5.814  0.9859 -0.1163 -0.1674
  483MOL0     C63635   6.031   7.958   5.825 -0.6649  0.0365 -0.6293
  483MOL0     C63636   5.879   7.960   5.854  0.0344 -0.4503  0.5638
  483MOL0     C63637   5.818   8.097   5.885 -0.1748  0.6101 -0.8011
  483MOL0     C63638   5.673   8.099   5.935  0.0744 -0.0483 -0.5103
  483MOL0     C63639   5.582   8.024   5.827 -0.1943  0.5184 -0.2203
  483MOL0     C63640   5.573   8.107   5.693 -0.5911 -0.4884  1.0845
  483MOL0     N63641   5.518   8.029   5.579 -0.1859  0.7330 -0.3485
  483MOL0     C63642   5.387   8.031   5.534  0.0350  0.0019 -0.3594
  483MOL0     C63643   5.376   7.941   5.429  0.7701 -0.4826 -0.2446
  483MOL0     C63644   5.251   7.894   5.361  0.2043  0.5271 -0.3069
  483MOL0     C63645   5.237   7.959   5.226 -0.7176 -0.7495 -0.8577
  483MOL0     C63646   5.129   7.888   5.148  1.3787 -0.6403  0.8665
  483MOL0     C63647   5.077   7.975   5.023 -0.1243  0.4534  0.8468
  483MOL0     O63648   5.023   8.094   5.076 -0.3076 -0.4279 -0.1854
  483MOL0     C63649   4.895   8.126   5.050 -0.2938  0.2010 -0.5411
  483MOL0     C63650   4.858   8.246   5.104 -0.0954 -0.2037 -0.2577
  483MOL0     C63651   4.725   8.292   5.103  0.8211 -0.2997 -1.1728
  483MOL0     C63652   4.627   8.210   5.037  0.9336 -0.8081  0.3446
  483MOL0     C63653   4.488   8.259   5.024 -0.4429 -0.7727 -1.2175
  483MOL0     O63654   4.466   8.384   5.096  1.4654 -0.8480  0.4124
  483MOL0     C63655   4.342   8.444   5.100 -0.8098 -0.2014  0.1203
  483MOL0     C63656   4.334   8.560   5.166 -0.3802 -0.7948 -0.2435
  483MOL0     C63657   4.229   8.650   5.170 -1.2921  0.5489  0.1272
  483MOL0     C63658   4.115   8.614   5.106  0.5876  0.3926  0.4579
  483MOL0     O63659   4.012   8.705   5.090 -0.1043 -0.4598  0.4722
  483MOL0     C63660   3.880   8.651   5.065 -0.2485  0.5855  0.0971
  483MOL0     C63661   3.794   8.744   5.153 -0.3862 -0.2300 -0.6067
  483MOL0     C63662   3.646   8.708   5.148  0.9083  0.3108 -0.2754
  483MOL0     C63663   3.581   8.779   5.268  0.4817  0.0513 -0.6418
  483MOL0     C63664   3.429   8.743   5.299  0.9516 -1.5350  0.2013
  483MOL0     C63665   3.405   8.585   5.296 -0.0193 -0.0937 -0.4601
  483MOL0     C63666   3.257   8.550   5.327  0.5260 -1.0977 -0.1431
  483MOL0     C63667   3.150   8.585   5.225 -0.9400  0.9486  1.0271
  483MOL0    Cl63668   2.997   8.546   5.298 -0.0124  0.0360  0.3455
  483MOL0     C63669   4.105   8.484   5.044 -0.2243 -0.1688  1.2838
  483MOL0     C63670   4.224   8.400   5.049  0.2233 -0.0856  0.5445
  483MOL0     O63671   4.402   8.181   4.973  0.0513 -1.3134 -0.6294
  483MOL0     C63672   4.672   8.093   4.980  0.4010  0.7290  0.5030
  483MOL0     C63673   4.797   8.044   4.996  0.4322 -0.2866 -0.4048
  483MOL0     N63674   5.498   7.879   5.433  0.1680  0.8045 -0.0628
  483MOL0     N63675   5.577   7.922   5.520 -0.8238 -0.8126 -0.0929
  483MOL0     C63676   6.486   7.695   5.726 -0.1908 -0.0734  0.7063
  483MOL0     C63677   6.623   7.671   5.747 -0.2309  0.0216  0.0658
  483MOL0     C63678   7.001   7.451   5.883 -0.7906  0.3474  0.1554
  483MOL0     C63679   7.070   7.534   5.967  0.0765  0.1257 -0.2998
  483MOL0     C63680   7.200   7.512   5.998 -0.5274  0.1288  0.1317
  483MOL0     C63681   7.269   7.389   5.956  0.3663  0.5132 -0.5035
  483MOL0     O63682   7.404   7.363   5.989 -0.7457 -0.4731  0.9196
  483MOL0     C63683   7.468   7.446   6.086 -0.2870 -0.0483  0.2559
  483MOL0     C63684   7.592   7.370   6.142  0.3321  0.3773 -0.1931
  483MOL0     C63685   7.691   7.452   6.226 -0.5576  0.2185 -0.0595
  483MOL0     C63686   7.815   7.373   6.217 -1.4248  0.1496 -0.3691
  483MOL0     C63687   7.922   7.443   6.296  0.7827 -0.2719  0.0678
  483MOL0     C63688   8.007   7.500   6.359  0.8369 -0.3913 -0.0217
  483MOL0     C63689   7.198   7.298   5.874  0.1818  0.7314 -0.3500
  483MOL0     C63690   7.067   7.339   5.846 -0.1063  1.2424 -0.7612
  483MOL0     H63691   6.630   7.499   6.023  1.1873 -0.3923 -1.2165
  483MOL0     H63692   6.372   7.533   5.999 -1.6776 -1.2218 -1.8598
  483MOL0     H63693   6.259   7.849   5.684 -1.9890 -1.0480 -0.7970
  483MOL0     H63694   6.288   7.868   5.858 -0.7763 -2.3656  2.0296
  483MOL0     H63695   6.064   7.771   5.911 -4.1978  1.5065 -0.0701
  483MOL0     H63696   6.033   7.759   5.736  3.5090 -1.9293 -0.5422
  483MOL0     H63697   6.044   8.013   5.732 -0.2730  1.4820  0.2532
  483MOL0     H63698   6.093   8.021   5.889  0.3389 -1.7298  0.2262
  483MOL0     H63699   5.822   7.922   5.769  1.6876 -2.1370  0.1394
  483MOL0     H63700   5.845   7.894   5.934 -0.6897  0.5263  1.0799
  483MOL0     H63701   5.812   8.163   5.799  0.9139  1.2237 -0.4174
  483MOL0     H63702   5.876   8.154   5.958 -2.0283  2.1872 -0.4750
  483MOL0     H63703   5.625   8.193   5.965  0.3482  0.8723 -2.7925
  483MOL0     H63704   5.663   8.032   6.021 -4.0628 -0.6960 -1.2754
  483MOL0     H63705   5.624   7.924   5.810  0.5305  1.0052 -1.4579
  483MOL0     H63706   5.482   8.002   5.865  0.1080  0.3416  0.4868
  483MOL0     H63707   5.668   8.138   5.649 -2.7878  0.8479 -3.2668
  483MOL0     H63708   5.505   8.192   5.706  0.2710  0.2303  0.9787
  483MOL0     H63709   5.317   8.105   5.571 -0.6438  0.6183 -2.6954
  483MOL0     H63710   5.167   7.914   5.427 -0.1017  2.3074 -1.1839
  483MOL0     H63711   5.260   7.786   5.347 -3.1277 -0.2312  2.1644
  483MOL0     H63712   5.334   7.942   5.177 -0.7529 -0.3119 -1.0867
  483MOL0     H63713   5.208   8.065   5.233 -1.7333 -1.0985  0.8031
  483MOL0     H63714   5.166   7.794   5.104  1.0405  0.4822 -2.0165
  483MOL0     H63715   5.043   7.864   5.211 -2.3048  2.3204 -2.5179
  483MOL0     H63716   5.007   7.926   4.955  0.7574 -0.1979  0.3897
  483MOL0     H63717   5.162   8.000   4.960 -1.2274  1.4000 -0.3136
  483MOL0     H63718   4.938   8.303   5.151  2.8646 -2.6956 -1.9194
  483MOL0     H63719   4.701   8.383   5.158  1.0442 -1.1122  0.3245
  483MOL0     H63720   4.425   8.597   5.212  0.1736  3.5168 -4.0296
  483MOL0     H63721   4.219   8.751   5.208 -2.2815 -0.7905  3.7710
  483MOL0     H63722   3.872   8.549   5.103 -1.7832  0.8347  0.5364
  483MOL0     H63723   3.853   8.646   4.959  1.4670 -3.0827 -0.3161
  483MOL0     H63724   3.799   8.848   5.120  0.3959 -0.2334 -0.5387
  483MOL0     H63725   3.837   8.747   5.253  0.1122 -5.1764 -0.3867
  483MOL0     H63726   3.632   8.602   5.170  1.1792  0.8757  3.1769
  483MOL0     H63727   3.607   8.731   5.048  1.3014  1.6780 -0.1349
  483MOL0     H63728   3.621   8.737   5.361 -1.8757 -0.3103  0.2907
  483MOL0     H63729   3.599   8.887   5.270 -3.3455  0.8546  1.7786
  483MOL0     H63730   3.371   8.800   5.227  0.6548  0.0581  1.6396
  483MOL0     H63731   3.396   8.786   5.394  2.2334  1.2830 -0.5295
  483MOL0     H63732   3.469   8.533   5.368 -0.5607 -1.7273 -1.1226
  483MOL0     H63733   3.417   8.546   5.195 -2.5826  0.3248 -1.0041
  483MOL0     H63734   3.245   8.441   5.337 -2.1217 -1.1400 -2.3703
  483MOL0     H63735   3.232   8.596   5.423  0.2529  0.9725 -1.1553
  483MOL0     H63736   3.178   8.536   5.131  2.6823  1.6161  1.5818
  483MOL0     H63737   3.151   8.692   5.206  1.7657  1.1936  2.0553
  483MOL0     H63738   4.016   8.455   4.988  1.3242 -0.4582 -1.1843
  483MOL0     H63739   4.218   8.300   5.006 -2.4397  1.2415 -2.6739
  483MOL0     H63740   4.600   8.029   4.929 -1.4147  1.0667  2.4927
  483MOL0     H63741   4.807   7.941   4.962  0.1712  0.0339 -1.4954
  483MOL0     H63742   6.458   7.738   5.630  1.4698  0.9734  0.6429
  483MOL0     H63743   6.682   7.712   5.665  0.2440 -1.5044 -0.3855
  483MOL0     H63744   7.020   7.627   5.992 -0.2712  0.4013 -1.8743
  483MOL0     H63745   7.240   7.591   6.061  0.0831  0.1349 -0.2563
  483MOL0     H63746   7.407   7.470   6.174  0.4094  1.3285  0.3733
  483MOL0     H63747   7.497   7.541   6.041 -0.5173  1.6392  3.4159
  483MOL0     H63748   7.555   7.283   6.196  1.0805  0.2222  0.0818
  483MOL0     H63749   7.639   7.328   6.053 -3.3418  0.2325 -2.2670
  483MOL0     H63750   7.640   7.467   6.322 -3.9075 -3.6293 -0.9398
  483MOL0     H63751   7.706   7.548   6.177 -0.8082 -1.3136 -3.4250
  483MOL0     H63752   7.802   7.275   6.263  0.5159  0.8370  1.8632
  483MOL0     H63753   7.845   7.380   6.112  1.8973  2.2171  0.5737
  483MOL0     H63754   8.084   7.555   6.408  0.0867  1.8236 -1.1753
  483MOL0     H63755   7.251   7.208   5.846  0.1935  0.1283  1.5072
  483MOL0     H63756   7.002   7.266   5.801 -0.1872  0.7575  0.1104
  484MOL0     O63757   0.276   6.185  10.781  0.0747  0.4284  0.1459
  484MOL0     C63758   0.305   6.089  10.852 -0.2438  0.6063 -1.6605
  484MOL0     O63759   0.224   6.033  10.948 -0.1219  0.0590 -0.1301
  484MOL0     C63760   0.118   6.096  11.010  0.2161 -0.3458 -0.8735
  484MOL0     C63761   0.024   6.017  11.079  0.5233  0.1464  0.5641
  484MOL0     C63762  -0.096   6.077  11.120 -0.1227  0.0799 -0.5968
  484MOL0     C63763  -0.120   6.213  11.124  0.5137  0.5942 -0.6598
  484MOL0     O63764  -0.239   6.260  11.181 -0.3504  0.1390  0.4313
  484MOL0     C63765  -0.263   6.404  11.172  0.2375 -0.1033 -0.8528
  484MOL0     C63766  -0.405   6.448  11.229 -0.0822 -0.4324 -0.3726
  484MOL0     C63767  -0.407   6.406  11.381 -0.1284  0.0793  0.7351
  484MOL0     C63768  -0.546   6.422  11.434  0.1800 -0.1597 -0.4376
  484MOL0     C63769  -0.576   6.331  11.554  0.5707 -0.0142  0.1799
  484MOL0     C63770  -0.728   6.337  11.583  0.5862  0.2202  0.4826
  484MOL0     C63771  -0.759   6.252  11.704  0.5980  0.2307 -0.3107
  484MOL0     C63772  -0.908   6.276  11.748 -0.0434  0.3375  0.5492
  484MOL0     N63773  -1.007   6.196  11.664  0.4631  0.2325 -0.1434
  484MOL0     C63774  -1.129   6.241  11.629 -0.0810 -0.7951  0.5944
  484MOL0     C63775  -1.196   6.141  11.588  0.2490 -0.3864  0.6236
  484MOL0     C63776  -1.337   6.131  11.533  0.2223 -1.2741  0.0944
  484MOL0     C63777  -1.431   6.246  11.563  0.1841  0.7423  0.0953
  484MOL0     C63778  -1.562   6.218  11.490  0.0994 -0.1591  0.2778
  484MOL0     C63779  -1.662   6.323  11.530  0.4922 -0.7947 -1.1391
  484MOL0     O63780  -1.777   6.313  11.448 -0.6452  0.5552  0.5075
  484MOL0     C63781  -1.878   6.401  11.466  0.7523  0.0443 -0.3595
  484MOL0     C63782  -1.858   6.530  11.526 -0.4881  0.8380  0.5808
  484MOL0     C63783  -1.963   6.621  11.521  1.0246 -0.0442  0.6388
  484MOL0     C63784  -2.087   6.594  11.457  1.3215 -0.7030 -0.2832
  484MOL0     C63785  -2.191   6.686  11.415 -0.3156  0.6031  0.1003
  484MOL0     O63786  -2.321   6.651  11.423  0.5434  0.5679 -0.1112
  484MOL0     C63787  -2.425   6.736  11.403 -0.5580  1.2763 -0.4181
  484MOL0     C63788  -2.445   6.802  11.288 -0.4763 -1.0528 -0.0116
  484MOL0     C63789  -2.559   6.877  11.265  0.5356 -0.7979 -0.1587
  484MOL0     C63790  -2.650   6.895  11.370  0.2474  0.2410 -0.1266
  484MOL0     O63791  -2.745   6.992  11.358  1.0656 -0.6546  0.5544
  484MOL0     C63792  -2.751   7.090  11.462 -0.2536 -0.5129 -0.2983
  484MOL0     C63793  -2.807   7.213  11.416  0.5479 -0.3921 -0.6126
  484MOL0     C63794  -2.957   7.208  11.413  0.9197  0.0415  0.0326
  484MOL0     C63795  -3.008   7.346  11.364  0.2668 -0.1895  0.6352
  484MOL0     C63796  -3.166   7.373  11.383 -0.1932 -0.3126  0.5787
  484MOL0     C63797  -3.229   7.498  11.315  0.3621  0.1950  0.5562
  484MOL0     C63798  -3.378   7.495  11.337  0.0200 -0.5455  1.1661
  484MOL0     C63799  -3.447   7.573  11.221  0.6298 -0.2287 -0.3087
  484MOL0    Cl63800  -3.628   7.556  11.254 -0.3779 -0.0620 -0.2103
  484MOL0     C63801  -2.631   6.823  11.486  0.3260 -0.5541  0.2418
  484MOL0     C63802  -2.523   6.741  11.503  0.1451  1.3632  0.6909
  484MOL0     O63803  -2.142   6.786  11.363 -0.6817 -0.1885 -0.1534
  484MOL0     C63804  -2.106   6.462  11.417  0.2975  0.4641  0.2051
  484MOL0     C63805  -2.002   6.363  11.415 -0.2387 -1.1149 -1.1965
  484MOL0     N63806  -1.109   6.029  11.583  0.4726 -0.2928 -0.0912
  484MOL0     N63807  -0.993   6.054  11.641  0.1298 -1.0856 -0.0743
  484MOL0     C63808  -0.015   6.294  11.084 -0.5684  0.4812 -0.5890
  484MOL0     C63809   0.101   6.235  11.013  0.4009 -0.0226  0.8892
  484MOL0     C63810   0.446   6.048  10.858 -0.6436  0.6168  0.2692
  484MOL0     C63811   0.485   5.964  10.962 -0.3356  1.1038 -0.0903
  484MOL0     C63812   0.626   5.931  10.983  0.1978 -0.9665  0.1185
  484MOL0     C63813   0.718   5.991  10.892  0.6116  0.4046 -0.3789
  484MOL0     O63814   0.854   5.964  10.904  0.7987  0.0096  0.5823
  484MOL0     C63815   0.908   5.859  10.822  1.0269  0.1040  0.1522
  484MOL0     C63816   1.050   5.812  10.862 -0.7984  0.5333 -0.1294
  484MOL0     C63817   1.039   5.716  10.987  0.2600 -0.6117  0.5168
  484MOL0     C63818   1.156   5.740  11.086  0.1163  0.7622  0.4199
  484MOL0     C63819   1.291   5.696  11.030  0.2896 -0.0627 -0.2517
  484MOL0     C63820   1.391   5.656  10.979 -0.6568 -0.0087  0.8640
  484MOL0     C63821   0.671   6.074  10.792  0.6546 -0.6145  0.3749
  484MOL0     C63822   0.543   6.100  10.778  0.2810 -0.3573  0.4717
  484MOL0     H63823   0.052   5.912  11.085  2.3492  0.5149 -0.6349
  484MOL0     H63824  -0.181   6.021  11.158 -0.2913  0.9804  0.4015
  484MOL0     H63825  -0.250   6.429  11.067  0.3208  3.1983 -0.1741
  484MOL0     H63826  -0.189   6.467  11.222  0.7715 -1.1103 -0.3436
  484MOL0     H63827  -0.483   6.386  11.184 -0.2645  1.1701 -2.4057
  484MOL0     H63828  -0.437   6.550  11.207 -1.5249 -1.0713 -1.3611
  484MOL0     H63829  -0.337   6.473  11.433 -1.0762  3.3231 -1.8808
  484MOL0     H63830  -0.365   6.305  11.396  0.6860  0.1375 -0.9643
  484MOL0     H63831  -0.563   6.522  11.474 -0.8029  0.7343 -2.9321
  484MOL0     H63832  -0.623   6.402  11.359 -1.9218  0.6420  1.3950
  484MOL0     H63833  -0.505   6.349  11.635  0.0290 -1.5240  1.0436
  484MOL0     H63834  -0.557   6.229  11.518  0.8589 -0.3903  1.3444
  484MOL0     H63835  -0.792   6.293  11.505  1.7617  0.7918 -0.8490
  484MOL0     H63836  -0.756   6.442  11.591 -0.9611  0.0928 -1.9947
  484MOL0     H63837  -0.737   6.145  11.691  1.2462 -0.2137  3.2797
  484MOL0     H63838  -0.696   6.284  11.788  1.5621 -2.0985 -0.0582
  484MOL0     H63839  -0.926   6.384  11.748 -1.5839  0.1125  0.5298
  484MOL0     H63840  -0.914   6.230  11.847  1.1760 -2.1175 -0.4360
  484MOL0     H63841  -1.164   6.344  11.629 -0.2722 -0.8366  2.0583
  484MOL0     H63842  -1.394   6.041  11.559  0.1416 -2.6167 -4.1240
  484MOL0     H63843  -1.313   6.132  11.427 -0.4251 -0.9146 -0.0541
  484MOL0     H63844  -1.382   6.338  11.531  2.8922 -0.1525  1.3410
  484MOL0     H63845  -1.460   6.244  11.668 -1.2908 -2.0208 -0.2623
  484MOL0     H63846  -1.553   6.221  11.381 -3.0006  1.8287 -0.0370
  484MOL0     H63847  -1.590   6.114  11.511  1.9969 -0.5574  1.0807
  484MOL0     H63848  -1.617   6.422  11.516 -0.1954 -0.4561 -1.0150
  484MOL0     H63849  -1.696   6.304  11.632  3.8855 -0.3743  0.1876
  484MOL0     H63850  -1.761   6.546  11.572  0.2164 -2.9299  0.6928
  484MOL0     H63851  -1.946   6.723  11.553  1.7364 -0.7913  2.8461
  484MOL0     H63852  -2.374   6.792  11.206  1.8302  1.2881  1.5519
  484MOL0     H63853  -2.575   6.939  11.177  2.2086 -1.3685 -0.9075
  484MOL0     H63854  -2.649   7.113  11.494 -0.5598 -0.2551  0.4834
  484MOL0     H63855  -2.806   7.054  11.549  0.5715 -1.4976 -0.1588
  484MOL0     H63856  -2.765   7.243  11.319  0.4654  2.1696  0.0896
  484MOL0     H63857  -2.777   7.292  11.485 -0.3129  1.5816 -2.3702
  484MOL0     H63858  -2.994   7.171  11.509 -1.5131 -1.3932 -1.3709
  484MOL0     H63859  -2.984   7.138  11.333 -0.1732 -3.1743  2.9596
  484MOL0     H63860  -2.956   7.425  11.419  1.7118 -0.1099 -0.8001
  484MOL0     H63861  -2.976   7.350  11.260 -0.8460 -1.3062  0.2172
  484MOL0     H63862  -3.192   7.373  11.490  0.0031  3.6261  0.7632
  484MOL0     H63863  -3.202   7.276  11.348  2.0584 -0.5065 -1.4480
  484MOL0     H63864  -3.209   7.484  11.208  0.0118  0.5254  0.4433
  484MOL0     H63865  -3.186   7.595  11.340  0.7937 -0.1500  1.1761
  484MOL0     H63866  -3.423   7.395  11.340 -0.4434 -0.3879  0.0667
  484MOL0     H63867  -3.402   7.544  11.431 -1.9733 -1.7778  1.3668
  484MOL0     H63868  -3.420   7.536  11.122 -2.6920 -0.6403 -1.1865
  484MOL0     H63869  -3.416   7.678  11.225 -3.6191  1.2134 -0.1595
  484MOL0     H63870  -2.713   6.844  11.554  0.2578  1.5924 -0.4327
  484MOL0     H63871  -2.504   6.694  11.598 -0.0687  0.1556  0.1495
  484MOL0     H63872  -2.198   6.436  11.366  0.6455  1.1156 -0.8028
  484MOL0     H63873  -2.007   6.260  11.384  0.8406 -1.0735 -1.5447
  484MOL0     H63874  -0.019   6.403  11.091  0.5557  0.5100 -0.2261
  484MOL0     H63875   0.166   6.301  10.957  2.4945 -0.7670  2.3253
  484MOL0     H63876   0.421   5.909  11.030  2.1015 -0.9629  0.7034
  484MOL0     H63877   0.669   5.866  11.058  0.6734  0.6583  1.3175
  484MOL0     H63878   0.929   5.891  10.719  0.5656  2.4608  0.7465
  484MOL0     H63879   0.848   5.768  10.831  1.2948 -0.1987 -0.9389
  484MOL0     H63880   1.100   5.771  10.774  1.9703  5.2173 -1.0895
  484MOL0     H63881   1.105   5.905  10.877 -0.6065  0.2636  0.9899
  484MOL0     H63882   1.026   5.610  10.964 -0.6159 -0.6408  1.0867
  484MOL0     H63883   0.947   5.753  11.034  1.2378 -0.0484  2.0758
  484MOL0     H63884   1.164   5.848  11.105 -1.4783  1.0636 -0.4961
  484MOL0     H63885   1.138   5.692  11.183  3.6249  1.9850  1.8769
  484MOL0     H63886   1.479   5.609  10.941 -1.5841 -0.9692 -0.1478
  484MOL0     H63887   0.741   6.101  10.713 -1.7002  1.4359 -1.1293
  484MOL0     H63888   0.525   6.159  10.688 -0.6006  2.1594  2.1818
  485MOL0     O63889   4.552   1.327   0.797  0.4397 -0.2991 -0.0557
  485MOL0     C63890   4.640   1.307   0.715 -0.8715  0.0824  0.2627
  485MOL0     O63891   4.622   1.230   0.599  0.4966  0.3163  0.2636
  485MOL0     C63892   4.492   1.181   0.566 -0.8536 -0.5213  0.3493
  485MOL0     C63893   4.381   1.256   0.531 -0.2007 -0.7173 -0.1282
  485MOL0     C63894   4.254   1.197   0.517 -0.3021 -0.0959  0.0545
  485MOL0     C63895   4.241   1.053   0.523  0.6050  0.6500  0.0631
  485MOL0     O63896   4.129   0.991   0.485  0.2138 -0.5042  0.0023
  485MOL0     C63897   4.018   1.057   0.433  0.0249  0.1812 -0.2147
  485MOL0     C63898   3.921   1.103   0.535 -0.6490  0.4351 -0.9124
  485MOL0     C63899   3.809   1.185   0.460  1.0486 -0.0243 -0.4662
  485MOL0     C63900   3.682   1.185   0.554  0.4895 -0.4289  1.0285
  485MOL0     C63901   3.583   1.298   0.510 -0.4376  0.1806  0.0133
  485MOL0     C63902   3.513   1.268   0.380 -0.2706  0.5440 -0.2097
  485MOL0     C63903   3.387   1.350   0.385  0.1437  0.2308 -0.6295
  485MOL0     C63904   3.314   1.336   0.249  0.7091 -0.4482 -0.3316
  485MOL0     N63905   3.179   1.391   0.258 -0.0788 -0.2523 -0.3375
  485MOL0     C63906   3.080   1.300   0.299  0.0952 -0.0507 -0.6222
  485MOL0     C63907   2.987   1.383   0.331  0.2206  0.4368  0.3506
  485MOL0     C63908   2.849   1.332   0.364 -0.7912  0.2640 -0.0350
  485MOL0     C63909   2.748   1.425   0.428 -1.0161  0.7388  0.0535
  485MOL0     C63910   2.683   1.517   0.331  0.2634 -1.1334 -0.0001
  485MOL0     C63911   2.525   1.492   0.328  0.5350 -0.1844  0.5317
  485MOL0     O63912   2.473   1.566   0.434  0.6945  0.1603  0.0213
  485MOL0     C63913   2.338   1.599   0.431 -0.3120  0.3654  0.5413
  485MOL0     C63914   2.311   1.724   0.480  1.0358  0.4499  0.1088
  485MOL0     C63915   2.178   1.776   0.482 -0.4833 -0.0631  0.1276
  485MOL0     C63916   2.071   1.699   0.425 -1.0528 -0.6246  0.4125
  485MOL0     C63917   1.934   1.745   0.426 -0.0628 -0.0558 -1.2110
  485MOL0     O63918   1.915   1.872   0.471 -0.7474 -0.2738  0.0074
  485MOL0     C63919   1.784   1.929   0.480 -0.3761 -0.6631 -0.8977
  485MOL0     C63920   1.667   1.859   0.517  0.5219  0.5204  0.0149
  485MOL0     C63921   1.545   1.927   0.529 -0.4269 -0.0793 -0.4713
  485MOL0     C63922   1.527   2.054   0.492  0.3157 -0.8715  0.0709
  485MOL0     O63923   1.402   2.119   0.477 -0.3132  0.4246 -0.1442
  485MOL0     C63924   1.285   2.051   0.511  0.2369  0.6520 -0.6914
  485MOL0     C63925   1.265   2.075   0.663 -0.5019  0.1279  0.3165
  485MOL0     C63926   1.173   1.976   0.728  0.3487 -0.7868  1.5208
  485MOL0     C63927   1.033   1.981   0.680  0.5125 -0.1427  0.1942
  485MOL0     C63928   0.939   1.893   0.771 -0.6611 -0.5620  0.0650
  485MOL0     C63929   0.794   1.918   0.719 -1.0648 -0.0525  0.7372
  485MOL0     C63930   0.703   1.800   0.764 -0.2968 -0.2116  0.2637
  485MOL0     C63931   0.691   1.804   0.914 -0.6146  0.2134  0.7232
  485MOL0    Cl63932   0.593   1.676   0.976  0.7801  0.0181 -0.1344
  485MOL0     C63933   1.642   2.127   0.452 -0.5588 -0.1639  0.5041
  485MOL0     C63934   1.770   2.063   0.457  0.0170 -0.2760  0.1402
  485MOL0     O63935   1.851   1.674   0.372  0.7908 -0.2399  0.2223
  485MOL0     C63936   2.108   1.576   0.385  1.1003 -0.2248  0.1112
  485MOL0     C63937   2.237   1.524   0.386  0.4313  0.5378 -0.3603
  485MOL0     N63938   3.016   1.514   0.310 -0.5124 -0.5174  0.4894
  485MOL0     N63939   3.136   1.527   0.266  0.3680 -0.2266 -0.7151
  485MOL0     C63940   4.353   0.979   0.547  0.5685 -0.3469 -0.4240
  485MOL0     C63941   4.476   1.041   0.566  0.2460 -0.4519 -0.1407
  485MOL0     C63942   4.778   1.361   0.722 -0.5298  0.4996 -0.0889
  485MOL0     C63943   4.819   1.422   0.841 -0.5297 -0.5737  1.5115
  485MOL0     C63944   4.946   1.471   0.856  0.1213  0.0382  0.2740
  485MOL0     C63945   5.041   1.455   0.752  0.1438 -0.1524  0.2174
  485MOL0     O63946   5.174   1.492   0.765  1.0266  0.2660 -0.4562
  485MOL0     C63947   5.201   1.619   0.821 -1.2910  0.0109 -0.9149
  485MOL0     C63948   5.350   1.655   0.819 -0.8731  0.0247  0.0528
  485MOL0     C63949   5.397   1.710   0.685 -0.6741  0.0453 -0.5212
  485MOL0     C63950   5.486   1.620   0.607 -0.0755  0.5572 -0.4675
  485MOL0     C63951   5.417   1.485   0.598  0.7531 -0.4941  0.3976
  485MOL0     C63952   5.362   1.377   0.593 -0.6821  0.5732 -0.2131
  485MOL0     C63953   5.003   1.395   0.636  0.1892  0.0112 -0.2983
  485MOL0     C63954   4.875   1.343   0.619 -0.0251 -0.3121 -1.4259
  485MOL0     H63955   4.390   1.362   0.509 -2.1873 -0.9250 -2.4248
  485MOL0     H63956   4.174   1.267   0.494 -0.9436  0.1095  2.6413
  485MOL0     H63957   3.965   0.987   0.367  0.4178 -0.0944 -0.2414
  485MOL0     H63958   4.058   1.139   0.373  1.4030  0.0890  0.5415
  485MOL0     H63959   3.973   1.160   0.613 -1.6766  0.6297 -0.3575
  485MOL0     H63960   3.886   1.009   0.579 -0.9224  0.6364 -0.6983
  485MOL0     H63961   3.778   1.140   0.365 -1.0418  0.1678  0.0763
  485MOL0     H63962   3.835   1.289   0.438  2.8564 -0.4374 -0.4475
  485MOL0     H63963   3.630   1.090   0.542 -0.5325  0.4210 -1.8916
  485MOL0     H63964   3.714   1.202   0.657  2.6342 -0.7022  0.4509
  485MOL0     H63965   3.636   1.393   0.505  2.7322 -1.4406  0.1806
  485MOL0     H63966   3.507   1.302   0.589  2.1932 -1.4345  2.8252
  485MOL0     H63967   3.488   1.162   0.364  1.4989 -0.0237  0.4820
  485MOL0     H63968   3.574   1.299   0.295 -1.2592 -1.6285 -1.8341
  485MOL0     H63969   3.329   1.313   0.470  2.9496 -0.5922  1.0878
  485MOL0     H63970   3.416   1.455   0.397 -1.1137  0.4881  0.3739
  485MOL0     H63971   3.317   1.231   0.218 -0.6163 -1.2796  2.0602
  485MOL0     H63972   3.365   1.389   0.168  1.7491 -1.3405 -0.2852
  485MOL0     H63973   3.073   1.192   0.313  0.6263  0.1562  1.7009
  485MOL0     H63974   2.863   1.256   0.441 -0.8473  2.6801  2.5073
  485MOL0     H63975   2.806   1.288   0.273 -1.0437 -1.4275  0.8519
  485MOL0     H63976   2.805   1.494   0.491 -1.0259  1.5486 -0.7996
  485MOL0     H63977   2.682   1.372   0.497 -2.7388  1.4759 -0.9684
  485MOL0     H63978   2.705   1.620   0.361  0.3855 -1.4037  0.8646
  485MOL0     H63979   2.728   1.494   0.234 -0.5809 -2.4629 -0.0936
  485MOL0     H63980   2.509   1.386   0.349 -0.6112  0.2592  2.0158
  485MOL0     H63981   2.486   1.540   0.238  1.2065  0.4944  0.5914
  485MOL0     H63982   2.392   1.785   0.517 -0.4529  1.2561  2.2490
  485MOL0     H63983   2.148   1.874   0.518 -2.1872 -0.3503 -0.4376
  485MOL0     H63984   1.691   1.754   0.533  0.6934  0.5726  0.1091
  485MOL0     H63985   1.461   1.881   0.580 -0.7811 -0.5108 -1.4226
  485MOL0     H63986   1.288   1.947   0.478  4.4111  0.6382 -0.7435
  485MOL0     H63987   1.199   2.090   0.456 -0.3064 -0.4807 -0.6830
  485MOL0     H63988   1.227   2.174   0.689 -1.8411 -0.5138  0.8877
  485MOL0     H63989   1.357   2.041   0.711  0.1470  4.2101  2.4690
  485MOL0     H63990   1.183   2.010   0.831  2.5190  3.6082  0.1109
  485MOL0     H63991   1.211   1.874   0.717 -1.8627 -1.4641 -0.8047
  485MOL0     H63992   0.991   2.082   0.676 -1.3964 -0.7973  2.0196
  485MOL0     H63993   1.029   1.941   0.578  0.7218 -0.7976  0.4438
  485MOL0     H63994   0.949   1.924   0.875  1.0889 -3.5638  0.9037
  485MOL0     H63995   0.966   1.788   0.757 -2.6561 -0.7565 -3.3481
  485MOL0     H63996   0.803   1.926   0.610  0.2856 -0.4219  0.8061
  485MOL0     H63997   0.757   2.014   0.756 -1.0574 -0.7540  2.6713
  485MOL0     H63998   0.605   1.810   0.718  0.9420 -0.8861 -2.7807
  485MOL0     H63999   0.745   1.700   0.750 -0.2540 -0.5664  2.5075
  485MOL0     H64000   0.659   1.907   0.931  0.5026  0.6799  0.1241
  485MOL0     H64001   0.792   1.798   0.954  1.0396  2.9273 -2.5192
  485MOL0     H64002   1.629   2.224   0.405  0.1295 -0.3242 -0.0325
  485MOL0     H64003   1.855   2.117   0.418  1.6547 -2.2778  0.7571
  485MOL0     H64004   2.028   1.514   0.348 -1.5226  1.3859  2.6962
  485MOL0     H64005   2.251   1.420   0.355 -1.8757 -0.3210  1.2075
  485MOL0     H64006   4.342   0.871   0.547 -1.0043 -0.2357  1.1422
  485MOL0     H64007   4.565   0.985   0.591 -0.0341 -0.3686  1.1169
  485MOL0     H64008   4.760   1.418   0.932 -1.3092  1.3703  1.1151
  485MOL0     H64009   4.968   1.506   0.956  0.1103 -1.8570  0.9763
  485MOL0     H64010   5.170   1.628   0.926  1.3207 -1.2147  0.0492
  485MOL0     H64011   5.143   1.692   0.764  1.1254  0.8642 -2.4506
  485MOL0     H64012   5.343   1.748   0.877 -5.1894 -1.2975  2.1129
  485MOL0     H64013   5.412   1.584   0.875 -0.7522 -0.3849 -0.5955
  485MOL0     H64014   5.453   1.801   0.705  0.6391 -0.5461 -1.3742
  485MOL0     H64015   5.307   1.737   0.628 -0.3537  0.5752 -0.7802
  485MOL0     H64016   5.501   1.658   0.505  0.8555 -0.2975 -0.6727
  485MOL0     H64017   5.579   1.611   0.664  0.8121  0.7160 -1.8234
  485MOL0     H64018   5.333   1.277   0.617 -0.0073  0.4631  0.1650
  485MOL0     H64019   5.081   1.394   0.560 -1.5985 -1.2116 -2.2251
  485MOL0     H64020   4.854   1.279   0.534 -0.5498 -1.0547 -0.7495
  486MOL0     O64021   8.458   9.242   1.471 -0.3579 -0.9380 -0.0021
  486MOL0     C64022   8.547   9.327   1.488  0.6422 -1.3079  0.5389
  486MOL0     O64023   8.532   9.456   1.468 -0.2177  0.2873  1.2699
  486MOL0     C64024   8.405   9.508   1.450 -0.7314 -0.2778  0.4850
  486MOL0     C64025   8.330   9.465   1.342  0.5164  0.1639  0.0087
  486MOL0     C64026   8.193   9.496   1.344  0.3242 -0.1295  0.5994
  486MOL0     C64027   8.135   9.583   1.436  0.1380  0.3913  0.2581
  486MOL0     O64028   8.003   9.620   1.436 -1.2253 -0.0249 -0.6495
  486MOL0     C64029   7.922   9.571   1.334 -0.2084 -0.2723 -0.1030
  486MOL0     C64030   7.778   9.626   1.341  1.0299  0.0410 -0.1240
  486MOL0     C64031   7.679   9.532   1.400  0.6963 -0.2336 -0.6267
  486MOL0     C64032   7.712   9.515   1.554 -0.2104 -0.4183  0.8514
  486MOL0     C64033   7.575   9.511   1.629 -0.5521  0.6564  0.2772
  486MOL0     C64034   7.582   9.494   1.781 -0.4750 -0.2209  0.2727
  486MOL0     C64035   7.447   9.482   1.846  0.1509  0.1773 -0.4611
  486MOL0     C64036   7.378   9.615   1.858  0.1767  0.1663  0.2878
  486MOL0     N64037   7.249   9.590   1.934 -0.2977 -0.1872  0.0176
  486MOL0     C64038   7.121   9.597   1.895 -0.0363  0.1220  0.8038
  486MOL0     C64039   7.048   9.583   2.005  0.0319  1.0798  0.0317
  486MOL0     C64040   6.906   9.608   2.028  0.2333  0.1022  0.9419
  486MOL0     C64041   6.845   9.499   2.123  0.8591  0.0622 -0.0845
  486MOL0     C64042   6.811   9.566   2.266  0.5135 -0.1895 -0.2846
  486MOL0     C64043   6.712   9.481   2.347 -0.6017 -0.3226 -0.7323
  486MOL0     O64044   6.680   9.552   2.472  0.3425  0.1909 -0.0446
  486MOL0     C64045   6.548   9.527   2.508 -0.3499 -0.2129  0.4191
  486MOL0     C64046   6.440   9.574   2.432 -0.1365  0.2788  0.1220
  486MOL0     C64047   6.313   9.538   2.455  1.2614  0.1328  0.7078
  486MOL0     C64048   6.281   9.461   2.566 -0.7942 -0.7717 -0.0277
  486MOL0     C64049   6.151   9.406   2.595 -0.3231 -0.0951  0.6287
  486MOL0     O64050   6.051   9.460   2.523 -0.8064  0.7840  0.1092
  486MOL0     C64051   5.926   9.411   2.536  0.1377 -0.9102  0.5642
  486MOL0     C64052   5.866   9.354   2.645 -0.5282 -0.4754 -0.1259
  486MOL0     C64053   5.736   9.323   2.640  0.0067  0.3684 -0.1170
  486MOL0     C64054   5.656   9.341   2.530  0.1116 -0.0135 -0.0223
  486MOL0     O64055   5.525   9.306   2.515  0.4833  0.9100  0.0034
  486MOL0     C64056   5.450   9.258   2.622  0.1567  0.3535 -0.7399
  486MOL0     C64057   5.316   9.201   2.567 -0.1755 -0.5232 -0.4897
  486MOL0     C64058   5.219   9.309   2.529  0.2271 -0.4753  0.3280
  486MOL0     C64059   5.082   9.254   2.480 -0.8576 -0.2707  0.3396
  486MOL0     C64060   4.987   9.375   2.418 -0.1712  0.2780  0.2816
  486MOL0     C64061   4.872   9.410   2.504 -0.3967 -0.0856  0.8347
  486MOL0     C64062   4.777   9.295   2.522  0.4770  0.2839  0.6945
  486MOL0     C64063   4.634   9.356   2.563 -0.5530 -1.1031  0.8485
  486MOL0    Cl64064   4.534   9.217   2.621  0.3489 -0.8195 -0.2900
  486MOL0     C64065   5.711   9.408   2.427  0.3035  0.3042 -0.1692
  486MOL0     C64066   5.847   9.436   2.420  1.2884 -0.1143 -0.5814
  486MOL0     O64067   6.142   9.318   2.678 -0.9631 -0.2748 -0.1505
  486MOL0     C64068   6.387   9.423   2.657  0.0477 -0.0854 -0.2271
  486MOL0     C64069   6.519   9.454   2.631  0.4360 -0.2775  0.4834
  486MOL0     N64070   7.131   9.549   2.112 -0.0412 -0.5541 -0.5222
  486MOL0     N64071   7.249   9.561   2.062 -0.2193 -0.3676 -0.4476
  486MOL0     C64072   8.217   9.620   1.544 -0.0730  0.1072  0.4318
  486MOL0     C64073   8.351   9.589   1.548 -0.6231 -0.1645  0.4372
  486MOL0     C64074   8.678   9.278   1.532  0.4826  0.4265 -0.3797
  486MOL0     C64075   8.756   9.361   1.620 -0.3909  0.1917  0.2114
  486MOL0     C64076   8.879   9.311   1.666  0.1680 -0.1377  0.5358
  486MOL0     C64077   8.924   9.177   1.632 -0.1093 -0.0608 -0.1390
  486MOL0     O64078   9.026   9.122   1.700 -0.2514 -0.1943 -0.7708
  486MOL0     C64079   9.149   9.196   1.690  0.1737 -0.5236  0.3411
  486MOL0     C64080   9.235   9.155   1.575  0.1977 -0.9583 -0.4399
  486MOL0     C64081   9.276   9.006   1.589  0.2623 -0.3442  0.1009
  486MOL0     C64082   9.344   8.953   1.465  1.1041 -0.0006 -0.3280
  486MOL0     C64083   9.251   8.899   1.364 -0.1579 -0.1685  0.0136
  486MOL0     C64084   9.168   8.844   1.291  0.2556  0.9621 -0.2892
  486MOL0     C64085   8.848   9.107   1.540 -0.6946 -0.2196 -0.2821
  486MOL0     C64086   8.732   9.160   1.489  0.3204 -0.2858  0.0846
  486MOL0     H64087   8.372   9.420   1.252 -0.1678 -1.8305  0.6416
  486MOL0     H64088   8.131   9.468   1.260 -0.3451  1.1238  0.6542
  486MOL0     H64089   7.930   9.462   1.334  0.8225 -0.2097 -0.9477
  486MOL0     H64090   7.957   9.601   1.235 -3.7307 -0.2881 -1.4979
  486MOL0     H64091   7.745   9.643   1.239  0.7762 -1.9761 -0.4197
  486MOL0     H64092   7.791   9.722   1.390 -2.2990  1.5143 -1.8385
  486MOL0     H64093   7.663   9.437   1.348  0.3713  0.4748 -1.8811
  486MOL0     H64094   7.584   9.586   1.391  0.4139 -0.5104  0.5006
  486MOL0     H64095   7.782   9.431   1.558  0.3391 -0.1452 -1.3963
  486MOL0     H64096   7.772   9.603   1.578  1.8374 -1.6215  0.3794
  486MOL0     H64097   7.517   9.427   1.590 -0.4438 -0.1956  1.8180
  486MOL0     H64098   7.522   9.602   1.601 -2.9829 -1.1880 -1.5343
  486MOL0     H64099   7.632   9.588   1.806  0.4876 -0.4915 -0.5481
  486MOL0     H64100   7.638   9.405   1.812 -1.7424 -0.9593  0.4944
  486MOL0     H64101   7.386   9.412   1.789  1.9202 -4.3027  2.5254
  486MOL0     H64102   7.458   9.436   1.945 -1.4184 -0.8523 -0.7411
  486MOL0     H64103   7.345   9.655   1.762  1.0976  0.7919  0.2155
  486MOL0     H64104   7.444   9.691   1.901  1.6898 -1.1349  0.3272
  486MOL0     H64105   7.081   9.616   1.796 -0.5888  0.6038  1.1135
  486MOL0     H64106   6.859   9.614   1.929  0.5469 -0.9356  0.7114
  486MOL0     H64107   6.890   9.703   2.079  0.4237 -0.0980  1.3764
  486MOL0     H64108   6.913   9.413   2.135  0.5175 -0.1833  0.0993
  486MOL0     H64109   6.751   9.458   2.086 -0.2537 -0.3495  2.9089
  486MOL0     H64110   6.898   9.570   2.332  1.0957  4.1869 -1.0262
  486MOL0     H64111   6.762   9.663   2.253  3.0147  1.1706 -0.2464
  486MOL0     H64112   6.757   9.385   2.375  2.4393  1.2973  0.3695
  486MOL0     H64113   6.621   9.447   2.297 -0.3790  0.3012 -1.5850
  486MOL0     H64114   6.461   9.642   2.350 -1.9589  2.7339  1.5821
  486MOL0     H64115   6.227   9.573   2.399  0.2175  0.2359  2.3222
  486MOL0     H64116   5.927   9.330   2.731 -0.2878 -3.8638 -1.1192
  486MOL0     H64117   5.686   9.280   2.726  1.1653  0.6455  0.7330
  486MOL0     H64118   5.417   9.344   2.681  0.1744  0.5228 -0.9769
  486MOL0     H64119   5.492   9.179   2.684  0.4023  2.0863  1.4069
  486MOL0     H64120   5.277   9.139   2.648  2.5844 -1.7859  0.0047
  486MOL0     H64121   5.340   9.142   2.477  2.5699 -0.2193 -0.0373
  486MOL0     H64122   5.260   9.365   2.445 -2.1250 -0.8349 -1.1358
  486MOL0     H64123   5.200   9.378   2.612  1.0293  2.6342 -1.8943
  486MOL0     H64124   5.098   9.172   2.408 -0.5548  1.5705 -1.7889
  486MOL0     H64125   5.032   9.219   2.571 -3.1303  3.5509  0.7563
  486MOL0     H64126   4.960   9.363   2.312 -1.9680  3.0375  0.3048
  486MOL0     H64127   5.049   9.464   2.427  0.5639 -0.2425  0.4458
  486MOL0     H64128   4.825   9.505   2.476 -1.5871 -1.2690 -1.4737
  486MOL0     H64129   4.915   9.423   2.604  1.4077 -1.7758  0.3507
  486MOL0     H64130   4.774   9.237   2.429 -1.5047  0.9796  0.2796
  486MOL0     H64131   4.820   9.220   2.589 -0.1803 -1.1491 -0.4391
  486MOL0     H64132   4.585   9.399   2.476 -1.6054 -1.6906  1.1283
  486MOL0     H64133   4.636   9.429   2.645  3.5252  1.0071 -0.8615
  486MOL0     H64134   5.639   9.423   2.348 -1.2494 -0.4674  1.0338
  486MOL0     H64135   5.909   9.476   2.339  3.3645 -2.5071 -0.3040
  486MOL0     H64136   6.372   9.359   2.744 -0.3007  0.1717 -0.0944
  486MOL0     H64137   6.607   9.413   2.681  2.5896  0.7727 -2.1783
  486MOL0     H64138   8.172   9.684   1.619  1.9669  0.2573  1.6209
  486MOL0     H64139   8.414   9.618   1.631 -0.0020 -1.6575  0.5107
  486MOL0     H64140   8.719   9.462   1.635  0.0421  0.2925  0.6180
  486MOL0     H64141   8.928   9.378   1.735 -2.2731  1.2478  1.0465
  486MOL0     H64142   9.202   9.184   1.785  0.4165  1.3246  0.4799
  486MOL0     H64143   9.135   9.305   1.684  4.5943  0.1852  0.0151
  486MOL0     H64144   9.178   9.183   1.486 -1.5965  0.0469  0.9476
  486MOL0     H64145   9.327   9.214   1.570  1.1762 -2.5112 -3.9864
  486MOL0     H64146   9.189   8.939   1.592  0.1100 -0.8594 -5.3235
  486MOL0     H64147   9.333   8.985   1.680 -0.0613 -1.8005 -0.0027
  486MOL0     H64148   9.413   9.026   1.421 -0.1564  0.4300 -1.6862
  486MOL0     H64149   9.401   8.865   1.497 -0.1522 -1.6130 -2.2953
  486MOL0     H64150   9.098   8.797   1.225  1.8682 -0.8033 -0.8394
  486MOL0     H64151   8.888   9.011   1.508  1.0025 -1.3309  4.3155
  486MOL0     H64152   8.675   9.096   1.423  1.3572  0.0496 -1.1558
  487MOL0     O64153   1.024   4.135   4.981  0.5249  0.4475 -0.4824
  487MOL0     C64154   1.059   4.184   4.877  0.1159  0.2288  1.2746
  487MOL0     O64155   0.979   4.216   4.770  0.3414  0.3167 -0.2926
  487MOL0     C64156   0.847   4.177   4.762  0.1523  0.0497 -0.3089
  487MOL0     C64157   0.760   4.142   4.864 -0.9692  1.2489 -0.0422
  487MOL0     C64158   0.631   4.097   4.826 -0.4396 -0.0927  0.7366
  487MOL0     C64159   0.589   4.075   4.696  0.2020  0.6736  0.6148
  487MOL0     O64160   0.452   4.036   4.687  0.4360  0.6528 -0.2576
  487MOL0     C64161   0.423   3.966   4.568 -0.1878  0.7136 -0.3582
  487MOL0     C64162   0.312   3.861   4.590  0.2464  0.0927  0.1883
  487MOL0     C64163   0.180   3.928   4.631 -0.6472 -0.4320 -0.0559
  487MOL0     C64164   0.060   3.833   4.637  0.6426  0.3138  0.4959
  487MOL0     C64165  -0.063   3.907   4.708 -0.6428  0.9767  0.0469
  487MOL0     C64166  -0.124   4.027   4.646 -0.1120 -0.4679 -0.0479
  487MOL0     C64167  -0.190   4.001   4.509  0.2709 -0.2121  0.0559
  487MOL0     C64168  -0.291   3.893   4.507  0.7071  0.6757  0.3854
  487MOL0     N64169  -0.315   3.863   4.368  0.1727 -0.1893  0.2910
  487MOL0     C64170  -0.442   3.835   4.321 -0.2568 -0.3133  0.0223
  487MOL0     C64171  -0.427   3.794   4.194 -0.0617 -0.8264 -0.8122
  487MOL0     C64172  -0.536   3.799   4.098  1.1895  0.6674  0.0863
  487MOL0     C64173  -0.662   3.721   4.136  1.1504  0.4546  0.2305
  487MOL0     C64174  -0.750   3.714   4.005  0.8412 -0.2455  0.3455
  487MOL0     C64175  -0.870   3.617   4.010  0.7959  0.3327 -0.0132
  487MOL0     O64176  -0.951   3.626   3.890 -0.0631 -0.0468 -0.4485
  487MOL0     C64177  -1.052   3.534   3.877  0.5947  0.7488  0.0574
  487MOL0     C64178  -1.117   3.476   3.986 -0.3196 -0.4349 -0.0923
  487MOL0     C64179  -1.232   3.409   3.977  0.3371  0.0659 -0.4256
  487MOL0     C64180  -1.301   3.388   3.856  0.4764  0.9604  0.0338
  487MOL0     C64181  -1.439   3.310   3.853  0.4009 -1.5068 -0.8971
  487MOL0     O64182  -1.465   3.235   3.968  0.4812 -0.3661  0.5652
  487MOL0     C64183  -1.590   3.186   3.995 -0.2923  0.7867 -0.4437
  487MOL0     C64184  -1.682   3.123   3.904 -0.1529  0.3310 -0.2514
  487MOL0     C64185  -1.804   3.070   3.947 -0.8437 -0.1093  0.4499
  487MOL0     C64186  -1.841   3.084   4.080  0.0103  0.6698 -0.0944
  487MOL0     O64187  -1.956   3.032   4.112  1.0120  0.4348  0.4612
  487MOL0     C64188  -2.050   3.118   4.183 -0.1210 -0.3183  0.4974
  487MOL0     C64189  -2.190   3.063   4.170  0.7532  0.2452  0.1945
  487MOL0     C64190  -2.290   3.102   4.286  0.3090 -0.6232  0.6290
  487MOL0     C64191  -2.252   3.041   4.421  0.0377 -0.3058  0.1327
  487MOL0     C64192  -2.335   3.097   4.542  0.4638 -0.4284 -0.1087
  487MOL0     C64193  -2.300   3.241   4.588 -0.2028 -0.6522  0.5998
  487MOL0     C64194  -2.416   3.298   4.662 -0.5557 -0.3018 -0.9131
  487MOL0     C64195  -2.405   3.440   4.699 -0.3540 -1.1689 -0.9112
  487MOL0    Cl64196  -2.447   3.549   4.557  0.1778 -0.2021  0.1776
  487MOL0     C64197  -1.760   3.157   4.170  0.5586  0.0260 -0.2914
  487MOL0     C64198  -1.636   3.191   4.130 -0.5210 -0.3627 -0.6454
  487MOL0     O64199  -1.515   3.328   3.762 -0.1287  1.1474  0.4197
  487MOL0     C64200  -1.234   3.445   3.749  0.3280 -0.3985  0.6440
  487MOL0     C64201  -1.115   3.516   3.754  0.9412 -0.1103 -0.3878
  487MOL0     N64202  -0.289   3.776   4.171  0.4765 -0.3057  0.3270
  487MOL0     N64203  -0.229   3.818   4.273 -0.4719 -0.0993 -0.4298
  487MOL0     C64204   0.677   4.117   4.594  0.0714 -0.0896  0.2969
  487MOL0     C64205   0.807   4.161   4.628  0.2436  0.2962  0.2299
  487MOL0     C64206   1.207   4.224   4.874 -0.4401  0.6296  0.2701
  487MOL0     C64207   1.272   4.263   4.990 -0.4971  0.1527 -0.7327
  487MOL0     C64208   1.407   4.308   4.983  0.2315  0.3895  0.4987
  487MOL0     C64209   1.476   4.299   4.867  0.2631  0.4920  0.6498
  487MOL0     O64210   1.593   4.356   4.860  0.0748 -0.2846 -0.2225
  487MOL0     C64211   1.681   4.351   4.754 -1.1753  0.1798  0.4418
  487MOL0     C64212   1.802   4.446   4.771 -0.1541 -0.4193 -0.1025
  487MOL0     C64213   1.766   4.600   4.787  0.7762 -0.2941 -0.5540
  487MOL0     C64214   1.888   4.673   4.833  0.1200 -0.6278  0.0559
  487MOL0     C64215   1.873   4.819   4.831 -0.4515 -0.8759  0.0955
  487MOL0     C64216   1.853   4.938   4.831 -0.3415 -0.8740 -0.0395
  487MOL0     C64217   1.408   4.255   4.751  0.9946 -0.3234 -0.4344
  487MOL0     C64218   1.275   4.217   4.751 -0.2546  0.5769  0.2610
  487MOL0     H64219   0.778   4.157   4.969  1.5273 -1.5833  0.0677
  487MOL0     H64220   0.559   4.076   4.904 -3.7825  1.4805 -1.6895
  487MOL0     H64221   0.503   3.908   4.521 -0.6618 -0.3001  0.0414
  487MOL0     H64222   0.391   4.039   4.494 -1.7473  0.8084  0.3740
  487MOL0     H64223   0.341   3.784   4.663  1.1315 -1.9757 -2.1955
  487MOL0     H64224   0.290   3.801   4.501  2.1829 -3.0146  1.6468
  487MOL0     H64225   0.145   4.009   4.566 -1.2534 -0.3428  0.3766
  487MOL0     H64226   0.199   3.975   4.727  4.5973 -4.0875  1.1150
  487MOL0     H64227   0.021   3.786   4.546 -1.4491 -1.4626  2.1976
  487MOL0     H64228   0.084   3.752   4.706  4.1709  1.1270  0.4243
  487MOL0     H64229  -0.022   3.940   4.804  0.4144  1.6340 -0.6122
  487MOL0     H64230  -0.141   3.833   4.728  0.1152  0.1120 -0.0837
  487MOL0     H64231  -0.052   4.109   4.644  0.5603 -1.0256  0.7224
  487MOL0     H64232  -0.205   4.060   4.711 -0.7510 -2.4306  0.2327
  487MOL0     H64233  -0.246   4.094   4.493 -3.0507 -1.5930  2.4792
  487MOL0     H64234  -0.107   3.991   4.439  2.3666 -0.3485  2.4522
  487MOL0     H64235  -0.380   3.944   4.543  0.1203 -0.5413  0.7295
  487MOL0     H64236  -0.260   3.805   4.565  1.2593  1.5035  1.3827
  487MOL0     H64237  -0.534   3.861   4.373  0.8267 -1.2080  2.5414
  487MOL0     H64238  -0.502   3.753   4.005 -1.3156 -1.7943  0.2560
  487MOL0     H64239  -0.571   3.899   4.070 -1.6405 -0.5375 -1.0423
  487MOL0     H64240  -0.720   3.758   4.221 -0.5275 -1.2828 -0.0906
  487MOL0     H64241  -0.634   3.619   4.165 -3.1279 -1.8729 -2.7293
  487MOL0     H64242  -0.781   3.817   3.985  2.7576  0.4211  0.6049
  487MOL0     H64243  -0.687   3.688   3.919  1.0215 -0.1741  0.4567
  487MOL0     H64244  -0.937   3.646   4.092  0.7932  0.1014  0.0681
  487MOL0     H64245  -0.836   3.513   4.015 -0.7648 -0.2184 -0.5949
  487MOL0     H64246  -1.074   3.468   4.085 -0.5351  2.2608  0.3052
  487MOL0     H64247  -1.281   3.371   4.066  0.5431  0.5273 -0.1112
  487MOL0     H64248  -1.653   3.119   3.800  0.5760 -4.6791 -0.0741
  487MOL0     H64249  -1.866   3.008   3.883  2.4235 -3.7143  0.4025
  487MOL0     H64250  -2.051   3.223   4.151 -0.0123 -0.2634  0.6713
  487MOL0     H64251  -2.020   3.124   4.288 -0.6150  2.2778  0.5671
  487MOL0     H64252  -2.201   2.955   4.161 -0.0633  0.2185  1.2724
  487MOL0     H64253  -2.241   3.086   4.076 -0.6588  0.2637  0.9241
  487MOL0     H64254  -2.394   3.086   4.258 -0.4134 -1.6457  3.5143
  487MOL0     H64255  -2.278   3.210   4.302  2.2078 -0.4512 -1.5008
  487MOL0     H64256  -2.265   2.933   4.415 -0.0464 -0.5385  3.2049
  487MOL0     H64257  -2.146   3.060   4.443 -0.5122 -0.9054  3.9477
  487MOL0     H64258  -2.318   3.034   4.629 -0.2743 -0.0756  0.2956
  487MOL0     H64259  -2.441   3.089   4.514  0.5111 -0.2043 -0.3592
  487MOL0     H64260  -2.271   3.310   4.508 -3.0972 -2.0112 -1.8562
  487MOL0     H64261  -2.208   3.236   4.646  0.9480  2.7335 -0.6666
  487MOL0     H64262  -2.506   3.276   4.603 -1.2209 -1.8633  0.5742
  487MOL0     H64263  -2.428   3.240   4.754 -0.3027  2.7035  1.1704
  487MOL0     H64264  -2.311   3.458   4.753 -0.3218 -0.9381 -1.0415
  487MOL0     H64265  -2.478   3.464   4.776  3.5699 -0.4643  2.9933
  487MOL0     H64266  -1.797   3.172   4.271  2.2109  0.9710  0.2017
  487MOL0     H64267  -1.571   3.234   4.206 -0.9932 -0.3366 -0.2529
  487MOL0     H64268  -1.301   3.448   3.664  0.1280 -1.9668  0.7136
  487MOL0     H64269  -1.078   3.571   3.668  1.8867  3.0909  1.8622
  487MOL0     H64270   0.640   4.115   4.492  1.7448 -0.8401 -0.3434
  487MOL0     H64271   0.879   4.196   4.554 -0.6583  1.5637 -0.0862
  487MOL0     H64272   1.216   4.267   5.083  1.7532 -0.1590  0.7275
  487MOL0     H64273   1.442   4.358   5.073  1.5514 -1.3107  0.9990
  487MOL0     H64274   1.631   4.379   4.660 -2.0169 -0.7771  0.5886
  487MOL0     H64275   1.725   4.252   4.743  1.5690  1.1622  1.7347
  487MOL0     H64276   1.866   4.418   4.856  1.1449  0.7320 -0.6532
  487MOL0     H64277   1.858   4.439   4.677 -0.5081  2.2084 -0.5801
  487MOL0     H64278   1.685   4.602   4.861  1.7037 -0.7877  0.5089
  487MOL0     H64279   1.722   4.652   4.702 -1.0888  1.0745  1.1240
  487MOL0     H64280   1.917   4.625   4.927 -3.6442 -1.8925  0.7094
  487MOL0     H64281   1.960   4.655   4.753 -0.5461 -1.9759 -0.2714
  487MOL0     H64282   1.832   5.044   4.831  0.8826 -0.6047 -1.3696
  487MOL0     H64283   1.465   4.260   4.659 -0.0905 -3.7931 -1.4291
  487MOL0     H64284   1.220   4.201   4.659 -0.4529 -2.9097  0.8188
  488MOL0     O64285   6.475   7.814   2.627  0.8607  0.4706 -1.4942
  488MOL0     C64286   6.496   7.799   2.751 -0.0795 -0.7118  0.8450
  488MOL0     O64287   6.405   7.785   2.844 -0.6770 -1.1010  0.0078
  488MOL0     C64288   6.290   7.743   2.811  0.6144  0.2245  0.2967
  488MOL0     C64289   6.263   7.604   2.822 -0.2106  0.0565 -0.6038
  488MOL0     C64290   6.130   7.557   2.812 -0.4353  0.3487 -0.1163
  488MOL0     C64291   6.029   7.643   2.776  0.0111 -0.2967 -0.6810
  488MOL0     O64292   5.902   7.590   2.758 -0.4754 -0.0089 -0.6870
  488MOL0     C64293   5.842   7.621   2.627  0.8525 -0.4898 -0.6200
  488MOL0     C64294   5.838   7.480   2.552 -0.1212  0.0219  0.5414
  488MOL0     C64295   5.758   7.361   2.626 -0.2443  0.2364  0.2318
  488MOL0     C64296   5.609   7.377   2.652 -0.3739 -0.0252 -0.5163
  488MOL0     C64297   5.568   7.247   2.721 -0.4602 -0.7155 -0.4844
  488MOL0     C64298   5.417   7.248   2.729  0.8276 -0.2619 -0.0471
  488MOL0     C64299   5.366   7.153   2.839 -0.5605  0.0023 -0.3264
  488MOL0     C64300   5.211   7.151   2.859  0.1332  0.0693  0.4665
  488MOL0     N64301   5.134   7.090   2.746 -0.8584 -0.2480  0.7675
  488MOL0     C64302   5.181   7.020   2.644  0.7148 -0.6814  0.0426
  488MOL0     C64303   5.069   6.990   2.577  0.3791 -0.1576  0.3446
  488MOL0     C64304   5.065   6.927   2.440  0.6021  0.0580  0.6833
  488MOL0     C64305   4.926   6.903   2.378  0.0266  0.0548 -0.2536
  488MOL0     C64306   4.831   6.813   2.454  0.7312 -0.5931 -0.2490
  488MOL0     C64307   4.701   6.778   2.382 -0.1069 -0.0435  0.1036
  488MOL0     O64308   4.623   6.698   2.467 -0.5260 -0.4168 -0.4516
  488MOL0     C64309   4.494   6.654   2.429 -0.6809  0.7096  0.2491
  488MOL0     C64310   4.438   6.544   2.483 -1.0604  0.2807 -0.1898
  488MOL0     C64311   4.309   6.497   2.448  0.1488  0.1888  0.2923
  488MOL0     C64312   4.230   6.571   2.365 -0.2806  0.6207  0.3603
  488MOL0     C64313   4.094   6.538   2.315  0.4278 -0.1422 -0.3635
  488MOL0     O64314   4.035   6.426   2.368  0.3708 -0.2544 -0.2391
  488MOL0     C64315   3.921   6.380   2.314  1.0186 -0.0060  0.7320
  488MOL0     C64316   3.927   6.238   2.280 -0.1087 -0.6991  0.4465
  488MOL0     C64317   3.818   6.170   2.221 -0.2067  0.3992  0.6624
  488MOL0     C64318   3.696   6.244   2.192  0.3194  0.2394 -1.2241
  488MOL0     O64319   3.585   6.185   2.145  0.4036  0.5320  0.0059
  488MOL0     C64320   3.591   6.060   2.082  0.4906  0.1770 -0.9799
  488MOL0     C64321   3.449   6.008   2.052 -0.5173  0.4854  0.7383
  488MOL0     C64322   3.363   5.960   2.167  0.1623 -0.5921  0.2217
  488MOL0     C64323   3.230   5.925   2.117 -0.8098 -0.4297 -0.3037
  488MOL0     C64324   3.144   5.879   2.236  0.3937 -0.4774  0.1578
  488MOL0     C64325   2.996   5.861   2.189 -0.3300  0.3999 -0.1546
  488MOL0     C64326   2.897   5.824   2.297 -0.3348 -0.5800 -0.0242
  488MOL0     C64327   2.761   5.789   2.248  0.4525  0.3721  0.1404
  488MOL0    Cl64328   2.645   5.802   2.383  0.1992 -0.3948  0.3788
  488MOL0     C64329   3.687   6.378   2.220  0.2692 -0.0142  0.5038
  488MOL0     C64330   3.795   6.442   2.274 -0.6893  0.5099 -0.0813
  488MOL0     O64331   4.048   6.608   2.216  0.1100  0.1291 -0.6073
  488MOL0     C64332   4.287   6.686   2.310 -0.2496 -0.8377  0.2062
  488MOL0     C64333   4.418   6.721   2.330  1.1322  0.2175 -0.6200
  488MOL0     N64334   4.960   7.042   2.638 -0.2646  0.0714 -0.1984
  488MOL0     N64335   4.999   7.107   2.736  0.0400 -1.2139 -0.1455
  488MOL0     C64336   6.059   7.784   2.767  0.5267  0.2453  0.1727
  488MOL0     C64337   6.183   7.831   2.784  0.2969  0.5098  0.0338
  488MOL0     C64338   6.642   7.788   2.790  0.4882  0.1800 -0.4410
  488MOL0     C64339   6.753   7.781   2.705  0.6978  0.1819  0.9930
  488MOL0     C64340   6.880   7.764   2.749 -0.3239  0.0878  0.0505
  488MOL0     C64341   6.908   7.767   2.889  0.5236 -0.4343 -0.1385
  488MOL0     O64342   7.032   7.746   2.946 -0.3812 -0.5399  0.3678
  488MOL0     C64343   7.155   7.734   2.870  0.2187  0.0026 -0.6514
  488MOL0     C64344   7.285   7.754   2.945 -0.1382 -0.2543  0.0723
  488MOL0     C64345   7.262   7.716   3.100  0.7651 -0.5419  0.3539
  488MOL0     C64346   7.365   7.781   3.196  0.3690 -0.3109 -0.7889
  488MOL0     C64347   7.367   7.927   3.211 -0.7918  0.0056  0.3403
  488MOL0     C64348   7.358   8.052   3.233  0.0759 -0.0219  0.1466
  488MOL0     C64349   6.794   7.751   2.977 -1.1784  0.3622  0.6597
  488MOL0     C64350   6.667   7.774   2.929  0.2552 -0.9370 -0.0516
  488MOL0     H64351   6.339   7.529   2.845 -0.1430  0.3934  0.2788
  488MOL0     H64352   6.110   7.451   2.806 -0.0801  0.2703  0.1042
  488MOL0     H64353   5.893   7.703   2.577  1.6240 -1.4360 -1.4405
  488MOL0     H64354   5.738   7.653   2.643  0.9375 -1.9022  5.2724
  488MOL0     H64355   5.939   7.442   2.532 -0.6627  0.6605 -4.6640
  488MOL0     H64356   5.805   7.494   2.449  2.6863  3.0440 -0.1334
  488MOL0     H64357   5.809   7.344   2.721  2.3446  0.0222 -1.1212
  488MOL0     H64358   5.765   7.276   2.557 -1.6215 -0.0261  0.3749
  488MOL0     H64359   5.583   7.468   2.708  0.2942  0.0222 -0.2684
  488MOL0     H64360   5.549   7.388   2.561 -1.6258 -0.1669  0.2695
  488MOL0     H64361   5.604   7.250   2.824 -1.9222  1.1681  0.0486
  488MOL0     H64362   5.594   7.154   2.670  0.8178 -1.3782  1.2871
  488MOL0     H64363   5.387   7.221   2.627  1.2082 -0.0494 -0.2195
  488MOL0     H64364   5.371   7.342   2.760  0.3172 -0.8262  0.9473
  488MOL0     H64365   5.406   7.054   2.816 -0.4410  0.0051 -0.1335
  488MOL0     H64366   5.409   7.183   2.935  1.3672 -1.0640 -0.7924
  488MOL0     H64367   5.171   7.252   2.875 -0.0426 -0.2186  1.9198
  488MOL0     H64368   5.186   7.101   2.952  0.1877 -1.6923 -0.4183
  488MOL0     H64369   5.287   7.016   2.620  0.7588 -2.8774  0.3896
  488MOL0     H64370   5.122   6.835   2.453  0.4156 -0.0480  0.7613
  488MOL0     H64371   5.132   6.989   2.380 -0.4174 -0.9232 -1.6108
  488MOL0     H64372   4.945   6.847   2.286  1.3252  2.3594 -1.4855
  488MOL0     H64373   4.886   7.000   2.348  0.0209 -0.1760 -1.0151
  488MOL0     H64374   4.886   6.725   2.489 -0.1657 -1.3039 -0.5771
  488MOL0     H64375   4.784   6.870   2.535 -3.0013 -2.5788 -0.8209
  488MOL0     H64376   4.719   6.729   2.286 -0.4082  3.4113 -1.9075
  488MOL0     H64377   4.652   6.872   2.353  2.2242 -0.0519 -4.8184
  488MOL0     H64378   4.493   6.480   2.552  1.3906  2.4133 -0.0237
  488MOL0     H64379   4.268   6.406   2.490 -0.2165 -0.3179 -1.1031
  488MOL0     H64380   4.023   6.186   2.284  0.1219 -0.7621 -3.0602
  488MOL0     H64381   3.830   6.062   2.216  0.2180  0.2488  3.3444
  488MOL0     H64382   3.625   5.990   2.159  2.4468  0.6074 -1.4011
  488MOL0     H64383   3.652   6.059   1.991 -3.7209  0.2570 -4.0827
  488MOL0     H64384   3.467   5.915   1.997 -2.5380  0.6579 -0.3375
  488MOL0     H64385   3.409   6.078   1.978 -0.4153 -1.2491 -1.0692
  488MOL0     H64386   3.355   6.053   2.223  0.9786 -0.7316  0.5773
  488MOL0     H64387   3.413   5.879   2.221  0.7702  1.2884  2.6426
  488MOL0     H64388   3.173   6.003   2.066  1.0113 -0.0578 -1.8862
  488MOL0     H64389   3.243   5.859   2.032 -1.6912  0.7629 -1.4084
  488MOL0     H64390   3.154   5.957   2.312  0.5809 -0.6330  0.2943
  488MOL0     H64391   3.199   5.790   2.269  0.8990 -0.4012 -0.4597
  488MOL0     H64392   2.980   5.772   2.128 -1.0873  0.2370  0.2666
  488MOL0     H64393   2.969   5.954   2.137  1.3711 -0.3554 -2.5626
  488MOL0     H64394   2.924   5.739   2.360 -0.7952  1.6441  3.4087
  488MOL0     H64395   2.899   5.919   2.351 -2.9158  2.0828 -4.0191
  488MOL0     H64396   2.763   5.692   2.198 -2.1478  0.2223  0.1745
  488MOL0     H64397   2.728   5.868   2.180 -0.7117 -0.0303  0.2156
  488MOL0     H64398   3.595   6.419   2.180 -1.2270 -1.1720  2.5436
  488MOL0     H64399   3.784   6.547   2.298 -0.3234 -0.1175  3.3865
  488MOL0     H64400   4.237   6.756   2.243  1.1876  0.0626  0.0275
  488MOL0     H64401   4.453   6.806   2.272  2.2631 -0.6921 -1.3304
  488MOL0     H64402   5.973   7.847   2.745  0.0340 -0.6890 -0.6780
  488MOL0     H64403   6.194   7.939   2.780  1.8792  0.3387 -1.1016
  488MOL0     H64404   6.748   7.787   2.597  4.3796 -1.2851  0.6089
  488MOL0     H64405   6.960   7.779   2.678 -1.6024 -2.0175 -1.9896
  488MOL0     H64406   7.151   7.805   2.786  0.4410  0.9463  0.1248
  488MOL0     H64407   7.150   7.632   2.830 -1.9912 -0.2054  0.0185
  488MOL0     H64408   7.363   7.684   2.912  0.2605 -1.9467  4.0847
  488MOL0     H64409   7.326   7.855   2.940  3.2337 -1.5426 -2.4290
  488MOL0     H64410   7.275   7.609   3.113  2.0358 -0.2965  1.3964
  488MOL0     H64411   7.165   7.746   3.140 -1.3297 -4.2867 -1.4291
  488MOL0     H64412   7.356   7.751   3.301  0.8850  2.1000  0.0076
  488MOL0     H64413   7.465   7.743   3.173  0.8726 -2.2195  3.4804
  488MOL0     H64414   7.346   8.157   3.252 -0.3936  0.6238 -3.1485
  488MOL0     H64415   6.817   7.705   3.073 -3.7443 -1.8023  0.3550
  488MOL0     H64416   6.581   7.771   2.995 -0.9934  1.1304 -1.4777
  489MOL0     O64417   5.708   8.452   0.032  0.0177 -0.6250  0.8646
  489MOL0     C64418   5.742   8.404  -0.077  0.2782  0.4262 -0.3598
  489MOL0     O64419   5.662   8.390  -0.190  0.0758  0.3802  0.0140
  489MOL0     C64420   5.529   8.428  -0.177 -0.2690 -0.1492 -0.0054
  489MOL0     C64421   5.478   8.511  -0.266 -0.5652  0.1624  0.1410
  489MOL0     C64422   5.349   8.559  -0.259  0.3235  0.5156 -0.4772
  489MOL0     C64423   5.268   8.526  -0.156 -0.1354 -0.0363 -0.3488
  489MOL0     O64424   5.152   8.591  -0.148  0.2390  0.3473  0.2643
  489MOL0     C64425   5.102   8.626  -0.015  0.6106  1.1008  0.3691
  489MOL0     C64426   4.982   8.728  -0.034 -0.1953  1.7101  1.1031
  489MOL0     C64427   4.944   8.794   0.105 -0.0366  0.8203 -0.3201
  489MOL0     C64428   4.820   8.886   0.095 -0.7125 -0.7694  0.6347
  489MOL0     C64429   4.703   8.811   0.025 -0.0477  0.0129 -0.8605
  489MOL0     C64430   4.655   8.694   0.111 -0.7132  0.3732 -0.4451
  489MOL0     C64431   4.622   8.724   0.270  0.4824 -1.3562  0.2764
  489MOL0     C64432   4.535   8.838   0.307 -0.8790  0.4168  0.0186
  489MOL0     N64433   4.396   8.809   0.273  0.2305 -0.3021  0.4930
  489MOL0     C64434   4.314   8.734   0.354 -0.2118  0.4192  0.4050
  489MOL0     C64435   4.201   8.725   0.287  0.0388  0.5213 -0.2636
  489MOL0     C64436   4.089   8.642   0.338  0.1269  0.4656 -0.1448
  489MOL0     C64437   3.955   8.646   0.261  0.1080 -0.1046  0.2745
  489MOL0     C64438   3.889   8.787   0.279 -0.1581  0.9542 -0.7952
  489MOL0     C64439   3.747   8.775   0.226 -0.3556 -0.6212 -0.2994
  489MOL0     O64440   3.666   8.700   0.316 -0.3134 -0.5031 -0.7730
  489MOL0     C64441   3.534   8.692   0.299 -0.8107 -0.6173 -0.6753
  489MOL0     C64442   3.478   8.617   0.402 -0.2798  0.0868  0.6789
  489MOL0     C64443   3.338   8.593   0.393 -0.0889  0.2445 -0.5492
  489MOL0     C64444   3.252   8.639   0.289 -0.0035 -0.9407  0.0382
  489MOL0     C64445   3.109   8.618   0.289 -0.0692 -0.1966  0.3301
  489MOL0     O64446   3.037   8.647   0.176 -0.0410 -0.5720  0.3067
  489MOL0     C64447   2.897   8.646   0.177  0.5228  0.2974 -1.2310
  489MOL0     C64448   2.818   8.698   0.285  0.1679  0.1988  0.7766
  489MOL0     C64449   2.683   8.698   0.289 -0.5682  0.0190 -0.3259
  489MOL0     C64450   2.613   8.632   0.186 -0.3432  0.5772 -0.7942
  489MOL0     O64451   2.485   8.628   0.202 -0.5365  0.0855  0.0102
  489MOL0     C64452   2.415   8.684   0.091  0.6948  1.6621  0.5937
  489MOL0     C64453   2.278   8.748   0.108  0.4964  0.1680  0.3981
  489MOL0     C64454   2.247   8.769   0.254  0.2359 -0.0280 -0.5315
  489MOL0     C64455   2.104   8.802   0.282  0.9652 -0.3641  0.1669
  489MOL0     C64456   2.088   8.828   0.435 -0.5349  0.6287 -0.5783
  489MOL0     C64457   2.129   8.972   0.469  0.7770  0.1963 -1.0377
  489MOL0     C64458   2.125   8.999   0.617 -0.0558 -0.1135 -0.8221
  489MOL0     C64459   2.111   9.147   0.652 -0.3422 -0.4004 -0.2673
  489MOL0    Cl64460   2.099   9.157   0.836  0.2561 -0.0141  0.0822
  489MOL0     C64461   2.677   8.576   0.081 -0.9810 -1.4865 -0.7281
  489MOL0     C64462   2.820   8.589   0.073 -0.2202  0.3862  0.1519
  489MOL0     O64463   3.060   8.581   0.395  0.9338  0.5737 -0.2124
  489MOL0     C64464   3.308   8.718   0.184  0.2464  0.5890  0.8181
  489MOL0     C64465   3.449   8.734   0.191 -1.3350 -0.1618 -0.3390
  489MOL0     N64466   4.207   8.807   0.174 -0.0596  0.3761  0.4893
  489MOL0     N64467   4.326   8.857   0.165 -0.9548  0.3737 -0.4837
  489MOL0     C64468   5.313   8.427  -0.067  0.5814 -1.0441  0.7558
  489MOL0     C64469   5.443   8.382  -0.074  0.1504  0.9371  0.2107
  489MOL0     C64470   5.884   8.364  -0.087 -0.0634  0.5785 -0.2738
  489MOL0     C64471   5.930   8.289  -0.200  0.4314 -0.0320  0.7501
  489MOL0     C64472   6.052   8.236  -0.202 -0.6715  0.7094 -0.6031
  489MOL0     C64473   6.140   8.264  -0.099 -0.0388  0.6705  0.6083
  489MOL0     O64474   6.276   8.224  -0.109 -0.4871  0.4703 -0.1127
  489MOL0     C64475   6.328   8.152   0.010  0.4316 -0.2665 -0.0689
  489MOL0     C64476   6.447   8.064  -0.016 -0.1854  0.1012 -0.1691
  489MOL0     C64477   6.499   8.015   0.123  0.4889 -0.5047  0.4228
  489MOL0     C64478   6.618   7.931   0.099 -0.3135  0.1565  0.4641
  489MOL0     C64479   6.565   7.796   0.045  0.4776  0.0066  0.1851
  489MOL0     C64480   6.504   7.698   0.000 -1.0521 -0.0779 -0.3568
  489MOL0     C64481   6.112   8.356   0.003  0.0116 -0.7258 -0.7901
  489MOL0     C64482   5.980   8.401   0.016 -0.5897 -0.4241  1.2389
  489MOL0     H64483   5.542   8.559  -0.340  0.6691  1.9996  2.2608
  489MOL0     H64484   5.316   8.632  -0.333 -0.3868  1.3596  0.6374
  489MOL0     H64485   5.178   8.669   0.052 -3.4792  4.0176  3.6627
  489MOL0     H64486   5.054   8.537   0.027  0.0528  0.5043 -1.4272
  489MOL0     H64487   4.899   8.671  -0.074 -0.9015  0.9033  3.5371
  489MOL0     H64488   5.011   8.811  -0.099  0.4678  1.8168  1.5226
  489MOL0     H64489   5.022   8.864   0.137  0.2989 -0.7728  2.6592
  489MOL0     H64490   4.930   8.718   0.182 -1.0818  1.6497  0.3358
  489MOL0     H64491   4.797   8.913   0.198  2.3933  1.4139  0.8874
  489MOL0     H64492   4.841   8.976   0.036 -0.1512 -2.5505 -2.0711
  489MOL0     H64493   4.727   8.790  -0.080 -1.3778 -0.9905 -0.9867
  489MOL0     H64494   4.615   8.873   0.010 -0.1006 -0.0307 -0.7320
  489MOL0     H64495   4.732   8.617   0.116  0.9364  1.8215 -1.9378
  489MOL0     H64496   4.572   8.643   0.061  0.8331 -1.4884 -1.2168
  489MOL0     H64497   4.567   8.635   0.303 -4.1260  1.7099  1.7451
  489MOL0     H64498   4.720   8.744   0.314 -0.2437  2.1092  0.5983
  489MOL0     H64499   4.568   8.924   0.249  0.3292  0.5686  0.9098
  489MOL0     H64500   4.550   8.864   0.412  1.1992 -1.3335  0.2374
  489MOL0     H64501   4.326   8.677   0.446 -0.2601  0.3428  0.3651
  489MOL0     H64502   4.056   8.665   0.440 -2.6138 -1.7570 -0.3970
  489MOL0     H64503   4.118   8.536   0.344 -3.9565 -0.7226  2.4256
  489MOL0     H64504   3.889   8.570   0.304 -1.2235  2.4741  3.1835
  489MOL0     H64505   3.964   8.621   0.155 -2.7795  0.3635 -0.1584
  489MOL0     H64506   3.881   8.817   0.384  2.1881  2.1784 -0.9023
  489MOL0     H64507   3.946   8.867   0.230  1.2902  2.2711  2.7177
  489MOL0     H64508   3.740   8.712   0.137  2.1995 -2.2540  0.5438
  489MOL0     H64509   3.710   8.875   0.203  0.1361 -0.1683  0.8344
  489MOL0     H64510   3.541   8.566   0.474 -0.0429 -2.3176 -1.1351
  489MOL0     H64511   3.302   8.530   0.473  3.2610 -0.7354  0.3695
  489MOL0     H64512   2.874   8.731   0.372  2.2735 -3.8624  1.2164
  489MOL0     H64513   2.636   8.753   0.370 -2.0733  0.9245 -1.7600
  489MOL0     H64514   2.387   8.595   0.033  3.4718  1.4715 -0.6005
  489MOL0     H64515   2.474   8.750   0.027 -0.1546  2.1705  0.3168
  489MOL0     H64516   2.215   8.667   0.071  3.2237 -2.1479  0.5222
  489MOL0     H64517   2.279   8.846   0.058  4.3741 -0.1716 -0.4423
  489MOL0     H64518   2.299   8.862   0.279 -1.6684  0.8748  0.2675
  489MOL0     H64519   2.282   8.688   0.318 -1.8064 -0.2889  0.3161
  489MOL0     H64520   2.080   8.888   0.220  0.0430  0.1383  1.2015
  489MOL0     H64521   2.033   8.723   0.256 -1.9983  1.8769  0.9735
  489MOL0     H64522   2.134   8.743   0.486 -1.1605  1.3869  1.3433
  489MOL0     H64523   1.984   8.807   0.459 -0.4184 -2.9831 -2.5152
  489MOL0     H64524   2.055   9.035   0.418  0.1250 -0.6855 -1.2108
  489MOL0     H64525   2.229   8.995   0.433  1.6345  0.1715  1.1585
  489MOL0     H64526   2.030   8.954   0.649 -0.9743  1.1246 -1.7517
  489MOL0     H64527   2.209   8.954   0.670  1.5287  1.6776 -1.7061
  489MOL0     H64528   2.028   9.198   0.602  0.3038 -1.1174 -2.1408
  489MOL0     H64529   2.201   9.194   0.610 -0.0241 -0.4685  0.3151
  489MOL0     H64530   2.634   8.522  -0.002 -0.5373  1.8019 -3.3174
  489MOL0     H64531   2.871   8.548  -0.013  0.7767  4.2833 -1.3175
  489MOL0     H64532   3.248   8.744   0.098  1.2086  0.5999  0.1306
  489MOL0     H64533   3.505   8.795   0.121  2.3133 -1.4330  1.2312
  489MOL0     H64534   5.242   8.387   0.003 -1.7375 -3.6963 -2.7822
  489MOL0     H64535   5.483   8.307  -0.007  1.2081 -1.1769 -2.5819
  489MOL0     H64536   5.860   8.279  -0.282 -1.4801 -1.1701  2.4101
  489MOL0     H64537   6.091   8.170  -0.279  0.9101 -2.4651  2.6189
  489MOL0     H64538   6.246   8.089   0.047 -1.2585  0.6314 -2.1234
  489MOL0     H64539   6.351   8.225   0.089 -2.8187 -0.1553  0.9146
  489MOL0     H64540   6.409   7.985  -0.081 -2.8635  0.9948  0.1700
  489MOL0     H64541   6.527   8.127  -0.055  1.5554  0.4210  3.4957
  489MOL0     H64542   6.427   7.956   0.181  0.6429  2.0172  3.4885
  489MOL0     H64543   6.517   8.105   0.183 -1.6650  0.4649 -0.2701
  489MOL0     H64544   6.678   7.981   0.022 -0.3300  3.9636  2.6976
  489MOL0     H64545   6.683   7.925   0.186 -0.1849  2.2426  0.5628
  489MOL0     H64546   6.454   7.606  -0.026 -1.2931  0.2946 -1.2225
  489MOL0     H64547   6.193   8.372   0.073  1.2406  1.1238 -2.5590
  489MOL0     H64548   5.943   8.472   0.089 -1.4834 -1.5110  1.8730
  490MOL0     O64549  10.871   8.337   7.608  0.3476 -0.0429 -0.0358
  490MOL0     C64550  10.890   8.375   7.726 -0.1746  0.5907  0.3843
  490MOL0     O64551  10.798   8.452   7.802  0.1381  0.2000  0.4861
  490MOL0     C64552  10.681   8.490   7.739  0.3125 -0.1789  0.1133
  490MOL0     C64553  10.553   8.443   7.769  0.5529 -0.6060  0.2558
  490MOL0     C64554  10.442   8.480   7.688  0.0657 -0.0709 -0.7532
  490MOL0     C64555  10.457   8.569   7.580  0.1323  0.3146  0.5408
  490MOL0     O64556  10.340   8.616   7.506 -0.6578 -0.2361  0.0139
  490MOL0     C64557  10.239   8.516   7.477 -0.7109 -0.4083  0.3605
  490MOL0     C64558  10.219   8.505   7.329  0.0821 -0.1027  0.4791
  490MOL0     C64559  10.089   8.414   7.305 -0.4283  0.4815 -0.4444
  490MOL0     C64560  10.060   8.398   7.148  0.5145  1.2873 -0.1365
  490MOL0     C64561   9.934   8.322   7.099  0.0624 -0.1654 -0.7428
  490MOL0     C64562   9.908   8.327   6.952  0.3631 -0.0333 -0.3313
  490MOL0     C64563   9.760   8.293   6.932  0.1035  0.4693  0.0966
  490MOL0     C64564   9.658   8.386   6.998  0.2404 -0.3056 -0.7875
  490MOL0     N64565   9.523   8.382   6.947  0.5488  0.4040  1.3240
  490MOL0     C64566   9.441   8.277   6.912  0.2481 -0.0242  0.2777
  490MOL0     C64567   9.310   8.329   6.912  0.2211 -1.2747  0.2109
  490MOL0     C64568   9.179   8.262   6.891  0.1773  0.3283 -0.3734
  490MOL0     C64569   9.153   8.292   6.735  0.3944  0.2364 -0.7567
  490MOL0     C64570   9.031   8.224   6.678 -0.1750  0.3612 -0.3689
  490MOL0     C64571   8.906   8.209   6.762  0.7031  0.8143  0.0300
  490MOL0     O64572   8.829   8.333   6.797  0.2974 -0.4417 -0.1530
  490MOL0     C64573   8.691   8.330   6.830 -0.6308  0.0945  1.3831
  490MOL0     C64574   8.622   8.453   6.816  0.3148 -0.3924  0.2453
  490MOL0     C64575   8.500   8.466   6.867 -0.0049 -0.4198 -1.0802
  490MOL0     C64576   8.446   8.362   6.943 -0.1217  1.3884 -0.7021
  490MOL0     C64577   8.309   8.366   7.016 -0.5602 -0.5093 -1.0221
  490MOL0     O64578   8.251   8.484   7.024  0.5891  0.0216 -0.1647
  490MOL0     C64579   8.113   8.501   7.032  0.7358  0.4233  0.8046
  490MOL0     C64580   8.062   8.585   6.934 -0.8506 -0.5076  0.4980
  490MOL0     C64581   7.928   8.613   6.941  0.0973  0.4971 -0.4050
  490MOL0     C64582   7.839   8.558   7.039 -0.5764 -1.1977  0.6604
  490MOL0     O64583   7.706   8.578   7.048  0.0077  0.3401 -0.3973
  490MOL0     C64584   7.632   8.650   6.945 -0.0012  0.7302  0.1145
  490MOL0     C64585   7.496   8.577   6.910 -0.1106  0.1491  0.1437
  490MOL0     C64586   7.386   8.636   6.999  0.3325 -0.1518  0.0666
  490MOL0     C64587   7.261   8.560   6.982  0.2032 -0.7385  0.5147
  490MOL0     C64588   7.199   8.570   6.846  0.1432  0.0197 -0.1427
  490MOL0     C64589   7.059   8.527   6.855 -0.4064 -0.7803 -0.4961
  490MOL0     C64590   7.005   8.506   6.714 -0.1954  0.1058  0.2457
  490MOL0     C64591   6.856   8.469   6.729  0.1412  0.0043 -0.3277
  490MOL0    Cl64592   6.767   8.621   6.780 -0.2997  0.3644  0.1684
  490MOL0     C64593   7.899   8.476   7.133 -0.0537 -0.1281  0.8274
  490MOL0     C64594   8.030   8.446   7.122 -0.6267 -0.2303 -0.3125
  490MOL0     O64595   8.271   8.265   7.071  0.0542 -0.2890 -0.2049
  490MOL0     C64596   8.516   8.244   6.957  0.0716  0.4427  0.4433
  490MOL0     C64597   8.633   8.221   6.891 -0.7385  0.2755 -0.0869
  490MOL0     N64598   9.321   8.462   6.934  0.6566  0.2515  0.1383
  490MOL0     N64599   9.438   8.493   6.962  0.0521 -0.2072  0.4094
  490MOL0     C64600  10.587   8.618   7.552  0.9486 -0.3476 -0.3605
  490MOL0     C64601  10.697   8.583   7.639 -0.7285  0.3637  0.4565
  490MOL0     C64602  11.015   8.333   7.786 -0.3933 -0.4354 -0.5313
  490MOL0     C64603  11.122   8.269   7.720 -0.6940  0.1156  0.4907
  490MOL0     C64604  11.235   8.219   7.787 -0.0675  0.3642 -0.3180
  490MOL0     C64605  11.252   8.239   7.925  0.7730  0.1363  0.3921
  490MOL0     O64606  11.368   8.195   7.987 -0.0552  0.2453 -1.6540
  490MOL0     C64607  11.350   8.191   8.131 -0.6417 -0.5599  0.1053
  490MOL0     C64608  11.482   8.139   8.194 -0.6931  0.4526  0.4886
  490MOL0     C64609  11.526   8.203   8.322  0.5662  0.3930 -0.0940
  490MOL0     C64610  11.435   8.164   8.441 -0.2939  0.6575 -0.5900
  490MOL0     C64611  11.294   8.184   8.438 -0.1833 -0.2403  0.1899
  490MOL0     C64612  11.179   8.225   8.436  0.3516  0.5397 -0.2268
  490MOL0     C64613  11.145   8.303   7.990  0.4931  0.4467  0.0009
  490MOL0     C64614  11.026   8.345   7.922  0.2845 -0.5423 -0.1614
  490MOL0     H64615  10.546   8.373   7.851 -1.9865 -1.0100 -0.2299
  490MOL0     H64616  10.349   8.438   7.725  1.9590 -4.4706 -0.4369
  490MOL0     H64617  10.147   8.546   7.528 -0.6620 -1.8581  1.3655
  490MOL0     H64618  10.266   8.418   7.519  1.2486  1.1086  2.9312
  490MOL0     H64619  10.307   8.462   7.280 -0.8200 -0.9710 -0.4325
  490MOL0     H64620  10.201   8.606   7.291  0.0598 -0.4615 -0.4791
  490MOL0     H64621  10.005   8.467   7.351 -0.1425 -0.0713  0.7398
  490MOL0     H64622  10.102   8.320   7.358  4.0548 -0.2310 -2.3411
  490MOL0     H64623  10.047   8.502   7.116 -2.8188  0.5922 -1.4783
  490MOL0     H64624  10.153   8.362   7.103 -0.0214  1.2629 -1.2363
  490MOL0     H64625   9.856   8.377   7.153  0.8210  2.5383 -2.1927
  490MOL0     H64626   9.936   8.221   7.139 -1.4105  0.7861  1.9462
  490MOL0     H64627   9.966   8.253   6.896 -1.4036 -1.8275  0.1056
  490MOL0     H64628   9.930   8.427   6.914  0.2483 -1.1683 -3.6941
  490MOL0     H64629   9.737   8.297   6.826 -0.0664  2.9660  0.1705
  490MOL0     H64630   9.736   8.195   6.975  0.2238  0.5272  0.2984
  490MOL0     H64631   9.689   8.489   6.979 -1.1534  0.3845  0.3853
  490MOL0     H64632   9.637   8.360   7.103  0.5716 -2.2464 -1.1715
  490MOL0     H64633   9.462   8.172   6.894  0.8862  0.1421  0.0256
  490MOL0     H64634   9.098   8.303   6.951  1.0333 -1.1180  1.9194
  490MOL0     H64635   9.178   8.157   6.921  1.2213  1.2969  3.6946
  490MOL0     H64636   9.236   8.278   6.665  2.2304  2.4990  0.7957
  490MOL0     H64637   9.121   8.396   6.719 -2.6962 -0.6756 -1.2199
  490MOL0     H64638   8.979   8.288   6.606 -2.8006  0.5388  1.5307
  490MOL0     H64639   9.063   8.128   6.635 -0.8264 -0.7664  1.5297
  490MOL0     H64640   8.938   8.168   6.858 -0.2212  2.1706  0.9680
  490MOL0     H64641   8.841   8.135   6.715  2.1538 -0.9993  0.7978
  490MOL0     H64642   8.671   8.539   6.772  3.2590 -1.7045  0.7021
  490MOL0     H64643   8.442   8.558   6.866 -2.3499 -1.7345  0.8012
  490MOL0     H64644   8.119   8.609   6.845  0.4869 -4.1696  0.2032
  490MOL0     H64645   7.889   8.661   6.853  0.8407 -1.2528 -1.7520
  490MOL0     H64646   7.683   8.647   6.849  0.4189 -1.3804  0.3487
  490MOL0     H64647   7.608   8.752   6.976  0.7091  0.2292  2.5374
  490MOL0     H64648   7.496   8.469   6.929 -0.0045 -0.3605 -2.3906
  490MOL0     H64649   7.463   8.591   6.807 -0.4510 -0.9548  0.0866
  490MOL0     H64650   7.388   8.741   6.969  4.1453 -0.8575 -3.0468
  490MOL0     H64651   7.413   8.630   7.105 -2.1757  0.8955  0.8382
  490MOL0     H64652   7.277   8.453   6.997 -1.1816 -0.8030  1.8226
  490MOL0     H64653   7.193   8.587   7.064  2.2200  4.1408  0.8767
  490MOL0     H64654   7.251   8.498   6.782  0.1510 -0.8592  0.8270
  490MOL0     H64655   7.194   8.674   6.812 -4.2289  0.2177  0.4953
  490MOL0     H64656   7.002   8.608   6.902 -1.7453 -1.7085 -0.4740
  490MOL0     H64657   7.054   8.442   6.924 -2.1798  2.4781  3.8543
  490MOL0     H64658   7.018   8.599   6.657 -1.1215 -0.3740 -0.7817
  490MOL0     H64659   7.054   8.425   6.659  3.1593  1.6429  0.6954
  490MOL0     H64660   6.850   8.393   6.807 -1.2456  0.5465  0.1096
  490MOL0     H64661   6.810   8.435   6.635  0.2662 -2.9465  0.5820
  490MOL0     H64662   7.840   8.431   7.212 -1.0393 -0.5841 -0.1341
  490MOL0     H64663   8.084   8.384   7.193  2.8565 -0.2626 -2.6948
  490MOL0     H64664   8.464   8.170   7.018 -0.9358  0.0528 -0.8561
  490MOL0     H64665   8.690   8.128   6.897 -0.4792  0.0959 -3.5530
  490MOL0     H64666  10.600   8.693   7.474  0.0076  0.8789  0.6257
  490MOL0     H64667  10.790   8.637   7.627 -1.7543  1.6429 -2.9268
  490MOL0     H64668  11.112   8.252   7.614  0.6046  2.4350 -0.0616
  490MOL0     H64669  11.305   8.158   7.730 -3.2119 -0.8523 -3.1812
  490MOL0     H64670  11.259   8.136   8.160 -0.4299 -0.7283  0.4646
  490MOL0     H64671  11.329   8.286   8.181 -1.3979 -1.0117  0.6742
  490MOL0     H64672  11.496   8.030   8.197  1.2131  0.6738  1.0958
  490MOL0     H64673  11.566   8.159   8.127  1.0399 -1.1696  2.0597
  490MOL0     H64674  11.525   8.311   8.309 -0.0018  0.8437  3.0353
  490MOL0     H64675  11.628   8.178   8.349  0.8046  1.6954  0.2531
  490MOL0     H64676  11.455   8.060   8.469 -0.9942  0.2189 -1.6635
  490MOL0     H64677  11.470   8.225   8.525 -0.7135 -0.0774  0.1361
  490MOL0     H64678  11.077   8.254   8.420 -0.4587 -2.1755 -0.4738
  490MOL0     H64679  11.137   8.311   8.098 -1.4280 -1.6645  0.0933
  490MOL0     H64680  10.936   8.386   7.965 -0.5451  0.2258 -2.4783
  491MOL0     O64681   8.301  10.635  10.252  0.1502 -0.2577 -0.6104
  491MOL0     C64682   8.354  10.744  10.250  0.1161  0.4839  0.4126
  491MOL0     O64683   8.285  10.865  10.243 -0.0599 -0.5069 -0.1937
  491MOL0     C64684   8.150  10.880  10.198  0.2048  0.4303  1.1037
  491MOL0     C64685   8.049  10.787  10.175  0.6118  0.4623  0.4582
  491MOL0     C64686   7.920  10.818  10.146 -0.1609  0.0711  0.5139
  491MOL0     C64687   7.890  10.952  10.114  0.9892  0.5925 -0.4143
  491MOL0     O64688   7.765  10.971  10.070 -0.1901  0.5506  0.1887
  491MOL0     C64689   7.705  11.098  10.103  1.1580 -0.7760  0.2215
  491MOL0     C64690   7.554  11.095  10.074  0.1333 -0.0426  0.3593
  491MOL0     C64691   7.481  11.227  10.127  1.0124 -0.2349 -0.6618
  491MOL0     C64692   7.330  11.238  10.083  0.1949 -0.3887  0.2661
  491MOL0     C64693   7.256  11.338  10.168  0.8692 -1.0068 -0.7321
  491MOL0     C64694   7.282  11.478  10.126 -0.1084  0.2380  0.5685
  491MOL0     C64695   7.200  11.580  10.214 -0.3057  0.4103  0.2606
  491MOL0     C64696   7.053  11.584  10.163  0.9300 -0.7336 -0.8206
  491MOL0     N64697   6.980  11.684  10.252  0.1510 -0.3349  1.1924
  491MOL0     C64698   6.963  11.671  10.389  0.6153 -0.4348 -0.4803
  491MOL0     C64699   6.911  11.784  10.439  0.1242 -0.6995  0.3872
  491MOL0     C64700   6.878  11.819  10.578 -0.1315  0.4044 -0.5448
  491MOL0     C64701   6.728  11.828  10.603 -0.4141  0.1725  0.3224
  491MOL0     C64702   6.679  11.962  10.558 -0.6230  0.4481  0.2208
  491MOL0     C64703   6.526  11.961  10.551  0.1635 -0.0279  0.1498
  491MOL0     O64704   6.490  12.097  10.577  0.6021 -0.5432 -0.5992
  491MOL0     C64705   6.355  12.129  10.577 -0.6267 -0.1246  0.1499
  491MOL0     C64706   6.262  12.032  10.546 -0.1020 -0.5497  0.2508
  491MOL0     C64707   6.130  12.063  10.522  0.0648 -0.1842  0.3065
  491MOL0     C64708   6.075  12.186  10.547 -0.0896  0.1084 -0.1682
  491MOL0     C64709   5.933  12.220  10.546  0.6930  0.2214 -0.2038
  491MOL0     O64710   5.843  12.112  10.535 -0.0093 -0.7166  0.1047
  491MOL0     C64711   5.705  12.123  10.512 -0.3797  0.7739  0.9198
  491MOL0     C64712   5.631  12.001  10.496  0.3216  0.2093  0.8240
  491MOL0     C64713   5.490  11.991  10.482 -0.5082  0.2068 -0.4678
  491MOL0     C64714   5.414  12.114  10.491 -0.5310  0.4303 -0.4066
  491MOL0     O64715   5.276  12.113  10.476 -0.1418 -0.4642 -0.3663
  491MOL0     C64716   5.215  12.076  10.353 -0.3063  0.2671  0.0436
  491MOL0     C64717   5.070  12.122  10.350 -0.0050 -0.2907 -0.5224
  491MOL0     C64718   4.980  12.053  10.460 -0.4974  0.2208  0.9936
  491MOL0     C64719   4.836  12.091  10.430  1.0431 -0.4619  0.7896
  491MOL0     C64720   4.744  12.050  10.549  0.3748  0.2220 -0.1836
  491MOL0     C64721   4.590  12.074  10.520 -0.6923  0.9647 -0.7149
  491MOL0     C64722   4.505  12.029  10.632  0.0224 -0.2437  0.0893
  491MOL0     C64723   4.357  12.044  10.606  0.2178  0.3771 -0.2136
  491MOL0    Cl64724   4.248  11.993  10.737  0.0091  0.3120  0.0386
  491MOL0     C64725   5.484  12.235  10.510 -0.4699  0.1839  0.3302
  491MOL0     C64726   5.623  12.238  10.510 -0.0553 -0.2550 -0.1637
  491MOL0     O64727   5.895  12.338  10.560 -0.3101  0.5588  0.2968
  491MOL0     C64728   6.167  12.286  10.577 -0.0502  0.3190 -0.1753
  491MOL0     C64729   6.307  12.262  10.584  0.7166  0.1346  0.2119
  491MOL0     N64730   6.922  11.875  10.330  0.3980  0.0775 -0.1898
  491MOL0     N64731   6.945  11.810  10.217  0.1848 -0.3496 -0.6806
  491MOL0     C64732   7.983  11.052  10.138 -0.0951 -0.3825 -0.6016
  491MOL0     C64733   8.119  11.012  10.175  1.2721 -0.2791 -0.1388
  491MOL0     C64734   8.503  10.754  10.247 -0.1586  0.3396  0.4892
  491MOL0     C64735   8.574  10.634  10.236  0.0415 -1.6190  0.4398
  491MOL0     C64736   8.719  10.634  10.242  0.4899  0.4030  0.4513
  491MOL0     C64737   8.784  10.756  10.246 -0.7175 -0.3413 -0.2971
  491MOL0     O64738   8.917  10.763  10.228  0.8934 -0.2085  0.0380
  491MOL0     C64739   9.006  10.662  10.277  0.1917 -0.3763  0.2099
  491MOL0     C64740   9.057  10.707  10.412 -1.1242  0.0696  0.1308
  491MOL0     C64741   9.149  10.824  10.389 -0.0212 -0.0788  0.0500
  491MOL0     C64742   9.250  10.844  10.501  1.0402  0.8986 -1.4982
  491MOL0     C64743   9.350  10.947  10.467 -0.0611  0.2312  0.2649
  491MOL0     C64744   9.430  11.015  10.413  0.1239  0.2925  0.2571
  491MOL0     C64745   8.712  10.873  10.252 -0.0879  0.7449 -0.1409
  491MOL0     C64746   8.565  10.872  10.257  0.0560  0.0450  0.5419
  491MOL0     H64747   8.060  10.680  10.164 -0.9896  0.4541 -2.3002
  491MOL0     H64748   7.864  10.731  10.116  1.8261 -1.1279  0.0823
  491MOL0     H64749   7.757  11.170  10.039  2.6577 -3.2898 -1.5400
  491MOL0     H64750   7.709  11.113  10.211 -2.6310 -1.5351  0.6151
  491MOL0     H64751   7.521  11.005  10.128  2.1064 -1.1895 -0.2527
  491MOL0     H64752   7.531  11.079   9.968 -0.3278 -1.0266  0.5867
  491MOL0     H64753   7.542  11.308  10.086  1.3058 -0.0789  0.0654
  491MOL0     H64754   7.489  11.237  10.236  0.6273  0.3655 -0.6795
  491MOL0     H64755   7.322  11.274   9.980 -1.3708  2.1188  1.1870
  491MOL0     H64756   7.280  11.141  10.097  1.3409 -0.8421  1.3757
  491MOL0     H64757   7.271  11.329  10.276 -0.9079 -3.4497 -0.6310
  491MOL0     H64758   7.149  11.318  10.169  0.6871 -0.2791  1.5841
  491MOL0     H64759   7.262  11.483  10.019 -0.3867  0.1557  0.6157
  491MOL0     H64760   7.391  11.491  10.132 -0.1401 -0.0505  2.2374
  491MOL0     H64761   7.211  11.553  10.319 -0.5029 -2.1260 -0.2927
  491MOL0     H64762   7.248  11.678  10.207 -0.0856  0.5726  3.0090
  491MOL0     H64763   7.006  11.486  10.178 -1.4196  0.2338 -1.4885
  491MOL0     H64764   7.036  11.615  10.060  1.2644 -2.2411 -1.3574
  491MOL0     H64765   6.993  11.581  10.443 -0.3188  0.5162  1.7246
  491MOL0     H64766   6.928  11.910  10.612  0.2481 -0.0632  0.1780
  491MOL0     H64767   6.911  11.742  10.648 -1.4895  0.3458  0.0651
  491MOL0     H64768   6.689  11.793  10.699  1.7428 -3.1636  0.1433
  491MOL0     H64769   6.677  11.763  10.531 -5.3982  2.3884  1.3770
  491MOL0     H64770   6.720  12.043  10.619 -1.8156 -1.1702  3.4464
  491MOL0     H64771   6.710  11.983  10.456  2.0149  0.1349  0.8851
  491MOL0     H64772   6.480  11.892  10.622 -1.2090 -1.3958 -1.9654
  491MOL0     H64773   6.497  11.923  10.453  1.3999  0.5146 -0.4552
  491MOL0     H64774   6.285  11.927  10.534  0.4995 -0.2622 -1.3261
  491MOL0     H64775   6.073  11.981  10.479  0.2802 -1.2272  1.9250
  491MOL0     H64776   5.695  11.913  10.500  0.9316  0.6480  0.8017
  491MOL0     H64777   5.446  11.894  10.460  1.2390 -0.6771 -0.3031
  491MOL0     H64778   5.215  11.967  10.341 -2.2580 -0.7765  6.3199
  491MOL0     H64779   5.268  12.126  10.271 -1.8067 -2.1721 -2.6142
  491MOL0     H64780   5.041  12.098  10.247 -3.0728 -1.5386  0.5021
  491MOL0     H64781   5.066  12.231  10.363  1.5463 -0.4312  1.6879
  491MOL0     H64782   5.011  12.082  10.561  2.3945  1.2913 -0.0977
  491MOL0     H64783   4.999  11.946  10.455  2.2428  0.6153  1.4506
  491MOL0     H64784   4.824  12.198  10.409 -0.0795 -0.5464  0.9293
  491MOL0     H64785   4.803  12.033  10.344  1.2841  0.4515  0.0580
  491MOL0     H64786   4.764  12.100  10.645 -1.1566 -1.0879  0.8643
  491MOL0     H64787   4.760  11.944  10.569  1.6390  0.3955 -0.1827
  491MOL0     H64788   4.564  12.028  10.425  0.8021  3.3003 -2.3525
  491MOL0     H64789   4.566  12.179  10.497 -1.7097  1.3649  1.7513
  491MOL0     H64790   4.537  11.926  10.651  0.7278 -0.2856 -1.2089
  491MOL0     H64791   4.525  12.092  10.720 -1.7603  1.5191 -0.6862
  491MOL0     H64792   4.342  11.976  10.522  2.1879 -2.0012  1.2162
  491MOL0     H64793   4.326  12.141  10.566 -3.6228 -0.5690  0.0684
  491MOL0     H64794   5.427  12.324  10.535 -0.8761 -0.4484  1.7425
  491MOL0     H64795   5.671  12.335  10.517 -1.1376  0.2541  0.5109
  491MOL0     H64796   6.142  12.384  10.616  2.6438  0.8333  0.4522
  491MOL0     H64797   6.373  12.345  10.607  1.4839 -0.3965  0.0039
  491MOL0     H64798   7.960  11.157  10.124 -0.9829 -0.5824 -0.7351
  491MOL0     H64799   8.192  11.090  10.190  0.0073  0.5915  1.7599
  491MOL0     H64800   8.537  10.533  10.234 -1.0788 -1.2149 -0.1659
  491MOL0     H64801   8.768  10.538  10.227 -0.7492 -0.0978 -0.6747
  491MOL0     H64802   9.091  10.650  10.209  0.1751  1.2026 -0.1088
  491MOL0     H64803   8.956  10.564  10.280  1.3044 -0.9524  0.6698
  491MOL0     H64804   8.973  10.727  10.479 -1.8804  0.2955 -0.8619
  491MOL0     H64805   9.116  10.632  10.464  3.1950  3.1239  0.1619
  491MOL0     H64806   9.099  10.917  10.357  3.4754  0.9983 -2.9730
  491MOL0     H64807   9.213  10.798  10.304 -2.8745 -0.1089 -2.2532
  491MOL0     H64808   9.198  10.861  10.596 -1.5721 -0.6198 -2.5664
  491MOL0     H64809   9.309  10.753  10.516  1.0878  1.1304 -0.1580
  491MOL0     H64810   9.494  11.088  10.368  0.6987 -1.7260 -2.4421
  491MOL0     H64811   8.759  10.971  10.254 -0.8231  1.0978  0.7754
  491MOL0     H64812   8.506  10.963  10.268 -2.5023 -1.8226  4.1306
  492MOL0     O64813   8.273   4.088   3.021 -0.7806  0.0935 -0.2454
  492MOL0     C64814   8.222   4.126   3.127 -0.2463 -0.7729  0.3707
  492MOL0     O64815   8.095   4.163   3.149  0.1670  0.0749  0.2009
  492MOL0     C64816   7.988   4.126   3.065  0.3920 -0.3489 -0.3592
  492MOL0     C64817   7.870   4.196   3.076  0.0541 -0.2834 -0.7790
  492MOL0     C64818   7.776   4.176   2.978 -0.3149 -0.2134 -0.1027
  492MOL0     C64819   7.775   4.062   2.890 -0.4984  0.1995 -0.4784
  492MOL0     O64820   7.682   4.039   2.791 -0.4603  0.5322  1.0637
  492MOL0     C64821   7.543   4.063   2.832  0.8543 -0.6130  0.3367
  492MOL0     C64822   7.454   3.966   2.751  0.5254  0.2582  0.3379
  492MOL0     C64823   7.306   3.994   2.760  0.0669 -0.3762 -0.1873
  492MOL0     C64824   7.222   3.893   2.688  0.3671  0.6467  0.3944
  492MOL0     C64825   7.075   3.923   2.690  0.4859  0.1430 -0.1762
  492MOL0     C64826   6.996   3.813   2.620  0.1267  0.8246 -0.2190
  492MOL0     C64827   6.853   3.794   2.683 -0.3153 -0.8308  0.0733
  492MOL0     C64828   6.775   3.930   2.651  0.3005 -0.0511 -0.1056
  492MOL0     N64829   6.631   3.895   2.656  0.0411 -0.0558 -0.3258
  492MOL0     C64830   6.553   3.842   2.556  0.3921  0.0117  0.0610
  492MOL0     C64831   6.432   3.814   2.622  0.3471  0.1473  0.7631
  492MOL0     C64832   6.296   3.785   2.574  0.3934  0.0074  1.2422
  492MOL0     C64833   6.269   3.634   2.574  0.0327  0.7902 -0.2816
  492MOL0     C64834   6.119   3.599   2.584 -0.0165  0.0629 -0.0584
  492MOL0     C64835   6.095   3.455   2.629 -0.4383 -0.3112 -0.1901
  492MOL0     O64836   5.960   3.418   2.665 -0.1150 -0.2044 -0.0200
  492MOL0     C64837   5.857   3.415   2.570 -0.6721 -0.5537 -0.3635
  492MOL0     C64838   5.727   3.388   2.610  0.0868  0.1250  0.4636
  492MOL0     C64839   5.621   3.366   2.517  0.0385 -0.3260  0.0195
  492MOL0     C64840   5.648   3.400   2.378  0.2730  0.7118  0.0490
  492MOL0     C64841   5.542   3.406   2.262  0.3661  0.4813 -0.9076
  492MOL0     O64842   5.415   3.387   2.314  0.2994 -0.7589  0.0194
  492MOL0     C64843   5.323   3.381   2.220  0.6587 -0.0676  0.6726
  492MOL0     C64844   5.251   3.265   2.205 -0.0043  0.4914 -0.5466
  492MOL0     C64845   5.141   3.256   2.121  0.6745 -0.4728  1.2614
  492MOL0     C64846   5.095   3.372   2.054 -0.2189  0.0839  0.0673
  492MOL0     O64847   4.977   3.365   1.983  0.2307 -1.3467 -0.5148
  492MOL0     C64848   4.942   3.467   1.881  0.3036  0.2037  0.5045
  492MOL0     C64849   4.841   3.392   1.786  0.3794 -0.5203  0.4550
  492MOL0     C64850   4.880   3.255   1.728 -0.2105 -0.3756 -0.1949
  492MOL0     C64851   4.990   3.264   1.623  0.3162 -0.0164  0.2128
  492MOL0     C64852   5.135   3.268   1.689 -0.7062  0.5950  0.3955
  492MOL0     C64853   5.249   3.266   1.585 -0.1238 -0.4499  0.4273
  492MOL0     C64854   5.260   3.133   1.516  0.3815 -0.2541 -0.9172
  492MOL0     C64855   5.359   3.112   1.398  0.0791 -0.3049  0.1617
  492MOL0    Cl64856   5.536   3.135   1.443  0.0948  0.3550 -0.0619
  492MOL0     C64857   5.168   3.493   2.067 -0.3249 -0.0330  1.1314
  492MOL0     C64858   5.284   3.496   2.143  0.2864 -0.1980  0.0635
  492MOL0     O64859   5.568   3.416   2.143  0.1143  0.4098  0.2543
  492MOL0     C64860   5.777   3.440   2.337 -0.6034 -0.4649 -0.6340
  492MOL0     C64861   5.880   3.439   2.427  0.1474 -0.8076  0.0597
  492MOL0     N64862   6.442   3.852   2.756 -0.5273  0.0212  0.1544
  492MOL0     N64863   6.566   3.896   2.776 -0.0385 -0.2421 -0.7963
  492MOL0     C64864   7.891   4.000   2.883  0.6595  0.7369  0.1064
  492MOL0     C64865   7.994   4.019   2.978 -0.0817  0.0488  0.5846
  492MOL0     C64866   8.321   4.179   3.222  0.4889  0.2814  0.6051
  492MOL0     C64867   8.451   4.134   3.217 -0.5064 -0.8833  0.0678
  492MOL0     C64868   8.546   4.183   3.310  0.0571 -1.1000  0.0620
  492MOL0     C64869   8.506   4.282   3.400 -0.1304  0.3252 -0.9906
  492MOL0     O64870   8.588   4.342   3.495 -1.0517  0.2928  0.0741
  492MOL0     C64871   8.708   4.267   3.546  1.2137 -0.4636  1.4973
  492MOL0     C64872   8.837   4.326   3.480  1.1204 -0.6017  0.1805
  492MOL0     C64873   8.971   4.281   3.539  0.2137  0.1966  0.7543
  492MOL0     C64874   9.028   4.154   3.474 -1.1339  0.2029 -0.0630
  492MOL0     C64875   9.163   4.134   3.497 -0.2751 -0.1498 -0.5249
  492MOL0     C64876   9.284   4.116   3.502  0.7185  0.3302 -0.0950
  492MOL0     C64877   8.375   4.331   3.402 -0.6665 -0.4816  0.0372
  492MOL0     C64878   8.283   4.278   3.312  0.0604 -0.5531  0.2037
  492MOL0     H64879   7.869   4.275   3.150  2.8890 -1.8334  1.1407
  492MOL0     H64880   7.693   4.246   2.981  0.1473  0.3520 -0.3487
  492MOL0     H64881   7.520   4.166   2.807 -0.0422 -0.6671  0.8845
  492MOL0     H64882   7.521   4.056   2.939 -0.1660  1.7201  0.3265
  492MOL0     H64883   7.474   3.872   2.804 -0.2046  0.3834  0.8452
  492MOL0     H64884   7.470   3.958   2.643 -1.2577  1.1224 -0.0152
  492MOL0     H64885   7.279   4.093   2.724 -0.2963 -0.1866  0.5685
  492MOL0     H64886   7.276   3.994   2.866 -0.2047  1.3286 -0.2396
  492MOL0     H64887   7.252   3.899   2.584 -2.4084  2.7451 -0.4160
  492MOL0     H64888   7.241   3.792   2.725 -0.0558  1.1222  2.0142
  492MOL0     H64889   7.053   4.019   2.642  2.0913 -0.0062 -1.2557
  492MOL0     H64890   7.028   3.935   2.789 -2.2060  1.4922 -1.5072
  492MOL0     H64891   7.040   3.714   2.636 -2.3955 -0.0529  2.3588
  492MOL0     H64892   6.994   3.835   2.513 -1.6085  1.7077 -0.0418
  492MOL0     H64893   6.796   3.722   2.624 -0.5457  0.2976 -1.1339
  492MOL0     H64894   6.864   3.764   2.788 -0.2674  1.2334  0.7110
  492MOL0     H64895   6.802   3.963   2.550  0.4402 -0.6301 -0.2591
  492MOL0     H64896   6.791   4.015   2.718 -1.4103 -1.9573  2.9452
  492MOL0     H64897   6.566   3.823   2.450  4.5084 -4.3847  0.9775
  492MOL0     H64898   6.289   3.814   2.469  2.1865 -0.4885  0.9620
  492MOL0     H64899   6.232   3.863   2.618 -0.4975 -0.0965  0.1797
  492MOL0     H64900   6.322   3.608   2.666  2.6426 -0.9300 -2.1394
  492MOL0     H64901   6.318   3.572   2.498 -2.4832 -3.1310  0.9979
  492MOL0     H64902   6.086   3.666   2.664  1.6191  2.4051 -1.2258
  492MOL0     H64903   6.065   3.614   2.490 -0.5452 -3.1687 -0.3783
  492MOL0     H64904   6.149   3.457   2.724 -0.2230 -1.4903 -0.2725
  492MOL0     H64905   6.131   3.381   2.557 -0.4088 -0.2138 -0.2740
  492MOL0     H64906   5.699   3.379   2.715 -0.8456  0.2274  0.2362
  492MOL0     H64907   5.530   3.329   2.563  0.4850 -1.3541  0.1038
  492MOL0     H64908   5.279   3.173   2.257  0.5025  1.6193  1.2721
  492MOL0     H64909   5.075   3.170   2.123  1.2070 -0.8923  0.7917
  492MOL0     H64910   5.026   3.511   1.826 -1.8740  1.3028 -2.2065
  492MOL0     H64911   4.888   3.552   1.925 -0.6024 -1.5038  2.9291
  492MOL0     H64912   4.819   3.450   1.696  0.0171 -0.4182  0.6090
  492MOL0     H64913   4.746   3.377   1.837 -0.2680 -0.1830 -0.6257
  492MOL0     H64914   4.792   3.218   1.676  1.0603 -1.4923 -1.6698
  492MOL0     H64915   4.912   3.189   1.809 -5.1817 -0.0192  2.4195
  492MOL0     H64916   4.969   3.183   1.552 -1.2528 -0.8952  1.6127
  492MOL0     H64917   4.966   3.354   1.566 -0.5404 -0.5895 -0.3583
  492MOL0     H64918   5.152   3.172   1.740 -4.1636  1.1257  2.8784
  492MOL0     H64919   5.141   3.357   1.752 -0.8435  0.6962  0.2628
  492MOL0     H64920   5.346   3.293   1.630 -1.2301  2.2690  1.3961
  492MOL0     H64921   5.232   3.339   1.506  1.1051 -0.8336 -0.2247
  492MOL0     H64922   5.284   3.051   1.584 -1.1189  0.7057  0.8673
  492MOL0     H64923   5.160   3.112   1.478  0.5303 -1.0922 -0.8576
  492MOL0     H64924   5.341   3.186   1.320  0.3619 -0.6984 -0.2811
  492MOL0     H64925   5.346   3.008   1.366  2.6994  0.4073 -3.9284
  492MOL0     H64926   5.144   3.578   2.005  2.4334  0.2768  0.3265
  492MOL0     H64927   5.343   3.587   2.142  0.1798 -0.1128  0.8876
  492MOL0     H64928   5.795   3.466   2.233 -1.1463 -0.4538 -0.7273
  492MOL0     H64929   5.976   3.463   2.382 -0.3810 -1.7568 -1.6616
  492MOL0     H64930   7.903   3.926   2.805 -3.0923  2.0619 -1.9638
  492MOL0     H64931   8.077   3.948   2.971 -1.2735 -1.2152 -2.3165
  492MOL0     H64932   8.472   4.058   3.142 -1.0167 -1.0852  0.1272
  492MOL0     H64933   8.647   4.146   3.297 -0.1069 -0.5948 -3.6128
  492MOL0     H64934   8.694   4.158   3.539 -3.2691  0.0077 -1.2030
  492MOL0     H64935   8.722   4.290   3.652  2.1566  3.0867  0.7305
  492MOL0     H64936   8.835   4.325   3.371 -0.2049  0.2348  0.1772
  492MOL0     H64937   8.825   4.431   3.506  0.6814 -0.4953 -0.4373
  492MOL0     H64938   8.972   4.250   3.644  0.6953 -2.4700  0.0312
  492MOL0     H64939   9.032   4.368   3.515  0.2079 -0.5752 -2.4983
  492MOL0     H64940   8.974   4.064   3.505 -1.6877  0.0194 -1.4593
  492MOL0     H64941   9.016   4.154   3.365 -0.1537 -0.4220 -0.1874
  492MOL0     H64942   9.389   4.107   3.482  0.2617  0.9672 -3.1784
  492MOL0     H64943   8.362   4.421   3.461  0.8768 -0.6938  0.7478
  492MOL0     H64944   8.177   4.302   3.324  0.1699  0.4747 -0.7526
  493MOL0     O64945  11.277   1.753   8.590  0.4489  0.1877 -0.6881
  493MOL0     C64946  11.283   1.629   8.605 -0.3814  0.1192  0.5818
  493MOL0     O64947  11.184   1.543   8.644 -0.1482 -0.2643 -0.2521
  493MOL0     C64948  11.061   1.592   8.684  1.1348 -0.4764 -0.1871
  493MOL0     C64949  10.953   1.515   8.663 -0.1090  0.9213  0.0734
  493MOL0     C64950  10.828   1.550   8.700 -0.5052  0.5817  0.6483
  493MOL0     C64951  10.805   1.672   8.764  0.2465  0.3758 -0.7228
  493MOL0     O64952  10.677   1.710   8.805 -0.1225  0.1653 -0.2454
  493MOL0     C64953  10.561   1.622   8.798 -0.1849  0.8302  0.6015
  493MOL0     C64954  10.456   1.694   8.877  0.2794  0.0595 -0.4709
  493MOL0     C64955  10.323   1.633   8.857  0.1608 -0.2290 -0.0892
  493MOL0     C64956  10.222   1.705   8.946  0.4459 -0.0833 -0.4711
  493MOL0     C64957  10.093   1.622   8.951 -0.3767 -0.0684  0.5484
  493MOL0     C64958   9.974   1.679   9.029  0.0437 -0.1419  0.8798
  493MOL0     C64959   9.858   1.586   9.060  0.4655 -0.0026 -0.4129
  493MOL0     C64960   9.788   1.645   9.188 -0.4582  0.1449  0.3448
  493MOL0     N64961   9.721   1.777   9.170 -0.6772 -0.0423 -0.2185
  493MOL0     C64962   9.673   1.847   9.063 -0.6783  0.8701  0.1982
  493MOL0     C64963   9.611   1.954   9.114  0.1082  0.4254  0.3650
  493MOL0     C64964   9.534   2.061   9.037  1.0441 -0.0118 -0.2532
  493MOL0     C64965   9.483   2.172   9.121  1.2617 -1.2798 -0.1937
  493MOL0     C64966   9.363   2.122   9.197  0.6086 -0.3802 -0.3066
  493MOL0     C64967   9.309   2.229   9.289 -2.1214  0.4331  0.4754
  493MOL0     O64968   9.254   2.339   9.215  0.0902 -0.5179  0.5885
  493MOL0     C64969   9.192   2.439   9.288  0.7172 -0.1233  0.5290
  493MOL0     C64970   9.122   2.420   9.411  1.2084  0.3307  0.9389
  493MOL0     C64971   9.046   2.525   9.461  0.5118  0.7617 -0.6177
  493MOL0     C64972   9.030   2.651   9.386 -0.2812  0.6016  0.4173
  493MOL0     C64973   8.951   2.762   9.446 -0.6389  0.4119  0.3399
  493MOL0     O64974   8.949   2.874   9.364 -0.6180 -0.1369 -0.0865
  493MOL0     C64975   8.882   2.979   9.422 -0.4963  0.5428 -0.2162
  493MOL0     C64976   8.740   2.975   9.431  0.8767 -0.2430  0.6052
  493MOL0     C64977   8.659   3.078   9.483 -0.4268 -0.0929 -0.7427
  493MOL0     C64978   8.723   3.187   9.550  0.1557  0.2596 -0.8034
  493MOL0     O64979   8.641   3.281   9.611 -0.4676  0.0558  0.1332
  493MOL0     C64980   8.563   3.363   9.523 -0.3740  0.2852  0.4135
  493MOL0     C64981   8.454   3.431   9.612 -0.9810 -0.8973  0.7422
  493MOL0     C64982   8.361   3.499   9.512  1.0439 -0.8864  0.0349
  493MOL0     C64983   8.241   3.415   9.478 -0.4684 -0.7497  0.1572
  493MOL0     C64984   8.140   3.434   9.601  0.0389 -0.0586  0.8315
  493MOL0     C64985   8.008   3.355   9.586  0.2035 -0.1482  0.6693
  493MOL0     C64986   7.920   3.334   9.711  0.0202 -0.5499 -0.6215
  493MOL0     C64987   7.778   3.288   9.673 -0.5154  0.4751  0.2147
  493MOL0    Cl64988   7.692   3.195   9.803 -0.0394 -0.0651 -0.2589
  493MOL0     C64989   8.871   3.194   9.546  0.7933 -0.0877  0.4707
  493MOL0     C64990   8.944   3.094   9.482  0.2262 -0.2539 -0.2417
  493MOL0     O64991   8.894   2.752   9.556 -0.3264 -0.1078 -0.2818
  493MOL0     C64992   9.102   2.667   9.260 -0.0204  0.9668 -0.1607
  493MOL0     C64993   9.169   2.553   9.205  0.7291 -0.2444  0.3640
  493MOL0     N64994   9.635   1.958   9.251 -0.1419 -0.5042  0.3263
  493MOL0     N64995   9.709   1.859   9.286 -0.4113 -0.1523  0.4520
  493MOL0     C64996  10.908   1.757   8.790  0.7916  0.1949  0.4273
  493MOL0     C64997  11.036   1.721   8.753  0.1485  0.6537  0.2104
  493MOL0     C64998  11.412   1.562   8.600 -1.0164  0.2728 -0.5436
  493MOL0     C64999  11.430   1.418   8.630  0.0357 -0.0150 -1.5814
  493MOL0     C65000  11.556   1.356   8.613 -0.1063 -1.1009 -0.6711
  493MOL0     C65001  11.670   1.429   8.561  0.6501 -0.4596 -0.5474
  493MOL0     O65002  11.787   1.358   8.538  0.1151 -0.5519  0.7816
  493MOL0     C65003  11.909   1.427   8.539 -0.2564 -0.0914  0.9215
  493MOL0     C65004  12.018   1.333   8.529  0.2857  0.2375 -0.0350
  493MOL0     C65005  12.141   1.402   8.477  0.0172 -0.1547  0.8877
  493MOL0     C65006  12.267   1.309   8.447  0.4816  0.1792  0.8922
  493MOL0     C65007  12.300   1.223   8.562 -0.5173  0.4517 -0.4515
  493MOL0     C65008  12.340   1.143   8.647  0.2460  0.8637 -0.1130
  493MOL0     C65009  11.642   1.565   8.522 -0.4762  0.4398  0.5109
  493MOL0     C65010  11.519   1.631   8.546 -1.2645 -0.1579  1.1610
  493MOL0     H65011  10.966   1.416   8.620  0.6539  1.3736 -0.7916
  493MOL0     H65012  10.749   1.476   8.691  2.7503 -2.9416 -2.4522
  493MOL0     H65013  10.583   1.527   8.848 -3.2375  0.8383  2.1726
  493MOL0     H65014  10.534   1.598   8.695  1.4155 -0.7592  0.4907
  493MOL0     H65015  10.467   1.800   8.851 -0.8857  0.7679  1.6929
  493MOL0     H65016  10.476   1.674   8.983 -3.1565 -0.2520  0.2428
  493MOL0     H65017  10.324   1.528   8.886 -0.8335 -0.5067 -1.0065
  493MOL0     H65018  10.302   1.649   8.750 -1.1181 -1.7728 -0.1062
  493MOL0     H65019  10.261   1.711   9.048 -1.4353  0.3190  0.2786
  493MOL0     H65020  10.204   1.805   8.905  1.3737  0.6348  0.7869
  493MOL0     H65021  10.115   1.534   9.013  2.9469  1.4317  1.7150
  493MOL0     H65022  10.078   1.593   8.847 -0.8773 -0.9511  0.8568
  493MOL0     H65023   9.932   1.769   8.981 -1.0920 -0.3092  1.5132
  493MOL0     H65024  10.019   1.720   9.120  0.1219  1.0406  0.3270
  493MOL0     H65025   9.780   1.571   8.984 -1.4195 -0.7180  1.5560
  493MOL0     H65026   9.900   1.491   9.095 -0.2491 -0.4079 -0.6273
  493MOL0     H65027   9.865   1.658   9.264  1.3363  1.0473 -1.5368
  493MOL0     H65028   9.710   1.577   9.226 -1.3855  0.0276 -1.6176
  493MOL0     H65029   9.679   1.820   8.958 -0.6201  0.4853  0.2982
  493MOL0     H65030   9.452   2.016   8.981 -0.9560  1.6042  1.2292
  493MOL0     H65031   9.604   2.097   8.961 -1.2140  0.9638 -1.9613
  493MOL0     H65032   9.452   2.251   9.052  0.4515 -0.9985  0.4864
  493MOL0     H65033   9.566   2.201   9.186  2.4009 -3.6409 -0.4762
  493MOL0     H65034   9.289   2.082   9.127  1.3519 -1.5874 -0.4279
  493MOL0     H65035   9.392   2.038   9.260 -1.2318 -0.4844  0.4434
  493MOL0     H65036   9.392   2.280   9.340  1.4790 -2.8457 -1.5889
  493MOL0     H65037   9.240   2.185   9.362 -0.0958 -1.0349  1.5904
  493MOL0     H65038   9.122   2.320   9.455 -0.8040 -0.2252 -0.2119
  493MOL0     H65039   8.985   2.508   9.549  1.0669 -1.8910 -0.6536
  493MOL0     H65040   8.685   2.894   9.386 -1.2972  0.5713  1.6715
  493MOL0     H65041   8.552   3.077   9.497 -0.3135  2.1037  0.9567
  493MOL0     H65042   8.522   3.300   9.443 -1.3962  0.9571  0.4030
  493MOL0     H65043   8.632   3.434   9.477  0.0339 -1.3806 -1.7205
  493MOL0     H65044   8.509   3.504   9.672  1.5481 -1.5645 -0.6278
  493MOL0     H65045   8.397   3.362   9.675 -0.0959 -3.6228 -1.2627
  493MOL0     H65046   8.403   3.511   9.411  1.5383  1.8279  0.4918
  493MOL0     H65047   8.332   3.601   9.537 -0.7538 -1.0555 -1.1503
  493MOL0     H65048   8.196   3.452   9.386  0.3503 -3.3658 -1.4001
  493MOL0     H65049   8.273   3.311   9.468  1.3731 -0.2422  0.3796
  493MOL0     H65050   8.120   3.540   9.619  2.8389  0.5595  0.7188
  493MOL0     H65051   8.196   3.394   9.686  0.4506  0.2526  0.7076
  493MOL0     H65052   8.040   3.261   9.542 -1.3870 -0.3989 -0.0006
  493MOL0     H65053   7.950   3.407   9.510 -0.2344 -0.4537  0.7905
  493MOL0     H65054   7.975   3.269   9.780  1.0271  0.9931  0.0930
  493MOL0     H65055   7.898   3.425   9.767  0.8003 -0.0505 -1.1009
  493MOL0     H65056   7.794   3.234   9.579 -1.4539 -1.8673  1.3269
  493MOL0     H65057   7.725   3.379   9.644  1.7622  1.2841 -1.8175
  493MOL0     H65058   8.922   3.276   9.596 -2.1216  1.0718  1.8227
  493MOL0     H65059   9.052   3.094   9.480  0.3926 -2.5682  2.7539
  493MOL0     H65060   9.097   2.764   9.212  0.1851  1.5397  0.9203
  493MOL0     H65061   9.219   2.578   9.112  1.1825 -0.2149  0.6161
  493MOL0     H65062  10.886   1.847   8.847 -4.0884 -2.0454  2.6584
  493MOL0     H65063  11.115   1.794   8.763  1.5158 -0.6666 -0.6138
  493MOL0     H65064  11.339   1.363   8.651 -0.5284  1.9466  1.7353
  493MOL0     H65065  11.583   1.252   8.627  2.9052 -0.3808 -0.5930
  493MOL0     H65066  11.930   1.486   8.629 -2.0248 -2.2055  2.8241
  493MOL0     H65067  11.907   1.493   8.451  2.5100  0.1623  0.9667
  493MOL0     H65068  12.038   1.289   8.628  1.3226  1.9820  0.5862
  493MOL0     H65069  11.991   1.255   8.458  0.5923 -0.1389  0.2546
  493MOL0     H65070  12.168   1.487   8.541  0.5193  0.1992  0.2204
  493MOL0     H65071  12.116   1.448   8.381  1.2184  0.8238  1.0141
  493MOL0     H65072  12.236   1.258   8.355 -1.5940  1.0475  1.0466
  493MOL0     H65073  12.345   1.383   8.427 -0.0201  0.6727  0.7092
  493MOL0     H65074  12.402   1.089   8.716  1.8161  0.5805 -1.6732
  493MOL0     H65075  11.714   1.633   8.477  0.0335 -0.0518  0.5727
  493MOL0     H65076  11.521   1.738   8.527 -0.9401 -0.3174  0.2511
  494MOL0     O65077   2.957  10.792   3.650  0.4088  0.7241 -0.8211
  494MOL0     C65078   3.021  10.854   3.568  0.1811  0.4019  0.6792
  494MOL0     O65079   2.962  10.917   3.465  0.2107 -0.0646 -0.1049
  494MOL0     C65080   2.826  10.905   3.448  0.3269 -0.9712 -0.6204
  494MOL0     C65081   2.736  10.948   3.555 -0.8223 -0.2284  0.8784
  494MOL0     C65082   2.598  10.950   3.535 -0.5451  0.1788  0.8542
  494MOL0     C65083   2.548  10.901   3.410  0.6651 -0.6692 -0.1244
  494MOL0     O65084   2.411  10.918   3.400 -0.5752  0.1167 -0.5637
  494MOL0     C65085   2.348  10.887   3.279 -0.1392  0.4790  0.1039
  494MOL0     C65086   2.203  10.850   3.303 -0.1304  0.2683  0.7417
  494MOL0     C65087   2.120  10.862   3.171 -0.1449  0.3524 -0.1864
  494MOL0     C65088   1.975  10.827   3.194 -0.0471  0.2773 -0.2240
  494MOL0     C65089   1.906  10.788   3.059  0.0032  0.5621  0.2064
  494MOL0     C65090   1.898  10.897   2.952  1.1806 -0.2856  0.3681
  494MOL0     C65091   1.822  11.025   2.980 -0.3804 -0.4126  0.4225
  494MOL0     C65092   1.918  11.126   3.052 -0.5778 -0.2427  0.1373
  494MOL0     N65093   1.824  11.241   3.072  0.1714  0.2295  0.8318
  494MOL0     C65094   1.793  11.330   2.975 -0.1446  0.4270 -0.4397
  494MOL0     C65095   1.715  11.425   3.028  0.1906 -0.4290 -0.0833
  494MOL0     C65096   1.645  11.543   2.960 -0.0169  0.3371  0.0364
  494MOL0     C65097   1.750  11.645   2.923  0.9480 -0.4700  0.0069
  494MOL0     C65098   1.791  11.716   3.054  0.2644  0.8721  0.2146
  494MOL0     C65099   1.886  11.820   3.004  0.6667  0.1457  0.4724
  494MOL0     O65100   1.819  11.923   2.927  0.5295 -0.0370 -0.3323
  494MOL0     C65101   1.898  12.033   2.894  0.1017  0.7900 -0.5372
  494MOL0     C65102   1.839  12.132   2.807  0.5027 -0.1754  0.2925
  494MOL0     C65103   1.915  12.245   2.757  0.0725 -1.0516  0.2034
  494MOL0     C65104   2.050  12.269   2.799  0.9970  0.0447  0.4394
  494MOL0     C65105   2.124  12.393   2.758  0.1746 -0.0073  0.4534
  494MOL0     O65106   2.077  12.471   2.660 -0.6997  0.6760  0.3639
  494MOL0     C65107   2.093  12.607   2.654  0.5231 -0.3341  0.5023
  494MOL0     C65108   2.214  12.664   2.628  0.5671  0.3351 -1.0565
  494MOL0     C65109   2.223  12.804   2.623  0.0337 -0.1683  0.3185
  494MOL0     C65110   2.110  12.881   2.633  0.3236  0.0469 -0.3442
  494MOL0     O65111   2.137  13.014   2.637 -0.4618  0.2208  0.1981
  494MOL0     C65112   2.032  13.109   2.645  0.3104 -0.4421 -0.6645
  494MOL0     C65113   2.089  13.246   2.610  0.2084 -1.4943 -1.1939
  494MOL0     C65114   1.969  13.362   2.604  0.0086  0.1422 -0.7514
  494MOL0     C65115   1.952  13.414   2.759  0.1168  0.3990  0.5431
  494MOL0     C65116   1.890  13.553   2.770 -1.5604  0.1665 -0.3060
  494MOL0     C65117   1.818  13.586   2.902  0.3834  0.0933  0.4366
  494MOL0     C65118   1.870  13.526   3.031 -0.5393  0.1828  1.3022
  494MOL0     C65119   1.883  13.621   3.149  0.5557 -0.2375 -0.0820
  494MOL0    Cl65120   1.737  13.701   3.198 -0.1049 -0.5201 -0.1415
  494MOL0     C65121   1.983  12.823   2.647 -0.7376 -0.0514  0.7182
  494MOL0     C65122   1.977  12.685   2.664  0.1499 -1.1561 -1.1279
  494MOL0     O65123   2.219  12.425   2.819 -0.6252  0.5455 -0.1379
  494MOL0     C65124   2.102  12.172   2.884  0.2637  0.0111 -0.3750
  494MOL0     C65125   2.032  12.061   2.926  0.1776  0.2170  0.0044
  494MOL0     N65126   1.703  11.384   3.163  0.1285  0.1428  0.4789
  494MOL0     N65127   1.763  11.273   3.185  0.5409 -0.2518 -0.2165
  494MOL0     C65128   2.629  10.865   3.313 -0.2158  0.0511  0.4940
  494MOL0     C65129   2.773  10.866   3.324  0.7097 -1.0574  0.3875
  494MOL0     C65130   3.169  10.863   3.580  0.4797 -0.2619 -0.5901
  494MOL0     C65131   3.245  10.764   3.647  0.4352  0.2399 -0.2059
  494MOL0     C65132   3.378  10.764   3.640  0.0134  0.0149  0.0944
  494MOL0     C65133   3.449  10.867   3.568  0.1369 -0.6349  0.3001
  494MOL0     O65134   3.588  10.866   3.557 -0.0751 -0.1179 -0.2449
  494MOL0     C65135   3.651  10.737   3.567 -0.0278  0.0846 -0.0487
  494MOL0     C65136   3.796  10.753   3.549 -0.1877 -0.3202 -0.1516
  494MOL0     C65137   3.828  10.808   3.414  0.0280  0.1601  0.3851
  494MOL0     C65138   3.978  10.805   3.383 -0.3830  0.0382  0.3497
  494MOL0     C65139   4.059  10.882   3.482  0.8224  1.0423  1.5047
  494MOL0     C65140   4.135  10.938   3.552  0.4358 -0.0944 -0.4223
  494MOL0     C65141   3.378  10.981   3.527 -0.2555 -0.0982 -0.0145
  494MOL0     C65142   3.235  10.976   3.527  0.5037 -0.3919 -0.4190
  494MOL0     H65143   2.766  10.986   3.652  2.6621 -1.6409  0.5082
  494MOL0     H65144   2.521  10.974   3.608 -2.9149  0.1535 -1.5125
  494MOL0     H65145   2.396  10.807   3.221 -0.6423  1.3467 -1.5770
  494MOL0     H65146   2.353  10.971   3.210 -3.1986  0.4607 -0.2876
  494MOL0     H65147   2.157  10.922   3.372  2.3152  3.9881 -1.1222
  494MOL0     H65148   2.205  10.754   3.354 -3.9246  0.3858  1.3994
  494MOL0     H65149   2.166  10.810   3.086  0.1148 -0.7888  0.6336
  494MOL0     H65150   2.120  10.964   3.131  3.2484 -0.6017 -3.1351
  494MOL0     H65151   1.968  10.741   3.262  2.2420  0.2398  0.0498
  494MOL0     H65152   1.919  10.911   3.235  0.7119  0.5484  0.2603
  494MOL0     H65153   1.804  10.750   3.077  0.2977  0.1100  0.9767
  494MOL0     H65154   1.959  10.703   3.017 -1.5778  0.3998 -1.6058
  494MOL0     H65155   1.840  10.855   2.869  0.4058  1.3643  0.0315
  494MOL0     H65156   2.001  10.923   2.926  1.6080 -2.3725 -0.1923
  494MOL0     H65157   1.780  11.073   2.892  0.8199  3.0079  1.5576
  494MOL0     H65158   1.742  11.016   3.054 -0.1224  0.4394  0.8189
  494MOL0     H65159   2.005  11.152   2.991  0.3643  0.2186  1.6495
  494MOL0     H65160   1.964  11.101   3.148 -0.3407  1.1004  0.3790
  494MOL0     H65161   1.816  11.327   2.869 -1.3180  1.6646 -0.7644
  494MOL0     H65162   1.565  11.584   3.024 -2.3458  0.7702 -2.9465
  494MOL0     H65163   1.596  11.509   2.868 -0.7673  3.3617 -0.7733
  494MOL0     H65164   1.703  11.717   2.855 -0.9487 -1.5655  0.0943
  494MOL0     H65165   1.832  11.600   2.865 -0.2323 -1.7678 -0.7000
  494MOL0     H65166   1.700  11.761   3.096 -2.5009 -2.5656 -1.5606
  494MOL0     H65167   1.840  11.647   3.123 -1.5939  0.0153  0.7403
  494MOL0     H65168   1.963  11.771   2.942 -0.2360 -1.3469  0.4801
  494MOL0     H65169   1.931  11.865   3.093 -1.6730 -0.8682  2.2654
  494MOL0     H65170   1.740  12.120   2.763  0.8232  0.5583 -0.6465
  494MOL0     H65171   1.872  12.313   2.684 -1.2434 -1.3057  0.7164
  494MOL0     H65172   2.295  12.593   2.636 -1.1477 -1.4396  3.2179
  494MOL0     H65173   2.319  12.855   2.623  1.2785 -2.3823  0.9059
  494MOL0     H65174   1.988  13.124   2.744 -1.7814  2.4361 -1.9289
  494MOL0     H65175   1.949  13.083   2.580 -2.3959  1.7069  1.6787
  494MOL0     H65176   2.151  13.243   2.520 -1.3024  0.2142 -2.3750
  494MOL0     H65177   2.153  13.282   2.691 -1.6880  1.3795 -0.8270
  494MOL0     H65178   1.870  13.332   2.567  0.1740 -0.2051 -0.9204
  494MOL0     H65179   2.009  13.444   2.543 -1.6788  2.7908  1.4822
  494MOL0     H65180   1.884  13.349   2.814 -1.3843  0.8142 -0.7411
  494MOL0     H65181   2.049  13.409   2.809  2.3790 -1.6872 -3.5587
  494MOL0     H65182   1.821  13.564   2.687 -1.0051 -2.6494 -1.2663
  494MOL0     H65183   1.967  13.630   2.759 -0.6634 -0.4661  1.2004
  494MOL0     H65184   1.716  13.549   2.892  0.4746 -0.8313  2.4510
  494MOL0     H65185   1.828  13.693   2.923  0.2768  0.2223 -0.1506
  494MOL0     H65186   1.823  13.431   3.059 -0.5904 -0.6044 -1.2113
  494MOL0     H65187   1.974  13.493   3.020 -0.6363  0.7450 -2.4397
  494MOL0     H65188   1.957  13.696   3.121  0.8900 -0.1230  1.0328
  494MOL0     H65189   1.924  13.577   3.241 -2.0252  2.3970  2.5519
  494MOL0     H65190   1.890  12.876   2.668 -0.3188  0.5305  1.1395
  494MOL0     H65191   1.876  12.646   2.661 -1.6693  2.8838  0.7641
  494MOL0     H65192   2.207  12.171   2.912  0.5244 -2.1013 -1.2346
  494MOL0     H65193   2.076  11.997   3.001 -3.8008 -0.9374  1.6145
  494MOL0     H65194   2.607  10.825   3.214  2.7208 -1.8062  0.4888
  494MOL0     H65195   2.829  10.836   3.236  1.5520  2.7284 -0.5673
  494MOL0     H65196   3.205  10.675   3.693 -3.0499  2.6916  2.0455
  494MOL0     H65197   3.439  10.680   3.672  3.9150  3.4136  2.5259
  494MOL0     H65198   3.618  10.676   3.483  2.8271 -0.1434 -1.0996
  494MOL0     H65199   3.629  10.669   3.650 -2.2717 -0.0314 -0.6819
  494MOL0     H65200   3.833  10.818   3.629  0.3664 -1.6420  0.7135
  494MOL0     H65201   3.849  10.659   3.569  2.1482  1.4378  2.7446
  494MOL0     H65202   3.808  10.915   3.412  0.8626  0.3473  1.0433
  494MOL0     H65203   3.763  10.766   3.336  0.3938 -2.1314  1.2170
  494MOL0     H65204   4.009  10.701   3.372 -2.0535 -0.5826  1.0496
  494MOL0     H65205   3.994  10.851   3.286 -2.0787 -0.9855 -0.4683
  494MOL0     H65206   4.202  10.981   3.624 -0.9491  1.1766  0.1692
  494MOL0     H65207   3.432  11.066   3.486 -0.0895 -1.2381 -2.3608
  494MOL0     H65208   3.188  11.067   3.491  1.0698 -0.6392 -1.8461
  495MOL0     O65209   3.187   1.550   5.399 -0.0880 -0.0962 -0.5319
  495MOL0     C65210   3.193   1.466   5.306 -0.1843 -0.5249  0.2613
  495MOL0     O65211   3.303   1.399   5.274 -0.3513 -0.0292 -0.7173
  495MOL0     C65212   3.432   1.431   5.312 -0.1797  1.0949 -0.4727
  495MOL0     C65213   3.521   1.324   5.326  0.6382 -0.4145 -0.3674
  495MOL0     C65214   3.652   1.338   5.379  0.5941 -0.8074 -1.2350
  495MOL0     C65215   3.694   1.466   5.422 -0.3815  0.8931  0.2140
  495MOL0     O65216   3.824   1.474   5.475 -0.2236  0.4793 -0.0928
  495MOL0     C65217   3.892   1.602   5.450  0.1336  0.4596 -0.1229
  495MOL0     C65218   4.007   1.589   5.350  0.5233 -0.0551 -0.4019
  495MOL0     C65219   4.085   1.712   5.334 -0.5283 -0.4766  0.6226
  495MOL0     C65220   4.188   1.707   5.224 -1.5428 -0.8133 -0.4468
  495MOL0     C65221   4.266   1.843   5.235 -0.8650 -0.5642  0.5171
  495MOL0     C65222   4.381   1.841   5.131 -0.0615 -0.3081  0.2833
  495MOL0     C65223   4.405   1.980   5.069 -0.7780  1.1897  0.3374
  495MOL0     C65224   4.479   2.073   5.173 -0.5886  0.6901  0.0922
  495MOL0     N65225   4.441   2.208   5.144  0.3390 -0.5220  0.2152
  495MOL0     C65226   4.428   2.263   5.023  0.1188 -1.0343  0.0449
  495MOL0     C65227   4.396   2.396   5.045  0.1294 -0.1863  0.3411
  495MOL0     C65228   4.379   2.512   4.950 -0.3730 -0.2938  0.2854
  495MOL0     C65229   4.240   2.509   4.885  0.3545 -0.9402  0.0262
  495MOL0     C65230   4.135   2.558   4.987  0.5315 -0.2548 -0.6848
  495MOL0     C65231   3.994   2.573   4.924  0.2922 -0.7337 -0.1265
  495MOL0     O65232   3.995   2.661   4.817  0.4108 -0.2577  0.4171
  495MOL0     C65233   3.877   2.674   4.753  0.7253  0.6489  0.4741
  495MOL0     C65234   3.774   2.578   4.738 -0.5225 -0.0153  0.5720
  495MOL0     C65235   3.660   2.610   4.661  0.4710 -0.4616 -0.2094
  495MOL0     C65236   3.650   2.723   4.584 -0.5021  0.6267  0.0083
  495MOL0     C65237   3.535   2.753   4.508  0.2261  0.0220 -0.4101
  495MOL0     O65238   3.435   2.659   4.500  1.1163  0.0316  0.0354
  495MOL0     C65239   3.314   2.684   4.440  0.2920  1.6391  0.5950
  495MOL0     C65240   3.212   2.604   4.485  0.7505  0.1771  0.2525
  495MOL0     C65241   3.080   2.627   4.449  0.3787 -0.2497 -0.0600
  495MOL0     C65242   3.043   2.722   4.348  0.7001 -0.3272 -0.2497
  495MOL0     O65243   2.919   2.714   4.295 -0.0570  0.5333 -0.5256
  495MOL0     C65244   2.814   2.741   4.383 -0.7389  0.2035 -0.6040
  495MOL0     C65245   2.693   2.705   4.295  0.2643  0.2366 -0.7049
  495MOL0     C65246   2.568   2.697   4.386  0.2924  0.2421 -0.2062
  495MOL0     C65247   2.563   2.566   4.477 -0.9843 -0.1093 -0.3503
  495MOL0     C65248   2.419   2.561   4.529 -0.1088 -0.4480 -0.2973
  495MOL0     C65249   2.404   2.429   4.617  0.4527 -0.9617  0.4805
  495MOL0     C65250   2.287   2.428   4.718  0.5078 -0.2623  0.3571
  495MOL0     C65251   2.264   2.295   4.790 -0.6972  0.2982 -1.0765
  495MOL0    Cl65252   2.112   2.305   4.873  0.0375 -0.0478 -0.4241
  495MOL0     C65253   3.147   2.799   4.304 -0.1203 -0.3478 -0.3845
  495MOL0     C65254   3.280   2.784   4.343  0.1641 -0.0999  0.7430
  495MOL0     O65255   3.522   2.867   4.469  0.3336 -0.0170  1.0636
  495MOL0     C65256   3.763   2.806   4.591 -0.1546 -0.3084 -0.1424
  495MOL0     C65257   3.872   2.787   4.679  0.5313  0.6249 -0.0931
  495MOL0     N65258   4.404   2.417   5.183  0.1627  0.3959 -0.3348
  495MOL0     N65259   4.431   2.306   5.236 -0.2665  1.1220 -0.3868
  495MOL0     C65260   3.609   1.575   5.408 -1.3111 -0.5482  0.1097
  495MOL0     C65261   3.478   1.561   5.355 -0.1753  0.2059  0.8209
  495MOL0     C65262   3.070   1.443   5.227  0.5341 -0.1148 -0.3730
  495MOL0     C65263   3.076   1.386   5.103  0.6893 -0.3870 -0.0244
  495MOL0     C65264   2.953   1.362   5.034  0.3350 -0.4044 -0.0075
  495MOL0     C65265   2.826   1.390   5.089  0.3066 -0.0438  0.7601
  495MOL0     O65266   2.695   1.377   5.037  0.0727  0.1381 -0.8483
  495MOL0     C65267   2.671   1.341   4.900  0.4168  0.5910 -0.1143
  495MOL0     C65268   2.553   1.250   4.890 -0.2354 -0.4845  0.0461
  495MOL0     C65269   2.570   1.110   4.950 -0.1078  0.0424  0.2598
  495MOL0     C65270   2.664   1.007   4.881  0.1585 -0.1295 -0.3301
  495MOL0     C65271   2.613   0.966   4.747  0.0817 -0.2220 -0.4084
  495MOL0     C65272   2.573   0.934   4.637  0.3217 -0.9541 -0.8555
  495MOL0     C65273   2.823   1.441   5.219  0.4383  1.0070  0.2899
  495MOL0     C65274   2.944   1.476   5.285  0.5203 -0.6337  1.0991
  495MOL0     H65275   3.486   1.225   5.299  2.1779 -0.7539 -1.2565
  495MOL0     H65276   3.702   1.242   5.382  0.7363 -0.8152  3.5713
  495MOL0     H65277   3.929   1.639   5.546 -4.1242 -1.9743  2.7650
  495MOL0     H65278   3.836   1.680   5.399 -0.9224 -1.6890 -2.4812
  495MOL0     H65279   3.983   1.574   5.244 -0.0574 -1.7337 -0.0699
  495MOL0     H65280   4.061   1.499   5.383 -0.6403 -0.0953  1.5791
  495MOL0     H65281   4.130   1.730   5.432 -0.5972 -2.5284  1.0639
  495MOL0     H65282   4.014   1.794   5.323 -0.1195 -0.3684 -1.5667
  495MOL0     H65283   4.257   1.624   5.240 -1.0716 -0.2318  0.6382
  495MOL0     H65284   4.142   1.710   5.124 -0.1245 -1.7286 -1.1671
  495MOL0     H65285   4.310   1.849   5.335  1.0588 -5.7663  0.2683
  495MOL0     H65286   4.196   1.925   5.220  2.9104  2.9670  0.2249
  495MOL0     H65287   4.359   1.776   5.046  1.1908  1.7134 -1.6787
  495MOL0     H65288   4.472   1.800   5.177 -0.4416  0.1999  1.5381
  495MOL0     H65289   4.470   1.962   4.982 -0.5203  0.0527  0.7600
  495MOL0     H65290   4.318   2.028   5.022 -1.3557 -2.0781 -2.2843
  495MOL0     H65291   4.587   2.056   5.171 -0.7298 -0.3614  0.6150
  495MOL0     H65292   4.452   2.041   5.274 -0.2438 -0.7535 -0.2515
  495MOL0     H65293   4.437   2.226   4.921  1.1504  2.5233 -1.3393
  495MOL0     H65294   4.440   2.506   4.859  2.2689  4.6700  1.3475
  495MOL0     H65295   4.399   2.614   4.984  1.7689  0.2833 -2.3187
  495MOL0     H65296   4.210   2.408   4.855  1.0884 -0.6989 -1.6911
  495MOL0     H65297   4.255   2.569   4.794  2.0649 -0.7510  0.4010
  495MOL0     H65298   4.131   2.487   5.070 -1.4512  0.9002  0.3034
  495MOL0     H65299   4.166   2.656   5.025 -0.8661  0.1426 -0.4983
  495MOL0     H65300   3.932   2.610   5.007 -0.1460  3.4987 -2.0540
  495MOL0     H65301   3.962   2.471   4.901 -3.5236  0.4605 -0.9447
  495MOL0     H65302   3.769   2.495   4.807 -1.6961  0.4454  1.0707
  495MOL0     H65303   3.577   2.542   4.670  0.3431 -0.3739 -0.7141
  495MOL0     H65304   3.232   2.521   4.551  0.2735 -1.4216 -1.5099
  495MOL0     H65305   3.009   2.563   4.501 -0.4295  1.9058  1.6624
  495MOL0     H65306   2.807   2.841   4.426  0.2912 -0.5799  1.4930
  495MOL0     H65307   2.822   2.668   4.464  2.4544 -0.4887 -1.4141
  495MOL0     H65308   2.705   2.610   4.242 -0.5438 -0.6090  0.5714
  495MOL0     H65309   2.677   2.780   4.216 -1.4401  0.9617  0.2517
  495MOL0     H65310   2.479   2.692   4.322 -1.8503  0.1136  2.6321
  495MOL0     H65311   2.563   2.785   4.450  3.1853  2.0480 -2.2033
  495MOL0     H65312   2.587   2.473   4.424 -2.0882 -2.5080  3.0133
  495MOL0     H65313   2.638   2.583   4.555 -1.5249  1.6115 -0.1637
  495MOL0     H65314   2.344   2.564   4.449 -0.2515  4.4036 -0.2228
  495MOL0     H65315   2.404   2.647   4.594  0.7243 -0.4190 -0.1315
  495MOL0     H65316   2.494   2.410   4.677  0.7576 -0.4521  0.1823
  495MOL0     H65317   2.382   2.354   4.541 -3.3800  1.5680 -1.1979
  495MOL0     H65318   2.298   2.511   4.788 -3.5195  1.8171 -1.0912
  495MOL0     H65319   2.194   2.453   4.665 -0.7128 -1.4231  1.8748
  495MOL0     H65320   2.346   2.285   4.861 -0.9619 -2.6002 -1.0517
  495MOL0     H65321   2.252   2.197   4.742 -2.4605 -1.9389  3.3950
  495MOL0     H65322   3.122   2.876   4.233 -2.3029 -1.9849 -1.5294
  495MOL0     H65323   3.355   2.857   4.314  0.0431  1.0046  2.9445
  495MOL0     H65324   3.761   2.894   4.527 -0.0815 -0.9152 -1.0057
  495MOL0     H65325   3.957   2.854   4.680  0.9021  0.1570  1.1304
  495MOL0     H65326   3.632   1.672   5.449 -2.4350 -0.9764  1.8542
  495MOL0     H65327   3.412   1.647   5.355 -0.6924 -0.1764  2.0104
  495MOL0     H65328   3.171   1.367   5.053  1.6682  1.4773  1.0186
  495MOL0     H65329   2.947   1.326   4.932 -0.2745  0.0890 -0.1515
  495MOL0     H65330   2.757   1.292   4.852 -0.5587 -0.0220 -1.2920
  495MOL0     H65331   2.662   1.430   4.837 -2.2023 -0.7757 -1.8747
  495MOL0     H65332   2.467   1.300   4.935  0.9400 -1.0348  3.1590
  495MOL0     H65333   2.541   1.242   4.782 -0.3862 -2.2449  0.1685
  495MOL0     H65334   2.475   1.057   4.950  0.6763 -1.5169  2.7373
  495MOL0     H65335   2.591   1.122   5.057 -0.4868 -0.6234  0.4131
  495MOL0     H65336   2.761   1.053   4.861 -0.0639  0.0495 -1.0031
  495MOL0     H65337   2.677   0.917   4.943  4.0205 -0.0377 -0.7930
  495MOL0     H65338   2.524   0.906   4.546 -3.2629  1.2430  0.2196
  495MOL0     H65339   2.731   1.469   5.270 -0.5859 -0.3185 -0.7496
  495MOL0     H65340   2.931   1.530   5.378  1.3055  0.2261  0.7258
  496MOL0     O65341   8.437  10.344   8.171  0.0066 -0.3110 -0.4121
  496MOL0     C65342   8.478  10.410   8.267  0.4942  0.0973  0.0019
  496MOL0     O65343   8.422  10.529   8.302  0.1477 -0.2448 -0.5477
  496MOL0     C65344   8.296  10.571   8.262  0.3483 -0.1609  0.8191
  496MOL0     C65345   8.213  10.632   8.353 -0.1738 -0.5917 -0.3414
  496MOL0     C65346   8.102  10.714   8.318 -0.3712  0.2990  0.6935
  496MOL0     C65347   8.078  10.730   8.177 -0.7724  0.0784  0.2756
  496MOL0     O65348   7.977  10.798   8.116  0.0785  0.9053 -0.7406
  496MOL0     C65349   7.864  10.822   8.206  0.2543 -0.3350  0.5033
  496MOL0     C65350   7.752  10.861   8.111  0.1120 -0.1685 -0.6896
  496MOL0     C65351   7.617  10.889   8.195  0.6409  0.7160 -0.0411
  496MOL0     C65352   7.499  10.919   8.105  0.6426 -0.5577  1.1678
  496MOL0     C65353   7.374  10.984   8.167 -0.7511  0.3998  1.0568
  496MOL0     C65354   7.285  10.887   8.235 -0.6681  0.2230 -0.2027
  496MOL0     C65355   7.141  10.939   8.270  0.1787 -0.2552  0.1564
  496MOL0     C65356   7.145  11.085   8.308 -0.7987 -0.6605  0.4494
  496MOL0     N65357   7.019  11.130   8.365  0.6974 -0.3403  0.0525
  496MOL0     C65358   6.948  11.241   8.321  0.8150 -0.4120  0.5294
  496MOL0     C65359   6.857  11.269   8.414  0.0192  0.4578 -1.0601
  496MOL0     C65360   6.794  11.400   8.428  0.8640 -0.1738  0.1093
  496MOL0     C65361   6.769  11.480   8.296 -0.3789  0.2162  0.3630
  496MOL0     C65362   6.690  11.619   8.327  0.4732  0.4988  0.2339
  496MOL0     C65363   6.552  11.613   8.395  0.4758  0.1175  0.1554
  496MOL0     O65364   6.501  11.751   8.398 -0.0771  0.5309  0.8493
  496MOL0     C65365   6.371  11.783   8.438 -1.3751  0.1832 -0.0423
  496MOL0     C65366   6.276  11.683   8.470  0.3746  0.2994  0.6161
  496MOL0     C65367   6.139  11.720   8.482  0.0965  0.0343 -0.2419
  496MOL0     C65368   6.097  11.855   8.456  0.0809 -0.0625  0.4949
  496MOL0     C65369   5.952  11.888   8.463  0.1229  0.2695  0.4245
  496MOL0     O65370   5.870  11.783   8.509 -0.1584 -0.0172 -0.2412
  496MOL0     C65371   5.744  11.813   8.564 -0.5079 -1.0287 -0.0881
  496MOL0     C65372   5.645  11.725   8.568  0.3115 -0.0714  0.2574
  496MOL0     C65373   5.521  11.745   8.639  0.3923  0.1787 -0.4105
  496MOL0     C65374   5.497  11.859   8.711 -1.5137 -0.8938 -0.1802
  496MOL0     O65375   5.393  11.893   8.789  0.7283 -0.4035  0.0194
  496MOL0     C65376   5.275  11.806   8.787 -0.0835 -0.2578  0.4204
  496MOL0     C65377   5.279  11.694   8.892 -0.0315  0.7432  0.7017
  496MOL0     C65378   5.144  11.637   8.913  0.7634  0.4563  0.3784
  496MOL0     C65379   5.144  11.533   9.024  0.2188  0.1945  0.0388
  496MOL0     C65380   5.008  11.467   9.041  0.3871  0.5991 -0.2751
  496MOL0     C65381   4.894  11.563   9.089  0.1064  0.2258 -0.4387
  496MOL0     C65382   4.770  11.480   9.122 -0.2684  0.5960  0.3044
  496MOL0     C65383   4.667  11.548   9.213  0.5948  0.2354  0.0422
  496MOL0    Cl65384   4.496  11.527   9.149 -0.3866 -0.3267 -0.5073
  496MOL0     C65385   5.595  11.962   8.701  0.5512 -0.4035  1.1377
  496MOL0     C65386   5.705  11.933   8.632 -0.1005 -0.4720 -0.2663
  496MOL0     O65387   5.924  11.996   8.412 -0.4140  0.2526 -0.3258
  496MOL0     C65388   6.204  11.948   8.431 -0.2635 -0.9818 -1.0286
  496MOL0     C65389   6.337  11.913   8.412 -0.1639 -0.6270  0.2677
  496MOL0     N65390   6.893  11.184   8.527 -0.6975  1.5157 -0.2178
  496MOL0     N65391   6.987  11.099   8.491  0.1481 -0.4715  0.5587
  496MOL0     C65392   8.155  10.663   8.082 -1.3119 -0.3919  0.6325
  496MOL0     C65393   8.260  10.585   8.125 -0.8126  1.1783  0.9755
  496MOL0     C65394   8.623  10.390   8.311  0.1470 -0.9907  0.7705
  496MOL0     C65395   8.685  10.495   8.378 -0.3667 -0.4037 -0.5773
  496MOL0     C65396   8.818  10.476   8.411  0.5511  0.1487 -0.0506
  496MOL0     C65397   8.883  10.357   8.398 -0.6572 -0.7641 -0.1778
  496MOL0     O65398   9.014  10.330   8.428 -0.3339 -0.2820  1.0820
  496MOL0     C65399   9.103  10.420   8.492 -0.3019 -0.4790  0.4942
  496MOL0     C65400   9.145  10.534   8.391 -0.7245 -0.4709  0.2177
  496MOL0     C65401   9.234  10.457   8.287 -0.0965 -0.4457  0.3644
  496MOL0     C65402   9.304  10.564   8.201  0.4467  1.0966 -0.5976
  496MOL0     C65403   9.427  10.601   8.276  0.0007  0.1853 -0.4576
  496MOL0     C65404   9.525  10.605   8.345  0.4500 -0.9637 -0.5062
  496MOL0     C65405   8.810  10.253   8.334  0.3746  0.2706 -0.2985
  496MOL0     C65406   8.684  10.267   8.290 -0.0784  0.2786 -0.1236
  496MOL0     H65407   8.229  10.620   8.459  1.7597 -3.8225 -0.8605
  496MOL0     H65408   8.049  10.760   8.401  3.8277  2.2400  2.5747
  496MOL0     H65409   7.888  10.902   8.277  1.1105  1.2712 -1.4869
  496MOL0     H65410   7.819  10.740   8.263 -0.6642 -0.3635 -0.2462
  496MOL0     H65411   7.729  10.772   8.051 -1.3387  0.3598 -0.9730
  496MOL0     H65412   7.784  10.946   8.049  1.2974 -0.9457 -1.1916
  496MOL0     H65413   7.638  10.974   8.261  0.0522  0.5918  0.3075
  496MOL0     H65414   7.588  10.806   8.260 -0.5210  0.9405 -0.2542
  496MOL0     H65415   7.529  10.982   8.021 -3.4668 -1.2695 -1.0892
  496MOL0     H65416   7.468  10.829   8.051 -3.1045  0.1540  1.9104
  496MOL0     H65417   7.306  11.020   8.089  0.1161 -0.6939 -0.2575
  496MOL0     H65418   7.407  11.061   8.236  3.5246 -1.6040  1.5519
  496MOL0     H65419   7.328  10.854   8.330 -1.7320 -2.1001 -0.4748
  496MOL0     H65420   7.268  10.803   8.167 -0.5809  0.7283 -0.8561
  496MOL0     H65421   7.084  10.931   8.178 -0.3309 -2.2634  0.6112
  496MOL0     H65422   7.102  10.873   8.348  2.0844 -0.3146  1.1263
  496MOL0     H65423   7.166  11.150   8.223  1.6907 -0.3566  1.1894
  496MOL0     H65424   7.229  11.099   8.378  0.1154 -1.7553 -0.3864
  496MOL0     H65425   6.963  11.302   8.232  0.9814  0.8287  1.3696
  496MOL0     H65426   6.855  11.460   8.496 -1.5647  0.7845  1.5477
  496MOL0     H65427   6.697  11.378   8.473 -0.3828  2.0275 -1.3308
  496MOL0     H65428   6.713  11.421   8.224 -1.3463  1.9488 -0.3533
  496MOL0     H65429   6.867  11.494   8.249 -0.1990 -3.2976 -0.6284
  496MOL0     H65430   6.754  11.680   8.391 -0.2956  2.1701 -0.5360
  496MOL0     H65431   6.675  11.666   8.230  2.6182 -0.2241 -0.5040
  496MOL0     H65432   6.551  11.587   8.501  0.6741  1.8410  0.6240
  496MOL0     H65433   6.483  11.554   8.334 -0.4033  1.2343  0.0347
  496MOL0     H65434   6.294  11.576   8.470  0.1787  0.0607 -3.7784
  496MOL0     H65435   6.083  11.631   8.510 -0.4147  0.6633  0.7760
  496MOL0     H65436   5.663  11.636   8.508  4.3891  2.9815 -3.7249
  496MOL0     H65437   5.449  11.665   8.649 -1.0177  1.2576 -1.4934
  496MOL0     H65438   5.255  11.772   8.685  2.8421 -2.0418  0.3235
  496MOL0     H65439   5.192  11.877   8.788  0.3665  0.4615 -2.4479
  496MOL0     H65440   5.321  11.732   8.986  3.7794 -2.5391  0.5700
  496MOL0     H65441   5.349  11.616   8.861  0.5728  2.2067 -1.8882
  496MOL0     H65442   5.106  11.580   8.828 -2.3855 -0.0149  1.9606
  496MOL0     H65443   5.073  11.717   8.940 -1.0797 -0.8314 -0.4238
  496MOL0     H65444   5.221  11.462   8.992 -0.6239 -1.0282  0.6052
  496MOL0     H65445   5.176  11.585   9.115 -1.1522 -1.0777  1.3270
  496MOL0     H65446   5.016  11.383   9.110 -1.1120 -0.3724 -1.2346
  496MOL0     H65447   4.974  11.432   8.943  0.1264  0.2658 -0.0689
  496MOL0     H65448   4.865  11.630   9.008 -5.6128  1.3792  2.0517
  496MOL0     H65449   4.926  11.615   9.179  1.1684 -1.3419  0.1270
  496MOL0     H65450   4.733  11.468   9.019 -1.6449  1.0625  0.7269
  496MOL0     H65451   4.790  11.381   9.164 -1.6994 -1.2695 -2.9782
  496MOL0     H65452   4.695  11.652   9.234 -2.8669  1.3459 -0.1021
  496MOL0     H65453   4.666  11.505   9.313 -2.8795  0.1060  0.0885
  496MOL0     H65454   5.588  12.060   8.748  1.1269 -0.2936  0.9981
  496MOL0     H65455   5.784  12.007   8.634  1.8799 -2.4846  1.4787
  496MOL0     H65456   6.177  12.052   8.413 -1.5501 -0.5623  2.5531
  496MOL0     H65457   6.403  11.986   8.366 -1.0428 -0.1320 -0.2421
  496MOL0     H65458   8.138  10.673   7.976  2.5580 -0.2325 -0.1029
  496MOL0     H65459   8.321  10.535   8.050 -2.0435  0.9689  0.0865
  496MOL0     H65460   8.634  10.583   8.416 -0.4495 -1.2601  1.4122
  496MOL0     H65461   8.869  10.549   8.472 -0.2990 -0.9369  2.0541
  496MOL0     H65462   9.187  10.373   8.543  0.8650  1.7741  0.7701
  496MOL0     H65463   9.050  10.456   8.581 -1.6154 -3.3217  0.9823
  496MOL0     H65464   9.068  10.595   8.343  1.6321  2.3958 -0.1828
  496MOL0     H65465   9.210  10.607   8.438  1.6869 -0.1747 -3.1864
  496MOL0     H65466   9.181  10.385   8.225 -1.5763  0.7068  0.2195
  496MOL0     H65467   9.313  10.404   8.340 -1.2870 -3.5712 -0.7823
  496MOL0     H65468   9.317  10.521   8.102 -2.1444  0.6314 -0.8027
  496MOL0     H65469   9.241  10.653   8.189  2.2280  2.3266 -1.2773
  496MOL0     H65470   9.606  10.613   8.414  0.6422  0.9104 -0.8921
  496MOL0     H65471   8.837  10.148   8.337 -3.3933 -0.8182  1.4769
  496MOL0     H65472   8.633  10.178   8.254  2.5796 -1.5695  0.4036
  497MOL0     O65473   6.427   3.670   6.453  1.0372 -0.4805 -0.1137
  497MOL0     C65474   6.418   3.765   6.533  0.0328 -0.2416  0.6595
  497MOL0     O65475   6.335   3.878   6.514 -0.1420 -0.0453 -0.3038
  497MOL0     C65476   6.208   3.853   6.463 -0.3078 -0.0669 -0.0985
  497MOL0     C65477   6.150   3.737   6.507  0.2351  0.3573 -0.9077
  497MOL0     C65478   6.026   3.702   6.452  0.1953 -0.2074  0.5012
  497MOL0     C65479   5.971   3.776   6.354  0.5250 -0.3612  0.3078
  497MOL0     O65480   5.845   3.750   6.305 -0.2059 -0.0603  0.3701
  497MOL0     C65481   5.741   3.707   6.400  0.1197  0.8415 -0.2625
  497MOL0     C65482   5.604   3.760   6.373  1.1753  0.7683  0.3723
  497MOL0     C65483   5.529   3.690   6.257  0.1773  0.0003  0.4506
  497MOL0     C65484   5.405   3.767   6.222 -0.1090  0.9592 -0.8649
  497MOL0     C65485   5.295   3.695   6.144 -0.5444 -0.5656  0.6566
  497MOL0     C65486   5.195   3.791   6.080 -0.2816 -0.6770  0.0996
  497MOL0     C65487   5.056   3.738   6.073  0.6837 -0.1486  0.6764
  497MOL0     C65488   4.974   3.846   5.999 -0.5810 -0.4761  0.3407
  497MOL0     N65489   4.830   3.838   6.008  0.6783 -0.5188 -1.5427
  497MOL0     C65490   4.735   3.933   6.058 -0.7598  0.4303 -1.1449
  497MOL0     C65491   4.610   3.873   6.053 -0.3305 -0.3646 -0.6214
  497MOL0     C65492   4.474   3.912   6.076 -0.1360  0.5793  0.5137
  497MOL0     C65493   4.376   3.908   5.954 -0.4129  0.8147 -0.4409
  497MOL0     C65494   4.345   3.781   5.867  0.0987  0.5187 -0.3380
  497MOL0     C65495   4.294   3.656   5.951  1.1295 -0.3562  0.7664
  497MOL0     O65496   4.159   3.678   5.993  0.2346  0.2227 -0.1776
  497MOL0     C65497   4.064   3.683   5.897 -0.0995 -0.1079  0.1583
  497MOL0     C65498   3.998   3.567   5.861  0.4022  0.2353  0.2239
  497MOL0     C65499   3.893   3.566   5.767 -0.1431 -1.1876 -0.4570
  497MOL0     C65500   3.847   3.693   5.711 -0.8798 -0.1654  0.6796
  497MOL0     C65501   3.738   3.694   5.610  0.3785  0.0575 -0.0208
  497MOL0     O65502   3.706   3.822   5.575 -0.0658 -0.4225 -0.0904
  497MOL0     C65503   3.597   3.834   5.495  0.4404 -1.0146  0.4174
  497MOL0     C65504   3.598   3.803   5.357  0.9412 -1.1151 -0.4910
  497MOL0     C65505   3.482   3.808   5.280  0.0843 -0.5486  0.3623
  497MOL0     C65506   3.353   3.821   5.339 -0.2140 -0.8371  0.3809
  497MOL0     O65507   3.236   3.802   5.277 -0.0053 -0.3612 -0.2964
  497MOL0     C65508   3.220   3.669   5.226  0.1749 -0.1155  0.6341
  497MOL0     C65509   3.242   3.556   5.327 -0.0518 -0.3561  0.5837
  497MOL0     C65510   3.233   3.431   5.251 -1.0233  0.2186  0.2453
  497MOL0     C65511   3.237   3.309   5.344 -0.0271 -0.1909  0.3039
  497MOL0     C65512   3.366   3.291   5.419  0.2541  0.2310 -0.0106
  497MOL0     C65513   3.496   3.280   5.338  0.0446  0.0453  0.0864
  497MOL0     C65514   3.620   3.276   5.425  0.7078  0.3023  1.0094
  497MOL0     C65515   3.722   3.185   5.353 -0.2423 -0.1446 -0.3068
  497MOL0    Cl65516   3.783   3.256   5.208  0.0811  0.1028  0.2745
  497MOL0     C65517   3.360   3.861   5.473  0.9220  0.3447  1.0287
  497MOL0     C65518   3.473   3.868   5.553  0.2336  1.0174  0.5906
  497MOL0     O65519   3.668   3.595   5.593 -0.5321 -0.6159 -0.1220
  497MOL0     C65520   3.917   3.811   5.756  0.9286  0.7254  0.1194
  497MOL0     C65521   4.024   3.802   5.848 -0.8715  0.5160  0.4043
  497MOL0     N65522   4.635   3.741   6.014  0.9873  0.4958  0.0975
  497MOL0     N65523   4.763   3.727   5.997 -0.1647  1.2567 -1.1259
  497MOL0     C65524   6.027   3.893   6.303 -0.2087  0.2571 -0.0530
  497MOL0     C65525   6.151   3.925   6.361  0.7785 -0.3611  0.4361
  497MOL0     C65526   6.520   3.772   6.640  0.7522  0.4114 -0.2619
  497MOL0     C65527   6.572   3.896   6.675 -0.2739 -0.5675 -0.4429
  497MOL0     C65528   6.670   3.909   6.772 -0.3963  0.4093  0.2919
  497MOL0     C65529   6.713   3.792   6.836  0.3975  0.0128 -0.5725
  497MOL0     O65530   6.807   3.811   6.935 -0.6848  0.1147  0.0098
  497MOL0     C65531   6.822   3.691   7.022 -0.5987 -0.6327  0.3391
  497MOL0     C65532   6.928   3.713   7.120 -0.0263  1.1355 -1.3839
  497MOL0     C65533   7.067   3.707   7.049 -0.7430 -0.0416  0.6186
  497MOL0     C65534   7.190   3.786   7.105  0.2398 -0.1552 -0.4624
  497MOL0     C65535   7.172   3.929   7.132  0.0123 -1.1045  1.0775
  497MOL0     C65536   7.177   4.050   7.153 -0.1731 -0.5688  0.7578
  497MOL0     C65537   6.670   3.667   6.793  0.3570  0.6956  0.1246
  497MOL0     C65538   6.571   3.662   6.700  0.1217 -0.1831 -0.2775
  497MOL0     H65539   6.189   3.666   6.579 -1.9551 -0.5620 -0.5338
  497MOL0     H65540   5.978   3.608   6.474 -4.2291  1.8354  0.7048
  497MOL0     H65541   5.770   3.750   6.497  1.0332  0.4807 -0.3697
  497MOL0     H65542   5.735   3.600   6.420  2.3847  0.6281 -0.4176
  497MOL0     H65543   5.619   3.867   6.353  0.0654  0.4140 -3.0480
  497MOL0     H65544   5.538   3.751   6.460 -1.3760  3.4882 -1.0995
  497MOL0     H65545   5.496   3.588   6.279  0.9893 -0.7690 -1.6256
  497MOL0     H65546   5.584   3.683   6.162  1.4722  1.6994  1.0288
  497MOL0     H65547   5.353   3.797   6.313  0.7906  0.6390 -0.2277
  497MOL0     H65548   5.437   3.852   6.161  1.6944 -1.1891 -3.1460
  497MOL0     H65549   5.246   3.624   6.211 -0.9225 -2.8935 -1.8843
  497MOL0     H65550   5.342   3.630   6.069  2.3289 -0.1246  1.9751
  497MOL0     H65551   5.244   3.815   5.985 -4.6051  1.9562 -1.7595
  497MOL0     H65552   5.191   3.881   6.141  0.3363 -0.0109 -0.8155
  497MOL0     H65553   5.047   3.648   6.011  0.5460  1.0950 -1.1905
  497MOL0     H65554   5.014   3.717   6.172 -2.3714  0.4796 -0.3635
  497MOL0     H65555   5.002   3.841   5.893  0.4038 -0.3092  0.5782
  497MOL0     H65556   5.002   3.947   6.030  0.8985 -0.2035 -1.6612
  497MOL0     H65557   4.759   4.035   6.086 -2.2013  0.8875 -1.4766
  497MOL0     H65558   4.480   4.012   6.119  1.0086  2.4860 -3.5456
  497MOL0     H65559   4.448   3.849   6.161  1.1050  2.5760  2.4710
  497MOL0     H65560   4.409   3.985   5.884 -2.3121  1.1938 -0.9504
  497MOL0     H65561   4.278   3.939   5.990 -0.7953  0.4301 -1.1435
  497MOL0     H65562   4.274   3.801   5.787 -0.2555 -1.2119 -0.5017
  497MOL0     H65563   4.433   3.739   5.818 -0.4608 -4.8025  2.3854
  497MOL0     H65564   4.355   3.651   6.041 -0.3627 -2.6892  1.7367
  497MOL0     H65565   4.300   3.556   5.907 -3.3764 -1.0246  1.2590
  497MOL0     H65566   4.040   3.475   5.901 -0.9209 -0.5425 -0.1352
  497MOL0     H65567   3.843   3.475   5.736 -1.2971 -0.5363 -0.5663
  497MOL0     H65568   3.691   3.774   5.309  1.3729  2.1414 -1.9002
  497MOL0     H65569   3.482   3.793   5.173 -0.2124  2.3667 -0.1470
  497MOL0     H65570   3.299   3.663   5.151  0.6824  3.8387  0.6629
  497MOL0     H65571   3.132   3.657   5.162  0.6178 -1.5324  0.2510
  497MOL0     H65572   3.155   3.559   5.394  0.6385  1.9336  1.4499
  497MOL0     H65573   3.339   3.563   5.377 -0.1460  3.1073  0.4927
  497MOL0     H65574   3.312   3.420   5.176 -1.0518 -0.0804  0.2598
  497MOL0     H65575   3.130   3.429   5.213 -1.2261 -0.2072  0.7982
  497MOL0     H65576   3.160   3.315   5.422 -0.7037 -1.2635 -0.2702
  497MOL0     H65577   3.226   3.215   5.289  0.7495  0.1080 -0.3823
  497MOL0     H65578   3.372   3.205   5.486  2.0253  3.2556  4.1590
  497MOL0     H65579   3.385   3.374   5.487 -0.9414  0.1940  0.3857
  497MOL0     H65580   3.517   3.369   5.278  0.7808  0.4250  0.8791
  497MOL0     H65581   3.490   3.191   5.274 -1.5578  0.2214 -0.0591
  497MOL0     H65582   3.667   3.374   5.437  3.5491  0.0083 -4.5333
  497MOL0     H65583   3.604   3.232   5.524  1.5867 -2.3449  0.0827
  497MOL0     H65584   3.684   3.083   5.342  1.2978 -0.7677 -0.2277
  497MOL0     H65585   3.812   3.185   5.416 -0.2574  1.3714 -0.2414
  497MOL0     H65586   3.272   3.884   5.532  1.0209 -3.8363  3.1666
  497MOL0     H65587   3.487   3.892   5.658  0.9724  1.9018  0.3073
  497MOL0     H65588   3.885   3.906   5.714 -1.0652  2.2487  4.4798
  497MOL0     H65589   4.082   3.887   5.882 -4.0632  2.9897  0.1404
  497MOL0     H65590   5.971   3.950   6.229 -1.7186 -1.3948 -0.2468
  497MOL0     H65591   6.196   4.008   6.307 -3.7048  3.0335  1.3807
  497MOL0     H65592   6.541   3.989   6.628 -3.4494 -1.5259 -0.5098
  497MOL0     H65593   6.712   4.004   6.803 -1.1777  1.2533 -1.1404
  497MOL0     H65594   6.847   3.603   6.961  1.6509  0.2218 -0.0602
  497MOL0     H65595   6.731   3.676   7.081  0.2665 -0.8440  1.6458
  497MOL0     H65596   6.905   3.798   7.184  2.1306 -0.8590  2.4101
  497MOL0     H65597   6.928   3.630   7.192  0.9907  2.9178  0.7779
  497MOL0     H65598   7.050   3.753   6.952  2.1574 -0.2206 -0.0663
  497MOL0     H65599   7.098   3.606   7.020  0.2266  1.5610 -5.0418
  497MOL0     H65600   7.212   3.737   7.201 -1.1046 -0.0685 -0.0897
  497MOL0     H65601   7.277   3.781   7.039  1.5038 -0.1598  1.1540
  497MOL0     H65602   7.186   4.154   7.179 -1.5994 -0.6714  1.7488
  497MOL0     H65603   6.698   3.575   6.843 -0.7317  0.5559  0.5053
  497MOL0     H65604   6.545   3.562   6.665  3.1214 -1.6674  1.3619
  498MOL0     O65605   8.758   2.193   0.375  0.1287  0.4478  0.0583
  498MOL0     C65606   8.711   2.076   0.365 -0.5728 -1.0136 -0.4367
  498MOL0     O65607   8.577   2.046   0.388  0.7177  0.3367 -0.1697
  498MOL0     C65608   8.472   2.128   0.437  0.3177 -0.0572 -0.1414
  498MOL0     C65609   8.500   2.214   0.544 -0.2136 -0.9896  0.9306
  498MOL0     C65610   8.402   2.277   0.618 -0.1623  0.5200 -1.0708
  498MOL0     C65611   8.270   2.246   0.588  0.1650  0.4161  0.3156
  498MOL0     O65612   8.179   2.307   0.668  0.3078 -1.0522  0.3417
  498MOL0     C65613   8.054   2.247   0.698 -0.5075  0.8408  0.1034
  498MOL0     C65614   7.964   2.347   0.617 -0.2826 -0.0071 -0.2764
  498MOL0     C65615   7.812   2.330   0.644 -0.0896 -0.1881 -1.0874
  498MOL0     C65616   7.726   2.431   0.560  0.6065  0.8511  1.1976
  498MOL0     C65617   7.574   2.410   0.568 -1.3235 -0.2984  0.4169
  498MOL0     C65618   7.492   2.470   0.453 -0.1382  0.1278  0.0271
  498MOL0     C65619   7.519   2.616   0.433  0.0889 -0.4493  0.4455
  498MOL0     C65620   7.419   2.662   0.320  0.2982  0.2403  0.1393
  498MOL0     N65621   7.440   2.805   0.269 -0.5282  0.8511 -0.1104
  498MOL0     C65622   7.563   2.847   0.220  0.2346  0.2374 -0.1743
  498MOL0     C65623   7.529   2.962   0.158  0.0025 -0.4049  0.6977
  498MOL0     C65624   7.619   3.048   0.072 -0.8093  1.0867  0.8998
  498MOL0     C65625   7.736   3.097   0.161  0.4506 -0.2608 -0.4685
  498MOL0     C65626   7.837   3.193   0.096 -0.3175 -0.0642 -0.6184
  498MOL0     C65627   7.974   3.190   0.172  0.1004 -0.1657  0.4860
  498MOL0     O65628   8.047   3.068   0.133 -0.4334  0.1829  0.5532
  498MOL0     C65629   8.180   3.052   0.165 -0.7740  0.3034 -0.8146
  498MOL0     C65630   8.247   2.932   0.118  0.3073  0.4937 -0.2698
  498MOL0     C65631   8.385   2.910   0.137  0.3485 -0.0976 -0.1169
  498MOL0     C65632   8.460   3.006   0.214 -0.4815  0.8459 -0.7562
  498MOL0     C65633   8.597   2.980   0.241 -0.8710  0.2744 -0.1881
  498MOL0     O65634   8.648   3.034   0.353 -0.4734  0.2785  0.0823
  498MOL0     C65635   8.772   3.007   0.394  0.9006 -0.6022 -0.0795
  498MOL0     C65636   8.800   2.911   0.502  0.8088 -1.1543  0.1515
  498MOL0     C65637   8.936   2.893   0.534  1.0543  0.1840  0.4505
  498MOL0     C65638   9.042   2.953   0.468 -0.3554 -0.4224  0.1342
  498MOL0     O65639   9.167   2.917   0.508 -0.9076  0.5101 -0.3494
  498MOL0     C65640   9.262   3.000   0.437  0.2417  0.4241  1.0032
  498MOL0     C65641   9.400   2.931   0.460 -0.5658  0.4098  0.5504
  498MOL0     C65642   9.451   2.940   0.601 -0.0935 -1.1687  0.3696
  498MOL0     C65643   9.490   3.087   0.637 -0.4959  0.0145  0.8090
  498MOL0     C65644   9.553   3.094   0.774 -0.5951 -0.0968  0.9683
  498MOL0     C65645   9.615   3.230   0.802  0.4912  0.8675 -0.1699
  498MOL0     C65646   9.702   3.216   0.927 -0.1395 -1.1361  0.6212
  498MOL0     C65647   9.726   3.363   0.983 -0.3581 -0.4650 -0.6512
  498MOL0    Cl65648   9.626   3.421   1.111 -0.5198  0.5294  0.3293
  498MOL0     C65649   9.006   3.052   0.369 -0.2359 -0.1190  0.0110
  498MOL0     C65650   8.874   3.079   0.335 -0.4405  0.3743 -0.0956
  498MOL0     O65651   8.667   2.914   0.155  0.3086 -0.0827  0.4193
  498MOL0     C65652   8.394   3.123   0.269  1.8237  0.6384  0.2854
  498MOL0     C65653   8.253   3.144   0.244 -0.4077  0.6205 -0.6702
  498MOL0     N65654   7.397   2.996   0.184  0.6240  0.3491 -0.1976
  498MOL0     N65655   7.347   2.892   0.248  0.1437 -0.1181 -0.0577
  498MOL0     C65656   8.243   2.156   0.488  0.4353 -0.3117 -0.2467
  498MOL0     C65657   8.339   2.096   0.409  0.8675  1.1676 -0.1303
  498MOL0     C65658   8.795   1.961   0.345 -0.6278  0.1077  0.1951
  498MOL0     C65659   8.930   1.982   0.323 -0.5178  0.5422  0.1230
  498MOL0     C65660   9.020   1.870   0.306 -0.3964  0.3212  0.4819
  498MOL0     C65661   8.969   1.741   0.305 -0.3674 -0.3621 -0.9133
  498MOL0     O65662   9.061   1.645   0.281 -0.1660 -0.3645  1.0940
  498MOL0     C65663   9.022   1.510   0.256  0.2862  0.3462  0.5283
  498MOL0     C65664   8.920   1.493   0.148 -0.9874  0.6679 -0.7705
  498MOL0     C65665   8.891   1.348   0.127  0.4581  1.3594  0.0443
  498MOL0     C65666   9.005   1.253   0.083 -0.0241 -0.4177  0.0798
  498MOL0     C65667   9.002   1.242  -0.069 -0.7824  1.2779  0.9014
  498MOL0     C65668   9.001   1.222  -0.191  0.5056  1.4061  0.1655
  498MOL0     C65669   8.829   1.722   0.336  0.2333 -0.0866  0.1659
  498MOL0     C65670   8.743   1.832   0.344 -0.2499  0.1479 -0.9299
  498MOL0     H65671   8.603   2.241   0.567  0.6285 -0.8891 -2.5295
  498MOL0     H65672   8.425   2.339   0.704  0.8909 -1.1171 -0.1239
  498MOL0     H65673   8.024   2.249   0.803  0.3420  2.2313  0.3420
  498MOL0     H65674   8.052   2.144   0.660  2.3418  1.1999 -1.2763
  498MOL0     H65675   7.980   2.341   0.509  0.4855  1.0853 -0.2431
  498MOL0     H65676   7.994   2.449   0.643  1.5267 -1.3416  3.5664
  498MOL0     H65677   7.792   2.333   0.752 -0.9137 -2.3307 -1.1290
  498MOL0     H65678   7.773   2.230   0.623 -0.5921 -0.7080  1.8658
  498MOL0     H65679   7.753   2.531   0.595 -1.2321  0.6558  3.4429
  498MOL0     H65680   7.757   2.410   0.457 -0.7587  1.7164  0.5895
  498MOL0     H65681   7.529   2.452   0.659 -1.1820 -1.1658  0.9040
  498MOL0     H65682   7.552   2.303   0.581 -1.1652 -0.3948 -0.1092
  498MOL0     H65683   7.386   2.455   0.473 -0.0523 -2.1654 -1.0171
  498MOL0     H65684   7.510   2.416   0.360  2.6386  0.4666  0.2606
  498MOL0     H65685   7.492   2.672   0.523 -2.0097 -0.5514 -0.0686
  498MOL0     H65686   7.624   2.640   0.411 -0.2604  0.2716 -0.4967
  498MOL0     H65687   7.319   2.663   0.365  0.8575 -2.1604  1.5863
  498MOL0     H65688   7.418   2.591   0.236  1.9135  0.5147 -0.1379
  498MOL0     H65689   7.655   2.792   0.206  3.0407  4.0821  1.4119
  498MOL0     H65690   7.559   3.129   0.030 -2.9391 -0.1763  1.3592
  498MOL0     H65691   7.657   2.974   0.001 -3.6778 -0.6637  1.0227
  498MOL0     H65692   7.794   3.014   0.201  0.0531 -1.8997 -3.0349
  498MOL0     H65693   7.686   3.144   0.246 -5.0587 -3.7236 -1.3647
  498MOL0     H65694   7.852   3.174  -0.010  2.2853  1.1082 -0.5474
  498MOL0     H65695   7.799   3.295   0.104  2.0041  0.8577 -0.4464
  498MOL0     H65696   7.966   3.189   0.282 -2.5257  2.0230  0.4105
  498MOL0     H65697   8.030   3.281   0.153  2.1459 -1.0692  1.7400
  498MOL0     H65698   8.191   2.861   0.059  0.3382 -0.2467  0.5644
  498MOL0     H65699   8.439   2.822   0.104  0.2932  0.2318 -1.1026
  498MOL0     H65700   8.729   2.849   0.555  2.0553 -1.4129  1.5845
  498MOL0     H65701   8.953   2.816   0.609 -0.1440 -2.1058 -1.4447
  498MOL0     H65702   9.253   3.102   0.476 -2.1792 -0.3729  2.7116
  498MOL0     H65703   9.250   2.993   0.328 -2.2723 -2.5182  1.3287
  498MOL0     H65704   9.477   2.974   0.394  1.0281  0.5097  2.3747
  498MOL0     H65705   9.385   2.829   0.424 -3.7511  1.1427 -0.5077
  498MOL0     H65706   9.551   2.897   0.605  0.9035  1.1139  1.4778
  498MOL0     H65707   9.387   2.897   0.680  1.5765 -3.7465  0.4557
  498MOL0     H65708   9.565   3.131   0.571 -1.0956  0.4918  0.4272
  498MOL0     H65709   9.401   3.151   0.635 -1.2192 -0.8242 -3.7339
  498MOL0     H65710   9.632   3.018   0.776  3.8531  4.0422  1.8851
  498MOL0     H65711   9.477   3.066   0.847 -1.5295  0.4253  0.2254
  498MOL0     H65712   9.535   3.300   0.829 -0.0201  0.0601  0.4664
  498MOL0     H65713   9.674   3.270   0.719  0.1619 -1.8327 -1.8442
  498MOL0     H65714   9.661   3.150   1.004 -1.2408 -1.0083  0.1643
  498MOL0     H65715   9.792   3.165   0.892  0.6195  0.3289  0.3487
  498MOL0     H65716   9.719   3.432   0.899  0.3838  1.4356  0.7754
  498MOL0     H65717   9.825   3.363   1.031 -0.1755 -2.7631 -0.8809
  498MOL0     H65718   9.078   3.120   0.326  0.9814 -0.7227  1.0525
  498MOL0     H65719   8.861   3.149   0.253  1.6582 -1.3664 -2.0362
  498MOL0     H65720   8.439   3.199   0.331  0.5666  1.0686  0.6905
  498MOL0     H65721   8.194   3.226   0.284 -1.9484 -0.9167  0.3290
  498MOL0     H65722   8.140   2.139   0.456 -0.3374  1.3853  1.2136
  498MOL0     H65723   8.334   2.024   0.328  2.7134 -1.1434  1.6448
  498MOL0     H65724   8.986   2.075   0.313  3.2043 -1.5083 -0.0993
  498MOL0     H65725   9.128   1.880   0.296 -0.5937  1.1730 -1.1393
  498MOL0     H65726   8.969   1.472   0.343  2.9202  0.6288  2.3944
  498MOL0     H65727   9.111   1.446   0.250 -0.4970 -0.9189  1.8914
  498MOL0     H65728   8.824   1.535   0.181 -1.9323 -3.5882  2.9403
  498MOL0     H65729   8.945   1.534   0.050 -1.6946  1.5283 -0.6084
  498MOL0     H65730   8.820   1.344   0.045  0.7329 -2.8162 -0.2101
  498MOL0     H65731   8.846   1.292   0.210 -1.6375  0.7500 -1.4271
  498MOL0     H65732   9.102   1.276   0.128 -1.5579  0.0249  3.4874
  498MOL0     H65733   8.977   1.152   0.116 -0.4073 -1.1828 -2.4218
  498MOL0     H65734   8.976   1.213  -0.295 -2.0256  1.3068  0.7179
  498MOL0     H65735   8.788   1.628   0.371  0.8936  0.0224  1.2740
  498MOL0     H65736   8.641   1.821   0.380  0.2365 -2.3431 -0.0725
  499MOL0     O65737   6.285  10.156   9.145 -0.1614 -0.6751  0.0764
  499MOL0     C65738   6.358  10.069   9.192  0.0615 -0.5292 -0.2705
  499MOL0     O65739   6.347  10.018   9.308  0.2812 -0.2750 -0.0483
  499MOL0     C65740   6.237  10.054   9.385 -0.2974  0.5938  0.4681
  499MOL0     C65741   6.252  10.103   9.516 -0.7904 -0.6188  0.1383
  499MOL0     C65742   6.132  10.140   9.586 -0.2887 -0.6984 -0.7685
  499MOL0     C65743   6.003  10.113   9.540  0.0852  0.1653 -0.0063
  499MOL0     O65744   5.898  10.144   9.618 -0.3616 -0.4679 -0.0535
  499MOL0     C65745   5.775  10.186   9.567 -0.6734  0.3211 -0.2818
  499MOL0     C65746   5.734  10.313   9.635 -0.1095 -0.1673 -0.2625
  499MOL0     C65747   5.579  10.307   9.666 -0.6432 -0.1220 -0.7410
  499MOL0     C65748   5.532  10.429   9.755  0.4510  0.3306 -0.2004
  499MOL0     C65749   5.392  10.403   9.801  0.7690 -0.8314  0.2656
  499MOL0     C65750   5.321  10.532   9.841  0.5041 -0.9279 -0.2747
  499MOL0     C65751   5.172  10.500   9.866 -0.0398 -0.9706 -0.1689
  499MOL0     C65752   5.086  10.617   9.917 -0.3706  0.3918  0.0992
  499MOL0     N65753   5.059  10.718   9.812 -0.8823 -0.0037 -0.6363
  499MOL0     C65754   4.977  10.703   9.703 -0.2478 -0.9054 -0.3960
  499MOL0     C65755   4.985  10.811   9.622  0.1683 -1.0120  0.6990
  499MOL0     C65756   4.919  10.830   9.483 -0.4177  0.8215 -0.3334
  499MOL0     C65757   4.766  10.837   9.502  0.4355  0.3382  0.0368
  499MOL0     C65758   4.708  10.920   9.624  0.0618  0.5777  1.1734
  499MOL0     C65759   4.578  11.006   9.600  0.5497 -0.5277  0.3302
  499MOL0     O65760   4.474  10.908   9.571 -0.4540 -0.8478  0.1052
  499MOL0     C65761   4.362  10.952   9.510  0.3626 -0.0374 -0.1879
  499MOL0     C65762   4.313  11.085   9.525 -0.6308 -0.4214  0.5364
  499MOL0     C65763   4.191  11.121   9.466 -0.5446  0.3934 -0.6023
  499MOL0     C65764   4.102  11.026   9.421  0.4008 -0.3409  0.6362
  499MOL0     C65765   3.962  11.072   9.382  0.1691  0.6386 -0.1367
  499MOL0     O65766   3.863  10.988   9.388 -0.1060  0.8838 -0.4328
  499MOL0     C65767   3.737  11.046   9.383  0.0493  0.2650 -0.3669
  499MOL0     C65768   3.692  11.163   9.446 -0.5617  0.5872 -0.3383
  499MOL0     C65769   3.563  11.208   9.420 -0.1312  0.0503  0.4294
  499MOL0     C65770   3.477  11.138   9.342  0.2397 -0.1568 -0.4000
  499MOL0     O65771   3.354  11.175   9.296  0.4744 -0.8066 -0.2266
  499MOL0     C65772   3.289  11.283   9.355  0.4153 -0.0030 -0.0065
  499MOL0     C65773   3.154  11.231   9.387  0.5063 -0.1531 -0.0251
  499MOL0     C65774   3.047  11.301   9.300 -0.8409  0.3593 -0.1697
  499MOL0     C65775   2.907  11.252   9.328 -0.3570  0.3596  0.3373
  499MOL0     C65776   2.812  11.340   9.244  0.2439 -0.5951  0.7079
  499MOL0     C65777   2.837  11.355   9.083  0.4167 -0.3349  0.6425
  499MOL0     C65778   2.837  11.217   9.002 -0.4799  1.2910 -0.4183
  499MOL0     C65779   2.870  11.236   8.856  0.5096  0.6205  0.6107
  499MOL0    Cl65780   2.755  11.355   8.784 -0.8284  0.1444 -0.2503
  499MOL0     C65781   3.514  11.007   9.300 -0.2218 -0.7722 -0.0561
  499MOL0     C65782   3.646  10.969   9.316 -0.7535  0.8014  0.2867
  499MOL0     O65783   3.949  11.187   9.331  0.5273  0.1226 -0.6302
  499MOL0     C65784   4.146  10.887   9.419  0.4103  0.0382  0.3005
  499MOL0     C65785   4.271  10.852   9.469  1.3031 -0.6613 -0.0486
  499MOL0     N65786   5.079  10.890   9.673  0.1550 -0.1009  0.2975
  499MOL0     N65787   5.121  10.836   9.785 -0.0381  0.2044  0.4447
  499MOL0     C65788   5.995  10.060   9.412 -0.6965  0.0688  0.2961
  499MOL0     C65789   6.109  10.020   9.346  0.1441 -0.7922  0.4048
  499MOL0     C65790   6.495  10.056   9.137 -0.0528 -0.5690  0.0266
  499MOL0     C65791   6.554   9.930   9.150 -0.8592  0.7210 -0.2953
  499MOL0     C65792   6.678   9.916   9.094 -0.5494  0.0182  0.2982
  499MOL0     C65793   6.738  10.016   9.019  0.2787 -0.0688  0.2432
  499MOL0     O65794   6.862   9.973   8.975 -0.1126 -0.6514 -0.0655
  499MOL0     C65795   6.949  10.079   8.971  0.2496  0.4534  0.0429
  499MOL0     C65796   7.071  10.037   8.894 -0.1494  0.5458 -0.0833
  499MOL0     C65797   7.189  10.141   8.923  0.6592  0.5434  0.4871
  499MOL0     C65798   7.324  10.083   8.875 -0.4848 -0.4929  0.1238
  499MOL0     C65799   7.428  10.188   8.875 -0.0267  0.3918 -0.3081
  499MOL0     C65800   7.518  10.264   8.880  0.2793 -0.0690 -0.4164
  499MOL0     C65801   6.668  10.131   8.998 -0.2586 -0.0444  0.3641
  499MOL0     C65802   6.545  10.156   9.056  0.3381 -0.7141  0.6266
  499MOL0     H65803   6.352  10.122   9.556  0.4379 -5.2422 -0.0868
  499MOL0     H65804   6.133  10.171   9.690 -0.5792 -0.3993 -0.8532
  499MOL0     H65805   5.703  10.103   9.570 -2.3089  1.6985  2.8795
  499MOL0     H65806   5.783  10.219   9.463 -1.1796 -1.4614 -0.9280
  499MOL0     H65807   5.755  10.407   9.583  2.5107 -0.0157  0.9223
  499MOL0     H65808   5.775  10.326   9.736 -1.3988  1.5679  0.0903
  499MOL0     H65809   5.574  10.219   9.730 -2.0571 -0.2527 -0.9996
  499MOL0     H65810   5.524  10.297   9.572  0.4690  1.4033 -1.6205
  499MOL0     H65811   5.603  10.447   9.836 -0.1822 -0.5012  0.5618
  499MOL0     H65812   5.535  10.516   9.688 -1.1496  0.4066 -0.2150
  499MOL0     H65813   5.399  10.336   9.887 -1.4451  0.9377  1.9422
  499MOL0     H65814   5.339  10.345   9.725 -1.0573 -2.1578  2.4463
  499MOL0     H65815   5.339  10.595   9.754 -1.1572  1.1125  0.7733
  499MOL0     H65816   5.362  10.573   9.934 -0.6072 -0.8647  0.2100
  499MOL0     H65817   5.121  10.470   9.774  0.4979 -0.7346 -0.5529
  499MOL0     H65818   5.173  10.424   9.945 -1.0319 -0.3303  0.4953
  499MOL0     H65819   5.142  10.662  10.000 -0.7844  0.5568  0.2904
  499MOL0     H65820   4.997  10.571   9.961 -1.0260  1.9573  0.4589
  499MOL0     H65821   4.918  10.619   9.666  0.1411 -0.5682 -1.8209
  499MOL0     H65822   4.963  10.753   9.419 -0.2208 -0.3957  1.2041
  499MOL0     H65823   4.946  10.929   9.444  1.4767  0.2828 -0.5000
  499MOL0     H65824   4.742  10.732   9.521  1.2618  0.2483  0.6301
  499MOL0     H65825   4.730  10.883   9.409  0.4831  1.7428  0.6794
  499MOL0     H65826   4.705  10.856   9.713 -1.8405 -1.6385 -0.3466
  499MOL0     H65827   4.792  10.989   9.634 -1.1614  2.3956 -0.5239
  499MOL0     H65828   4.589  11.074   9.515 -0.9234  0.5310  0.9474
  499MOL0     H65829   4.554  11.078   9.679  0.6154  1.7912 -1.6380
  499MOL0     H65830   4.377  11.159   9.572 -1.3863  1.0360 -0.6467
  499MOL0     H65831   4.169  11.227   9.472  0.4305  0.5642  0.3969
  499MOL0     H65832   3.754  11.219   9.514 -1.0364  1.7224 -0.8161
  499MOL0     H65833   3.551  11.307   9.463  2.1004  0.4662  0.2434
  499MOL0     H65834   3.275  11.364   9.283 -0.6060 -1.2913 -1.3080
  499MOL0     H65835   3.326  11.314   9.454 -2.2837 -1.6272  1.6211
  499MOL0     H65836   3.128  11.251   9.491 -3.7432  2.2694 -1.2650
  499MOL0     H65837   3.157  11.123   9.377 -1.2471 -0.1791 -0.7192
  499MOL0     H65838   3.071  11.269   9.198 -0.4919 -1.6837  0.5072
  499MOL0     H65839   3.048  11.409   9.318 -0.6211  0.6104 -1.5504
  499MOL0     H65840   2.895  11.152   9.287 -0.5582  0.8810 -0.9190
  499MOL0     H65841   2.872  11.263   9.431  0.5678  1.3369  0.5726
  499MOL0     H65842   2.815  11.441   9.286 -0.0054 -0.7906  1.2072
  499MOL0     H65843   2.707  11.318   9.264 -1.1955  5.2296  1.5639
  499MOL0     H65844   2.933  11.407   9.072 -0.8342  1.7644 -0.9933
  499MOL0     H65845   2.760  11.426   9.053  0.2538  0.0038  1.8075
  499MOL0     H65846   2.905  11.144   9.046 -1.6770 -0.9772 -2.1248
  499MOL0     H65847   2.738  11.172   9.012  1.0200 -2.4654 -0.9027
  499MOL0     H65848   2.852  11.144   8.799 -0.2347  0.4653  1.0837
  499MOL0     H65849   2.976  11.258   8.847  0.9944 -1.6686  0.1005
  499MOL0     H65850   3.449  10.944   9.240  0.4740 -1.3524 -0.2208
  499MOL0     H65851   3.673  10.870   9.282 -2.8006  0.1612  0.3947
  499MOL0     H65852   4.084  10.803   9.387  1.0763  0.0068 -0.9787
  499MOL0     H65853   4.304  10.751   9.492  2.3324 -0.9839 -2.5201
  499MOL0     H65854   5.894  10.041   9.377 -1.1398 -1.7180  2.3532
  499MOL0     H65855   6.100   9.998   9.240 -0.6218  2.9691 -0.4393
  499MOL0     H65856   6.521   9.856   9.223  2.2453 -0.1068  0.3810
  499MOL0     H65857   6.732   9.822   9.093 -1.6869 -0.6789 -1.7364
  499MOL0     H65858   6.968  10.112   9.074 -1.3089  0.4311  0.3646
  499MOL0     H65859   6.909  10.162   8.912  1.5166  2.3610  1.7395
  499MOL0     H65860   7.103   9.943   8.940 -0.2293 -0.4461 -1.9466
  499MOL0     H65861   7.050  10.024   8.787  0.0451  2.2286 -0.3497
  499MOL0     H65862   7.202  10.161   9.030  0.2736  1.2039  0.4132
  499MOL0     H65863   7.155  10.231   8.871  2.4062  0.1441 -1.4986
  499MOL0     H65864   7.360  10.009   8.948 -1.0879  1.3012  2.3700
  499MOL0     H65865   7.304  10.044   8.775 -2.9943 -0.5845  0.5855
  499MOL0     H65866   7.595  10.338   8.876  0.1080  0.0848 -0.8382
  499MOL0     H65867   6.716  10.203   8.932 -0.9577  1.6736  1.6584
  499MOL0     H65868   6.503  10.256   9.047 -0.6989 -1.1514  0.4360
  500MOL0     O65869   7.979   8.632   7.873  0.4341  0.0043  0.4789
  500MOL0     C65870   8.022   8.521   7.892 -0.2349 -0.0102 -0.0295
  500MOL0     O65871   7.943   8.407   7.916  0.7121 -0.0820 -0.2164
  500MOL0     C65872   7.807   8.426   7.910 -0.7835  0.1178 -0.0940
  500MOL0     C65873   7.734   8.483   7.810  0.1648  0.3383 -0.6853
  500MOL0     C65874   7.602   8.513   7.823 -0.6805  0.2987  0.0000
  500MOL0     C65875   7.534   8.504   7.943 -0.5252  0.7004  0.5265
  500MOL0     O65876   7.413   8.547   7.975 -0.0739 -0.2286 -0.0456
  500MOL0     C65877   7.319   8.561   7.862  0.8335  0.8403  0.2083
  500MOL0     C65878   7.188   8.566   7.937  0.2172  0.3146 -0.3255
  500MOL0     C65879   7.079   8.623   7.852 -0.5351  0.6043  0.0588
  500MOL0     C65880   7.031   8.517   7.750 -0.1505 -0.0932  0.2796
  500MOL0     C65881   6.934   8.581   7.659 -0.5507  0.3099 -0.0375
  500MOL0     C65882   6.841   8.483   7.591 -1.6833  0.4503 -0.9031
  500MOL0     C65883   6.722   8.548   7.528 -0.1589  0.7405  0.8441
  500MOL0     C65884   6.635   8.624   7.632 -0.0566  0.0525 -0.2740
  500MOL0     N65885   6.498   8.572   7.613 -0.2620  0.3020  0.2345
  500MOL0     C65886   6.412   8.625   7.528 -0.1874  0.6900 -0.2849
  500MOL0     C65887   6.289   8.560   7.547  0.4527 -0.1642  0.2237
  500MOL0     C65888   6.165   8.576   7.462  0.1864 -0.4827  0.2538
  500MOL0     C65889   6.074   8.678   7.521 -0.6325 -0.9212 -0.3837
  500MOL0     C65890   5.994   8.637   7.648 -0.1620 -0.0376  0.1111
  500MOL0     C65891   5.862   8.713   7.647  0.5561 -0.1095 -0.2652
  500MOL0     O65892   5.782   8.679   7.534 -1.0398 -1.0187 -0.7693
  500MOL0     C65893   5.667   8.741   7.498 -0.3242  0.0030  0.5031
  500MOL0     C65894   5.594   8.679   7.403 -0.0804 -0.0702  0.0742
  500MOL0     C65895   5.466   8.730   7.369  0.0791 -0.0243  0.2709
  500MOL0     C65896   5.421   8.848   7.434  0.8005 -0.4597  1.0258
  500MOL0     C65897   5.285   8.895   7.400 -0.6072  0.3298 -0.1928
  500MOL0     O65898   5.229   8.996   7.481 -0.5475 -0.3279 -0.4334
  500MOL0     C65899   5.095   9.016   7.478 -0.7965  0.6962  0.1966
  500MOL0     C65900   5.069   9.145   7.514  0.5913 -1.0462  0.5702
  500MOL0     C65901   4.932   9.188   7.522  0.6527 -0.2017 -0.0871
  500MOL0     C65902   4.823   9.108   7.488 -0.0944  0.1590 -0.0522
  500MOL0     O65903   4.698   9.169   7.481 -0.8104 -0.0176 -0.8901
  500MOL0     C65904   4.579   9.091   7.456 -0.3481 -0.2933  0.2621
  500MOL0     C65905   4.546   9.094   7.301  0.4650  0.1555 -0.4400
  500MOL0     C65906   4.529   9.226   7.240  0.6004 -0.1788 -0.0448
  500MOL0     C65907   4.442   9.332   7.324  0.0941  0.2794 -0.5681
  500MOL0     C65908   4.353   9.422   7.234 -1.1659  0.1353  0.1604
  500MOL0     C65909   4.235   9.351   7.169  0.0818  0.6672 -0.0213
  500MOL0     C65910   4.169   9.450   7.070 -0.4997 -0.0271  0.0305
  500MOL0     C65911   4.120   9.580   7.132  1.0381 -0.6449 -0.1963
  500MOL0    Cl65912   4.020   9.656   7.003  0.0203 -0.2974 -0.3715
  500MOL0     C65913   4.855   8.977   7.453  0.8732  0.0427 -0.1567
  500MOL0     C65914   4.984   8.926   7.452  0.2375 -0.3742  0.1147
  500MOL0     O65915   5.231   8.837   7.312 -0.0707  0.2473  0.5570
  500MOL0     C65916   5.504   8.927   7.510 -0.0426 -0.3031 -0.0707
  500MOL0     C65917   5.622   8.859   7.546  0.2022 -0.3202 -1.0740
  500MOL0     N65918   6.314   8.477   7.660 -0.3364 -0.2162 -0.2635
  500MOL0     N65919   6.435   8.488   7.694 -0.6380  0.4194 -0.8934
  500MOL0     C65920   7.604   8.445   8.045 -0.8087 -0.2824 -0.2080
  500MOL0     C65921   7.737   8.397   8.024  0.8720  0.8364  0.3531
  500MOL0     C65922   8.165   8.490   7.872 -0.1925 -0.3446  0.4818
  500MOL0     C65923   8.244   8.578   7.796  0.5076  0.7645  0.3790
  500MOL0     C65924   8.382   8.560   7.792  0.7840  0.1027 -0.1228
  500MOL0     C65925   8.447   8.450   7.848  0.2498  0.3335  0.0592
  500MOL0     O65926   8.581   8.445   7.828 -0.2816  0.1606 -0.0394
  500MOL0     C65927   8.638   8.318   7.845  0.3178 -0.5023 -0.0815
  500MOL0     C65928   8.771   8.307   7.780 -0.1588 -0.1128  0.0942
  500MOL0     C65929   8.882   8.376   7.839  0.3770 -1.0377 -0.5957
  500MOL0     C65930   9.008   8.386   7.751  0.4841  0.7905 -0.5218
  500MOL0     C65931   9.077   8.255   7.739  0.6242  0.0877  0.8306
  500MOL0     C65932   9.129   8.146   7.761 -0.6909 -0.0109 -0.3071
  500MOL0     C65933   8.366   8.351   7.915 -0.4569 -0.8824 -0.5746
  500MOL0     C65934   8.225   8.373   7.921 -0.0006  0.3768 -0.5352
  500MOL0     H65935   7.788   8.519   7.723  0.3588 -0.6188 -0.9711
  500MOL0     H65936   7.553   8.548   7.733  0.0301 -0.5380 -0.7277
  500MOL0     H65937   7.336   8.472   7.801  4.8671  0.5308  1.5211
  500MOL0     H65938   7.325   8.659   7.814  0.4587  1.2937  1.0561
  500MOL0     H65939   7.216   8.630   8.022 -1.0271 -0.3784  0.6585
  500MOL0     H65940   7.160   8.465   7.969 -2.0023  1.7074  2.8042
  500MOL0     H65941   7.114   8.708   7.794 -0.1090 -0.8017 -1.8747
  500MOL0     H65942   6.996   8.644   7.920  0.0314 -0.3943  1.0905
  500MOL0     H65943   7.118   8.479   7.696 -0.4776 -4.0170  2.1287
  500MOL0     H65944   6.992   8.433   7.809 -0.5846  0.4368  0.7580
  500MOL0     H65945   6.985   8.641   7.583 -0.7695  1.2824  0.5567
  500MOL0     H65946   6.874   8.658   7.709  0.9107  2.3794 -1.3053
  500MOL0     H65947   6.815   8.416   7.674  2.2600  0.9317  0.9716
  500MOL0     H65948   6.897   8.424   7.519 -0.4913 -0.0855  0.4088
  500MOL0     H65949   6.749   8.609   7.441 -0.6916  0.1106  0.2222
  500MOL0     H65950   6.660   8.474   7.476 -1.9766  3.9183 -1.9408
  500MOL0     H65951   6.639   8.732   7.615 -0.9916 -0.1850 -2.2484
  500MOL0     H65952   6.661   8.607   7.737  1.5210 -1.7657 -0.9056
  500MOL0     H65953   6.427   8.705   7.456  0.4752  1.2506  0.4608
  500MOL0     H65954   6.129   8.473   7.452 -0.3754 -0.2380 -0.3157
  500MOL0     H65955   6.194   8.619   7.366  0.4552  1.1786  1.0492
  500MOL0     H65956   6.001   8.706   7.445 -2.1932  1.1807  1.7252
  500MOL0     H65957   6.135   8.766   7.542 -0.0223 -1.0121 -1.7341
  500MOL0     H65958   5.965   8.532   7.646 -2.2379  0.3540  2.9324
  500MOL0     H65959   6.057   8.643   7.737 -0.4746 -1.4253  0.4415
  500MOL0     H65960   5.883   8.820   7.659 -1.0743  0.4368 -1.8429
  500MOL0     H65961   5.801   8.689   7.734  1.3983  1.5304  0.8260
  500MOL0     H65962   5.635   8.588   7.362  1.8973  1.0077 -0.4626
  500MOL0     H65963   5.403   8.676   7.299  2.2178 -2.0106 -0.2412
  500MOL0     H65964   5.155   9.209   7.529  0.7325 -1.0251 -0.2721
  500MOL0     H65965   4.913   9.292   7.549  2.8532  1.2049 -3.1931
  500MOL0     H65966   4.495   9.138   7.507 -0.7964 -0.9886  0.1795
  500MOL0     H65967   4.602   8.989   7.488 -0.7508 -1.5407 -3.0629
  500MOL0     H65968   4.453   9.038   7.285 -0.4965  0.9398  1.8641
  500MOL0     H65969   4.622   9.035   7.249 -0.1037  0.1287 -1.2453
  500MOL0     H65970   4.488   9.203   7.141 -0.8948  2.1577 -0.0503
  500MOL0     H65971   4.631   9.264   7.224  0.3943 -0.5565 -2.8569
  500MOL0     H65972   4.380   9.276   7.395  1.7254  1.1608  1.6758
  500MOL0     H65973   4.514   9.387   7.385  1.4970 -0.0867 -1.8425
  500MOL0     H65974   4.405   9.463   7.147 -2.6409  2.0053  0.0789
  500MOL0     H65975   4.313   9.504   7.295  0.3079  1.4377 -0.5603
  500MOL0     H65976   4.168   9.321   7.250  0.2531 -0.8088 -0.3844
  500MOL0     H65977   4.259   9.255   7.121  2.6055  0.4908  1.4207
  500MOL0     H65978   4.235   9.479   6.987  0.0890  3.1375  1.4679
  500MOL0     H65979   4.079   9.396   7.038 -0.2134  0.1176 -1.0717
  500MOL0     H65980   4.200   9.648   7.161  0.6636 -1.1488  2.1897
  500MOL0     H65981   4.045   9.570   7.211 -2.3407  0.4865 -2.9914
  500MOL0     H65982   4.776   8.915   7.413 -0.2782  0.2910  1.5976
  500MOL0     H65983   5.001   8.828   7.408 -2.3446  0.1051 -2.1947
  500MOL0     H65984   5.481   9.029   7.542  2.8052  1.2145 -2.4061
  500MOL0     H65985   5.694   8.914   7.606 -0.9320 -1.4413  1.4400
  500MOL0     H65986   7.562   8.427   8.144  1.6092 -0.0633  0.9188
  500MOL0     H65987   7.772   8.327   8.099 -3.4398 -4.4080 -1.8530
  500MOL0     H65988   8.208   8.669   7.748  0.3480  0.6080  0.1975
  500MOL0     H65989   8.444   8.640   7.752 -0.0766 -0.3161 -2.5019
  500MOL0     H65990   8.572   8.249   7.792 -2.9929  0.0516  3.0015
  500MOL0     H65991   8.645   8.281   7.948 -2.5679  1.0916  0.7777
  500MOL0     H65992   8.787   8.199   7.768 -1.5174 -0.2554 -0.6223
  500MOL0     H65993   8.768   8.347   7.678  0.7557  1.8486  0.7785
  500MOL0     H65994   8.900   8.325   7.934  0.4048  1.9466  1.1321
  500MOL0     H65995   8.850   8.479   7.859 -0.2135 -1.4413  0.6440
  500MOL0     H65996   8.980   8.426   7.653  3.2950  0.5455 -1.5010
  500MOL0     H65997   9.087   8.450   7.791  3.1161 -2.1134 -0.6447
  500MOL0     H65998   9.163   8.045   7.771 -1.1167 -0.2989 -1.6684
  500MOL0     H65999   8.413   8.261   7.954  0.4925 -0.5307 -0.8919
  500MOL0     H66000   8.168   8.309   7.988  0.0163  1.2037  0.2867
  501MOL0     O66001   1.358   3.785   2.215  0.2497  0.4571 -0.2368
  501MOL0     C66002   1.351   3.658   2.194  0.6067  0.2450  0.3963
  501MOL0     O66003   1.242   3.587   2.171  0.6770 -0.0534 -0.3072
  501MOL0     C66004   1.115   3.626   2.209 -0.0738 -0.1322  0.3317
  501MOL0     C66005   1.019   3.553   2.146  0.5424  0.4511  0.7701
  501MOL0     C66006   0.892   3.587   2.172 -0.2877 -0.3916 -0.3416
  501MOL0     C66007   0.851   3.700   2.245  0.1345  0.0257  0.4335
  501MOL0     O66008   0.725   3.741   2.261 -0.1413  0.2839 -0.9775
  501MOL0     C66009   0.620   3.698   2.171 -0.1593  0.4180 -0.1064
  501MOL0     C66010   0.487   3.742   2.219  0.8289  0.4457  0.9854
  501MOL0     C66011   0.450   3.680   2.349 -0.3097  0.2757 -0.0668
  501MOL0     C66012   0.305   3.694   2.394 -0.3787 -0.0518  0.2740
  501MOL0     C66013   0.283   3.624   2.529 -0.1301 -0.3432  0.2970
  501MOL0     C66014   0.133   3.626   2.562 -0.2403  1.3867  0.1073
  501MOL0     C66015   0.126   3.580   2.708 -0.3575 -0.6670 -0.1279
  501MOL0     C66016  -0.022   3.548   2.757 -0.5858 -0.0082 -0.6740
  501MOL0     N66017  -0.023   3.483   2.890  0.5091 -0.2442  0.6678
  501MOL0     C66018   0.064   3.507   2.988 -0.0802 -0.0147 -0.6559
  501MOL0     C66019   0.024   3.409   3.079 -0.5216 -0.4028  0.0933
  501MOL0     C66020   0.094   3.373   3.205 -0.3889  0.4137 -0.2669
  501MOL0     C66021   0.070   3.496   3.308  0.0589  0.1576 -0.3138
  501MOL0     C66022   0.021   3.459   3.449 -0.2815 -0.9094 -0.5616
  501MOL0     C66023  -0.102   3.365   3.450 -0.8789 -0.8454 -0.1546
  501MOL0     O66024  -0.201   3.413   3.363 -0.4128 -0.9358  0.1285
  501MOL0     C66025  -0.306   3.325   3.340 -0.3928  0.5992 -0.0620
  501MOL0     C66026  -0.362   3.253   3.451 -0.3922 -0.8198  0.5411
  501MOL0     C66027  -0.471   3.172   3.433 -0.6472  0.4684 -0.1927
  501MOL0     C66028  -0.513   3.144   3.306  0.4461  0.7866 -0.9522
  501MOL0     C66029  -0.613   3.033   3.281  0.0601  0.1374 -0.2160
  501MOL0     O66030  -0.623   2.991   3.148  0.3151  0.6085 -0.3559
  501MOL0     C66031  -0.691   2.877   3.118 -0.4870 -0.0836 -0.1766
  501MOL0     C66032  -0.829   2.860   3.138 -0.1741  0.0086  0.3479
  501MOL0     C66033  -0.892   2.746   3.097  0.2403 -0.1696 -0.8923
  501MOL0     C66034  -0.830   2.651   3.024  0.5501  0.8622  0.3703
  501MOL0     O66035  -0.891   2.541   2.963  0.3496  0.4294 -0.3470
  501MOL0     C66036  -1.033   2.545   2.924  0.3672  0.3484 -0.4209
  501MOL0     C66037  -1.061   2.516   2.780 -0.0174  1.0137  0.5170
  501MOL0     C66038  -1.212   2.505   2.768  0.4268  0.3379 -0.0201
  501MOL0     C66039  -1.249   2.495   2.621 -0.1214 -0.1744 -0.6964
  501MOL0     C66040  -1.400   2.460   2.594 -0.9356 -0.3731 -0.3659
  501MOL0     C66041  -1.490   2.585   2.622  0.1771  0.4808 -0.3860
  501MOL0     C66042  -1.638   2.547   2.580  0.4215  1.1937 -0.4368
  501MOL0     C66043  -1.686   2.653   2.488 -0.0089  0.5364 -0.0818
  501MOL0    Cl66044  -1.847   2.630   2.444 -0.1003  0.1716 -0.1294
  501MOL0     C66045  -0.690   2.665   3.013  0.9321  1.4324  0.9476
  501MOL0     C66046  -0.618   2.775   3.058 -0.8632  0.0031 -0.3625
  501MOL0     O66047  -0.674   2.979   3.380 -0.2897 -0.1541  0.2026
  501MOL0     C66048  -0.452   3.198   3.194 -1.1365 -0.2572 -0.0264
  501MOL0     C66049  -0.354   3.300   3.208 -0.7617 -0.6690 -0.2571
  501MOL0     N66050  -0.078   3.335   3.028  0.1279  0.1883  0.1683
  501MOL0     N66051  -0.102   3.377   2.909 -0.2978 -0.3216  0.1578
  501MOL0     C66052   0.954   3.764   2.316 -0.4259 -0.8450  0.4309
  501MOL0     C66053   1.088   3.731   2.302 -1.0688  0.9684 -0.3463
  501MOL0     C66054   1.485   3.580   2.194 -0.5006  0.0884 -0.4059
  501MOL0     C66055   1.601   3.626   2.138  0.3606 -0.5523  0.0611
  501MOL0     C66056   1.726   3.557   2.147  0.0173 -0.3592 -1.1082
  501MOL0     C66057   1.734   3.432   2.212  0.9057 -0.6292 -0.4033
  501MOL0     O66058   1.848   3.359   2.218 -0.1919  0.3833 -0.7736
  501MOL0     C66059   1.971   3.428   2.187  0.3469  0.4552  0.5713
  501MOL0     C66060   2.092   3.332   2.217  1.6110  0.1240  0.2965
  501MOL0     C66061   2.084   3.217   2.116  0.4602  0.6161 -0.0421
  501MOL0     C66062   2.207   3.128   2.123 -0.6235 -0.0698 -0.1490
  501MOL0     C66063   2.326   3.176   2.056  0.3970 -0.2459  0.3423
  501MOL0     C66064   2.428   3.208   2.010  0.4930 -0.6272 -0.8313
  501MOL0     C66065   1.616   3.382   2.271  0.3344 -0.9861  0.1415
  501MOL0     C66066   1.497   3.459   2.272  0.6024  0.3826 -0.0587
  501MOL0     H66067   1.025   3.457   2.097 -1.8738  0.5672  0.1100
  501MOL0     H66068   0.826   3.511   2.131  1.3057 -1.7988 -0.4092
  501MOL0     H66069   0.623   3.589   2.164  0.9827  0.1638  2.9709
  501MOL0     H66070   0.632   3.738   2.070 -0.5982 -1.1967 -0.8334
  501MOL0     H66071   0.414   3.707   2.145 -0.9478  2.2331  1.7746
  501MOL0     H66072   0.467   3.850   2.221  0.9507  0.4960  0.0349
  501MOL0     H66073   0.527   3.716   2.418 -0.0511 -1.7507  0.7929
  501MOL0     H66074   0.479   3.575   2.337  5.7074  1.7080 -1.7359
  501MOL0     H66075   0.295   3.802   2.407 -2.0875 -0.2458  0.8448
  501MOL0     H66076   0.230   3.657   2.324 -0.5096 -1.7714  1.2452
  501MOL0     H66077   0.323   3.667   2.622 -0.7897  0.6933  0.1206
  501MOL0     H66078   0.328   3.525   2.520  0.1992 -0.0682 -1.6000
  501MOL0     H66079   0.074   3.566   2.491  0.2345 -0.1377  0.9565
  501MOL0     H66080   0.090   3.726   2.571 -0.0304  1.4741  0.1448
  501MOL0     H66081   0.184   3.488   2.708  0.2330 -0.3312 -1.6211
  501MOL0     H66082   0.165   3.656   2.776  2.3923 -0.0933 -2.1767
  501MOL0     H66083  -0.061   3.479   2.681 -0.0130  0.4815 -1.4291
  501MOL0     H66084  -0.077   3.642   2.751  0.1715  0.3539 -3.0073
  501MOL0     H66085   0.125   3.594   3.007 -0.0099 -0.2271  0.1167
  501MOL0     H66086   0.202   3.357   3.197 -0.4377 -1.3925  1.7855
  501MOL0     H66087   0.056   3.281   3.249  1.6903  1.1326  3.5215
  501MOL0     H66088  -0.004   3.567   3.270 -1.3311  0.7932  3.2211
  501MOL0     H66089   0.163   3.553   3.318 -0.7474  1.8301 -1.7784
  501MOL0     H66090   0.101   3.413   3.508 -1.5698  1.8744  3.9003
  501MOL0     H66091  -0.002   3.549   3.507  3.7553 -0.8959  1.4005
  501MOL0     H66092  -0.118   3.360   3.558 -0.4488  1.0237  0.0353
  501MOL0     H66093  -0.091   3.259   3.427 -3.3079 -0.9365 -1.3373
  501MOL0     H66094  -0.327   3.278   3.551  3.3782 -1.4116 -0.4763
  501MOL0     H66095  -0.512   3.124   3.521  0.1392 -1.7396 -0.9600
  501MOL0     H66096  -0.885   2.940   3.186 -0.7472 -0.5747  0.6514
  501MOL0     H66097  -0.997   2.731   3.119  0.0743  1.1989 -0.6744
  501MOL0     H66098  -1.082   2.642   2.942 -2.8560 -1.4299  1.4160
  501MOL0     H66099  -1.093   2.480   2.988 -1.3978  1.6682 -0.6410
  501MOL0     H66100  -1.009   2.423   2.756  1.9229  1.7035  1.8000
  501MOL0     H66101  -1.016   2.599   2.725  0.0447  1.4987  1.2804
  501MOL0     H66102  -1.258   2.594   2.811 -0.6181 -0.4152  0.4547
  501MOL0     H66103  -1.248   2.427   2.836  3.2188 -0.2714  0.9070
  501MOL0     H66104  -1.228   2.584   2.560  0.0063  0.1208 -0.2263
  501MOL0     H66105  -1.195   2.412   2.575 -0.2990 -0.9321  0.4338
  501MOL0     H66106  -1.433   2.372   2.650  4.3834 -1.6892  1.3131
  501MOL0     H66107  -1.412   2.433   2.489 -1.7695 -2.2408  0.1753
  501MOL0     H66108  -1.456   2.677   2.574 -3.3306  0.5458 -3.1269
  501MOL0     H66109  -1.486   2.617   2.727  0.2898  0.4560 -0.3822
  501MOL0     H66110  -1.654   2.447   2.538 -0.5136  1.4598 -0.7227
  501MOL0     H66111  -1.701   2.553   2.669  1.5671  3.0843  0.3159
  501MOL0     H66112  -1.632   2.658   2.393 -0.3095  1.6840 -0.2008
  501MOL0     H66113  -1.679   2.741   2.553  3.2126 -1.6772  2.9957
  501MOL0     H66114  -0.627   2.589   2.968 -2.3055  0.3164 -2.1468
  501MOL0     H66115  -0.510   2.792   3.056 -1.2556  2.9489 -1.2441
  501MOL0     H66116  -0.479   3.176   3.091 -0.5582 -1.6933  0.1035
  501MOL0     H66117  -0.301   3.351   3.128  2.0230 -0.3305  1.6449
  501MOL0     H66118   0.928   3.850   2.377 -0.0681  0.0328 -0.6106
  501MOL0     H66119   1.162   3.803   2.337  0.4668 -1.1153  0.9593
  501MOL0     H66120   1.597   3.715   2.077 -1.2771 -1.8322 -1.8465
  501MOL0     H66121   1.810   3.603   2.097  1.4690 -0.0519  1.4222
  501MOL0     H66122   1.972   3.518   2.249 -0.8194  1.9089 -1.4011
  501MOL0     H66123   1.967   3.452   2.080  0.9298 -2.4094 -0.1729
  501MOL0     H66124   2.189   3.381   2.207  1.8497 -0.7204 -2.3283
  501MOL0     H66125   2.070   3.291   2.316 -0.8040 -0.2467 -0.3278
  501MOL0     H66126   2.088   3.251   2.012  2.7072  0.1937 -0.1265
  501MOL0     H66127   1.988   3.166   2.128  0.7713 -0.3418 -1.4408
  501MOL0     H66128   2.239   3.128   2.228 -0.5982  0.7515 -0.1538
  501MOL0     H66129   2.192   3.025   2.089  0.5074 -0.6671  1.0555
  501MOL0     H66130   2.529   3.219   1.976  0.6242 -1.5082 -0.7438
  501MOL0     H66131   1.610   3.291   2.328 -1.4922 -0.0437  1.5621
  501MOL0     H66132   1.411   3.415   2.321 -0.0442 -1.0091 -2.2928
  502MOL0     O66133   7.806   7.107   1.317  0.9583  0.4553 -0.3749
  502MOL0     C66134   7.848   7.026   1.399  0.5846 -0.0952  0.0152
  502MOL0     O66135   7.774   6.966   1.499  0.1951 -0.1271 -0.1437
  502MOL0     C66136   7.638   6.989   1.492  0.0814  0.1350 -0.4972
  502MOL0     C66137   7.562   6.903   1.416 -0.9431 -0.8407 -0.3476
  502MOL0     C66138   7.430   6.925   1.387  1.3977 -0.4221  0.6196
  502MOL0     C66139   7.365   7.036   1.445 -0.0703  0.0730  1.3289
  502MOL0     O66140   7.235   7.069   1.414 -0.3300 -0.3186 -0.2275
  502MOL0     C66141   7.179   7.017   1.293  0.0369  1.3263  0.1513
  502MOL0     C66142   7.036   7.059   1.272 -0.1674 -0.4242  0.3687
  502MOL0     C66143   6.937   6.971   1.344 -0.0400  0.2952 -1.0397
  502MOL0     C66144   6.791   7.021   1.325 -0.8119  0.0233  0.3977
  502MOL0     C66145   6.749   7.098   1.446 -0.6579 -0.3793  0.3319
  502MOL0     C66146   6.611   7.150   1.426  0.1792 -0.0330  0.9878
  502MOL0     C66147   6.577   7.264   1.523  0.1080  0.0450 -0.3030
  502MOL0     C66148   6.498   7.366   1.447  0.6469 -0.6667 -0.0258
  502MOL0     N66149   6.436   7.465   1.545  0.0976  0.2033 -0.6289
  502MOL0     C66150   6.496   7.582   1.589  0.1967  0.3375 -0.9857
  502MOL0     C66151   6.421   7.631   1.689  0.0711  0.8361  0.5751
  502MOL0     C66152   6.455   7.755   1.771  0.0328  0.0179 -0.3381
  502MOL0     C66153   6.602   7.805   1.767 -0.9814  0.6375  0.1203
  502MOL0     C66154   6.695   7.698   1.834 -0.0525  0.0848  0.1607
  502MOL0     C66155   6.838   7.747   1.858  0.6666 -0.7302 -0.3300
  502MOL0     O66156   6.922   7.634   1.896 -0.2187 -0.0678 -0.8994
  502MOL0     C66157   7.054   7.656   1.949  1.1427 -0.2538 -0.4634
  502MOL0     C66158   7.128   7.550   1.999  1.1798  0.3028 -1.0210
  502MOL0     C66159   7.258   7.567   2.043  0.6326 -0.2767 -0.3893
  502MOL0     C66160   7.316   7.695   2.046  0.1459  0.1414  0.4435
  502MOL0     C66161   7.453   7.716   2.091 -0.0207  0.6973  0.3635
  502MOL0     O66162   7.522   7.603   2.145 -0.5221  1.0999  0.4019
  502MOL0     C66163   7.656   7.602   2.184 -0.9099 -0.5006 -0.4999
  502MOL0     C66164   7.694   7.546   2.302 -0.3236  0.2040  0.6551
  502MOL0     C66165   7.825   7.549   2.348 -0.4820 -0.3350  0.8847
  502MOL0     C66166   7.919   7.625   2.276  0.6831 -0.3592 -0.0276
  502MOL0     O66167   8.048   7.622   2.320 -1.4736 -0.5295  0.5489
  502MOL0     C66168   8.139   7.707   2.244 -0.5642 -0.5793 -0.8159
  502MOL0     C66169   8.259   7.744   2.330  0.0742  0.0728  0.2091
  502MOL0     C66170   8.206   7.844   2.437 -0.6680  0.3751 -0.2469
  502MOL0     C66171   8.311   7.862   2.554  0.9610 -0.3571 -0.0855
  502MOL0     C66172   8.433   7.945   2.511 -1.0046  0.1982 -0.4462
  502MOL0     C66173   8.526   7.960   2.627 -0.1440 -0.2855  0.5821
  502MOL0     C66174   8.655   8.037   2.579 -0.1239  0.6082 -0.1263
  502MOL0     C66175   8.785   7.995   2.651  0.2856 -1.2448  0.2481
  502MOL0    Cl66176   8.927   8.087   2.579  0.2409 -0.3521 -0.1765
  502MOL0     C66177   7.875   7.679   2.151  0.4712  0.3993 -0.1367
  502MOL0     C66178   7.745   7.675   2.112 -0.7117  0.1169  0.1207
  502MOL0     O66179   7.505   7.824   2.083 -0.1451  0.2779 -0.3449
  502MOL0     C66180   7.239   7.802   2.002 -0.4716 -0.5930  0.6184
  502MOL0     C66181   7.109   7.789   1.953 -0.0199  0.2023 -0.1973
  502MOL0     N66182   6.316   7.544   1.708 -0.3186 -0.2619 -0.1731
  502MOL0     N66183   6.324   7.451   1.621  0.7113 -0.9593  0.0016
  502MOL0     C66184   7.439   7.113   1.536  0.2579 -0.7473 -0.5938
  502MOL0     C66185   7.576   7.094   1.554 -0.1465 -0.2822  0.8394
  502MOL0     C66186   7.999   7.006   1.397  0.1953 -1.3517 -0.6125
  502MOL0     C66187   8.055   6.882   1.424  0.8529 -0.3488  1.4018
  502MOL0     C66188   8.191   6.867   1.409  0.2847 -0.6951 -0.7250
  502MOL0     C66189   8.270   6.965   1.363 -1.7184 -0.1331 -0.0586
  502MOL0     O66190   8.404   6.930   1.351 -0.1905 -0.2258 -0.2132
  502MOL0     C66191   8.497   7.036   1.335  0.4426 -0.6024  0.3298
  502MOL0     C66192   8.630   6.970   1.303  0.2485  0.1443  0.7901
  502MOL0     C66193   8.746   7.072   1.304 -0.5837  0.7362  0.2909
  502MOL0     C66194   8.842   7.023   1.192 -0.9217  0.4742  0.0123
  502MOL0     C66195   8.906   6.894   1.210  0.2087  0.3983  0.8772
  502MOL0     C66196   8.948   6.779   1.199  0.0739 -0.6874 -0.5411
  502MOL0     C66197   8.211   7.095   1.344  0.0631  0.5387 -0.4210
  502MOL0     C66198   8.079   7.113   1.364 -0.4270 -0.1251  0.4819
  502MOL0     H66199   7.616   6.819   1.374  1.9961 -0.0424  1.6138
  502MOL0     H66200   7.375   6.848   1.333 -1.4924  1.3502  0.8690
  502MOL0     H66201   7.186   6.907   1.293 -1.5474  1.1744 -1.5320
  502MOL0     H66202   7.233   7.050   1.204 -0.7528  2.2717  0.0060
  502MOL0     H66203   7.016   7.059   1.165 -0.2240 -0.3087  0.3786
  502MOL0     H66204   7.016   7.157   1.316  2.7760  0.2254  0.5104
  502MOL0     H66205   6.961   6.966   1.451 -2.7051 -1.5448 -0.4243
  502MOL0     H66206   6.950   6.873   1.300 -0.8806 -0.8214  1.0357
  502MOL0     H66207   6.793   7.086   1.237  0.3346  1.4432  1.4083
  502MOL0     H66208   6.721   6.939   1.307  0.5551 -0.5314 -3.0068
  502MOL0     H66209   6.824   7.177   1.443 -1.1433  0.0985 -2.8276
  502MOL0     H66210   6.757   7.041   1.539  3.3064 -0.8652 -0.1338
  502MOL0     H66211   6.533   7.074   1.441 -0.1161  0.2205  0.7638
  502MOL0     H66212   6.616   7.198   1.328  5.5774  1.1691  1.5546
  502MOL0     H66213   6.524   7.239   1.615  2.3412 -2.7378  0.3882
  502MOL0     H66214   6.670   7.315   1.553 -0.9758  1.3028  1.0632
  502MOL0     H66215   6.419   7.313   1.392  0.3269 -1.0705  0.7927
  502MOL0     H66216   6.559   7.421   1.376  2.9750 -1.1083  1.5095
  502MOL0     H66217   6.593   7.621   1.560  1.2685  0.5717  2.4375
  502MOL0     H66218   6.441   7.728   1.876  2.7536  2.2557  0.7225
  502MOL0     H66219   6.382   7.829   1.736 -2.6474 -2.0222  0.5434
  502MOL0     H66220   6.602   7.895   1.830 -0.5354  1.3265 -0.8235
  502MOL0     H66221   6.628   7.840   1.666 -0.4463  0.6403  0.2583
  502MOL0     H66222   6.662   7.664   1.932  1.3664 -0.1610  0.5875
  502MOL0     H66223   6.697   7.609   1.770 -0.5078 -0.4119  0.8298
  502MOL0     H66224   6.837   7.827   1.933  0.6202  0.1511 -1.2512
  502MOL0     H66225   6.887   7.797   1.774  1.0787  2.8457  1.8059
  502MOL0     H66226   7.089   7.449   2.001  0.7868  0.4447  1.2676
  502MOL0     H66227   7.312   7.474   2.055 -0.1754 -0.5395  1.7087
  502MOL0     H66228   7.614   7.490   2.350  0.1888 -1.3636 -0.2607
  502MOL0     H66229   7.855   7.495   2.438 -3.1505 -1.9255  0.9074
  502MOL0     H66230   8.094   7.804   2.221 -2.0818 -1.3831 -1.3401
  502MOL0     H66231   8.167   7.658   2.150 -0.7766  0.7930 -1.6165
  502MOL0     H66232   8.336   7.793   2.270  0.3113 -2.0108 -1.2788
  502MOL0     H66233   8.293   7.647   2.368  0.2559 -0.5348 -1.4312
  502MOL0     H66234   8.109   7.809   2.473  0.1799 -1.0054  0.8350
  502MOL0     H66235   8.177   7.937   2.389  2.3196  1.0945 -0.8589
  502MOL0     H66236   8.272   7.918   2.640 -0.6057 -0.4300 -0.7152
  502MOL0     H66237   8.342   7.766   2.595  3.1287 -0.5903 -2.0844
  502MOL0     H66238   8.415   8.052   2.497  1.5900  1.3584  3.5083
  502MOL0     H66239   8.490   7.890   2.435  1.5300  0.3217  1.2322
  502MOL0     H66240   8.561   7.864   2.666  0.6857 -1.0295 -1.7933
  502MOL0     H66241   8.480   8.019   2.707 -1.4599 -1.2453  0.5578
  502MOL0     H66242   8.676   8.022   2.473  1.2415  0.5793  0.1302
  502MOL0     H66243   8.638   8.145   2.590  0.5265  0.9535 -2.1645
  502MOL0     H66244   8.798   7.888   2.632 -1.4335 -2.0668  3.0951
  502MOL0     H66245   8.776   8.011   2.759  0.3316 -0.0258  0.0881
  502MOL0     H66246   7.944   7.747   2.102  0.4976  1.3686  1.1679
  502MOL0     H66247   7.714   7.735   2.027  1.0825  1.0444  0.0736
  502MOL0     H66248   7.289   7.899   2.008 -0.1359 -0.6846 -0.4810
  502MOL0     H66249   7.065   7.878   1.908 -0.7316 -0.8873 -1.7525
  502MOL0     H66250   7.386   7.193   1.587 -0.7852 -2.3780  1.0177
  502MOL0     H66251   7.633   7.163   1.615 -3.1990  0.1521  3.5075
  502MOL0     H66252   7.989   6.805   1.463  1.3096  0.2028  3.3813
  502MOL0     H66253   8.242   6.777   1.444  3.2955  0.7408 -1.1231
  502MOL0     H66254   8.512   7.097   1.424  1.9551  2.8710 -2.1041
  502MOL0     H66255   8.469   7.102   1.253 -1.1836 -2.2803 -0.5465
  502MOL0     H66256   8.647   6.887   1.372  1.4015 -3.4250 -3.3562
  502MOL0     H66257   8.622   6.923   1.204  2.3317 -3.0900  2.0001
  502MOL0     H66258   8.789   7.083   1.404 -0.8174 -0.4654  0.5394
  502MOL0     H66259   8.708   7.173   1.284  0.7100  1.0777 -0.5883
  502MOL0     H66260   8.796   7.015   1.093 -0.3471 -2.5748 -0.0975
  502MOL0     H66261   8.918   7.101   1.180  0.5363 -1.2618 -3.5188
  502MOL0     H66262   8.987   6.683   1.171  1.6006  0.4335 -2.5864
  502MOL0     H66263   8.272   7.181   1.320 -0.5086  1.1321  0.2138
  502MOL0     H66264   8.032   7.208   1.342  3.1922  1.7906  0.3651
  503MOL0     O66265   1.627   8.019   3.382  0.2687 -0.2743  0.9708
  503MOL0     C66266   1.708   7.952   3.319  0.0998 -0.1915 -0.2352
  503MOL0     O66267   1.680   7.834   3.255 -0.4338 -0.1433 -0.6756
  503MOL0     C66268   1.546   7.792   3.253 -0.7233 -0.0179  0.6935
  503MOL0     C66269   1.488   7.761   3.130 -0.3632 -0.4847  0.4046
  503MOL0     C66270   1.363   7.719   3.121  0.0711 -0.1227 -0.4084
  503MOL0     C66271   1.286   7.687   3.232 -0.0516  0.4693 -0.1671
  503MOL0     O66272   1.167   7.622   3.217  0.2474 -0.3702  0.1645
  503MOL0     C66273   1.084   7.580   3.330 -0.3047  1.1321 -0.9486
  503MOL0     C66274   0.944   7.556   3.271 -0.3940 -1.4484  0.6077
  503MOL0     C66275   0.919   7.431   3.190  0.1885 -0.6722 -0.2177
  503MOL0     C66276   0.775   7.415   3.163 -0.3339  0.9699  0.5251
  503MOL0     C66277   0.750   7.299   3.071  0.6695  0.0579 -0.8278
  503MOL0     C66278   0.604   7.305   3.025 -0.0165  0.0125 -1.3165
  503MOL0     C66279   0.551   7.169   3.007  0.3011  0.1645  0.2596
  503MOL0     C66280   0.397   7.171   3.000  0.7883 -0.0762  0.0588
  503MOL0     N66281   0.345   7.270   2.907  0.1599  0.4345 -0.4634
  503MOL0     C66282   0.314   7.239   2.781 -0.2997  0.7010 -1.1883
  503MOL0     C66283   0.246   7.348   2.741  1.0658  0.0608 -0.2097
  503MOL0     C66284   0.176   7.338   2.608  0.1721 -0.0739 -0.3070
  503MOL0     C66285   0.063   7.235   2.622  0.2409 -0.2875  0.4793
  503MOL0     C66286  -0.006   7.218   2.484  0.6109  0.4899  0.0673
  503MOL0     C66287  -0.162   7.238   2.477 -0.3913 -0.0281  0.4149
  503MOL0     O66288  -0.209   7.236   2.342 -0.8580  0.0420 -0.9796
  503MOL0     C66289  -0.344   7.260   2.312  0.2583 -0.3904 -0.0703
  503MOL0     C66290  -0.445   7.321   2.397 -0.3655 -0.1856 -0.3813
  503MOL0     C66291  -0.577   7.315   2.349 -0.6591 -0.7221 -0.0582
  503MOL0     C66292  -0.608   7.261   2.224 -0.1464 -0.1313 -0.2590
  503MOL0     C66293  -0.750   7.257   2.179  0.0846 -0.9952  0.5856
  503MOL0     O66294  -0.782   7.177   2.076  0.5356 -0.7389 -0.2287
  503MOL0     C66295  -0.913   7.162   2.029 -0.2767  0.1747 -0.7112
  503MOL0     C66296  -0.936   7.053   1.958  0.3638  0.0062  0.8749
  503MOL0     C66297  -1.060   7.025   1.897 -0.7387  0.6814  0.8575
  503MOL0     C66298  -1.157   7.123   1.908 -0.0100 -0.5437 -0.2272
  503MOL0     O66299  -1.280   7.123   1.846 -0.1063 -0.0037 -0.7672
  503MOL0     C66300  -1.309   7.003   1.765 -0.0234  0.2817  0.3786
  503MOL0     C66301  -1.449   7.028   1.697 -0.5158 -0.4585  0.0555
  503MOL0     C66302  -1.526   6.906   1.659  1.1491  0.5576  0.5065
  503MOL0     C66303  -1.586   6.833   1.778  0.4055  0.5171 -0.2974
  503MOL0     C66304  -1.664   6.714   1.731 -0.0119 -0.1848  0.2038
  503MOL0     C66305  -1.719   6.631   1.851  0.7924  0.0115  0.0020
  503MOL0     C66306  -1.811   6.518   1.800  1.2230  0.9281  0.2885
  503MOL0     C66307  -1.842   6.411   1.903 -0.2588  0.0865  0.1254
  503MOL0    Cl66308  -1.935   6.289   1.818 -0.1350 -0.0362 -0.2598
  503MOL0     C66309  -1.137   7.234   1.986  0.0893 -0.1251 -0.1832
  503MOL0     C66310  -1.016   7.257   2.040  0.3682 -0.6960  0.2562
  503MOL0     O66311  -0.829   7.317   2.250  0.4305  0.6121 -0.4181
  503MOL0     C66312  -0.509   7.209   2.141 -0.0235 -0.2146  1.2042
  503MOL0     C66313  -0.380   7.202   2.190 -0.5850 -0.0540 -0.1430
  503MOL0     N66314   0.234   7.436   2.843 -0.0406 -0.0809  0.5967
  503MOL0     N66315   0.298   7.393   2.933  0.0226 -0.1130 -0.0008
  503MOL0     C66316   1.356   7.706   3.361  0.4813 -0.4374 -0.2071
  503MOL0     C66317   1.481   7.762   3.376 -0.7431  0.2179  0.3825
  503MOL0     C66318   1.850   7.988   3.306  0.5650  0.4428 -0.1550
  503MOL0     C66319   1.939   7.918   3.225  0.0830 -0.3942 -0.3344
  503MOL0     C66320   2.069   7.960   3.210  0.2469 -0.6352  0.5763
  503MOL0     C66321   2.114   8.075   3.272  0.5215  0.1801 -0.7833
  503MOL0     O66322   2.244   8.115   3.242  0.4058  0.2830  0.1433
  503MOL0     C66323   2.328   8.139   3.354 -0.2613 -0.0506  0.6889
  503MOL0     C66324   2.468   8.191   3.312  0.0816  0.9573 -0.7030
  503MOL0     C66325   2.482   8.342   3.313  0.6275  0.0767  0.0362
  503MOL0     C66326   2.621   8.399   3.281  0.8591  0.0467 -0.4690
  503MOL0     C66327   2.654   8.384   3.139 -0.8881 -0.0811  0.2461
  503MOL0     C66328   2.672   8.385   3.014 -0.3569  0.4475  0.0913
  503MOL0     C66329   2.018   8.149   3.342  0.2717  0.4262  1.8946
  503MOL0     C66330   1.888   8.107   3.374  1.1541  0.6741 -0.0606
  503MOL0     H66331   1.551   7.772   3.042 -1.7474 -5.5430 -1.6033
  503MOL0     H66332   1.315   7.694   3.027 -0.8719 -0.8582  0.2355
  503MOL0     H66333   1.094   7.645   3.418 -1.9906  0.5366 -0.2851
  503MOL0     H66334   1.112   7.482   3.372 -1.2290  1.9012  1.6348
  503MOL0     H66335   0.913   7.644   3.214  0.0714  0.4581  3.1223
  503MOL0     H66336   0.882   7.547   3.361 -2.6433  0.8852 -0.5706
  503MOL0     H66337   0.961   7.344   3.242  0.2151 -0.1858  0.5782
  503MOL0     H66338   0.971   7.448   3.095 -1.5470 -1.7215 -1.4195
  503MOL0     H66339   0.726   7.389   3.257  2.2045 -0.2291  1.6261
  503MOL0     H66340   0.733   7.502   3.112 -1.8032 -1.0394 -1.9755
  503MOL0     H66341   0.765   7.210   3.131 -1.6825 -1.1897 -1.9459
  503MOL0     H66342   0.820   7.300   2.986 -1.6848  1.3295 -2.9221
  503MOL0     H66343   0.584   7.378   2.945 -3.1604  0.1860 -0.5011
  503MOL0     H66344   0.539   7.347   3.102 -1.1706 -0.1487 -2.1685
  503MOL0     H66345   0.594   7.131   2.914 -3.3134  1.4498 -2.1678
  503MOL0     H66346   0.580   7.106   3.091  0.0037  0.4319  0.5664
  503MOL0     H66347   0.358   7.192   3.100 -0.4890  0.5492 -0.5475
  503MOL0     H66348   0.367   7.067   2.985 -0.6153 -0.8505  5.7466
  503MOL0     H66349   0.331   7.143   2.733 -3.2583 -1.3030  1.3562
  503MOL0     H66350   0.250   7.309   2.533  0.5557 -0.6204  0.2685
  503MOL0     H66351   0.133   7.432   2.573  0.5322  0.5189  0.8012
  503MOL0     H66352  -0.006   7.268   2.700 -1.7205  0.1056 -1.3275
  503MOL0     H66353   0.112   7.144   2.658  0.8388  0.3786  1.4046
  503MOL0     H66354   0.039   7.301   2.428  0.5843  0.6080  0.2215
  503MOL0     H66355   0.015   7.117   2.448 -2.0307 -0.2724  0.4605
  503MOL0     H66356  -0.182   7.330   2.532  0.7293 -0.1765  1.0904
  503MOL0     H66357  -0.205   7.158   2.539 -0.8449  0.9681  1.4151
  503MOL0     H66358  -0.439   7.374   2.492 -2.5895  3.0627 -1.8396
  503MOL0     H66359  -0.651   7.360   2.415  0.3864  0.9333  0.0354
  503MOL0     H66360  -0.846   7.000   1.930  0.8087  1.8295 -1.4858
  503MOL0     H66361  -1.060   6.943   1.826  0.6627  1.1960  0.2173
  503MOL0     H66362  -1.305   6.919   1.836  0.5245 -0.3822 -0.4217
  503MOL0     H66363  -1.241   6.984   1.682  0.6041  4.1438 -0.1677
  503MOL0     H66364  -1.424   7.085   1.607 -3.5640  2.7976  1.0761
  503MOL0     H66365  -1.514   7.102   1.744  1.5255  1.7092 -0.3433
  503MOL0     H66366  -1.466   6.836   1.600 -1.5741 -2.4097  1.0010
  503MOL0     H66367  -1.605   6.942   1.592  1.7536  0.9202 -0.0247
  503MOL0     H66368  -1.508   6.798   1.847  1.3702 -1.8124 -2.4224
  503MOL0     H66369  -1.661   6.893   1.830 -1.8830 -2.3988  0.0642
  503MOL0     H66370  -1.608   6.651   1.661 -1.2512 -0.2448 -0.7874
  503MOL0     H66371  -1.753   6.741   1.672  0.1545  1.7954  0.8015
  503MOL0     H66372  -1.784   6.692   1.914  0.9337 -1.2264  1.3882
  503MOL0     H66373  -1.641   6.596   1.918  0.2678 -1.7365 -0.2551
  503MOL0     H66374  -1.906   6.571   1.790  1.8195  1.6588 -2.2941
  503MOL0     H66375  -1.777   6.482   1.703 -2.7437  1.0145 -1.3325
  503MOL0     H66376  -1.903   6.452   1.984 -2.2465 -2.4548  0.0324
  503MOL0     H66377  -1.762   6.359   1.955 -1.2292 -0.4302  1.1413
  503MOL0     H66378  -1.218   7.303   2.009  0.6242 -0.5957  3.6379
  503MOL0     H66379  -1.018   7.356   2.086 -1.3650  0.5847 -2.3819
  503MOL0     H66380  -0.528   7.149   2.053  0.9559  0.3622  0.5794
  503MOL0     H66381  -0.311   7.150   2.124  0.4489  3.3422 -1.9867
  503MOL0     H66382   1.316   7.665   3.454 -1.6898  0.4481 -0.6813
  503MOL0     H66383   1.539   7.762   3.468  0.1307 -2.5409 -0.0881
  503MOL0     H66384   1.911   7.837   3.158  0.3531  0.1740 -1.1519
  503MOL0     H66385   2.124   7.916   3.127 -4.1868 -0.3404 -2.9324
  503MOL0     H66386   2.337   8.044   3.407 -0.7005 -1.3638 -1.4795
  503MOL0     H66387   2.283   8.221   3.411  1.8781  0.8196  1.2333
  503MOL0     H66388   2.536   8.138   3.379 -2.2423 -1.9404 -0.4286
  503MOL0     H66389   2.490   8.147   3.214  0.2384 -1.6654  0.4382
  503MOL0     H66390   2.461   8.384   3.411 -0.7783  0.6529 -0.4921
  503MOL0     H66391   2.415   8.390   3.242  1.0035  0.1818 -0.2562
  503MOL0     H66392   2.616   8.505   3.311  0.4945 -0.2636  0.6155
  503MOL0     H66393   2.691   8.354   3.352  0.5764  1.9509  1.1106
  503MOL0     H66394   2.692   8.370   2.910 -1.4823  0.2238 -0.0983
  503MOL0     H66395   2.049   8.244   3.385  1.1188  1.1169 -0.1263
  503MOL0     H66396   1.815   8.159   3.436  1.0046  1.5372 -0.9475
  504MOL0     O66397   2.936   6.964   1.419 -0.4507  0.3548  0.4899
  504MOL0     C66398   2.999   7.029   1.341 -0.5589 -0.9992  0.0591
  504MOL0     O66399   2.949   7.134   1.261  0.3746  0.4758 -0.1871
  504MOL0     C66400   2.825   7.192   1.295 -0.4600 -0.8959  0.1120
  504MOL0     C66401   2.718   7.149   1.216  0.2109 -0.4104  0.2208
  504MOL0     C66402   2.589   7.186   1.238 -0.5284  0.6489 -0.0665
  504MOL0     C66403   2.561   7.268   1.346 -0.1392  0.3204  0.3327
  504MOL0     O66404   2.426   7.294   1.355  0.5496  0.3520 -0.1607
  504MOL0     C66405   2.388   7.414   1.436 -0.4216 -0.0387 -0.5028
  504MOL0     C66406   2.250   7.447   1.386  0.8571 -0.1078 -0.4446
  504MOL0     C66407   2.146   7.326   1.404 -0.2115 -0.1047 -0.0882
  504MOL0     C66408   2.007   7.384   1.362 -0.1701  0.2658 -0.5547
  504MOL0     C66409   1.890   7.332   1.443  0.1070  0.4315 -0.2121
  504MOL0     C66410   1.765   7.426   1.414  0.4889 -0.5832  0.1908
  504MOL0     C66411   1.623   7.380   1.445 -0.1200  0.0912 -0.0297
  504MOL0     C66412   1.612   7.230   1.391  0.7915  0.7033  1.0312
  504MOL0     N66413   1.466   7.186   1.396 -0.0099  0.6307  0.8009
  504MOL0     C66414   1.367   7.272   1.428  0.8939 -1.0313 -0.2608
  504MOL0     C66415   1.259   7.190   1.415  0.3632 -0.2012 -1.1692
  504MOL0     C66416   1.120   7.232   1.430  0.2995 -0.4486 -0.6158
  504MOL0     C66417   1.066   7.321   1.310 -0.1864  0.2151 -0.1249
  504MOL0     C66418   0.939   7.397   1.336  0.0435  0.0949  0.5655
  504MOL0     C66419   0.824   7.303   1.335  0.6085 -1.2724 -1.0662
  504MOL0     O66420   0.801   7.250   1.204  0.1989  0.3574  0.0139
  504MOL0     C66421   0.670   7.241   1.174 -0.1372 -0.8594 -0.5794
  504MOL0     C66422   0.601   7.118   1.193 -0.3263 -0.5342 -0.1027
  504MOL0     C66423   0.458   7.117   1.198 -0.4743 -1.2613  0.0561
  504MOL0     C66424   0.379   7.233   1.175  1.1159  0.4784  0.1902
  504MOL0     C66425   0.228   7.216   1.173  0.2082 -0.9356 -0.8358
  504MOL0     O66426   0.175   7.100   1.221  0.0356  0.3319 -0.0687
  504MOL0     C66427   0.041   7.092   1.249 -0.2890 -0.0150 -0.6118
  504MOL0     C66428  -0.028   6.980   1.212  0.8732  0.0072  1.0901
  504MOL0     C66429  -0.169   6.978   1.233  0.1379 -0.5138  0.0681
  504MOL0     C66430  -0.232   7.096   1.284  0.5259  0.5501 -0.0271
  504MOL0     O66431  -0.373   7.099   1.287  0.3133 -0.7728  0.7883
  504MOL0     C66432  -0.434   7.070   1.409 -0.7591  0.0429  0.1921
  504MOL0     C66433  -0.459   6.914   1.437  0.6783 -0.1235 -0.3502
  504MOL0     C66434  -0.528   6.851   1.320 -0.4110  0.7257  0.0930
  504MOL0     C66435  -0.612   6.736   1.359 -0.0628  0.1860  0.0393
  504MOL0     C66436  -0.740   6.779   1.437 -0.3052  0.0063 -0.9611
  504MOL0     C66437  -0.824   6.656   1.471  0.4166 -0.0253 -0.8715
  504MOL0     C66438  -0.924   6.682   1.589  0.1365  0.6009 -0.4138
  504MOL0     C66439  -1.025   6.568   1.593  0.3133 -0.1048 -0.5337
  504MOL0    Cl66440  -1.136   6.605   1.726  0.1305 -0.5178 -0.3560
  504MOL0     C66441  -0.156   7.199   1.332  0.2853  0.7469  0.1751
  504MOL0     C66442  -0.022   7.208   1.306  0.2931  0.5792  0.4114
  504MOL0     O66443   0.166   7.307   1.123  0.6734  0.1592  0.0063
  504MOL0     C66444   0.448   7.351   1.155  0.4042 -0.3269 -0.3156
  504MOL0     C66445   0.587   7.359   1.166  0.2226  0.5097 -0.3290
  504MOL0     N66446   1.297   7.061   1.405 -0.1101  0.4599  0.2525
  504MOL0     N66447   1.425   7.057   1.399  0.1209 -0.6347  0.3323
  504MOL0     C66448   2.663   7.305   1.433  0.5322  0.0705  0.0884
  504MOL0     C66449   2.801   7.275   1.402 -0.3939  0.5701 -0.7359
  504MOL0     C66450   3.139   6.988   1.301  0.8580  0.3580  0.1124
  504MOL0     C66451   3.213   7.048   1.195  0.0859 -0.7964  0.7918
  504MOL0     C66452   3.336   6.997   1.150 -0.3985 -0.7334 -0.4677
  504MOL0     C66453   3.399   6.896   1.222 -0.2736  1.2460  0.6090
  504MOL0     O66454   3.512   6.835   1.183 -0.3511 -0.4915  0.3074
  504MOL0     C66455   3.488   6.719   1.109 -0.4765  0.8825  0.1890
  504MOL0     C66456   3.545   6.598   1.184 -0.4222  0.5031  0.0890
  504MOL0     C66457   3.693   6.582   1.163  0.0653 -0.6954 -0.4581
  504MOL0     C66458   3.754   6.488   1.270 -0.6995  0.5157 -0.6008
  504MOL0     C66459   3.895   6.457   1.252 -0.2770 -0.4969  1.0016
  504MOL0     C66460   4.013   6.420   1.252 -0.4007 -0.6881  0.2953
  504MOL0     C66461   3.330   6.841   1.330  0.0161  0.0185  0.7574
  504MOL0     C66462   3.201   6.883   1.366 -0.2526  1.3569 -0.0858
  504MOL0     H66463   2.745   7.074   1.143  0.1457 -2.2259  1.9727
  504MOL0     H66464   2.508   7.166   1.169  0.5018  3.3755 -2.2737
  504MOL0     H66465   2.445   7.503   1.405  2.2539 -0.7771  1.8277
  504MOL0     H66466   2.405   7.403   1.543  2.5508  3.0680 -0.4838
  504MOL0     H66467   2.252   7.489   1.285  2.1809  1.8424  0.3294
  504MOL0     H66468   2.215   7.537   1.438 -1.3855 -0.8148 -0.6304
  504MOL0     H66469   2.142   7.300   1.510  2.1789  2.0274  0.6400
  504MOL0     H66470   2.174   7.242   1.339 -0.8390 -0.6005  0.2727
  504MOL0     H66471   2.011   7.489   1.389  1.6366  0.0043  0.3610
  504MOL0     H66472   1.991   7.363   1.256  3.9443 -7.1823 -0.4129
  504MOL0     H66473   1.921   7.337   1.547  2.5575 -0.6475 -0.8239
  504MOL0     H66474   1.885   7.227   1.412  2.0760  0.5098 -0.9516
  504MOL0     H66475   1.772   7.465   1.312  3.7308 -0.0050  0.5327
  504MOL0     H66476   1.777   7.517   1.473  0.1945  0.1388 -0.8251
  504MOL0     H66477   1.605   7.384   1.552 -0.0378  0.0266 -0.0138
  504MOL0     H66478   1.549   7.448   1.399 -1.6933 -2.2710 -1.2158
  504MOL0     H66479   1.668   7.163   1.457  3.0642  0.6776 -0.8062
  504MOL0     H66480   1.658   7.216   1.293 -0.8800 -0.3071  0.3506
  504MOL0     H66481   1.369   7.380   1.435  2.1690 -1.1154  1.7296
  504MOL0     H66482   1.110   7.291   1.522  2.1464  0.1465 -0.7626
  504MOL0     H66483   1.065   7.139   1.446 -0.4081  0.2001  0.9500
  504MOL0     H66484   1.049   7.248   1.230 -1.0202 -0.4255  0.6164
  504MOL0     H66485   1.147   7.392   1.286 -0.3199  1.0112  1.6787
  504MOL0     H66486   0.938   7.449   1.432 -1.1114 -3.2030  2.4955
  504MOL0     H66487   0.936   7.456   1.244  1.3795 -0.6030  0.0385
  504MOL0     H66488   0.730   7.350   1.365  2.2448  0.9585  0.8928
  504MOL0     H66489   0.839   7.208   1.387  2.2003 -0.9387 -0.8777
  504MOL0     H66490   0.665   7.034   1.217  1.9596  1.3748  0.9115
  504MOL0     H66491   0.405   7.023   1.207 -0.6153 -1.1183  0.7686
  504MOL0     H66492   0.027   6.898   1.165  1.2987  1.1176 -0.4405
  504MOL0     H66493  -0.226   6.891   1.204  0.7938 -0.8773 -0.1579
  504MOL0     H66494  -0.529   7.123   1.402 -1.6702 -1.2087  2.1608
  504MOL0     H66495  -0.364   7.098   1.489 -1.6002  2.1079  0.2831
  504MOL0     H66496  -0.511   6.909   1.533  3.0484 -1.4080  0.9513
  504MOL0     H66497  -0.365   6.859   1.448  0.3733 -0.1949  2.8104
  504MOL0     H66498  -0.453   6.824   1.246  0.5493  1.0404  0.9311
  504MOL0     H66499  -0.583   6.927   1.262  2.8754  2.4776 -0.9819
  504MOL0     H66500  -0.644   6.682   1.269  2.2468  0.9957 -1.3526
  504MOL0     H66501  -0.548   6.673   1.422  0.0021 -0.9884 -1.1456
  504MOL0     H66502  -0.797   6.847   1.373  0.9770  0.7617 -1.3342
  504MOL0     H66503  -0.710   6.827   1.531  1.7036  0.1249 -1.6160
  504MOL0     H66504  -0.762   6.569   1.495 -0.9329 -0.9440 -0.6288
  504MOL0     H66505  -0.880   6.615   1.386  4.1300 -0.2810 -3.4255
  504MOL0     H66506  -0.851   6.683   1.671  0.9051 -0.2188 -1.0726
  504MOL0     H66507  -0.970   6.781   1.586 -2.6152 -0.5338  1.1880
  504MOL0     H66508  -0.980   6.468   1.593 -1.8147 -1.1353 -1.6957
  504MOL0     H66509  -1.081   6.565   1.499 -0.9519 -3.2447  0.1847
  504MOL0     H66510  -0.202   7.285   1.379 -0.3492 -1.1161  3.2057
  504MOL0     H66511   0.039   7.291   1.341 -1.1473  1.5580  0.6650
  504MOL0     H66512   0.382   7.437   1.145  0.9203 -0.0325 -1.3763
  504MOL0     H66513   0.622   7.462   1.169 -0.2172  0.6448  2.2799
  504MOL0     H66514   2.634   7.371   1.514  1.9149 -1.4018  1.8776
  504MOL0     H66515   2.890   7.307   1.456  0.5136 -1.1590 -1.1195
  504MOL0     H66516   3.165   7.135   1.152  1.4951  0.0311  0.8068
  504MOL0     H66517   3.388   7.032   1.061 -1.6498 -0.0212 -0.9511
  504MOL0     H66518   3.540   6.714   1.013  1.5755  0.9803  1.2358
  504MOL0     H66519   3.381   6.696   1.102  0.0973 -1.5260 -1.9100
  504MOL0     H66520   3.532   6.601   1.293  0.2755 -2.0772  0.3061
  504MOL0     H66521   3.492   6.508   1.151 -1.1301  1.8321 -2.6761
  504MOL0     H66522   3.727   6.683   1.188 -3.0272  0.3872 -0.1940
  504MOL0     H66523   3.718   6.560   1.059 -1.2582  1.6853 -1.3518
  504MOL0     H66524   3.747   6.532   1.370  0.4803  1.3569 -0.8630
  504MOL0     H66525   3.698   6.395   1.278  3.9021 -2.5680  0.0553
  504MOL0     H66526   4.116   6.396   1.241 -0.7352 -1.3117 -2.3095
  504MOL0     H66527   3.375   6.760   1.385 -0.8445  0.0658  1.5530
  504MOL0     H66528   3.159   6.835   1.454  4.2646 -4.1267 -0.3406
  505MOL0     O66529   5.011   7.375   3.403  0.4876  0.8103  0.0984
  505MOL0     C66530   5.085   7.434   3.321 -0.1427 -0.2533 -0.6295
  505MOL0     O66531   5.055   7.473   3.192  0.6489  0.2676  1.3098
  505MOL0     C66532   4.936   7.421   3.133 -1.5983  0.5822  0.4903
  505MOL0     C66533   4.831   7.500   3.074  0.6630  0.3490  0.5192
  505MOL0     C66534   4.716   7.440   3.014  0.5025 -0.1077 -0.1354
  505MOL0     C66535   4.715   7.299   2.994  0.0668 -0.3797 -1.0579
  505MOL0     O66536   4.616   7.242   2.917  0.1652 -0.3568 -0.8831
  505MOL0     C66537   4.643   7.215   2.776  0.0997  0.8288 -0.3434
  505MOL0     C66538   4.549   7.105   2.728  0.5401  0.5961  0.1674
  505MOL0     C66539   4.579   6.964   2.788 -0.4358  0.5666 -0.7914
  505MOL0     C66540   4.481   6.866   2.730 -0.1212 -0.3982  0.4982
  505MOL0     C66541   4.333   6.879   2.766  0.5962 -0.0532  0.8492
  505MOL0     C66542   4.244   6.796   2.675  0.2836 -0.0887 -0.1616
  505MOL0     C66543   4.092   6.806   2.710  1.1198 -0.4235 -0.4215
  505MOL0     C66544   4.011   6.693   2.639  0.1263 -0.5369  0.0088
  505MOL0     N66545   3.860   6.704   2.661 -0.5398  0.5252 -0.3458
  505MOL0     C66546   3.780   6.591   2.643  0.1748  0.2509 -0.3534
  505MOL0     C66547   3.664   6.625   2.690  1.0750  0.0261 -0.0193
  505MOL0     C66548   3.541   6.547   2.683 -0.3740  0.1282 -0.2302
  505MOL0     C66549   3.505   6.508   2.550 -0.0894  0.0391 -0.4411
  505MOL0     C66550   3.379   6.424   2.546 -1.0044 -0.4112  0.1036
  505MOL0     C66551   3.355   6.366   2.409 -0.1026  0.7424  0.2548
  505MOL0     O66552   3.247   6.266   2.408 -0.5508 -0.6402 -0.2306
  505MOL0     C66553   3.112   6.300   2.412  0.0148 -0.3458 -0.2765
  505MOL0     C66554   3.053   6.429   2.410 -0.2744  0.0793  0.5272
  505MOL0     C66555   2.908   6.438   2.425 -0.1382 -0.0374 -0.8123
  505MOL0     C66556   2.831   6.322   2.439  0.1648  0.9405 -0.7687
  505MOL0     C66557   2.681   6.327   2.463 -0.3001  0.6465 -0.2960
  505MOL0     O66558   2.634   6.451   2.471 -0.5817 -0.1308  0.3274
  505MOL0     C66559   2.506   6.488   2.483 -0.1092  0.1557 -0.1579
  505MOL0     C66560   2.432   6.468   2.596  0.3849 -0.1665 -0.2331
  505MOL0     C66561   2.299   6.510   2.606 -0.0918 -0.9476  0.8007
  505MOL0     C66562   2.253   6.593   2.503 -0.0770 -0.2978  0.2852
  505MOL0     O66563   2.134   6.672   2.520 -0.0463 -0.0575  0.0585
  505MOL0     C66564   2.010   6.618   2.475 -0.1726  0.0302 -0.5593
  505MOL0     C66565   1.971   6.671   2.335  0.2863  0.0681 -0.3207
  505MOL0     C66566   1.929   6.812   2.353  0.0561  0.3538  0.2597
  505MOL0     C66567   1.948   6.903   2.234  0.4414 -0.1156 -0.1758
  505MOL0     C66568   2.086   6.942   2.181  0.2664  1.0892  0.5066
  505MOL0     C66569   2.187   7.000   2.275  0.2425  0.3546 -0.4891
  505MOL0     C66570   2.328   7.040   2.210 -0.2236  0.1669  0.5681
  505MOL0     C66571   2.332   7.192   2.192  0.3344  1.1430 -0.6663
  505MOL0    Cl66572   2.483   7.229   2.098 -0.4665 -0.4664 -0.2959
  505MOL0     C66573   2.329   6.618   2.391 -0.6132  0.3734  0.2129
  505MOL0     C66574   2.459   6.563   2.377 -0.2317  0.3394 -0.4189
  505MOL0     O66575   2.620   6.225   2.471 -0.0846  0.2242 -1.4402
  505MOL0     C66576   2.890   6.195   2.449 -0.5923  0.0411 -0.8651
  505MOL0     C66577   3.029   6.185   2.437 -0.0069 -0.0120  1.2035
  505MOL0     N66578   3.676   6.758   2.745 -0.1775 -0.4835 -0.5317
  505MOL0     N66579   3.795   6.801   2.729  0.6252 -0.7203 -0.2124
  505MOL0     C66580   4.817   7.222   3.051  0.2144 -0.1504  0.3942
  505MOL0     C66581   4.924   7.277   3.119  0.3064 -0.0450 -0.9374
  505MOL0     C66582   5.212   7.478   3.372 -1.0803 -0.8652 -0.5361
  505MOL0     C66583   5.237   7.470   3.510  0.0800 -0.2797 -0.1877
  505MOL0     C66584   5.366   7.497   3.556  0.3265  0.0449 -0.1367
  505MOL0     C66585   5.463   7.547   3.464 -0.7436  0.0012  0.2393
  505MOL0     O66586   5.591   7.564   3.515 -0.5289  0.1715  0.2240
  505MOL0     C66587   5.711   7.609   3.439 -0.2002 -0.1702 -0.2067
  505MOL0     C66588   5.842   7.581   3.515  0.2185  0.2849 -0.1709
  505MOL0     C66589   5.959   7.664   3.451 -0.4953  0.8696 -0.3259
  505MOL0     C66590   6.084   7.658   3.550 -0.4968 -0.0434 -0.4343
  505MOL0     C66591   6.160   7.529   3.521  0.6964  0.0248 -1.2697
  505MOL0     C66592   6.215   7.431   3.483 -0.2725 -0.5098  0.7128
  505MOL0     C66593   5.435   7.560   3.328 -0.1328 -0.6199 -0.9841
  505MOL0     C66594   5.314   7.527   3.283  1.4882  0.1245 -0.5751
  505MOL0     H66595   4.834   7.608   3.078  2.1288  0.5448 -2.5596
  505MOL0     H66596   4.634   7.492   2.967  3.0789 -0.2148 -5.4116
  505MOL0     H66597   4.750   7.189   2.776  0.5857  2.4543  2.1810
  505MOL0     H66598   4.616   7.302   2.716 -2.2244  1.2753  1.2061
  505MOL0     H66599   4.564   7.086   2.621 -0.1037 -1.2854  0.3717
  505MOL0     H66600   4.447   7.137   2.751  0.8334  2.5494 -1.0569
  505MOL0     H66601   4.565   6.972   2.896  1.8668 -1.0152 -0.2933
  505MOL0     H66602   4.679   6.933   2.756 -0.7651 -1.2773 -0.2013
  505MOL0     H66603   4.493   6.866   2.621  0.2132 -2.2514  0.5139
  505MOL0     H66604   4.516   6.769   2.765  0.7319  0.1159  1.1225
  505MOL0     H66605   4.312   6.986   2.761  4.3287  0.7900 -0.2899
  505MOL0     H66606   4.323   6.852   2.871  3.9741 -0.1374  1.2824
  505MOL0     H66607   4.275   6.697   2.711 -0.1812  0.4318  1.7989
  505MOL0     H66608   4.258   6.813   2.568 -0.0689  2.1187  0.0980
  505MOL0     H66609   4.078   6.788   2.817 -0.9125 -2.8142 -0.9930
  505MOL0     H66610   4.032   6.895   2.691 -3.6825 -2.6118  2.5078
  505MOL0     H66611   4.046   6.600   2.683  2.3600 -0.1490 -0.8281
  505MOL0     H66612   4.026   6.691   2.531 -0.2400 -1.6585 -0.0269
  505MOL0     H66613   3.805   6.502   2.587  2.0070  0.5312 -0.0597
  505MOL0     H66614   3.461   6.608   2.726 -0.3245  0.9229 -1.2151
  505MOL0     H66615   3.546   6.456   2.743  0.3583 -0.7954 -1.6415
  505MOL0     H66616   3.590   6.442   2.530 -0.9247 -2.1194  2.4722
  505MOL0     H66617   3.495   6.591   2.480  1.3304  0.5552 -0.0773
  505MOL0     H66618   3.400   6.340   2.612  2.9505 -0.7149 -1.2750
  505MOL0     H66619   3.298   6.485   2.586  0.7658  1.3640  1.1604
  505MOL0     H66620   3.447   6.329   2.363  0.5149  2.0124  0.4151
  505MOL0     H66621   3.323   6.453   2.350  1.1309  0.0566 -1.5074
  505MOL0     H66622   3.106   6.522   2.391 -1.9294  0.6584 -1.7689
  505MOL0     H66623   2.863   6.537   2.425  0.9229  0.4805  0.9404
  505MOL0     H66624   2.486   6.415   2.674 -2.6694 -3.7054 -0.2842
  505MOL0     H66625   2.242   6.469   2.688  2.5530 -4.6083  1.0539
  505MOL0     H66626   1.927   6.648   2.539 -1.5021 -0.1360 -2.1286
  505MOL0     H66627   2.020   6.509   2.478  1.3896 -0.0181 -3.6707
  505MOL0     H66628   1.893   6.604   2.298  0.1944  0.0121 -0.0303
  505MOL0     H66629   2.058   6.674   2.269  0.2331 -2.2804 -0.5686
  505MOL0     H66630   1.999   6.850   2.429  1.1367 -2.1370  0.6247
  505MOL0     H66631   1.823   6.817   2.380 -0.0089  3.1107 -0.1639
  505MOL0     H66632   1.887   6.859   2.154  0.3581 -1.0155  0.3720
  505MOL0     H66633   1.897   6.999   2.253 -0.9382 -1.0143  0.8746
  505MOL0     H66634   2.079   7.025   2.111  0.5610  0.6337 -0.0768
  505MOL0     H66635   2.124   6.850   2.135 -0.2797 -0.1964  2.4710
  505MOL0     H66636   2.213   6.919   2.345  0.3963 -0.8812 -1.9300
  505MOL0     H66637   2.150   7.083   2.336 -2.2579  0.2609 -1.7468
  505MOL0     H66638   2.415   7.011   2.271  0.5232 -0.8322 -0.9007
  505MOL0     H66639   2.349   6.993   2.113  3.7748  1.2371  0.7198
  505MOL0     H66640   2.329   7.243   2.289 -1.6245  0.4009 -0.2999
  505MOL0     H66641   2.246   7.224   2.133  1.3688  1.7201 -1.9006
  505MOL0     H66642   2.290   6.688   2.318 -2.1909  2.4331  2.8433
  505MOL0     H66643   2.518   6.585   2.288 -0.7118 -0.2339 -0.8861
  505MOL0     H66644   2.830   6.105   2.453 -2.4923  1.1249 -3.0639
  505MOL0     H66645   3.058   6.080   2.446 -2.1029 -0.7486  0.0229
  505MOL0     H66646   4.814   7.114   3.048  1.2142 -0.2036  0.8630
  505MOL0     H66647   4.994   7.204   3.158 -0.5947 -0.8853 -0.8694
  505MOL0     H66648   5.152   7.436   3.569 -0.2911  1.8880  0.6041
  505MOL0     H66649   5.384   7.483   3.662  2.1677  0.0784 -0.4133
  505MOL0     H66650   5.704   7.718   3.444 -0.0628 -0.2019  1.1976
  505MOL0     H66651   5.708   7.574   3.336  1.7015  0.2716 -0.4504
  505MOL0     H66652   5.835   7.625   3.615 -1.0008  1.2608 -0.6501
  505MOL0     H66653   5.866   7.475   3.522  0.6061  0.3916  0.1217
  505MOL0     H66654   5.916   7.764   3.445 -0.6538  1.0596  2.3800
  505MOL0     H66655   5.978   7.616   3.355  0.0913 -0.7232  0.5560
  505MOL0     H66656   6.158   7.738   3.534 -1.2383  0.7886  0.1901
  505MOL0     H66657   6.042   7.659   3.651 -1.5648 -2.1087 -0.8299
  505MOL0     H66658   6.266   7.355   3.428  0.3235  1.8772 -2.2856
  505MOL0     H66659   5.516   7.585   3.261  0.2919  2.2415  0.4531
  505MOL0     H66660   5.299   7.525   3.175 -1.9982 -1.5478 -0.2114
  506MOL0     O66661   0.223   1.640   0.016  0.4522  0.0318  0.4352
  506MOL0     C66662   0.285   1.568   0.090  0.0731  0.2290  0.1599
  506MOL0     O66663   0.239   1.507   0.200 -0.5315  1.2057 -0.6876
  506MOL0     C66664   0.110   1.524   0.251 -0.3391 -0.6512 -0.5364
  506MOL0     C66665   0.087   1.560   0.381 -0.6487 -0.1537  0.2105
  506MOL0     C66666  -0.045   1.580   0.430  0.2940  0.3000 -0.0730
  506MOL0     C66667  -0.145   1.569   0.334  0.6450  0.3728 -0.6327
  506MOL0     O66668  -0.271   1.593   0.386  0.3489 -0.1090  0.2254
  506MOL0     C66669  -0.364   1.489   0.357 -0.6310  0.5027  0.3069
  506MOL0     C66670  -0.462   1.547   0.256  0.2452  0.1491 -0.5143
  506MOL0     C66671  -0.568   1.446   0.236 -0.6735  0.6349 -0.2663
  506MOL0     C66672  -0.655   1.478   0.115 -0.5273 -0.1222 -0.2330
  506MOL0     C66673  -0.777   1.377   0.113  0.4604 -0.0482  0.6062
  506MOL0     C66674  -0.862   1.391  -0.010  0.1319 -1.3500  0.9142
  506MOL0     C66675  -0.954   1.271  -0.036 -0.1580  0.0371 -0.6099
  506MOL0     C66676  -1.084   1.276   0.049 -0.2374 -0.2246 -0.5697
  506MOL0     N66677  -1.182   1.346  -0.022  0.1684 -0.3606  0.0312
  506MOL0     C66678  -1.292   1.280  -0.079 -0.9413  0.1367  0.4007
  506MOL0     C66679  -1.379   1.373  -0.120  0.3738 -0.8806 -0.2683
  506MOL0     C66680  -1.500   1.366  -0.215  0.7087  0.4849 -0.0086
  506MOL0     C66681  -1.584   1.241  -0.181  0.0193 -0.1128  1.0663
  506MOL0     C66682  -1.644   1.251  -0.036  0.3235 -0.6539  1.4746
  506MOL0     C66683  -1.745   1.375  -0.017  0.0789  0.5628  0.4630
  506MOL0     O66684  -1.841   1.369  -0.110 -0.5359  0.2689  1.2984
  506MOL0     C66685  -1.948   1.450  -0.117  0.2064 -0.9206  0.3577
  506MOL0     C66686  -2.032   1.444  -0.235  0.5654 -0.4840 -0.4950
  506MOL0     C66687  -2.141   1.525  -0.247 -0.1607  0.5452 -0.3665
  506MOL0     C66688  -2.176   1.617  -0.150 -0.8667 -0.4601  0.2346
  506MOL0     C66689  -2.293   1.695  -0.145  0.0623 -0.2428 -0.3571
  506MOL0     O66690  -2.327   1.772  -0.044  1.0072 -0.1499 -0.8765
  506MOL0     C66691  -2.458   1.816  -0.048 -0.1327 -0.1886  0.0437
  506MOL0     C66692  -2.480   1.951  -0.035  0.3336  0.6640  0.1958
  506MOL0     C66693  -2.617   2.003  -0.025  0.3784 -0.4675 -0.0598
  506MOL0     C66694  -2.724   1.913  -0.014  0.0611  0.7775 -0.5530
  506MOL0     O66695  -2.851   1.945   0.015  0.2228  0.1392 -0.0875
  506MOL0     C66696  -2.897   2.088   0.007  0.5684  0.1800 -0.0561
  506MOL0     C66697  -3.050   2.114  -0.042 -0.8187  0.8449 -0.8467
  506MOL0     C66698  -3.153   2.069   0.068 -0.2313 -0.8106  0.5455
  506MOL0     C66699  -3.298   2.074   0.009 -0.3192 -0.8465 -0.7132
  506MOL0     C66700  -3.396   1.995   0.091  0.0383 -0.4301 -0.1295
  506MOL0     C66701  -3.419   2.044   0.238  0.3986 -0.0085  0.2599
  506MOL0     C66702  -3.529   1.958   0.310 -0.1844  0.2904 -0.1184
  506MOL0     C66703  -3.666   1.954   0.245  0.6795 -1.0532 -0.4015
  506MOL0    Cl66704  -3.719   2.118   0.203  0.0029 -0.3748 -0.4794
  506MOL0     C66705  -2.697   1.777  -0.010 -0.3509 -0.3570 -0.2010
  506MOL0     C66706  -2.566   1.734  -0.033 -0.1450  0.5949  0.2156
  506MOL0     O66707  -2.362   1.685  -0.251 -0.5093  0.6845 -0.8923
  506MOL0     C66708  -2.099   1.620  -0.030  0.8410 -0.0681 -0.5759
  506MOL0     C66709  -1.985   1.542  -0.015  0.4353  0.8915  0.4214
  506MOL0     N66710  -1.324   1.496  -0.091 -0.3435 -0.1836  0.0435
  506MOL0     N66711  -1.201   1.485  -0.043  0.2304  0.4291 -0.5130
  506MOL0     C66712  -0.132   1.527   0.208 -1.0234  0.2546  0.2740
  506MOL0     C66713   0.003   1.507   0.163  0.6430 -0.6680  0.1789
  506MOL0     C66714   0.432   1.577   0.087 -0.7180  1.0183 -0.1855
  506MOL0     C66715   0.518   1.614  -0.016 -0.1936  0.3736 -0.2668
  506MOL0     C66716   0.658   1.630   0.002  0.1817  0.0002 -0.0078
  506MOL0     C66717   0.723   1.599   0.124  0.4009  0.9640  1.0695
  506MOL0     O66718   0.860   1.625   0.137 -0.4079  0.4922  0.5916
  506MOL0     C66719   0.942   1.579   0.245  0.3473 -0.0964 -0.1280
  506MOL0     C66720   1.096   1.596   0.208  0.3412 -0.1455  0.6261
  506MOL0     C66721   1.186   1.589   0.334 -0.0328  0.6974  0.9210
  506MOL0     C66722   1.334   1.577   0.316  0.1438  1.1403  0.4423
  506MOL0     C66723   1.396   1.694   0.254  0.6929  0.5624 -0.4718
  506MOL0     C66724   1.467   1.776   0.211  0.3605  0.2335  0.2124
  506MOL0     C66725   0.637   1.548   0.225 -0.7354 -0.0769  1.0234
  506MOL0     C66726   0.501   1.545   0.203  0.4829  1.1126 -0.8041
  506MOL0     H66727   0.173   1.563   0.447  0.5398 -3.0233 -1.0558
  506MOL0     H66728  -0.062   1.578   0.537  1.5550 -1.3228  0.1366
  506MOL0     H66729  -0.409   1.461   0.453 -2.0153 -2.5730 -1.0963
  506MOL0     H66730  -0.334   1.393   0.315 -1.6050 -0.3216  1.4212
  506MOL0     H66731  -0.411   1.574   0.164  1.1706 -0.5796 -0.2331
  506MOL0     H66732  -0.515   1.632   0.300 -0.1665 -0.6574  0.6278
  506MOL0     H66733  -0.627   1.440   0.328  1.6240 -5.3827  1.3243
  506MOL0     H66734  -0.526   1.347   0.218  1.5687  1.7539 -1.6734
  506MOL0     H66735  -0.694   1.578   0.134 -0.4577 -0.1417  0.0122
  506MOL0     H66736  -0.600   1.458   0.022  0.2816 -0.6003  0.3401
  506MOL0     H66737  -0.838   1.400   0.201  0.8156 -1.5770  1.2887
  506MOL0     H66738  -0.730   1.282   0.141 -1.5135 -0.3404  3.3692
  506MOL0     H66739  -0.791   1.401  -0.093 -1.2743 -2.5704 -0.4979
  506MOL0     H66740  -0.918   1.484   0.003  0.1248 -1.4223  1.4039
  506MOL0     H66741  -0.965   1.253  -0.143  0.1603 -2.4714 -0.2762
  506MOL0     H66742  -0.893   1.191   0.008  1.4291  2.2258  1.4554
  506MOL0     H66743  -1.058   1.324   0.144 -0.0432 -2.0581  0.3491
  506MOL0     H66744  -1.123   1.176   0.068 -0.1533 -0.2407 -0.4799
  506MOL0     H66745  -1.307   1.173  -0.089 -1.7061  0.2775 -0.1313
  506MOL0     H66746  -1.462   1.361  -0.318 -1.4209  0.9941 -0.8770
  506MOL0     H66747  -1.569   1.450  -0.211 -1.1404 -1.0145  1.4503
  506MOL0     H66748  -1.520   1.153  -0.190 -0.6452 -0.7850  2.5194
  506MOL0     H66749  -1.670   1.234  -0.249 -0.4757 -0.5426  1.7123
  506MOL0     H66750  -1.700   1.162  -0.008  0.4374 -0.6770  1.6320
  506MOL0     H66751  -1.568   1.273   0.041 -0.1895  0.3427  1.7184
  506MOL0     H66752  -1.683   1.465  -0.015 -1.1058  1.4476 -0.9088
  506MOL0     H66753  -1.790   1.374   0.083  1.7644  0.5487  1.2564
  506MOL0     H66754  -2.005   1.366  -0.305 -2.7698 -1.4815 -0.8573
  506MOL0     H66755  -2.197   1.521  -0.339  0.0677  2.8648 -0.6585
  506MOL0     H66756  -2.398   2.022  -0.042  0.5690  0.2872 -1.2122
  506MOL0     H66757  -2.639   2.109  -0.032  0.3256 -0.3284  1.8273
  506MOL0     H66758  -2.837   2.133  -0.073  0.0966  0.5917 -0.1871
  506MOL0     H66759  -2.880   2.150   0.096  0.3286  2.4086 -1.4941
  506MOL0     H66760  -3.062   2.060  -0.137  3.2274  3.0929 -2.9246
  506MOL0     H66761  -3.049   2.224  -0.050 -1.2329  0.8159 -1.3409
  506MOL0     H66762  -3.144   2.131   0.157 -3.2586  0.8422 -0.1710
  506MOL0     H66763  -3.125   1.968   0.100  2.2429 -0.0430  1.0411
  506MOL0     H66764  -3.339   2.175   0.020  0.3048 -0.8211  2.7721
  506MOL0     H66765  -3.307   2.040  -0.094 -2.4320 -0.0922 -0.8119
  506MOL0     H66766  -3.367   1.890   0.085 -0.1755 -0.4134 -4.2071
  506MOL0     H66767  -3.492   2.003   0.038 -0.4009  0.8402  0.7723
  506MOL0     H66768  -3.443   2.150   0.244 -1.3323 -0.2946 -0.7002
  506MOL0     H66769  -3.327   2.027   0.294  0.2284 -2.2330 -0.0242
  506MOL0     H66770  -3.496   1.854   0.313 -0.0888  0.2888 -0.9306
  506MOL0     H66771  -3.544   2.006   0.407 -0.3359  3.4338 -1.5635
  506MOL0     H66772  -3.747   1.925   0.312 -2.2739 -0.2536 -3.3464
  506MOL0     H66773  -3.672   1.890   0.156 -2.6559 -2.6688  0.8184
  506MOL0     H66774  -2.778   1.708   0.012 -0.9106  0.7030  1.2351
  506MOL0     H66775  -2.539   1.630  -0.050  0.2250  0.8786 -1.0387
  506MOL0     H66776  -2.125   1.684   0.053 -2.3588 -0.5325 -1.0943
  506MOL0     H66777  -1.915   1.544   0.068  0.7424  5.3839  0.2968
  506MOL0     H66778  -0.211   1.516   0.135  0.5637 -2.2691 -1.2407
  506MOL0     H66779   0.027   1.491   0.058  1.4423 -2.9154  0.6334
  506MOL0     H66780   0.480   1.636  -0.115 -2.9498 -2.8216 -0.0923
  506MOL0     H66781   0.721   1.679  -0.072  0.7662 -1.2774 -0.3701
  506MOL0     H66782   0.939   1.475   0.282  0.1856  1.1275  3.7584
  506MOL0     H66783   0.913   1.634   0.335  0.0105  2.7329 -1.8626
  506MOL0     H66784   1.115   1.515   0.136  2.4283  0.8259  0.0212
  506MOL0     H66785   1.106   1.693   0.158  0.3590  0.9809  2.7383
  506MOL0     H66786   1.167   1.499   0.392  1.1601 -0.7416 -0.8054
  506MOL0     H66787   1.167   1.676   0.398  0.2367  0.3834  1.4316
  506MOL0     H66788   1.386   1.555   0.409 -0.8414 -2.8793  0.2304
  506MOL0     H66789   1.365   1.495   0.250  0.0397 -0.1111  1.9106
  506MOL0     H66790   1.541   1.844   0.173  0.8338  0.2558  1.1508
  506MOL0     H66791   0.677   1.518   0.321  0.3889  0.0874  0.6278
  506MOL0     H66792   0.447   1.520   0.294  2.1719  3.3604  0.9415
  507MOL0     O66793  10.213   9.667   8.143 -0.3415 -0.5874 -0.1431
  507MOL0     C66794  10.206   9.787   8.155 -0.2354  1.1636 -0.4144
  507MOL0     O66795  10.091   9.858   8.152 -0.2194  0.2284 -0.1924
  507MOL0     C66796   9.963   9.796   8.142 -0.1236  0.0426 -0.3865
  507MOL0     C66797   9.935   9.658   8.129  0.3961 -0.2788 -0.0609
  507MOL0     C66798   9.801   9.616   8.132 -0.0612 -0.6729 -0.2337
  507MOL0     C66799   9.687   9.704   8.148 -1.3268 -0.3075  0.1241
  507MOL0     O66800   9.563   9.656   8.135  0.0424  0.1041  0.0652
  507MOL0     C66801   9.519   9.606   8.009  0.3456 -0.0620 -0.2974
  507MOL0     C66802   9.368   9.607   8.006 -0.2862  0.4514  0.4497
  507MOL0     C66803   9.320   9.743   8.042  0.6368 -0.8829 -0.0005
  507MOL0     C66804   9.190   9.776   7.969  0.4420  0.1678 -0.5920
  507MOL0     C66805   9.218   9.831   7.834  0.3737  0.0703  1.2890
  507MOL0     C66806   9.089   9.820   7.744  0.4237  0.1665  0.4127
  507MOL0     C66807   9.113   9.801   7.596 -0.8348 -0.8030 -0.1685
  507MOL0     C66808   9.209   9.901   7.535  0.9119 -0.0445  0.3285
  507MOL0     N66809   9.213   9.896   7.383  0.4369  0.6170  0.1473
  507MOL0     C66810   9.296   9.816   7.313  0.9551 -0.3848  0.5666
  507MOL0     C66811   9.239   9.822   7.187  0.2341  0.1777  0.0525
  507MOL0     C66812   9.274   9.724   7.069  0.2002 -0.0728 -0.2964
  507MOL0     C66813   9.374   9.784   6.968 -0.9534 -1.1043 -0.8359
  507MOL0     C66814   9.317   9.904   6.889 -0.2061  0.3634 -0.2254
  507MOL0     C66815   9.300   9.873   6.741  0.5708  0.8884  0.1490
  507MOL0     O66816   9.425   9.844   6.679 -0.5404 -0.1606 -0.5572
  507MOL0     C66817   9.502   9.951   6.660  0.3830 -0.3033  0.1517
  507MOL0     C66818   9.602   9.990   6.758 -0.3040 -0.2678 -0.2556
  507MOL0     C66819   9.687  10.104   6.734 -0.0648  0.1494 -0.5188
  507MOL0     C66820   9.683  10.176   6.616  1.2420 -0.2477 -0.1280
  507MOL0     C66821   9.767  10.296   6.590  0.2161 -0.1255  0.0758
  507MOL0     O66822   9.836  10.344   6.689  0.1976 -0.5378 -0.8016
  507MOL0     C66823   9.949  10.420   6.671  0.2856 -0.0031 -0.5500
  507MOL0     C66824   9.994  10.495   6.778 -0.5832  0.3604 -0.0050
  507MOL0     C66825  10.116  10.565   6.765  1.2832  0.1404 -0.1978
  507MOL0     C66826  10.187  10.584   6.648  1.2450  0.2398 -0.3531
  507MOL0     O66827  10.302  10.665   6.640 -0.0740  0.0682  0.4830
  507MOL0     C66828  10.412  10.616   6.557  0.0750  0.6191 -0.1398
  507MOL0     C66829  10.526  10.718   6.577  0.4129 -0.5926  0.3514
  507MOL0     C66830  10.660  10.673   6.499 -0.7380 -0.4817 -0.0002
  507MOL0     C66831  10.778  10.764   6.535  0.1914 -0.0829  0.1493
  507MOL0     C66832  10.918  10.716   6.514 -0.1283  0.7335 -0.0260
  507MOL0     C66833  10.947  10.581   6.577 -0.1150 -1.4638  0.3669
  507MOL0     C66834  11.091  10.547   6.579  0.4798  0.1606 -0.5785
  507MOL0     C66835  11.107  10.425   6.668 -0.3926 -0.4448 -0.4614
  507MOL0    Cl66836  11.287  10.392   6.657  0.4885  0.0336  0.6813
  507MOL0     C66837  10.138  10.511   6.543  0.2758  0.2494  0.1443
  507MOL0     C66838  10.021  10.432   6.552  0.2237  0.4206 -0.3608
  507MOL0     O66839   9.769  10.342   6.477  0.3531  0.6947  0.0112
  507MOL0     C66840   9.587  10.140   6.516 -0.8818  0.1431 -0.9719
  507MOL0     C66841   9.496  10.028   6.539  0.0996  0.6966 -0.1226
  507MOL0     N66842   9.125   9.905   7.193 -0.7364  0.6841 -0.2019
  507MOL0     N66843   9.108   9.947   7.311 -0.7404 -0.8743  0.4990
  507MOL0     C66844   9.716   9.841   8.170  0.3821  0.7159 -0.1320
  507MOL0     C66845   9.850   9.885   8.165 -1.0073 -0.0027  0.3141
  507MOL0     C66846  10.331   9.860   8.189  0.7553  0.9034 -0.0796
  507MOL0     C66847  10.334  10.000   8.202  0.6281  0.6516 -0.0325
  507MOL0     C66848  10.457  10.066   8.217 -0.1241 -0.2368 -0.1535
  507MOL0     C66849  10.574   9.992   8.226  0.7961  0.8017  0.8297
  507MOL0     O66850  10.690  10.065   8.231 -0.1167  0.5840  0.0189
  507MOL0     C66851  10.828  10.010   8.215 -0.1558  0.6694 -0.0737
  507MOL0     C66852  10.887   9.964   8.356 -0.1670 -0.8851  1.1795
  507MOL0     C66853  10.980  10.076   8.415  0.8424 -0.0144  0.2369
  507MOL0     C66854  11.018  10.044   8.557 -0.3298 -0.1489  0.8435
  507MOL0     C66855  11.136  10.115   8.604  0.3985 -0.3774  0.6838
  507MOL0     C66856  11.238  10.161   8.647  0.3009  0.0130 -0.0946
  507MOL0     C66857  10.566   9.856   8.239  0.6428  0.9613 -0.2259
  507MOL0     C66858  10.448   9.788   8.219  0.1321  0.4799 -0.4775
  507MOL0     H66859  10.006   9.577   8.117 -0.6549 -1.0821 -1.1282
  507MOL0     H66860   9.784   9.512   8.106  1.5253 -0.8865 -0.4974
  507MOL0     H66861   9.562   9.512   7.971  0.4712  0.6174 -1.9077
  507MOL0     H66862   9.559   9.670   7.930  1.2771 -1.3497 -0.9151
  507MOL0     H66863   9.342   9.534   8.084 -0.9047  0.6563  0.4376
  507MOL0     H66864   9.331   9.590   7.905  0.4740  3.6089 -0.4693
  507MOL0     H66865   9.396   9.813   8.008  1.0134 -1.0971  0.3800
  507MOL0     H66866   9.307   9.742   8.151 -1.4033 -4.1220 -0.1375
  507MOL0     H66867   9.134   9.682   7.968 -1.0169  0.9919 -2.7936
  507MOL0     H66868   9.137   9.852   8.026  0.2766 -1.3106  1.3362
  507MOL0     H66869   9.297   9.774   7.784  0.7465 -0.2167  2.1781
  507MOL0     H66870   9.251   9.934   7.842 -0.3725  0.2391  2.4112
  507MOL0     H66871   9.036   9.915   7.757 -1.0553  0.1012 -3.6444
  507MOL0     H66872   9.026   9.737   7.776 -0.5205  0.1925 -1.2378
  507MOL0     H66873   9.131   9.695   7.574 -2.6539 -0.9801 -0.9627
  507MOL0     H66874   9.018   9.818   7.545 -0.5142 -0.5925 -0.7127
  507MOL0     H66875   9.308   9.877   7.574  1.8773  0.0894 -1.9189
  507MOL0     H66876   9.198  10.004   7.571  2.7506  0.7675 -1.2750
  507MOL0     H66877   9.390   9.767   7.339  1.0694  1.4293  4.2469
  507MOL0     H66878   9.188   9.708   7.003  0.5741  1.1533 -1.0992
  507MOL0     H66879   9.296   9.625   7.111  1.0674 -0.4307 -1.5500
  507MOL0     H66880   9.418   9.715   6.895 -2.8594 -1.9838 -1.2031
  507MOL0     H66881   9.456   9.817   7.033 -0.0290  1.1071 -2.9781
  507MOL0     H66882   9.225   9.927   6.943  0.1220 -1.3512  1.1475
  507MOL0     H66883   9.380   9.991   6.906  0.9445 -0.4916 -0.0206
  507MOL0     H66884   9.260   9.961   6.690  2.8183 -0.2050 -3.9510
  507MOL0     H66885   9.232   9.787   6.737  0.5889  0.6559  2.8527
  507MOL0     H66886   9.608   9.925   6.844  2.7097 -0.9127 -0.8181
  507MOL0     H66887   9.753  10.131   6.815 -3.3064 -0.9007  2.7110
  507MOL0     H66888   9.934  10.493   6.868 -0.4646 -0.6406  0.0649
  507MOL0     H66889  10.151  10.604   6.860  0.1060 -2.2949  1.3320
  507MOL0     H66890  10.388  10.609   6.451  1.8424  0.1149 -0.5493
  507MOL0     H66891  10.440  10.516   6.591 -0.4397  0.0682 -1.3032
  507MOL0     H66892  10.542  10.734   6.684  0.4934 -3.7899  0.9139
  507MOL0     H66893  10.498  10.818   6.544 -1.2005 -0.5398  1.7130
  507MOL0     H66894  10.661  10.673   6.390 -1.8958  0.9658 -0.0456
  507MOL0     H66895  10.682  10.570   6.527 -0.3810 -0.5579 -0.5396
  507MOL0     H66896  10.754  10.846   6.467  0.8312 -1.5399 -1.9497
  507MOL0     H66897  10.783  10.802   6.638  1.9335 -1.5515  0.6577
  507MOL0     H66898  10.993  10.790   6.545 -1.4250  1.1027  2.5114
  507MOL0     H66899  10.926  10.707   6.405 -0.1767  0.5674 -0.0147
  507MOL0     H66900  10.885  10.502   6.535 -1.2760 -0.1744 -0.4502
  507MOL0     H66901  10.903  10.585   6.677 -3.9355 -1.8484 -1.1292
  507MOL0     H66902  11.130  10.531   6.477  0.0988  0.4698 -0.7751
  507MOL0     H66903  11.148  10.625   6.630 -0.5678  1.1161 -0.8352
  507MOL0     H66904  11.051  10.342   6.624 -0.5799  1.2630 -3.7079
  507MOL0     H66905  11.077  10.442   6.772  1.2416 -0.9715  0.1208
  507MOL0     H66906  10.180  10.500   6.443  1.6989  1.9057  0.5132
  507MOL0     H66907   9.995  10.372   6.466  0.6858  1.3270 -1.1490
  507MOL0     H66908   9.585  10.206   6.430  0.2743  0.4603 -0.7689
  507MOL0     H66909   9.427   9.992   6.464  0.8663  0.8414 -0.9276
  507MOL0     H66910   9.629   9.897   8.203  1.2080  1.2558  1.2081
  507MOL0     H66911   9.861   9.992   8.176  0.1430 -0.1243  0.4801
  507MOL0     H66912  10.238  10.049   8.190  1.7090  3.5410  1.8481
  507MOL0     H66913  10.453  10.173   8.232  1.6101 -0.4902  3.0655
  507MOL0     H66914  10.889  10.086   8.167  2.9770 -0.4529  1.8308
  507MOL0     H66915  10.831   9.926   8.145  0.5615  0.4924  0.1661
  507MOL0     H66916  10.804   9.928   8.417 -0.2017 -2.8375  0.0829
  507MOL0     H66917  10.956   9.880   8.339 -0.0767 -0.4433 -0.8080
  507MOL0     H66918  10.938  10.177   8.418  2.0874  0.5319  0.3111
  507MOL0     H66919  11.063  10.083   8.344 -0.1991 -2.1922 -1.2794
  507MOL0     H66920  10.937  10.069   8.626 -1.3477 -0.0358 -0.3624
  507MOL0     H66921  11.035   9.936   8.562 -0.7843 -0.4955 -2.6611
  507MOL0     H66922  11.318  10.216   8.691 -1.6693  2.7993  0.2850
  507MOL0     H66923  10.652   9.791   8.256  0.5502  0.6565 -0.9001
  507MOL0     H66924  10.451   9.679   8.225 -1.3755  0.4854  0.7219
  508MOL0     O66925   1.585   8.819   3.818 -0.3440 -0.6396 -0.5708
  508MOL0     C66926   1.622   8.875   3.920 -0.1279  0.2169 -0.3568
  508MOL0     O66927   1.539   8.920   4.014 -0.9026 -0.3576 -0.3180
  508MOL0     C66928   1.406   8.922   3.989 -0.3659  0.0334  0.4362
  508MOL0     C66929   1.358   8.992   3.880  0.3366  0.4719 -0.5576
  508MOL0     C66930   1.226   8.985   3.849 -0.0026 -0.3108  0.3181
  508MOL0     C66931   1.136   8.893   3.910 -0.8755  0.0311 -0.3791
  508MOL0     O66932   1.012   8.856   3.868  0.4665  0.7232  0.4232
  508MOL0     C66933   0.960   8.909   3.737 -0.0206  0.3705 -0.2540
  508MOL0     C66934   0.804   8.899   3.728 -0.4143  0.7955  0.6301
  508MOL0     C66935   0.754   8.758   3.742  1.0976  0.3926  0.0472
  508MOL0     C66936   0.600   8.738   3.740  0.1641 -0.1752 -1.0277
  508MOL0     C66937   0.545   8.598   3.721  0.3118  0.1819  1.5362
  508MOL0     C66938   0.385   8.600   3.713  0.3825 -0.3069  0.8005
  508MOL0     C66939   0.305   8.466   3.687 -0.7524  0.5296  0.8720
  508MOL0     C66940   0.372   8.363   3.774  0.1748  0.0134  0.1289
  508MOL0     N66941   0.357   8.380   3.925  0.3545  0.3990 -0.0947
  508MOL0     C66942   0.242   8.358   3.992 -0.2698  0.4860  0.6403
  508MOL0     C66943   0.279   8.345   4.119  0.2319  0.7629  0.1861
  508MOL0     C66944   0.192   8.332   4.247  0.4337  0.1724  0.3887
  508MOL0     C66945   0.245   8.400   4.377 -0.0977 -0.1424 -0.0762
  508MOL0     C66946   0.261   8.556   4.354  0.2267  0.8152  1.1373
  508MOL0     C66947   0.345   8.612   4.471  0.5625 -0.8781  0.3131
  508MOL0     O66948   0.384   8.747   4.448  0.1154  0.4513 -0.1683
  508MOL0     C66949   0.494   8.791   4.521  0.1059  0.2050  0.5531
  508MOL0     C66950   0.535   8.922   4.496  0.9164 -0.1101  0.0831
  508MOL0     C66951   0.643   8.985   4.555  1.3331 -1.0358  0.0258
  508MOL0     C66952   0.727   8.911   4.644  0.5628 -0.9234 -0.1890
  508MOL0     C66953   0.844   8.975   4.716  1.1304  0.4534  0.4911
  508MOL0     O66954   0.922   8.898   4.800 -0.0963  0.4222 -0.2599
  508MOL0     C66955   1.027   8.950   4.874  0.6436  0.7561 -0.5794
  508MOL0     C66956   1.123   8.851   4.902  0.5136  0.6153 -0.4110
  508MOL0     C66957   1.245   8.882   4.969  0.3679 -0.3477  0.6777
  508MOL0     C66958   1.268   9.016   5.012  0.1695 -0.3764 -0.2098
  508MOL0     O66959   1.354   9.053   5.114 -1.1465  1.3128 -0.1897
  508MOL0     C66960   1.479   8.977   5.116 -0.4260 -0.5594  0.2707
  508MOL0     C66961   1.590   9.063   5.172 -1.2256  0.3690 -0.0569
  508MOL0     C66962   1.706   8.975   5.220 -0.1690 -0.1811  0.4787
  508MOL0     C66963   1.806   9.061   5.300 -0.2335 -0.1351  0.1536
  508MOL0     C66964   1.927   8.995   5.364 -0.3476 -0.5167  0.9389
  508MOL0     C66965   1.935   8.993   5.513  0.4636  0.7251  0.6758
  508MOL0     C66966   2.037   8.886   5.550 -0.0289 -1.0592 -0.0888
  508MOL0     C66967   2.178   8.915   5.489  1.2302 -0.5129 -0.3297
  508MOL0    Cl66968   2.299   8.820   5.566  0.0974 -0.0107 -0.1894
  508MOL0     C66969   1.170   9.112   4.980 -0.5300 -0.1150  0.5374
  508MOL0     C66970   1.047   9.076   4.921  1.2359 -0.2053  0.1355
  508MOL0     O66971   0.874   9.086   4.686 -0.2702 -0.1792 -0.4187
  508MOL0     C66972   0.687   8.781   4.668 -0.4711  1.1597 -0.3557
  508MOL0     C66973   0.569   8.726   4.610  0.3493 -0.0145  0.2611
  508MOL0     N66974   0.420   8.337   4.120  0.7139  0.9673 -0.6545
  508MOL0     N66975   0.461   8.367   4.009 -0.3917 -0.0571  0.0090
  508MOL0     C66976   1.188   8.830   4.028  0.0224 -0.3213 -0.5877
  508MOL0     C66977   1.322   8.842   4.064  0.1118 -0.0299 -0.1391
  508MOL0     C66978   1.763   8.878   3.960 -0.4917 -0.4489  0.8256
  508MOL0     C66979   1.810   8.954   4.073  0.8614 -0.2958  0.0188
  508MOL0     C66980   1.939   8.941   4.109  0.2218 -0.5817 -0.3938
  508MOL0     C66981   2.033   8.873   4.035 -1.1133 -0.3153  1.0041
  508MOL0     O66982   2.168   8.886   4.067  0.6520  0.4535 -0.0425
  508MOL0     C66983   2.256   8.788   4.017  0.1640  0.4657 -0.0443
  508MOL0     C66984   2.391   8.783   4.097 -0.3973 -0.0998 -0.2058
  508MOL0     C66985   2.387   8.708   4.229  0.4440  0.4504  0.1206
  508MOL0     C66986   2.500   8.718   4.324  0.1494 -0.4027  0.7903
  508MOL0     C66987   2.601   8.622   4.276 -0.3993 -0.8678  0.5811
  508MOL0     C66988   2.687   8.547   4.245 -0.4881  1.1275  0.7971
  508MOL0     C66989   1.989   8.802   3.922  0.3294 -0.1693 -0.0632
  508MOL0     C66990   1.856   8.810   3.887 -0.2673  0.4775 -0.3570
  508MOL0     H66991   1.430   9.054   3.826  0.9279  2.1308  1.9709
  508MOL0     H66992   1.189   9.057   3.777  1.0909 -0.3342 -0.2894
  508MOL0     H66993   1.005   8.857   3.652  3.6719  0.4108  1.4521
  508MOL0     H66994   0.992   9.013   3.731  4.4277 -0.6763  1.1871
  508MOL0     H66995   0.772   8.939   3.631 -1.7613 -0.2285  0.6165
  508MOL0     H66996   0.745   8.958   3.799 -4.0896 -1.2828 -0.4399
  508MOL0     H66997   0.793   8.719   3.837  1.0957 -0.3490 -0.2450
  508MOL0     H66998   0.796   8.687   3.670 -2.5189 -2.6359  0.5513
  508MOL0     H66999   0.555   8.775   3.833 -2.0769 -1.8701 -1.3671
  508MOL0     H67000   0.565   8.806   3.662  1.7712  1.2619 -0.5686
  508MOL0     H67001   0.570   8.540   3.810  0.8597 -2.0095  0.0271
  508MOL0     H67002   0.590   8.560   3.629  0.9338  3.6739  0.2349
  508MOL0     H67003   0.352   8.664   3.631  1.9231 -1.3839 -0.7220
  508MOL0     H67004   0.345   8.631   3.810 -1.4529  0.4754 -0.1592
  508MOL0     H67005   0.198   8.480   3.706 -1.1133 -0.5015 -0.2472
  508MOL0     H67006   0.307   8.426   3.585 -4.0614  0.4471  0.7426
  508MOL0     H67007   0.477   8.352   3.745 -0.2107  0.2605 -1.4384
  508MOL0     H67008   0.320   8.267   3.764  2.5937 -1.7686  2.8691
  508MOL0     H67009   0.142   8.376   3.954  0.3077  1.8816 -0.2978
  508MOL0     H67010   0.168   8.227   4.266  0.7735 -0.2244 -1.2248
  508MOL0     H67011   0.101   8.390   4.229  0.9488  1.2866  1.2620
  508MOL0     H67012   0.337   8.349   4.408 -0.3102 -1.8356 -2.0087
  508MOL0     H67013   0.177   8.379   4.460 -1.0656  1.7775 -0.3091
  508MOL0     H67014   0.307   8.585   4.259  1.4218  0.9548  1.7358
  508MOL0     H67015   0.164   8.604   4.359  0.3368  1.2619 -0.5617
  508MOL0     H67016   0.433   8.548   4.488  1.0129  0.5835  4.7784
  508MOL0     H67017   0.299   8.594   4.568 -0.1459  0.7634  0.3203
  508MOL0     H67018   0.483   8.999   4.442 -1.4929  0.1966  2.5958
  508MOL0     H67019   0.652   9.090   4.530 -2.9659 -0.4189  0.2775
  508MOL0     H67020   1.108   8.755   4.853  1.7541 -1.1103  2.3198
  508MOL0     H67021   1.313   8.803   4.999 -0.9960 -2.3061 -1.1009
  508MOL0     H67022   1.515   8.937   5.021  1.8730 -2.3904  1.7843
  508MOL0     H67023   1.453   8.893   5.181 -0.4445  1.3590  2.9254
  508MOL0     H67024   1.556   9.111   5.265  0.8351 -0.1094  1.0050
  508MOL0     H67025   1.620   9.139   5.100  0.5594 -0.6473 -0.4543
  508MOL0     H67026   1.758   8.940   5.130  1.5459 -0.0747  1.3763
  508MOL0     H67027   1.685   8.885   5.278 -0.2237  0.0324  0.7934
  508MOL0     H67028   1.838   9.136   5.228  2.5158 -1.0919  0.2417
  508MOL0     H67029   1.753   9.112   5.381 -1.0139 -0.1753 -0.3210
  508MOL0     H67030   2.014   9.048   5.323 -2.3642  0.8626 -1.9374
  508MOL0     H67031   1.929   8.893   5.324 -1.6503  0.3806 -1.6823
  508MOL0     H67032   1.843   8.960   5.562 -0.4277  2.5102  0.2822
  508MOL0     H67033   1.965   9.094   5.543  0.3216  1.2471 -0.8308
  508MOL0     H67034   2.051   8.898   5.658  0.6858  4.1454 -0.4795
  508MOL0     H67035   2.011   8.783   5.527 -0.7420 -1.8331  3.6147
  508MOL0     H67036   2.203   9.022   5.490  1.7190 -0.6216  1.2671
  508MOL0     H67037   2.166   8.875   5.388 -0.5404 -0.7247 -0.0626
  508MOL0     H67038   1.192   9.212   5.017  1.8928 -1.0844  1.9120
  508MOL0     H67039   0.969   9.149   4.901 -2.5530 -3.9668 -0.0918
  508MOL0     H67040   0.747   8.720   4.734 -0.4478  2.9621  1.4040
  508MOL0     H67041   0.532   8.629   4.641  1.8341 -0.4817  0.6234
  508MOL0     H67042   1.120   8.769   4.087 -0.3635  0.5618 -0.0858
  508MOL0     H67043   1.363   8.788   4.149 -0.3826 -2.0996 -1.1573
  508MOL0     H67044   1.744   9.024   4.123  0.1235 -1.0218  0.0886
  508MOL0     H67045   1.974   8.990   4.199  0.8376 -1.2407 -0.2625
  508MOL0     H67046   2.275   8.803   3.911 -0.3844 -2.3405 -0.6030
  508MOL0     H67047   2.210   8.689   4.017  0.4343  0.2654 -2.7205
  508MOL0     H67048   2.470   8.744   4.031  1.6004 -0.8108  2.4537
  508MOL0     H67049   2.407   8.890   4.113  2.6359  0.0608 -3.1559
  508MOL0     H67050   2.369   8.602   4.208 -1.2031  0.3437  1.7136
  508MOL0     H67051   2.299   8.750   4.279  0.2129  0.2443 -0.1118
  508MOL0     H67052   2.542   8.819   4.328 -0.8771  0.0828 -0.2614
  508MOL0     H67053   2.471   8.686   4.425 -4.0257  0.8638  0.1623
  508MOL0     H67054   2.765   8.482   4.210 -3.1376 -0.3736 -2.9505
  508MOL0     H67055   2.057   8.746   3.859 -2.3100 -2.7111 -0.8878
  508MOL0     H67056   1.824   8.743   3.808 -2.2114  3.1727 -2.0340
  509MOL0     O67057   2.029   0.626   8.022 -0.3430  0.0792  0.4512
  509MOL0     C67058   2.092   0.584   7.922 -0.0018  0.8272  0.2913
  509MOL0     O67059   2.056   0.482   7.837 -0.7218  0.1926  1.0041
  509MOL0     C67060   1.926   0.435   7.860 -0.0925 -0.2859  0.4127
  509MOL0     C67061   1.922   0.297   7.856  0.2651 -0.1273 -0.2144
  509MOL0     C67062   1.802   0.231   7.878  0.5858 -0.5716  0.4935
  509MOL0     C67063   1.684   0.314   7.887 -0.1007  0.1149 -1.0821
  509MOL0     O67064   1.552   0.269   7.915  0.4354  0.0882 -0.6247
  509MOL0     C67065   1.517   0.129   7.895  0.2538 -0.7314  0.4363
  509MOL0     C67066   1.364   0.111   7.888  0.1391 -0.9033 -0.6749
  509MOL0     C67067   1.324  -0.035   7.873  0.7717  0.0375 -1.0690
  509MOL0     C67068   1.171  -0.051   7.877 -0.5029 -1.1318  0.3796
  509MOL0     C67069   1.142  -0.206   7.843 -0.1969  0.2858  0.9633
  509MOL0     C67070   0.997  -0.238   7.802 -0.5104 -0.7104 -1.6360
  509MOL0     C67071   0.943  -0.170   7.674  0.3068 -1.0158 -0.2317
  509MOL0     C67072   1.045  -0.146   7.565  0.1267 -0.7908 -0.9187
  509MOL0     N67073   1.093  -0.265   7.490 -0.9175  0.4444 -0.5742
  509MOL0     C67074   1.021  -0.387   7.466 -0.1614 -0.5298  0.7940
  509MOL0     C67075   1.113  -0.471   7.408  0.0275 -0.0650 -0.0569
  509MOL0     C67076   1.107  -0.610   7.363  0.9490  0.4783  1.0989
  509MOL0     C67077   1.062  -0.629   7.218  0.4509  0.0973  0.6754
  509MOL0     C67078   1.159  -0.571   7.118 -0.6574  0.1702  0.1483
  509MOL0     C67079   1.134  -0.607   6.977  0.2885 -0.0478  0.5934
  509MOL0     O67080   1.009  -0.550   6.931 -0.0136  0.4850 -0.4027
  509MOL0     C67081   0.900  -0.639   6.929  0.4891  0.3148 -0.3079
  509MOL0     C67082   0.779  -0.579   6.976  0.8015  0.2631  0.4866
  509MOL0     C67083   0.662  -0.657   6.969  0.2635 -0.5009  0.5366
  509MOL0     C67084   0.656  -0.780   6.905 -0.5309 -0.1170  0.3394
  509MOL0     C67085   0.530  -0.863   6.882  0.3134  0.8365 -0.3434
  509MOL0     O67086   0.534  -0.994   6.845 -1.0085 -0.1057  1.1542
  509MOL0     C67087   0.425  -1.079   6.832 -0.4354  0.2896 -0.1539
  509MOL0     C67088   0.290  -1.052   6.838  0.9282 -0.8463 -0.2377
  509MOL0     C67089   0.194  -1.151   6.809 -0.2599  0.6320 -0.5145
  509MOL0     C67090   0.240  -1.283   6.769 -1.0579  0.1691 -0.1126
  509MOL0     O67091   0.157  -1.385   6.738  0.5037  0.6911 -0.2648
  509MOL0     C67092   0.013  -1.360   6.739  0.1850 -0.1528 -0.1472
  509MOL0     C67093  -0.069  -1.481   6.682  0.3861  0.1753 -0.7508
  509MOL0     C67094  -0.205  -1.420   6.659  0.7219  0.4172 -0.0639
  509MOL0     C67095  -0.314  -1.524   6.618 -0.0899 -0.2599  0.0303
  509MOL0     C67096  -0.438  -1.466   6.542 -0.3053 -0.9037  0.1154
  509MOL0     C67097  -0.495  -1.350   6.620  0.6759 -0.8431  0.1187
  509MOL0     C67098  -0.631  -1.300   6.566  0.2532  0.3530  0.3470
  509MOL0     C67099  -0.686  -1.186   6.640 -0.4342 -0.3141 -0.3212
  509MOL0    Cl67100  -0.613  -1.036   6.571 -0.2134 -0.0966  0.0270
  509MOL0     C67101   0.380  -1.303   6.768  0.0857  0.8909  0.4179
  509MOL0     C67102   0.468  -1.203   6.797 -1.0869  0.2236 -0.9847
  509MOL0     O67103   0.425  -0.809   6.911 -0.9260  0.9225  0.2708
  509MOL0     C67104   0.776  -0.831   6.852 -0.2740  0.5448  0.2792
  509MOL0     C67105   0.897  -0.761   6.867  0.2709  0.9129 -0.2949
  509MOL0     N67106   1.230  -0.403   7.397  0.3764  0.6754 -0.4945
  509MOL0     N67107   1.222  -0.285   7.443  0.3571  0.1142  0.3051
  509MOL0     C67108   1.699   0.452   7.873 -0.6336 -0.5501  0.6240
  509MOL0     C67109   1.817   0.513   7.848  0.5984 -0.1699  0.3198
  509MOL0     C67110   2.210   0.665   7.887  0.3694 -0.3139 -0.2653
  509MOL0     C67111   2.312   0.605   7.811  0.0876  0.2172  0.3205
  509MOL0     C67112   2.429   0.681   7.780 -0.0263  0.4466  0.6385
  509MOL0     C67113   2.441   0.820   7.825  0.1429 -0.1749 -0.2622
  509MOL0     O67114   2.559   0.886   7.811 -0.1595 -0.1104  0.4554
  509MOL0     C67115   2.658   0.862   7.705  0.2087 -0.1906  0.0873
  509MOL0     C67116   2.800   0.899   7.751 -0.6914 -0.0257  0.0068
  509MOL0     C67117   2.860   0.818   7.875 -0.4307  0.4350  0.1425
  509MOL0     C67118   2.756   0.748   7.972 -0.1236  0.3505  0.1400
  509MOL0     C67119   2.834   0.688   8.079  0.7011  0.1077  0.7929
  509MOL0     C67120   2.896   0.640   8.174 -0.8177 -0.0011 -0.0463
  509MOL0     C67121   2.334   0.879   7.887  0.7938 -1.0453  0.0621
  509MOL0     C67122   2.216   0.806   7.917 -0.3109  0.5217 -0.4539
  509MOL0     H67123   2.009   0.231   7.853  0.2949 -0.5414  3.9104
  509MOL0     H67124   1.810   0.125   7.898 -0.5899 -0.6693  0.5068
  509MOL0     H67125   1.553   0.067   7.977  1.7415 -1.2500 -0.5590
  509MOL0     H67126   1.556   0.086   7.802  0.7420 -1.1615  0.8422
  509MOL0     H67127   1.314   0.182   7.821 -2.9054  0.1689  2.4856
  509MOL0     H67128   1.329   0.142   7.986  3.8796  0.7433  0.3431
  509MOL0     H67129   1.364  -0.080   7.965  0.7139  2.7571  0.3945
  509MOL0     H67130   1.367  -0.076   7.782 -0.9323 -0.3284 -1.7487
  509MOL0     H67131   1.128  -0.034   7.976  1.8207  1.0481  1.1289
  509MOL0     H67132   1.124   0.016   7.804  1.4186  0.6620  0.6826
  509MOL0     H67133   1.164  -0.265   7.933  1.2929 -2.5069 -1.1002
  509MOL0     H67134   1.210  -0.241   7.766  0.1005 -2.1973  2.2403
  509MOL0     H67135   0.946  -0.199   7.891  2.4436  0.0946 -0.1518
  509MOL0     H67136   0.994  -0.347   7.793  2.9597 -1.0254 -0.4652
  509MOL0     H67137   0.855  -0.209   7.623  1.9214 -0.5639 -3.6427
  509MOL0     H67138   0.910  -0.071   7.708  0.5713 -1.2006  0.5717
  509MOL0     H67139   1.134  -0.096   7.603 -0.8100  1.1659 -1.1966
  509MOL0     H67140   0.992  -0.069   7.509  0.4356 -0.1039 -0.2799
  509MOL0     H67141   0.917  -0.400   7.496 -0.4107  0.8587  0.6265
  509MOL0     H67142   1.027  -0.652   7.425 -0.5093  1.3515 -0.1393
  509MOL0     H67143   1.202  -0.662   7.378  0.6030  0.0730  2.0205
  509MOL0     H67144   0.961  -0.590   7.207  0.8964  0.8689 -1.0187
  509MOL0     H67145   1.049  -0.736   7.198 -1.7880  0.7881 -2.0772
  509MOL0     H67146   1.148  -0.462   7.117 -0.4533  0.1921  0.0715
  509MOL0     H67147   1.257  -0.596   7.159 -1.7052 -0.5167  2.4021
  509MOL0     H67148   1.145  -0.710   6.943 -2.1759 -0.3686  0.6330
  509MOL0     H67149   1.210  -0.553   6.919 -0.0060 -0.2939 -0.0297
  509MOL0     H67150   0.783  -0.488   7.035 -0.2222 -0.4534  1.7157
  509MOL0     H67151   0.567  -0.623   7.008 -1.4396 -4.2316  0.0875
  509MOL0     H67152   0.247  -0.954   6.856  0.1352 -1.2954  0.4442
  509MOL0     H67153   0.091  -1.127   6.830  0.0805  0.6705  1.2479
  509MOL0     H67154  -0.015  -1.272   6.681 -0.4616 -1.4890 -1.9391
  509MOL0     H67155  -0.009  -1.337   6.844  0.2984  0.9743 -0.3590
  509MOL0     H67156  -0.062  -1.568   6.747  2.4027 -0.6123 -1.9499
  509MOL0     H67157  -0.022  -1.501   6.585  2.0040 -0.6348  0.1636
  509MOL0     H67158  -0.195  -1.341   6.585 -1.1489 -2.2220 -3.4258
  509MOL0     H67159  -0.225  -1.370   6.755  0.5769 -0.4167  0.3487
  509MOL0     H67160  -0.273  -1.599   6.550 -3.7213 -0.9684 -1.6521
  509MOL0     H67161  -0.349  -1.574   6.708 -1.3832 -1.4204 -1.0688
  509MOL0     H67162  -0.517  -1.541   6.529 -2.8357  1.7706 -1.0618
  509MOL0     H67163  -0.407  -1.440   6.440  0.1980 -2.5598 -0.1763
  509MOL0     H67164  -0.418  -1.272   6.621  0.3625 -0.4734 -1.4875
  509MOL0     H67165  -0.507  -1.383   6.724  1.8907  0.9843  0.8767
  509MOL0     H67166  -0.617  -1.285   6.459  1.8160 -1.5409  0.2337
  509MOL0     H67167  -0.691  -1.390   6.579  1.6772 -0.5117  1.1496
  509MOL0     H67168  -0.654  -1.197   6.744 -0.6608 -1.6305 -0.3773
  509MOL0     H67169  -0.793  -1.180   6.618 -0.6744 -1.2657  0.4957
  509MOL0     H67170   0.403  -1.409   6.766 -2.6039  0.0978  3.4066
  509MOL0     H67171   0.575  -1.222   6.791 -1.1584  0.2607 -3.0928
  509MOL0     H67172   0.774  -0.920   6.791  1.0643  1.3001 -0.9247
  509MOL0     H67173   0.990  -0.787   6.816  0.4390  1.6919 -0.4033
  509MOL0     H67174   1.608   0.510   7.878 -1.3067 -1.6512  3.0154
  509MOL0     H67175   1.820   0.621   7.837  1.6796  0.2025  3.3288
  509MOL0     H67176   2.312   0.503   7.775 -2.6201 -0.4486  1.9103
  509MOL0     H67177   2.508   0.631   7.725  1.0851  0.4490  2.1673
  509MOL0     H67178   2.639   0.922   7.615  1.1087  2.2805  1.4463
  509MOL0     H67179   2.658   0.757   7.673 -0.4987 -0.4514  0.9210
  509MOL0     H67180   2.861   0.877   7.663  1.8839  1.3403  1.3537
  509MOL0     H67181   2.818   1.005   7.770 -0.2699  0.0767 -0.9020
  509MOL0     H67182   2.925   0.875   7.942  2.0393  0.2670 -1.9748
  509MOL0     H67183   2.927   0.745   7.830 -0.9255  0.0935 -0.0448
  509MOL0     H67184   2.699   0.824   8.025 -1.4415 -1.0657  0.8228
  509MOL0     H67185   2.689   0.674   7.927  0.2563 -0.4817  0.9128
  509MOL0     H67186   2.957   0.599   8.252  0.2894  1.2911 -0.1820
  509MOL0     H67187   2.347   0.983   7.915  1.7607 -1.5039  1.3696
  509MOL0     H67188   2.126   0.857   7.950 -0.6869  0.0778 -0.7782
  510MOL0     O67189   4.125   6.784   7.508  0.4254  0.2839 -0.3687
  510MOL0     C67190   4.116   6.712   7.407  0.1148 -1.2143 -0.6260
  510MOL0     O67191   4.222   6.679   7.327 -0.1211  0.1859 -0.1013
  510MOL0     C67192   4.353   6.697   7.363  0.3837  0.2095 -0.3443
  510MOL0     C67193   4.409   6.741   7.486 -0.5290 -0.3655 -0.6136
  510MOL0     C67194   4.550   6.750   7.492  0.8552  0.2583 -0.0266
  510MOL0     C67195   4.631   6.712   7.389  0.5568  0.1862 -0.1360
  510MOL0     O67196   4.763   6.733   7.391 -0.0552 -0.2830  0.4236
  510MOL0     C67197   4.850   6.669   7.488 -0.2155  0.3730  0.3913
  510MOL0     C67198   4.999   6.681   7.449  1.5812  0.3722  0.7483
  510MOL0     C67199   5.067   6.558   7.488  0.1387 -0.2950  0.4757
  510MOL0     C67200   5.217   6.576   7.468 -0.3341  0.0013 -0.3533
  510MOL0     C67201   5.307   6.465   7.492 -0.5346  0.0118  0.4421
  510MOL0     C67202   5.444   6.488   7.416 -0.4143  0.0444  0.0786
  510MOL0     C67203   5.562   6.383   7.441  0.5552  0.3861 -0.0522
  510MOL0     C67204   5.601   6.360   7.589  0.3328 -0.3232  0.2004
  510MOL0     N67205   5.706   6.255   7.592  0.2996 -0.7818 -0.7070
  510MOL0     C67206   5.839   6.280   7.575 -0.7279  0.9606  1.0393
  510MOL0     C67207   5.894   6.157   7.580 -1.1849  0.5946  0.0550
  510MOL0     C67208   6.046   6.152   7.570 -0.9640  0.5400  0.1113
  510MOL0     C67209   6.100   6.080   7.694  0.2292 -0.6949 -0.9198
  510MOL0     C67210   6.104   5.928   7.674  0.7738 -0.3764  0.1427
  510MOL0     C67211   6.133   5.858   7.811 -0.3595 -0.1086 -0.0445
  510MOL0     O67212   6.155   5.715   7.799 -0.2399  0.1401  0.1619
  510MOL0     C67213   6.054   5.636   7.769 -0.4411 -0.9125 -0.7376
  510MOL0     C67214   5.948   5.618   7.854 -0.2289  0.2324 -0.9569
  510MOL0     C67215   5.843   5.534   7.821  0.3751  0.3638 -0.9384
  510MOL0     C67216   5.847   5.450   7.713  0.0721  0.4150  0.5292
  510MOL0     C67217   5.742   5.345   7.691  0.8252 -0.0031  0.5906
  510MOL0     O67218   5.636   5.330   7.770  0.9270  0.2825  0.2305
  510MOL0     C67219   5.555   5.214   7.768  0.9145 -0.5792 -0.8083
  510MOL0     C67220   5.575   5.093   7.693  0.2775 -0.6222  0.3921
  510MOL0     C67221   5.493   4.982   7.716 -0.6372  0.4581  0.2008
  510MOL0     C67222   5.381   4.984   7.800  0.4867 -0.2397  0.4265
  510MOL0     O67223   5.289   4.884   7.814 -0.9817 -0.2386 -0.5910
  510MOL0     C67224   5.325   4.756   7.756  0.3848 -0.1035 -0.4638
  510MOL0     C67225   5.195   4.677   7.714  1.1106 -0.1777  0.1133
  510MOL0     C67226   5.132   4.615   7.837 -0.0627 -0.1680 -0.3694
  510MOL0     C67227   4.999   4.562   7.791 -1.4516  0.4790 -0.2636
  510MOL0     C67228   4.909   4.506   7.907 -0.3542 -0.2948 -0.8802
  510MOL0     C67229   4.771   4.476   7.850  1.0247 -1.4076  0.2687
  510MOL0     C67230   4.674   4.446   7.960  0.2178 -0.5461  0.1530
  510MOL0     C67231   4.525   4.439   7.915  0.1509 -0.5715 -0.1390
  510MOL0    Cl67232   4.420   4.386   8.058  0.0500 -0.4466  0.0318
  510MOL0     C67233   5.347   5.103   7.862 -0.7395  0.9816 -0.0958
  510MOL0     C67234   5.429   5.213   7.854  0.1784 -0.5672  0.8881
  510MOL0     O67235   5.771   5.270   7.596  0.1233 -0.9382  0.6495
  510MOL0     C67236   5.960   5.459   7.626  0.2546 -0.2157  0.4115
  510MOL0     C67237   6.062   5.561   7.653  0.2844  1.3969 -0.8060
  510MOL0     N67238   5.798   6.061   7.587 -0.2000  1.2018  0.6840
  510MOL0     N67239   5.682   6.124   7.603  0.1227 -0.1519 -0.7979
  510MOL0     C67240   4.569   6.669   7.274  0.2793  0.2323  0.0346
  510MOL0     C67241   4.433   6.650   7.260  0.3373  0.1002  0.0810
  510MOL0     C67242   3.978   6.677   7.369 -0.7011  0.4757  0.5651
  510MOL0     C67243   3.868   6.686   7.456 -0.2406  1.2530 -0.7697
  510MOL0     C67244   3.740   6.649   7.423  0.4918  0.3020  0.0361
  510MOL0     C67245   3.710   6.618   7.287 -0.0332 -0.0846 -0.7541
  510MOL0     O67246   3.581   6.595   7.263 -0.0955  0.1728 -0.0481
  510MOL0     C67247   3.535   6.568   7.123  1.0015 -0.1472  0.0979
  510MOL0     C67248   3.386   6.542   7.134  0.5207  0.0623  0.6544
  510MOL0     C67249   3.302   6.672   7.153 -0.2769  0.0188 -0.0321
  510MOL0     C67250   3.273   6.747   7.027  0.0385 -0.8694  0.5441
  510MOL0     C67251   3.161   6.829   7.057 -0.0858  0.5791  0.6513
  510MOL0     C67252   3.062   6.892   7.076  0.3021  0.1261 -0.5468
  510MOL0     C67253   3.818   6.604   7.200 -0.1436 -0.0872 -0.1771
  510MOL0     C67254   3.953   6.635   7.243  0.7578  1.0637  0.8161
  510MOL0     H67255   4.359   6.767   7.579  0.7116 -0.8947  0.2372
  510MOL0     H67256   4.601   6.788   7.581 -0.5571  2.0780  0.0652
  510MOL0     H67257   4.829   6.562   7.478  0.8580  0.1392  0.5262
  510MOL0     H67258   4.830   6.710   7.587 -4.7379 -1.3443  0.4638
  510MOL0     H67259   5.034   6.779   7.483 -1.9330  4.1442 -4.7409
  510MOL0     H67260   5.012   6.671   7.341  0.4848 -4.0286  0.8241
  510MOL0     H67261   5.032   6.464   7.446  1.0748 -1.0647  1.3648
  510MOL0     H67262   5.050   6.548   7.596  1.4446 -0.5595  0.6781
  510MOL0     H67263   5.229   6.614   7.366 -2.2451 -3.3974 -2.0204
  510MOL0     H67264   5.260   6.649   7.538  1.5021  0.9192 -2.3346
  510MOL0     H67265   5.256   6.372   7.461  0.3087 -0.3649  0.1675
  510MOL0     H67266   5.326   6.452   7.599 -1.9479  0.5929  0.7977
  510MOL0     H67267   5.483   6.587   7.440  2.5246 -0.7114 -1.1228
  510MOL0     H67268   5.427   6.477   7.309  1.2596  0.9144 -0.3107
  510MOL0     H67269   5.524   6.286   7.408  1.5598 -1.0809  2.7442
  510MOL0     H67270   5.645   6.408   7.375 -0.5245 -1.9918 -2.5049
  510MOL0     H67271   5.512   6.326   7.644  0.8188  0.3854  1.4528
  510MOL0     H67272   5.637   6.455   7.629 -0.6058  0.2596 -0.2939
  510MOL0     H67273   5.875   6.381   7.561 -1.5457  1.1947  0.5594
  510MOL0     H67274   6.096   6.249   7.566  1.6140 -0.7410 -3.0190
  510MOL0     H67275   6.061   6.106   7.472 -3.3781  0.1691 -0.1485
  510MOL0     H67276   6.037   6.108   7.779 -0.8663 -0.1361 -1.8847
  510MOL0     H67277   6.200   6.120   7.711 -0.3894  1.6339 -2.2734
  510MOL0     H67278   6.017   5.881   7.626  0.1455 -0.3999  1.2726
  510MOL0     H67279   6.192   5.913   7.612  1.3275  2.7352  0.0224
  510MOL0     H67280   6.055   5.873   7.886  1.2713  1.8966  1.3603
  510MOL0     H67281   6.225   5.891   7.860 -0.1856 -0.4763 -0.1188
  510MOL0     H67282   5.947   5.670   7.949 -0.3699  0.9804 -1.3595
  510MOL0     H67283   5.766   5.530   7.898 -0.4178 -1.2043 -1.7714
  510MOL0     H67284   5.657   5.084   7.623  0.1033  4.1696 -0.7621
  510MOL0     H67285   5.512   4.894   7.655  0.6889  2.4039 -2.3535
  510MOL0     H67286   5.372   4.688   7.828 -1.6125  0.0537  1.0702
  510MOL0     H67287   5.380   4.747   7.662 -0.3437 -0.1540 -0.8834
  510MOL0     H67288   5.226   4.596   7.647 -0.1473 -0.0943 -0.6124
  510MOL0     H67289   5.121   4.735   7.658 -0.7476  0.0539  2.6470
  510MOL0     H67290   5.112   4.702   7.899  1.4371  0.2891 -0.5043
  510MOL0     H67291   5.186   4.536   7.890 -0.5188  0.1783  0.6353
  510MOL0     H67292   4.942   4.621   7.718 -1.8927 -0.4001 -0.6633
  510MOL0     H67293   5.030   4.473   7.734  1.3494  0.8722  0.5364
  510MOL0     H67294   4.899   4.567   7.998  0.2942 -1.8708  0.2967
  510MOL0     H67295   4.950   4.408   7.935  2.5697 -0.0756 -3.8432
  510MOL0     H67296   4.772   4.395   7.777  0.7957 -0.6162 -0.6367
  510MOL0     H67297   4.727   4.560   7.796 -1.6720 -2.2581  1.0046
  510MOL0     H67298   4.682   4.341   7.991 -3.2858 -1.2101 -0.7056
  510MOL0     H67299   4.679   4.516   8.044 -2.5138 -0.8455  0.6767
  510MOL0     H67300   4.532   4.386   7.820  2.3653  3.0833 -2.2223
  510MOL0     H67301   4.486   4.540   7.901  2.6427  1.0330  2.9741
  510MOL0     H67302   5.262   5.117   7.928  1.1136  0.6918  2.4681
  510MOL0     H67303   5.417   5.306   7.908  2.3908  0.7043 -0.6146
  510MOL0     H67304   5.961   5.396   7.537 -0.0182  1.5399 -0.8972
  510MOL0     H67305   6.138   5.566   7.576  0.7079 -0.5727 -0.5618
  510MOL0     H67306   4.634   6.643   7.191  2.7303  3.8277  0.6081
  510MOL0     H67307   4.381   6.625   7.168 -0.0720 -0.8923  0.5594
  510MOL0     H67308   3.898   6.717   7.556 -0.2407 -2.1977  0.4175
  510MOL0     H67309   3.661   6.660   7.496 -0.7123  1.5739 -1.3671
  510MOL0     H67310   3.590   6.483   7.082  3.4066  0.0738  2.5842
  510MOL0     H67311   3.537   6.656   7.058 -0.1915 -0.1057  0.0925
  510MOL0     H67312   3.355   6.499   7.038  0.7393  0.0666  0.5823
  510MOL0     H67313   3.359   6.464   7.206  1.9548 -1.2552 -0.1743
  510MOL0     H67314   3.352   6.735   7.226  1.2003  0.8547 -1.6921
  510MOL0     H67315   3.209   6.636   7.198  0.1989  0.9590  1.7912
  510MOL0     H67316   3.356   6.810   6.994  1.5582 -2.2033  1.6299
  510MOL0     H67317   3.236   6.688   6.943  0.4184  0.7782 -0.8369
  510MOL0     H67318   2.969   6.934   7.111  0.0645 -0.7792 -0.0537
  510MOL0     H67319   3.808   6.578   7.095  3.6637 -0.2467 -0.6659
  510MOL0     H67320   4.032   6.626   7.170 -0.4550 -0.4591 -0.4061
  511MOL0     O67321   9.954   7.303   5.045 -0.2869  0.1815 -0.4820
  511MOL0     C67322   9.998   7.389   5.124  0.0528  0.0574  0.2332
  511MOL0     O67323   9.926   7.430   5.233 -0.0802  0.4439 -0.7370
  511MOL0     C67324   9.817   7.356   5.261  0.5984 -0.1591 -0.0134
  511MOL0     C67325   9.690   7.381   5.217 -0.7096  0.3621  0.2704
  511MOL0     C67326   9.584   7.291   5.235 -0.2702 -0.2706  0.1244
  511MOL0     C67327   9.603   7.175   5.313  0.0628  0.1625 -0.0723
  511MOL0     O67328   9.491   7.092   5.330  0.1508  0.4479 -1.0954
  511MOL0     C67329   9.487   6.992   5.441 -0.5237  0.5982  0.2518
  511MOL0     C67330   9.389   6.887   5.405 -0.1165  1.2110 -0.0874
  511MOL0     C67331   9.249   6.933   5.446  0.7552 -0.3947  0.5103
  511MOL0     C67332   9.140   6.838   5.397 -0.2341 -0.3184  0.6723
  511MOL0     C67333   8.998   6.889   5.418  1.0422 -0.0856 -0.4068
  511MOL0     C67334   8.883   6.807   5.339  0.1373 -0.0547 -0.9158
  511MOL0     C67335   8.744   6.805   5.405 -0.0069 -0.7414 -0.3597
  511MOL0     C67336   8.671   6.942   5.395 -0.1835  0.5559  0.6481
  511MOL0     N67337   8.520   6.910   5.430  0.2022 -0.1085 -0.5575
  511MOL0     C67338   8.411   6.942   5.348  0.3711 -0.8658  0.2482
  511MOL0     C67339   8.300   6.901   5.415 -0.8003  0.1956 -1.2877
  511MOL0     C67340   8.151   6.922   5.397 -0.0372 -0.4373  0.8211
  511MOL0     C67341   8.084   6.792   5.351  0.5481 -0.2652  0.0059
  511MOL0     C67342   8.140   6.725   5.229 -0.2128 -0.8008  0.0243
  511MOL0     C67343   8.073   6.594   5.203  0.6437 -0.3655 -0.7152
  511MOL0     O67344   8.067   6.582   5.064  0.2628 -0.2526  1.1139
  511MOL0     C67345   7.954   6.610   4.992  0.0363 -0.2922  0.0229
  511MOL0     C67346   7.846   6.682   5.048 -0.7158 -0.0763  0.6206
  511MOL0     C67347   7.719   6.679   4.985 -0.1761  1.2063  0.2110
  511MOL0     C67348   7.712   6.630   4.852  0.4486 -0.7430 -0.1341
  511MOL0     C67349   7.578   6.616   4.785 -0.1944  0.3694  0.4095
  511MOL0     O67350   7.475   6.632   4.881 -0.5239  0.1341 -0.3252
  511MOL0     C67351   7.341   6.646   4.836 -0.2189  0.0027 -1.0807
  511MOL0     C67352   7.282   6.594   4.719 -0.5210 -0.9156 -0.7748
  511MOL0     C67353   7.139   6.616   4.708  0.5023 -0.1757 -0.1731
  511MOL0     C67354   7.068   6.684   4.809  0.1031 -0.0408  0.0833
  511MOL0     O67355   6.928   6.704   4.795 -0.8122  0.8926 -0.1973
  511MOL0     C67356   6.848   6.599   4.749 -0.6332 -0.2255 -0.2640
  511MOL0     C67357   6.801   6.628   4.606  0.7099 -0.3288 -0.0129
  511MOL0     C67358   6.665   6.570   4.581 -0.3057 -1.0020  0.8021
  511MOL0     C67359   6.650   6.577   4.426  0.3561  0.4959  0.4592
  511MOL0     C67360   6.512   6.544   4.363  0.4191  0.1086  0.1406
  511MOL0     C67361   6.410   6.658   4.361 -0.1778 -0.3657  1.0486
  511MOL0     C67362   6.277   6.606   4.302  0.4919 -0.0958  0.1016
  511MOL0     C67363   6.176   6.716   4.308 -0.0171  0.4006  1.0537
  511MOL0    Cl67364   6.016   6.641   4.264 -0.4748 -0.3260  0.1270
  511MOL0     C67365   7.136   6.736   4.910 -0.0468 -0.2940  0.4089
  511MOL0     C67366   7.273   6.722   4.926 -0.6676  0.6005 -0.4723
  511MOL0     O67367   7.560   6.596   4.666 -0.6174  0.4883  0.7377
  511MOL0     C67368   7.831   6.587   4.788 -0.5776 -0.4780 -1.0009
  511MOL0     C67369   7.945   6.566   4.858 -0.4517 -0.2949  1.0103
  511MOL0     N67370   8.354   6.830   5.529 -0.1666 -0.1304 -0.0466
  511MOL0     N67371   8.479   6.841   5.537  0.3949  0.9307 -0.8714
  511MOL0     C67372   9.727   7.144   5.363 -0.0938  0.3187 -0.7087
  511MOL0     C67373   9.834   7.235   5.332 -0.4835  0.8680 -0.4488
  511MOL0     C67374  10.130   7.450   5.096  0.8656  0.3247 -0.0808
  511MOL0     C67375  10.215   7.392   4.996 -0.3670  0.4792 -0.9513
  511MOL0     C67376  10.335   7.449   4.972 -1.4858  0.1005  0.5671
  511MOL0     C67377  10.383   7.562   5.033 -0.8653 -0.3707 -0.2218
  511MOL0     O67378  10.517   7.603   4.998  0.0857 -0.1925 -0.5710
  511MOL0     C67379  10.581   7.698   5.088 -0.9322 -0.1486 -0.1891
  511MOL0     C67380  10.727   7.701   5.048 -1.6847  0.1144  0.9393
  511MOL0     C67381  10.822   7.733   5.164  1.0804 -0.8008  0.0077
  511MOL0     C67382  10.899   7.860   5.128 -1.0974  0.5926  0.3581
  511MOL0     C67383  10.983   7.904   5.247 -0.4601 -0.4458  1.1704
  511MOL0     C67384  11.049   7.908   5.349  0.2323 -0.5067 -0.0202
  511MOL0     C67385  10.307   7.620   5.135 -0.3429  0.6525 -0.3219
  511MOL0     C67386  10.184   7.559   5.163  0.7971  0.5697 -0.2429
  511MOL0     H67387   9.677   7.478   5.168 -1.7471  0.4764  0.7486
  511MOL0     H67388   9.485   7.314   5.197 -0.1944 -1.2551 -0.6959
  511MOL0     H67389   9.454   7.029   5.539 -1.1118 -1.1102  0.7383
  511MOL0     H67390   9.583   6.943   5.460 -0.3925  1.1500  1.0787
  511MOL0     H67391   9.425   6.790   5.441 -0.7285  0.8622 -0.4208
  511MOL0     H67392   9.392   6.867   5.298  2.7162 -2.5902  0.4923
  511MOL0     H67393   9.218   7.028   5.401 -1.6426 -1.3838 -0.0710
  511MOL0     H67394   9.248   6.944   5.555  2.2812  0.9568  0.4285
  511MOL0     H67395   9.167   6.842   5.291 -0.5014  0.9665  0.6409
  511MOL0     H67396   9.146   6.733   5.427  0.3832 -0.7563 -0.8877
  511MOL0     H67397   8.987   6.998   5.410 -4.2222 -0.2268  1.4481
  511MOL0     H67398   8.969   6.869   5.522  0.1150 -1.4374 -0.9052
  511MOL0     H67399   8.912   6.701   5.337 -0.8187 -0.4052  1.0038
  511MOL0     H67400   8.877   6.850   5.239  0.1448  2.1180 -0.0256
  511MOL0     H67401   8.674   6.731   5.363 -1.8509  0.0856  1.1109
  511MOL0     H67402   8.753   6.777   5.510 -0.6541  1.3484  0.2999
  511MOL0     H67403   8.681   6.995   5.299  1.5393  0.3593  0.6853
  511MOL0     H67404   8.705   7.010   5.474 -0.3583  0.5440  0.7332
  511MOL0     H67405   8.400   7.008   5.262  0.3082 -0.6778  0.3984
  511MOL0     H67406   8.144   6.998   5.318  1.3731 -0.5503  0.5676
  511MOL0     H67407   8.105   6.961   5.489 -2.7726  0.5317 -0.8104
  511MOL0     H67408   7.976   6.808   5.343 -0.0842 -3.6227  0.4990
  511MOL0     H67409   8.100   6.730   5.439 -0.1043  0.7388  0.8481
  511MOL0     H67410   8.123   6.793   5.145 -3.7748  0.4329  1.5083
  511MOL0     H67411   8.247   6.704   5.231  0.1873  1.0692 -0.0652
  511MOL0     H67412   7.973   6.595   5.246  0.8727  1.7871 -0.1006
  511MOL0     H67413   8.139   6.514   5.239  0.4569 -0.2702 -0.1460
  511MOL0     H67414   7.846   6.740   5.140 -0.9408  1.6048 -0.3960
  511MOL0     H67415   7.636   6.724   5.038 -0.1267  1.4465  0.0867
  511MOL0     H67416   7.328   6.521   4.652  0.8833 -1.8064  1.0826
  511MOL0     H67417   7.092   6.589   4.614 -0.7597 -0.4525  0.5115
  511MOL0     H67418   6.767   6.612   4.821  0.9870  4.9760  1.0849
  511MOL0     H67419   6.889   6.499   4.766  1.5390  0.7182  0.5331
  511MOL0     H67420   6.867   6.594   4.526  0.6085 -0.2002 -0.1503
  511MOL0     H67421   6.792   6.736   4.597  1.3718 -0.0276  2.2931
  511MOL0     H67422   6.589   6.628   4.633  2.5478  2.9304  1.0714
  511MOL0     H67423   6.671   6.465   4.610 -0.5792 -0.7100  1.9666
  511MOL0     H67424   6.684   6.676   4.393  0.6880 -0.0991 -1.0983
  511MOL0     H67425   6.710   6.494   4.386 -1.3881 -0.5226 -0.1217
  511MOL0     H67426   6.460   6.464   4.417 -1.7151  1.3834  0.0859
  511MOL0     H67427   6.533   6.514   4.260 -1.4603 -1.3067  0.1072
  511MOL0     H67428   6.442   6.737   4.293 -0.6362  0.3169  1.6053
  511MOL0     H67429   6.396   6.708   4.458 -0.1942 -1.1636  1.4686
  511MOL0     H67430   6.290   6.585   4.196 -0.6984  3.1432 -0.8109
  511MOL0     H67431   6.235   6.518   4.352  1.4540 -0.3271  0.5315
  511MOL0     H67432   6.207   6.798   4.243  2.4977 -0.9950  0.3391
  511MOL0     H67433   6.172   6.746   4.413  0.2290 -2.8388  2.0961
  511MOL0     H67434   7.081   6.799   4.979  3.0429  3.1065  0.0921
  511MOL0     H67435   7.326   6.767   5.009  0.3749  2.3683 -2.0233
  511MOL0     H67436   7.825   6.549   4.687 -3.7914 -0.2873 -1.0051
  511MOL0     H67437   8.024   6.505   4.814 -1.6170 -1.4572  0.4626
  511MOL0     H67438   9.749   7.055   5.421  1.0067  1.6546  1.0205
  511MOL0     H67439   9.934   7.211   5.367 -0.3874  3.6980  1.5382
  511MOL0     H67440  10.192   7.305   4.934 -0.8416  0.5713 -0.9063
  511MOL0     H67441  10.408   7.400   4.908 -1.5065 -1.0310  1.3751
  511MOL0     H67442  10.574   7.663   5.192  1.2862  2.1159  0.8325
  511MOL0     H67443  10.532   7.795   5.075  0.8322  0.7178 -0.5452
  511MOL0     H67444  10.757   7.602   5.012 -2.5404  0.1883 -0.0273
  511MOL0     H67445  10.762   7.761   4.963  1.5703 -0.7162  1.5497
  511MOL0     H67446  10.884   7.645   5.186  2.5162 -0.3863 -2.0710
  511MOL0     H67447  10.750   7.761   5.241  1.2929  3.0545 -0.9977
  511MOL0     H67448  10.950   7.836   5.033 -0.2260 -2.4252  1.4781
  511MOL0     H67449  10.831   7.944   5.112 -0.4153  1.2833  1.0069
  511MOL0     H67450  11.099   7.897   5.443 -0.3867  0.6940  0.4813
  511MOL0     H67451  10.341   7.702   5.197 -1.7343  0.8826  0.1690
  511MOL0     H67452  10.119   7.601   5.240  0.4639  2.0157 -1.2788
  512MOL0     O67453   8.640   0.790   8.304  0.7190  0.1612 -0.2551
  512MOL0     C67454   8.706   0.885   8.257  0.3809  1.1156  0.4755
  512MOL0     O67455   8.671   1.010   8.242 -0.6014 -0.0285  0.4234
  512MOL0     C67456   8.544   1.069   8.270  0.2839  0.9676  0.3840
  512MOL0     C67457   8.533   1.205   8.271 -0.9006 -0.0362 -0.7402
  512MOL0     C67458   8.411   1.277   8.280 -1.1192 -0.3309  0.0471
  512MOL0     C67459   8.297   1.210   8.314 -0.1455  0.1577  0.9819
  512MOL0     O67460   8.179   1.276   8.330 -0.3959 -0.7602  0.4878
  512MOL0     C67461   8.109   1.230   8.453  0.1754  0.0682  0.3461
  512MOL0     C67462   7.999   1.340   8.464  0.7019  0.1157 -0.0837
  512MOL0     C67463   7.933   1.330   8.606  0.2615  0.2715  0.3843
  512MOL0     C67464   7.827   1.437   8.633 -0.2046 -0.6517  0.5932
  512MOL0     C67465   7.734   1.396   8.744  0.3290  0.7466 -1.3437
  512MOL0     C67466   7.613   1.495   8.779 -0.0329 -0.4056 -0.4510
  512MOL0     C67467   7.514   1.438   8.884 -0.0731 -0.5330  0.6223
  512MOL0     C67468   7.569   1.410   9.024 -0.9925  0.7469  0.6320
  512MOL0     N67469   7.464   1.389   9.124 -0.4927 -1.0685  0.2660
  512MOL0     C67470   7.342   1.335   9.104 -0.9271  0.2126 -0.5597
  512MOL0     C67471   7.281   1.346   9.230 -1.0742 -0.4069 -0.6102
  512MOL0     C67472   7.143   1.302   9.268 -0.1633  0.3902  0.3074
  512MOL0     C67473   7.076   1.401   9.371  0.2063  0.4222  0.7143
  512MOL0     C67474   6.926   1.391   9.390  0.9193 -0.3038 -0.0806
  512MOL0     C67475   6.842   1.437   9.274 -0.2363  0.9747  0.4909
  512MOL0     O67476   6.726   1.350   9.269  0.0223  0.4990 -0.2034
  512MOL0     C67477   6.604   1.416   9.269 -0.3970  0.1938 -0.2469
  512MOL0     C67478   6.561   1.473   9.387  0.2475 -0.9729  0.1003
  512MOL0     C67479   6.440   1.537   9.384 -0.0108 -0.0652  0.2089
  512MOL0     C67480   6.367   1.536   9.267  0.3987  0.7774 -0.3775
  512MOL0     C67481   6.224   1.571   9.267  0.4559 -0.2097 -0.9049
  512MOL0     O67482   6.157   1.553   9.149  0.9822 -0.2886 -0.3300
  512MOL0     C67483   6.027   1.588   9.131 -0.1456  0.3389  1.0294
  512MOL0     C67484   5.934   1.630   9.230  0.1601 -0.4761 -0.8207
  512MOL0     C67485   5.796   1.648   9.190 -0.2977  0.1744  0.4214
  512MOL0     C67486   5.747   1.610   9.068  0.6553  0.4389  0.3229
  512MOL0     O67487   5.617   1.617   9.039 -0.0727  0.2104  0.1957
  512MOL0     C67488   5.559   1.578   8.904  0.7883 -0.1396 -0.0036
  512MOL0     C67489   5.411   1.600   8.900  0.0604 -0.3380  0.3172
  512MOL0     C67490   5.365   1.743   8.898 -0.4248 -1.0033  0.1461
  512MOL0     C67491   5.215   1.750   8.862 -0.4993 -0.6909 -0.2977
  512MOL0     C67492   5.145   1.880   8.884  0.3306 -0.4327  0.2596
  512MOL0     C67493   5.015   1.891   8.809 -0.2059  0.2380  0.1527
  512MOL0     C67494   4.956   2.032   8.841 -0.4044  0.1079  0.2063
  512MOL0     C67495   4.821   2.034   8.768 -0.8359 -0.4014  0.9904
  512MOL0    Cl67496   4.745   2.192   8.807  0.0046 -0.1881 -0.1015
  512MOL0     C67497   5.837   1.543   8.981  1.2404  0.1538  0.3688
  512MOL0     C67498   5.977   1.539   9.008 -0.8388 -0.1713  0.6577
  512MOL0     O67499   6.175   1.602   9.378 -0.0540 -0.7111  0.4160
  512MOL0     C67500   6.411   1.481   9.153 -0.1426 -0.3270 -0.7525
  512MOL0     C67501   6.530   1.412   9.160 -0.2531  1.1451  0.6800
  512MOL0     N67502   7.373   1.420   9.308  1.4299 -0.4803 -0.0774
  512MOL0     N67503   7.474   1.450   9.245 -0.2205 -0.1375  0.5421
  512MOL0     C67504   8.308   1.069   8.322  0.7938 -0.0578  0.7444
  512MOL0     C67505   8.423   1.000   8.292 -0.0745  0.1983  1.2062
  512MOL0     C67506   8.849   0.849   8.229  0.5259 -1.1127 -0.4704
  512MOL0     C67507   8.936   0.947   8.184  0.5478  0.3617 -0.4364
  512MOL0     C67508   9.062   0.920   8.163  0.0964  0.0231 -0.1716
  512MOL0     C67509   9.113   0.785   8.172 -0.1489  0.5594 -0.0412
  512MOL0     O67510   9.244   0.766   8.131 -0.5017  0.2268  0.0383
  512MOL0     C67511   9.250   0.716   8.003  0.7744 -0.4345  0.5563
  512MOL0     C67512   9.390   0.777   7.936  0.0958 -0.5353 -0.8569
  512MOL0     C67513   9.432   0.687   7.814  0.6360 -0.9660 -0.6994
  512MOL0     C67514   9.576   0.719   7.745  0.9088 -0.1318  0.4118
  512MOL0     C67515   9.679   0.682   7.844 -0.2933  0.3841  0.6811
  512MOL0     C67516   9.761   0.641   7.924  1.2488  0.3730 -0.2073
  512MOL0     C67517   9.020   0.680   8.211 -0.1685 -0.6437 -0.5426
  512MOL0     C67518   8.886   0.709   8.236  0.5262 -0.5801  0.0604
  512MOL0     H67519   8.626   1.256   8.251  0.7534 -2.7420 -0.3103
  512MOL0     H67520   8.417   1.384   8.266 -0.5940 -0.3984 -0.2807
  512MOL0     H67521   8.173   1.223   8.541  1.6716 -0.9175 -0.7845
  512MOL0     H67522   8.067   1.129   8.442  0.1969 -0.1583  2.1247
  512MOL0     H67523   7.927   1.329   8.382 -0.6676  0.1143  1.0750
  512MOL0     H67524   8.059   1.431   8.455 -1.8974  1.8444 -1.4105
  512MOL0     H67525   8.006   1.339   8.687 -1.0863  2.2929  1.4523
  512MOL0     H67526   7.885   1.232   8.609 -1.5610  1.1109 -0.0482
  512MOL0     H67527   7.876   1.528   8.668 -0.3637 -0.7233  1.0106
  512MOL0     H67528   7.788   1.460   8.534  1.1207 -0.9055  0.0039
  512MOL0     H67529   7.787   1.367   8.835 -1.7643  0.1869 -0.2186
  512MOL0     H67530   7.686   1.305   8.706 -1.8714  2.0520 -1.9201
  512MOL0     H67531   7.553   1.497   8.688 -4.6437 -2.1926  2.2256
  512MOL0     H67532   7.649   1.597   8.799  0.7269 -1.0851  1.9782
  512MOL0     H67533   7.425   1.501   8.884 -0.1258 -0.5791 -0.7988
  512MOL0     H67534   7.486   1.335   8.860  0.5252 -0.9102  1.5109
  512MOL0     H67535   7.634   1.493   9.055 -0.3682  0.3876  0.3167
  512MOL0     H67536   7.642   1.328   9.018  1.1948  2.6472 -0.2551
  512MOL0     H67537   7.297   1.288   9.017 -2.8488 -3.2213  2.0288
  512MOL0     H67538   7.147   1.197   9.299  0.1252  0.8078  1.7435
  512MOL0     H67539   7.078   1.295   9.180 -1.1190 -0.8723  1.0770
  512MOL0     H67540   7.108   1.495   9.326 -3.5111  1.2161 -0.5879
  512MOL0     H67541   7.135   1.381   9.461  0.9800  2.6542  0.7538
  512MOL0     H67542   6.892   1.292   9.421 -1.9320  1.3671  2.7946
  512MOL0     H67543   6.899   1.449   9.479 -3.9439 -1.2671 -0.6626
  512MOL0     H67544   6.889   1.433   9.175  0.9642 -0.4363  1.1002
  512MOL0     H67545   6.819   1.544   9.283 -0.2187  1.0571 -0.3132
  512MOL0     H67546   6.619   1.468   9.479 -0.9428 -0.7369  0.8889
  512MOL0     H67547   6.392   1.566   9.477  0.4053  0.4963  0.2590
  512MOL0     H67548   5.965   1.674   9.324  3.2455 -0.2629 -1.8497
  512MOL0     H67549   5.727   1.699   9.257 -0.1093  0.0630  0.7045
  512MOL0     H67550   5.582   1.475   8.874  2.5281  0.9112 -2.6595
  512MOL0     H67551   5.604   1.640   8.826 -1.2182 -0.2420 -1.2963
  512MOL0     H67552   5.376   1.546   8.988  2.2289  0.6314  1.8395
  512MOL0     H67553   5.376   1.551   8.808  1.2047 -0.3784 -0.1155
  512MOL0     H67554   5.417   1.790   8.814 -1.5018  0.6751  0.3798
  512MOL0     H67555   5.394   1.800   8.987 -0.6472  0.4971 -0.7101
  512MOL0     H67556   5.216   1.724   8.756  3.2395  1.9030 -1.1111
  512MOL0     H67557   5.168   1.675   8.927 -1.3009 -0.7834 -0.9659
  512MOL0     H67558   5.208   1.964   8.854  1.4858  0.1911  3.9505
  512MOL0     H67559   5.131   1.899   8.990  0.0742 -1.7551  0.4890
  512MOL0     H67560   4.956   1.817   8.862  0.2221  2.6967  4.5072
  512MOL0     H67561   5.022   1.864   8.703 -1.8332  0.4045 -0.0129
  512MOL0     H67562   4.935   2.043   8.947 -0.4914 -1.7119  0.4166
  512MOL0     H67563   5.025   2.111   8.811 -1.5678  1.5785  1.2916
  512MOL0     H67564   4.749   1.958   8.798  0.5630 -1.4889  1.7084
  512MOL0     H67565   4.837   2.029   8.660 -0.6271 -0.2962  1.0156
  512MOL0     H67566   5.811   1.493   8.888  3.3146  0.0054 -0.1828
  512MOL0     H67567   6.038   1.481   8.940 -1.4277 -1.8917  1.5295
  512MOL0     H67568   6.368   1.494   9.054 -0.5902  0.3247 -0.4811
  512MOL0     H67569   6.553   1.350   9.074 -0.5917  3.3264 -1.0611
  512MOL0     H67570   8.215   1.015   8.313  0.6327  0.3896 -0.4340
  512MOL0     H67571   8.415   0.896   8.263 -0.4285  0.6569 -0.4693
  512MOL0     H67572   8.919   1.053   8.169  1.9989  0.6269 -0.2706
  512MOL0     H67573   9.132   0.998   8.135  0.6850  0.6159  2.5726
  512MOL0     H67574   9.169   0.752   7.939  0.5541 -2.1313 -0.1807
  512MOL0     H67575   9.237   0.607   7.996  2.1715 -0.5325 -1.4004
  512MOL0     H67576   9.385   0.882   7.905 -2.7156 -0.6923 -1.2819
  512MOL0     H67577   9.467   0.776   8.013 -1.2257 -0.6913  0.5278
  512MOL0     H67578   9.362   0.710   7.733  0.5073  0.7723 -0.1309
  512MOL0     H67579   9.418   0.581   7.840 -3.1890 -0.6786 -1.0478
  512MOL0     H67580   9.603   0.666   7.653  2.9839 -0.3794  1.1279
  512MOL0     H67581   9.578   0.828   7.734  0.8645  0.2534  3.4511
  512MOL0     H67582   9.841   0.607   7.987  1.5299  1.8903  0.3053
  512MOL0     H67583   9.066   0.584   8.233  1.7675  0.3194 -0.2160
  512MOL0     H67584   8.811   0.635   8.263  2.9184 -2.4106  2.1721
  513MOL0     O67585  10.808   4.372   8.880  0.3752  0.4088  0.0787
  513MOL0     C67586  10.862   4.263   8.883  0.0413  0.7520 -0.2128
  513MOL0     O67587  10.818   4.149   8.949 -0.2098 -0.0551 -0.5965
  513MOL0     C67588  10.691   4.157   9.022 -0.8778  0.6343 -0.7079
  513MOL0     C67589  10.563   4.172   8.956  0.0245  0.1985 -0.0561
  513MOL0     C67590  10.438   4.176   9.027 -0.0556  0.3117  0.6724
  513MOL0     C67591  10.441   4.169   9.168  0.9600 -0.3393 -0.0497
  513MOL0     O67592  10.330   4.178   9.239  1.0126  0.0913 -0.0150
  513MOL0     C67593  10.203   4.166   9.177  0.3602 -0.3457 -0.4568
  513MOL0     C67594  10.102   4.167   9.290 -0.1363 -0.0731 -0.0622
  513MOL0     C67595   9.968   4.215   9.239  0.4965  0.5958 -0.7799
  513MOL0     C67596   9.854   4.201   9.338 -0.5610  0.7493 -1.1238
  513MOL0     C67597   9.884   4.241   9.485  0.6165  0.6598 -0.6065
  513MOL0     C67598   9.771   4.209   9.589 -0.1065  1.9915  0.3739
  513MOL0     C67599   9.800   4.296   9.715 -0.3091  0.0458  0.0086
  513MOL0     C67600   9.768   4.221   9.846 -0.7625  0.2094  0.2260
  513MOL0     N67601   9.630   4.191   9.883  0.1952  0.3806  0.9108
  513MOL0     C67602   9.536   4.286   9.859 -0.4316 -0.2881 -0.2837
  513MOL0     C67603   9.421   4.218   9.878 -0.3660  0.7488  0.2618
  513MOL0     C67604   9.285   4.268   9.894 -0.6091 -0.2714  0.2199
  513MOL0     C67605   9.265   4.390   9.798 -0.3928  0.9748 -0.1876
  513MOL0     C67606   9.134   4.456   9.815 -0.6469 -0.3541 -0.1391
  513MOL0     C67607   9.019   4.359   9.791 -0.1916  0.4457 -0.7312
  513MOL0     O67608   8.891   4.414   9.827  0.7430 -0.5178  0.0362
  513MOL0     C67609   8.774   4.338   9.836 -0.7968 -0.3471  0.8593
  513MOL0     C67610   8.763   4.206   9.778  0.0096 -0.5283  0.4311
  513MOL0     C67611   8.642   4.140   9.777 -0.2549  1.0745 -0.1068
  513MOL0     C67612   8.526   4.198   9.831  0.4833 -0.0276  0.8807
  513MOL0     C67613   8.401   4.118   9.831 -1.3646  0.3914  0.3260
  513MOL0     O67614   8.293   4.188   9.816  0.1606  0.2364  0.4377
  513MOL0     C67615   8.161   4.150   9.843  0.6513  0.3872 -0.1152
  513MOL0     C67616   8.124   4.033   9.909 -0.0981 -0.0062  0.0590
  513MOL0     C67617   7.997   4.020   9.946  0.9285  1.0345 -0.3799
  513MOL0     C67618   7.887   4.104   9.924  0.1984  0.0570 -0.8181
  513MOL0     O67619   7.747   4.079   9.967 -0.1973 -0.4732  0.3769
  513MOL0     C67620   7.734   3.964  10.039  0.0124 -0.0223  0.4377
  513MOL0     C67621   7.591   3.944  10.065  0.4375 -0.9019 -0.6709
  513MOL0     C67622   7.491   3.933   9.953 -0.0414  0.3701  0.5283
  513MOL0     C67623   7.343   3.947  10.003 -0.0519 -0.8439  0.1692
  513MOL0     C67624   7.234   3.931   9.893 -0.4689  0.2652  0.8212
  513MOL0     C67625   7.095   3.940   9.954 -0.1761 -0.6686 -0.6945
  513MOL0     C67626   6.981   3.904   9.851  0.3564 -0.2911 -0.2469
  513MOL0     C67627   6.962   4.026   9.751 -0.0550 -0.2671 -0.7763
  513MOL0    Cl67628   6.860   4.149   9.847  0.4038  0.0767  0.2170
  513MOL0     C67629   7.930   4.223   9.866  0.1302 -0.2220 -0.6742
  513MOL0     C67630   8.056   4.239   9.821 -0.5047 -0.1170 -0.0813
  513MOL0     O67631   8.408   3.993   9.829  0.2337 -0.2538  0.2141
  513MOL0     C67632   8.543   4.313   9.899  0.6766  0.2326 -0.4264
  513MOL0     C67633   8.661   4.389   9.889  0.2780 -0.2071  0.8048
  513MOL0     N67634   9.451   4.083   9.899  0.1563  0.5484  0.1248
  513MOL0     N67635   9.578   4.063   9.896  0.0575  0.9444 -0.3405
  513MOL0     C67636  10.575   4.150   9.231  1.3442 -0.3742 -0.6085
  513MOL0     C67637  10.695   4.141   9.161 -0.4716  0.3415 -0.2116
  513MOL0     C67638  10.990   4.244   8.798 -0.8001 -0.1926 -0.3557
  513MOL0     C67639  11.057   4.355   8.746  0.6445  0.2226 -0.3357
  513MOL0     C67640  11.163   4.337   8.657 -0.1027 -0.2543 -0.9399
  513MOL0     C67641  11.200   4.214   8.607  0.3588 -0.0533 -1.0407
  513MOL0     O67642  11.309   4.195   8.531  0.1402 -0.0011 -0.9004
  513MOL0     C67643  11.417   4.277   8.555  0.0718 -0.3540 -0.2804
  513MOL0     C67644  11.540   4.225   8.486 -0.5649 -0.8131  0.1463
  513MOL0     C67645  11.668   4.310   8.506 -0.3698  0.0826 -0.4419
  513MOL0     C67646  11.780   4.235   8.428 -0.5540 -0.1568  0.1157
  513MOL0     C67647  11.902   4.324   8.425 -0.9347 -0.3683 -0.2341
  513MOL0     C67648  12.010   4.387   8.429 -0.4038 -1.4787  0.0315
  513MOL0     C67649  11.127   4.100   8.652  0.1652 -0.2992  0.8411
  513MOL0     C67650  11.019   4.117   8.742 -0.5668  0.3851 -0.0572
  513MOL0     H67651  10.575   4.176   8.848  1.6810  1.4185  0.1327
  513MOL0     H67652  10.347   4.185   8.968  1.4831  4.1676 -1.4333
  513MOL0     H67653  10.197   4.080   9.110 -0.4207  0.9145 -2.0955
  513MOL0     H67654  10.194   4.258   9.118  0.4939 -2.7025 -4.5367
  513MOL0     H67655  10.138   4.236   9.367 -0.0026  2.4266 -2.2115
  513MOL0     H67656  10.094   4.069   9.337 -2.6146  0.2130  0.2146
  513MOL0     H67657   9.925   4.173   9.148 -1.2574  1.2840 -0.3023
  513MOL0     H67658   9.991   4.319   9.212  1.8948  0.0059 -2.0407
  513MOL0     H67659   9.778   4.274   9.310 -1.9948 -0.0279  0.5679
  513MOL0     H67660   9.806   4.103   9.338 -1.3099  1.1125 -0.5990
  513MOL0     H67661   9.902   4.347   9.502  2.1450  0.1752  1.2056
  513MOL0     H67662   9.974   4.186   9.516  1.0103  0.9777 -1.1713
  513MOL0     H67663   9.790   4.106   9.619  0.1348  2.1897  0.9305
  513MOL0     H67664   9.674   4.222   9.541  0.9007  1.7860 -1.8021
  513MOL0     H67665   9.905   4.326   9.713 -0.6238  1.2668  0.6423
  513MOL0     H67666   9.732   4.381   9.716  1.0581  1.1793  1.8219
  513MOL0     H67667   9.799   4.287   9.927  2.7693  0.4821 -1.1822
  513MOL0     H67668   9.825   4.128   9.850 -0.1344  0.5515 -0.5266
  513MOL0     H67669   9.545   4.393   9.851 -1.9538  0.0468  1.5983
  513MOL0     H67670   9.268   4.298   9.998 -0.1744  2.0353 -0.3319
  513MOL0     H67671   9.211   4.201   9.848 -1.5453  2.3431 -2.3931
  513MOL0     H67672   9.282   4.370   9.692  1.4087 -0.0535  0.2683
  513MOL0     H67673   9.337   4.464   9.834 -2.5693  1.5488  3.6408
  513MOL0     H67674   9.135   4.514   9.907 -2.4039 -0.8436  0.2285
  513MOL0     H67675   9.139   4.536   9.740  4.5627  1.5088  1.7677
  513MOL0     H67676   9.026   4.260   9.837  0.6822  0.3256 -1.0942
  513MOL0     H67677   9.019   4.336   9.684 -1.6192  1.4869 -0.9776
  513MOL0     H67678   8.846   4.157   9.729 -0.2973 -1.4660  0.8261
  513MOL0     H67679   8.628   4.050   9.717 -0.2730  1.5633 -0.8596
  513MOL0     H67680   8.198   3.957   9.931 -1.2720 -1.4362 -0.8178
  513MOL0     H67681   7.971   3.932  10.003 -0.5870  0.6427 -1.6077
  513MOL0     H67682   7.790   3.976  10.132  0.1894  2.2371  0.0967
  513MOL0     H67683   7.781   3.875   9.995  0.6746 -0.1813  1.4304
  513MOL0     H67684   7.566   4.031  10.128  2.1205 -0.2152 -0.8951
  513MOL0     H67685   7.578   3.855  10.127  1.9266  1.1630  3.0075
  513MOL0     H67686   7.510   3.832   9.915  0.8114  0.5194  0.5464
  513MOL0     H67687   7.506   4.005   9.872 -5.0008  2.4170  1.0667
  513MOL0     H67688   7.326   3.867  10.075 -0.7711  1.3448  2.5566
  513MOL0     H67689   7.336   4.042  10.056  0.5284 -0.3762 -0.5629
  513MOL0     H67690   7.240   3.829   9.854 -5.6574  0.3261 -0.8558
  513MOL0     H67691   7.252   4.000   9.810  3.0615  0.7125  1.8023
  513MOL0     H67692   7.070   4.042   9.983 -2.5235 -1.2955 -0.3043
  513MOL0     H67693   7.089   3.870  10.039  1.5267 -0.7822 -0.6375
  513MOL0     H67694   7.007   3.812   9.798 -0.5371 -0.0639 -1.0951
  513MOL0     H67695   6.884   3.899   9.900  0.2943 -1.0994 -0.4369
  513MOL0     H67696   6.903   4.001   9.663  1.7599 -0.1522 -2.0745
  513MOL0     H67697   7.058   4.069   9.720 -1.6184  2.2135 -2.4804
  513MOL0     H67698   7.859   4.305   9.863  0.8538  0.6672  2.8017
  513MOL0     H67699   8.093   4.333   9.782 -1.3996  0.2467 -0.0589
  513MOL0     H67700   8.462   4.350   9.960  0.7214 -1.5403  0.7966
  513MOL0     H67701   8.664   4.488   9.934  2.3289  0.6083 -0.9149
  513MOL0     H67702  10.589   4.162   9.338  1.6517  0.6642 -0.7513
  513MOL0     H67703  10.795   4.135   9.203  0.6449  0.5544 -2.6668
  513MOL0     H67704  11.024   4.453   8.780 -0.1583 -0.7774  1.9827
  513MOL0     H67705  11.205   4.425   8.610  0.1047 -0.1744 -0.6031
  513MOL0     H67706  11.442   4.267   8.662  0.0405 -0.1422 -0.2525
  513MOL0     H67707  11.399   4.383   8.532 -0.1820  0.0601  1.5782
  513MOL0     H67708  11.550   4.124   8.527  0.7330 -2.0093 -2.8193
  513MOL0     H67709  11.524   4.214   8.378 -2.6949 -0.1442  0.3353
  513MOL0     H67710  11.700   4.315   8.611  0.7950  2.1331 -0.8228
  513MOL0     H67711  11.663   4.413   8.468  2.5359  0.3572 -0.3640
  513MOL0     H67712  11.801   4.144   8.485 -0.7097  1.0033  2.1159
  513MOL0     H67713  11.759   4.216   8.322  0.0958  2.5530 -0.5747
  513MOL0     H67714  12.097   4.448   8.444  0.2254 -2.4405  0.4529
  513MOL0     H67715  11.154   3.998   8.629  0.0367 -0.7601  2.6450
  513MOL0     H67716  10.956   4.032   8.771 -0.6459  0.2032 -0.7475
  514MOL0     O67717   7.758   2.132  10.236  0.8007  0.3603 -0.6314
  514MOL0     C67718   7.840   2.051  10.196  0.1282  0.8796  1.0195
  514MOL0     O67719   7.814   1.913  10.187  0.8798 -0.1139  0.4943
  514MOL0     C67720   7.684   1.875  10.201  0.2741 -0.5179  0.5247
  514MOL0     C67721   7.623   1.885  10.332  0.0443  0.1261  1.2107
  514MOL0     C67722   7.487   1.852  10.358 -1.0266 -0.1109  0.4028
  514MOL0     C67723   7.413   1.800  10.251 -0.5686 -0.6735  0.1151
  514MOL0     O67724   7.279   1.763  10.255  0.2452  0.5048  0.3535
  514MOL0     C67725   7.218   1.724  10.378  0.6441 -0.4250 -0.0148
  514MOL0     C67726   7.061   1.704  10.381  0.0231  0.1233 -0.0565
  514MOL0     C67727   7.010   1.561  10.358  0.8729 -1.0787 -0.0302
  514MOL0     C67728   6.859   1.533  10.333 -0.2378  0.3473 -0.5465
  514MOL0     C67729   6.770   1.602  10.435 -0.1096  0.0095 -0.3803
  514MOL0     C67730   6.622   1.560  10.419  0.3174  0.3374  0.3429
  514MOL0     C67731   6.529   1.640  10.500 -0.5634  0.0300 -0.5291
  514MOL0     C67732   6.388   1.596  10.477 -0.3393  0.2624 -0.1835
  514MOL0     N67733   6.357   1.474  10.559  0.1968 -0.0790 -0.5267
  514MOL0     C67734   6.304   1.480  10.685  0.1612  0.3904 -0.1334
  514MOL0     C67735   6.272   1.347  10.717  0.2791  0.4275  0.6612
  514MOL0     C67736   6.194   1.292  10.830 -0.7237  0.2392  1.4240
  514MOL0     C67737   6.047   1.340  10.826 -0.1219 -0.3093 -0.0631
  514MOL0     C67738   5.977   1.364  10.687 -0.2430  0.4414  0.1031
  514MOL0     C67739   5.829   1.375  10.709 -0.4751  0.2210  0.1055
  514MOL0     O67740   5.761   1.345  10.586  0.0694 -0.0928 -0.1894
  514MOL0     C67741   5.624   1.353  10.593  0.1912  0.3882 -0.6554
  514MOL0     C67742   5.542   1.255  10.660  0.2373  0.1597  0.3580
  514MOL0     C67743   5.399   1.264  10.641  0.6372  0.4761  1.0073
  514MOL0     C67744   5.329   1.359  10.562 -0.2598 -0.4872  0.7425
  514MOL0     C67745   5.182   1.362  10.539  0.8568  0.5070  0.2695
  514MOL0     O67746   5.119   1.251  10.587 -0.1758 -0.0742  0.2745
  514MOL0     C67747   4.984   1.225  10.560  0.0325 -0.8061  0.4231
  514MOL0     C67748   4.883   1.325  10.535 -0.2424  0.5561 -0.2335
  514MOL0     C67749   4.744   1.292  10.536  0.1118 -0.8626  0.1747
  514MOL0     C67750   4.702   1.164  10.570  0.3743  0.1557 -0.9171
  514MOL0     O67751   4.568   1.130  10.570 -0.0498 -0.2089 -0.2465
  514MOL0     C67752   4.494   1.199  10.666 -0.0918  0.2029  0.9206
  514MOL0     C67753   4.435   1.110  10.769  0.4238 -0.6955 -0.9095
  514MOL0     C67754   4.348   1.195  10.858 -0.0483  0.2388  0.3326
  514MOL0     C67755   4.307   1.113  10.981  0.2884  1.1716  0.1086
  514MOL0     C67756   4.230   0.980  10.945  0.3737 -0.4741  0.0279
  514MOL0     C67757   4.163   0.902  11.068 -0.0752 -0.0120 -0.7934
  514MOL0     C67758   4.135   0.757  11.021 -0.1854 -0.2945 -0.0654
  514MOL0     C67759   4.050   0.667  11.116 -0.3627 -0.4889  0.3933
  514MOL0    Cl67760   3.868   0.692  11.098 -0.3878 -0.0515  0.2974
  514MOL0     C67761   4.804   1.070  10.623 -0.2269  0.1480 -0.6114
  514MOL0     C67762   4.940   1.107  10.612 -0.2648  0.0298 -0.8169
  514MOL0     O67763   5.132   1.458  10.489  0.4993 -0.1654 -0.5847
  514MOL0     C67764   5.415   1.452  10.493 -0.1547 -0.0232  0.3943
  514MOL0     C67765   5.551   1.445  10.514  0.2198 -0.3910  1.7405
  514MOL0     N67766   6.309   1.270  10.605 -0.5802  0.1562  0.2592
  514MOL0     N67767   6.362   1.345  10.517  0.9439  0.2682 -0.2975
  514MOL0     C67768   7.468   1.790  10.114 -0.3145  0.1711 -0.1729
  514MOL0     C67769   7.602   1.836  10.099 -0.5160 -0.3144 -0.4858
  514MOL0     C67770   7.984   2.091  10.175 -0.2277  0.3961  0.1738
  514MOL0     C67771   8.084   1.999  10.140  0.1048 -0.1933 -0.9253
  514MOL0     C67772   8.216   2.042  10.107 -0.6901 -0.6696 -0.6626
  514MOL0     C67773   8.251   2.177  10.108 -0.1954  0.2675 -0.3616
  514MOL0     O67774   8.376   2.228  10.106  0.4110 -0.7879 -0.3072
  514MOL0     C67775   8.489   2.142  10.076  0.3491 -1.0110 -0.2010
  514MOL0     C67776   8.524   2.115   9.923  0.6434 -0.0836 -1.3488
  514MOL0     C67777   8.578   1.968   9.902 -0.0585  0.2549  1.1878
  514MOL0     C67778   8.649   1.959   9.769  0.6532 -0.5186 -0.1842
  514MOL0     C67779   8.714   1.830   9.747  0.4562 -0.0106  0.9797
  514MOL0     C67780   8.779   1.729   9.710  0.1654  0.1873  0.4805
  514MOL0     C67781   8.151   2.268  10.141  0.2559 -0.0691 -0.4902
  514MOL0     C67782   8.022   2.222  10.179 -0.5934 -0.5899 -0.0732
  514MOL0     H67783   7.681   1.925  10.414  0.7465 -0.4928  1.0179
  514MOL0     H67784   7.462   1.868  10.462 -0.6306  0.6382  0.3892
  514MOL0     H67785   7.255   1.795  10.452 -0.8631  0.1416  0.2380
  514MOL0     H67786   7.256   1.627  10.412 -1.7645 -1.5542 -0.2912
  514MOL0     H67787   7.011   1.780  10.321 -0.2120  2.1035  2.4826
  514MOL0     H67788   7.022   1.726  10.481 -0.5512  0.1713 -0.2917
  514MOL0     H67789   7.052   1.490  10.431 -0.6541 -1.3239  0.6529
  514MOL0     H67790   7.056   1.532  10.263  0.5114  1.6524 -1.1245
  514MOL0     H67791   6.839   1.562  10.230  1.5420  1.2720 -0.6735
  514MOL0     H67792   6.851   1.424  10.332  0.9118  0.2314  0.5395
  514MOL0     H67793   6.783   1.710  10.428 -0.0937 -0.0962 -3.0070
  514MOL0     H67794   6.801   1.574  10.536  0.3351  1.0729 -0.2062
  514MOL0     H67795   6.610   1.455  10.447 -0.8286  1.1698  3.3786
  514MOL0     H67796   6.582   1.573  10.318 -1.0390 -0.1846  0.7780
  514MOL0     H67797   6.551   1.652  10.607 -0.6008  0.7969 -0.6012
  514MOL0     H67798   6.532   1.744  10.466  1.3960 -0.5949 -2.5265
  514MOL0     H67799   6.369   1.572  10.372 -0.3826  0.5041 -0.2306
  514MOL0     H67800   6.319   1.676  10.502 -0.5862  0.3608 -1.1525
  514MOL0     H67801   6.282   1.563  10.751 -1.7175  0.0443 -0.2614
  514MOL0     H67802   6.249   1.311  10.923  1.7117 -0.1533  0.1417
  514MOL0     H67803   6.187   1.184  10.811 -4.0370  1.0881 -5.0574
  514MOL0     H67804   6.031   1.429  10.887 -3.3571 -1.1870  0.5687
  514MOL0     H67805   5.994   1.256  10.872 -1.5183  0.6634  0.1739
  514MOL0     H67806   6.015   1.453  10.636 -3.3061  0.6346 -2.1451
  514MOL0     H67807   5.996   1.281  10.619  0.8203  0.0787  0.8196
  514MOL0     H67808   5.818   1.479  10.742 -0.1015  0.4885 -0.5908
  514MOL0     H67809   5.781   1.309  10.781 -0.8930  0.3957 -0.0043
  514MOL0     H67810   5.591   1.167  10.702 -0.2660 -0.2978  0.0076
  514MOL0     H67811   5.338   1.179  10.670  0.3447 -0.7148 -2.6027
  514MOL0     H67812   4.895   1.431  10.519 -0.2244  0.4528 -0.9081
  514MOL0     H67813   4.671   1.367  10.509  2.0468  0.8497 -0.6220
  514MOL0     H67814   4.408   1.254  10.627  0.0498  1.3521  2.1691
  514MOL0     H67815   4.556   1.278  10.711 -1.1969  0.8414  1.3696
  514MOL0     H67816   4.508   1.060  10.833 -0.7702 -1.3928 -0.0461
  514MOL0     H67817   4.374   1.033  10.719  1.1209 -2.5637  0.9721
  514MOL0     H67818   4.260   1.216  10.796  0.1480  0.5619  0.1629
  514MOL0     H67819   4.399   1.284  10.895  1.2333  0.0643 -0.9217
  514MOL0     H67820   4.390   1.093  11.049  0.1691 -0.3662 -0.1709
  514MOL0     H67821   4.235   1.165  11.044 -0.7119  0.2702 -0.2628
  514MOL0     H67822   4.297   0.907  10.899  0.4616  0.8029 -1.9566
  514MOL0     H67823   4.148   0.993  10.874 -2.8201 -2.1562  3.0526
  514MOL0     H67824   4.066   0.951  11.077  1.4904  3.0217  1.1489
  514MOL0     H67825   4.223   0.904  11.160  0.7024  3.1752 -1.2570
  514MOL0     H67826   4.082   0.762  10.926  1.6077  2.7016 -1.0733
  514MOL0     H67827   4.234   0.716  10.997  0.0293  0.3617 -0.3383
  514MOL0     H67828   4.066   0.684  11.223 -1.9606  0.7564  0.4767
  514MOL0     H67829   4.069   0.561  11.095  1.3247 -0.9141  3.3949
  514MOL0     H67830   4.773   0.987  10.686  1.7565 -1.2010 -1.3005
  514MOL0     H67831   5.009   1.038  10.659  2.0908  3.1229  0.5923
  514MOL0     H67832   5.367   1.527  10.431 -1.0357  0.8018  2.0171
  514MOL0     H67833   5.618   1.512  10.462 -1.5113  2.7666  3.2719
  514MOL0     H67834   7.402   1.761  10.033 -0.4092 -0.4989  0.1302
  514MOL0     H67835   7.648   1.828  10.001  0.2572 -1.6346 -0.0441
  514MOL0     H67836   8.070   1.892  10.126  3.5206 -0.8436 -0.2386
  514MOL0     H67837   8.293   1.967  10.098 -0.2197 -0.3669  0.6308
  514MOL0     H67838   8.497   2.052  10.138 -1.1835 -0.0774  1.4368
  514MOL0     H67839   8.577   2.200  10.106  2.0321 -3.0416 -0.9317
  514MOL0     H67840   8.430   2.116   9.867 -0.2581 -2.2025 -0.0234
  514MOL0     H67841   8.566   2.202   9.872  1.5421 -0.3347 -1.0477
  514MOL0     H67842   8.498   1.895   9.919 -1.1122  1.2326  0.5841
  514MOL0     H67843   8.653   1.949   9.980  0.4118  0.2401  0.7391
  514MOL0     H67844   8.572   1.969   9.692  2.4693  0.1887 -2.0115
  514MOL0     H67845   8.720   2.041   9.778 -1.5574  1.4088  0.6716
  514MOL0     H67846   8.833   1.642   9.679 -0.3663  0.0092  0.0610
  514MOL0     H67847   8.167   2.376  10.143 -0.9918  0.1211  0.2765
  514MOL0     H67848   7.952   2.297  10.215 -1.3166 -1.1946 -0.1872
  515MOL0     O67849   6.425   2.504   0.381  0.3558  0.6693  0.1973
  515MOL0     C67850   6.371   2.614   0.387 -0.2110  1.3563 -0.6823
  515MOL0     O67851   6.239   2.644   0.359  0.2195 -0.1108 -0.3148
  515MOL0     C67852   6.151   2.553   0.307  0.9455  1.0493  1.1500
  515MOL0     C67853   6.151   2.410   0.325  0.0830 -0.5279  0.1658
  515MOL0     C67854   6.043   2.328   0.284  0.4635  0.2872 -0.1174
  515MOL0     C67855   5.934   2.381   0.217 -0.2035 -0.3286 -0.4611
  515MOL0     O67856   5.815   2.317   0.186 -0.6257 -0.0610  0.3458
  515MOL0     C67857   5.718   2.303   0.286  0.1973  0.2824  0.0315
  515MOL0     C67858   5.635   2.421   0.319  1.1062 -0.5240  0.5245
  515MOL0     C67859   5.700   2.539   0.406 -0.4922 -0.1526 -0.0466
  515MOL0     C67860   5.591   2.615   0.480  0.1034 -0.2781 -0.7803
  515MOL0     C67861   5.533   2.539   0.601 -0.0573  0.3915 -0.0356
  515MOL0     C67862   5.473   2.628   0.706  0.2944 -0.4519  0.0447
  515MOL0     C67863   5.423   2.552   0.832 -0.6229 -0.4388 -0.1400
  515MOL0     C67864   5.307   2.453   0.799 -1.1412 -0.2327 -0.5670
  515MOL0     N67865   5.242   2.416   0.925 -0.1815 -0.3626  0.4228
  515MOL0     C67866   5.104   2.429   0.961 -0.3566  0.0004  0.2428
  515MOL0     C67867   5.097   2.394   1.094 -0.1560 -0.0594  0.9280
  515MOL0     C67868   4.977   2.378   1.177  0.2598  0.2052 -1.3018
  515MOL0     C67869   4.992   2.306   1.312  0.9008 -0.1437 -0.0876
  515MOL0     C67870   4.875   2.332   1.407  0.3090  0.0750 -0.2692
  515MOL0     C67871   4.760   2.233   1.377 -0.2299  0.1348 -0.2472
  515MOL0     O67872   4.648   2.249   1.454  0.2313  0.1283 -0.4614
  515MOL0     C67873   4.520   2.262   1.399 -0.1105  0.1697 -0.6245
  515MOL0     C67874   4.421   2.332   1.468  0.3125 -0.7187 -0.6388
  515MOL0     C67875   4.292   2.338   1.424 -0.1344  0.6535  0.5038
  515MOL0     C67876   4.257   2.285   1.295  0.4760  0.0742  0.2886
  515MOL0     C67877   4.119   2.303   1.250  0.0003 -0.2607 -0.6365
  515MOL0     O67878   4.092   2.278   1.125 -0.3350 -0.7914 -0.2832
  515MOL0     C67879   3.959   2.274   1.075  0.1947 -0.6364 -0.3229
  515MOL0     C67880   3.859   2.356   1.123  0.0104 -0.3478  0.6632
  515MOL0     C67881   3.720   2.335   1.093 -0.0684  0.6061  0.2053
  515MOL0     C67882   3.690   2.228   1.003  1.2031 -0.0946 -0.9497
  515MOL0     O67883   3.561   2.190   0.977 -1.1692  0.1072 -0.2110
  515MOL0     C67884   3.460   2.290   0.949 -0.1022  0.8289 -0.7225
  515MOL0     C67885   3.329   2.223   0.900 -0.1399 -0.5705  0.0351
  515MOL0     C67886   3.250   2.163   1.018  0.1221 -0.0675 -0.1001
  515MOL0     C67887   3.108   2.136   0.974  0.0857  0.0102 -0.1992
  515MOL0     C67888   3.044   2.055   1.085 -0.0989 -0.8935 -0.8923
  515MOL0     C67889   2.935   1.965   1.027  0.2960 -0.0094 -0.1227
  515MOL0     C67890   2.833   1.897   1.130 -0.1263 -0.6089  0.2632
  515MOL0     C67891   2.729   1.804   1.056  0.1144 -0.4911 -0.6958
  515MOL0    Cl67892   2.644   1.901   0.928  0.0107 -0.2565 -0.0885
  515MOL0     C67893   3.793   2.154   0.942  0.4541  0.4304  0.8838
  515MOL0     C67894   3.927   2.185   0.968 -0.6251 -1.1297 -0.3430
  515MOL0     O67895   4.041   2.328   1.346  0.6455  0.2551  1.8658
  515MOL0     C67896   4.354   2.231   1.216 -0.0408  0.1647 -0.2412
  515MOL0     C67897   4.486   2.215   1.262 -0.0558 -0.5638  0.3170
  515MOL0     N67898   5.233   2.355   1.124 -0.6661 -0.1260  0.1853
  515MOL0     N67899   5.312   2.380   1.027  0.1846 -0.4999 -0.1350
  515MOL0     C67900   5.948   2.518   0.177  0.5693  0.2971  0.8611
  515MOL0     C67901   6.047   2.605   0.226  0.3444 -1.0338  0.9769
  515MOL0     C67902   6.443   2.733   0.447 -0.8454  1.1634 -1.2499
  515MOL0     C67903   6.578   2.726   0.487  0.2817  1.0423  0.4076
  515MOL0     C67904   6.636   2.836   0.557 -0.8256  0.5138 -0.2144
  515MOL0     C67905   6.564   2.950   0.588  0.2128  0.0252  0.3264
  515MOL0     O67906   6.617   3.073   0.634 -0.3015  0.4904  0.0708
  515MOL0     C67907   6.751   3.085   0.671  1.0073  0.3628 -0.1175
  515MOL0     C67908   6.756   3.215   0.747  0.1788 -0.3088 -0.2666
  515MOL0     C67909   6.883   3.241   0.821  0.2561  0.0152 -0.8505
  515MOL0     C67910   6.886   3.370   0.900  0.8042  0.4694 -1.1659
  515MOL0     C67911   6.987   3.368   1.006  1.3270 -0.4415  0.2404
  515MOL0     C67912   7.075   3.388   1.092 -1.2316  0.4432  0.8753
  515MOL0     C67913   6.427   2.950   0.560 -0.2832 -0.4649  0.1226
  515MOL0     C67914   6.374   2.847   0.489 -0.0548  0.7416 -0.2475
  515MOL0     H67915   6.231   2.359   0.377  1.4655  0.1982 -1.1650
  515MOL0     H67916   6.055   2.222   0.307 -3.5152 -0.6249 -1.4617
  515MOL0     H67917   5.764   2.258   0.375 -1.4263  1.4014  1.5235
  515MOL0     H67918   5.648   2.225   0.254  0.3390 -0.8344  2.2295
  515MOL0     H67919   5.548   2.387   0.375  2.8956 -3.2736  1.8897
  515MOL0     H67920   5.588   2.470   0.234 -2.6668 -3.3142  0.7718
  515MOL0     H67921   5.743   2.615   0.340  2.3259 -1.3243  0.2564
  515MOL0     H67922   5.781   2.500   0.469  1.8726 -2.4952 -4.0626
  515MOL0     H67923   5.646   2.699   0.524  2.6924 -2.0519 -0.3487
  515MOL0     H67924   5.503   2.636   0.419 -1.9910  1.5463  2.5549
  515MOL0     H67925   5.612   2.483   0.652 -0.9400 -0.0036  0.9305
  515MOL0     H67926   5.452   2.471   0.575 -1.8877  1.6860  1.9975
  515MOL0     H67927   5.386   2.684   0.670 -0.3310 -1.6152 -0.3189
  515MOL0     H67928   5.555   2.693   0.739  0.0055 -0.3879  0.6404
  515MOL0     H67929   5.508   2.492   0.867  0.3566  0.9204 -0.1471
  515MOL0     H67930   5.391   2.623   0.908  0.4361  1.9209 -1.7605
  515MOL0     H67931   5.346   2.360   0.756 -1.8993 -1.5566  1.4588
  515MOL0     H67932   5.227   2.499   0.741  0.2159 -1.4754 -3.6954
  515MOL0     H67933   5.015   2.468   0.913  0.9731  2.6588 -0.2269
  515MOL0     H67934   4.900   2.323   1.121  0.8978 -0.7547 -1.2506
  515MOL0     H67935   4.941   2.479   1.197  1.4395  0.1265  1.6284
  515MOL0     H67936   5.087   2.329   1.362 -0.1038  0.6238  1.5829
  515MOL0     H67937   5.002   2.201   1.283  2.4013 -0.1127  0.2312
  515MOL0     H67938   4.911   2.327   1.510 -0.9287 -1.1908  0.1398
  515MOL0     H67939   4.830   2.430   1.386  2.3398  0.8637 -1.2406
  515MOL0     H67940   4.802   2.134   1.395 -2.7834 -1.5320 -2.5742
  515MOL0     H67941   4.746   2.238   1.268  4.5239  0.1619 -1.0709
  515MOL0     H67942   4.456   2.381   1.558  3.0790 -2.1594 -0.7999
  515MOL0     H67943   4.222   2.388   1.490  1.9361  2.2693  1.5716
  515MOL0     H67944   3.894   2.441   1.181 -0.0971 -0.2645  0.6069
  515MOL0     H67945   3.644   2.404   1.127  0.9429  2.4389 -1.1047
  515MOL0     H67946   3.495   2.354   0.867  0.3964  0.2807 -0.9455
  515MOL0     H67947   3.441   2.360   1.031 -2.5289 -0.5870  0.0035
  515MOL0     H67948   3.347   2.143   0.828 -1.3294  0.4065 -1.4067
  515MOL0     H67949   3.263   2.295   0.850 -0.5011  0.5460  1.9864
  515MOL0     H67950   3.254   2.220   1.112 -0.5721 -2.4801  1.4918
  515MOL0     H67951   3.305   2.069   1.036  1.3428  0.6020 -0.2348
  515MOL0     H67952   3.047   2.226   0.960  0.1594  0.3849  1.5792
  515MOL0     H67953   3.097   2.080   0.880 -0.7154  1.4931 -1.0265
  515MOL0     H67954   3.003   2.117   1.166 -1.2366 -2.8414  0.1001
  515MOL0     H67955   3.123   1.997   1.132 -0.3991  1.5548  3.1271
  515MOL0     H67956   2.996   1.879   1.000  0.3422 -1.1897  3.2409
  515MOL0     H67957   2.887   2.010   0.940 -0.7558 -1.6845 -0.4546
  515MOL0     H67958   2.903   1.839   1.190  0.9155 -0.7195 -1.0056
  515MOL0     H67959   2.775   1.969   1.189 -1.1326 -1.6330  0.5676
  515MOL0     H67960   2.672   1.736   1.120  0.2188 -2.3820 -2.5436
  515MOL0     H67961   2.795   1.736   1.002  2.9727  2.6704 -1.5717
  515MOL0     H67962   3.762   2.071   0.879 -1.0997  0.8757  1.0212
  515MOL0     H67963   4.010   2.136   0.918  3.1352 -0.0899  4.1911
  515MOL0     H67964   4.322   2.187   1.122 -0.1748 -0.0229 -0.1086
  515MOL0     H67965   4.556   2.163   1.197 -0.0869 -1.5298  1.0411
  515MOL0     H67966   5.867   2.563   0.122 -1.4694 -1.2943  2.3880
  515MOL0     H67967   6.020   2.709   0.210 -0.4244 -1.2066  1.0996
  515MOL0     H67968   6.644   2.644   0.460 -0.2957  0.3792  0.9809
  515MOL0     H67969   6.741   2.838   0.583 -1.4033  1.1151  2.2756
  515MOL0     H67970   6.822   3.082   0.589 -1.6794 -1.9627 -2.5677
  515MOL0     H67971   6.778   3.003   0.737  0.6522  0.3103 -0.0370
  515MOL0     H67972   6.724   3.297   0.682 -3.3722  1.0992  2.8845
  515MOL0     H67973   6.675   3.198   0.818  1.6018 -2.0178  1.0227
  515MOL0     H67974   6.964   3.235   0.748  2.2399  2.1914  1.0674
  515MOL0     H67975   6.894   3.164   0.898 -3.7263  3.0415  3.3376
  515MOL0     H67976   6.899   3.461   0.841  0.6568  0.0598 -1.8392
  515MOL0     H67977   6.790   3.381   0.951  2.0840 -0.1850  1.5814
  515MOL0     H67978   7.160   3.400   1.156 -1.2555 -0.3691  1.0700
  515MOL0     H67979   6.364   3.032   0.591 -0.7117  0.1850 -2.2297
  515MOL0     H67980   6.268   2.860   0.468 -0.9670 -1.3225  2.4893
  516MOL0     O67981   1.139   5.240   0.353  0.5308  0.4963 -0.4889
  516MOL0     C67982   1.193   5.132   0.362  0.1495  0.3122  0.1640
  516MOL0     O67983   1.143   5.001   0.347  0.2167  0.0648  0.0729
  516MOL0     C67984   1.008   4.975   0.315 -0.6523  1.5302  0.3561
  516MOL0     C67985   0.905   5.064   0.316 -0.7861 -0.0990 -0.6311
  516MOL0     C67986   0.768   5.038   0.284  0.1853 -0.5212  0.0513
  516MOL0     C67987   0.731   4.905   0.248  0.1796 -0.5758 -0.3910
  516MOL0     O67988   0.605   4.866   0.203 -0.1650 -0.8761 -0.1997
  516MOL0     C67989   0.504   4.947   0.263  0.5519  0.0254  0.1415
  516MOL0     C67990   0.371   4.889   0.230  1.0586  0.1273 -0.2717
  516MOL0     C67991   0.360   4.745   0.273 -0.4725 -0.9586  0.6374
  516MOL0     C67992   0.257   4.671   0.179  0.3262 -0.1050 -0.1628
  516MOL0     C67993   0.115   4.728   0.167 -0.2599  0.4613  0.5942
  516MOL0     C67994   0.041   4.731   0.294  0.3048  0.3638 -0.3139
  516MOL0     C67995  -0.001   4.592   0.338 -0.3659  0.4098  0.2171
  516MOL0     C67996  -0.058   4.586   0.481 -0.0826 -0.1441  0.4689
  516MOL0     N67997  -0.203   4.615   0.478 -1.2065  0.2581  0.4504
  516MOL0     C67998  -0.291   4.535   0.402 -0.4481  0.7449 -0.2146
  516MOL0     C67999  -0.400   4.611   0.376  0.3699 -0.2409 -0.1779
  516MOL0     C68000  -0.512   4.597   0.281 -0.1802  0.7867 -0.8477
  516MOL0     C68001  -0.493   4.692   0.168 -0.4271 -0.2185 -0.7043
  516MOL0     C68002  -0.357   4.660   0.088  1.1871 -0.2399 -0.3792
  516MOL0     C68003  -0.382   4.555  -0.018 -0.9065  0.3670 -0.2155
  516MOL0     O68004  -0.345   4.428   0.026  0.5747  0.1181 -0.6069
  516MOL0     C68005  -0.213   4.384   0.042 -0.0738  0.4978  0.4511
  516MOL0     C68006  -0.185   4.252   0.092  0.2908  0.8359 -1.1531
  516MOL0     C68007  -0.059   4.198   0.091 -0.1800  0.8495  0.1133
  516MOL0     C68008   0.054   4.261   0.032  1.1420 -0.1998 -0.4420
  516MOL0     C68009   0.184   4.199   0.029  0.5850 -0.5955  0.7268
  516MOL0     O68010   0.187   4.116   0.136 -0.7852 -1.1520  0.2320
  516MOL0     C68011   0.315   4.098   0.188 -0.2865 -0.2083 -0.1710
  516MOL0     C68012   0.349   3.974   0.239  0.7754  1.1209  0.6173
  516MOL0     C68013   0.473   3.944   0.283 -0.8025 -0.5267  0.7081
  516MOL0     C68014   0.574   4.038   0.287  0.3749  0.9588  0.9431
  516MOL0     O68015   0.698   4.008   0.335  0.0500  0.5093  0.4174
  516MOL0     C68016   0.743   4.078   0.450 -1.0957  0.1507  0.9389
  516MOL0     C68017   0.867   4.172   0.403  0.1435 -0.0054 -0.4483
  516MOL0     C68018   0.986   4.088   0.405 -0.3764  0.3615 -0.3536
  516MOL0     C68019   1.118   4.170   0.400  0.6683 -0.5222 -0.0993
  516MOL0     C68020   1.243   4.082   0.411 -0.2638  0.5734 -0.1071
  516MOL0     C68021   1.365   4.163   0.367 -0.1123  0.8315  0.4608
  516MOL0     C68022   1.492   4.066   0.357  0.1601 -0.2276  0.2004
  516MOL0     C68023   1.491   3.983   0.229 -0.0314  0.6186  0.3607
  516MOL0    Cl68024   1.631   3.860   0.218 -0.2604  0.0948 -0.0371
  516MOL0     C68025   0.539   4.172   0.249  0.2395 -0.0958 -0.1877
  516MOL0     C68026   0.409   4.204   0.201  0.0158 -0.3599  0.5519
  516MOL0     O68027   0.266   4.238  -0.050 -0.2731 -0.0494  1.1313
  516MOL0     C68028   0.025   4.383  -0.033  0.2398  0.9994 -0.1320
  516MOL0     C68029  -0.101   4.449  -0.025 -0.0742  0.0325 -0.4664
  516MOL0     N68030  -0.394   4.723   0.460 -0.0959 -0.1739 -0.0544
  516MOL0     N68031  -0.271   4.725   0.515  0.4884  0.3807  0.4473
  516MOL0     C68032   0.842   4.810   0.248  0.5745  0.5779  0.9686
  516MOL0     C68033   0.977   4.841   0.279  0.3328  0.5231  0.5819
  516MOL0     C68034   1.334   5.137   0.408  0.1244  0.1406  0.1686
  516MOL0     C68035   1.409   5.015   0.425 -0.5539 -0.3027 -0.0667
  516MOL0     C68036   1.549   5.016   0.439 -0.0098  0.2950 -0.5040
  516MOL0     C68037   1.612   5.142   0.448 -0.0571  1.1242 -0.1781
  516MOL0     O68038   1.743   5.151   0.495 -0.8262 -0.2501 -0.3267
  516MOL0     C68039   1.850   5.104   0.404 -0.2570 -0.2254 -0.1076
  516MOL0     C68040   1.874   5.204   0.290 -0.3965  0.5103 -0.5842
  516MOL0     C68041   1.902   5.346   0.333  0.0671 -0.4239  0.0334
  516MOL0     C68042   2.008   5.353   0.446 -0.6621  0.5379  0.1250
  516MOL0     C68043   2.139   5.313   0.389 -0.4087 -0.1888 -0.0402
  516MOL0     C68044   2.240   5.260   0.354  0.9072 -0.1892 -0.3170
  516MOL0     C68045   1.537   5.261   0.438  0.3217 -0.9044  0.3211
  516MOL0     C68046   1.400   5.253   0.412 -0.6308  0.2813 -0.3402
  516MOL0     H68047   0.924   5.163   0.356 -0.4063 -1.3798  2.6953
  516MOL0     H68048   0.697   5.119   0.295  0.6727 -0.0059 -0.5104
  516MOL0     H68049   0.511   5.038   0.204  0.0259  0.5781  0.9044
  516MOL0     H68050   0.525   4.967   0.369  0.9824 -0.3918  0.1402
  516MOL0     H68051   0.353   4.894   0.123  1.0421 -4.2419 -0.6487
  516MOL0     H68052   0.279   4.944   0.255  0.9358 -1.0577  2.1929
  516MOL0     H68053   0.326   4.752   0.376 -0.0947  0.1731  0.6986
  516MOL0     H68054   0.454   4.691   0.260 -0.1276 -0.1290 -0.5177
  516MOL0     H68055   0.310   4.656   0.084 -1.0687  1.3893 -1.2181
  516MOL0     H68056   0.238   4.569   0.215  0.2159 -0.0367 -0.0268
  516MOL0     H68057   0.050   4.675   0.098 -0.4451 -0.9859  1.8370
  516MOL0     H68058   0.129   4.826   0.119  0.9495 -0.9858 -2.2761
  516MOL0     H68059  -0.050   4.792   0.292  0.3828  0.4839 -0.2405
  516MOL0     H68060   0.105   4.781   0.367  1.0746  2.4089 -2.2780
  516MOL0     H68061  -0.073   4.552   0.265 -2.8905 -0.1502  2.8480
  516MOL0     H68062   0.081   4.520   0.344 -2.2594 -2.1845 -2.1476
  516MOL0     H68063   0.006   4.643   0.549 -2.0131 -1.6503  3.8055
  516MOL0     H68064  -0.056   4.483   0.517 -2.4061 -0.6333 -0.6059
  516MOL0     H68065  -0.277   4.435   0.362 -0.8062  0.6496 -0.1025
  516MOL0     H68066  -0.603   4.618   0.337 -1.1126 -1.6541 -1.3468
  516MOL0     H68067  -0.503   4.497   0.237 -2.3908 -0.4939  1.3751
  516MOL0     H68068  -0.497   4.793   0.209  1.5388  0.4232 -1.9528
  516MOL0     H68069  -0.583   4.696   0.106  0.1510  4.2750 -1.6308
  516MOL0     H68070  -0.324   4.749   0.034 -0.7246  0.4522 -0.4818
  516MOL0     H68071  -0.276   4.633   0.157  0.2801 -2.1498 -0.0141
  516MOL0     H68072  -0.316   4.580  -0.102  0.5278  0.1703  0.8297
  516MOL0     H68073  -0.484   4.555  -0.058 -0.7336  3.6835 -0.9827
  516MOL0     H68074  -0.265   4.191   0.133  0.9159  0.9654  0.2970
  516MOL0     H68075  -0.049   4.103   0.143  1.7384  2.2229  2.5246
  516MOL0     H68076   0.279   3.891   0.239  1.5324  0.4211  2.7563
  516MOL0     H68077   0.488   3.840   0.312  2.5431 -0.3915 -0.1494
  516MOL0     H68078   0.787   4.023   0.534 -0.2324 -0.6278  0.0037
  516MOL0     H68079   0.665   4.133   0.503 -1.1088 -0.7397  1.8528
  516MOL0     H68080   0.878   4.255   0.473 -1.2421  0.7967 -1.1426
  516MOL0     H68081   0.852   4.212   0.302  0.4295 -0.7974 -0.8099
  516MOL0     H68082   0.996   4.018   0.322  1.0132  1.0403 -0.7939
  516MOL0     H68083   0.999   4.032   0.498  0.5512  2.1993  0.6892
  516MOL0     H68084   1.118   4.218   0.302  2.8918 -1.1972 -0.4994
  516MOL0     H68085   1.113   4.245   0.479 -0.3348 -2.9547  2.3301
  516MOL0     H68086   1.237   3.992   0.350  1.0445 -0.0741  0.6573
  516MOL0     H68087   1.260   4.043   0.512 -1.7920  0.2366  0.0454
  516MOL0     H68088   1.382   4.244   0.439  2.6117 -0.0114  0.8598
  516MOL0     H68089   1.352   4.217   0.273 -2.2208  2.5951  1.6666
  516MOL0     H68090   1.573   4.137   0.338  0.0717  0.0376  0.7739
  516MOL0     H68091   1.513   4.008   0.448 -0.2902 -1.0953 -0.2374
  516MOL0     H68092   1.475   4.045   0.140 -3.2928  0.3409  0.6212
  516MOL0     H68093   1.393   3.934   0.224 -1.2314  2.1702  4.4370
  516MOL0     H68094   0.614   4.249   0.260  0.3831 -0.1544 -0.7533
  516MOL0     H68095   0.365   4.302   0.189 -2.0926 -1.0369  2.0755
  516MOL0     H68096   0.106   4.420  -0.094  1.4638 -1.1949  0.0599
  516MOL0     H68097  -0.108   4.539  -0.084 -0.3152  0.2552 -0.0989
  516MOL0     H68098   0.815   4.705   0.236 -1.6677  0.8607  2.8736
  516MOL0     H68099   1.052   4.764   0.291  0.4523 -0.3412 -3.8867
  516MOL0     H68100   1.357   4.920   0.418 -2.0893  0.5989 -1.7867
  516MOL0     H68101   1.609   4.930   0.466  0.2668  1.3052  2.5719
  516MOL0     H68102   1.822   5.006   0.364 -0.9590  0.2994 -0.9241
  516MOL0     H68103   1.934   5.089   0.472 -0.8600  0.0199  0.7013
  516MOL0     H68104   1.955   5.169   0.227 -0.2950 -0.1783 -0.0836
  516MOL0     H68105   1.779   5.204   0.236 -0.9761 -0.5655  0.3842
  516MOL0     H68106   1.811   5.391   0.374  0.1935 -0.3636  0.2467
  516MOL0     H68107   1.930   5.408   0.247  1.0655 -0.5994  0.2235
  516MOL0     H68108   2.022   5.455   0.483  1.1874 -0.1510  1.5006
  516MOL0     H68109   1.980   5.289   0.530  3.5926 -2.4934 -0.4438
  516MOL0     H68110   2.333   5.211   0.335  2.9142  2.7380  1.0947
  516MOL0     H68111   1.584   5.358   0.456 -0.3104 -0.6558  0.6824
  516MOL0     H68112   1.348   5.346   0.389  1.6024  0.8532 -3.7083
  517MOL0     O68113   3.009   4.455   2.950 -0.5088 -0.7238 -0.9318
  517MOL0     C68114   3.025   4.553   3.024  0.1755 -0.1066 -0.1670
  517MOL0     O68115   2.925   4.612   3.100  0.2773  0.2521 -0.4636
  517MOL0     C68116   2.793   4.564   3.087 -0.1266 -1.3240  0.0924
  517MOL0     C68117   2.721   4.563   2.970 -0.0459 -0.7270  0.1741
  517MOL0     C68118   2.584   4.515   2.977 -0.0850  0.5474  0.0039
  517MOL0     C68119   2.520   4.500   3.102 -0.4593  0.2506  0.9366
  517MOL0     O68120   2.388   4.476   3.095  0.3474  0.0362 -0.2335
  517MOL0     C68121   2.313   4.512   3.213 -0.8020  0.0385  1.1196
  517MOL0     C68122   2.164   4.497   3.174 -0.6082 -0.1930  0.8598
  517MOL0     C68123   2.064   4.552   3.278  1.4014 -1.2344  0.0139
  517MOL0     C68124   1.917   4.516   3.240  0.4574 -0.7757 -0.0608
  517MOL0     C68125   1.827   4.582   3.339  0.1340 -1.0252  0.3163
  517MOL0     C68126   1.692   4.571   3.282  0.7626 -0.5102 -0.5245
  517MOL0     C68127   1.582   4.608   3.374  0.7292  0.8450 -1.1202
  517MOL0     C68128   1.567   4.759   3.415  0.2341  0.6240 -0.0373
  517MOL0     N68129   1.442   4.784   3.475  0.4382  0.1013  0.7047
  517MOL0     C68130   1.320   4.753   3.417  0.2014 -0.3100  1.0219
  517MOL0     C68131   1.223   4.815   3.496 -0.4377  0.1609 -0.5143
  517MOL0     C68132   1.079   4.828   3.457 -0.1230 -0.6791 -0.5356
  517MOL0     C68133   1.022   4.969   3.470 -0.4089 -0.4400 -0.7086
  517MOL0     C68134   0.865   4.966   3.461 -0.8002 -0.3354  0.5470
  517MOL0     C68135   0.800   5.092   3.508  0.3615 -0.7635 -0.4334
  517MOL0     O68136   0.658   5.077   3.517  0.2939 -0.8189 -0.1033
  517MOL0     C68137   0.604   5.025   3.624  0.6899  0.2718 -0.0436
  517MOL0     C68138   0.473   4.989   3.614  0.4013 -0.6265  0.2472
  517MOL0     C68139   0.388   4.955   3.720 -0.1709  0.1878 -0.3215
  517MOL0     C68140   0.440   4.967   3.851 -0.0732 -0.1212  0.4318
  517MOL0     C68141   0.351   4.950   3.964  0.7938  1.6817 -0.3067
  517MOL0     O68142   0.224   4.922   3.948 -0.8606 -0.5749 -0.3609
  517MOL0     C68143   0.133   4.941   4.052  0.2701  0.1219 -0.0393
  517MOL0     C68144   0.141   4.907   4.188 -0.4441  0.0003  0.5674
  517MOL0     C68145   0.034   4.953   4.273  0.0643 -0.5873  0.2614
  517MOL0     C68146  -0.076   5.022   4.224 -0.8468  0.2269 -0.6247
  517MOL0     O68147  -0.167   5.085   4.308  1.1387  0.2449  0.9466
  517MOL0     C68148  -0.260   5.002   4.385 -0.0332 -0.3556  0.3528
  517MOL0     C68149  -0.378   4.966   4.283  0.7694  0.1839 -0.3020
  517MOL0     C68150  -0.476   5.083   4.277 -0.2650 -1.0088 -0.6887
  517MOL0     C68151  -0.557   5.085   4.147 -0.1991  0.4880  0.4842
  517MOL0     C68152  -0.680   4.994   4.173 -0.6758 -0.2401  0.5919
  517MOL0     C68153  -0.784   5.076   4.252 -0.4684  0.5949 -0.6441
  517MOL0     C68154  -0.919   4.997   4.241  0.1466  0.4312 -0.2374
  517MOL0     C68155  -1.036   5.077   4.299  0.0403  1.0522 -0.2423
  517MOL0    Cl68156  -1.019   5.095   4.474 -0.3815  0.0091 -0.2464
  517MOL0     C68157  -0.088   5.038   4.090 -0.4133 -0.1261 -0.6499
  517MOL0     C68158   0.007   4.993   4.005  0.4308  0.3630  0.4476
  517MOL0     O68159   0.411   4.966   4.072  0.1825 -0.0711  0.0592
  517MOL0     C68160   0.579   4.995   3.866  0.9582  0.1674 -1.0600
  517MOL0     C68161   0.663   5.023   3.752  0.0246 -0.0013 -0.4342
  517MOL0     N68162   1.287   4.878   3.600 -0.7354  0.6519 -0.8214
  517MOL0     N68163   1.417   4.875   3.574 -0.2579 -0.0914  0.1590
  517MOL0     C68164   2.594   4.510   3.219 -0.3332 -0.3109 -0.0119
  517MOL0     C68165   2.727   4.539   3.208 -0.4569 -1.1349 -0.3987
  517MOL0     C68166   3.151   4.625   3.027  0.3466 -0.9046 -0.1253
  517MOL0     C68167   3.180   4.744   3.105 -0.8814  0.2731 -0.2821
  517MOL0     C68168   3.295   4.821   3.094  0.2078  0.1149 -0.6851
  517MOL0     C68169   3.393   4.789   2.996  0.0650 -0.3104  0.0368
  517MOL0     O68170   3.501   4.875   2.967  0.0368 -0.3526 -0.6907
  517MOL0     C68171   3.623   4.813   2.920  0.5462 -0.7905 -0.1258
  517MOL0     C68172   3.742   4.914   2.940 -0.5769 -0.3124  0.5310
  517MOL0     C68173   3.741   5.006   2.820 -0.7085 -1.1531 -0.2132
  517MOL0     C68174   3.870   5.085   2.796 -0.3595 -0.7742 -0.5644
  517MOL0     C68175   3.900   5.177   2.906  0.1231 -0.8645  0.4587
  517MOL0     C68176   3.920   5.233   3.009 -0.2133  0.1086 -0.4034
  517MOL0     C68177   3.370   4.673   2.917 -1.1048  0.0682  0.3111
  517MOL0     C68178   3.251   4.595   2.931 -0.1960 -0.2684  0.2532
  517MOL0     H68179   2.771   4.587   2.877  1.3420  1.0542  1.3011
  517MOL0     H68180   2.520   4.478   2.897  2.0893 -1.1866 -1.0409
  517MOL0     H68181   2.347   4.611   3.246 -1.5419  0.8237 -0.3671
  517MOL0     H68182   2.327   4.439   3.294 -1.0421  1.2746  2.3115
  517MOL0     H68183   2.154   4.388   3.164  0.3877 -0.4339  2.3203
  517MOL0     H68184   2.137   4.533   3.074 -0.2769 -0.6893  0.5860
  517MOL0     H68185   2.074   4.661   3.277  0.7968 -1.1430 -2.6311
  517MOL0     H68186   2.079   4.512   3.379  1.9040 -1.9049 -0.3224
  517MOL0     H68187   1.888   4.542   3.138 -1.3506 -3.7065 -0.4323
  517MOL0     H68188   1.905   4.408   3.252  1.2190 -1.0450 -1.5353
  517MOL0     H68189   1.840   4.690   3.349 -1.7528 -0.7243 -0.0275
  517MOL0     H68190   1.838   4.534   3.437  1.7326 -0.3380  0.4990
  517MOL0     H68191   1.669   4.471   3.244 -2.1938  0.2158 -0.9311
  517MOL0     H68192   1.685   4.642   3.198 -0.2136 -1.9054 -1.6747
  517MOL0     H68193   1.490   4.576   3.323 -0.3664 -1.7266  2.1444
  517MOL0     H68194   1.585   4.543   3.461 -1.5222  0.6558 -1.1116
  517MOL0     H68195   1.578   4.826   3.329 -1.6639  2.1339  0.8254
  517MOL0     H68196   1.638   4.777   3.496  0.5185 -1.2579  0.1963
  517MOL0     H68197   1.303   4.718   3.316  0.7985 -0.8318  1.0975
  517MOL0     H68198   1.022   4.764   3.525  0.7757 -2.3115 -1.2563
  517MOL0     H68199   1.075   4.809   3.349  1.9515 -0.8322 -0.6327
  517MOL0     H68200   1.073   5.028   3.393  0.4129  1.4953  1.2342
  517MOL0     H68201   1.056   5.001   3.568  1.7646 -1.5420 -1.0482
  517MOL0     H68202   0.843   4.939   3.357  1.5574 -0.7037  0.0738
  517MOL0     H68203   0.822   4.882   3.517 -1.7100  1.0069  1.9241
  517MOL0     H68204   0.823   5.184   3.453  0.5536 -1.4148 -1.4692
  517MOL0     H68205   0.849   5.111   3.604 -0.9753  0.8639 -0.0267
  517MOL0     H68206   0.417   5.007   3.523  1.1663  1.5942  0.1513
  517MOL0     H68207   0.289   4.920   3.692  0.9769 -2.1293 -1.6987
  517MOL0     H68208   0.237   4.877   4.229  0.3658  2.2664  0.5111
  517MOL0     H68209   0.044   4.940   4.380 -1.0624  2.1987  0.7790
  517MOL0     H68210  -0.301   5.062   4.466  0.5721  1.3568 -0.5708
  517MOL0     H68211  -0.215   4.909   4.421 -2.6445 -1.3576  1.2681
  517MOL0     H68212  -0.425   4.872   4.313 -0.7758  0.3283 -2.0554
  517MOL0     H68213  -0.338   4.945   4.183  0.3341  1.8658 -0.8630
  517MOL0     H68214  -0.413   5.173   4.280 -3.9218  1.7727 -0.3233
  517MOL0     H68215  -0.535   5.097   4.368 -0.7397  2.7612 -1.3978
  517MOL0     H68216  -0.580   5.187   4.116 -0.0672 -0.0403 -1.4478
  517MOL0     H68217  -0.496   5.042   4.068 -0.9231 -0.7990  0.5964
  517MOL0     H68218  -0.654   4.900   4.222  0.5032  0.8820  2.2390
  517MOL0     H68219  -0.726   4.956   4.082  1.4736 -0.0841 -0.6111
  517MOL0     H68220  -0.783   5.181   4.223  5.3001  0.1633 -3.5337
  517MOL0     H68221  -0.758   5.077   4.359 -2.9841  2.3715  0.0354
  517MOL0     H68222  -0.947   4.979   4.137  0.0169  1.4901 -0.4048
  517MOL0     H68223  -0.914   4.904   4.298  0.7192  2.0082  2.4465
  517MOL0     H68224  -1.128   5.021   4.279  1.7715 -2.0558 -0.1108
  517MOL0     H68225  -1.045   5.175   4.252 -0.1499  0.4166 -1.5841
  517MOL0     H68226  -0.181   5.086   4.061 -1.1769 -0.2542  1.4102
  517MOL0     H68227  -0.023   5.013   3.902 -0.6580 -0.4634  0.5946
  517MOL0     H68228   0.623   4.989   3.965 -3.3767 -3.2962  1.0006
  517MOL0     H68229   0.764   5.059   3.766  0.3548 -0.4889 -1.4751
  517MOL0     H68230   2.546   4.488   3.314  2.5587 -0.8735  1.4417
  517MOL0     H68231   2.777   4.570   3.300 -2.4655  1.8523 -0.1634
  517MOL0     H68232   3.102   4.799   3.158  0.7769  1.5358  0.9855
  517MOL0     H68233   3.311   4.915   3.145 -5.0837  1.6000 -1.1704
  517MOL0     H68234   3.619   4.772   2.818 -0.3011 -3.1703  0.8132
  517MOL0     H68235   3.640   4.726   2.983 -1.5580 -1.6119 -0.6164
  517MOL0     H68236   3.712   4.967   3.031 -2.8063 -1.9226  0.8205
  517MOL0     H68237   3.839   4.864   2.947 -0.0678  0.5694 -0.0403
  517MOL0     H68238   3.661   5.080   2.827  1.4750  1.1890  1.5062
  517MOL0     H68239   3.741   4.948   2.727  1.2400 -3.0845  0.8784
  517MOL0     H68240   3.958   5.024   2.773  0.2553 -0.0226 -0.2405
  517MOL0     H68241   3.860   5.138   2.701 -2.2128 -0.9771 -0.5305
  517MOL0     H68242   3.932   5.266   3.110 -0.5334 -0.5647 -0.1409
  517MOL0     H68243   3.445   4.631   2.851 -1.5008  0.4966 -0.4275
  517MOL0     H68244   3.240   4.512   2.861  0.3930 -0.8767  0.8661
  518MOL0     O68245   2.931   5.770   5.187 -0.2695 -0.5127 -0.4004
  518MOL0     C68246   2.997   5.710   5.097  0.7622 -1.8983  0.2498
  518MOL0     O68247   2.946   5.678   4.973  0.4358  0.5697 -0.3146
  518MOL0     C68248   2.810   5.694   4.953  0.6989 -0.3078 -0.0211
  518MOL0     C68249   2.735   5.807   4.985  0.8152 -0.4317 -0.4670
  518MOL0     C68250   2.597   5.806   4.957  0.5006 -0.1094  0.3315
  518MOL0     C68251   2.542   5.694   4.890  0.7157 -0.4644  0.4310
  518MOL0     O68252   2.412   5.674   4.863 -0.4213  0.3864 -0.1304
  518MOL0     C68253   2.338   5.591   4.962 -0.4719  0.5593 -1.1618
  518MOL0     C68254   2.214   5.525   4.907  0.4688 -0.4931  0.3656
  518MOL0     C68255   2.235   5.458   4.767  0.2848  0.0863 -0.1298
  518MOL0     C68256   2.120   5.363   4.740 -0.8992  0.1808  0.6443
  518MOL0     C68257   1.973   5.417   4.744 -1.0670 -0.5805  0.2680
  518MOL0     C68258   1.934   5.542   4.660  0.0569  0.2823 -0.8028
  518MOL0     C68259   1.786   5.583   4.681 -0.0514  0.6292  0.6638
  518MOL0     C68260   1.699   5.588   4.555  0.3733 -0.5647  0.3274
  518MOL0     N68261   1.578   5.656   4.602  0.4563 -0.3703  0.3129
  518MOL0     C68262   1.452   5.601   4.635  0.0437 -0.2283  0.0396
  518MOL0     C68263   1.363   5.691   4.620 -0.5105 -0.1694  0.5531
  518MOL0     C68264   1.209   5.688   4.603 -0.2462  1.3278  0.1556
  518MOL0     C68265   1.139   5.598   4.706 -1.1438 -0.0710  0.3034
  518MOL0     C68266   0.988   5.611   4.713 -0.0903  0.5597 -0.4787
  518MOL0     C68267   0.938   5.738   4.777  0.1912  0.3099 -0.8050
  518MOL0     O68268   0.804   5.699   4.804  0.7700  0.0066  0.0246
  518MOL0     C68269   0.721   5.794   4.848 -0.6214  0.1138 -0.4799
  518MOL0     C68270   0.767   5.914   4.899  0.1255  0.4844 -0.1129
  518MOL0     C68271   0.677   6.002   4.974  0.6826  0.3917 -0.2064
  518MOL0     C68272   0.538   5.973   4.970 -0.2153 -0.1408 -0.1025
  518MOL0     C68273   0.436   6.056   5.045 -0.7066  0.2571  0.9410
  518MOL0     O68274   0.470   6.168   5.105  0.2208  0.1818  0.2418
  518MOL0     C68275   0.380   6.235   5.188  0.3965 -0.5302  0.2093
  518MOL0     C68276   0.357   6.378   5.181  0.2034 -0.2847  0.4353
  518MOL0     C68277   0.255   6.440   5.258 -0.8042  0.5379 -0.2061
  518MOL0     C68278   0.174   6.365   5.342 -0.5878 -0.2394 -0.2592
  518MOL0     O68279   0.076   6.436   5.409  0.1169  0.5293  0.5897
  518MOL0     C68280  -0.054   6.395   5.372  0.3641 -0.1458  0.7285
  518MOL0     C68281  -0.146   6.510   5.331  0.6976 -0.6685 -1.3046
  518MOL0     C68282  -0.213   6.581   5.451  0.1957 -0.8710  0.4230
  518MOL0     C68283  -0.244   6.733   5.426 -0.6439  1.1719  0.0735
  518MOL0     C68284  -0.304   6.807   5.543 -0.0046  0.3953 -0.5304
  518MOL0     C68285  -0.195   6.803   5.654  0.1636  0.0315 -0.1523
  518MOL0     C68286  -0.251   6.897   5.764  1.0489 -0.4522 -0.6162
  518MOL0     C68287  -0.206   7.042   5.748 -0.5773  0.0209 -0.4936
  518MOL0    Cl68288  -0.280   7.129   5.883  0.7546 -0.3546 -0.3080
  518MOL0     C68289   0.197   6.228   5.353 -0.7881  0.4143  0.1622
  518MOL0     C68290   0.297   6.160   5.282  0.2529  0.1117  0.2134
  518MOL0     O68291   0.322   6.006   5.036 -0.0409  0.2488  0.1568
  518MOL0     C68292   0.501   5.853   4.909 -0.2608 -0.7340  0.0758
  518MOL0     C68293   0.589   5.763   4.848  0.1325 -1.1486 -0.6796
  518MOL0     N68294   1.434   5.816   4.596  0.3917 -0.0410 -0.1124
  518MOL0     N68295   1.563   5.788   4.590  0.0884 -0.5417  0.3449
  518MOL0     C68296   2.615   5.590   4.841 -0.7705  0.0912 -0.7210
  518MOL0     C68297   2.752   5.595   4.872 -0.1275 -0.2497 -0.9649
  518MOL0     C68298   3.136   5.670   5.124 -0.1021  0.2182  0.4342
  518MOL0     C68299   3.216   5.648   5.010  0.2021 -0.7245 -1.0455
  518MOL0     C68300   3.357   5.619   5.031 -0.5301 -0.2098  0.8438
  518MOL0     C68301   3.415   5.641   5.159 -0.1330 -0.0391 -0.0992
  518MOL0     O68302   3.550   5.640   5.196 -0.9203 -0.2789  0.6261
  518MOL0     C68303   3.638   5.633   5.084 -0.9980  0.0687 -0.2837
  518MOL0     C68304   3.656   5.767   5.015 -0.0856 -0.2082 -0.0816
  518MOL0     C68305   3.792   5.788   4.940  0.4095 -0.4222  0.3762
  518MOL0     C68306   3.773   5.765   4.794 -0.1945  0.3165 -0.8709
  518MOL0     C68307   3.898   5.808   4.730 -0.4692  0.0935 -0.0943
  518MOL0     C68308   3.999   5.826   4.666 -0.3647 -0.0982 -0.3475
  518MOL0     C68309   3.329   5.676   5.267 -0.4149  0.8405 -0.1953
  518MOL0     C68310   3.196   5.677   5.246 -0.0852 -0.4271  0.5621
  518MOL0     H68311   2.777   5.892   5.038  0.5423  0.2797 -1.3803
  518MOL0     H68312   2.524   5.877   4.994 -0.1959 -0.0662 -1.0548
  518MOL0     H68313   2.308   5.661   5.040  0.2380  0.7333 -1.0417
  518MOL0     H68314   2.399   5.514   5.011  1.0825  0.5175 -3.0377
  518MOL0     H68315   2.128   5.592   4.913 -0.2179 -1.1406 -1.3798
  518MOL0     H68316   2.194   5.444   4.978  4.8694  1.1388  3.9150
  518MOL0     H68317   2.334   5.412   4.761  0.2683  0.2524 -3.4906
  518MOL0     H68318   2.236   5.539   4.693  1.9152 -1.8605 -2.3960
  518MOL0     H68319   2.141   5.332   4.637  0.2196  1.6992  0.3813
  518MOL0     H68320   2.130   5.281   4.812  1.7382 -0.1359  0.0270
  518MOL0     H68321   1.941   5.425   4.848  1.9785 -0.5802  1.3095
  518MOL0     H68322   1.908   5.342   4.699 -2.2713 -0.0295  1.0499
  518MOL0     H68323   1.962   5.514   4.559  0.3672 -2.3969 -0.0490
  518MOL0     H68324   1.993   5.629   4.691  0.3282 -0.7014  1.6747
  518MOL0     H68325   1.741   5.517   4.755 -0.4221 -2.3711 -2.0182
  518MOL0     H68326   1.795   5.685   4.719  1.4255  0.2523  1.4254
  518MOL0     H68327   1.677   5.485   4.524 -0.3485 -0.2803 -0.1466
  518MOL0     H68328   1.745   5.648   4.476  0.5923 -1.1634 -0.0055
  518MOL0     H68329   1.427   5.496   4.646  1.5784 -0.8652 -2.0242
  518MOL0     H68330   1.187   5.641   4.507  1.8290  0.1352  0.1842
  518MOL0     H68331   1.176   5.792   4.605  4.6335  3.3452 -3.4985
  518MOL0     H68332   1.178   5.621   4.806 -1.1266 -0.0973  0.3025
  518MOL0     H68333   1.146   5.492   4.679 -1.1302 -0.2205  0.8620
  518MOL0     H68334   0.952   5.595   4.611  2.3057  0.8638 -1.4462
  518MOL0     H68335   0.963   5.527   4.778  0.0079 -0.3360 -1.5657
  518MOL0     H68336   0.956   5.832   4.724 -0.9697  0.0673 -1.6581
  518MOL0     H68337   0.983   5.745   4.877  0.8497 -0.7636 -1.0087
  518MOL0     H68338   0.870   5.948   4.898 -0.0905  1.1372 -1.0898
  518MOL0     H68339   0.693   6.098   5.023 -0.9941  0.6506 -0.1047
  518MOL0     H68340   0.415   6.445   5.118  0.7771 -2.2587 -1.2343
  518MOL0     H68341   0.247   6.548   5.251  0.2083  0.5618 -1.5277
  518MOL0     H68342  -0.103   6.343   5.455 -0.0982  0.1625  0.6553
  518MOL0     H68343  -0.056   6.323   5.289  2.0080  0.5327  0.0502
  518MOL0     H68344  -0.227   6.461   5.276  1.8777 -3.1769 -0.9307
  518MOL0     H68345  -0.111   6.582   5.257 -0.6734 -0.4941 -1.8203
  518MOL0     H68346  -0.150   6.579   5.540 -2.0674  2.0612  2.2733
  518MOL0     H68347  -0.297   6.517   5.481  0.8137 -1.0594  1.8443
  518MOL0     H68348  -0.148   6.779   5.401  1.3917 -3.0884 -0.8463
  518MOL0     H68349  -0.309   6.739   5.339 -0.8231 -1.3874 -0.0428
  518MOL0     H68350  -0.389   6.766   5.597 -0.1224  0.6629 -0.5085
  518MOL0     H68351  -0.334   6.909   5.514 -1.8260 -0.3597 -1.4539
  518MOL0     H68352  -0.101   6.846   5.617 -0.1783 -1.1434 -2.5693
  518MOL0     H68353  -0.169   6.708   5.700 -0.5258 -0.7964 -1.4207
  518MOL0     H68354  -0.360   6.894   5.753  1.2085 -2.8259 -2.2922
  518MOL0     H68355  -0.221   6.854   5.860  1.0986 -1.3767 -1.0368
  518MOL0     H68356  -0.236   7.078   5.649  1.7309 -0.0420 -1.2863
  518MOL0     H68357  -0.096   7.043   5.748 -0.4831  3.4763  0.8267
  518MOL0     H68358   0.140   6.176   5.428  2.8143 -0.7377  2.3667
  518MOL0     H68359   0.308   6.052   5.286  0.7468  0.1107 -0.8245
  518MOL0     H68360   0.396   5.830   4.890 -0.7394  1.2477  0.1461
  518MOL0     H68361   0.557   5.663   4.821  3.0561 -2.2138 -0.5052
  518MOL0     H68362   2.551   5.507   4.811 -1.3122  0.9464 -2.0024
  518MOL0     H68363   2.809   5.508   4.839 -1.0223 -0.8309 -1.0280
  518MOL0     H68364   3.174   5.643   4.910  0.2018  1.2688 -1.1740
  518MOL0     H68365   3.412   5.603   4.938 -2.5457 -0.1490 -0.4088
  518MOL0     H68366   3.605   5.555   5.015 -0.9761 -1.4467  1.3719
  518MOL0     H68367   3.736   5.601   5.120 -2.3321 -3.2706  0.6876
  518MOL0     H68368   3.570   5.784   4.950 -0.9747 -1.6338  0.6775
  518MOL0     H68369   3.639   5.844   5.091  1.1769  0.3097 -0.3081
  518MOL0     H68370   3.878   5.738   4.986  0.5546 -0.8031 -0.2956
  518MOL0     H68371   3.812   5.894   4.955  2.4972 -0.8960  1.3841
  518MOL0     H68372   3.765   5.658   4.770  0.5627  0.1075 -0.2260
  518MOL0     H68373   3.688   5.824   4.758 -1.9846 -1.8718 -0.4347
  518MOL0     H68374   4.092   5.848   4.618 -0.8245  4.9857  0.4838
  518MOL0     H68375   3.378   5.700   5.361  0.9441 -0.4864 -0.5311
  518MOL0     H68376   3.116   5.695   5.317  0.3042 -0.7177  1.0747
  519MOL0     O68377   8.692   9.780   2.732  0.3558  0.3101 -0.3047
  519MOL0     C68378   8.706   9.667   2.676 -0.4153 -0.1178  0.2335
  519MOL0     O68379   8.607   9.579   2.662 -0.5126 -0.3290  0.4661
  519MOL0     C68380   8.480   9.598   2.722 -0.0737  0.0557 -0.0097
  519MOL0     C68381   8.447   9.687   2.819  0.0095  0.0018  0.1511
  519MOL0     C68382   8.308   9.706   2.853 -0.3491 -0.4229 -0.2169
  519MOL0     C68383   8.207   9.628   2.797 -0.0528  0.2764 -0.9048
  519MOL0     O68384   8.078   9.662   2.823  0.9503 -0.0265 -0.0725
  519MOL0     C68385   7.976   9.571   2.787  0.6965  0.1954 -0.5234
  519MOL0     C68386   7.835   9.622   2.836  0.5922  0.8705 -0.0569
  519MOL0     C68387   7.713   9.532   2.812  0.2334 -0.1192 -0.5899
  519MOL0     C68388   7.590   9.583   2.886 -0.1925  0.2385  0.2055
  519MOL0     C68389   7.461   9.492   2.861  0.4277 -0.4690 -0.0098
  519MOL0     C68390   7.336   9.535   2.948 -0.0643 -0.3910  1.0990
  519MOL0     C68391   7.249   9.646   2.878 -0.1922 -0.3465 -0.0487
  519MOL0     C68392   7.164   9.578   2.772  0.0514 -0.3239  0.2058
  519MOL0     N68393   7.077   9.658   2.685 -0.2223  0.4910  0.2697
  519MOL0     C68394   7.126   9.738   2.590 -0.5534 -1.3186 -0.1199
  519MOL0     C68395   7.006   9.791   2.541 -1.1936 -0.9320  0.1886
  519MOL0     C68396   6.995   9.886   2.423  0.1549 -0.1822  0.4881
  519MOL0     C68397   6.860   9.944   2.404  0.6830  0.1462  1.0227
  519MOL0     C68398   6.844  10.057   2.300 -0.4045 -0.3309 -0.5474
  519MOL0     C68399   6.693  10.099   2.305 -0.4101  0.2543  0.0498
  519MOL0     O68400   6.634   9.990   2.228 -0.3462  0.1484 -0.6498
  519MOL0     C68401   6.497   9.982   2.239 -0.2912 -0.2555 -0.1687
  519MOL0     C68402   6.406  10.051   2.322  0.5776 -0.0576 -0.4460
  519MOL0     C68403   6.268  10.030   2.319  0.3264 -0.1298 -1.0577
  519MOL0     C68404   6.214   9.923   2.256  0.0554  0.1691  0.3314
  519MOL0     C68405   6.072   9.897   2.261  0.0933  0.0974  0.3761
  519MOL0     O68406   6.033   9.778   2.212  0.6919 -0.1757  0.2978
  519MOL0     C68407   5.897   9.760   2.196  0.4212  0.4598 -1.2806
  519MOL0     C68408   5.847   9.743   2.066 -0.0109 -0.9298 -0.3491
  519MOL0     C68409   5.707   9.725   2.035 -0.8983  0.3570  0.0326
  519MOL0     C68410   5.615   9.707   2.142 -0.2824 -0.2019  0.1294
  519MOL0     O68411   5.487   9.672   2.112  0.2306 -0.2763  0.3127
  519MOL0     C68412   5.383   9.694   2.211 -0.3504 -0.5902  0.7066
  519MOL0     C68413   5.248   9.655   2.155 -0.9453  0.1144 -0.2961
  519MOL0     C68414   5.189   9.747   2.055  0.6572  0.5424  0.2387
  519MOL0     C68415   5.042   9.704   2.023  0.2280  0.7778  0.3994
  519MOL0     C68416   4.950   9.824   2.006 -0.0877 -0.0243  0.0064
  519MOL0     C68417   4.998   9.907   1.888 -0.3292  0.2983  0.5318
  519MOL0     C68418   4.911  10.015   1.858  0.4024 -0.3849  0.5482
  519MOL0     C68419   4.942  10.075   1.716 -0.5519  0.4152 -0.2454
  519MOL0    Cl68420   5.119  10.128   1.699  0.2295 -0.0923  0.1847
  519MOL0     C68421   5.668   9.717   2.276 -0.6707 -0.3423  0.6096
  519MOL0     C68422   5.801   9.746   2.301 -0.0935  0.4361 -0.4923
  519MOL0     O68423   5.988   9.986   2.295  0.4933  0.1648 -1.0264
  519MOL0     C68424   6.303   9.845   2.188  0.6959  0.7900 -0.2984
  519MOL0     C68425   6.437   9.872   2.179 -0.0337 -0.0028  0.2768
  519MOL0     N68426   6.899   9.730   2.608  0.0709  0.2850  0.3846
  519MOL0     N68427   6.943   9.661   2.698 -0.0460  0.6929 -0.0023
  519MOL0     C68428   8.243   9.530   2.704 -1.0827  0.0083 -1.2201
  519MOL0     C68429   8.380   9.524   2.661  0.3833 -0.5714  0.4363
  519MOL0     C68430   8.843   9.629   2.638  0.0004 -0.0286  0.3257
  519MOL0     C68431   8.944   9.710   2.655 -0.6252 -0.7543 -0.4363
  519MOL0     C68432   9.077   9.666   2.629  0.5108 -0.1724 -0.0503
  519MOL0     C68433   9.102   9.531   2.587 -0.0632  0.0487 -0.9616
  519MOL0     O68434   9.224   9.469   2.582 -0.3858  0.0172  0.3949
  519MOL0     C68435   9.351   9.536   2.606  0.1156 -0.2402 -0.4887
  519MOL0     C68436   9.472   9.446   2.571  0.1263  0.3729 -0.5167
  519MOL0     C68437   9.602   9.511   2.581 -0.4925  0.0376  0.1001
  519MOL0     C68438   9.714   9.429   2.518  0.0148 -0.2792  0.2577
  519MOL0     C68439   9.842   9.505   2.544  0.8396 -0.5193  0.8227
  519MOL0     C68440   9.938   9.573   2.572 -0.2952 -0.1895 -0.0369
  519MOL0     C68441   8.993   9.456   2.546 -0.4648 -0.9661 -0.8369
  519MOL0     C68442   8.864   9.510   2.570 -0.3589  0.3484 -0.3717
  519MOL0     H68443   8.508   9.753   2.880  0.3329 -0.6690  0.5612
  519MOL0     H68444   8.285   9.788   2.921  1.6487  1.1188 -1.2873
  519MOL0     H68445   7.989   9.476   2.839 -1.8741 -1.3445 -2.4667
  519MOL0     H68446   7.970   9.558   2.679  0.1853 -2.9535 -0.2211
  519MOL0     H68447   7.802   9.718   2.793  0.3326  0.6662 -0.3163
  519MOL0     H68448   7.836   9.644   2.943  0.8724 -3.9689  1.1657
  519MOL0     H68449   7.750   9.439   2.856 -1.7787  0.4382  2.5665
  519MOL0     H68450   7.687   9.522   2.706 -1.4087  1.6404 -0.3854
  519MOL0     H68451   7.604   9.580   2.995 -2.8538  4.4030  0.8600
  519MOL0     H68452   7.577   9.686   2.854 -0.4574 -0.6485 -2.8042
  519MOL0     H68453   7.483   9.385   2.873  1.2854 -0.5835 -2.0561
  519MOL0     H68454   7.427   9.506   2.758 -0.4231  1.5478  0.5120
  519MOL0     H68455   7.377   9.580   3.039  0.4612  2.1674 -0.3132
  519MOL0     H68456   7.274   9.449   2.978  1.7776 -1.8435  0.9473
  519MOL0     H68457   7.178   9.690   2.948 -0.8420 -2.1750  0.5074
  519MOL0     H68458   7.327   9.713   2.840  1.2442 -1.2237  1.2315
  519MOL0     H68459   7.103   9.503   2.823 -0.4458 -0.6947 -0.8938
  519MOL0     H68460   7.232   9.516   2.712 -0.1844 -0.8606  0.4911
  519MOL0     H68461   7.231   9.754   2.569 -0.9633  3.2304  0.2771
  519MOL0     H68462   7.035   9.839   2.332  2.2220  0.6639  0.8992
  519MOL0     H68463   7.056   9.971   2.455  0.0461 -0.9091  2.8234
  519MOL0     H68464   6.835   9.988   2.501  0.1958  0.8409  0.5949
  519MOL0     H68465   6.792   9.866   2.367 -0.1276  2.0172 -1.7995
  519MOL0     H68466   6.895  10.150   2.327  2.5838 -2.0034  0.0014
  519MOL0     H68467   6.874  10.021   2.202  2.3247 -0.3051  0.2170
  519MOL0     H68468   6.656  10.182   2.244 -3.6618 -0.1697  1.2413
  519MOL0     H68469   6.652  10.091   2.406  1.2777  0.5918  0.7807
  519MOL0     H68470   6.443  10.136   2.379  0.3330 -1.3695  1.7804
  519MOL0     H68471   6.195  10.091   2.371  0.7460  1.3573 -2.1384
  519MOL0     H68472   5.920   9.733   1.986 -1.0166 -1.0072 -1.2868
  519MOL0     H68473   5.668   9.725   1.933 -0.6923 -1.7837 -0.0911
  519MOL0     H68474   5.383   9.793   2.256 -0.1478  0.1690 -0.8967
  519MOL0     H68475   5.401   9.634   2.301 -2.1422 -2.5223 -0.1310
  519MOL0     H68476   5.191   9.666   2.247 -2.8783  0.2968 -1.4647
  519MOL0     H68477   5.264   9.552   2.121  1.1694  0.2446  0.1468
  519MOL0     H68478   5.242   9.741   1.959  0.4898  0.2938  0.1619
  519MOL0     H68479   5.189   9.851   2.089  1.4071  1.8190 -3.2233
  519MOL0     H68480   5.050   9.634   1.939  1.5776 -3.3609  3.6018
  519MOL0     H68481   5.009   9.645   2.109  3.6415  1.2446  2.1907
  519MOL0     H68482   4.960   9.888   2.095 -0.4588 -0.3318  0.2682
  519MOL0     H68483   4.845   9.795   2.001  0.1117 -0.6891 -0.4675
  519MOL0     H68484   4.998   9.834   1.807 -0.5719 -1.2505  1.8724
  519MOL0     H68485   5.098   9.945   1.912 -0.9438  2.2824  0.0818
  519MOL0     H68486   4.816   9.962   1.863  1.3183 -2.2286 -0.5683
  519MOL0     H68487   4.924  10.088   1.939 -0.5367  2.3430 -1.5985
  519MOL0     H68488   4.888  10.170   1.706 -0.5957  0.1784 -3.2780
  519MOL0     H68489   4.915  10.012   1.631 -2.1837 -0.6901  1.0210
  519MOL0     H68490   5.597   9.711   2.357 -0.5264 -0.1442  0.7517
  519MOL0     H68491   5.839   9.770   2.400 -0.3760  1.9022 -0.7124
  519MOL0     H68492   6.275   9.758   2.129  0.7674 -1.9352  3.3068
  519MOL0     H68493   6.502   9.806   2.121 -1.7579  0.5763 -2.5264
  519MOL0     H68494   8.174   9.461   2.657 -2.0842 -0.0805  0.2992
  519MOL0     H68495   8.404   9.455   2.579 -0.1639 -0.7322  0.4086
  519MOL0     H68496   8.922   9.807   2.699  0.8281 -0.1214 -1.0086
  519MOL0     H68497   9.162   9.734   2.632  0.6853 -0.4008  0.4000
  519MOL0     H68498   9.364   9.572   2.708  1.8436 -0.5937 -0.5625
  519MOL0     H68499   9.365   9.627   2.546 -1.8560  3.2264  3.7324
  519MOL0     H68500   9.467   9.371   2.651 -2.6367  0.7769 -0.2065
  519MOL0     H68501   9.455   9.392   2.477 -2.2519 -1.9626  1.0743
  519MOL0     H68502   9.643   9.502   2.682 -0.1240 -1.6172 -0.1672
  519MOL0     H68503   9.610   9.613   2.543  1.9000 -0.9926 -2.5026
  519MOL0     H68504   9.710   9.322   2.543 -0.5911 -0.6580 -1.3463
  519MOL0     H68505   9.698   9.429   2.410 -1.7482 -0.6008  0.4786
  519MOL0     H68506  10.019   9.636   2.605 -0.2850  0.8910 -2.0014
  519MOL0     H68507   9.010   9.366   2.488  2.1456 -0.1115 -1.5553
  519MOL0     H68508   8.782   9.441   2.550 -0.5295 -0.9816  3.9216
  520MOL0     O68509   9.700   2.821   4.036  0.6374  0.4432 -0.7160
  520MOL0     C68510   9.716   2.752   3.934 -0.6945 -0.6008  0.2906
  520MOL0     O68511   9.647   2.644   3.896  0.0376  0.5136  0.3365
  520MOL0     C68512   9.515   2.626   3.944 -0.3256  0.3759  0.3217
  520MOL0     C68513   9.433   2.722   3.992 -0.4139  0.2167  0.6572
  520MOL0     C68514   9.305   2.684   4.039 -0.1969  0.0645  0.3584
  520MOL0     C68515   9.260   2.551   4.022  0.6243 -0.7927  0.5326
  520MOL0     O68516   9.138   2.525   4.085  0.1859 -0.0266 -0.2918
  520MOL0     C68517   9.017   2.603   4.063 -0.4890 -0.1924 -0.1346
  520MOL0     C68518   8.913   2.516   3.993  1.6355 -0.7647 -0.7379
  520MOL0     C68519   8.828   2.425   4.090  0.8222 -0.7219 -0.1352
  520MOL0     C68520   8.703   2.380   4.004  0.0743  0.3281 -0.5642
  520MOL0     C68521   8.600   2.311   4.090  0.0246 -0.4768  0.4505
  520MOL0     C68522   8.503   2.246   3.982  0.8546  0.8657 -0.2757
  520MOL0     C68523   8.375   2.186   4.057  0.1319 -0.2405  0.7144
  520MOL0     C68524   8.304   2.110   3.944 -0.0456 -0.6087 -0.1637
  520MOL0     N68525   8.190   2.034   3.999 -0.5623  0.4018 -0.2040
  520MOL0     C68526   8.067   2.092   4.024 -0.1731 -0.1818  0.0627
  520MOL0     C68527   8.009   1.999   4.102 -0.3127 -0.3035  0.8861
  520MOL0     C68528   7.860   2.007   4.144 -0.2780 -0.6963  0.2778
  520MOL0     C68529   7.805   2.143   4.196 -0.0417  0.3513  0.2468
  520MOL0     C68530   7.654   2.167   4.218 -0.4334  0.3247  0.0713
  520MOL0     C68531   7.602   2.087   4.337 -0.3502 -1.0458  0.2519
  520MOL0     O68532   7.479   2.150   4.385 -0.4480  0.6386  0.0507
  520MOL0     C68533   7.363   2.082   4.400 -0.5610  0.7853 -0.7521
  520MOL0     C68534   7.330   1.948   4.366 -0.0795  1.0709 -0.1295
  520MOL0     C68535   7.205   1.897   4.388  0.0083  0.9964  0.1660
  520MOL0     C68536   7.108   1.969   4.464 -0.2990  1.0086  0.2914
  520MOL0     C68537   6.986   1.903   4.510 -0.1593 -0.0882 -0.6930
  520MOL0     O68538   6.947   1.790   4.443 -0.6982  0.5910  0.0080
  520MOL0     C68539   6.832   1.717   4.479  0.1504 -0.4151  0.1263
  520MOL0     C68540   6.769   1.645   4.378 -0.0804  0.1217 -0.1444
  520MOL0     C68541   6.666   1.560   4.406 -0.3737  0.0273 -0.4472
  520MOL0     C68542   6.627   1.540   4.537 -0.1793  0.1954 -0.4208
  520MOL0     O68543   6.517   1.478   4.563  0.8749 -0.1095 -0.2611
  520MOL0     C68544   6.486   1.362   4.481  0.1907 -0.2189  0.4984
  520MOL0     C68545   6.395   1.278   4.571 -0.2829  0.2933 -0.6865
  520MOL0     C68546   6.472   1.207   4.686 -0.6616  0.2748  0.5263
  520MOL0     C68547   6.382   1.148   4.794  0.6959  0.5825 -0.7177
  520MOL0     C68548   6.474   1.062   4.894  0.3954 -0.5838 -0.0378
  520MOL0     C68549   6.412   1.064   5.031  0.2390 -0.1062  0.5202
  520MOL0     C68550   6.418   1.204   5.092  0.4497 -0.7174  0.1612
  520MOL0     C68551   6.517   1.222   5.201 -0.0694 -0.7343 -0.4059
  520MOL0    Cl68552   6.666   1.310   5.139 -0.0041  0.1527 -0.0016
  520MOL0     C68553   6.688   1.607   4.641  0.6575  0.7095  0.5110
  520MOL0     C68554   6.797   1.691   4.608 -0.0408 -0.6123  0.2991
  520MOL0     O68555   6.915   1.963   4.587 -0.7983  0.0944  0.8143
  520MOL0     C68556   7.139   2.103   4.489 -0.3066  0.1914 -0.7868
  520MOL0     C68557   7.266   2.157   4.460 -0.0133  0.1767  0.0881
  520MOL0     N68558   8.089   1.893   4.115 -0.0205  0.6561  0.1445
  520MOL0     N68559   8.193   1.900   4.046  0.6391  0.5600 -0.0514
  520MOL0     C68560   9.339   2.457   3.972 -0.8563  0.1755 -0.8583
  520MOL0     C68561   9.470   2.494   3.939  0.0357  0.1871  0.9389
  520MOL0     C68562   9.843   2.793   3.857  0.1147 -0.5878  0.3322
  520MOL0     C68563   9.913   2.909   3.905 -0.2104 -0.2735  0.0240
  520MOL0     C68564  10.035   2.955   3.854 -0.1458 -0.4532  0.2109
  520MOL0     C68565  10.076   2.885   3.737  0.5125 -0.9611  0.4260
  520MOL0     O68566  10.190   2.919   3.665 -0.1620  0.9104  0.6280
  520MOL0     C68567  10.260   3.039   3.690  0.8466  0.1939 -0.1652
  520MOL0     C68568  10.384   3.060   3.605 -0.8320  0.0317  0.5682
  520MOL0     C68569  10.429   3.198   3.586  0.6141  0.4509 -0.4231
  520MOL0     C68570  10.479   3.272   3.712  0.9108 -0.3879 -0.3354
  520MOL0     C68571  10.559   3.191   3.792 -0.9890  0.3285  0.0096
  520MOL0     C68572  10.631   3.136   3.876 -0.4736 -0.7051  0.6076
  520MOL0     C68573  10.001   2.784   3.677 -0.3760 -0.8049  0.1888
  520MOL0     C68574   9.884   2.732   3.733 -0.6047  0.6484 -0.1514
  520MOL0     H68575   9.467   2.825   3.995  3.8783 -0.9966  0.5795
  520MOL0     H68576   9.242   2.765   4.074 -0.1289  0.4129 -0.3023
  520MOL0     H68577   9.038   2.687   3.996  0.3540 -1.0432 -0.9872
  520MOL0     H68578   8.979   2.625   4.163  0.9692 -0.6281  0.5468
  520MOL0     H68579   8.962   2.459   3.913  3.6084  0.0686 -0.1745
  520MOL0     H68580   8.860   2.592   3.935  2.0605 -1.4409 -2.0555
  520MOL0     H68581   8.797   2.479   4.179 -1.5820 -0.7556 -0.8789
  520MOL0     H68582   8.879   2.336   4.129  2.6443  0.6414  0.7401
  520MOL0     H68583   8.651   2.465   3.959  0.0873 -0.2231 -1.6527
  520MOL0     H68584   8.746   2.314   3.927  2.5349  1.9039 -0.6879
  520MOL0     H68585   8.551   2.378   4.162  1.4264  0.3421  0.6614
  520MOL0     H68586   8.650   2.229   4.142  1.8944 -1.4819 -2.6684
  520MOL0     H68587   8.551   2.169   3.922 -2.6551 -0.6822 -1.3291
  520MOL0     H68588   8.466   2.324   3.914  0.0851  1.2854  0.6023
  520MOL0     H68589   8.405   2.119   4.138  1.1991  0.3050  0.7965
  520MOL0     H68590   8.305   2.260   4.097  0.7527 -0.6194  2.6011
  520MOL0     H68591   8.367   2.043   3.885 -1.9960 -3.6864  1.0541
  520MOL0     H68592   8.275   2.187   3.871  2.3772  1.1846  0.6281
  520MOL0     H68593   8.025   2.189   4.000 -1.3482 -0.5840  0.3961
  520MOL0     H68594   7.842   1.938   4.227  1.4274 -2.1157 -0.4812
  520MOL0     H68595   7.801   1.969   4.060  0.6518 -1.1286 -0.1965
  520MOL0     H68596   7.815   2.205   4.107  0.7702 -4.1609 -3.1635
  520MOL0     H68597   7.861   2.177   4.283  0.1991 -1.9162  1.0300
  520MOL0     H68598   7.628   2.268   4.251 -4.0612 -0.7787  1.0033
  520MOL0     H68599   7.605   2.155   4.121  2.2274 -0.6253 -1.2843
  520MOL0     H68600   7.677   2.069   4.414  2.3067  3.8334 -0.8209
  520MOL0     H68601   7.578   1.993   4.285 -0.2827 -0.6003 -0.5862
  520MOL0     H68602   7.395   1.876   4.317 -0.2855  1.0244 -0.3343
  520MOL0     H68603   7.191   1.792   4.362  0.4635  0.8362  0.5501
  520MOL0     H68604   6.807   1.654   4.277  1.5414 -3.6973 -0.0649
  520MOL0     H68605   6.622   1.498   4.328 -1.1606 -2.2755  1.7198
  520MOL0     H68606   6.581   1.316   4.453 -0.4945 -0.7532 -1.0842
  520MOL0     H68607   6.432   1.385   4.389  0.6112 -0.0553  0.2898
  520MOL0     H68608   6.347   1.197   4.515 -2.3881  0.7196  0.4131
  520MOL0     H68609   6.318   1.341   4.615  0.1309  0.4628 -0.1920
  520MOL0     H68610   6.527   1.288   4.735 -1.5681  0.3195  1.4980
  520MOL0     H68611   6.541   1.133   4.646 -0.1838  1.8116 -1.6961
  520MOL0     H68612   6.321   1.225   4.843 -0.5669  0.3373 -1.8465
  520MOL0     H68613   6.311   1.081   4.745  0.4607  0.7623 -0.6297
  520MOL0     H68614   6.568   1.116   4.906  1.2954 -2.5018  2.6195
  520MOL0     H68615   6.475   0.955   4.870 -4.3072 -0.6841 -0.8664
  520MOL0     H68616   6.462   0.993   5.098 -2.3886 -1.1616  1.4833
  520MOL0     H68617   6.306   1.039   5.020 -1.1738  4.3396  1.7302
  520MOL0     H68618   6.443   1.272   5.010  0.1183 -1.4925 -0.6008
  520MOL0     H68619   6.322   1.240   5.129  1.3821  1.6159  0.4418
  520MOL0     H68620   6.542   1.125   5.244 -3.4336 -1.4618  0.2106
  520MOL0     H68621   6.474   1.282   5.282  0.8533 -1.4883  0.6630
  520MOL0     H68622   6.661   1.593   4.745 -2.8744  1.7368 -0.1372
  520MOL0     H68623   6.866   1.743   4.675 -2.3621  2.7166  0.3634
  520MOL0     H68624   7.076   2.170   4.546 -0.5035  0.3870 -1.2275
  520MOL0     H68625   7.304   2.248   4.504  1.9250 -0.5762  0.0714
  520MOL0     H68626   9.320   2.351   3.957  2.5953 -0.9849  1.5230
  520MOL0     H68627   9.544   2.423   3.904 -0.5110 -0.6343  1.4183
  520MOL0     H68628   9.864   2.965   3.984  0.3533  0.0266  0.1629
  520MOL0     H68629  10.079   3.045   3.894 -1.1890  0.2616 -0.2000
  520MOL0     H68630  10.300   3.047   3.791  3.7053 -0.6453 -1.1338
  520MOL0     H68631  10.191   3.121   3.666 -2.2197 -2.0727  0.3731
  520MOL0     H68632  10.467   2.994   3.630  0.3899  1.7257  1.1665
  520MOL0     H68633  10.354   3.027   3.505 -0.1399 -0.3047  0.4651
  520MOL0     H68634  10.354   3.266   3.544  1.1260  2.3525  1.5495
  520MOL0     H68635  10.520   3.202   3.526  1.5308 -0.0359  0.8961
  520MOL0     H68636  10.538   3.358   3.678  2.2777 -1.3205 -0.3886
  520MOL0     H68637  10.397   3.310   3.773  2.3580  0.3180  1.2560
  520MOL0     H68638  10.699   3.110   3.955 -0.5859  0.2541  1.0358
  520MOL0     H68639  10.029   2.746   3.579  0.1241 -0.0103  0.0139
  520MOL0     H68640   9.829   2.659   3.674  2.2747  0.9961 -3.5828
  521MOL0     O68641   2.935   2.031   1.742 -0.3691 -0.0361  0.3881
  521MOL0     C68642   2.965   2.063   1.626  0.4371 -0.1476 -0.4461
  521MOL0     O68643   2.875   2.083   1.527  0.0709  0.1013 -0.2806
  521MOL0     C68644   2.744   2.060   1.559  0.3595  0.4117  0.8789
  521MOL0     C68645   2.678   1.955   1.497  0.1718  0.1610 -0.0193
  521MOL0     C68646   2.544   1.937   1.544  0.4176  0.4422 -0.2288
  521MOL0     C68647   2.466   2.020   1.629  0.1679 -0.0337 -0.6193
  521MOL0     O68648   2.337   1.996   1.641 -0.0048  0.2004 -0.1658
  521MOL0     C68649   2.276   1.985   1.770 -0.1786 -0.0550  0.4490
  521MOL0     C68650   2.125   1.971   1.781 -0.4069 -0.8149 -0.2190
  521MOL0     C68651   2.062   1.848   1.710 -0.8488  0.6607 -0.8070
  521MOL0     C68652   1.907   1.853   1.733 -0.0584 -0.3300  0.0925
  521MOL0     C68653   1.842   1.722   1.697  0.3357 -1.6058 -0.0554
  521MOL0     C68654   1.849   1.673   1.555 -0.4808 -0.8151  0.2471
  521MOL0     C68655   1.805   1.780   1.457 -0.0540  0.6214  0.2603
  521MOL0     C68656   1.781   1.725   1.316 -0.5491 -0.0355  0.1642
  521MOL0     N68657   1.803   1.830   1.216  0.5587  0.7660  0.1859
  521MOL0     C68658   1.758   1.961   1.221  0.1200  0.4241  0.0640
  521MOL0     C68659   1.790   2.019   1.098 -0.0812 -0.3637  0.2664
  521MOL0     C68660   1.755   2.164   1.050  0.0607  0.5716 -0.6160
  521MOL0     C68661   1.638   2.174   0.954 -0.1061  0.3006 -0.9061
  521MOL0     C68662   1.586   2.318   0.950 -0.0793  0.4979 -0.2261
  521MOL0     C68663   1.436   2.310   0.919  0.2533 -0.2890 -0.3383
  521MOL0     O68664   1.361   2.249   1.023  0.0990  0.1502 -0.3312
  521MOL0     C68665   1.222   2.249   1.001 -0.7025 -1.1211  0.6239
  521MOL0     C68666   1.151   2.156   1.065 -0.0171  0.5182 -0.6533
  521MOL0     C68667   1.013   2.156   1.085 -0.7410 -0.9171  0.7641
  521MOL0     C68668   0.944   2.233   0.994  0.1420 -0.9720  0.3433
  521MOL0     C68669   0.798   2.225   1.003  0.0998 -0.6095  0.7424
  521MOL0     O68670   0.740   2.166   1.113  0.9271  0.1346 -0.0248
  521MOL0     C68671   0.604   2.132   1.127  0.2239  0.3240 -0.1433
  521MOL0     C68672   0.583   2.084   1.255 -0.4439 -0.0712 -0.9131
  521MOL0     C68673   0.457   2.033   1.292 -0.7661  0.2711 -0.9039
  521MOL0     C68674   0.357   2.017   1.199  0.0936  0.4117  0.0693
  521MOL0     O68675   0.243   1.946   1.237  0.1795 -0.3197  0.1477
  521MOL0     C68676   0.254   1.815   1.171  0.5151  0.5216  0.1281
  521MOL0     C68677   0.150   1.729   1.250 -0.0903  1.5120  0.0192
  521MOL0     C68678   0.008   1.776   1.214  0.7736 -0.6643 -0.6367
  521MOL0     C68679  -0.100   1.694   1.286 -0.3203 -0.1057 -0.1113
  521MOL0     C68680  -0.241   1.720   1.247  1.0236 -0.4724 -0.7833
  521MOL0     C68681  -0.332   1.598   1.273  0.5413  0.4748 -0.5293
  521MOL0     C68682  -0.382   1.565   1.421  0.6505  0.4043  1.2784
  521MOL0     C68683  -0.456   1.684   1.485 -0.1648  0.1051  0.6198
  521MOL0    Cl68684  -0.623   1.724   1.403  0.2788 -0.5208  0.2392
  521MOL0     C68685   0.374   2.068   1.066 -0.6631 -0.1498 -0.4136
  521MOL0     C68686   0.502   2.128   1.033  0.8455 -0.2043  0.4131
  521MOL0     O68687   0.736   2.271   0.906  0.8580 -0.1503 -0.2586
  521MOL0     C68688   1.007   2.324   0.906  0.5043 -0.4921  0.2869
  521MOL0     C68689   1.143   2.343   0.916 -0.4334  0.5418  0.4358
  521MOL0     N68690   1.860   1.923   1.023  0.2039 -0.5536  0.1902
  521MOL0     N68691   1.864   1.815   1.093  0.4778  0.2894  0.4977
  521MOL0     C68692   2.540   2.125   1.682 -0.5152  0.0562 -0.0624
  521MOL0     C68693   2.675   2.146   1.649 -1.3494  0.3492  1.3370
  521MOL0     C68694   3.097   2.101   1.601 -0.5927  0.4574 -0.4347
  521MOL0     C68695   3.196   2.107   1.702  0.0038 -0.4580  0.1471
  521MOL0     C68696   3.324   2.150   1.677  0.6443  0.4261  0.0959
  521MOL0     C68697   3.370   2.176   1.544  0.4096 -0.3356 -0.6348
  521MOL0     O68698   3.496   2.204   1.518  0.0582 -0.2135  0.0612
  521MOL0     C68699   3.561   2.179   1.394 -1.4579 -0.2662  0.1582
  521MOL0     C68700   3.610   2.034   1.393 -0.0782  0.8480  0.0328
  521MOL0     C68701   3.504   1.926   1.363  0.7733 -0.1349 -0.5017
  521MOL0     C68702   3.572   1.797   1.372 -0.0725  0.1814 -0.2941
  521MOL0     C68703   3.489   1.691   1.326  0.3154  0.7236 -1.2430
  521MOL0     C68704   3.423   1.592   1.296 -0.3872 -0.1675  0.6919
  521MOL0     C68705   3.276   2.160   1.437  0.0792 -0.3563 -0.2371
  521MOL0     C68706   3.143   2.125   1.465 -0.0425 -0.2225  0.8076
  521MOL0     H68707   2.726   1.883   1.432  0.9331 -0.5213  1.2716
  521MOL0     H68708   2.480   1.864   1.495 -1.7793 -0.1837  3.2853
  521MOL0     H68709   2.305   2.079   1.817 -3.0400  1.2759 -0.2256
  521MOL0     H68710   2.329   1.906   1.826  0.2352  0.7052  1.1476
  521MOL0     H68711   2.087   2.062   1.735  0.9704 -0.0807  0.0294
  521MOL0     H68712   2.093   1.975   1.885  1.8716  3.0958  0.5247
  521MOL0     H68713   2.113   1.763   1.755 -0.3069  0.3024 -2.0533
  521MOL0     H68714   2.079   1.843   1.602 -0.7522 -0.2099 -0.7582
  521MOL0     H68715   1.878   1.892   1.831 -1.1138  5.8972 -2.2084
  521MOL0     H68716   1.860   1.930   1.671  0.5327 -1.9856 -2.5985
  521MOL0     H68717   1.735   1.720   1.719  0.1738  1.8972  0.0153
  521MOL0     H68718   1.892   1.647   1.759  1.2956  1.2760  2.9584
  521MOL0     H68719   1.789   1.582   1.549  0.1483 -1.1335 -2.1276
  521MOL0     H68720   1.953   1.648   1.534  1.8324  3.4262  4.6317
  521MOL0     H68721   1.710   1.824   1.489 -0.2553  0.5996 -0.2798
  521MOL0     H68722   1.886   1.853   1.457 -2.2397  3.2313  1.8050
  521MOL0     H68723   1.682   1.678   1.313 -1.0526  0.8610  1.4644
  521MOL0     H68724   1.839   1.635   1.298 -1.8942 -0.4495 -2.8082
  521MOL0     H68725   1.698   2.006   1.300  0.4566 -0.0174  0.5757
  521MOL0     H68726   1.842   2.205   1.000 -0.7081  3.0131 -0.1117
  521MOL0     H68727   1.731   2.225   1.138 -0.5001 -1.1317  0.4844
  521MOL0     H68728   1.573   2.104   1.007  3.1595 -1.0381  1.6699
  521MOL0     H68729   1.661   2.124   0.859  2.7197  0.7753 -0.5670
  521MOL0     H68730   1.611   2.377   1.038  2.7013 -1.3487  0.3668
  521MOL0     H68731   1.630   2.359   0.858  2.2014 -1.9553 -0.3453
  521MOL0     H68732   1.415   2.253   0.828 -3.7909 -0.7216  0.6460
  521MOL0     H68733   1.395   2.409   0.896  2.5689  0.2438 -2.6280
  521MOL0     H68734   1.225   2.105   1.125  0.8247  1.8438 -0.5447
  521MOL0     H68735   0.963   2.095   1.160 -1.6687 -0.1827  0.7655
  521MOL0     H68736   0.657   2.101   1.332  1.0945 -1.1614 -2.0844
  521MOL0     H68737   0.440   2.007   1.396 -2.0391  3.1223 -0.2769
  521MOL0     H68738   0.351   1.765   1.169  0.6767  0.8526 -0.3613
  521MOL0     H68739   0.228   1.836   1.067  0.8280  0.7230  0.0895
  521MOL0     H68740   0.184   1.742   1.353  1.5251  0.5443 -0.3448
  521MOL0     H68741   0.162   1.626   1.214 -2.1822  1.4162 -0.5199
  521MOL0     H68742  -0.011   1.770   1.106 -0.4682  4.1174 -0.9070
  521MOL0     H68743   0.005   1.884   1.233 -2.1974 -1.2262  3.1921
  521MOL0     H68744  -0.077   1.588   1.270 -0.8542 -0.3148  0.4945
  521MOL0     H68745  -0.089   1.701   1.394  0.1425 -4.1192  0.2386
  521MOL0     H68746  -0.257   1.741   1.141  0.7058  1.2096 -0.4357
  521MOL0     H68747  -0.279   1.810   1.298 -0.3830 -1.7843  0.6080
  521MOL0     H68748  -0.292   1.501   1.239  2.5514 -0.0192  2.8082
  521MOL0     H68749  -0.420   1.615   1.210  1.8171  0.6702 -2.3559
  521MOL0     H68750  -0.445   1.476   1.428  3.0086 -1.3717  0.8812
  521MOL0     H68751  -0.294   1.535   1.477  0.9183  2.0455  1.8076
  521MOL0     H68752  -0.397   1.776   1.480 -0.5689  0.3835  0.9603
  521MOL0     H68753  -0.473   1.663   1.591 -0.1370  0.1724  0.6375
  521MOL0     H68754   0.293   2.054   0.996 -3.3581  0.9989  2.2508
  521MOL0     H68755   0.528   2.170   0.936  0.9117  0.0508  0.5418
  521MOL0     H68756   0.967   2.389   0.829  3.8070  2.2097  0.6126
  521MOL0     H68757   1.180   2.429   0.861 -0.1607  0.1823  0.0549
  521MOL0     H68758   2.500   2.194   1.755  1.0796  1.2350 -0.2441
  521MOL0     H68759   2.725   2.225   1.703 -3.0792  0.6652  2.5398
  521MOL0     H68760   3.163   2.084   1.803  2.2798 -1.1896  0.7775
  521MOL0     H68761   3.403   2.158   1.751  1.3075  2.1431 -0.7501
  521MOL0     H68762   3.641   2.249   1.371  0.3378 -0.9609  3.6030
  521MOL0     H68763   3.490   2.192   1.312  0.6239  2.8150 -1.3369
  521MOL0     H68764   3.686   2.020   1.316 -2.3333 -1.1911 -2.0147
  521MOL0     H68765   3.655   2.010   1.490 -0.0802 -3.6014 -0.8427
  521MOL0     H68766   3.456   1.936   1.266 -1.0649  2.7032  0.5684
  521MOL0     H68767   3.435   1.926   1.448  1.1274 -0.2257 -0.2090
  521MOL0     H68768   3.651   1.812   1.298  0.8676  1.5703  0.9424
  521MOL0     H68769   3.624   1.773   1.465  1.2099  0.6640 -0.8661
  521MOL0     H68770   3.361   1.505   1.284  0.8201 -0.7513 -2.0277
  521MOL0     H68771   3.297   2.180   1.333 -0.2059  3.1688  0.2282
  521MOL0     H68772   3.071   2.110   1.386  1.7977  2.4471 -1.6021
  522MOL0     O68773   8.610   8.929   1.847  0.0352 -0.0536  0.1769
  522MOL0     C68774   8.648   8.816   1.800  0.4505 -0.1608  0.2342
  522MOL0     O68775   8.561   8.714   1.751  0.0037 -0.2401 -0.3771
  522MOL0     C68776   8.421   8.739   1.749 -0.2890  0.0432 -0.3094
  522MOL0     C68777   8.350   8.672   1.853 -1.0101  0.1562  0.8344
  522MOL0     C68778   8.217   8.698   1.877 -0.0506 -0.5752 -0.3689
  522MOL0     C68779   8.150   8.792   1.796  0.2920 -0.3369  0.5253
  522MOL0     O68780   8.023   8.828   1.838 -0.2972 -0.2194  0.1944
  522MOL0     C68781   7.919   8.849   1.745  0.7272  0.0457 -0.4832
  522MOL0     C68782   7.787   8.879   1.828  0.2552  0.3110  0.2707
  522MOL0     C68783   7.665   8.869   1.751  0.1850  0.4527  0.1341
  522MOL0     C68784   7.660   8.971   1.640  0.5570  0.0097 -0.0675
  522MOL0     C68785   7.541   8.963   1.548 -0.1410 -0.7567  0.1027
  522MOL0     C68786   7.533   8.841   1.465  1.3129 -0.3289 -1.3724
  522MOL0     C68787   7.420   8.855   1.358 -0.0186 -0.3735 -0.2659
  522MOL0     C68788   7.420   8.750   1.251 -0.5298 -0.2775 -0.1406
  522MOL0     N68789   7.515   8.786   1.139 -0.3446 -1.2009 -0.7644
  522MOL0     C68790   7.639   8.753   1.129 -0.2103  0.6643 -1.1435
  522MOL0     C68791   7.688   8.834   1.034 -0.4848 -0.6003 -0.1556
  522MOL0     C68792   7.823   8.842   0.963  0.0306 -0.5356 -0.9012
  522MOL0     C68793   7.855   8.700   0.909 -0.2387 -0.4250 -0.1909
  522MOL0     C68794   7.930   8.704   0.777  0.0192  0.3538 -0.4866
  522MOL0     C68795   7.965   8.559   0.745  0.7517  0.1926 -0.1444
  522MOL0     O68796   8.033   8.477   0.839  0.1496 -0.0599  0.0049
  522MOL0     C68797   8.168   8.500   0.859 -0.1386 -0.2465  0.5752
  522MOL0     C68798   8.239   8.413   0.938  0.5013  0.0476 -1.3028
  522MOL0     C68799   8.375   8.425   0.962 -0.3344  0.1990 -0.0854
  522MOL0     C68800   8.444   8.534   0.904  0.7401 -0.2780 -0.3550
  522MOL0     C68801   8.589   8.556   0.931 -0.2045  0.0530 -0.5678
  522MOL0     O68802   8.653   8.648   0.855 -0.1407  0.8853  0.5565
  522MOL0     C68803   8.795   8.668   0.856 -0.9392 -0.0845 -0.1094
  522MOL0     C68804   8.880   8.559   0.850 -0.7891 -0.2246  0.2555
  522MOL0     C68805   9.018   8.586   0.851  0.0762  0.1031 -0.1818
  522MOL0     C68806   9.065   8.716   0.856  0.0602  0.9293 -0.0272
  522MOL0     O68807   9.203   8.723   0.877  0.2034 -0.0178  0.6944
  522MOL0     C68808   9.249   8.792   0.992 -0.7292 -0.1530 -1.1791
  522MOL0     C68809   9.395   8.810   0.979 -0.2022  0.1390 -0.1982
  522MOL0     C68810   9.461   8.871   1.109  1.4404  0.0698  0.3769
  522MOL0     C68811   9.607   8.894   1.097  0.0363  0.4020  0.7066
  522MOL0     C68812   9.667   8.969   1.217 -0.0595  0.7310  0.6539
  522MOL0     C68813   9.823   8.996   1.223  0.1186  0.3738  0.0553
  522MOL0     C68814   9.878   9.115   1.306 -0.1319 -0.7503  0.8947
  522MOL0     C68815  10.036   9.102   1.326 -0.0635 -0.3260 -0.2474
  522MOL0    Cl68816  10.069   9.111   1.499  0.1086  0.2520 -0.0697
  522MOL0     C68817   8.984   8.833   0.859  0.1121  0.2455 -0.3766
  522MOL0     C68818   8.842   8.801   0.854  0.6826  0.1040 -0.2111
  522MOL0     O68819   8.647   8.479   1.006  0.0399 -0.4385  0.4521
  522MOL0     C68820   8.379   8.624   0.828  0.1461  0.0547  0.9514
  522MOL0     C68821   8.245   8.607   0.799 -0.2864  0.3899  0.1440
  522MOL0     N68822   7.593   8.935   1.006 -0.1514  0.6102  0.2713
  522MOL0     N68823   7.489   8.900   1.067  0.6230  0.9721 -0.9333
  522MOL0     C68824   8.214   8.846   1.678  0.0249  0.3906 -0.4545
  522MOL0     C68825   8.355   8.822   1.655 -0.0488  0.8776 -0.0208
  522MOL0     C68826   8.795   8.792   1.816 -0.0297  0.1004 -0.2561
  522MOL0     C68827   8.839   8.656   1.816 -0.2450  0.6482 -0.3505
  522MOL0     C68828   8.974   8.632   1.843  0.4659 -0.3047  0.1123
  522MOL0     C68829   9.060   8.738   1.857 -0.4290  0.1466  0.4140
  522MOL0     O68830   9.193   8.715   1.850  0.0067  0.0144  0.2949
  522MOL0     C68831   9.285   8.793   1.927 -0.5806  0.0492 -0.2294
  522MOL0     C68832   9.426   8.742   1.935  0.0235 -0.3990  0.1671
  522MOL0     C68833   9.448   8.615   2.016 -0.1740  0.7231 -0.2161
  522MOL0     C68834   9.589   8.576   2.008  0.3066 -0.0705  0.3988
  522MOL0     C68835   9.680   8.676   2.075  0.0303  0.5625  0.3900
  522MOL0     C68836   9.758   8.754   2.130  0.2251  0.3610 -1.3138
  522MOL0     C68837   9.012   8.865   1.835 -0.6251  0.0364 -0.8049
  522MOL0     C68838   8.876   8.895   1.826 -0.5590 -0.6887  0.9272
  522MOL0     H68839   8.413   8.615   1.920 -0.5559  0.2010  0.4484
  522MOL0     H68840   8.174   8.662   1.970  1.5184  4.5232  2.8028
  522MOL0     H68841   7.896   8.762   1.683 -0.5856 -0.1720  0.2805
  522MOL0     H68842   7.933   8.936   1.680  1.3024 -0.8762 -1.6212
  522MOL0     H68843   7.804   8.979   1.869  2.1765 -0.0822  0.5664
  522MOL0     H68844   7.779   8.810   1.912  3.9570 -2.5300 -1.4022
  522MOL0     H68845   7.574   8.891   1.808 -0.0193 -1.5347  0.6518
  522MOL0     H68846   7.656   8.764   1.720  2.3557  0.1770  0.2833
  522MOL0     H68847   7.663   9.072   1.682 -1.2661 -0.2264  0.7016
  522MOL0     H68848   7.751   8.959   1.580  0.7334  0.7060  0.0542
  522MOL0     H68849   7.551   9.052   1.484 -1.5985 -0.4262  0.3000
  522MOL0     H68850   7.451   8.986   1.606 -0.4529  0.2604 -0.7406
  522MOL0     H68851   7.506   8.757   1.528  0.9332 -0.0711 -1.1911
  522MOL0     H68852   7.630   8.813   1.423  2.5867  2.8281 -0.8202
  522MOL0     H68853   7.319   8.863   1.398 -1.4271  0.0603 -3.5465
  522MOL0     H68854   7.450   8.946   1.305  3.2283  0.2214  2.3211
  522MOL0     H68855   7.321   8.735   1.209 -0.5574  1.2536 -0.6715
  522MOL0     H68856   7.439   8.659   1.309  0.8350  0.9602  1.4574
  522MOL0     H68857   7.685   8.671   1.181 -4.0076 -0.8674  0.1547
  522MOL0     H68858   7.901   8.884   1.027 -2.3458 -2.0692  3.4309
  522MOL0     H68859   7.806   8.919   0.887  2.1586  1.7402  0.7836
  522MOL0     H68860   7.754   8.663   0.890 -1.4262  1.1837  2.4071
  522MOL0     H68861   7.915   8.650   0.986 -1.2427 -0.5872  0.5050
  522MOL0     H68862   7.867   8.743   0.698 -1.1891 -0.7641 -0.1066
  522MOL0     H68863   8.015   8.774   0.780 -1.5316  2.4833  4.1897
  522MOL0     H68864   8.007   8.556   0.644  1.8479  0.7663  0.2771
  522MOL0     H68865   7.862   8.521   0.745 -0.1354  2.2801  2.3314
  522MOL0     H68866   8.165   8.338   0.963 -1.8064  2.4860 -0.2041
  522MOL0     H68867   8.433   8.359   1.027  1.2999  3.6607  2.2786
  522MOL0     H68868   8.846   8.456   0.862  0.8710 -0.7708  0.6126
  522MOL0     H68869   9.084   8.501   0.858 -0.5348 -0.3897 -0.3286
  522MOL0     H68870   9.253   8.728   1.080  0.2811  2.5931  0.9281
  522MOL0     H68871   9.195   8.885   1.015 -0.9131 -0.5870  0.2397
  522MOL0     H68872   9.409   8.877   0.893  0.7794 -0.3605 -0.4362
  522MOL0     H68873   9.441   8.714   0.956 -2.3166 -0.7937 -0.7972
  522MOL0     H68874   9.434   8.796   1.184 -2.6854 -0.4189 -1.3252
  522MOL0     H68875   9.403   8.962   1.127  2.2443  0.3846  1.5063
  522MOL0     H68876   9.653   8.798   1.071 -0.6732  0.5398 -1.2198
  522MOL0     H68877   9.638   8.946   1.006 -2.2397  0.2659 -0.1939
  522MOL0     H68878   9.648   8.917   1.311  2.7234  3.3280  2.8670
  522MOL0     H68879   9.618   9.067   1.220 -0.1562  0.8574 -2.1084
  522MOL0     H68880   9.858   8.996   1.119 -0.3450 -0.5150 -0.1024
  522MOL0     H68881   9.881   8.913   1.264 -0.5052  0.0730  0.3283
  522MOL0     H68882   9.856   9.197   1.237 -0.1903 -0.5652  1.1319
  522MOL0     H68883   9.815   9.121   1.395 -1.6778 -2.1258 -0.0469
  522MOL0     H68884  10.084   9.189   1.279 -1.0511  0.2087 -0.3036
  522MOL0     H68885  10.078   9.008   1.291  0.7001 -0.3452  0.6873
  522MOL0     H68886   9.029   8.932   0.865  1.3333 -0.3370  0.7407
  522MOL0     H68887   8.767   8.877   0.839  1.9520  1.2468 -1.0675
  522MOL0     H68888   8.417   8.711   0.776 -1.0389 -1.4956 -2.8771
  522MOL0     H68889   8.190   8.677   0.737 -1.3198  0.2059  0.8357
  522MOL0     H68890   8.149   8.909   1.619  0.0958 -0.9008 -1.9985
  522MOL0     H68891   8.416   8.867   1.577 -2.9581 -0.0341 -3.0387
  522MOL0     H68892   8.769   8.575   1.801 -0.4755  0.7303  0.2387
  522MOL0     H68893   8.994   8.528   1.866 -0.2181 -0.1623  1.4947
  522MOL0     H68894   9.254   8.800   2.031  1.7730  2.2309  0.4234
  522MOL0     H68895   9.292   8.896   1.891 -0.6455  0.8411  1.9215
  522MOL0     H68896   9.461   8.737   1.832  1.8168 -0.2350  0.7284
  522MOL0     H68897   9.482   8.826   1.978 -0.3897 -0.8446  1.6363
  522MOL0     H68898   9.384   8.535   1.978 -2.3381  2.7558 -1.1427
  522MOL0     H68899   9.409   8.632   2.116 -1.1408  1.2735 -0.6648
  522MOL0     H68900   9.606   8.474   2.046  0.4579 -0.5367 -0.8828
  522MOL0     H68901   9.607   8.571   1.900  0.1690  1.5505  0.2750
  522MOL0     H68902   9.809   8.832   2.183  0.2930  0.6230 -1.7608
  522MOL0     H68903   9.075   8.952   1.848 -0.5522 -0.2148  0.7209
  522MOL0     H68904   8.850   9.001   1.821  0.6996 -0.3848  0.0321
  523MOL0     O68905  11.087  11.077   5.548  0.2996  0.4461 -0.3097
  523MOL0     C68906  11.122  10.973   5.489 -0.2349 -0.0167  0.1866
  523MOL0     O68907  11.062  10.908   5.387 -0.0818 -0.4861 -0.0742
  523MOL0     C68908  10.928  10.924   5.357 -0.6324 -0.3347 -0.1972
  523MOL0     C68909  10.886  10.873   5.231 -0.3418 -0.1694 -0.1040
  523MOL0     C68910  10.751  10.890   5.188  1.6755  0.1579 -0.8876
  523MOL0     C68911  10.661  10.967   5.265  0.2091  0.5034 -0.1900
  523MOL0     O68912  10.527  10.974   5.245 -0.0230  0.3316  0.7113
  523MOL0     C68913  10.501  11.058   5.134 -0.2521  0.2052  0.4203
  523MOL0     C68914  10.357  11.084   5.112 -0.8593  0.7442 -0.4636
  523MOL0     C68915  10.290  10.978   5.033  0.1829  0.2439  0.1628
  523MOL0     C68916  10.271  10.851   5.116 -0.9497 -0.8635 -0.6526
  523MOL0     C68917  10.213  10.740   5.044  0.5124 -0.0463  0.1390
  523MOL0     C68918  10.067  10.772   4.973  0.3380  0.7823  0.4157
  523MOL0     C68919   9.993  10.633   4.979  0.1244  0.1132  0.7939
  523MOL0     C68920   9.929  10.607   5.118  0.5271  0.1329 -0.2613
  523MOL0     N68921   9.832  10.710   5.155 -0.4133 -0.3036  0.2173
  523MOL0     C68922   9.721  10.741   5.081 -0.5735  0.2167 -0.3874
  523MOL0     C68923   9.679  10.863   5.127  0.0739  0.0763 -0.6094
  523MOL0     C68924   9.560  10.940   5.081 -1.1915  0.6804  0.1231
  523MOL0     C68925   9.427  10.931   5.172  0.5826  0.4011  0.2669
  523MOL0     C68926   9.387  10.784   5.192  0.2934  1.0205  0.0416
  523MOL0     C68927   9.317  10.737   5.060  0.7770  0.1499 -0.2914
  523MOL0     O68928   9.280  10.603   5.083 -0.2293  0.3029 -0.2017
  523MOL0     C68929   9.158  10.574   5.130  0.0752  0.6706 -0.1096
  523MOL0     C68930   9.039  10.657   5.146 -0.0442  0.4188  0.6465
  523MOL0     C68931   8.918  10.606   5.193 -0.4614  1.1545 -0.2633
  523MOL0     C68932   8.918  10.481   5.257  0.3468 -0.0950 -0.4815
  523MOL0     C68933   8.794  10.439   5.327  0.0917  0.8712  0.4830
  523MOL0     O68934   8.676  10.507   5.308 -0.2109 -0.1873 -0.0199
  523MOL0     C68935   8.564  10.466   5.381 -0.6329 -0.1676 -0.0360
  523MOL0     C68936   8.556  10.430   5.511 -0.9798  1.1121  0.8451
  523MOL0     C68937   8.437  10.371   5.554 -0.7242  0.2367  0.0152
  523MOL0     C68938   8.332  10.346   5.470 -0.7370  0.4924 -0.1612
  523MOL0     O68939   8.214  10.279   5.511 -0.3374 -0.4384 -0.5617
  523MOL0     C68940   8.220  10.229   5.645  0.5939 -0.2693 -0.1700
  523MOL0     C68941   8.086  10.162   5.686 -0.2046 -0.1178 -0.3112
  523MOL0     C68942   8.085  10.109   5.828 -0.4699  0.9819  0.2359
  523MOL0     C68943   7.945  10.069   5.870 -0.2892  0.6546 -0.9409
  523MOL0     C68944   7.857  10.200   5.900  0.0066  0.9471 -0.0585
  523MOL0     C68945   7.706  10.174   5.883  0.4642 -0.2462  0.0986
  523MOL0     C68946   7.621  10.306   5.920 -0.0841  0.3213 -0.0603
  523MOL0     C68947   7.651  10.433   5.849  0.0430  0.3863  0.5547
  523MOL0    Cl68948   7.588  10.576   5.929  0.0154 -0.0328 -0.0108
  523MOL0     C68949   8.338  10.389   5.338  0.2376 -0.1439 -0.5472
  523MOL0     C68950   8.450  10.458   5.301 -1.0537  0.2616 -0.3340
  523MOL0     O68951   8.812  10.347   5.410  0.1161  0.8249 -0.4265
  523MOL0     C68952   9.042  10.403   5.250  0.3294  0.6842 -0.4822
  523MOL0     C68953   9.151  10.439   5.181  0.1682  0.0487 -0.0793
  523MOL0     N68954   9.755  10.893   5.238  0.6452  0.6848 -0.4154
  523MOL0     N68955   9.847  10.803   5.251  0.1894  0.4553 -0.7090
  523MOL0     C68956  10.702  11.010   5.390  0.4602 -0.3871  0.1739
  523MOL0     C68957  10.832  10.986   5.435 -0.0602  0.4485 -0.3564
  523MOL0     C68958  11.264  10.916   5.512  0.6433 -1.1854  0.0808
  523MOL0     C68959  11.364  10.997   5.574  1.2228  1.0680 -0.2197
  523MOL0     C68960  11.489  10.953   5.579  0.4734 -0.2707  1.0202
  523MOL0     C68961  11.525  10.828   5.530 -0.1671  0.5221  0.0992
  523MOL0     O68962  11.656  10.801   5.552 -0.3212  0.3054  0.0216
  523MOL0     C68963  11.729  10.687   5.497  0.8646 -0.5141 -0.4517
  523MOL0     C68964  11.867  10.697   5.548  0.1375  0.9318  0.4659
  523MOL0     C68965  11.949  10.811   5.491 -0.3508  0.0877  0.5938
  523MOL0     C68966  12.033  10.878   5.600  0.1774 -0.3553  0.3683
  523MOL0     C68967  12.155  10.942   5.537  0.5487 -0.9064 -0.3257
  523MOL0     C68968  12.245  10.999   5.490  0.0300  0.4959  0.1192
  523MOL0     C68969  11.426  10.737   5.478 -0.6610 -0.4907  1.2364
  523MOL0     C68970  11.298  10.789   5.458  0.9387 -0.3560  1.0133
  523MOL0     H68971  10.965  10.827   5.172 -1.2671  1.0466 -2.4365
  523MOL0     H68972  10.713  10.854   5.092  4.3059 -1.1070 -1.5501
  523MOL0     H68973  10.544  11.023   5.040 -1.1259  0.2989 -0.0255
  523MOL0     H68974  10.540  11.153   5.170  2.0583 -0.6867  0.4078
  523MOL0     H68975  10.360  11.180   5.061  1.0871  0.9946  0.0433
  523MOL0     H68976  10.297  11.097   5.203 -0.2803  2.0721 -0.2499
  523MOL0     H68977  10.345  10.964   4.939 -2.6508  0.5520 -1.6565
  523MOL0     H68978  10.199  11.018   4.987 -0.2460 -0.0312  0.7655
  523MOL0     H68979  10.364  10.816   5.161 -1.0098  0.6258  0.7037
  523MOL0     H68980  10.202  10.875   5.197  0.8056  0.1601  0.6119
  523MOL0     H68981  10.195  10.665   5.122 -2.9247 -0.4892 -0.8775
  523MOL0     H68982  10.288  10.717   4.969  1.1148 -0.2709  0.7958
  523MOL0     H68983  10.080  10.801   4.868  0.1463 -4.3049 -1.3037
  523MOL0     H68984  10.013  10.852   5.024  1.0400  1.2702  0.4043
  523MOL0     H68985   9.907  10.638   4.912  1.1907 -1.0889 -0.7467
  523MOL0     H68986  10.061  10.551   4.952 -0.3285  0.1430 -0.4772
  523MOL0     H68987  10.000  10.606   5.201  0.4529 -1.7542 -0.1763
  523MOL0     H68988   9.883  10.508   5.108  2.0550 -0.4679 -1.6905
  523MOL0     H68989   9.686  10.677   5.001 -2.4886 -1.4149  1.6438
  523MOL0     H68990   9.543  10.906   4.979 -0.6677 -2.5694  0.9988
  523MOL0     H68991   9.601  11.041   5.072 -1.0604  0.4335 -3.6675
  523MOL0     H68992   9.346  10.981   5.118  1.7346  0.3897 -1.5603
  523MOL0     H68993   9.446  10.975   5.270  1.4203  0.3275  0.1425
  523MOL0     H68994   9.476  10.721   5.201  2.2295  3.4465 -0.9363
  523MOL0     H68995   9.327  10.782   5.283  0.3983 -0.7393  0.1167
  523MOL0     H68996   9.391  10.752   4.981 -0.2173  1.7533 -0.9862
  523MOL0     H68997   9.233  10.805   5.041  0.5742 -1.0249 -4.7232
  523MOL0     H68998   9.039  10.756   5.103 -1.3615  0.0009 -0.4049
  523MOL0     H68999   8.832  10.669   5.173 -0.1916  0.5955 -3.8237
  523MOL0     H69000   8.642  10.445   5.576 -0.9602  2.4392  0.5524
  523MOL0     H69001   8.439  10.343   5.659 -0.7802 -2.5607 -0.6639
  523MOL0     H69002   8.231  10.309   5.718 -0.9319  1.2972 -1.5680
  523MOL0     H69003   8.299  10.155   5.662  0.2913 -0.3407  0.9993
  523MOL0     H69004   8.066  10.072   5.627  1.6871 -0.8420  0.0923
  523MOL0     H69005   8.011  10.241   5.676 -0.8560 -0.2066  2.9232
  523MOL0     H69006   8.122  10.185   5.898 -1.5277  1.0662  0.7345
  523MOL0     H69007   8.138  10.014   5.830  2.4445  2.5111 -0.2119
  523MOL0     H69008   7.900  10.002   5.796 -0.4285  0.0825 -0.3401
  523MOL0     H69009   7.952  10.000   5.954  1.0532 -1.4832 -2.6886
  523MOL0     H69010   7.874  10.270   5.818 -2.8098  1.4303 -0.3240
  523MOL0     H69011   7.881  10.246   5.996 -1.5864  2.9865 -0.5679
  523MOL0     H69012   7.681  10.089   5.947  0.1805  1.1786  1.9757
  523MOL0     H69013   7.688  10.141   5.780  3.6737 -0.0533 -0.6314
  523MOL0     H69014   7.517  10.282   5.897  0.7751 -3.1380 -0.8924
  523MOL0     H69015   7.633  10.325   6.027  0.5356 -0.6596  0.0569
  523MOL0     H69016   7.604  10.440   5.750 -3.2483 -0.4957  1.9571
  523MOL0     H69017   7.760  10.438   5.838  0.3696 -3.9801 -0.0308
  523MOL0     H69018   8.258  10.371   5.266  2.0705 -2.5660 -2.1454
  523MOL0     H69019   8.460  10.501   5.202  3.8389  4.9755  1.6999
  523MOL0     H69020   9.046  10.300   5.285 -0.9848 -0.2329 -2.8193
  523MOL0     H69021   9.231  10.368   5.164  0.8709  1.0085 -0.9044
  523MOL0     H69022  10.628  11.047   5.460 -0.3072 -3.5713  1.2357
  523MOL0     H69023  10.864  11.039   5.524  1.2510 -1.5634  0.4513
  523MOL0     H69024  11.344  11.096   5.614  3.5884  1.2544  0.6670
  523MOL0     H69025  11.563  11.018   5.624  1.5365  0.3948 -1.5493
  523MOL0     H69026  11.738  10.691   5.388 -0.0660  0.7491 -0.5059
  523MOL0     H69027  11.673  10.597   5.525  0.4738 -0.7274 -1.8587
  523MOL0     H69028  11.864  10.708   5.657 -1.9552  1.1346  0.4260
  523MOL0     H69029  11.919  10.605   5.520  0.5821  0.8419  1.5541
  523MOL0     H69030  11.890  10.895   5.453  0.5302  0.6577  0.4516
  523MOL0     H69031  12.014  10.781   5.408  2.5057  4.0348  1.1095
  523MOL0     H69032  11.970  10.949   5.654 -0.2131  0.3367 -0.9424
  523MOL0     H69033  12.064  10.812   5.681 -1.5134 -2.1533 -0.3743
  523MOL0     H69034  12.340  11.036   5.456  0.7458 -1.9302 -0.7648
  523MOL0     H69035  11.453  10.636   5.447 -0.4877  0.0899 -0.6646
  523MOL0     H69036  11.220  10.732   5.409  0.8679 -0.1948  0.9371
  524MOL0     O69037   0.472   6.876   4.819  0.7129  0.0585  0.4201
  524MOL0     C69038   0.501   6.800   4.913  0.0950 -0.0542 -0.8426
  524MOL0     O69039   0.408   6.741   4.995 -0.8134  0.1651  0.0203
  524MOL0     C69040   0.282   6.773   4.967 -0.1283 -0.0942 -1.0436
  524MOL0     C69041   0.195   6.670   4.956  0.9816 -0.2370  0.2543
  524MOL0     C69042   0.061   6.696   4.942  0.0390  0.0976  0.8862
  524MOL0     C69043   0.008   6.833   4.948  0.0480 -0.6295  0.4808
  524MOL0     O69044  -0.124   6.869   4.942 -0.5886  0.3008  0.3021
  524MOL0     C69045  -0.192   6.823   5.059  0.2176  0.4640  0.5030
  524MOL0     C69046  -0.340   6.823   5.022 -0.5461 -0.6771  0.0211
  524MOL0     C69047  -0.377   6.727   4.906 -0.4103 -1.0991  1.0925
  524MOL0     C69048  -0.533   6.696   4.898 -0.4104  0.0310  0.9155
  524MOL0     C69049  -0.593   6.616   5.017 -0.7637 -0.1718 -0.3431
  524MOL0     C69050  -0.528   6.482   5.030 -0.5388 -0.0229  0.5372
  524MOL0     C69051  -0.595   6.391   5.128 -0.0299 -0.3274  0.6400
  524MOL0     C69052  -0.725   6.315   5.082  0.1454  0.9642 -0.5433
  524MOL0     N69053  -0.848   6.387   5.043 -0.0807 -0.6437  0.1957
  524MOL0     C69054  -0.925   6.371   4.926 -0.6983  0.5743 -0.3629
  524MOL0     C69055  -1.027   6.448   4.946  0.1800  0.7015  0.1183
  524MOL0     C69056  -1.136   6.444   4.842 -0.7003 -0.1506 -0.4625
  524MOL0     C69057  -1.240   6.338   4.885 -0.6535 -0.7616 -1.1702
  524MOL0     C69058  -1.334   6.385   4.995 -0.1133  0.2752  0.2920
  524MOL0     C69059  -1.446   6.277   5.020  0.5203 -0.7750 -0.2418
  524MOL0     O69060  -1.524   6.312   5.133  0.9900 -0.8642 -0.2642
  524MOL0     C69061  -1.620   6.222   5.174 -0.3503  0.3801  0.0763
  524MOL0     C69062  -1.729   6.275   5.223  0.2169 -0.2851 -0.3072
  524MOL0     C69063  -1.844   6.208   5.257 -0.6953  0.0890 -0.3738
  524MOL0     C69064  -1.850   6.070   5.243  0.9305  0.6256  0.3795
  524MOL0     C69065  -1.975   6.004   5.283  0.1858  0.3593  0.1478
  524MOL0     O69066  -2.070   6.082   5.346  0.1250  0.2161 -0.6026
  524MOL0     C69067  -2.168   6.040   5.431  0.0350 -0.3893  1.1927
  524MOL0     C69068  -2.171   5.914   5.499 -0.0845 -0.1314  0.3638
  524MOL0     C69069  -2.266   5.879   5.600 -0.5545  0.0867  0.3915
  524MOL0     C69070  -2.366   5.973   5.633 -0.0165  0.4053 -0.0830
  524MOL0     O69071  -2.467   5.931   5.722  0.3412  0.2237 -0.7017
  524MOL0     C69072  -2.560   6.024   5.789 -0.4313  0.0062 -0.0707
  524MOL0     C69073  -2.659   5.962   5.887 -0.5328 -0.7853  0.1581
  524MOL0     C69074  -2.774   6.059   5.902  0.0124  1.2330  0.0575
  524MOL0     C69075  -2.861   6.028   6.017  1.0752  0.5048  0.3044
  524MOL0     C69076  -2.993   6.113   6.021 -0.1982 -0.8879 -0.4595
  524MOL0     C69077  -3.097   6.082   5.911  0.6872 -1.4436  0.6075
  524MOL0     C69078  -3.208   6.189   5.901  0.0209  0.0806 -0.1117
  524MOL0     C69079  -3.337   6.134   5.836  0.3565  0.0380 -0.4308
  524MOL0    Cl69080  -3.416   6.009   5.941  0.2787 -0.0693  0.2154
  524MOL0     C69081  -2.363   6.099   5.573  0.2040 -0.4908 -0.8795
  524MOL0     C69082  -2.272   6.125   5.464  0.0486 -0.1310 -0.5333
  524MOL0     O69083  -1.989   5.884   5.261  0.5693  0.1561 -0.1323
  524MOL0     C69084  -1.731   6.008   5.193  1.0130  0.2782 -0.1404
  524MOL0     C69085  -1.617   6.082   5.157  0.2537 -0.6170 -0.2811
  524MOL0     N69086  -1.016   6.518   5.063  0.6350 -0.2265 -0.1545
  524MOL0     N69087  -0.903   6.487   5.117  0.7219 -0.0494 -0.5332
  524MOL0     C69088   0.096   6.939   4.957 -0.6311  0.2056  0.0685
  524MOL0     C69089   0.237   6.903   4.957 -0.3047  0.0106 -0.3980
  524MOL0     C69090   0.645   6.762   4.936  0.1547  0.5714 -0.6559
  524MOL0     C69091   0.758   6.822   4.864  0.3065 -0.2854  1.1299
  524MOL0     C69092   0.888   6.791   4.903  0.4493 -0.0016 -0.5316
  524MOL0     C69093   0.912   6.706   5.011 -0.2341 -0.5821  0.4767
  524MOL0     O69094   1.040   6.696   5.054 -0.7199 -0.7116  0.3642
  524MOL0     C69095   1.125   6.595   4.994 -1.0639  0.4234  0.1990
  524MOL0     C69096   1.268   6.646   4.971  0.2681 -0.1481 -0.0146
  524MOL0     C69097   1.348   6.532   4.901 -0.8425 -0.1187 -0.9141
  524MOL0     C69098   1.481   6.590   4.837  0.5506  0.0149  0.0854
  524MOL0     C69099   1.588   6.492   4.805  0.3703 -0.0207  0.1649
  524MOL0     C69100   1.675   6.419   4.761  0.7798  0.1257  0.0653
  524MOL0     C69101   0.806   6.641   5.078 -0.4304 -0.3604 -0.1473
  524MOL0     C69102   0.672   6.677   5.042 -0.2788  0.8339  0.0490
  524MOL0     H69103   0.224   6.566   4.963  1.6348  0.0481  4.4385
  524MOL0     H69104  -0.006   6.611   4.938 -1.2549  1.1151 -0.7528
  524MOL0     H69105  -0.188   6.896   5.141 -1.6708 -1.0233  2.0513
  524MOL0     H69106  -0.175   6.720   5.092 -1.4129 -1.2171 -3.3640
  524MOL0     H69107  -0.366   6.925   4.989  2.7763  0.3097  0.0662
  524MOL0     H69108  -0.400   6.796   5.109  0.0895 -1.9703  0.0673
  524MOL0     H69109  -0.317   6.638   4.926  1.0856 -0.6559 -1.0184
  524MOL0     H69110  -0.335   6.769   4.814  0.0513  0.3228  1.9171
  524MOL0     H69111  -0.596   6.784   4.884 -2.9289 -1.7374  0.5354
  524MOL0     H69112  -0.537   6.642   4.803  0.9396  0.6207  0.5003
  524MOL0     H69113  -0.698   6.591   4.998 -1.8421  1.1478  3.2279
  524MOL0     H69114  -0.586   6.670   5.111 -3.4677  1.3236 -0.9205
  524MOL0     H69115  -0.427   6.502   5.065  0.6391 -1.6039 -1.6239
  524MOL0     H69116  -0.500   6.429   4.938 -3.5480 -1.1998  0.1666
  524MOL0     H69117  -0.531   6.305   5.149  0.4953 -0.2317 -0.4616
  524MOL0     H69118  -0.625   6.445   5.218 -2.1747  1.1325 -0.8416
  524MOL0     H69119  -0.753   6.242   5.158 -0.3751  2.8637  1.1567
  524MOL0     H69120  -0.697   6.240   5.007  0.6440 -0.9321  1.4490
  524MOL0     H69121  -0.905   6.311   4.838 -0.6432 -1.9114  1.2509
  524MOL0     H69122  -1.084   6.417   4.750 -0.3956 -1.0142 -0.0485
  524MOL0     H69123  -1.188   6.538   4.822 -2.7532 -1.5828 -2.1883
  524MOL0     H69124  -1.198   6.247   4.930  0.0111  0.1432  0.1195
  524MOL0     H69125  -1.303   6.312   4.800  0.8818 -0.9772 -2.2859
  524MOL0     H69126  -1.275   6.388   5.087  2.7913 -2.5951 -1.2999
  524MOL0     H69127  -1.376   6.483   4.970  0.7904  0.6929  0.3615
  524MOL0     H69128  -1.397   6.180   5.032 -1.4705 -1.6028  1.9174
  524MOL0     H69129  -1.510   6.287   4.932  0.5090  0.2657 -0.1239
  524MOL0     H69130  -1.724   6.382   5.239 -1.6328 -0.7806  6.1653
  524MOL0     H69131  -1.923   6.264   5.307 -1.3926 -0.7932 -0.4505
  524MOL0     H69132  -2.087   5.848   5.477 -0.6317  0.1129 -3.0810
  524MOL0     H69133  -2.254   5.782   5.647  0.6143  1.2273  2.5865
  524MOL0     H69134  -2.623   6.078   5.717  0.0240  1.3249  0.4872
  524MOL0     H69135  -2.505   6.098   5.848 -0.5085 -1.3227  1.7711
  524MOL0     H69136  -2.611   5.927   5.979  0.2875 -0.8280 -0.2743
  524MOL0     H69137  -2.698   5.876   5.831 -1.5923  0.5906 -1.2882
  524MOL0     H69138  -2.831   6.079   5.811 -0.0381 -0.4913 -0.3271
  524MOL0     H69139  -2.731   6.158   5.920  2.5356  0.1610  0.5114
  524MOL0     H69140  -2.889   5.923   6.007 -1.0127  1.1082 -0.9589
  524MOL0     H69141  -2.809   6.055   6.109  0.6835  2.1224  0.0980
  524MOL0     H69142  -2.966   6.219   6.017 -2.2257  0.0364  4.1129
  524MOL0     H69143  -3.043   6.110   6.119 -1.9013  0.2754 -1.2414
  524MOL0     H69144  -3.114   5.976   5.930  4.2375 -2.0083  1.2538
  524MOL0     H69145  -3.037   6.086   5.819 -1.1779 -0.2212 -0.6211
  524MOL0     H69146  -3.218   6.241   5.996  1.4884 -0.6561  0.4885
  524MOL0     H69147  -3.165   6.265   5.834 -1.0983  2.3389  1.6137
  524MOL0     H69148  -3.324   6.098   5.734 -1.7313  0.9728 -1.0681
  524MOL0     H69149  -3.417   6.208   5.836 -2.3796 -2.6832  0.7652
  524MOL0     H69150  -2.439   6.167   5.610 -0.1016 -1.5986  0.6202
  524MOL0     H69151  -2.272   6.228   5.428 -0.7098 -0.5873 -1.9262
  524MOL0     H69152  -1.723   5.900   5.191  0.0754  0.1684  1.0601
  524MOL0     H69153  -1.525   6.025   5.142  1.0517  0.1709  1.4098
  524MOL0     H69154   0.055   7.039   4.970  0.4686  0.8493 -1.1386
  524MOL0     H69155   0.305   6.987   4.974 -2.5773  1.9301 -0.2648
  524MOL0     H69156   0.729   6.884   4.779 -3.2956 -0.0608  2.3556
  524MOL0     H69157   0.974   6.841   4.859  2.2052  0.1489  2.7416
  524MOL0     H69158   1.082   6.559   4.901 -0.7099 -1.3748  0.6963
  524MOL0     H69159   1.129   6.511   5.065  1.1415  2.0097  2.1040
  524MOL0     H69160   1.262   6.738   4.913  0.6624 -2.0051 -3.2234
  524MOL0     H69161   1.310   6.665   5.070 -2.1847  0.2650  1.0139
  524MOL0     H69162   1.286   6.478   4.828 -0.5835 -2.3179  0.4236
  524MOL0     H69163   1.362   6.459   4.981 -3.4536 -1.3370 -1.4684
  524MOL0     H69164   1.453   6.641   4.745  0.8248  0.3994  0.2142
  524MOL0     H69165   1.513   6.661   4.914  2.2358 -0.6639  0.0527
  524MOL0     H69166   1.721   6.339   4.706 -1.0075 -1.0381  0.1961
  524MOL0     H69167   0.827   6.568   5.156 -1.4105  0.9348  1.4032
  524MOL0     H69168   0.592   6.625   5.093 -0.2978 -0.4095 -1.2000
  525MOL0     O69169   6.302   4.189   7.496  0.2252 -0.0549 -0.3784
  525MOL0     C69170   6.376   4.165   7.592  0.4922 -0.5890 -0.6206
  525MOL0     O69171   6.373   4.063   7.679  0.1190 -0.2036 -0.2519
  525MOL0     C69172   6.279   3.966   7.655  0.4490 -0.1125 -0.4756
  525MOL0     C69173   6.310   3.875   7.562  0.6660  0.3948 -0.2487
  525MOL0     C69174   6.220   3.763   7.547  0.4192 -0.1751  0.2813
  525MOL0     C69175   6.110   3.752   7.638  0.5818 -0.4375  1.0872
  525MOL0     O69176   6.020   3.652   7.622  0.0101  0.4218  0.3598
  525MOL0     C69177   5.974   3.588   7.745  0.2835 -0.1922  0.1873
  525MOL0     C69178   5.903   3.447   7.709 -0.6541 -0.1382  0.1855
  525MOL0     C69179   5.760   3.429   7.659  0.5321  1.0263  0.4664
  525MOL0     C69180   5.725   3.280   7.630  0.7217 -0.3629 -0.3913
  525MOL0     C69181   5.579   3.264   7.600  0.2319  0.1017  0.8851
  525MOL0     C69182   5.541   3.120   7.562  0.0435 -0.0457  0.7956
  525MOL0     C69183   5.600   3.064   7.426 -0.1989  0.3808  0.4902
  525MOL0     C69184   5.553   3.149   7.308  0.1675  0.4555 -0.2193
  525MOL0     N69185   5.409   3.131   7.278 -0.1864  0.0193 -0.3614
  525MOL0     C69186   5.359   3.035   7.199 -0.5868 -0.1442  0.0399
  525MOL0     C69187   5.230   3.044   7.211 -0.1221  0.2051  0.9211
  525MOL0     C69188   5.137   2.972   7.116 -0.7781  0.3470  0.6507
  525MOL0     C69189   4.990   2.944   7.177  0.3394 -0.7077  0.1957
  525MOL0     C69190   4.984   2.827   7.274 -0.3348 -0.1141  0.5070
  525MOL0     C69191   4.983   2.703   7.183  0.4627 -0.1447 -0.0954
  525MOL0     O69192   4.899   2.692   7.066 -0.0577 -0.2563 -1.0494
  525MOL0     C69193   4.772   2.646   7.073 -0.1337 -0.6280  0.0868
  525MOL0     C69194   4.714   2.655   6.949  0.6790 -0.1458  0.1950
  525MOL0     C69195   4.581   2.611   6.927  0.0874 -0.2605 -0.6528
  525MOL0     C69196   4.508   2.573   7.039  0.4918 -0.6545 -0.3980
  525MOL0     C69197   4.360   2.552   7.021 -0.0046 -0.1037 -0.6965
  525MOL0     O69198   4.305   2.568   6.901  0.0360 -0.6439  0.5916
  525MOL0     C69199   4.172   2.547   6.890  0.5862 -0.2633 -0.2374
  525MOL0     C69200   4.081   2.643   6.927  0.5435  0.3273 -0.6134
  525MOL0     C69201   3.941   2.620   6.908 -0.0669  0.2029 -0.1257
  525MOL0     C69202   3.887   2.501   6.854  1.0712 -0.0454 -0.7038
  525MOL0     O69203   3.746   2.477   6.862  1.2885 -0.1039  0.0293
  525MOL0     C69204   3.690   2.347   6.828 -0.3605 -0.4282  0.4652
  525MOL0     C69205   3.541   2.344   6.837  0.1010 -1.0246  0.0980
  525MOL0     C69206   3.499   2.193   6.848  0.3821 -0.0045  0.1844
  525MOL0     C69207   3.346   2.168   6.856 -0.5948  0.3622  0.3479
  525MOL0     C69208   3.278   2.240   6.966  0.4218 -0.2405  0.0661
  525MOL0     C69209   3.156   2.163   7.015  0.5420  0.4845 -0.4774
  525MOL0     C69210   3.106   2.234   7.144  0.4432  0.1971 -0.0572
  525MOL0     C69211   2.990   2.179   7.216  0.5946 -0.7228  0.4604
  525MOL0    Cl69212   3.014   2.005   7.253 -0.3269 -0.4053  0.0500
  525MOL0     C69213   3.988   2.414   6.807  0.8526  0.1359 -0.2589
  525MOL0     C69214   4.122   2.432   6.816 -0.4808 -0.4346  0.3724
  525MOL0     O69215   4.291   2.529   7.118 -0.5079  0.2866 -0.5125
  525MOL0     C69216   4.566   2.569   7.169  0.2469 -0.9639 -0.0796
  525MOL0     C69217   4.699   2.609   7.184  0.0377  0.9268  0.4650
  525MOL0     N69218   5.203   3.147   7.297 -0.0035 -0.1231 -0.0463
  525MOL0     N69219   5.307   3.205   7.333 -0.2199 -0.4960  0.3886
  525MOL0     C69220   6.088   3.856   7.732  0.0802 -0.1371  0.2417
  525MOL0     C69221   6.172   3.958   7.745  0.6154  0.5978  1.0899
  525MOL0     C69222   6.466   4.272   7.622 -0.2946  0.7131  0.0438
  525MOL0     C69223   6.460   4.399   7.565  0.5733 -0.1981  0.2533
  525MOL0     C69224   6.569   4.487   7.585  0.0819  0.9399 -0.0651
  525MOL0     C69225   6.686   4.455   7.661  0.5833  0.5896 -0.9055
  525MOL0     O69226   6.791   4.526   7.682  0.2407  0.4720 -0.1560
  525MOL0     C69227   6.837   4.617   7.583  0.6353 -0.1222  0.1856
  525MOL0     C69228   6.959   4.693   7.644  0.3891  0.3982 -0.0932
  525MOL0     C69229   7.083   4.603   7.657 -0.1346 -0.7725  0.0652
  525MOL0     C69230   7.190   4.668   7.735 -0.6446 -1.0000  0.1268
  525MOL0     C69231   7.306   4.579   7.746  0.1131 -1.2236 -0.5803
  525MOL0     C69232   7.401   4.508   7.774 -0.8608  0.3696  0.1565
  525MOL0     C69233   6.683   4.330   7.727  0.0490  0.2279 -0.0919
  525MOL0     C69234   6.584   4.237   7.696  0.4644 -0.1684  0.3088
  525MOL0     H69235   6.393   3.874   7.492 -1.8897  0.4317 -3.5660
  525MOL0     H69236   6.245   3.681   7.481 -0.2330 -0.8900  0.9124
  525MOL0     H69237   5.897   3.654   7.786  1.0148 -1.2422  3.4984
  525MOL0     H69238   6.050   3.596   7.823 -1.8928  5.2774  2.2959
  525MOL0     H69239   5.904   3.379   7.795  0.2299 -0.4146 -0.0323
  525MOL0     H69240   5.968   3.398   7.636 -0.0034  0.8875  0.0652
  525MOL0     H69241   5.747   3.488   7.568  0.8338 -1.7462 -1.4910
  525MOL0     H69242   5.684   3.459   7.733 -0.5770 -0.7538  0.1068
  525MOL0     H69243   5.787   3.235   7.551  0.6728 -1.6874  0.2960
  525MOL0     H69244   5.750   3.218   7.717  0.7286 -0.9432 -0.7998
  525MOL0     H69245   5.550   3.331   7.518 -3.4971 -2.0918  0.2024
  525MOL0     H69246   5.522   3.288   7.690  0.7451  0.7572  1.0412
  525MOL0     H69247   5.431   3.119   7.559 -0.1573  2.3188  3.5512
  525MOL0     H69248   5.558   3.043   7.638 -3.2722  0.6954  2.5021
  525MOL0     H69249   5.710   3.071   7.428 -0.1987  0.4720  0.0950
  525MOL0     H69250   5.567   2.960   7.421 -1.2032  0.7412 -0.7992
  525MOL0     H69251   5.609   3.122   7.218 -0.3582  2.0199 -1.0524
  525MOL0     H69252   5.575   3.255   7.324  0.5918  0.4622 -0.7976
  525MOL0     H69253   5.412   2.987   7.117 -1.2549  3.3147 -2.6482
  525MOL0     H69254   5.179   2.875   7.086  1.1885  0.7772  1.8500
  525MOL0     H69255   5.119   3.040   7.032 -1.0798  2.7387  2.5389
  525MOL0     H69256   4.914   2.929   7.099 -0.7740  1.1999  0.8551
  525MOL0     H69257   4.956   3.034   7.228 -2.1173  0.2205 -2.7661
  525MOL0     H69258   5.072   2.821   7.339 -0.2849 -2.8417  0.3187
  525MOL0     H69259   4.889   2.836   7.328  0.1064 -2.3095  1.7975
  525MOL0     H69260   4.968   2.618   7.251 -2.8325  0.4664  0.1225
  525MOL0     H69261   5.088   2.697   7.154  1.2562  3.3578  1.5020
  525MOL0     H69262   4.774   2.697   6.869 -0.8987  0.3801 -0.7578
  525MOL0     H69263   4.531   2.622   6.831 -0.9084  1.0638 -0.0140
  525MOL0     H69264   4.106   2.738   6.972 -0.1621  0.4898 -0.5663
  525MOL0     H69265   3.871   2.688   6.954 -2.0449 -1.0011 -1.2008
  525MOL0     H69266   3.730   2.265   6.888 -0.4171 -1.5414 -0.9538
  525MOL0     H69267   3.710   2.332   6.721  0.7437  0.4446  0.5325
  525MOL0     H69268   3.496   2.405   6.759  0.6726 -1.2392 -0.4170
  525MOL0     H69269   3.512   2.389   6.932 -1.4574  1.3860 -1.4136
  525MOL0     H69270   3.556   2.145   6.929 -0.2787  1.2706  1.4496
  525MOL0     H69271   3.537   2.146   6.757 -1.1053 -0.5740 -0.1823
  525MOL0     H69272   3.302   2.196   6.760  1.3858 -2.7738 -1.6728
  525MOL0     H69273   3.335   2.060   6.849  2.1255  0.1078 -2.0319
  525MOL0     H69274   3.270   2.345   6.939  2.1359 -0.2437 -0.6197
  525MOL0     H69275   3.350   2.239   7.048 -0.8486 -1.7001  1.2337
  525MOL0     H69276   3.183   2.060   7.038  4.4891  1.7468  1.5443
  525MOL0     H69277   3.078   2.165   6.939  0.0807  0.1972 -0.0215
  525MOL0     H69278   3.179   2.220   7.224 -2.1462  3.3795  3.1526
  525MOL0     H69279   3.105   2.340   7.117  0.8397 -0.0336 -1.0329
  525MOL0     H69280   2.901   2.194   7.154  1.9547 -3.9824 -2.6011
  525MOL0     H69281   2.979   2.235   7.310  1.1773  0.4999 -0.1783
  525MOL0     H69282   3.955   2.322   6.760  1.4336 -0.2565  0.0826
  525MOL0     H69283   4.199   2.359   6.790  2.0377  1.0717  3.0415
  525MOL0     H69284   4.505   2.549   7.257 -1.1900 -2.1951 -1.2916
  525MOL0     H69285   4.743   2.621   7.283 -1.3732 -1.5705  1.4868
  525MOL0     H69286   6.006   3.849   7.803 -0.5248  0.2784 -0.3940
  525MOL0     H69287   6.149   4.038   7.815  1.4252  0.2824  1.7271
  525MOL0     H69288   6.370   4.410   7.505  1.1971 -1.5282 -0.9660
  525MOL0     H69289   6.574   4.584   7.536 -0.7653  0.9142 -0.2099
  525MOL0     H69290   6.758   4.692   7.566  1.5749  0.8948  0.2059
  525MOL0     H69291   6.859   4.568   7.488  0.8832  0.4532 -0.0591
  525MOL0     H69292   6.976   4.783   7.583  2.0367  0.0607 -0.1579
  525MOL0     H69293   6.932   4.733   7.743 -2.7869 -2.7102  0.5091
  525MOL0     H69294   7.121   4.584   7.556 -3.5757  0.8281 -1.6947
  525MOL0     H69295   7.050   4.508   7.701 -0.7687 -1.0231 -0.9070
  525MOL0     H69296   7.216   4.758   7.679  0.5395 -0.7926  0.9768
  525MOL0     H69297   7.152   4.698   7.833  3.0428  2.7637  0.6855
  525MOL0     H69298   7.488   4.462   7.816  0.2626  3.1910  1.1861
  525MOL0     H69299   6.765   4.307   7.794 -0.8594  1.0368  1.3703
  525MOL0     H69300   6.599   4.143   7.748 -1.7071 -2.5141 -2.9694
  526MOL0     O69301   1.451   3.404   3.338 -0.4558  0.3496 -0.6276
  526MOL0     C69302   1.512   3.295   3.366  0.0660 -0.2854 -0.3326
  526MOL0     O69303   1.486   3.213   3.470 -0.4387  0.4494 -0.3251
  526MOL0     C69304   1.381   3.244   3.565  0.1316  0.2752 -0.1428
  526MOL0     C69305   1.342   3.369   3.617  0.5921  0.1944  0.2390
  526MOL0     C69306   1.229   3.375   3.704  0.2750 -0.3712  0.4216
  526MOL0     C69307   1.147   3.264   3.742 -0.2843 -0.1401  0.8080
  526MOL0     O69308   1.049   3.286   3.832  0.5092 -0.4589  0.3354
  526MOL0     C69309   1.036   3.170   3.920  0.3214  0.9790 -0.3668
  526MOL0     C69310   0.935   3.198   4.035 -0.0324 -0.4424  0.3864
  526MOL0     C69311   0.974   3.126   4.164  0.4307 -0.2611 -0.3017
  526MOL0     C69312   0.861   3.128   4.263  0.0382  0.8392 -0.6053
  526MOL0     C69313   0.880   3.045   4.385  0.4352  1.0959 -0.0231
  526MOL0     C69314   0.964   3.114   4.490 -0.1487  0.2976  0.6491
  526MOL0     C69315   1.000   3.018   4.610  0.3974  0.5473 -0.2578
  526MOL0     C69316   1.098   3.069   4.717  0.3388 -0.1650  0.3675
  526MOL0     N69317   1.083   2.971   4.826 -0.0047 -0.8109 -0.0748
  526MOL0     C69318   1.143   3.007   4.946  0.1327  0.2915  0.0545
  526MOL0     C69319   1.096   2.916   5.030 -0.2762  1.0163 -0.7926
  526MOL0     C69320   1.093   2.943   5.180  0.4038 -0.9206 -0.0318
  526MOL0     C69321   0.954   3.018   5.212 -0.3381  0.3560  0.0113
  526MOL0     C69322   0.935   3.151   5.139 -0.5573 -0.5841  0.6704
  526MOL0     C69323   0.825   3.138   5.031 -0.5416  0.2372 -0.6328
  526MOL0     O69324   0.816   3.262   4.968  0.6680  1.2013 -0.0703
  526MOL0     C69325   0.726   3.267   4.860  0.0258  0.2385 -0.0659
  526MOL0     C69326   0.694   3.395   4.819  0.2265  1.1327 -0.1411
  526MOL0     C69327   0.608   3.418   4.710  0.7391 -1.4858  0.7173
  526MOL0     C69328   0.563   3.318   4.633  0.1164  0.5879 -0.3888
  526MOL0     C69329   0.486   3.351   4.509 -0.0891  0.4382  0.2597
  526MOL0     O69330   0.407   3.472   4.517  0.1359 -0.2328  0.5203
  526MOL0     C69331   0.342   3.520   4.405  0.2580 -0.5004 -0.7080
  526MOL0     C69332   0.233   3.454   4.344 -0.5457  0.1853  0.8699
  526MOL0     C69333   0.182   3.497   4.219  0.4169 -0.4550  0.1979
  526MOL0     C69334   0.229   3.607   4.153  1.1285 -0.2772  0.2927
  526MOL0     O69335   0.173   3.649   4.035  0.0265  0.5302  0.6758
  526MOL0     C69336   0.033   3.674   4.028  0.1636 -0.5721  0.5563
  526MOL0     C69337  -0.019   3.779   3.929  0.4868  0.1750  0.3654
  526MOL0     C69338   0.049   3.916   3.951  0.0516  0.1107 -0.3143
  526MOL0     C69339  -0.003   3.982   4.077 -0.0527  0.8056 -0.3424
  526MOL0     C69340  -0.043   4.128   4.061 -0.1100 -0.3600 -0.2095
  526MOL0     C69341  -0.087   4.182   4.201  0.0680  0.5576  0.5184
  526MOL0     C69342  -0.134   4.328   4.185  0.3929  0.4648 -0.0185
  526MOL0     C69343  -0.236   4.363   4.293  0.9238 -0.6550 -0.3476
  526MOL0    Cl69344  -0.166   4.325   4.461  0.5376  0.3667  0.1084
  526MOL0     C69345   0.333   3.677   4.210 -0.7815 -0.5237 -0.1582
  526MOL0     C69346   0.387   3.639   4.338  0.5013 -0.3809  0.4146
  526MOL0     O69347   0.501   3.283   4.411  0.2967 -0.9656 -0.5695
  526MOL0     C69348   0.609   3.186   4.662 -0.3729 -0.3378 -0.0995
  526MOL0     C69349   0.677   3.161   4.785  0.4269 -0.9665  0.2130
  526MOL0     N69350   1.031   2.818   4.958 -0.3477 -0.3702  0.6242
  526MOL0     N69351   1.021   2.854   4.832  0.3745 -0.0956  0.3572
  526MOL0     C69352   1.190   3.139   3.698 -0.4890  0.0741 -0.1641
  526MOL0     C69353   1.308   3.137   3.610  0.2729 -0.4521  0.1006
  526MOL0     C69354   1.595   3.245   3.246 -0.0948  0.3117 -0.8235
  526MOL0     C69355   1.639   3.336   3.151 -0.9244 -0.5317  0.9276
  526MOL0     C69356   1.716   3.289   3.045  0.2043 -0.9742  0.0947
  526MOL0     C69357   1.754   3.154   3.037 -0.2549  0.5450 -0.1319
  526MOL0     O69358   1.838   3.118   2.935  0.2979 -0.5441 -0.9642
  526MOL0     C69359   1.773   3.026   2.843 -1.0746  0.5225  1.0671
  526MOL0     C69360   1.887   2.970   2.743 -0.2771 -0.2798 -0.4621
  526MOL0     C69361   1.966   3.095   2.694 -0.3207  0.7962  0.3054
  526MOL0     C69362   2.045   3.075   2.569 -0.1003 -0.7856 -0.6962
  526MOL0     C69363   2.155   2.983   2.579  0.1767 -0.3832 -0.0536
  526MOL0     C69364   2.252   2.911   2.579 -0.7815 -0.1741 -0.2513
  526MOL0     C69365   1.701   3.064   3.137 -0.1751  1.2380 -0.1393
  526MOL0     C69366   1.634   3.112   3.249  0.0325  0.0107  0.2926
  526MOL0     H69367   1.396   3.459   3.590  2.6721 -0.2268  2.6621
  526MOL0     H69368   1.205   3.478   3.728  1.8232  0.0585  0.2752
  526MOL0     H69369   1.134   3.132   3.950  1.3437  2.5926 -1.5270
  526MOL0     H69370   0.988   3.088   3.865  0.3135 -1.3467  2.8224
  526MOL0     H69371   0.841   3.163   3.992  1.0841 -2.6594 -0.3833
  526MOL0     H69372   0.922   3.306   4.047 -0.7179 -0.6727  2.0036
  526MOL0     H69373   1.061   3.179   4.204  2.9292 -2.7795 -1.9626
  526MOL0     H69374   1.006   3.024   4.142  0.0135 -0.0694 -1.9669
  526MOL0     H69375   0.839   3.228   4.300  0.0984  0.5849  0.1197
  526MOL0     H69376   0.767   3.092   4.221 -1.6984  0.1990  3.3968
  526MOL0     H69377   0.912   2.943   4.363 -1.6717  0.7458 -1.8444
  526MOL0     H69378   0.777   3.027   4.417 -0.1991  0.5014 -2.2097
  526MOL0     H69379   0.915   3.206   4.523  0.7663  0.0895  2.7336
  526MOL0     H69380   1.058   3.148   4.445  1.3068 -0.4487  2.9453
  526MOL0     H69381   0.903   3.001   4.657 -1.6290  3.5200 -2.9165
  526MOL0     H69382   1.034   2.922   4.570  1.1329  0.0022  1.5851
  526MOL0     H69383   1.066   3.169   4.746 -0.4712  0.1299 -1.4677
  526MOL0     H69384   1.199   3.068   4.676 -1.2441 -0.7623 -3.9683
  526MOL0     H69385   1.208   3.093   4.953  0.5041  0.0887 -0.7180
  526MOL0     H69386   1.175   3.006   5.216  1.5875 -1.9413 -0.8400
  526MOL0     H69387   1.103   2.848   5.231 -2.0631 -1.1565  0.1266
  526MOL0     H69388   0.955   3.037   5.320 -0.7981  1.2090 -0.1248
  526MOL0     H69389   0.865   2.959   5.188 -2.8110  3.8451 -0.2488
  526MOL0     H69390   0.914   3.232   5.209  1.5953  0.8350 -0.1833
  526MOL0     H69391   1.030   3.170   5.086 -1.1023 -4.3707 -2.0420
  526MOL0     H69392   0.730   3.095   5.065 -0.5647 -1.8673 -3.0156
  526MOL0     H69393   0.859   3.069   4.953 -0.3815 -0.9679  0.4776
  526MOL0     H69394   0.719   3.484   4.877  0.6587  0.1671  1.2073
  526MOL0     H69395   0.578   3.521   4.689  1.1236 -0.5333  4.1458
  526MOL0     H69396   0.202   3.360   4.389 -0.1710 -0.5256 -0.3373
  526MOL0     H69397   0.104   3.434   4.178  2.9248 -2.0182 -2.5813
  526MOL0     H69398  -0.005   3.701   4.127 -0.7543  1.7728 -0.3702
  526MOL0     H69399  -0.017   3.579   4.006  0.3730 -0.4033 -0.7116
  526MOL0     H69400  -0.128   3.788   3.938  0.2002 -2.7126  0.5651
  526MOL0     H69401   0.004   3.752   3.825 -0.0814  2.2958 -0.3752
  526MOL0     H69402   0.025   3.981   3.866  0.4707  0.1136 -0.4298
  526MOL0     H69403   0.157   3.923   3.939  0.1904  0.9030  1.1601
  526MOL0     H69404  -0.091   3.922   4.103  1.2809  0.6989  5.1202
  526MOL0     H69405   0.069   3.980   4.159  0.1061  3.7795 -0.2996
  526MOL0     H69406  -0.118   4.152   3.985  1.5026  0.4099 -1.6448
  526MOL0     H69407   0.042   4.192   4.033  0.2194 -0.9416 -0.5696
  526MOL0     H69408  -0.000   4.185   4.267  0.2909  1.2157  0.2031
  526MOL0     H69409  -0.160   4.112   4.241 -0.0201  1.0383  1.2086
  526MOL0     H69410  -0.051   4.399   4.194  3.3507 -2.7041 -0.4621
  526MOL0     H69411  -0.177   4.345   4.086  0.9385 -0.9536 -0.5201
  526MOL0     H69412  -0.338   4.332   4.269  0.7721 -0.7846  0.4450
  526MOL0     H69413  -0.238   4.471   4.280 -2.3692 -0.6977 -1.0514
  526MOL0     H69414   0.384   3.754   4.151  0.1473 -1.1007 -0.1351
  526MOL0     H69415   0.472   3.697   4.374 -0.9447  1.9625  0.2651
  526MOL0     H69416   0.583   3.112   4.587 -2.1699 -0.0341  0.1926
  526MOL0     H69417   0.720   3.066   4.815  0.1270 -0.2378  3.3269
  526MOL0     H69418   1.129   3.049   3.701 -2.0153  1.0768 -0.0065
  526MOL0     H69419   1.338   3.042   3.566  2.3101  0.1457  0.1058
  526MOL0     H69420   1.604   3.439   3.153 -0.6360 -0.2843 -2.2248
  526MOL0     H69421   1.751   3.355   2.967 -1.5081 -0.8196 -0.5860
  526MOL0     H69422   1.689   3.075   2.792  0.8655  2.2627 -0.6414
  526MOL0     H69423   1.728   2.940   2.893 -1.3555 -0.4402 -0.7452
  526MOL0     H69424   1.954   2.892   2.779 -1.7732 -2.0147 -1.2916
  526MOL0     H69425   1.843   2.922   2.656 -2.5628  0.9524 -0.0734
  526MOL0     H69426   2.032   3.137   2.770  2.2767  0.7378 -1.7363
  526MOL0     H69427   1.883   3.163   2.672 -2.8018 -1.6136  1.6421
  526MOL0     H69428   1.985   3.040   2.484  0.7282 -1.0907 -1.1708
  526MOL0     H69429   2.085   3.174   2.547 -0.5459 -0.2529  0.7970
  526MOL0     H69430   2.331   2.839   2.579 -0.8430 -0.2797 -1.7922
  526MOL0     H69431   1.754   2.970   3.126  1.7435  2.1278  1.0450
  526MOL0     H69432   1.593   3.039   3.319 -4.3024 -1.2920 -3.1614
  527MOL0     O69433   5.767   2.001   0.794 -0.3393  0.2664 -0.3461
  527MOL0     C69434   5.730   2.072   0.704 -0.1719  0.0392  0.2612
  527MOL0     O69435   5.806   2.131   0.608 -0.0826  0.4621  0.4820
  527MOL0     C69436   5.929   2.083   0.592 -0.3998 -0.1282  0.3867
  527MOL0     C69437   6.032   2.173   0.573  0.5337  0.1030 -0.0820
  527MOL0     C69438   6.163   2.129   0.550  0.1207  0.6228  0.5500
  527MOL0     C69439   6.189   1.992   0.528 -1.0403  0.4532 -0.3961
  527MOL0     O69440   6.324   1.941   0.518  0.8319  0.8940 -0.2021
  527MOL0     C69441   6.424   2.037   0.527 -0.6407  0.2479  0.7394
  527MOL0     C69442   6.553   1.945   0.542  0.4306  0.2033 -0.4136
  527MOL0     C69443   6.687   2.001   0.574 -0.1972 -0.8084 -1.0560
  527MOL0     C69444   6.736   2.081   0.444 -0.4207 -0.4274 -0.0019
  527MOL0     C69445   6.866   2.149   0.484 -0.3461  0.3992 -1.1667
  527MOL0     C69446   6.907   2.238   0.360  0.7050 -0.2615 -1.0701
  527MOL0     C69447   6.959   2.380   0.410  0.1953  0.8540 -0.3005
  527MOL0     C69448   7.091   2.390   0.479 -0.3593 -0.2960 -0.4095
  527MOL0     N69449   7.107   2.532   0.518 -0.2737  0.0817 -0.0939
  527MOL0     C69450   7.089   2.644   0.444 -0.5363  0.0134 -0.1686
  527MOL0     C69451   7.094   2.746   0.535 -0.0042 -0.0276  0.4798
  527MOL0     C69452   7.042   2.894   0.518 -0.0474  0.1682  0.6278
  527MOL0     C69453   7.158   2.999   0.527  0.8518  0.9548  0.3296
  527MOL0     C69454   7.202   3.039   0.666 -0.5389  0.6084  0.6257
  527MOL0     C69455   7.290   2.943   0.743  0.1054  0.0430  0.0220
  527MOL0     O69456   7.374   3.023   0.833  0.2944 -0.2818  0.3744
  527MOL0     C69457   7.514   3.031   0.797  0.2548  0.5512  0.6114
  527MOL0     C69458   7.572   3.021   0.661 -0.3727 -0.3736 -0.5486
  527MOL0     C69459   7.709   3.034   0.634 -0.0529  0.1730 -0.6091
  527MOL0     C69460   7.799   3.048   0.742  0.3064 -0.2849 -0.8905
  527MOL0     C69461   7.947   3.063   0.729 -0.2288  0.5222 -0.2556
  527MOL0     O69462   8.023   3.093   0.839  1.2617  1.1367  0.0219
  527MOL0     C69463   8.132   3.184   0.840  0.2017  0.2404 -0.3539
  527MOL0     C69464   8.187   3.216   0.964  0.4718  0.6150  0.2102
  527MOL0     C69465   8.305   3.287   0.965  0.4099  0.3151 -0.0355
  527MOL0     C69466   8.346   3.364   0.858  0.0719  0.4606 -0.1854
  527MOL0     O69467   8.457   3.442   0.884 -0.5741  0.2156 -0.6802
  527MOL0     C69468   8.489   3.561   0.804 -0.3193  0.3474  0.6715
  527MOL0     C69469   8.571   3.528   0.678  0.9824 -0.5044  0.7848
  527MOL0     C69470   8.711   3.476   0.726  0.2652 -0.7320  0.3739
  527MOL0     C69471   8.782   3.422   0.602 -0.0438 -0.6893 -0.6587
  527MOL0     C69472   8.922   3.379   0.611  0.1369  0.5493  1.1219
  527MOL0     C69473   9.024   3.476   0.542 -0.2598 -0.2785  0.0322
  527MOL0     C69474   9.164   3.432   0.576  0.4096  0.7144 -0.8503
  527MOL0     C69475   9.253   3.551   0.589 -0.4602  0.5085  1.4187
  527MOL0    Cl69476   9.420   3.497   0.627  0.1951  0.1801 -0.2935
  527MOL0     C69477   8.289   3.341   0.737  0.1895  0.7001 -0.1152
  527MOL0     C69478   8.187   3.244   0.725 -0.7027 -0.3484  0.5872
  527MOL0     O69479   7.994   3.037   0.618 -0.2941  0.2045 -0.7936
  527MOL0     C69480   7.744   3.059   0.876 -0.2001  0.0979  0.6731
  527MOL0     C69481   7.603   3.054   0.901 -0.1620 -0.7742  0.0173
  527MOL0     N69482   7.113   2.687   0.659  0.6306 -0.5185 -0.1031
  527MOL0     N69483   7.133   2.563   0.650  0.2853 -0.0587  1.0704
  527MOL0     C69484   6.081   1.906   0.545 -0.0371  0.3623  0.6003
  527MOL0     C69485   5.949   1.951   0.570 -0.0433  0.1459 -0.0924
  527MOL0     C69486   5.584   2.089   0.695 -0.2968  0.3089 -0.0662
  527MOL0     C69487   5.532   2.156   0.585 -0.3577  0.8464  0.5142
  527MOL0     C69488   5.397   2.150   0.563 -1.0685  0.0405 -0.0808
  527MOL0     C69489   5.310   2.089   0.646  0.3516 -0.4597  0.2962
  527MOL0     O69490   5.179   2.086   0.611 -0.2933  0.4575 -0.7299
  527MOL0     C69491   5.092   1.988   0.665  0.5919  0.1116 -0.5676
  527MOL0     C69492   5.042   1.891   0.557  0.3051  0.2551  0.2211
  527MOL0     C69493   4.920   1.812   0.594  0.7029 -0.1588 -0.6174
  527MOL0     C69494   4.870   1.716   0.491  0.4865  0.7505  0.1925
  527MOL0     C69495   4.809   1.803   0.388 -0.0611 -1.2317 -0.5757
  527MOL0     C69496   4.753   1.871   0.301  0.8678 -0.6362  0.4925
  527MOL0     C69497   5.362   2.058   0.769  0.3743 -0.2207 -0.1435
  527MOL0     C69498   5.497   2.050   0.805 -0.9904  0.1003  0.0604
  527MOL0     H69499   6.009   2.279   0.573 -2.4537 -0.4616 -0.8463
  527MOL0     H69500   6.244   2.202   0.555  0.1635  0.5356  1.2054
  527MOL0     H69501   6.414   2.110   0.608 -2.4815  0.1127  0.6713
  527MOL0     H69502   6.425   2.097   0.435 -2.3382  3.6741  2.7245
  527MOL0     H69503   6.562   1.885   0.451 -1.2660 -0.3139 -0.2709
  527MOL0     H69504   6.521   1.876   0.620  1.0430  0.0516 -0.2853
  527MOL0     H69505   6.761   1.922   0.589 -0.7558 -0.9932  0.9573
  527MOL0     H69506   6.684   2.062   0.664 -2.8238  0.2706 -1.7773
  527MOL0     H69507   6.749   2.021   0.353  0.6491  1.4397 -1.1622
  527MOL0     H69508   6.659   2.157   0.431  0.0331 -0.1622 -1.2701
  527MOL0     H69509   6.945   2.079   0.513 -1.4881  0.1381  1.7402
  527MOL0     H69510   6.842   2.209   0.572  0.1306 -2.0823  0.7890
  527MOL0     H69511   6.812   2.268   0.315 -0.3803  0.5577  1.5423
  527MOL0     H69512   6.977   2.194   0.288 -0.4762 -0.6045 -2.0413
  527MOL0     H69513   6.969   2.443   0.321  2.7112 -0.5416 -1.1144
  527MOL0     H69514   6.884   2.407   0.484 -1.1070 -0.9264 -0.9055
  527MOL0     H69515   7.170   2.362   0.409  2.1447  0.4780  1.9081
  527MOL0     H69516   7.101   2.327   0.568  1.1927 -0.5562 -0.7464
  527MOL0     H69517   7.080   2.649   0.336 -1.0482  3.0938 -0.0695
  527MOL0     H69518   6.964   2.910   0.593  0.4579 -2.9775  2.0201
  527MOL0     H69519   6.995   2.906   0.420 -0.0075 -0.2795  0.5489
  527MOL0     H69520   7.117   3.090   0.482  0.7940  0.9447  0.3612
  527MOL0     H69521   7.242   2.966   0.467 -0.2355  1.3892 -1.5040
  527MOL0     H69522   7.257   3.132   0.650 -2.7518  1.5031 -3.0452
  527MOL0     H69523   7.112   3.061   0.724 -2.8828  1.1604 -2.9073
  527MOL0     H69524   7.348   2.889   0.668  1.8971  0.8796  0.7616
  527MOL0     H69525   7.239   2.864   0.800  1.3645 -1.2287 -0.5378
  527MOL0     H69526   7.513   3.006   0.572 -1.3648 -2.3534  0.3721
  527MOL0     H69527   7.749   3.016   0.535  0.7588  0.3804 -0.3335
  527MOL0     H69528   8.154   3.181   1.061 -0.2275  0.0432 -0.2169
  527MOL0     H69529   8.362   3.292   1.057  1.7121  0.2278 -0.8282
  527MOL0     H69530   8.551   3.625   0.867 -1.2201  1.1268  0.7726
  527MOL0     H69531   8.400   3.620   0.781  0.3040  0.7064 -1.0082
  527MOL0     H69532   8.581   3.627   0.631  2.8193 -0.1330  1.8572
  527MOL0     H69533   8.519   3.463   0.607  2.1791  0.1415 -0.7401
  527MOL0     H69534   8.713   3.398   0.803  0.2942 -0.2647  0.8563
  527MOL0     H69535   8.764   3.566   0.758 -3.8716  2.1277  0.0373
  527MOL0     H69536   8.713   3.338   0.590 -0.0669 -1.1640  2.1581
  527MOL0     H69537   8.780   3.492   0.518  0.9504  0.2955  0.1290
  527MOL0     H69538   8.931   3.289   0.549  0.0858  0.8194  0.7200
  527MOL0     H69539   8.955   3.359   0.714 -0.3778 -0.5865  1.0806
  527MOL0     H69540   9.004   3.580   0.569 -0.9769 -1.2022  3.4674
  527MOL0     H69541   9.003   3.460   0.436 -1.4803 -2.2204  0.5220
  527MOL0     H69542   9.170   3.374   0.669  1.5983 -1.5341 -2.2528
  527MOL0     H69543   9.211   3.377   0.494  1.6946 -0.8431  0.8397
  527MOL0     H69544   9.211   3.618   0.665  1.1645  2.5061  0.6529
  527MOL0     H69545   9.249   3.614   0.500  0.0557  0.2743  1.2248
  527MOL0     H69546   8.318   3.393   0.646  1.3895  0.3404  0.0364
  527MOL0     H69547   8.158   3.212   0.625  2.6061 -1.8715  0.0012
  527MOL0     H69548   7.809   3.066   0.962  0.2511  0.8102  0.2878
  527MOL0     H69549   7.558   3.071   0.999  2.0425 -0.1496  0.9815
  527MOL0     H69550   6.103   1.800   0.541  0.5346  0.5126 -1.3182
  527MOL0     H69551   5.873   1.880   0.599  0.7275  0.3792  2.8730
  527MOL0     H69552   5.595   2.174   0.499 -5.1970 -1.0193 -3.9887
  527MOL0     H69553   5.367   2.176   0.462  3.1183  3.5028 -0.7724
  527MOL0     H69554   5.006   2.050   0.691  1.5625  2.1370 -1.8662
  527MOL0     H69555   5.116   1.935   0.757 -1.7766 -1.3994 -0.7217
  527MOL0     H69556   5.031   1.953   0.468  0.8319 -1.6556 -1.2374
  527MOL0     H69557   5.120   1.818   0.533 -0.8341 -1.3049  1.0174
  527MOL0     H69558   4.836   1.880   0.613  0.1982 -0.5734 -1.2843
  527MOL0     H69559   4.946   1.757   0.684  0.7018  0.3190 -0.3251
  527MOL0     H69560   4.947   1.651   0.450 -0.7721 -1.2801  0.8772
  527MOL0     H69561   4.800   1.656   0.550  1.5602 -0.4570  0.2826
  527MOL0     H69562   4.707   1.928   0.223 -0.2527 -1.1113  0.7882
  527MOL0     H69563   5.295   2.007   0.837 -2.1838 -0.1835 -2.4211
  527MOL0     H69564   5.536   2.003   0.895 -0.7756 -1.7786 -0.9567
  528MOL0     O69565   6.297   7.900   4.086 -0.2043  0.0358  0.1502
  528MOL0     C69566   6.368   7.955   4.004  0.9214 -0.3049 -0.3779
  528MOL0     O69567   6.321   8.019   3.890  0.0718 -0.0335  0.6016
  528MOL0     C69568   6.185   8.025   3.871 -0.1771  0.8784 -0.1199
  528MOL0     C69569   6.105   8.102   3.956  0.8422 -0.0721 -0.0429
  528MOL0     C69570   5.972   8.123   3.913  1.2049 -0.3166 -1.1425
  528MOL0     C69571   5.922   8.061   3.794 -0.6743  0.3622 -0.4030
  528MOL0     O69572   5.811   8.103   3.734  0.0513 -0.7119 -0.0321
  528MOL0     C69573   5.765   8.243   3.739  0.6840 -0.4298 -0.2168
  528MOL0     C69574   5.651   8.264   3.640  0.0879 -0.9173 -0.4522
  528MOL0     C69575   5.617   8.413   3.632 -0.7275  0.0607  0.0637
  528MOL0     C69576   5.484   8.436   3.550 -0.1739 -0.4281 -0.4038
  528MOL0     C69577   5.354   8.398   3.629 -0.1694 -0.7368 -0.2272
  528MOL0     C69578   5.237   8.475   3.577  0.8074  0.1826  0.0894
  528MOL0     C69579   5.111   8.450   3.657 -0.3503 -0.5393  0.4155
  528MOL0     C69580   4.977   8.499   3.611 -0.0595 -0.0266 -0.3138
  528MOL0     N69581   4.962   8.643   3.627  0.8382  0.0656  0.4470
  528MOL0     C69582   4.859   8.707   3.687 -0.7275  0.2891  0.6986
  528MOL0     C69583   4.873   8.846   3.664  0.5294  0.3712  0.7284
  528MOL0     C69584   4.787   8.967   3.695 -0.3136 -0.6254  0.5086
  528MOL0     C69585   4.738   8.961   3.842  0.4675 -0.2975  0.7858
  528MOL0     C69586   4.670   9.095   3.872  0.0679  0.2288 -0.8732
  528MOL0     C69587   4.575   9.081   3.996 -0.0479  0.3845  0.5934
  528MOL0     O69588   4.469   8.977   3.989  0.3364  0.3162 -0.3191
  528MOL0     C69589   4.341   9.017   3.950  0.2430  0.2239 -0.3125
  528MOL0     C69590   4.229   8.992   4.035  0.4259  0.5608 -0.3544
  528MOL0     C69591   4.100   9.026   4.003  0.4087  0.5607  0.1841
  528MOL0     C69592   4.072   9.091   3.884 -0.1016  0.6893 -0.7471
  528MOL0     C69593   3.937   9.146   3.851 -0.2621 -0.4052 -0.5735
  528MOL0     O69594   3.832   9.153   3.941  0.1079  0.9461 -1.1763
  528MOL0     C69595   3.711   9.189   3.889  0.2911 -0.2288 -0.4315
  528MOL0     C69596   3.599   9.099   3.910 -0.0513 -0.3544  0.1784
  528MOL0     C69597   3.479   9.135   3.870  0.2214  0.2061  0.4135
  528MOL0     C69598   3.459   9.257   3.797 -0.4000 -0.6451 -0.2853
  528MOL0     O69599   3.337   9.278   3.738 -0.5532 -0.5710  0.0592
  528MOL0     C69600   3.305   9.399   3.667  0.0987 -0.7947  0.0628
  528MOL0     C69601   3.154   9.436   3.665 -0.9895 -0.1255 -0.1315
  528MOL0     C69602   3.102   9.435   3.815 -0.2212 -0.4737  0.2082
  528MOL0     C69603   2.949   9.452   3.814  0.1738  0.7933  0.4001
  528MOL0     C69604   2.889   9.483   3.950 -1.0392  0.1741  0.5334
  528MOL0     C69605   2.744   9.531   3.937  0.0449  0.3866 -0.5462
  528MOL0     C69606   2.676   9.566   4.067  0.1829 -1.0309 -0.8285
  528MOL0     C69607   2.540   9.619   4.072 -0.2931 -0.8943  1.3060
  528MOL0    Cl69608   2.517   9.771   3.969 -0.1393  0.0912 -0.2011
  528MOL0     C69609   3.564   9.348   3.790 -1.1864  0.6039  1.2234
  528MOL0     C69610   3.691   9.304   3.830  0.0437 -0.8566 -0.2289
  528MOL0     O69611   3.929   9.179   3.733  0.2119 -0.8742 -0.5094
  528MOL0     C69612   4.188   9.125   3.810 -0.2203  0.1101  0.2344
  528MOL0     C69613   4.321   9.082   3.831  0.5368 -0.1924 -0.9328
  528MOL0     N69614   4.993   8.858   3.608  0.6179  0.6298  0.9698
  528MOL0     N69615   5.039   8.743   3.576 -0.3107  0.1079  0.2126
  528MOL0     C69616   6.008   7.971   3.719 -0.6653 -0.1100 -0.1438
  528MOL0     C69617   6.140   7.954   3.756 -0.7228 -0.0282 -0.0122
  528MOL0     C69618   6.511   7.933   4.034 -0.3641 -0.8361  0.1316
  528MOL0     C69619   6.609   7.985   3.950 -0.6144 -0.3863  1.0354
  528MOL0     C69620   6.748   7.965   3.957  0.0623  0.4740  0.2195
  528MOL0     C69621   6.800   7.912   4.079 -0.0410  0.3549  0.1678
  528MOL0     O69622   6.931   7.911   4.092 -0.7551 -0.4618 -0.4552
  528MOL0     C69623   6.994   7.902   4.214  0.1884 -0.1490 -0.0598
  528MOL0     C69624   7.146   7.891   4.206  0.6853  0.5568  0.2227
  528MOL0     C69625   7.207   7.930   4.341  0.2487 -0.0598  0.9525
  528MOL0     C69626   7.347   7.874   4.347  0.2632 -0.4467 -0.0419
  528MOL0     C69627   7.420   7.897   4.476  0.6584  0.3668  0.4777
  528MOL0     C69628   7.483   7.905   4.577  0.2221  0.7631 -0.7385
  528MOL0     C69629   6.705   7.863   4.173  0.4110  0.1251 -0.0446
  528MOL0     C69630   6.566   7.875   4.157 -0.6603  0.1230  0.0248
  528MOL0     H69631   6.144   8.150   4.045 -1.3622  0.8874  0.4789
  528MOL0     H69632   5.913   8.195   3.969  2.5807 -0.0091 -0.0501
  528MOL0     H69633   5.843   8.318   3.728  2.1168 -1.5983  1.4504
  528MOL0     H69634   5.717   8.255   3.836 -0.9509 -2.6181 -0.6658
  528MOL0     H69635   5.565   8.198   3.656 -2.4915  2.4046  0.5850
  528MOL0     H69636   5.696   8.237   3.545  3.0535  1.2624  0.2082
  528MOL0     H69637   5.695   8.469   3.579  0.6792 -0.4886  1.4891
  528MOL0     H69638   5.604   8.443   3.736 -1.9349  1.1947 -0.3866
  528MOL0     H69639   5.490   8.545   3.534  0.6126 -0.4518 -0.3086
  528MOL0     H69640   5.476   8.393   3.450 -2.8922  3.3305 -2.0560
  528MOL0     H69641   5.368   8.424   3.735  0.1239  0.9742 -0.6639
  528MOL0     H69642   5.333   8.291   3.618  0.0601 -0.9105  0.9123
  528MOL0     H69643   5.221   8.437   3.475 -0.2519  0.2595  0.2153
  528MOL0     H69644   5.241   8.584   3.575 -1.6473  0.3396  0.1615
  528MOL0     H69645   5.097   8.341   3.656  4.4875 -1.4873  3.4844
  528MOL0     H69646   5.132   8.487   3.758  0.8121  1.5005 -0.5334
  528MOL0     H69647   4.893   8.461   3.669 -2.2076  2.6495 -1.4305
  528MOL0     H69648   4.961   8.477   3.505  0.9327  1.6994 -0.8657
  528MOL0     H69649   4.772   8.663   3.735 -0.1847 -0.0183  1.4144
  528MOL0     H69650   4.702   8.970   3.626  0.6646  1.9419 -0.7125
  528MOL0     H69651   4.841   9.061   3.683 -0.6279 -0.6195 -1.1092
  528MOL0     H69652   4.818   8.936   3.912 -0.2751 -2.7338  0.8351
  528MOL0     H69653   4.666   8.880   3.850  0.0838 -0.0884 -0.3911
  528MOL0     H69654   4.743   9.172   3.899  0.8133 -0.4077 -1.0344
  528MOL0     H69655   4.622   9.131   3.780  1.4980  1.0945 -1.3117
  528MOL0     H69656   4.542   9.183   4.019  1.4654  0.9389  0.4062
  528MOL0     H69657   4.645   9.052   4.075  2.1084 -1.4312 -1.8155
  528MOL0     H69658   4.262   8.940   4.124 -0.8790 -0.2881 -0.3343
  528MOL0     H69659   4.011   8.997   4.059 -2.3370  0.4229 -3.7983
  528MOL0     H69660   3.603   9.001   3.956  0.6139  0.3673  1.7468
  528MOL0     H69661   3.405   9.058   3.890 -0.6712  1.2832  1.3899
  528MOL0     H69662   3.326   9.371   3.563 -3.8532 -0.1260 -1.0735
  528MOL0     H69663   3.357   9.486   3.708 -0.8360 -0.2658  0.1595
  528MOL0     H69664   3.098   9.374   3.595  0.0372 -1.6461  0.3412
  528MOL0     H69665   3.151   9.538   3.626 -1.6685 -1.0165 -2.5506
  528MOL0     H69666   3.150   9.507   3.883  2.4154  1.3974 -3.2695
  528MOL0     H69667   3.114   9.337   3.862 -1.1743 -0.4240  0.5804
  528MOL0     H69668   2.926   9.543   3.757 -0.1864  0.8960  0.7063
  528MOL0     H69669   2.899   9.365   3.771 -1.6192  1.5255  0.9177
  528MOL0     H69670   2.936   9.561   4.010 -1.3106 -1.7325  3.4318
  528MOL0     H69671   2.893   9.396   4.016 -3.0322  0.6711  1.3549
  528MOL0     H69672   2.691   9.449   3.889  0.0489 -0.7786  1.3357
  528MOL0     H69673   2.745   9.617   3.869 -1.0809  0.9931  0.1643
  528MOL0     H69674   2.681   9.484   4.139 -1.7917  0.6111  1.3241
  528MOL0     H69675   2.733   9.653   4.101  0.6552 -0.9777 -1.7301
  528MOL0     H69676   2.509   9.651   4.172 -4.7645 -1.7215  0.3763
  528MOL0     H69677   2.466   9.543   4.048 -0.4303 -0.0452 -1.1951
  528MOL0     H69678   3.572   9.446   3.743  1.0244 -0.3719 -0.6452
  528MOL0     H69679   3.771   9.377   3.839 -2.7303  2.3930  0.3140
  528MOL0     H69680   4.183   9.204   3.735  2.4654  1.8681  1.7482
  528MOL0     H69681   4.407   9.111   3.771  1.2699  0.8147  0.5542
  528MOL0     H69682   5.966   7.916   3.635  2.1091  0.6206 -2.1385
  528MOL0     H69683   6.209   7.905   3.688  0.9580  1.4006  0.6027
  528MOL0     H69684   6.576   8.043   3.865 -0.0485  1.1047  1.8059
  528MOL0     H69685   6.814   8.005   3.881  0.4284 -0.3096  0.1091
  528MOL0     H69686   6.951   7.815   4.264 -2.9870  0.3640 -1.6649
  528MOL0     H69687   6.966   7.984   4.280 -2.3422 -0.9502 -0.0469
  528MOL0     H69688   7.180   7.800   4.156  1.2699  0.6843  0.3736
  528MOL0     H69689   7.173   7.971   4.136 -1.2499  0.9448 -0.1344
  528MOL0     H69690   7.140   7.873   4.407  0.1559 -1.5834 -0.3816
  528MOL0     H69691   7.206   8.039   4.348 -1.0547 -0.0874  1.6030
  528MOL0     H69692   7.347   7.765   4.336 -2.1837 -0.4164 -0.8316
  528MOL0     H69693   7.406   7.919   4.267 -0.0405  1.5071  0.7755
  528MOL0     H69694   7.545   7.905   4.664 -0.6399 -1.2017 -0.0702
  528MOL0     H69695   6.731   7.822   4.269 -0.5138 -0.8096 -0.1760
  528MOL0     H69696   6.503   7.839   4.237 -0.0118 -3.4004 -0.9084
  529MOL0     O69697   1.827   5.895   4.410  0.1393  0.8131 -0.1290
  529MOL0     C69698   1.924   5.959   4.455  0.9639  0.2705 -0.4082
  529MOL0     O69699   1.916   6.079   4.514 -0.3102  0.3521  0.3693
  529MOL0     C69700   1.786   6.138   4.509 -0.4050 -0.1222 -0.2806
  529MOL0     C69701   1.774   6.246   4.429  0.8754 -1.0361  0.2523
  529MOL0     C69702   1.650   6.310   4.428 -0.2525 -0.0716 -1.1336
  529MOL0     C69703   1.537   6.254   4.488  0.1502 -0.0578  0.7290
  529MOL0     O69704   1.419   6.328   4.483 -0.6156 -0.5305 -0.2552
  529MOL0     C69705   1.294   6.297   4.545 -0.1062 -0.0793 -0.3208
  529MOL0     C69706   1.194   6.399   4.508  0.1894  0.2844 -0.2219
  529MOL0     C69707   1.243   6.547   4.505 -0.6188  0.4809  0.5079
  529MOL0     C69708   1.134   6.646   4.550 -0.0211  0.4662  0.8049
  529MOL0     C69709   1.003   6.646   4.473 -0.3659 -0.2935  0.6029
  529MOL0     C69710   0.912   6.757   4.511  0.5490 -0.4657  0.4713
  529MOL0     C69711   0.950   6.882   4.438 -0.3723 -0.4282 -0.2751
  529MOL0     C69712   0.850   6.995   4.445  0.6996  0.3490  0.4381
  529MOL0     N69713   0.711   6.945   4.404 -0.1594  0.3737 -0.3660
  529MOL0     C69714   0.612   6.902   4.489  0.3729 -0.4624  0.8529
  529MOL0     C69715   0.497   6.900   4.408 -0.2911  0.4852 -0.8767
  529MOL0     C69716   0.349   6.874   4.450 -0.6808 -0.4741 -0.1809
  529MOL0     C69717   0.274   7.003   4.495 -0.0107 -0.8683 -0.0312
  529MOL0     C69718   0.155   6.974   4.576  0.2974  0.0748  0.7065
  529MOL0     C69719   0.058   7.093   4.563  0.0362 -0.0530  0.9681
  529MOL0     O69720  -0.054   7.088   4.653  0.0523  0.8242  0.3335
  529MOL0     C69721  -0.175   7.041   4.626 -0.1963 -0.9494 -0.0218
  529MOL0     C69722  -0.274   7.045   4.722  0.4559 -1.0282 -0.3769
  529MOL0     C69723  -0.405   6.992   4.688  0.1166 -0.9257 -1.1835
  529MOL0     C69724  -0.442   6.939   4.562 -0.3228 -0.0354  0.2265
  529MOL0     C69725  -0.572   6.886   4.517 -0.0159  0.5305  0.0623
  529MOL0     O69726  -0.579   6.805   4.408 -0.1095  0.6342 -0.0580
  529MOL0     C69727  -0.684   6.708   4.400  0.5848 -0.5891  0.0821
  529MOL0     C69728  -0.722   6.688   4.270  0.4933 -0.4413 -0.0093
  529MOL0     C69729  -0.835   6.610   4.242  0.2041  0.6436 -1.3566
  529MOL0     C69730  -0.890   6.530   4.344 -0.4289 -0.0960 -1.0044
  529MOL0     O69731  -1.003   6.451   4.318  0.6337  0.1652 -0.6897
  529MOL0     C69732  -1.020   6.401   4.185 -0.2350  0.5043  0.1833
  529MOL0     C69733  -1.129   6.287   4.178  0.0454  0.1398 -0.5897
  529MOL0     C69734  -1.274   6.352   4.181 -0.7038  0.4327  0.4464
  529MOL0     C69735  -1.371   6.248   4.154  0.3900 -0.3263  0.1617
  529MOL0     C69736  -1.507   6.302   4.114 -0.1674 -0.9021 -0.4063
  529MOL0     C69737  -1.581   6.206   4.021 -0.1561 -0.0665  0.7463
  529MOL0     C69738  -1.703   6.283   3.974 -0.6894  0.0112  1.0737
  529MOL0     C69739  -1.778   6.194   3.877  0.7934 -0.8078 -0.4986
  529MOL0    Cl69740  -1.918   6.281   3.805 -0.3346  0.3088 -0.1213
  529MOL0     C69741  -0.837   6.546   4.477 -0.0149  0.4034 -0.6762
  529MOL0     C69742  -0.743   6.643   4.504 -1.1111  1.2522  0.2392
  529MOL0     O69743  -0.669   6.923   4.574  0.1870 -0.5956  0.5731
  529MOL0     C69744  -0.335   6.945   4.465  0.5489  0.3856 -0.0831
  529MOL0     C69745  -0.204   6.986   4.498  0.6365 -0.4875 -0.2123
  529MOL0     N69746   0.530   6.944   4.284  0.1847 -1.0076 -0.1184
  529MOL0     N69747   0.656   6.979   4.284  0.3229  0.4934 -0.1357
  529MOL0     C69748   1.555   6.142   4.568  0.9120  0.5395 -0.0316
  529MOL0     C69749   1.681   6.083   4.582 -0.2828 -0.9715  0.0722
  529MOL0     C69750   2.057   5.901   4.453  1.2315 -0.3673  0.0643
  529MOL0     C69751   2.178   5.972   4.470  0.2323  0.3035 -0.0196
  529MOL0     C69752   2.300   5.908   4.473  0.2305  1.0396 -0.0783
  529MOL0     C69753   2.303   5.768   4.454 -0.6123  0.4971  0.4449
  529MOL0     O69754   2.429   5.720   4.447  0.0646  0.6714  0.7207
  529MOL0     C69755   2.462   5.599   4.377  1.0689 -0.5891 -0.8606
  529MOL0     C69756   2.597   5.573   4.430 -0.0213  0.4388 -0.4646
  529MOL0     C69757   2.672   5.455   4.364  0.0139  0.7474 -0.1231
  529MOL0     C69758   2.809   5.440   4.435  0.2773  0.2186  0.7934
  529MOL0     C69759   2.917   5.492   4.353  0.5923 -0.5165  0.5631
  529MOL0     C69760   3.011   5.525   4.279  0.7356  0.0080  0.4223
  529MOL0     C69761   2.182   5.689   4.438  0.7388 -0.2630 -0.7971
  529MOL0     C69762   2.059   5.758   4.438 -0.3679 -1.6512 -0.6370
  529MOL0     H69763   1.858   6.288   4.375  0.1638  0.0001 -0.0739
  529MOL0     H69764   1.640   6.390   4.355  1.2242 -0.0348 -1.3186
  529MOL0     H69765   1.297   6.295   4.654 -0.2730 -1.2144 -0.3235
  529MOL0     H69766   1.259   6.201   4.505 -1.3896  0.9008 -1.6641
  529MOL0     H69767   1.121   6.398   4.590  0.2544 -0.8374 -0.1647
  529MOL0     H69768   1.154   6.385   4.407 -1.3832  2.1006  0.0966
  529MOL0     H69769   1.275   6.580   4.406 -3.6075  0.0139 -0.7286
  529MOL0     H69770   1.332   6.558   4.567  0.3684  3.1291 -1.1797
  529MOL0     H69771   1.120   6.625   4.656  2.1412 -0.4611  0.9549
  529MOL0     H69772   1.183   6.743   4.534  1.2219 -0.0503  1.3411
  529MOL0     H69773   0.955   6.550   4.495  1.8435 -1.1038  2.2717
  529MOL0     H69774   1.020   6.657   4.365  1.2411 -0.7336  0.7880
  529MOL0     H69775   0.911   6.773   4.620  0.3994 -1.5839  0.6455
  529MOL0     H69776   0.810   6.728   4.485  0.0410  1.0461  0.6880
  529MOL0     H69777   1.052   6.913   4.466 -0.8518 -0.6641  1.8941
  529MOL0     H69778   0.958   6.869   4.329 -1.5212 -1.7143 -0.2204
  529MOL0     H69779   0.888   7.071   4.377  2.5324 -0.0106  0.9927
  529MOL0     H69780   0.853   7.035   4.546 -2.6007  0.0408  0.7682
  529MOL0     H69781   0.619   6.880   4.595  0.9540  0.7209  1.0695
  529MOL0     H69782   0.342   6.810   4.539 -0.7723 -2.5208 -1.5931
  529MOL0     H69783   0.300   6.831   4.362 -0.4487  2.2924 -1.7744
  529MOL0     H69784   0.239   7.060   4.408 -0.2134  0.2652  0.7751
  529MOL0     H69785   0.334   7.074   4.554  0.9536  0.6190 -2.6161
  529MOL0     H69786   0.099   6.892   4.530 -2.4545  2.2672 -0.1876
  529MOL0     H69787   0.178   6.956   4.681 -0.7064  1.0831  1.1235
  529MOL0     H69788   0.031   7.096   4.457 -2.4515 -1.2981  1.4865
  529MOL0     H69789   0.109   7.189   4.579  0.8056 -0.3533  0.3841
  529MOL0     H69790  -0.259   7.094   4.818 -1.2478  0.0014 -0.5891
  529MOL0     H69791  -0.483   7.003   4.761  2.0089  2.4346  0.5584
  529MOL0     H69792  -0.674   6.737   4.186 -0.1668 -0.3422 -0.3394
  529MOL0     H69793  -0.867   6.600   4.139  1.5127  1.4309 -1.8722
  529MOL0     H69794  -0.923   6.354   4.166  1.0454  2.0328  2.5739
  529MOL0     H69795  -1.044   6.479   4.112  1.9327 -0.3772 -1.5711
  529MOL0     H69796  -1.099   6.209   4.249  4.9673  0.6309 -1.7618
  529MOL0     H69797  -1.116   6.235   4.082  0.8398  1.9462 -1.5215
  529MOL0     H69798  -1.277   6.439   4.115 -1.2531  1.9848  2.4147
  529MOL0     H69799  -1.297   6.409   4.272  0.5228  1.1810  0.3114
  529MOL0     H69800  -1.337   6.185   4.071 -1.2511 -1.0543  0.0010
  529MOL0     H69801  -1.368   6.180   4.240 -4.0267 -0.4049  0.5221
  529MOL0     H69802  -1.497   6.400   4.066  0.9911 -0.4500  0.7149
  529MOL0     H69803  -1.566   6.327   4.203  0.0260 -0.3848 -0.4230
  529MOL0     H69804  -1.598   6.116   4.081  1.8220  1.6038  4.0351
  529MOL0     H69805  -1.527   6.182   3.929  2.2162  1.0707  1.7606
  529MOL0     H69806  -1.780   6.290   4.050 -2.7157 -1.6186 -0.6934
  529MOL0     H69807  -1.690   6.383   3.933  0.1361  0.1120  1.5456
  529MOL0     H69808  -1.819   6.114   3.938  1.1284 -0.8045 -0.2624
  529MOL0     H69809  -1.716   6.149   3.799  0.6069  0.7203 -1.5691
  529MOL0     H69810  -0.884   6.496   4.561  0.8805  0.1826 -0.2913
  529MOL0     H69811  -0.707   6.653   4.606  1.2522 -0.8061 -0.2924
  529MOL0     H69812  -0.351   6.895   4.370  1.7480  1.8964 -1.1263
  529MOL0     H69813  -0.123   6.973   4.428  0.4674  1.7889 -0.9303
  529MOL0     H69814   1.477   6.098   4.629  1.4754  2.2894  2.0742
  529MOL0     H69815   1.687   6.013   4.664 -1.1978  0.0410  1.0419
  529MOL0     H69816   2.180   6.080   4.480  3.0594  0.1635  1.9423
  529MOL0     H69817   2.392   5.963   4.490 -0.6124  1.7978  2.5921
  529MOL0     H69818   2.471   5.628   4.272 -1.9169 -0.7695 -1.2408
  529MOL0     H69819   2.396   5.513   4.392  0.0902  0.1507 -0.8107
  529MOL0     H69820   2.657   5.663   4.416  2.8629 -1.3618 -0.4559
  529MOL0     H69821   2.581   5.556   4.537 -1.4292  0.2426 -0.6936
  529MOL0     H69822   2.699   5.475   4.260  0.6542 -2.1536 -0.6193
  529MOL0     H69823   2.619   5.359   4.378  3.5542 -1.7700 -2.3779
  529MOL0     H69824   2.803   5.488   4.533 -0.4293 -1.4084  1.5890
  529MOL0     H69825   2.823   5.333   4.453 -2.6866 -0.5167 -0.6026
  529MOL0     H69826   3.093   5.562   4.222 -0.0922  0.8269 -0.2527
  529MOL0     H69827   2.182   5.581   4.442 -0.7179 -0.2685 -0.2744
  529MOL0     H69828   1.971   5.697   4.417 -0.1456 -2.3131  0.2995
  530MOL0     O69829   5.828   6.975   6.228 -0.2016 -0.0139 -0.9824
  530MOL0     C69830   5.866   6.949   6.119 -0.2556  0.5273  0.9231
  530MOL0     O69831   5.799   6.983   6.003  0.0662 -0.6598  1.2407
  530MOL0     C69832   5.665   7.021   6.014 -0.6658  0.3360  0.1871
  530MOL0     C69833   5.620   7.136   5.954 -0.3962 -0.4276  0.4369
  530MOL0     C69834   5.486   7.170   5.950  0.1611 -0.2117 -0.7036
  530MOL0     C69835   5.392   7.080   5.999  0.9628 -0.2850 -0.4738
  530MOL0     O69836   5.252   7.110   6.001  0.1743  0.4108 -0.4031
  530MOL0     C69837   5.225   7.232   6.074  0.6411  0.3054 -0.2323
  530MOL0     C69838   5.079   7.229   6.107  0.2167 -0.0127 -0.8813
  530MOL0     C69839   4.992   7.217   5.989 -0.1368 -0.8878 -0.2172
  530MOL0     C69840   5.010   7.314   5.873  0.3407  0.0324 -0.4553
  530MOL0     C69841   4.901   7.312   5.760  0.9084 -0.1631 -0.8562
  530MOL0     C69842   4.877   7.165   5.715  0.0447 -0.1477 -0.4027
  530MOL0     C69843   4.806   7.175   5.584 -0.7403 -0.6767  0.0393
  530MOL0     C69844   4.750   7.046   5.538  0.3558  0.1566  0.2238
  530MOL0     N69845   4.672   7.056   5.415  0.4926  0.3001  0.1912
  530MOL0     C69846   4.728   7.070   5.287  0.7101 -0.1688  0.0477
  530MOL0     C69847   4.632   7.044   5.195  0.6298 -0.3089  0.1352
  530MOL0     C69848   4.653   7.043   5.043 -1.1083  0.5840 -0.2930
  530MOL0     C69849   4.529   7.110   4.976  0.2580  0.2718  0.2038
  530MOL0     C69850   4.532   7.126   4.831 -0.1309  0.4858  0.0626
  530MOL0     C69851   4.527   6.989   4.749  0.4967 -0.0115  0.1410
  530MOL0     O69852   4.389   6.955   4.754 -0.1726 -0.0547 -0.0432
  530MOL0     C69853   4.342   6.829   4.746  0.7011  0.3107 -0.5043
  530MOL0     C69854   4.215   6.824   4.802 -0.4089  0.5717 -0.6371
  530MOL0     C69855   4.145   6.710   4.826 -0.4474 -0.4643  0.3786
  530MOL0     C69856   4.197   6.589   4.786  0.3074  0.6109  0.4896
  530MOL0     C69857   4.116   6.465   4.807  0.3995 -0.5375 -0.2786
  530MOL0     O69858   3.985   6.480   4.848  0.2749 -0.5088 -0.5362
  530MOL0     C69859   3.898   6.370   4.885 -0.0293 -1.3571  0.2066
  530MOL0     C69860   3.898   6.244   4.824 -1.0395  0.1248  0.5073
  530MOL0     C69861   3.790   6.160   4.859  0.1356  0.1425  0.3592
  530MOL0     C69862   3.682   6.200   4.935 -0.6902 -0.6515 -0.5031
  530MOL0     O69863   3.599   6.097   4.968 -0.3462  0.6625 -0.8147
  530MOL0     C69864   3.465   6.116   5.010  0.2127  0.1542 -0.1083
  530MOL0     C69865   3.375   6.050   4.896 -0.0448  0.2988 -0.5475
  530MOL0     C69866   3.232   6.045   4.969 -0.1836  0.5282  0.4539
  530MOL0     C69867   3.131   5.984   4.858  1.3910  0.0414  0.1869
  530MOL0     C69868   3.098   6.084   4.743  0.3062  0.5251  1.2386
  530MOL0     C69869   2.993   6.042   4.633 -1.1140 -0.4404  0.0330
  530MOL0     C69870   2.849   6.051   4.700 -0.1082  0.2351 -0.3842
  530MOL0     C69871   2.740   6.007   4.599  0.4000 -0.0240  0.0532
  530MOL0    Cl69872   2.641   6.150   4.554  0.1337  0.2267  0.2724
  530MOL0     C69873   3.685   6.331   4.991 -0.4581 -0.4374 -0.4730
  530MOL0     C69874   3.800   6.412   4.968  0.1243 -0.2104 -0.0151
  530MOL0     O69875   4.163   6.365   4.776 -0.4296  0.2615 -1.1579
  530MOL0     C69876   4.323   6.594   4.724 -1.1984  0.1091  0.1006
  530MOL0     C69877   4.394   6.714   4.698 -0.1724 -0.3310 -0.4919
  530MOL0     N69878   4.520   7.009   5.273 -0.5462 -0.1647 -0.1210
  530MOL0     N69879   4.542   7.010   5.397  0.0956 -0.9631 -0.8015
  530MOL0     C69880   5.432   6.958   6.056 -0.0984  0.5051  0.7506
  530MOL0     C69881   5.573   6.926   6.060 -0.8949 -0.5609  0.2733
  530MOL0     C69882   6.009   6.899   6.088  0.3143 -0.1760 -0.2517
  530MOL0     C69883   6.047   6.834   5.968  0.3182 -0.0793 -0.3956
  530MOL0     C69884   6.174   6.800   5.932 -0.3982 -0.3736  0.4617
  530MOL0     C69885   6.280   6.845   6.017  0.4265 -0.1159  1.0713
  530MOL0     O69886   6.404   6.860   5.944 -0.2355  0.3619  0.0735
  530MOL0     C69887   6.525   6.892   6.023 -0.3171 -0.2084 -0.2738
  530MOL0     C69888   6.547   6.786   6.138 -0.5888 -0.7441  0.4867
  530MOL0     C69889   6.572   6.643   6.078  0.1461  0.3093  0.3897
  530MOL0     C69890   6.645   6.538   6.170 -0.5444 -0.6722 -1.5307
  530MOL0     C69891   6.573   6.502   6.297  0.0159 -0.1907  0.0288
  530MOL0     C69892   6.508   6.469   6.397 -0.5534  0.3566  0.4505
  530MOL0     C69893   6.243   6.901   6.138 -0.4184 -0.9131 -0.1544
  530MOL0     C69894   6.106   6.936   6.176 -0.2172  0.0811 -0.1416
  530MOL0     H69895   5.686   7.204   5.900 -0.6723  0.4342  1.1695
  530MOL0     H69896   5.442   7.258   5.904 -0.8847  0.6139  1.7045
  530MOL0     H69897   5.243   7.326   6.020  2.1138  1.6718  2.4253
  530MOL0     H69898   5.284   7.241   6.165 -0.5411 -0.6094  0.6412
  530MOL0     H69899   5.057   7.318   6.168  2.5747 -0.4376  0.7021
  530MOL0     H69900   5.051   7.144   6.170 -1.7084  0.1681 -1.4316
  530MOL0     H69901   4.886   7.234   6.012  0.2626  4.4483 -1.1277
  530MOL0     H69902   4.982   7.114   5.953 -2.3046 -0.1234 -2.1385
  530MOL0     H69903   5.027   7.413   5.917 -0.4974 -0.7600  1.7807
  530MOL0     H69904   5.103   7.282   5.825  0.8322  0.9335 -0.1464
  530MOL0     H69905   4.934   7.378   5.680 -0.5415 -0.9660 -2.1608
  530MOL0     H69906   4.815   7.365   5.801  1.1310 -0.3546 -0.1251
  530MOL0     H69907   4.812   7.120   5.790 -0.6903  5.6820  3.0284
  530MOL0     H69908   4.961   7.101   5.686  0.3915  0.9723 -2.0543
  530MOL0     H69909   4.731   7.254   5.591 -0.7524 -0.7832  1.1853
  530MOL0     H69910   4.884   7.203   5.512 -2.1089  1.8705 -0.5819
  530MOL0     H69911   4.681   7.008   5.614 -0.2465  2.3075  0.8537
  530MOL0     H69912   4.839   6.985   5.521 -0.0102 -0.1737 -0.5306
  530MOL0     H69913   4.833   7.073   5.259  0.5312 -0.3447 -0.6654
  530MOL0     H69914   4.658   6.944   4.997 -1.1639 -0.8009  2.5237
  530MOL0     H69915   4.752   7.086   5.020 -1.1899  1.7232  1.3557
  530MOL0     H69916   4.497   7.201   5.026  1.0018 -1.3780  4.0146
  530MOL0     H69917   4.443   7.049   5.006 -0.8523  2.7675  2.4398
  530MOL0     H69918   4.442   7.183   4.809 -0.5472 -0.3491 -0.4570
  530MOL0     H69919   4.613   7.194   4.803  0.8494  0.1275  1.8260
  530MOL0     H69920   4.582   6.904   4.791 -1.3554 -0.7378  1.2021
  530MOL0     H69921   4.561   7.000   4.646  1.5155 -1.0789  0.3466
  530MOL0     H69922   4.179   6.917   4.845  0.9002  0.5881  0.5142
  530MOL0     H69923   4.048   6.721   4.872 -1.0258  1.4590 -1.1668
  530MOL0     H69924   3.969   6.200   4.755 -0.5504 -1.2369  1.8231
  530MOL0     H69925   3.788   6.060   4.817 -1.3212  0.1408  0.4020
  530MOL0     H69926   3.432   6.219   5.028 -0.6353 -0.2447  0.7594
  530MOL0     H69927   3.452   6.063   5.105 -4.1031  2.8387  1.1021
  530MOL0     H69928   3.421   5.951   4.892  2.1108  1.2966 -1.5036
  530MOL0     H69929   3.371   6.110   4.805  3.7697  1.2349 -0.2680
  530MOL0     H69930   3.196   6.143   5.002  0.9989  1.6500 -1.3846
  530MOL0     H69931   3.220   5.974   5.051 -2.5532 -2.0477 -1.8995
  530MOL0     H69932   3.185   5.896   4.823  0.8724 -1.2773  2.5229
  530MOL0     H69933   3.034   5.952   4.895  1.8976 -1.3895  0.3481
  530MOL0     H69934   3.193   6.094   4.689 -0.8913  0.2435 -1.0334
  530MOL0     H69935   3.064   6.184   4.771 -2.3529  0.3836 -1.1120
  530MOL0     H69936   3.020   5.941   4.601 -2.2111 -0.0128 -2.4907
  530MOL0     H69937   2.992   6.094   4.537 -2.2902 -0.2023  0.1556
  530MOL0     H69938   2.842   5.980   4.783  2.5567  2.3214  1.8393
  530MOL0     H69939   2.831   6.152   4.738 -0.4620 -0.8682  2.7261
  530MOL0     H69940   2.666   5.942   4.647 -0.1747  0.8591  0.3790
  530MOL0     H69941   2.782   5.960   4.509  1.2589 -2.3176  1.5550
  530MOL0     H69942   3.609   6.358   5.063 -2.4565 -2.4158 -1.7260
  530MOL0     H69943   3.821   6.511   5.006  3.8424  0.9909 -4.3037
  530MOL0     H69944   4.355   6.499   4.681 -1.0009 -0.4382  1.4209
  530MOL0     H69945   4.496   6.710   4.663  0.5987 -2.1265  1.7345
  530MOL0     H69946   5.361   6.885   6.094  0.1219  1.6037  3.4882
  530MOL0     H69947   5.611   6.839   6.112  2.4401  0.9910  0.7593
  530MOL0     H69948   5.972   6.817   5.892 -2.1862  1.6122  1.5550
  530MOL0     H69949   6.204   6.758   5.837 -0.0766  2.8438 -0.9703
  530MOL0     H69950   6.515   6.993   6.061 -3.2086 -0.1675 -0.9064
  530MOL0     H69951   6.611   6.888   5.955  0.7755  1.0706  0.9734
  530MOL0     H69952   6.640   6.812   6.190  1.1079 -0.6494 -2.3950
  530MOL0     H69953   6.459   6.782   6.202  0.0826  3.6802  2.0444
  530MOL0     H69954   6.630   6.656   5.986  0.5205  2.9833  0.9100
  530MOL0     H69955   6.475   6.608   6.042 -0.5351 -0.6775  2.9584
  530MOL0     H69956   6.678   6.446   6.120 -0.5214 -2.5776  1.7261
  530MOL0     H69957   6.742   6.587   6.187  0.6057 -2.1536 -3.3712
  530MOL0     H69958   6.465   6.426   6.486  1.4640  0.1680  1.3935
  530MOL0     H69959   6.319   6.938   6.206 -4.0280  1.6673  2.8794
  530MOL0     H69960   6.090   7.005   6.258 -0.9451  1.7211 -1.5945
  531MOL0     O69961   3.352   6.126   6.027 -0.0655  0.3398 -0.3746
  531MOL0     C69962   3.407   6.195   5.940  0.2084  0.4062 -0.2679
  531MOL0     O69963   3.336   6.256   5.839  1.1059 -0.1774 -0.2597
  531MOL0     C69964   3.200   6.257   5.824 -0.3557  0.3952  0.0756
  531MOL0     C69965   3.106   6.301   5.916  0.1973 -1.1371  0.5704
  531MOL0     C69966   2.971   6.313   5.880 -0.0695  0.8111  0.0916
  531MOL0     C69967   2.936   6.263   5.746 -0.0167 -0.3682  0.3488
  531MOL0     O69968   2.810   6.248   5.689 -0.6235 -0.4156  0.6184
  531MOL0     C69969   2.704   6.245   5.788 -0.1865 -0.5585  0.0705
  531MOL0     C69970   2.581   6.204   5.713  0.3362 -0.0423  0.3857
  531MOL0     C69971   2.448   6.185   5.793  0.6667 -0.6681  0.1125
  531MOL0     C69972   2.406   6.312   5.884  0.7699 -0.1216 -0.4281
  531MOL0     C69973   2.270   6.273   5.959 -0.4332  1.0419 -0.0930
  531MOL0     C69974   2.223   6.381   6.050  0.5060 -0.3502  0.0235
  531MOL0     C69975   2.195   6.507   5.966  0.7388  0.2914  0.4033
  531MOL0     C69976   2.119   6.605   6.060  0.6315  0.0277  0.8860
  531MOL0     N69977   2.214   6.642   6.165 -0.2961  0.6259  0.2502
  531MOL0     C69978   2.307   6.737   6.157  0.1034 -0.8306  0.2049
  531MOL0     C69979   2.376   6.736   6.275 -0.5457  0.4094 -0.1532
  531MOL0     C69980   2.489   6.811   6.337  0.6752 -0.1244 -0.2750
  531MOL0     C69981   2.540   6.939   6.271 -0.6176  0.2422 -0.1249
  531MOL0     C69982   2.505   7.065   6.345 -0.4262  0.5853  0.3630
  531MOL0     C69983   2.363   7.092   6.364 -0.2010  0.3964  0.7810
  531MOL0     O69984   2.293   7.063   6.234 -0.1709  0.4575 -0.1380
  531MOL0     C69985   2.154   7.077   6.220  0.0077 -1.0290 -0.3761
  531MOL0     C69986   2.063   7.088   6.328 -0.5496 -0.5344 -1.0567
  531MOL0     C69987   1.926   7.110   6.298  0.2085 -0.5661  0.0439
  531MOL0     C69988   1.878   7.125   6.165  0.2658  0.6248  0.4538
  531MOL0     C69989   1.732   7.156   6.144  0.5004  0.1184 -0.5343
  531MOL0     O69990   1.653   7.179   6.252  0.2358  0.2132 -0.0386
  531MOL0     C69991   1.511   7.165   6.228 -0.4191 -0.6193  0.2952
  531MOL0     C69992   1.449   7.042   6.246 -0.3964  0.0547  1.1549
  531MOL0     C69993   1.316   7.036   6.223  1.2618  0.2583  0.2253
  531MOL0     C69994   1.235   7.140   6.182  0.5065  0.0824  0.0035
  531MOL0     O69995   1.107   7.117   6.161  0.5559  0.2093  0.1849
  531MOL0     C69996   1.011   7.195   6.087 -0.3227 -0.3212  0.1603
  531MOL0     C69997   0.928   7.273   6.185  0.1964 -0.0978  0.3876
  531MOL0     C69998   0.833   7.364   6.107  0.4417  0.2322  0.1819
  531MOL0     C69999   0.713   7.423   6.196  0.1729  0.6308 -0.1686
  531MOL0     C70000   0.609   7.499   6.101 -0.0760  0.3955  0.1750
  531MOL0     C70001   0.516   7.595   6.170  0.0631 -0.4237  1.1923
  531MOL0     C70002   0.404   7.517   6.240 -0.1673  0.3998 -0.1155
  531MOL0     C70003   0.318   7.629   6.305  0.7101  0.5967  1.9907
  531MOL0    Cl70004   0.401   7.711   6.437  0.2198  0.0676  0.0183
  531MOL0     C70005   1.295   7.259   6.156 -0.5275 -0.6348 -0.5691
  531MOL0     C70006   1.438   7.273   6.194 -0.0882  0.0070 -0.1081
  531MOL0     O70007   1.691   7.136   6.031  0.2953 -1.0898  0.1759
  531MOL0     C70008   1.975   7.113   6.063 -0.7189 -0.4173 -0.8456
  531MOL0     C70009   2.109   7.083   6.087  0.0611  0.0671  1.0647
  531MOL0     N70010   2.314   6.644   6.364 -0.1555  0.3802  0.0485
  531MOL0     N70011   2.220   6.584   6.293  0.1271  0.0763  0.5016
  531MOL0     C70012   3.037   6.214   5.659 -0.1409 -0.4499 -0.4358
  531MOL0     C70013   3.172   6.216   5.697 -0.8964 -0.2744  0.0327
  531MOL0     C70014   3.558   6.209   5.947 -0.0985  0.1460  0.1284
  531MOL0     C70015   3.633   6.141   6.041 -0.0656  0.0639 -0.0389
  531MOL0     C70016   3.770   6.158   6.039  0.1483  0.9914 -0.1316
  531MOL0     C70017   3.825   6.250   5.959 -0.0321  0.2635 -0.4780
  531MOL0     O70018   3.962   6.268   5.936  0.1650 -0.2229  0.0362
  531MOL0     C70019   4.041   6.154   5.928 -0.0609 -0.0130  0.2017
  531MOL0     C70020   4.026   6.091   5.785  0.5637  0.8773  0.2963
  531MOL0     C70021   4.057   6.184   5.667 -0.7047 -0.0043 -0.0316
  531MOL0     C70022   4.205   6.236   5.649 -0.5229  0.2741  0.1796
  531MOL0     C70023   4.295   6.123   5.629 -0.2046 -1.1142  0.3579
  531MOL0     C70024   4.365   6.029   5.610 -0.7090  0.6930 -0.2322
  531MOL0     C70025   3.751   6.319   5.858 -0.6615  0.0364  0.3236
  531MOL0     C70026   3.613   6.305   5.857 -0.6282  0.0256  0.3344
  531MOL0     H70027   3.131   6.338   6.015 -1.8341  0.4619  0.5536
  531MOL0     H70028   2.901   6.353   5.952  0.1202 -0.2797  0.9156
  531MOL0     H70029   2.676   6.342   5.830 -0.0205 -1.1340  1.5975
  531MOL0     H70030   2.722   6.178   5.873 -2.1974  1.5190  2.2762
  531MOL0     H70031   2.597   6.115   5.652 -0.0709  1.2626 -1.7366
  531MOL0     H70032   2.552   6.287   5.647  1.7235  1.3195  1.4043
  531MOL0     H70033   2.460   6.108   5.870 -1.4604 -0.2709  0.9069
  531MOL0     H70034   2.376   6.155   5.717  2.1940  0.0798 -1.7098
  531MOL0     H70035   2.488   6.343   5.950  1.7176 -3.0026 -0.1239
  531MOL0     H70036   2.378   6.398   5.821 -4.8652 -1.5157 -0.3094
  531MOL0     H70037   2.293   6.187   6.022  0.8421  0.4824 -1.2553
  531MOL0     H70038   2.193   6.244   5.887  0.0082  0.4528 -0.3433
  531MOL0     H70039   2.302   6.401   6.123  1.4162 -0.6861 -0.8464
  531MOL0     H70040   2.139   6.336   6.105  1.6375 -3.2996 -0.4534
  531MOL0     H70041   2.287   6.549   5.925  1.9283 -1.6941  0.8942
  531MOL0     H70042   2.127   6.476   5.886  0.9248  1.0189 -0.0398
  531MOL0     H70043   2.023   6.572   6.100  1.2032 -1.9894  0.6913
  531MOL0     H70044   2.096   6.694   6.000 -2.1549  0.2557  2.1366
  531MOL0     H70045   2.339   6.800   6.074 -0.2766  1.0160  1.4153
  531MOL0     H70046   2.566   6.734   6.348  0.4085 -0.7646 -2.4047
  531MOL0     H70047   2.460   6.838   6.439  0.2143 -2.3483  0.2204
  531MOL0     H70048   2.507   6.938   6.167  0.5243 -1.9573 -0.5209
  531MOL0     H70049   2.649   6.948   6.276 -0.6886  0.5574  1.1439
  531MOL0     H70050   2.550   7.056   6.445  1.6062 -1.1518 -0.6373
  531MOL0     H70051   2.547   7.151   6.292  0.0481  1.6875  2.4070
  531MOL0     H70052   2.375   7.199   6.385  0.1318  0.5831 -0.2633
  531MOL0     H70053   2.312   7.040   6.445 -1.9280 -0.6177 -0.8825
  531MOL0     H70054   2.082   7.083   6.434  0.0709 -0.8358 -1.1784
  531MOL0     H70055   1.871   7.122   6.391  1.1692 -0.3877  0.6015
  531MOL0     H70056   1.519   6.967   6.282  0.0629  0.5413  1.2905
  531MOL0     H70057   1.257   6.945   6.234 -1.5974  1.9053 -0.4369
  531MOL0     H70058   0.953   7.130   6.022  0.6756 -0.7686 -0.2932
  531MOL0     H70059   1.052   7.272   6.021 -1.8040  1.8767  1.6459
  531MOL0     H70060   0.984   7.337   6.255  1.1579 -0.1479 -0.3154
  531MOL0     H70061   0.878   7.196   6.245  1.3372 -0.5711  0.7808
  531MOL0     H70062   0.797   7.303   6.024 -4.0832 -2.6936  3.7798
  531MOL0     H70063   0.888   7.451   6.071 -0.2491  0.9333  0.7978
  531MOL0     H70064   0.675   7.343   6.260 -0.3618  3.1379  2.8955
  531MOL0     H70065   0.754   7.493   6.268  1.6203  2.3713 -2.5278
  531MOL0     H70066   0.555   7.425   6.041 -1.8376  1.2534  0.6398
  531MOL0     H70067   0.677   7.553   6.036  1.3875 -0.7246  0.7307
  531MOL0     H70068   0.479   7.656   6.087  2.3887  1.6918  1.5919
  531MOL0     H70069   0.572   7.650   6.245  1.0369 -2.1182  1.7747
  531MOL0     H70070   0.333   7.475   6.169 -0.9308  2.1848 -0.4682
  531MOL0     H70071   0.435   7.439   6.310 -3.9026 -1.0930  0.1364
  531MOL0     H70072   0.218   7.599   6.337  0.8641  0.5803  2.4588
  531MOL0     H70073   0.294   7.702   6.227 -0.4342 -1.0767  0.7137
  531MOL0     H70074   1.238   7.350   6.141 -1.4402 -0.6786  2.1455
  531MOL0     H70075   1.496   7.365   6.192 -0.8872  0.5811  1.4197
  531MOL0     H70076   1.938   7.121   5.961  1.8171  0.7037 -1.7402
  531MOL0     H70077   2.169   7.054   6.002 -0.0527 -1.1226  1.3647
  531MOL0     H70078   3.004   6.183   5.560 -1.5156 -1.4172  0.2799
  531MOL0     H70079   3.253   6.193   5.629  0.3773  0.1295  1.3672
  531MOL0     H70080   3.580   6.082   6.115  0.3583 -0.8048 -0.4118
  531MOL0     H70081   3.825   6.124   6.126 -1.6807  1.2914  1.2232
  531MOL0     H70082   4.010   6.078   6.000 -0.0818  1.5106  1.8693
  531MOL0     H70083   4.148   6.174   5.944  0.2074 -3.0265  3.4690
  531MOL0     H70084   4.081   5.996   5.781  0.0419  0.5995 -0.6149
  531MOL0     H70085   3.921   6.063   5.778  0.5991  1.0886 -1.5182
  531MOL0     H70086   3.995   6.274   5.674 -2.0301 -0.9454  0.8805
  531MOL0     H70087   4.027   6.127   5.578  0.7506 -1.0806  0.1330
  531MOL0     H70088   4.204   6.295   5.557 -5.1173  2.4215  1.3106
  531MOL0     H70089   4.242   6.301   5.728  0.9447  3.5681 -2.9064
  531MOL0     H70090   4.419   5.937   5.605  0.3110  0.8800  3.7152
  531MOL0     H70091   3.796   6.385   5.785 -1.0709  3.6156  3.0435
  531MOL0     H70092   3.542   6.340   5.783 -1.3362  0.5066  1.2339
  532MOL0     O70093   9.706   7.977  11.007 -0.0231  0.4441  0.0720
  532MOL0     C70094   9.780   7.893  10.967  1.4541  0.3454 -0.1735
  532MOL0     O70095   9.746   7.770  10.918 -0.0909  0.2109  0.2078
  532MOL0     C70096   9.610   7.731  10.907  0.1794 -0.5524 -0.2756
  532MOL0     C70097   9.596   7.595  10.888 -0.3503 -0.0431  0.4216
  532MOL0     C70098   9.469   7.542  10.860  0.2804  0.8748 -0.6252
  532MOL0     C70099   9.358   7.617  10.857  0.1278 -0.7974 -0.3287
  532MOL0     O70100   9.240   7.542  10.851 -0.0697  0.1396  0.4383
  532MOL0     C70101   9.119   7.618  10.841  0.4814  0.7664  0.5145
  532MOL0     C70102   8.988   7.542  10.822 -0.2441  0.5199  0.4559
  532MOL0     C70103   8.869   7.638  10.792  0.8586  0.3690  0.2869
  532MOL0     C70104   8.746   7.550  10.755 -0.5656 -0.0111 -0.0623
  532MOL0     C70105   8.621   7.640  10.783  0.3977  0.4247 -0.5799
  532MOL0     C70106   8.508   7.544  10.781 -0.7364  0.8011 -0.6218
  532MOL0     C70107   8.377   7.606  10.774 -0.8992 -0.3716  0.3998
  532MOL0     C70108   8.262   7.518  10.827 -0.7664 -0.2088  0.1241
  532MOL0     N70109   8.136   7.592  10.870  0.1112  0.0604  0.4268
  532MOL0     C70110   8.040   7.646  10.792  0.0643  0.7186  1.2084
  532MOL0     C70111   7.975   7.726  10.873  0.0448 -0.1592  0.7107
  532MOL0     C70112   7.860   7.806  10.838 -0.5935  0.8014  0.1029
  532MOL0     C70113   7.799   7.783  10.699  0.3525  0.6024 -0.9068
  532MOL0     C70114   7.692   7.888  10.675 -0.6450  0.4738  0.0537
  532MOL0     C70115   7.609   7.876  10.556  0.7309  0.5502 -0.3101
  532MOL0     O70116   7.514   7.979  10.540  0.5358 -0.4420  0.2971
  532MOL0     C70117   7.406   7.961  10.456  0.6302  0.4018 -0.2042
  532MOL0     C70118   7.324   8.070  10.445 -0.9417 -0.1039  0.0532
  532MOL0     C70119   7.197   8.063  10.382  0.4383  0.2634 -0.4241
  532MOL0     C70120   7.158   7.946  10.324 -0.1216  0.0421 -0.1384
  532MOL0     C70121   7.024   7.932  10.256 -0.6926  0.4855 -0.0973
  532MOL0     O70122   6.934   8.029  10.268 -0.8713 -0.4074 -0.5704
  532MOL0     C70123   6.812   8.029  10.200  0.0212  0.3035  0.1851
  532MOL0     C70124   6.763   8.153  10.155 -0.4273  0.3294  0.2488
  532MOL0     C70125   6.635   8.164  10.103 -0.5505  0.6659 -0.1662
  532MOL0     C70126   6.555   8.050  10.089  0.0195 -1.0179  0.6166
  532MOL0     O70127   6.428   8.072  10.033 -0.1595  0.6254  0.0322
  532MOL0     C70128   6.389   8.000   9.920 -0.2413  1.1101  0.6447
  532MOL0     C70129   6.240   8.018   9.887  1.2954 -0.0941 -0.0929
  532MOL0     C70130   6.155   7.901   9.937 -0.0550 -0.0829 -0.9375
  532MOL0     C70131   6.002   7.937   9.948 -0.5545 -0.4669  0.3390
  532MOL0     C70132   5.939   7.929   9.810 -0.5313  0.1065  0.3582
  532MOL0     C70133   5.781   7.948   9.817 -1.1615 -0.4258 -0.6271
  532MOL0     C70134   5.732   7.814   9.892  0.4724 -0.3851  1.0241
  532MOL0     C70135   5.580   7.791   9.850  0.2660  1.2613 -0.1491
  532MOL0    Cl70136   5.448   7.903   9.916 -0.5141  0.0370  0.4244
  532MOL0     C70137   6.605   7.921  10.124 -1.0082  0.0225 -0.5878
  532MOL0     C70138   6.725   7.912  10.190 -0.7052  0.0288 -0.3305
  532MOL0     O70139   7.008   7.826  10.197 -0.6763  0.2325  0.3197
  532MOL0     C70140   7.249   7.833  10.322 -0.0050  0.4015  0.4247
  532MOL0     C70141   7.369   7.847  10.388 -1.1276  0.3590  0.6008
  532MOL0     N70142   8.031   7.737  10.998 -0.3376  0.3839  0.3472
  532MOL0     N70143   8.133   7.650  10.986 -0.0798  0.5319 -0.2385
  532MOL0     C70144   9.366   7.750  10.887 -0.2284 -1.3493 -0.8412
  532MOL0     C70145   9.495   7.809  10.913  0.2686  0.3055 -0.1249
  532MOL0     C70146   9.925   7.919  10.983  0.0864 -0.6119  0.0307
  532MOL0     C70147  10.019   7.833  10.921  0.0950 -0.3784  0.1364
  532MOL0     C70148  10.155   7.855  10.939 -0.5441  0.2010  0.5703
  532MOL0     C70149  10.207   7.965  11.009 -0.2712 -0.9336 -0.0303
  532MOL0     O70150  10.338   7.987  11.030 -0.9621  0.2382 -0.5348
  532MOL0     C70151  10.408   8.075  10.946 -0.4967 -0.0476  0.7057
  532MOL0     C70152  10.560   8.060  10.934  0.5892 -0.0181 -0.1401
  532MOL0     C70153  10.618   7.920  10.935  0.4738 -0.2841  0.6598
  532MOL0     C70154  10.765   7.915  10.900 -0.5953 -0.2821  0.1687
  532MOL0     C70155  10.818   7.782  10.932 -0.6535  0.7158 -0.5377
  532MOL0     C70156  10.884   7.689  10.964 -0.0218 -0.2288  0.3285
  532MOL0     C70157  10.112   8.045  11.076 -0.6702  0.5187  0.0744
  532MOL0     C70158   9.976   8.019  11.063  0.5004  0.5392  0.5443
  532MOL0     H70159   9.686   7.539  10.912 -0.3797  0.7614  2.6315
  532MOL0     H70160   9.469   7.439  10.826 -3.7331  0.1913  0.8912
  532MOL0     H70161   9.142   7.691  10.763  0.4082  1.6493  1.3019
  532MOL0     H70162   9.106   7.664  10.939  1.4799  2.4714 -0.1043
  532MOL0     H70163   8.964   7.489  10.915  0.6484 -0.8921 -0.0724
  532MOL0     H70164   9.002   7.473  10.738 -2.0204 -0.1518  0.6796
  532MOL0     H70165   8.895   7.707  10.711  0.2873  0.0366 -0.1921
  532MOL0     H70166   8.848   7.685  10.889 -0.4707  2.5742 -0.9799
  532MOL0     H70167   8.756   7.533  10.647  4.6174  2.5797 -0.3195
  532MOL0     H70168   8.745   7.462  10.820 -0.3113 -0.4749 -0.6830
  532MOL0     H70169   8.605   7.712  10.702 -4.5983 -0.3539 -0.5898
  532MOL0     H70170   8.630   7.705  10.870  0.7673 -0.6779  0.2352
  532MOL0     H70171   8.514   7.474  10.865  2.1520  0.9078 -0.6497
  532MOL0     H70172   8.516   7.479  10.694 -1.0952 -4.3972  2.7630
  532MOL0     H70173   8.379   7.687  10.847  0.8110 -2.4523  2.8251
  532MOL0     H70174   8.350   7.635  10.672  0.1835  0.9406  0.4641
  532MOL0     H70175   8.305   7.461  10.910 -1.5402 -1.1353 -0.0858
  532MOL0     H70176   8.246   7.448  10.744 -1.3383  1.9700 -1.6987
  532MOL0     H70177   8.023   7.629  10.686 -0.6547  1.8177  1.1392
  532MOL0     H70178   7.897   7.908  10.846 -0.2653  0.5267  4.6513
  532MOL0     H70179   7.780   7.787  10.911  0.6043 -1.5251  0.9141
  532MOL0     H70180   7.749   7.686  10.709  2.3828 -0.5017 -0.8254
  532MOL0     H70181   7.876   7.780  10.621  1.5336 -1.5338  0.2381
  532MOL0     H70182   7.626   7.897  10.762 -1.7614 -0.8740 -0.6227
  532MOL0     H70183   7.741   7.986  10.674 -1.2390  0.8087  1.6278
  532MOL0     H70184   7.558   7.779  10.558  2.9640 -0.8163 -2.5193
  532MOL0     H70185   7.677   7.864  10.471 -1.7081 -0.5363 -2.2409
  532MOL0     H70186   7.368   8.165  10.473 -0.3799  0.0063 -1.1888
  532MOL0     H70187   7.139   8.155  10.387  0.6839  0.3912  0.1105
  532MOL0     H70188   6.816   8.242  10.188  0.1153 -0.2094  0.8526
  532MOL0     H70189   6.588   8.258  10.075 -0.4199  0.4965 -1.0067
  532MOL0     H70190   6.414   7.893   9.926 -0.6922  0.9335 -0.4967
  532MOL0     H70191   6.439   8.041   9.832 -2.4571 -0.1176 -1.3041
  532MOL0     H70192   6.218   8.012   9.780 -1.2311  0.0369  0.3751
  532MOL0     H70193   6.217   8.112   9.938  1.3711 -0.1852  0.1101
  532MOL0     H70194   6.193   7.884  10.039 -3.9791  0.9593  0.8679
  532MOL0     H70195   6.176   7.815   9.873  2.6592 -2.7191  2.9978
  532MOL0     H70196   5.959   7.859  10.011 -2.7093 -0.7976 -1.4048
  532MOL0     H70197   5.981   8.036   9.991 -0.7653 -0.1379 -0.5084
  532MOL0     H70198   5.972   7.837   9.762 -1.3671  1.1116 -2.2894
  532MOL0     H70199   5.977   8.011   9.748 -0.9518  0.5352  0.6580
  532MOL0     H70200   5.735   7.953   9.718  2.8606  1.6592 -2.6654
  532MOL0     H70201   5.755   8.035   9.879  1.5189 -0.3843  0.5806
  532MOL0     H70202   5.781   7.729   9.845  3.6471  1.3849  0.8366
  532MOL0     H70203   5.743   7.808  10.001 -1.4017 -3.2005  1.1691
  532MOL0     H70204   5.556   7.692   9.888 -1.4745  0.9467 -1.9477
  532MOL0     H70205   5.571   7.794   9.741  3.8458 -1.5138 -0.7013
  532MOL0     H70206   6.551   7.827  10.123 -1.1039  0.0826 -1.6011
  532MOL0     H70207   6.744   7.815  10.235  2.0954  0.3529 -0.6252
  532MOL0     H70208   7.227   7.737  10.278  0.6554 -0.3109  1.6106
  532MOL0     H70209   7.435   7.761  10.392 -1.3139  0.0605 -1.5563
  532MOL0     H70210   9.280   7.816  10.882  2.1155  2.0825  0.2900
  532MOL0     H70211   9.496   7.916  10.928  0.2521  0.1942  0.6665
  532MOL0     H70212   9.983   7.748  10.864  1.9991 -1.1183 -0.0041
  532MOL0     H70213  10.229   7.791  10.894  0.8469  2.9062 -1.2578
  532MOL0     H70214  10.393   8.177  10.983  0.2891 -0.2848  1.7183
  532MOL0     H70215  10.367   8.056  10.847 -0.6819  1.2784  0.5024
  532MOL0     H70216  10.595   8.115  10.846  2.1904 -3.2278 -1.6594
  532MOL0     H70217  10.609   8.106  11.020 -1.1602  2.4070 -0.3336
  532MOL0     H70218  10.582   7.854  10.855  2.1605 -2.8355  1.8543
  532MOL0     H70219  10.596   7.871  11.030  2.4445  1.5461  2.1482
  532MOL0     H70220  10.778   7.926  10.792  2.8981  1.2489  0.5839
  532MOL0     H70221  10.827   7.993  10.945 -0.4279 -0.8993  1.0366
  532MOL0     H70222  10.943   7.608  11.002  0.0227 -0.5079 -0.3139
  532MOL0     H70223  10.140   8.137  11.125  0.6669 -0.2072  0.7364
  532MOL0     H70224   9.910   8.095  11.104  1.0986  1.1097  0.4743
  533MOL0     O70225   1.929   7.947   2.878  0.5033  0.5617  0.4689
  533MOL0     C70226   1.966   7.943   2.765  0.5405 -0.0122  1.5927
  533MOL0     O70227   1.908   7.870   2.664  0.1837  0.0249  0.1965
  533MOL0     C70228   1.809   7.785   2.703  0.1495 -0.5142  0.0427
  533MOL0     C70229   1.677   7.814   2.672 -1.0699 -0.6181  0.1619
  533MOL0     C70230   1.572   7.730   2.712  0.3616  0.0838  0.7874
  533MOL0     C70231   1.599   7.616   2.779 -0.6835  0.6850  0.0976
  533MOL0     O70232   1.481   7.553   2.808  0.1474  0.1775  0.3644
  533MOL0     C70233   1.493   7.465   2.922 -0.0031  0.5548 -0.1890
  533MOL0     C70234   1.359   7.395   2.960  0.2420 -0.5002  0.0967
  533MOL0     C70235   1.379   7.311   3.088  0.0246 -0.2198 -0.0311
  533MOL0     C70236   1.254   7.217   3.082  0.6115  1.1230  0.2947
  533MOL0     C70237   1.259   7.109   3.188 -0.2916  0.6210 -0.6902
  533MOL0     C70238   1.153   6.994   3.159 -0.3241 -0.9046  0.2534
  533MOL0     C70239   1.153   6.897   3.273 -0.9895 -0.3993 -0.8900
  533MOL0     C70240   1.075   6.762   3.253 -0.8047  0.0617 -0.1033
  533MOL0     N70241   0.929   6.766   3.225 -0.7118 -0.0234 -0.1914
  533MOL0     C70242   0.842   6.798   3.325 -1.1853 -0.5814  0.3476
  533MOL0     C70243   0.717   6.801   3.273 -1.3081 -1.2348 -0.8968
  533MOL0     C70244   0.582   6.816   3.346  0.7169 -0.1545  0.9788
  533MOL0     C70245   0.558   6.693   3.424  1.3455  0.2884  0.6569
  533MOL0     C70246   0.422   6.705   3.496 -0.6012 -0.3348  0.8679
  533MOL0     C70247   0.312   6.647   3.412  0.2191 -0.7144 -0.0228
  533MOL0     O70248   0.200   6.654   3.506 -0.1240  0.0977 -0.2415
  533MOL0     C70249   0.082   6.601   3.456 -0.7417 -0.4784 -0.7440
  533MOL0     C70250   0.001   6.548   3.556 -0.2712  0.2858  0.4817
  533MOL0     C70251  -0.115   6.471   3.528  1.0844 -0.2015  0.3427
  533MOL0     C70252  -0.142   6.434   3.396 -0.2284  0.2112 -0.1071
  533MOL0     C70253  -0.270   6.367   3.358 -0.5260 -0.3828 -0.4932
  533MOL0     O70254  -0.364   6.352   3.470 -0.3479 -1.0473 -0.2416
  533MOL0     C70255  -0.484   6.287   3.437  0.1357  0.2932 -0.7596
  533MOL0     C70256  -0.552   6.315   3.321  0.4977 -0.0148  0.3787
  533MOL0     C70257  -0.671   6.250   3.285  0.0239  0.1731 -1.1882
  533MOL0     C70258  -0.726   6.156   3.372  0.5508 -0.9979  0.2909
  533MOL0     O70259  -0.832   6.072   3.339 -0.3306 -0.3011  0.0865
  533MOL0     C70260  -0.906   6.100   3.220 -0.1507  0.0038  0.3528
  533MOL0     C70261  -1.042   6.026   3.214 -0.3100  0.0049  0.5935
  533MOL0     C70262  -1.150   6.075   3.304  0.9892 -0.1230  0.2448
  533MOL0     C70263  -1.293   6.015   3.288  0.5125  0.4148 -0.2493
  533MOL0     C70264  -1.298   5.865   3.279 -0.1617  0.0236 -0.6460
  533MOL0     C70265  -1.445   5.826   3.291 -0.3836  0.2654 -0.7583
  533MOL0     C70266  -1.472   5.691   3.239 -1.1888 -0.8583  0.5312
  533MOL0     C70267  -1.596   5.620   3.290  1.0898  0.0968 -0.5161
  533MOL0    Cl70268  -1.582   5.451   3.235 -0.4967 -0.1176 -0.5058
  533MOL0     C70269  -0.671   6.146   3.497 -0.4731 -0.2228 -0.2653
  533MOL0     C70270  -0.548   6.204   3.522 -0.6293  0.1961  0.0874
  533MOL0     O70271  -0.282   6.336   3.241 -0.0273 -0.2747  0.7238
  533MOL0     C70272  -0.053   6.472   3.296 -0.0442 -0.2579  0.2630
  533MOL0     C70273   0.061   6.558   3.322  0.8888  0.3300 -0.0082
  533MOL0     N70274   0.733   6.792   3.137  1.4153  0.2526 -0.5724
  533MOL0     N70275   0.853   6.765   3.113  0.0024 -0.2956  0.6108
  533MOL0     C70276   1.734   7.581   2.805  0.5424 -0.2002  0.3590
  533MOL0     C70277   1.837   7.667   2.767 -0.5370 -0.6893  0.2853
  533MOL0     C70278   2.085   8.016   2.725 -1.0120  0.2743 -0.3525
  533MOL0     C70279   2.101   8.061   2.592 -0.4287 -0.5868 -0.5340
  533MOL0     C70280   2.213   8.142   2.560  0.3426 -0.5859 -0.5209
  533MOL0     C70281   2.315   8.170   2.657 -0.3286  0.5907  0.0826
  533MOL0     O70282   2.444   8.219   2.638 -0.1319 -0.3062  0.3261
  533MOL0     C70283   2.505   8.193   2.507  0.2043 -0.4368  0.5240
  533MOL0     C70284   2.657   8.234   2.523 -0.7241  1.3476  0.2903
  533MOL0     C70285   2.730   8.229   2.387  0.0833 -0.5014 -0.3143
  533MOL0     C70286   2.697   8.354   2.300 -0.5315 -0.7489 -0.0165
  533MOL0     C70287   2.758   8.484   2.348 -0.7429  0.2251 -0.0020
  533MOL0     C70288   2.839   8.559   2.401 -0.1517  0.1336 -0.7095
  533MOL0     C70289   2.292   8.135   2.797 -0.0215 -0.5219  0.3594
  533MOL0     C70290   2.179   8.054   2.823  0.0618 -0.3822  0.1522
  533MOL0     H70291   1.650   7.909   2.626 -1.4229 -1.9169 -2.4417
  533MOL0     H70292   1.470   7.765   2.693  1.2420  1.6681 -1.6384
  533MOL0     H70293   1.526   7.531   3.004 -2.0838  2.7433 -0.9988
  533MOL0     H70294   1.570   7.390   2.902  1.7888  2.2681 -0.0872
  533MOL0     H70295   1.326   7.336   2.874 -2.1725  2.1659 -0.9459
  533MOL0     H70296   1.280   7.470   2.966 -0.6013 -1.2860 -0.8047
  533MOL0     H70297   1.373   7.382   3.171  1.4323 -1.7415  1.4504
  533MOL0     H70298   1.476   7.260   3.091 -1.1650 -2.9316 -2.5175
  533MOL0     H70299   1.160   7.271   3.092 -0.3168 -0.3072 -0.3671
  533MOL0     H70300   1.246   7.164   2.986 -5.1766 -0.1646  1.1133
  533MOL0     H70301   1.242   7.166   3.280  1.4792  1.4834 -0.8571
  533MOL0     H70302   1.354   7.055   3.195 -0.2934  0.7799  0.9189
  533MOL0     H70303   1.186   6.943   3.068  2.1458  0.9495 -0.0116
  533MOL0     H70304   1.053   7.035   3.147 -1.1609 -2.9192  0.0325
  533MOL0     H70305   1.255   6.862   3.289 -1.1320  0.1114  1.5754
  533MOL0     H70306   1.123   6.943   3.368 -1.3234 -0.8016 -0.7904
  533MOL0     H70307   1.088   6.691   3.334  0.3875 -0.1451 -0.4576
  533MOL0     H70308   1.132   6.712   3.174  3.6865  0.5419  2.5004
  533MOL0     H70309   0.869   6.804   3.430  0.4812  0.0499 -0.0811
  533MOL0     H70310   0.503   6.831   3.272 -0.6339 -1.1765  2.1788
  533MOL0     H70311   0.580   6.905   3.409  2.3412  0.4965  0.1905
  533MOL0     H70312   0.637   6.672   3.497  2.6981 -3.5021 -1.6304
  533MOL0     H70313   0.555   6.609   3.354 -2.3658  0.8534 -0.0744
  533MOL0     H70314   0.439   6.641   3.583  0.8777  0.5054  1.2363
  533MOL0     H70315   0.408   6.810   3.524  1.2454  1.3877 -3.6857
  533MOL0     H70316   0.349   6.553   3.373 -0.7512 -1.8139  1.5684
  533MOL0     H70317   0.295   6.720   3.332  3.2148  1.6199  1.2347
  533MOL0     H70318   0.006   6.580   3.659  1.9711 -2.0296  1.2163
  533MOL0     H70319  -0.190   6.453   3.604 -2.4707  1.3126 -2.4840
  533MOL0     H70320  -0.512   6.386   3.249  2.1150 -1.7455 -0.5028
  533MOL0     H70321  -0.717   6.278   3.191  0.5155  0.3994 -1.3639
  533MOL0     H70322  -0.849   6.081   3.129 -1.3883 -0.1975 -0.3868
  533MOL0     H70323  -0.924   6.208   3.224  1.2957  0.2538  3.0619
  533MOL0     H70324  -1.021   5.921   3.238  0.6303  0.1205  0.2972
  533MOL0     H70325  -1.081   6.028   3.112  0.0460 -1.4199  0.4049
  533MOL0     H70326  -1.166   6.183   3.291  0.4994 -0.1990  0.2240
  533MOL0     H70327  -1.112   6.064   3.406  0.4052 -0.6818  0.4040
  533MOL0     H70328  -1.370   6.046   3.360 -0.0025 -1.5546  0.1239
  533MOL0     H70329  -1.322   6.043   3.186  0.8298  1.8069  0.0349
  533MOL0     H70330  -1.241   5.831   3.365 -1.1923  2.3068  1.0508
  533MOL0     H70331  -1.252   5.832   3.185 -1.2988 -1.2631 -0.7740
  533MOL0     H70332  -1.504   5.900   3.235  1.2874  1.4616 -1.0110
  533MOL0     H70333  -1.467   5.825   3.398  0.1374 -1.8019 -0.6333
  533MOL0     H70334  -1.471   5.704   3.131 -4.5137  3.2488  0.7383
  533MOL0     H70335  -1.388   5.628   3.272 -2.0623 -1.5354  1.5435
  533MOL0     H70336  -1.686   5.677   3.265  0.8023  0.3889  1.0769
  533MOL0     H70337  -1.601   5.625   3.399  0.0398  1.1790 -0.5877
  533MOL0     H70338  -0.722   6.073   3.559 -1.3131 -0.8843 -1.6595
  533MOL0     H70339  -0.499   6.178   3.616  2.2188 -1.9214 -1.8355
  533MOL0     H70340  -0.074   6.450   3.192  0.8830 -1.9512  0.3975
  533MOL0     H70341   0.129   6.579   3.240 -0.6618  2.5196 -0.8429
  533MOL0     H70342   1.760   7.499   2.871  1.3521 -0.7689 -0.6328
  533MOL0     H70343   1.940   7.647   2.796 -0.4239 -0.0185  0.3680
  533MOL0     H70344   2.030   8.046   2.512 -0.0983 -2.5366 -0.5043
  533MOL0     H70345   2.226   8.177   2.458  2.8456  1.7689  0.4895
  533MOL0     H70346   2.461   8.246   2.421  0.2589 -2.5269 -0.8679
  533MOL0     H70347   2.494   8.095   2.460  1.4919  0.3299 -1.5157
  533MOL0     H70348   2.667   8.330   2.574  2.2988 -0.4107  3.4033
  533MOL0     H70349   2.709   8.171   2.595 -0.5695  1.1854  0.0393
  533MOL0     H70350   2.707   8.140   2.327 -2.9294  1.2472 -2.0416
  533MOL0     H70351   2.837   8.228   2.410  0.0970 -3.5409 -0.1963
  533MOL0     H70352   2.738   8.332   2.202  1.6183 -1.7662  1.0360
  533MOL0     H70353   2.589   8.365   2.296 -0.7383 -2.7124 -3.3949
  533MOL0     H70354   2.915   8.621   2.444  0.0030 -1.4418  1.4217
  533MOL0     H70355   2.362   8.173   2.871  0.3812  1.8328 -1.1236
  533MOL0     H70356   2.157   8.046   2.929  0.6970  0.2126  0.3390
  534MOL0     O70357   8.643  11.057   4.019 -0.4961 -1.1635 -0.0753
  534MOL0     C70358   8.636  11.029   4.142 -0.3206 -0.3043 -0.1533
  534MOL0     O70359   8.517  10.980   4.208  0.8393 -0.3359 -0.2516
  534MOL0     C70360   8.398  10.985   4.136 -0.7203  0.3751  0.5869
  534MOL0     C70361   8.354  10.870   4.073 -0.8176  0.4320 -0.4313
  534MOL0     C70362   8.230  10.873   4.008  0.7822  0.4437 -0.4126
  534MOL0     C70363   8.137  10.983   4.027  0.0685 -0.5344 -0.3275
  534MOL0     O70364   8.014  10.977   3.961 -0.6179 -0.0413  0.5783
  534MOL0     C70365   7.951  11.105   3.935 -0.3672  0.2149  0.0119
  534MOL0     C70366   7.845  11.091   3.823 -0.0815  0.0637  0.3579
  534MOL0     C70367   7.727  11.000   3.857 -0.2389  0.2740 -0.4393
  534MOL0     C70368   7.620  11.008   3.740 -0.9725 -0.3950 -0.0065
  534MOL0     C70369   7.518  10.906   3.768 -0.3240  0.2021  0.6634
  534MOL0     C70370   7.462  10.842   3.640  0.3236  1.5036 -0.1179
  534MOL0     C70371   7.569  10.751   3.576  0.6007 -0.3910 -0.0233
  534MOL0     C70372   7.568  10.610   3.633  0.2455  0.3299  0.4827
  534MOL0     N70373   7.495  10.508   3.550  0.6790 -0.3714  0.0407
  534MOL0     C70374   7.526  10.468   3.425  0.0693  0.2248 -1.0051
  534MOL0     C70375   7.413  10.410   3.371 -0.1531 -0.1196  0.4902
  534MOL0     C70376   7.401  10.352   3.239 -0.8224 -0.5415 -0.0968
  534MOL0     C70377   7.421  10.465   3.138 -0.5426 -0.9195 -0.1925
  534MOL0     C70378   7.357  10.438   3.003  0.2520  0.0243 -0.4057
  534MOL0     C70379   7.426  10.324   2.921 -0.4095  0.3429 -0.7147
  534MOL0     O70380   7.374  10.318   2.792  0.1865 -0.0719 -0.4064
  534MOL0     C70381   7.394  10.201   2.725 -0.3960 -0.1631  0.5899
  534MOL0     C70382   7.488  10.101   2.759  0.6774  0.6668 -0.9406
  534MOL0     C70383   7.501   9.984   2.676  0.9674  0.1433  0.2152
  534MOL0     C70384   7.420   9.971   2.558 -0.2929 -0.2300  0.3757
  534MOL0     C70385   7.441   9.851   2.473 -0.7482  0.1026  0.4831
  534MOL0     O70386   7.516   9.745   2.522  0.0383 -0.3600  0.2870
  534MOL0     C70387   7.556   9.650   2.426 -0.2124  1.0912  0.7015
  534MOL0     C70388   7.477   9.584   2.322 -0.1836 -0.5722 -0.2503
  534MOL0     C70389   7.539   9.494   2.236  0.0675  0.4525  0.7849
  534MOL0     C70390   7.679   9.482   2.231  0.3679  0.0509  0.2170
  534MOL0     O70391   7.727   9.407   2.120 -0.0546 -0.0466 -0.4507
  534MOL0     C70392   7.860   9.441   2.087 -0.3190 -0.0355  0.3261
  534MOL0     C70393   7.893   9.363   1.958  0.9149  0.7303  0.4587
  534MOL0     C70394   8.032   9.315   1.953 -0.5236 -1.0064 -0.2179
  534MOL0     C70395   8.063   9.230   1.835 -0.2714 -0.0842 -0.4164
  534MOL0     C70396   8.203   9.172   1.834  0.1237  0.1279 -0.7658
  534MOL0     C70397   8.312   9.284   1.860 -0.9359  0.2976  0.8910
  534MOL0     C70398   8.452   9.223   1.852  0.3653 -0.1557 -0.0768
  534MOL0     C70399   8.548   9.312   1.936  1.0349  0.3437 -0.7846
  534MOL0    Cl70400   8.504   9.492   1.911  0.6416  0.0467 -0.7007
  534MOL0     C70401   7.751   9.547   2.329 -0.4658  0.5410 -0.1193
  534MOL0     C70402   7.694   9.623   2.428 -0.7806 -0.7095 -0.5430
  534MOL0     O70403   7.396   9.859   2.360  0.4161  0.9861  0.4172
  534MOL0     C70404   7.324  10.075   2.524 -0.0204 -0.2793 -0.6151
  534MOL0     C70405   7.321  10.194   2.604 -0.2054  0.3678 -0.4348
  534MOL0     N70406   7.329  10.399   3.476  1.1022  0.4692  0.7286
  534MOL0     N70407   7.382  10.442   3.585 -0.4106  0.1769 -0.1565
  534MOL0     C70408   8.183  11.094   4.102  0.0950 -0.2023 -0.0132
  534MOL0     C70409   8.307  11.098   4.156  1.1879 -0.6410 -0.2302
  534MOL0     C70410   8.762  11.031   4.212  0.5002  0.1579  0.1250
  534MOL0     C70411   8.788  10.949   4.322 -0.2611  0.2973 -0.3543
  534MOL0     C70412   8.912  10.938   4.383 -0.1969 -0.1171  1.4406
  534MOL0     C70413   9.022  11.011   4.319  0.1913  0.0344  0.2134
  534MOL0     O70414   9.148  10.990   4.376  0.2323 -0.5846 -0.1127
  534MOL0     C70415   9.264  11.060   4.326  0.2840 -0.2557  0.0878
  534MOL0     C70416   9.389  11.011   4.413  0.5166  0.0087  0.4549
  534MOL0     C70417   9.507  11.104   4.372  0.8115  1.2225 -0.7373
  534MOL0     C70418   9.622  11.020   4.292 -0.5105 -0.5886  0.7839
  534MOL0     C70419   9.730  11.111   4.249  0.5611  0.0526  0.0223
  534MOL0     C70420   9.820  11.179   4.201 -0.1528  0.6538 -0.3634
  534MOL0     C70421   8.999  11.105   4.211  0.1079  1.2145 -0.0874
  534MOL0     C70422   8.859  11.116   4.166 -1.0470 -1.0283  0.4229
  534MOL0     H70423   8.424  10.788   4.065  0.5010  1.5513 -0.7369
  534MOL0     H70424   8.198  10.790   3.946 -1.7909  0.6189  0.5815
  534MOL0     H70425   8.026  11.175   3.898  0.3579 -0.5648 -0.0488
  534MOL0     H70426   7.904  11.153   4.021  1.2558  2.0310 -0.0661
  534MOL0     H70427   7.898  11.062   3.732  0.9341 -1.2207  1.3179
  534MOL0     H70428   7.814  11.194   3.802  3.0094  1.2235  0.8623
  534MOL0     H70429   7.686  11.024   3.955 -1.3292  3.2757 -1.5197
  534MOL0     H70430   7.761  10.896   3.849 -3.8950 -1.0042 -1.1358
  534MOL0     H70431   7.562  11.101   3.749 -0.4498 -0.1695  1.1195
  534MOL0     H70432   7.666  11.006   3.640 -2.6134 -0.5964 -0.7914
  534MOL0     H70433   7.425  10.942   3.812 -1.3568 -1.5811  0.0657
  534MOL0     H70434   7.550  10.831   3.842  0.6976 -0.4419 -0.3861
  534MOL0     H70435   7.428  10.921   3.573 -1.9989  0.2156 -0.5630
  534MOL0     H70436   7.371  10.785   3.663 -0.8714  3.7903  1.2947
  534MOL0     H70437   7.570  10.756   3.467  2.5840  0.3115 -0.0296
  534MOL0     H70438   7.662  10.799   3.608 -0.5857  2.1856 -0.1821
  534MOL0     H70439   7.520  10.618   3.731  1.8290  2.1853  1.1569
  534MOL0     H70440   7.671  10.577   3.649  0.7624  2.5957  2.3600
  534MOL0     H70441   7.625  10.469   3.379  1.1565 -2.2097  1.0554
  534MOL0     H70442   7.302  10.305   3.245 -0.9111 -0.3510 -0.0796
  534MOL0     H70443   7.483  10.280   3.228 -0.0058  0.6985 -3.1783
  534MOL0     H70444   7.526  10.491   3.122 -1.1599  2.0063 -0.0670
  534MOL0     H70445   7.380  10.557   3.180 -1.7375 -0.6351 -1.8859
  534MOL0     H70446   7.250  10.413   3.003 -0.0715  1.1290 -2.8704
  534MOL0     H70447   7.377  10.523   2.938  1.9500 -1.6750 -2.2472
  534MOL0     H70448   7.411  10.234   2.981 -0.0989  1.6274  1.3967
  534MOL0     H70449   7.534  10.338   2.921 -0.3444 -0.1357 -0.8883
  534MOL0     H70450   7.543  10.111   2.852  0.8211 -0.9639 -0.8150
  534MOL0     H70451   7.566   9.906   2.713  0.5487 -0.2424  0.1452
  534MOL0     H70452   7.369   9.593   2.313 -0.2380 -2.5113 -2.6511
  534MOL0     H70453   7.489   9.445   2.153  1.0145  4.4521 -2.4583
  534MOL0     H70454   7.926   9.409   2.168  1.2492 -2.4930 -1.7839
  534MOL0     H70455   7.882   9.546   2.063  0.1850 -0.5471 -1.5876
  534MOL0     H70456   7.862   9.428   1.876 -3.5882  1.1978  2.2426
  534MOL0     H70457   7.832   9.273   1.945 -1.1024  2.1262 -0.3517
  534MOL0     H70458   8.062   9.263   2.045 -0.5970 -1.0169 -0.1997
  534MOL0     H70459   8.095   9.404   1.940 -0.5187 -0.6285  2.0301
  534MOL0     H70460   7.996   9.144   1.840 -1.2480  0.6896  0.2829
  534MOL0     H70461   8.040   9.287   1.744  1.8254 -0.9398 -1.5367
  534MOL0     H70462   8.212   9.129   1.733  2.2454 -2.5099  0.4098
  534MOL0     H70463   8.220   9.097   1.911  0.9562 -1.0923 -2.0882
  534MOL0     H70464   8.298   9.328   1.960  1.7899  1.5607  0.8203
  534MOL0     H70465   8.301   9.351   1.775 -0.2939 -0.4278  0.2278
  534MOL0     H70466   8.443   9.116   1.873 -1.8190 -0.0163 -0.0480
  534MOL0     H70467   8.483   9.230   1.748 -1.6178 -2.0363 -0.8912
  534MOL0     H70468   8.653   9.298   1.910  1.5792  3.2205 -0.4597
  534MOL0     H70469   8.534   9.271   2.037  0.3562  0.1429 -0.9545
  534MOL0     H70470   7.857   9.522   2.326 -0.2884  0.9354  1.5663
  534MOL0     H70471   7.755   9.674   2.503  1.3753  0.5105 -2.9932
  534MOL0     H70472   7.282  10.088   2.426 -0.3618  3.0947 -0.1324
  534MOL0     H70473   7.261  10.279   2.574 -0.5228  0.5312  0.6307
  534MOL0     H70474   8.134  11.190   4.118  0.5498 -0.0029  0.2112
  534MOL0     H70475   8.344  11.186   4.207  2.5401 -1.3815  0.1083
  534MOL0     H70476   8.705  10.888   4.356 -0.7558 -0.0275 -2.0773
  534MOL0     H70477   8.940  10.869   4.462  2.1912 -1.2086 -0.2379
  534MOL0     H70478   9.242  11.167   4.317 -1.3678 -0.6983 -1.9249
  534MOL0     H70479   9.288  11.036   4.222  0.6756  0.2863  0.0450
  534MOL0     H70480   9.364  11.034   4.517 -0.2496 -0.8084  0.4577
  534MOL0     H70481   9.411  10.908   4.385 -0.8189  0.1161 -1.1301
  534MOL0     H70482   9.544  11.160   4.459 -1.4854 -0.1024  1.2223
  534MOL0     H70483   9.468  11.177   4.301 -0.8940 -0.7117 -1.9090
  534MOL0     H70484   9.675  10.953   4.359  1.7198  1.6988  1.4582
  534MOL0     H70485   9.576  10.964   4.209 -1.7663  3.2081 -1.3376
  534MOL0     H70486   9.880  11.246   4.142  0.6537 -1.5654 -2.2245
  534MOL0     H70487   9.076  11.154   4.153 -0.7728 -0.9093 -3.3276
  534MOL0     H70488   8.843  11.192   4.091 -0.9010 -0.4788  0.9430
  535MOL0     O70489   8.301   3.342   5.428 -0.3016 -0.6850  0.1701
  535MOL0     C70490   8.289   3.462   5.410 -0.2630 -0.0920  1.2454
  535MOL0     O70491   8.195   3.530   5.348 -0.3054 -0.1676  0.5602
  535MOL0     C70492   8.077   3.472   5.308  0.0387  0.4190 -0.3555
  535MOL0     C70493   7.958   3.533   5.352  0.1395 -0.4989  0.5030
  535MOL0     C70494   7.839   3.463   5.317 -0.6342 -0.2221 -0.5481
  535MOL0     C70495   7.835   3.345   5.234 -0.0852 -0.4586 -0.4667
  535MOL0     O70496   7.708   3.291   5.231  1.4140 -0.0729 -0.3602
  535MOL0     C70497   7.628   3.358   5.135  0.6026 -0.6781 -0.7703
  535MOL0     C70498   7.487   3.286   5.124  0.3256 -0.8659  0.2859
  535MOL0     C70499   7.400   3.357   5.024  0.5446  0.2634  0.3123
  535MOL0     C70500   7.253   3.326   5.064 -0.5583 -0.2750  0.0293
  535MOL0     C70501   7.169   3.344   4.941 -0.7530  0.1429 -0.3398
  535MOL0     C70502   7.027   3.309   4.991  0.0608  0.3663  0.0587
  535MOL0     C70503   6.924   3.322   4.877  0.8131  0.6404  0.8670
  535MOL0     C70504   6.791   3.291   4.928  0.2933  0.2839 -0.9931
  535MOL0     N70505   6.691   3.271   4.819 -0.8180  0.4263 -0.2500
  535MOL0     C70506   6.616   3.365   4.748  0.6779 -0.1124  0.6072
  535MOL0     C70507   6.551   3.293   4.656 -0.0440 -1.0365  0.0741
  535MOL0     C70508   6.451   3.353   4.559  0.5039 -0.4320 -0.0082
  535MOL0     C70509   6.305   3.325   4.605 -0.4577 -0.9039  0.0980
  535MOL0     C70510   6.215   3.266   4.500  0.1060 -0.8430 -0.2339
  535MOL0     C70511   6.065   3.281   4.544  0.3007 -0.2249  0.8802
  535MOL0     O70512   6.027   3.416   4.540 -0.4787  0.2433 -0.4041
  535MOL0     C70513   5.889   3.448   4.540  0.2760 -0.2951  0.8852
  535MOL0     C70514   5.792   3.375   4.604  0.4321  0.4333 -0.4891
  535MOL0     C70515   5.660   3.426   4.619  1.9274 -0.0903  0.7887
  535MOL0     C70516   5.619   3.541   4.540  0.0903  0.7623  0.4106
  535MOL0     C70517   5.469   3.559   4.535 -0.9027  0.7552 -0.6066
  535MOL0     O70518   5.382   3.466   4.583  0.2199  0.6465  0.6599
  535MOL0     C70519   5.250   3.494   4.601 -0.3988 -0.2171 -0.1624
  535MOL0     C70520   5.199   3.457   4.723  0.6277  0.0402 -0.8140
  535MOL0     C70521   5.060   3.469   4.747 -0.7880 -0.2587  1.0459
  535MOL0     C70522   4.977   3.532   4.650  0.3509  0.3011 -0.5762
  535MOL0     O70523   4.842   3.547   4.679 -0.3921 -0.3940 -0.4762
  535MOL0     C70524   4.745   3.531   4.576 -0.2375  0.2032  0.2479
  535MOL0     C70525   4.607   3.491   4.634 -0.7634 -0.0888  0.3170
  535MOL0     C70526   4.502   3.460   4.524  0.1770  0.4925  0.4357
  535MOL0     C70527   4.442   3.595   4.474  0.3826  0.0584  0.2788
  535MOL0     C70528   4.366   3.595   4.337 -0.1490  1.6504 -0.9325
  535MOL0     C70529   4.243   3.520   4.338  0.5053 -0.4991 -0.1069
  535MOL0     C70530   4.128   3.579   4.421 -0.2270  0.6331 -0.1801
  535MOL0     C70531   3.992   3.506   4.406  0.7192  0.8987  0.3375
  535MOL0    Cl70532   3.863   3.572   4.515  0.3639 -0.2359 -0.1681
  535MOL0     C70533   5.029   3.561   4.525 -0.3209 -0.0000 -0.0173
  535MOL0     C70534   5.168   3.543   4.500  0.0626 -0.1295  1.1290
  535MOL0     O70535   5.435   3.672   4.501  0.3164 -0.1069  0.3023
  535MOL0     C70536   5.710   3.610   4.467 -0.0338 -1.2107  0.2547
  535MOL0     C70537   5.847   3.566   4.478  0.4128  0.0203 -0.3780
  535MOL0     N70538   6.589   3.167   4.659  0.1484  0.2767 -0.3449
  535MOL0     N70539   6.674   3.150   4.758 -0.2656  0.9092 -0.1224
  535MOL0     C70540   7.955   3.291   5.186 -1.3377 -0.1974 -0.6330
  535MOL0     C70541   8.085   3.344   5.232 -1.2789 -0.8044 -0.2521
  535MOL0     C70542   8.387   3.533   5.487 -0.4258 -0.2660  0.3347
  535MOL0     C70543   8.524   3.491   5.499 -0.3494 -0.3287  1.2014
  535MOL0     C70544   8.610   3.575   5.562 -0.1335  0.8865 -0.2639
  535MOL0     C70545   8.566   3.689   5.628  0.3343 -0.7669  0.2958
  535MOL0     O70546   8.657   3.778   5.680 -0.2623 -0.6445  0.6550
  535MOL0     C70547   8.797   3.753   5.661 -0.2840 -0.0769 -0.3775
  535MOL0     C70548   8.872   3.875   5.704 -0.4104 -0.8614 -0.1460
  535MOL0     C70549   8.814   4.007   5.654 -0.6428  0.1059  0.0742
  535MOL0     C70550   8.707   4.062   5.732  0.2421 -0.4524  0.3219
  535MOL0     C70551   8.691   4.202   5.688  0.1274  0.2332 -0.7653
  535MOL0     C70552   8.665   4.310   5.640 -0.3447 -0.0791 -0.2801
  535MOL0     C70553   8.431   3.729   5.626 -0.2865  0.5490  0.0950
  535MOL0     C70554   8.345   3.652   5.547  0.6458  0.0749 -0.4656
  535MOL0     H70555   7.967   3.628   5.402 -1.2131  1.2698 -2.3587
  535MOL0     H70556   7.748   3.499   5.364 -0.0651 -1.1431  1.3975
  535MOL0     H70557   7.678   3.364   5.038 -1.3730  1.6669 -1.7682
  535MOL0     H70558   7.616   3.463   5.165  1.7177 -1.3831  2.7130
  535MOL0     H70559   7.450   3.298   5.227 -1.2741 -1.2368 -0.2211
  535MOL0     H70560   7.473   3.179   5.106 -3.2810 -0.2651 -1.4634
  535MOL0     H70561   7.418   3.334   4.918 -0.6629  3.4616 -0.7102
  535MOL0     H70562   7.416   3.465   5.032  1.4833  0.3954 -2.3247
  535MOL0     H70563   7.254   3.222   5.099 -0.6791 -0.4778 -0.5636
  535MOL0     H70564   7.218   3.391   5.145  0.6965 -1.5884  1.6968
  535MOL0     H70565   7.205   3.269   4.870  0.3800  0.4380 -0.0987
  535MOL0     H70566   7.183   3.442   4.894  0.5338 -0.3861 -1.1142
  535MOL0     H70567   7.003   3.388   5.064  0.5854 -0.7160  1.4403
  535MOL0     H70568   7.028   3.213   5.042  2.5312 -0.0707 -0.7206
  535MOL0     H70569   6.927   3.424   4.837 -0.8901  1.2869  2.2429
  535MOL0     H70570   6.946   3.250   4.797 -4.4590 -1.0972  0.5938
  535MOL0     H70571   6.772   3.380   4.988  2.0157  1.1452 -1.6586
  535MOL0     H70572   6.792   3.200   4.990 -2.4392  1.1582  0.5082
  535MOL0     H70573   6.581   3.466   4.768  1.9159  0.4412  0.0313
  535MOL0     H70574   6.452   3.314   4.457 -0.2999 -2.4864  0.7351
  535MOL0     H70575   6.453   3.462   4.555 -3.9655 -0.2053 -1.3278
  535MOL0     H70576   6.275   3.426   4.634 -2.2893 -0.7998 -1.9212
  535MOL0     H70577   6.324   3.256   4.688  1.4391  0.3976  0.8173
  535MOL0     H70578   6.230   3.329   4.411  0.9455 -0.2448  0.3248
  535MOL0     H70579   6.238   3.161   4.481 -0.1447 -0.6691 -1.6495
  535MOL0     H70580   6.049   3.258   4.650 -2.3759 -1.8312  0.2065
  535MOL0     H70581   6.010   3.213   4.479  1.0925 -1.1390  1.1496
  535MOL0     H70582   5.807   3.285   4.662 -0.6672  2.2054  2.8683
  535MOL0     H70583   5.583   3.388   4.686  0.0889  1.2352 -0.4662
  535MOL0     H70584   5.262   3.431   4.807 -0.6766  0.4323  0.3163
  535MOL0     H70585   5.016   3.446   4.843 -0.9203  2.4671  1.6990
  535MOL0     H70586   4.774   3.455   4.503 -2.1010  1.6478 -2.1188
  535MOL0     H70587   4.745   3.619   4.512  1.3907  1.6327  2.0803
  535MOL0     H70588   4.578   3.580   4.690  2.5145  1.1945  0.1936
  535MOL0     H70589   4.613   3.401   4.696  0.9765 -0.5469 -0.4238
  535MOL0     H70590   4.419   3.404   4.568  0.5876  0.8969  1.7986
  535MOL0     H70591   4.543   3.396   4.446 -0.2410 -1.7891  1.9695
  535MOL0     H70592   4.378   3.634   4.554  1.1966 -0.3524  1.1574
  535MOL0     H70593   4.528   3.662   4.459 -0.7449  1.3517 -0.6819
  535MOL0     H70594   4.428   3.558   4.254 -0.9599  2.4048 -1.8932
  535MOL0     H70595   4.340   3.695   4.301 -1.0134  1.6549 -0.3161
  535MOL0     H70596   4.264   3.416   4.362 -3.6515 -2.7996 -4.7580
  535MOL0     H70597   4.218   3.507   4.232  1.3451  1.6473 -0.6406
  535MOL0     H70598   4.161   3.580   4.525  4.1823  0.9112 -1.3672
  535MOL0     H70599   4.117   3.685   4.395 -2.2003  0.3287 -0.7816
  535MOL0     H70600   4.000   3.398   4.422 -1.7782  0.7157  0.5909
  535MOL0     H70601   3.971   3.511   4.299  0.5970  1.7884  0.3999
  535MOL0     H70602   4.972   3.600   4.441  0.6795 -2.1146 -1.7735
  535MOL0     H70603   5.217   3.574   4.408  0.6449 -0.5712  1.2860
  535MOL0     H70604   5.679   3.701   4.418  0.5960  0.5409  2.9205
  535MOL0     H70605   5.914   3.630   4.422 -2.1887  1.2226 -2.3315
  535MOL0     H70606   7.955   3.197   5.132  0.5383 -0.3843 -0.3820
  535MOL0     H70607   8.175   3.288   5.211 -0.7385 -0.6655  1.5157
  535MOL0     H70608   8.563   3.396   5.462 -1.1785  0.3610 -1.6624
  535MOL0     H70609   8.712   3.544   5.580 -0.4610  0.1934  0.4554
  535MOL0     H70610   8.808   3.727   5.555  1.8415 -0.1758 -0.1774
  535MOL0     H70611   8.839   3.668   5.714  0.3689  1.0346  0.9534
  535MOL0     H70612   8.882   3.878   5.813  0.3927  1.4364 -0.2267
  535MOL0     H70613   8.971   3.861   5.660  0.0445  0.9638  0.1998
  535MOL0     H70614   8.778   4.002   5.551 -2.9851  1.2944  0.7629
  535MOL0     H70615   8.896   4.078   5.648 -1.9261  1.6007 -0.4217
  535MOL0     H70616   8.612   4.016   5.708 -0.3606  0.2473  1.2797
  535MOL0     H70617   8.736   4.060   5.838 -1.0421  0.9622  0.7314
  535MOL0     H70618   8.637   4.407   5.603  0.7451  0.1329 -0.5687
  535MOL0     H70619   8.387   3.818   5.670 -0.6096 -0.3734  1.6939
  535MOL0     H70620   8.240   3.680   5.541  1.2663  2.9521  0.6912
  536MOL0     O70621   9.663   4.954   3.601 -0.3061 -0.3728  0.2101
  536MOL0     C70622   9.620   4.844   3.559  0.4396  0.9191  0.1306
  536MOL0     O70623   9.492   4.814   3.523 -0.2320 -0.3641 -0.3439
  536MOL0     C70624   9.403   4.920   3.508 -0.0405 -0.2772  0.3622
  536MOL0     C70625   9.394   4.999   3.388  0.2558  0.6889 -0.6346
  536MOL0     C70626   9.283   5.087   3.366 -0.7912  0.4643  0.7467
  536MOL0     C70627   9.181   5.096   3.463 -0.1910  0.3830 -1.0638
  536MOL0     O70628   9.061   5.163   3.435 -0.4343 -1.0243 -0.5442
  536MOL0     C70629   9.081   5.282   3.352 -0.6824 -0.0956 -0.0867
  536MOL0     C70630   8.930   5.316   3.321 -0.2706  0.5981  1.5468
  536MOL0     C70631   8.916   5.451   3.243 -0.6425 -0.0605  0.3342
  536MOL0     C70632   8.951   5.578   3.339  0.6047  0.2917  0.0013
  536MOL0     C70633   8.909   5.715   3.286 -0.7204 -0.2760 -0.0414
  536MOL0     C70634   8.998   5.828   3.349 -0.3902  0.5354  0.2017
  536MOL0     C70635   8.964   5.966   3.305 -0.4372 -0.0694 -0.3495
  536MOL0     C70636   8.906   6.037   3.431  0.4922  0.5348 -0.6170
  536MOL0     N70637   8.803   5.972   3.517 -0.3981  0.0133 -0.3887
  536MOL0     C70638   8.675   5.942   3.483  0.4935  0.1403  0.6064
  536MOL0     C70639   8.603   5.932   3.596 -1.2779  0.7542 -0.4681
  536MOL0     C70640   8.465   5.868   3.612  0.6794 -0.0095 -1.2258
  536MOL0     C70641   8.350   5.971   3.628  1.3041  0.0031  0.1934
  536MOL0     C70642   8.223   5.933   3.702 -0.3051  0.1313  0.7433
  536MOL0     C70643   8.135   5.813   3.646 -0.2262 -0.4273  0.2462
  536MOL0     O70644   8.013   5.802   3.712  0.5619 -0.2786 -0.0531
  536MOL0     C70645   7.935   5.699   3.666  0.5471 -0.7221  0.9611
  536MOL0     C70646   7.799   5.727   3.677  0.9344  0.8273 -0.5552
  536MOL0     C70647   7.706   5.631   3.639  0.3529  0.2045  0.1129
  536MOL0     C70648   7.745   5.511   3.566 -0.8717  0.7953  0.0514
  536MOL0     C70649   7.645   5.433   3.492  0.1122 -0.4450  0.2162
  536MOL0     O70650   7.518   5.456   3.521 -0.1520  0.2680 -0.7152
  536MOL0     C70651   7.412   5.387   3.479 -0.2460  0.8918 -0.3093
  536MOL0     C70652   7.399   5.260   3.419  0.2398 -0.6201 -0.1015
  536MOL0     C70653   7.274   5.224   3.369 -0.4217  0.4950 -0.1290
  536MOL0     C70654   7.156   5.290   3.394  0.3853 -0.2756  0.7337
  536MOL0     O70655   7.044   5.239   3.341  0.3777 -0.8104  0.5361
  536MOL0     C70656   6.987   5.314   3.231  0.0444 -0.5490  0.2934
  536MOL0     C70657   6.846   5.282   3.213  0.1924  0.0480  0.5335
  536MOL0     C70658   6.833   5.134   3.185 -0.0159  0.3120 -0.1150
  536MOL0     C70659   6.687   5.107   3.178  0.3490 -0.1965  0.2148
  536MOL0     C70660   6.653   4.961   3.200  0.7230  0.1230 -0.5294
  536MOL0     C70661   6.505   4.920   3.186 -0.4624  0.8322  0.6356
  536MOL0     C70662   6.482   4.771   3.147  0.4849 -0.5290 -0.7449
  536MOL0     C70663   6.347   4.755   3.097 -0.1674  0.2620  0.1508
  536MOL0    Cl70664   6.335   4.589   3.041 -0.4517  0.3017  0.2943
  536MOL0     C70665   7.165   5.399   3.466 -0.2300 -0.0794  0.0655
  536MOL0     C70666   7.292   5.456   3.503  0.5100 -1.6996  0.1742
  536MOL0     O70667   7.678   5.347   3.414  0.1467  0.2274 -0.2298
  536MOL0     C70668   7.887   5.486   3.558  0.5470  0.4080  0.2075
  536MOL0     C70669   7.975   5.583   3.608  0.1637  0.7517  0.0594
  536MOL0     N70670   8.688   5.954   3.703 -0.2640 -0.0578 -0.2763
  536MOL0     N70671   8.805   5.984   3.651 -0.7013  0.2105 -0.3340
  536MOL0     C70672   9.183   5.019   3.574  0.3132  0.4043  0.2613
  536MOL0     C70673   9.291   4.929   3.594 -0.7947  1.5223  0.5878
  536MOL0     C70674   9.714   4.738   3.540  0.3587  0.8144 -0.1472
  536MOL0     C70675   9.664   4.619   3.488  0.5439  0.3812 -0.2517
  536MOL0     C70676   9.748   4.515   3.467 -0.6030 -0.1497 -0.4251
  536MOL0     C70677   9.882   4.515   3.507  0.3801  0.5656  0.0836
  536MOL0     O70678   9.954   4.394   3.492 -0.8440  1.0103 -0.6292
  536MOL0     C70679  10.086   4.401   3.532  0.8945  0.5915 -0.1588
  536MOL0     C70680  10.132   4.258   3.545 -0.1629 -0.1265 -0.0203
  536MOL0     C70681  10.272   4.262   3.612  0.3852 -0.7067 -0.2919
  536MOL0     C70682  10.348   4.129   3.601  0.5432 -0.4400 -0.3847
  536MOL0     C70683  10.446   4.138   3.706  0.6982  0.6411  0.9944
  536MOL0     C70684  10.527   4.136   3.798 -0.5161  0.0912  0.0918
  536MOL0     C70685   9.928   4.630   3.571 -0.1013 -0.5781 -0.1565
  536MOL0     C70686   9.846   4.741   3.592 -0.9627 -0.6065 -0.6118
  536MOL0     H70687   9.478   4.986   3.320 -1.0195 -0.1718 -2.1315
  536MOL0     H70688   9.282   5.143   3.273  3.2916 -2.1956 -1.2230
  536MOL0     H70689   9.143   5.276   3.262 -0.7601  1.3706 -0.2685
  536MOL0     H70690   9.136   5.353   3.415  2.4633 -1.9000 -0.6116
  536MOL0     H70691   8.871   5.311   3.413  0.1807 -2.7500  1.7799
  536MOL0     H70692   8.896   5.234   3.257  1.4474  1.0998 -0.1002
  536MOL0     H70693   8.819   5.473   3.198  1.0362  3.3348 -2.0474
  536MOL0     H70694   8.981   5.457   3.155 -1.2589  0.4913 -0.0945
  536MOL0     H70695   8.899   5.568   3.434 -1.1634  1.7474 -0.7633
  536MOL0     H70696   9.060   5.587   3.346  0.7018  0.0933 -1.1473
  536MOL0     H70697   8.806   5.733   3.318 -0.9527 -0.7715 -0.5033
  536MOL0     H70698   8.924   5.722   3.178  1.6345 -1.0692  0.1825
  536MOL0     H70699   9.099   5.817   3.309 -1.4519  1.3543 -3.0576
  536MOL0     H70700   8.984   5.810   3.456 -1.4765 -1.4322 -0.2187
  536MOL0     H70701   9.064   6.005   3.286  1.1533 -2.5783  2.1706
  536MOL0     H70702   8.895   5.962   3.221 -1.5928 -2.6173  0.6111
  536MOL0     H70703   8.864   6.133   3.400 -0.4224  0.2680 -0.2287
  536MOL0     H70704   8.995   6.051   3.493  0.9512 -2.6903 -0.3298
  536MOL0     H70705   8.646   5.917   3.381  3.1237  3.9432 -1.3084
  536MOL0     H70706   8.462   5.798   3.696 -1.6475  1.6149  0.1201
  536MOL0     H70707   8.442   5.816   3.518  0.6324 -1.7911 -0.2822
  536MOL0     H70708   8.329   6.018   3.531 -0.6079 -1.3456 -0.1087
  536MOL0     H70709   8.395   6.060   3.673  1.5513  1.0666 -2.0045
  536MOL0     H70710   8.260   5.905   3.801 -0.8517 -1.9486  0.3971
  536MOL0     H70711   8.156   6.019   3.704  0.9969  1.2063  0.2460
  536MOL0     H70712   8.194   5.721   3.652 -0.1245 -0.3718  0.1222
  536MOL0     H70713   8.117   5.829   3.539  3.2101  1.3759 -0.2176
  536MOL0     H70714   7.764   5.819   3.723 -0.9199  0.8776 -1.9258
  536MOL0     H70715   7.600   5.655   3.636  0.6022  1.4967  0.8647
  536MOL0     H70716   7.484   5.194   3.403 -0.7073 -2.3793  1.6976
  536MOL0     H70717   7.272   5.126   3.322  0.6851 -0.1834  1.1703
  536MOL0     H70718   7.040   5.286   3.140  1.7921  0.5443  0.9332
  536MOL0     H70719   6.998   5.423   3.226 -0.4619 -0.5327 -0.5176
  536MOL0     H70720   6.795   5.334   3.132 -2.1183 -3.5048 -0.5492
  536MOL0     H70721   6.791   5.323   3.299  0.5218  2.8318 -0.4773
  536MOL0     H70722   6.875   5.083   3.272 -1.9259 -0.7575  0.2506
  536MOL0     H70723   6.890   5.113   3.094  2.2820 -0.7177  1.4712
  536MOL0     H70724   6.651   5.162   3.266  0.1608  0.7663 -0.4397
  536MOL0     H70725   6.641   5.147   3.087 -1.1390  0.0940  1.0525
  536MOL0     H70726   6.683   4.937   3.303  0.6009 -0.4310 -0.6240
  536MOL0     H70727   6.712   4.900   3.131  2.3851  1.0697 -0.0220
  536MOL0     H70728   6.457   4.980   3.108  1.2462  2.2742  0.6433
  536MOL0     H70729   6.446   4.928   3.278 -2.2050 -0.8223 -0.2452
  536MOL0     H70730   6.536   4.745   3.055 -0.9043  0.3750 -1.8816
  536MOL0     H70731   6.501   4.701   3.228 -0.9970  1.0096  1.0294
  536MOL0     H70732   6.334   4.822   3.012  0.5790  2.5864  1.7657
  536MOL0     H70733   6.281   4.781   3.181  0.8275  1.6098  0.5490
  536MOL0     H70734   7.071   5.450   3.482 -1.0412 -0.6293 -2.3819
  536MOL0     H70735   7.303   5.559   3.534 -0.8799 -1.5452  0.2393
  536MOL0     H70736   7.918   5.389   3.520  0.5574 -0.4828  2.3452
  536MOL0     H70737   8.080   5.561   3.590 -0.4483  0.2452 -3.7306
  536MOL0     H70738   9.101   5.004   3.644 -1.0185 -1.8687 -1.5947
  536MOL0     H70739   9.291   4.843   3.660 -0.4126  0.5828 -0.5969
  536MOL0     H70740   9.565   4.609   3.446  0.1254  0.6271  0.6575
  536MOL0     H70741   9.702   4.422   3.434  0.8738 -0.2929 -2.2229
  536MOL0     H70742  10.097   4.453   3.628 -2.6190  2.6066 -0.6738
  536MOL0     H70743  10.145   4.450   3.455  2.5042 -0.8477  0.0907
  536MOL0     H70744  10.067   4.203   3.613  0.3738 -1.7170 -0.7551
  536MOL0     H70745  10.136   4.222   3.441 -2.2538 -1.9396  0.4541
  536MOL0     H70746  10.245   4.284   3.716  0.9948 -0.1844 -0.2314
  536MOL0     H70747  10.342   4.337   3.573 -0.0625 -1.0043 -1.7068
  536MOL0     H70748  10.276   4.048   3.617 -2.3504  1.8313 -1.1489
  536MOL0     H70749  10.389   4.126   3.500 -1.5735  0.6449 -1.3210
  536MOL0     H70750  10.599   4.114   3.875 -0.9930 -0.4153  0.4050
  536MOL0     H70751  10.031   4.648   3.601  0.7467 -0.9813 -2.6046
  536MOL0     H70752   9.877   4.829   3.647 -1.1067 -0.5826 -0.5672
  537MOL0     O70753   6.973   2.119   8.203 -0.3031 -1.0836  0.1683
  537MOL0     C70754   6.943   2.193   8.107 -0.9951  0.8048 -0.1599
  537MOL0     O70755   6.821   2.199   8.054 -1.1104 -0.1356 -0.2054
  537MOL0     C70756   6.718   2.132   8.107  0.3939 -0.0306 -0.2888
  537MOL0     C70757   6.724   1.987   8.128  0.5819  0.3352 -0.2395
  537MOL0     C70758   6.618   1.923   8.191  0.7641 -1.1076  0.1766
  537MOL0     C70759   6.499   1.992   8.221 -0.1460 -1.0531 -0.2163
  537MOL0     O70760   6.377   1.940   8.260 -0.5929  0.0972  0.4285
  537MOL0     C70761   6.337   1.965   8.393 -0.2624  0.5325  0.2294
  537MOL0     C70762   6.197   1.911   8.420 -0.3537  0.2064  0.0323
  537MOL0     C70763   6.100   1.976   8.320  0.3834  0.2003 -1.1238
  537MOL0     C70764   5.964   1.920   8.350 -0.2468 -0.2545  0.6597
  537MOL0     C70765   5.874   1.972   8.240  0.0070 -0.2066  0.4833
  537MOL0     C70766   5.742   1.898   8.237  0.5641  0.9655 -0.2132
  537MOL0     C70767   5.653   1.936   8.119  0.3637 -0.0227  0.4607
  537MOL0     C70768   5.523   1.838   8.128 -0.6061  1.1515  0.0050
  537MOL0     N70769   5.485   1.785   8.000 -0.6651 -0.6083  0.0283
  537MOL0     C70770   5.575   1.716   7.913  0.7679 -0.8770 -0.3749
  537MOL0     C70771   5.511   1.703   7.787 -0.3986 -0.8202 -0.7682
  537MOL0     C70772   5.585   1.651   7.662 -0.5512  0.1788 -0.3019
  537MOL0     C70773   5.497   1.597   7.556 -0.5906  0.1166  0.7389
  537MOL0     C70774   5.416   1.475   7.584 -1.0966  0.2318  0.4077
  537MOL0     C70775   5.495   1.361   7.666 -0.1575 -0.4025 -0.1042
  537MOL0     O70776   5.437   1.232   7.649 -0.2951 -0.3195  0.2903
  537MOL0     C70777   5.457   1.166   7.527  0.1735 -0.2507  0.1777
  537MOL0     C70778   5.496   1.223   7.409 -0.5752  0.2637  0.9538
  537MOL0     C70779   5.518   1.146   7.295 -0.3099  0.2841  0.1219
  537MOL0     C70780   5.499   1.012   7.293  0.6302  0.6175 -0.4014
  537MOL0     C70781   5.506   0.940   7.175 -0.3745  1.8640 -0.0004
  537MOL0     O70782   5.535   1.007   7.054 -0.2441  0.3039  0.2407
  537MOL0     C70783   5.519   0.946   6.933 -0.9220  0.8354  0.0116
  537MOL0     C70784   5.388   0.901   6.896  0.1274 -0.0364 -0.2876
  537MOL0     C70785   5.371   0.828   6.777  0.7926  0.2367 -0.2528
  537MOL0     C70786   5.478   0.802   6.699 -0.3712  0.4838  0.0731
  537MOL0     O70787   5.470   0.714   6.595  0.2782 -0.5335  0.2320
  537MOL0     C70788   5.353   0.709   6.510  0.1776  0.0896  0.1074
  537MOL0     C70789   5.360   0.799   6.380  1.1983  0.0237  0.0496
  537MOL0     C70790   5.510   0.794   6.320  0.1906 -0.3905  0.5271
  537MOL0     C70791   5.512   0.902   6.211  0.0099 -0.5425 -0.5925
  537MOL0     C70792   5.630   0.888   6.131 -0.0004 -0.8893  0.1959
  537MOL0     C70793   5.757   0.914   6.215  0.1479 -0.1453 -0.5340
  537MOL0     C70794   5.890   0.881   6.132  0.4540 -0.1764 -0.4739
  537MOL0     C70795   6.009   0.950   6.195 -0.4958 -0.0182  0.0888
  537MOL0    Cl70796   6.039   0.891   6.352 -0.1649  0.7757  0.8453
  537MOL0     C70797   5.612   0.857   6.731  0.7925  0.6584  0.5755
  537MOL0     C70798   5.637   0.924   6.856  0.5764  0.0649  0.5412
  537MOL0     O70799   5.492   0.817   7.186  0.3761  0.9930  0.7838
  537MOL0     C70800   5.459   0.955   7.412 -0.5082  0.2454 -0.9168
  537MOL0     C70801   5.431   1.030   7.526 -0.2909 -0.3138 -0.1300
  537MOL0     N70802   5.395   1.768   7.798  0.1643  0.0888  0.5065
  537MOL0     N70803   5.378   1.814   7.918  0.0350  0.5695 -0.3326
  537MOL0     C70804   6.498   2.136   8.205  0.1096 -0.6473 -0.1565
  537MOL0     C70805   6.603   2.201   8.140 -0.5886 -0.0544  0.4123
  537MOL0     C70806   7.050   2.262   8.046 -0.2488 -0.3649  0.6128
  537MOL0     C70807   7.184   2.260   8.099 -0.3333 -0.2116  0.2737
  537MOL0     C70808   7.290   2.338   8.044  0.4449  0.1925 -0.3626
  537MOL0     C70809   7.262   2.421   7.936  0.1527 -0.4173  0.0808
  537MOL0     O70810   7.361   2.496   7.896  0.3178 -0.1164  0.7005
  537MOL0     C70811   7.412   2.469   7.762 -0.1347  0.5282  0.0110
  537MOL0     C70812   7.460   2.333   7.712 -0.1586  0.6589 -0.0582
  537MOL0     C70813   7.579   2.291   7.805  0.0338  1.1921 -0.5419
  537MOL0     C70814   7.706   2.374   7.818  0.3031 -0.1838  1.1493
  537MOL0     C70815   7.757   2.418   7.688 -0.9120  0.1239 -0.6773
  537MOL0     C70816   7.796   2.457   7.580 -0.1113  0.0451 -0.4592
  537MOL0     C70817   7.130   2.425   7.887 -0.4992 -0.1450  0.3038
  537MOL0     C70818   7.022   2.343   7.936 -0.4871 -0.5785  0.9170
  537MOL0     H70819   6.803   1.920   8.094 -3.4694 -2.9394 -4.5166
  537MOL0     H70820   6.627   1.818   8.216  1.7098 -1.4259 -1.4180
  537MOL0     H70821   6.347   2.072   8.415  1.7446  0.4996 -0.3909
  537MOL0     H70822   6.411   1.920   8.460 -0.1147  2.7026  1.6114
  537MOL0     H70823   6.162   1.943   8.519 -2.6123 -0.2306 -0.5641
  537MOL0     H70824   6.192   1.802   8.418 -1.2499  0.1791  1.5989
  537MOL0     H70825   6.127   1.954   8.216  0.0215 -0.8731 -1.0060
  537MOL0     H70826   6.097   2.084   8.335  0.9809  0.0993 -0.1370
  537MOL0     H70827   5.961   1.811   8.345  2.4749 -0.3841  0.4943
  537MOL0     H70828   5.936   1.956   8.450 -3.1801 -0.6614  0.0899
  537MOL0     H70829   5.923   1.966   8.142 -2.0318 -0.4603 -0.5935
  537MOL0     H70830   5.854   2.079   8.248 -0.8833 -0.2091 -1.1052
  537MOL0     H70831   5.696   1.920   8.334  0.5152 -0.8511  0.2029
  537MOL0     H70832   5.757   1.790   8.242  1.4657  1.0716 -0.4861
  537MOL0     H70833   5.633   2.043   8.123  2.9141  0.5443 -0.2079
  537MOL0     H70834   5.708   1.912   8.028 -0.5191 -0.5156  0.0503
  537MOL0     H70835   5.440   1.900   8.165 -1.8255  1.5024 -3.0275
  537MOL0     H70836   5.535   1.763   8.206 -0.0342 -0.2684 -1.4004
  537MOL0     H70837   5.668   1.668   7.938  1.3523 -0.2187 -1.2346
  537MOL0     H70838   5.665   1.579   7.681 -0.2746  0.9475  1.6817
  537MOL0     H70839   5.631   1.743   7.626 -0.6138  0.0669 -0.6705
  537MOL0     H70840   5.564   1.575   7.472  0.3225 -0.5156  1.5996
  537MOL0     H70841   5.431   1.679   7.527 -3.8248 -2.0842  1.3430
  537MOL0     H70842   5.334   1.508   7.649 -0.7877  3.9750 -0.8580
  537MOL0     H70843   5.371   1.428   7.496 -0.2243  0.1295  0.0076
  537MOL0     H70844   5.502   1.381   7.774  0.4627 -0.0260 -0.2126
  537MOL0     H70845   5.601   1.350   7.645  0.4620  1.0452  1.9350
  537MOL0     H70846   5.527   1.326   7.395  2.9233 -0.6396  1.2110
  537MOL0     H70847   5.553   1.188   7.201  2.7049 -1.5081  0.3362
  537MOL0     H70848   5.307   0.920   6.965  1.9177 -3.9000  3.3841
  537MOL0     H70849   5.270   0.793   6.759  0.4344  1.4665 -0.7907
  537MOL0     H70850   5.266   0.751   6.562 -0.6937 -0.9257 -0.4822
  537MOL0     H70851   5.342   0.608   6.470  1.6279 -0.2999  0.6476
  537MOL0     H70852   5.340   0.905   6.399  2.5614  0.5168 -1.0425
  537MOL0     H70853   5.284   0.767   6.309  1.1112 -1.6138  0.8531
  537MOL0     H70854   5.535   0.696   6.278  1.4742 -0.0051  0.3502
  537MOL0     H70855   5.575   0.822   6.403 -1.0539  0.7945  1.1460
  537MOL0     H70856   5.430   0.874   6.143  1.1605 -1.6769 -1.5558
  537MOL0     H70857   5.492   1.001   6.253 -1.9167  0.1047 -2.7741
  537MOL0     H70858   5.620   0.971   6.061 -0.4986  2.4925  3.9093
  537MOL0     H70859   5.633   0.796   6.072  2.6510  1.1220 -3.1778
  537MOL0     H70860   5.755   0.836   6.292  0.3650  1.3186  1.0095
  537MOL0     H70861   5.754   1.012   6.263 -1.8513  0.4309 -1.7363
  537MOL0     H70862   5.911   0.773   6.137  1.7937  0.0837 -0.1240
  537MOL0     H70863   5.882   0.906   6.026  0.2562  0.0884 -0.3979
  537MOL0     H70864   5.997   1.058   6.185  0.8006  0.0323 -1.3206
  537MOL0     H70865   6.092   0.925   6.128  2.5185  1.4669  2.9772
  537MOL0     H70866   5.694   0.815   6.673  2.4793  2.2757  1.6927
  537MOL0     H70867   5.734   0.954   6.893 -0.5344 -0.2832  4.0724
  537MOL0     H70868   5.430   0.851   7.407 -0.4749  0.2747 -1.8482
  537MOL0     H70869   5.386   0.977   7.609 -4.0368  1.2102 -0.9808
  537MOL0     H70870   6.419   2.200   8.243 -0.2019 -1.7900  1.1733
  537MOL0     H70871   6.609   2.308   8.124  0.3307  0.0848  1.5428
  537MOL0     H70872   7.209   2.195   8.182 -0.1318  1.2266  1.3728
  537MOL0     H70873   7.384   2.319   8.095 -0.0682 -1.1229  0.1426
  537MOL0     H70874   7.502   2.529   7.747  1.0558 -1.7184 -2.7446
  537MOL0     H70875   7.327   2.502   7.701 -1.5043 -2.6665  0.0119
  537MOL0     H70876   7.383   2.255   7.714 -0.0081  0.5116  0.0756
  537MOL0     H70877   7.500   2.328   7.611  1.1826 -3.8376  0.4396
  537MOL0     H70878   7.616   2.193   7.775 -0.7320  0.7361 -0.0214
  537MOL0     H70879   7.535   2.278   7.905  1.3536 -0.4745 -0.1243
  537MOL0     H70880   7.688   2.463   7.877 -0.7351 -0.4785  1.2902
  537MOL0     H70881   7.780   2.305   7.860  0.4016 -2.2396 -1.9851
  537MOL0     H70882   7.824   2.502   7.487 -2.1329 -0.1077 -1.2014
  537MOL0     H70883   7.123   2.488   7.799 -0.3368 -1.1136 -0.4123
  537MOL0     H70884   6.922   2.351   7.895  0.8164  0.4714 -2.4314
  538MOL0     O70885  10.884   2.017   3.140 -0.0212 -0.3184  0.2300
  538MOL0     C70886  10.903   2.008   3.010 -0.0357  0.0932 -0.6758
  538MOL0     O70887  10.806   1.993   2.917  0.5911 -0.0255  0.4449
  538MOL0     C70888  10.671   2.012   2.942 -0.6381 -0.1405 -0.4027
  538MOL0     C70889  10.592   1.902   2.933 -0.1310  1.0765 -0.5074
  538MOL0     C70890  10.451   1.912   2.932 -0.6847 -0.0921 -0.5797
  538MOL0     C70891  10.391   2.031   2.972 -0.5136  0.3033  0.5380
  538MOL0     O70892  10.255   2.025   2.979 -0.0595  0.7780  0.3104
  538MOL0     C70893  10.176   2.139   2.942 -0.1023  0.0892  0.5784
  538MOL0     C70894  10.048   2.095   2.885 -0.3791  0.5583 -0.3486
  538MOL0     C70895   9.963   2.039   3.010 -0.8289  0.0318 -0.0232
  538MOL0     C70896   9.849   1.943   2.974 -0.6721 -0.1319  0.8509
  538MOL0     C70897   9.716   1.964   3.048 -0.1924 -1.3085 -0.0620
  538MOL0     C70898   9.707   1.958   3.199 -0.6908 -0.4427 -0.1816
  538MOL0     C70899   9.567   1.969   3.267 -1.1317  0.2014  0.4077
  538MOL0     C70900   9.484   2.097   3.272  0.4170 -1.5615 -0.5273
  538MOL0     N70901   9.353   2.081   3.336 -0.2866  0.0436  0.2379
  538MOL0     C70902   9.324   2.006   3.450  0.2202 -1.0167 -0.5105
  538MOL0     C70903   9.198   1.976   3.444  0.4548 -1.3153 -0.0168
  538MOL0     C70904   9.108   1.897   3.542 -0.4881  0.0718  0.7177
  538MOL0     C70905   9.187   1.826   3.653  0.9277 -0.9298  0.2679
  538MOL0     C70906   9.205   1.675   3.627 -0.2511 -0.0627  0.1550
  538MOL0     C70907   9.362   1.657   3.591  0.7815 -1.2248 -1.0598
  538MOL0     O70908   9.436   1.664   3.714 -0.1221 -0.0836 -0.0624
  538MOL0     C70909   9.574   1.685   3.703 -0.0561 -0.9936 -0.3994
  538MOL0     C70910   9.642   1.682   3.578 -0.1341  0.5103  0.2047
  538MOL0     C70911   9.781   1.718   3.576 -0.0529  0.2493 -0.4634
  538MOL0     C70912   9.847   1.762   3.701  0.6751  0.0942  0.8467
  538MOL0     C70913   9.981   1.822   3.698 -0.4039  0.8960  0.3188
  538MOL0     O70914  10.051   1.799   3.586 -0.2800  0.7944 -1.2539
  538MOL0     C70915  10.172   1.861   3.574 -0.6488  0.8267 -0.2345
  538MOL0     C70916  10.275   1.801   3.641  0.3947 -0.7131  0.1723
  538MOL0     C70917  10.402   1.855   3.624 -0.1467 -0.4377 -0.1115
  538MOL0     C70918  10.420   1.982   3.557  0.6585  0.0581  0.0639
  538MOL0     O70919  10.546   2.015   3.540  0.1133  1.1476 -0.9589
  538MOL0     C70920  10.580   2.126   3.465  0.7854  0.0969 -0.0236
  538MOL0     C70921  10.721   2.123   3.447 -0.5604 -0.2178 -0.2631
  538MOL0     C70922  10.783   2.141   3.587  0.1110 -0.1907 -0.4580
  538MOL0     C70923  10.927   2.197   3.582  0.2741 -0.7600  0.5007
  538MOL0     C70924  11.012   2.200   3.712 -0.3583  0.0680  0.5912
  538MOL0     C70925  11.150   2.253   3.664  0.5411  0.0761  0.1854
  538MOL0     C70926  11.268   2.232   3.756 -0.2333 -0.5872  0.2403
  538MOL0     C70927  11.256   2.310   3.886 -0.7177  0.0313 -0.0394
  538MOL0    Cl70928  11.301   2.476   3.856 -0.1812 -0.2702 -0.0736
  538MOL0     C70929  10.304   2.037   3.497 -0.5053  0.1236 -0.2258
  538MOL0     C70930  10.177   1.975   3.506 -0.0894  0.5231 -0.3918
  538MOL0     O70931  10.026   1.869   3.800 -0.1289  0.7479  0.2027
  538MOL0     C70932   9.777   1.756   3.824 -0.0006 -0.6908 -0.2083
  538MOL0     C70933   9.643   1.721   3.819 -0.0849 -0.2642  0.2625
  538MOL0     N70934   9.142   2.031   3.332  0.0764  0.3366 -0.0602
  538MOL0     N70935   9.236   2.094   3.268 -1.3563 -0.1716 -0.7289
  538MOL0     C70936  10.472   2.140   3.005  0.2261  0.8341  0.4341
  538MOL0     C70937  10.604   2.138   2.975 -1.1510  0.6729 -0.1004
  538MOL0     C70938  11.044   1.989   2.986  0.5206 -0.2057 -1.2198
  538MOL0     C70939  11.096   1.981   2.856  0.7573  1.2005 -0.1477
  538MOL0     C70940  11.228   1.991   2.830  0.4996 -0.8485 -0.8181
  538MOL0     C70941  11.320   2.003   2.933 -0.4017  0.9669  0.1227
  538MOL0     O70942  11.453   2.021   2.919  0.0729 -0.3353  0.7135
  538MOL0     C70943  11.516   2.021   2.794  0.5126  0.3674  0.0833
  538MOL0     C70944  11.662   2.048   2.828 -0.1805  0.5813 -1.0980
  538MOL0     C70945  11.758   2.001   2.714  0.1687 -0.0760  0.0995
  538MOL0     C70946  11.737   2.057   2.569  0.3346  0.5824  0.1145
  538MOL0     C70947  11.741   2.201   2.563 -0.3650  0.6880  1.5973
  538MOL0     C70948  11.754   2.320   2.525 -0.7637 -1.1474 -0.8231
  538MOL0     C70949  11.278   1.996   3.068 -0.0903  1.4572 -0.8278
  538MOL0     C70950  11.143   1.986   3.097  0.0879  0.2111  0.7777
  538MOL0     H70951  10.650   1.812   2.910 -0.3514  1.0190 -0.8468
  538MOL0     H70952  10.388   1.823   2.935 -0.3174 -0.3419 -0.0200
  538MOL0     H70953  10.237   2.191   2.868 -2.4904  1.5879 -0.4381
  538MOL0     H70954  10.163   2.207   3.026 -0.6491  1.5297 -0.6255
  538MOL0     H70955  10.067   2.025   2.804 -4.2238  3.1037 -3.8249
  538MOL0     H70956  10.003   2.187   2.846 -1.8181  0.1125  0.2026
  538MOL0     H70957   9.929   2.133   3.052 -0.5644  1.7410 -3.2827
  538MOL0     H70958  10.036   1.987   3.073  0.5884 -0.3738 -1.8975
  538MOL0     H70959   9.836   1.964   2.867  1.7154 -2.6717 -0.0435
  538MOL0     H70960   9.877   1.838   2.976  0.3840  0.0505  5.1694
  538MOL0     H70961   9.658   1.880   3.008  0.1505 -1.0542 -1.1193
  538MOL0     H70962   9.668   2.058   3.020  0.0359 -0.8514  1.0577
  538MOL0     H70963   9.764   2.034   3.254 -2.4440  0.8404 -0.0378
  538MOL0     H70964   9.741   1.858   3.226 -0.6192 -0.8445 -1.7270
  538MOL0     H70965   9.508   1.900   3.206 -0.5162  0.2394 -0.2364
  538MOL0     H70966   9.577   1.924   3.366 -1.8059  1.2356  0.9668
  538MOL0     H70967   9.476   2.149   3.177  2.0191  0.4611  0.3708
  538MOL0     H70968   9.543   2.165   3.335  2.4767 -0.9294 -2.9703
  538MOL0     H70969   9.398   1.978   3.525  0.9204  0.5677 -0.5605
  538MOL0     H70970   9.052   1.817   3.492  0.4884 -0.2796  0.1587
  538MOL0     H70971   9.040   1.970   3.587  0.5198  1.3029  0.3102
  538MOL0     H70972   9.123   1.824   3.742  1.9495  1.9962  1.1824
  538MOL0     H70973   9.282   1.876   3.676  2.0536 -2.3848 -0.9837
  538MOL0     H70974   9.188   1.614   3.716  0.6121 -2.0585 -0.9650
  538MOL0     H70975   9.142   1.629   3.550 -0.9737  0.9107  0.1495
  538MOL0     H70976   9.382   1.744   3.527  3.0433 -1.2570 -0.4948
  538MOL0     H70977   9.381   1.564   3.538 -0.4011 -1.1635 -1.6145
  538MOL0     H70978   9.598   1.660   3.482  1.7096  2.5554 -1.1902
  538MOL0     H70979   9.834   1.722   3.481  0.9304 -1.6202 -0.0507
  538MOL0     H70980  10.246   1.716   3.702  1.5534 -1.6817 -0.5702
  538MOL0     H70981  10.485   1.805   3.672  0.2593 -0.9876 -1.3229
  538MOL0     H70982  10.542   2.224   3.496 -1.3020 -0.3989 -0.8064
  538MOL0     H70983  10.530   2.111   3.368  3.4921  5.0604 -2.5978
  538MOL0     H70984  10.757   2.204   3.383 -1.4459 -1.3774 -2.3108
  538MOL0     H70985  10.739   2.024   3.404  0.9089 -0.0032 -0.2167
  538MOL0     H70986  10.784   2.045   3.640  1.2705 -0.1690 -0.4194
  538MOL0     H70987  10.721   2.216   3.638 -2.2646 -3.0745  1.2213
  538MOL0     H70988  10.975   2.127   3.514  2.1311  0.6546  0.2904
  538MOL0     H70989  10.929   2.292   3.528 -2.8044 -1.0896 -0.3900
  538MOL0     H70990  11.018   2.094   3.738 -1.6399 -1.1692 -3.4509
  538MOL0     H70991  10.965   2.268   3.784 -2.0413  0.0420 -0.4386
  538MOL0     H70992  11.146   2.361   3.645 -2.6463  0.1834  0.9692
  538MOL0     H70993  11.160   2.202   3.568 -4.8354 -2.7627  0.7912
  538MOL0     H70994  11.300   2.128   3.769  1.7296 -0.3581 -1.9719
  538MOL0     H70995  11.361   2.273   3.717 -0.3343  0.4687  1.0787
  538MOL0     H70996  11.323   2.270   3.963 -1.0768 -2.5689 -0.9627
  538MOL0     H70997  11.159   2.311   3.935 -1.0909  0.8254 -0.7812
  538MOL0     H70998  10.317   2.126   3.436  0.4947  3.1860  3.9511
  538MOL0     H70999  10.097   2.011   3.441 -1.9289 -3.5883 -0.6707
  538MOL0     H71000   9.817   1.785   3.920 -0.5036 -1.1294  0.1422
  538MOL0     H71001   9.595   1.729   3.916 -1.5562 -2.5230 -0.2170
  538MOL0     H71002  10.432   2.231   3.050 -1.5325  0.7305 -0.8014
  538MOL0     H71003  10.660   2.230   2.983  1.5377 -0.8281 -0.4407
  538MOL0     H71004  11.025   1.971   2.775 -2.2217  0.2809  2.3603
  538MOL0     H71005  11.253   1.987   2.724 -2.4745 -0.2211 -1.6499
  538MOL0     H71006  11.468   2.102   2.738  0.2592 -0.6590 -1.2312
  538MOL0     H71007  11.504   1.927   2.740  2.2491  1.2490 -2.0169
  538MOL0     H71008  11.667   2.154   2.854 -2.8698  0.2869  1.1480
  538MOL0     H71009  11.695   1.995   2.918 -0.0647 -0.4727 -1.7477
  538MOL0     H71010  11.744   1.892   2.713 -1.3673  0.0992 -0.2990
  538MOL0     H71011  11.863   2.010   2.744 -0.1309 -1.1730  1.5981
  538MOL0     H71012  11.819   2.011   2.513 -0.7057 -1.3327  0.0805
  538MOL0     H71013  11.642   2.018   2.530  1.7744  0.3089 -3.5159
  538MOL0     H71014  11.761   2.425   2.506  1.9385 -0.2456  3.6502
  538MOL0     H71015  11.351   2.006   3.148 -0.4825  1.4624 -0.4661
  538MOL0     H71016  11.127   1.992   3.205 -2.9252 -0.2963  0.4345
  539MOL0     O71017   2.564   7.268   9.248 -1.0933 -0.0934 -0.2321
  539MOL0     C71018   2.521   7.262   9.363 -0.3573 -0.4111 -0.1350
  539MOL0     O71019   2.597   7.228   9.477 -0.4793  0.2383  0.4280
  539MOL0     C71020   2.728   7.188   9.471 -0.6577 -0.7168 -0.2745
  539MOL0     C71021   2.835   7.255   9.405  0.3482  0.5130  0.5049
  539MOL0     C71022   2.962   7.217   9.426 -0.2208 -0.3207  0.6156
  539MOL0     C71023   2.995   7.105   9.511  0.1685  0.3456 -0.4334
  539MOL0     O71024   3.123   7.058   9.519 -0.3670  0.3411 -0.4624
  539MOL0     C71025   3.230   7.152   9.542 -0.8684 -0.5515 -0.2777
  539MOL0     C71026   3.196   7.254   9.657 -0.6531 -0.4212  0.0637
  539MOL0     C71027   3.326   7.320   9.713 -0.7044  0.7119 -0.7589
  539MOL0     C71028   3.422   7.223   9.795 -0.4831 -0.0287 -0.3293
  539MOL0     C71029   3.557   7.290   9.795 -0.8287 -0.0616  0.6286
  539MOL0     C71030   3.654   7.213   9.887  0.2805  0.6268 -0.9908
  539MOL0     C71031   3.801   7.214   9.851 -0.0998 -0.2530 -1.0292
  539MOL0     C71032   3.841   7.116   9.732 -0.5452 -0.4940 -0.8042
  539MOL0     N71033   3.842   6.977   9.782  0.2376  0.3194  1.5173
  539MOL0     C71034   3.742   6.887   9.767  0.6708  0.0909 -0.6095
  539MOL0     C71035   3.795   6.774   9.813 -0.8649  0.5381 -0.1567
  539MOL0     C71036   3.715   6.645   9.812 -0.7072  0.3563  0.1701
  539MOL0     C71037   3.793   6.530   9.742  0.1138  0.4375 -0.3646
  539MOL0     C71038   3.836   6.568   9.602  0.2689  0.6206  0.6488
  539MOL0     C71039   3.742   6.618   9.484  0.0987 -0.3665 -0.1406
  539MOL0     O71040   3.606   6.631   9.518 -0.7422  0.8814 -0.3272
  539MOL0     C71041   3.516   6.644   9.418 -0.0972 -0.2878 -0.8025
  539MOL0     C71042   3.535   6.698   9.293 -0.9086  0.2666  0.6772
  539MOL0     C71043   3.426   6.747   9.217  0.2041 -0.2660  0.3783
  539MOL0     C71044   3.289   6.725   9.268 -1.2730  0.5144  1.2412
  539MOL0     C71045   3.166   6.765   9.195  0.6887 -0.2379 -0.3020
  539MOL0     O71046   3.068   6.799   9.279 -0.0717 -0.3322 -0.1875
  539MOL0     C71047   2.946   6.820   9.232 -0.3970  0.1604  0.1578
  539MOL0     C71048   2.877   6.722   9.164  0.3124  0.4874 -0.5952
  539MOL0     C71049   2.749   6.734   9.111 -0.4943 -0.6459  0.1440
  539MOL0     C71050   2.689   6.857   9.122  1.6916 -0.5105 -0.8757
  539MOL0     O71051   2.557   6.866   9.082  0.5615 -0.0532  0.2711
  539MOL0     C71052   2.474   6.974   9.125  0.2081 -0.9701  0.1291
  539MOL0     C71053   2.321   6.962   9.106 -0.3252  0.4571 -0.9308
  539MOL0     C71054   2.267   6.820   9.081  1.4735  1.1701 -0.1225
  539MOL0     C71055   2.108   6.830   9.076 -0.5551  0.1872 -0.1421
  539MOL0     C71056   2.035   6.699   9.054  1.1821 -0.3415 -0.7627
  539MOL0     C71057   1.881   6.722   9.056  0.0124 -0.7202  0.3789
  539MOL0     C71058   1.780   6.605   9.029  0.0736  1.1626 -0.1051
  539MOL0     C71059   1.757   6.506   9.151  0.3418 -0.1043 -0.3038
  539MOL0    Cl71060   1.618   6.401   9.129  0.0064 -0.4571 -0.1223
  539MOL0     C71061   2.751   6.966   9.178 -0.6493 -0.0987 -0.7252
  539MOL0     C71062   2.879   6.952   9.233 -1.0392  0.7345  0.5629
  539MOL0     O71063   3.163   6.770   9.078 -0.4452  0.3103 -0.1759
  539MOL0     C71064   3.277   6.670   9.394 -0.1631 -0.5170  0.0176
  539MOL0     C71065   3.393   6.634   9.476  0.2573 -0.9070 -0.5875
  539MOL0     N71066   3.922   6.791   9.867  0.9261 -0.1064 -0.1242
  539MOL0     N71067   3.943   6.911   9.837  0.7729  0.4263  1.1203
  539MOL0     C71068   2.888   7.037   9.567  0.1504  0.0689 -0.9394
  539MOL0     C71069   2.762   7.081   9.552 -0.3323  0.1207 -1.0454
  539MOL0     C71070   2.374   7.269   9.382 -1.1789 -0.5247  0.5507
  539MOL0     C71071   2.327   7.266   9.512 -0.6725  0.0507 -0.2452
  539MOL0     C71072   2.188   7.256   9.527  0.6765 -0.1688 -0.3399
  539MOL0     C71073   2.096   7.267   9.424 -0.3149 -0.2415 -0.1107
  539MOL0     O71074   1.966   7.269   9.446 -0.8606 -0.1660 -0.1353
  539MOL0     C71075   1.859   7.262   9.343 -0.6789  0.3395 -0.1823
  539MOL0     C71076   1.722   7.288   9.405 -0.2178  0.1679 -0.1391
  539MOL0     C71077   1.623   7.328   9.298 -0.0443 -0.5139 -0.2149
  539MOL0     C71078   1.584   7.220   9.194 -0.7518  0.7299  0.1993
  539MOL0     C71079   1.684   7.235   9.086  0.0388  0.6804  0.5915
  539MOL0     C71080   1.758   7.233   8.989 -1.4927  0.2636 -0.5844
  539MOL0     C71081   2.148   7.269   9.294 -0.2115 -0.4322 -0.8214
  539MOL0     C71082   2.281   7.265   9.275  0.1615 -0.3749  1.3630
  539MOL0     H71083   2.812   7.346   9.350  1.0592 -0.9288 -2.3736
  539MOL0     H71084   3.043   7.280   9.389 -0.8555  0.4633  0.5264
  539MOL0     H71085   3.249   7.205   9.448 -2.7309  0.1801 -0.2831
  539MOL0     H71086   3.310   7.084   9.572 -2.6372 -1.9547  1.5131
  539MOL0     H71087   3.160   7.208   9.750  0.8393  1.2295  1.5508
  539MOL0     H71088   3.127   7.331   9.621 -2.1168 -0.0498  3.2757
  539MOL0     H71089   3.297   7.394   9.787  0.6469 -0.0695  0.6029
  539MOL0     H71090   3.381   7.366   9.630 -1.8864 -0.7279 -2.4143
  539MOL0     H71091   3.393   7.217   9.900  2.0522 -2.7243  0.3643
  539MOL0     H71092   3.423   7.122   9.753  0.2215  0.4227 -1.4539
  539MOL0     H71093   3.569   7.397   9.812  2.2068  0.2518 -2.2485
  539MOL0     H71094   3.591   7.288   9.690  0.1818  1.6780  0.8791
  539MOL0     H71095   3.628   7.107   9.894  2.1544  0.2286  0.9060
  539MOL0     H71096   3.638   7.254   9.988 -1.2173  0.7399 -1.2406
  539MOL0     H71097   3.832   7.318   9.837  0.7828 -0.3983 -0.2864
  539MOL0     H71098   3.863   7.185   9.936  0.3580 -1.0601 -1.6261
  539MOL0     H71099   3.945   7.138   9.706  0.9792 -0.7344  4.1206
  539MOL0     H71100   3.771   7.131   9.649 -2.4245 -1.2800  0.5692
  539MOL0     H71101   3.642   6.911   9.732 -0.5405 -0.1715  2.3571
  539MOL0     H71102   3.616   6.659   9.769 -0.9213  1.5414  0.9888
  539MOL0     H71103   3.703   6.627   9.919  0.8439 -2.4180 -0.0227
  539MOL0     H71104   3.733   6.439   9.743 -1.9140  1.6407 -2.3156
  539MOL0     H71105   3.888   6.519   9.794 -1.6426 -1.7937  2.6927
  539MOL0     H71106   3.903   6.653   9.618  0.2061  0.7932  0.0479
  539MOL0     H71107   3.905   6.495   9.558 -0.7337 -0.0418  0.1540
  539MOL0     H71108   3.740   6.535   9.412  0.4457 -0.4973 -0.0012
  539MOL0     H71109   3.787   6.709   9.442  1.9919 -1.0339  0.3161
  539MOL0     H71110   3.630   6.698   9.239 -1.6402 -1.7289 -0.7410
  539MOL0     H71111   3.443   6.789   9.118  1.5413 -0.4630  0.5116
  539MOL0     H71112   2.925   6.625   9.156  1.9697  1.2872 -0.7084
  539MOL0     H71113   2.699   6.650   9.064 -0.5379  0.6974 -2.3739
  539MOL0     H71114   2.506   7.064   9.071 -0.4787 -1.0437 -0.4073
  539MOL0     H71115   2.497   7.001   9.229  2.6952  3.4215 -1.3026
  539MOL0     H71116   2.291   7.041   9.037  1.6730  0.6961 -1.5613
  539MOL0     H71117   2.277   7.004   9.197  3.2855  2.3223  0.1623
  539MOL0     H71118   2.299   6.763   9.169 -1.6764  1.3102  1.2207
  539MOL0     H71119   2.306   6.771   8.991 -1.1622 -3.2921  0.8764
  539MOL0     H71120   2.073   6.872   9.171  0.5272  2.0617 -0.5187
  539MOL0     H71121   2.073   6.903   9.002 -2.5218  0.6572  1.1733
  539MOL0     H71122   2.055   6.624   9.131 -2.1254 -0.3124  0.2593
  539MOL0     H71123   2.048   6.653   8.956 -1.9397 -1.6017 -0.6832
  539MOL0     H71124   1.868   6.801   8.982 -0.4904 -1.7149 -0.6291
  539MOL0     H71125   1.852   6.768   9.150 -0.7089 -2.4509  1.0444
  539MOL0     H71126   1.683   6.644   8.998 -2.8128 -3.2307  2.2653
  539MOL0     H71127   1.811   6.534   8.951  0.7682  1.6233 -0.2505
  539MOL0     H71128   1.737   6.556   9.246  1.2707  2.0194 -1.1627
  539MOL0     H71129   1.851   6.451   9.159  1.2559  1.5209  0.7751
  539MOL0     H71130   2.707   7.064   9.190  0.5181  0.4141 -0.4774
  539MOL0     H71131   2.938   7.032   9.276  3.8758 -2.9395  1.5555
  539MOL0     H71132   3.177   6.660   9.436 -0.6603  1.5822 -0.5154
  539MOL0     H71133   3.390   6.587   9.574 -0.7119 -0.0562 -0.1904
  539MOL0     H71134   2.911   6.950   9.628  2.5161  0.2428 -1.4861
  539MOL0     H71135   2.681   7.037   9.610  0.5692 -0.2095 -0.0041
  539MOL0     H71136   2.380   7.265   9.606 -0.6719  0.6673 -0.2390
  539MOL0     H71137   2.155   7.254   9.630  0.6702  4.3827 -0.0641
  539MOL0     H71138   1.854   7.164   9.295 -1.9754  0.1196  0.3703
  539MOL0     H71139   1.892   7.333   9.267  1.3740  0.0623  0.3904
  539MOL0     H71140   1.681   7.207   9.467  1.4678 -1.4182 -0.9924
  539MOL0     H71141   1.724   7.377   9.468 -4.3186  3.1605 -3.5888
  539MOL0     H71142   1.645   7.425   9.253  0.5054 -0.4104  0.2680
  539MOL0     H71143   1.534   7.344   9.361  0.7423 -1.0738  1.0841
  539MOL0     H71144   1.582   7.119   9.235  0.5917  0.9480  0.8741
  539MOL0     H71145   1.483   7.234   9.155 -1.4209 -1.7216  0.9140
  539MOL0     H71146   1.813   7.243   8.897 -0.4844  1.4329  0.1152
  539MOL0     H71147   2.093   7.262   9.200  1.9728  0.4858 -2.2455
  539MOL0     H71148   2.313   7.293   9.175 -1.5572 -0.2791  0.8151
  540MOL0     O71149   2.107   8.347   9.044 -0.1935 -0.0048  1.1793
  540MOL0     C71150   2.054   8.236   9.023  0.8468 -0.0744 -1.4020
  540MOL0     O71151   1.933   8.217   8.973 -0.2525 -0.1807  0.2770
  540MOL0     C71152   1.848   8.323   8.938  0.3487  0.2355 -0.4658
  540MOL0     C71153   1.850   8.460   8.982 -0.0109 -0.0878 -0.7243
  540MOL0     C71154   1.756   8.546   8.939 -0.5987 -0.3632 -0.7492
  540MOL0     C71155   1.663   8.515   8.838  1.0362  0.5060  0.4247
  540MOL0     O71156   1.583   8.606   8.786  0.6873  0.1022  0.7070
  540MOL0     C71157   1.608   8.637   8.650  0.0871 -0.7440 -0.4695
  540MOL0     C71158   1.553   8.776   8.611  0.7137  0.3683  0.2313
  540MOL0     C71159   1.608   8.829   8.477  0.3258  0.5540 -0.3679
  540MOL0     C71160   1.548   8.963   8.429 -0.1755 -0.0356  0.5646
  540MOL0     C71161   1.397   8.966   8.422  0.0242  0.4129  0.4252
  540MOL0     C71162   1.337   8.853   8.333 -0.0781 -0.2761  0.5270
  540MOL0     C71163   1.221   8.896   8.250  0.3004  0.5088  0.3373
  540MOL0     C71164   1.199   8.782   8.145 -0.0741  0.1366  0.2533
  540MOL0     N71165   1.089   8.818   8.057  0.2442  0.0335  0.2114
  540MOL0     C71166   0.974   8.745   8.051  0.2109 -0.0583 -0.8940
  540MOL0     C71167   0.887   8.822   7.971  0.0428  1.7156 -0.2890
  540MOL0     C71168   0.745   8.787   7.954  0.5583  0.6501 -0.5744
  540MOL0     C71169   0.680   8.826   7.824 -0.1657 -0.2540  0.3886
  540MOL0     C71170   0.529   8.793   7.840 -0.3380  0.3804 -0.1371
  540MOL0     C71171   0.457   8.788   7.708 -0.0352  0.1239  0.9542
  540MOL0     O71172   0.444   8.913   7.634 -0.5165 -0.0442  0.5354
  540MOL0     C71173   0.344   8.925   7.541 -0.7065 -0.4326  0.8493
  540MOL0     C71174   0.256   8.829   7.501  0.3744  0.6107  0.5058
  540MOL0     C71175   0.157   8.851   7.407 -0.5633 -0.4958  1.4045
  540MOL0     C71176   0.148   8.969   7.344 -0.2059  0.0754 -0.0783
  540MOL0     C71177   0.056   8.989   7.232 -0.2740  0.1688  0.2845
  540MOL0     O71178  -0.010   9.104   7.226  0.1939  0.1519  0.3871
  540MOL0     C71179  -0.091   9.148   7.128  0.3719  1.3393 -0.2457
  540MOL0     C71180  -0.141   9.276   7.151 -0.3765  0.8656 -1.2592
  540MOL0     C71181  -0.208   9.343   7.053  0.4374 -0.6106 -0.5440
  540MOL0     C71182  -0.231   9.287   6.924  0.5203 -0.6310  0.4064
  540MOL0     O71183  -0.306   9.358   6.833  0.5927  0.5142  0.1248
  540MOL0     C71184  -0.345   9.307   6.711  0.1024 -0.5660  0.6859
  540MOL0     C71185  -0.464   9.223   6.725  0.5562 -0.4666 -0.2552
  540MOL0     C71186  -0.537   9.217   6.589  0.7086  0.6409  0.1411
  540MOL0     C71187  -0.694   9.194   6.617  0.8731  0.4668  0.4670
  540MOL0     C71188  -0.760   9.188   6.487 -0.3494  0.0369  0.6973
  540MOL0     C71189  -0.792   9.325   6.416 -0.7847  0.0818 -0.1667
  540MOL0     C71190  -0.926   9.408   6.460  0.4588 -0.3119  1.6388
  540MOL0     C71191  -0.953   9.537   6.360 -0.4335  0.3772 -0.4195
  540MOL0    Cl71192  -1.127   9.541   6.318 -0.2668 -0.1464 -0.0655
  540MOL0     C71193  -0.188   9.155   6.906 -0.5783 -0.2081 -0.1067
  540MOL0     C71194  -0.119   9.092   7.006 -0.8973  1.5020 -0.5451
  540MOL0     O71195   0.034   8.893   7.154 -0.7035 -0.0422  0.4271
  540MOL0     C71196   0.234   9.075   7.377 -0.3191  0.4682  0.3993
  540MOL0     C71197   0.337   9.052   7.472 -1.1670  1.2536  0.9486
  540MOL0     N71198   0.967   8.918   7.921 -0.0553 -0.2633  0.1497
  540MOL0     N71199   1.080   8.917   7.960 -0.6656  0.1635  0.0510
  540MOL0     C71200   1.677   8.387   8.783 -0.9870 -1.6191  0.3230
  540MOL0     C71201   1.755   8.288   8.843 -0.4203 -0.3932  0.3183
  540MOL0     C71202   2.126   8.120   9.069 -0.6001  0.3361  0.4082
  540MOL0     C71203   2.256   8.131   9.118 -0.6001 -0.0610  0.2780
  540MOL0     C71204   2.334   8.015   9.155 -0.4682 -0.1850  0.0840
  540MOL0     C71205   2.287   7.891   9.139 -1.2418  0.7430 -0.1155
  540MOL0     O71206   2.377   7.787   9.178  0.2234 -0.7789  0.2158
  540MOL0     C71207   2.314   7.668   9.229 -0.7630  0.2475 -0.1665
  540MOL0     C71208   2.291   7.673   9.384  0.4480 -0.9392  0.8387
  540MOL0     C71209   2.421   7.687   9.470  0.2640  0.7669  0.6969
  540MOL0     C71210   2.464   7.567   9.558  0.4331 -0.3365  0.1303
  540MOL0     C71211   2.574   7.594   9.645  0.3103  0.1503  0.1063
  540MOL0     C71212   2.675   7.614   9.712 -0.5423 -0.0248  0.2296
  540MOL0     C71213   2.160   7.870   9.096  0.4419 -0.3568 -0.6734
  540MOL0     C71214   2.083   7.988   9.060  0.2787  0.0340 -0.9491
  540MOL0     H71215   1.908   8.488   9.070  1.5111 -0.8444 -1.4441
  540MOL0     H71216   1.765   8.648   8.975 -1.5466 -0.9703  1.4122
  540MOL0     H71217   1.552   8.574   8.581 -1.5698  1.0895 -0.8984
  540MOL0     H71218   1.711   8.625   8.616 -0.4437 -2.8514 -1.4699
  540MOL0     H71219   1.565   8.848   8.692  1.2390 -0.6302  1.0656
  540MOL0     H71220   1.444   8.765   8.604  0.8320 -1.9498  1.2745
  540MOL0     H71221   1.599   8.749   8.403 -1.1543 -2.8052  3.0643
  540MOL0     H71222   1.716   8.847   8.484  0.2797  0.9609 -0.7118
  540MOL0     H71223   1.587   9.039   8.497 -0.0779 -1.1340  1.7904
  540MOL0     H71224   1.590   8.982   8.330  0.7607 -3.2712  0.2101
  540MOL0     H71225   1.367   9.063   8.382  0.9497  0.2441 -0.7219
  540MOL0     H71226   1.353   8.961   8.522  1.7051 -0.1660  1.1707
  540MOL0     H71227   1.303   8.770   8.395 -0.8877  0.9077  1.7195
  540MOL0     H71228   1.413   8.807   8.269 -0.3253  0.2890 -0.1923
  540MOL0     H71229   1.134   8.930   8.308  0.1967 -1.2260  1.2637
  540MOL0     H71230   1.256   8.981   8.190 -0.7881  1.3127  0.8015
  540MOL0     H71231   1.176   8.686   8.192  3.4469 -0.7775  0.3674
  540MOL0     H71232   1.279   8.748   8.079 -1.6687 -0.6643 -1.3855
  540MOL0     H71233   0.952   8.660   8.116  0.1989 -0.7496 -1.7842
  540MOL0     H71234   0.686   8.821   8.039 -2.1032 -0.8676 -1.6884
  540MOL0     H71235   0.728   8.680   7.959 -1.6284  1.0296  1.5188
  540MOL0     H71236   0.717   8.763   7.742 -1.3625  0.8427 -1.0527
  540MOL0     H71237   0.705   8.926   7.786 -2.8425 -0.3892 -2.0423
  540MOL0     H71238   0.515   8.691   7.876 -0.5058  1.2868  2.6315
  540MOL0     H71239   0.469   8.850   7.911 -3.1439 -2.7533  0.2309
  540MOL0     H71240   0.356   8.753   7.731 -0.7846  2.2823  1.1263
  540MOL0     H71241   0.526   8.716   7.661 -0.6308 -0.8541  1.5391
  540MOL0     H71242   0.271   8.729   7.540 -2.9006 -0.5475 -0.8274
  540MOL0     H71243   0.095   8.765   7.385 -0.0825 -0.3251 -0.7541
  540MOL0     H71244  -0.128   9.322   7.249  0.4705  1.7404 -1.7659
  540MOL0     H71245  -0.258   9.437   7.072  2.3116  0.8679 -2.5112
  540MOL0     H71246  -0.263   9.253   6.664 -0.9107 -1.1398 -0.4914
  540MOL0     H71247  -0.371   9.392   6.646  0.8531 -0.5127  0.4426
  540MOL0     H71248  -0.531   9.268   6.799 -0.0317 -2.2524  0.3384
  540MOL0     H71249  -0.428   9.128   6.764  0.5377 -0.5722 -0.4945
  540MOL0     H71250  -0.486   9.139   6.531  2.9171  1.1491  1.2997
  540MOL0     H71251  -0.522   9.309   6.530  1.9059  1.6366  1.9043
  540MOL0     H71252  -0.704   9.096   6.665 -3.1519 -0.4730 -1.8453
  540MOL0     H71253  -0.725   9.280   6.678 -0.6939 -1.6559  2.8757
  540MOL0     H71254  -0.855   9.139   6.512  0.3813 -0.5892  2.3853
  540MOL0     H71255  -0.712   9.129   6.409 -2.5698 -0.3564 -0.4787
  540MOL0     H71256  -0.787   9.300   6.310  3.5024 -5.2685  0.8205
  540MOL0     H71257  -0.708   9.391   6.441 -0.6377 -0.4830  0.8832
  540MOL0     H71258  -1.014   9.349   6.433  0.5009  0.8895 -1.4804
  540MOL0     H71259  -0.940   9.421   6.568  1.0608 -2.9153  2.0956
  540MOL0     H71260  -0.895   9.529   6.268  0.9224  1.7249  0.2622
  540MOL0     H71261  -0.931   9.633   6.409  1.1032 -0.9798  1.7515
  540MOL0     H71262  -0.204   9.103   6.811  1.4188 -2.7660  0.8506
  540MOL0     H71263  -0.086   8.991   6.986 -0.8655  1.0350  1.6350
  540MOL0     H71264   0.229   9.170   7.323 -2.9697 -0.7540 -1.7398
  540MOL0     H71265   0.414   9.126   7.488 -0.8137  0.8345  1.2242
  540MOL0     H71266   1.614   8.356   8.701  1.7227 -3.2403 -1.3226
  540MOL0     H71267   1.741   8.183   8.820 -0.3987 -0.4302  0.4786
  540MOL0     H71268   2.298   8.226   9.150  0.9465 -0.6733  0.1874
  540MOL0     H71269   2.427   8.040   9.206 -0.5951 -0.5054  0.4735
  540MOL0     H71270   2.386   7.591   9.200 -1.0649  0.0710 -0.4565
  540MOL0     H71271   2.229   7.639   9.167  1.1154  0.5618 -3.1021
  540MOL0     H71272   2.228   7.763   9.393  1.7069  0.4864 -2.6772
  540MOL0     H71273   2.224   7.591   9.409  0.7584 -0.4716  3.5046
  540MOL0     H71274   2.414   7.776   9.533  0.7510 -0.6501  2.8662
  540MOL0     H71275   2.505   7.702   9.401 -0.1937 -0.7659 -0.2566
  540MOL0     H71276   2.376   7.541   9.619  0.8481 -0.3019  0.7574
  540MOL0     H71277   2.492   7.482   9.496 -0.7077 -0.8640  0.3155
  540MOL0     H71278   2.767   7.638   9.760  1.0756 -1.8736 -1.7553
  540MOL0     H71279   2.105   7.777   9.088 -1.0985  0.6214 -2.6234
  540MOL0     H71280   1.981   7.971   9.025  0.2708 -1.2337 -0.3846
  541MOL0     O71281   3.327   8.179   3.489  0.5771  0.2660 -0.0888
  541MOL0     C71282   3.368   8.179   3.372  0.0381  1.7314 -0.6958
  541MOL0     O71283   3.299   8.125   3.267  0.3389  0.0452  0.3549
  541MOL0     C71284   3.172   8.075   3.295  0.4026  0.5225  0.1894
  541MOL0     C71285   3.149   7.944   3.353  0.1496  0.5146 -0.1307
  541MOL0     C71286   3.019   7.905   3.381  0.2935  0.8469 -0.0953
  541MOL0     C71287   2.912   8.000   3.352  0.3943  0.3517  0.6049
  541MOL0     O71288   2.772   7.973   3.346 -0.3535  0.0319 -0.6250
  541MOL0     C71289   2.719   7.856   3.415 -0.2598 -0.3307  0.6430
  541MOL0     C71290   2.566   7.869   3.426 -0.9141  0.8466 -0.5729
  541MOL0     C71291   2.519   7.747   3.492  1.0052 -0.8160 -0.0579
  541MOL0     C71292   2.362   7.778   3.518  0.0257  0.0822 -0.4574
  541MOL0     C71293   2.296   7.645   3.566  0.8105  0.4208  0.3067
  541MOL0     C71294   2.154   7.657   3.615  0.2413  0.3174 -0.0059
  541MOL0     C71295   2.057   7.740   3.523 -0.4200  0.2093  0.4072
  541MOL0     C71296   1.906   7.724   3.570 -0.6565  0.1158 -0.0514
  541MOL0     N71297   1.864   7.806   3.677 -0.2737  0.3011 -0.7281
  541MOL0     C71298   1.905   7.943   3.684  0.1701  0.5765  0.1931
  541MOL0     C71299   1.861   7.983   3.798 -0.0212  0.1016  0.3647
  541MOL0     C71300   1.865   8.121   3.861  0.6675 -0.4347  0.4348
  541MOL0     C71301   1.855   8.234   3.760 -0.2296  0.8349 -0.0150
  541MOL0     C71302   1.899   8.362   3.811  0.3562 -0.7759  0.3062
  541MOL0     C71303   2.040   8.363   3.877 -0.0693 -1.1733 -0.3423
  541MOL0     O71304   2.134   8.332   3.784  0.9663 -0.4256  0.5185
  541MOL0     C71305   2.251   8.280   3.832 -0.8995 -0.2347 -0.0298
  541MOL0     C71306   2.319   8.339   3.936  0.5662  0.0158 -0.2190
  541MOL0     C71307   2.454   8.328   3.967  0.1157  0.3483  0.7243
  541MOL0     C71308   2.539   8.252   3.887 -0.7845  0.2316  0.7388
  541MOL0     C71309   2.679   8.226   3.905 -0.4324 -0.0803 -0.7280
  541MOL0     O71310   2.733   8.116   3.834 -0.4013 -1.2603 -0.7613
  541MOL0     C71311   2.870   8.102   3.843 -0.1787  0.4004  0.3201
  541MOL0     C71312   2.942   8.076   3.955  0.9519  0.1417 -0.6210
  541MOL0     C71313   3.079   8.092   3.955  0.6761  0.7602  0.0576
  541MOL0     C71314   3.148   8.104   3.830  0.7685 -0.0896 -0.6515
  541MOL0     O71315   3.283   8.121   3.819  0.5127  0.1369 -0.0257
  541MOL0     C71316   3.327   8.255   3.807 -0.5960  0.0624  0.3177
  541MOL0     C71317   3.478   8.281   3.805 -0.1903  0.5061  0.0270
  541MOL0     C71318   3.546   8.231   3.931 -0.1721 -0.5418  0.0922
  541MOL0     C71319   3.535   8.327   4.054 -0.1566  0.1013  0.1706
  541MOL0     C71320   3.511   8.251   4.186  0.6594  0.6537 -0.2456
  541MOL0     C71321   3.432   8.313   4.295  0.0739 -0.4500  0.5125
  541MOL0     C71322   3.292   8.369   4.258  0.2163  0.7163  0.4647
  541MOL0     C71323   3.233   8.435   4.380  0.1847  0.4766 -0.3917
  541MOL0    Cl71324   3.068   8.458   4.338 -0.0380 -0.1753  0.2123
  541MOL0     C71325   3.075   8.106   3.717 -0.0325  0.5973 -0.0744
  541MOL0     C71326   2.939   8.113   3.718 -0.3177  0.4400 -0.7549
  541MOL0     O71327   2.730   8.306   3.985 -0.1113  0.5065 -0.3696
  541MOL0     C71328   2.475   8.184   3.778 -0.6002 -0.5662 -0.1645
  541MOL0     C71329   2.337   8.204   3.750 -0.0392  0.3114 -0.4936
  541MOL0     N71330   1.788   7.882   3.859  1.0432  0.3421 -0.3551
  541MOL0     N71331   1.783   7.771   3.785 -0.5028 -0.5157  0.1762
  541MOL0     C71332   2.934   8.118   3.295 -0.1165 -0.6968 -0.1371
  541MOL0     C71333   3.066   8.160   3.282 -0.2432  0.1561 -0.3416
  541MOL0     C71334   3.508   8.225   3.350 -0.3770 -0.4832 -0.3517
  541MOL0     C71335   3.586   8.173   3.250  0.1929  0.5141 -0.8641
  541MOL0     C71336   3.719   8.202   3.238  1.1313  0.2096 -0.3163
  541MOL0     C71337   3.785   8.281   3.333 -0.3752  0.8202  0.5646
  541MOL0     O71338   3.911   8.322   3.302 -0.2558  0.1677  0.4139
  541MOL0     C71339   3.970   8.419   3.392 -0.1571  0.0870  0.3434
  541MOL0     C71340   3.919   8.562   3.368  0.1678  0.2702  0.2198
  541MOL0     C71341   4.014   8.670   3.423 -0.2987  0.3117  0.4780
  541MOL0     C71342   3.948   8.806   3.400  0.4989  0.6499  0.2349
  541MOL0     C71343   4.052   8.913   3.420  0.4641 -0.1579 -0.7976
  541MOL0     C71344   4.137   8.999   3.435  0.2014 -0.4026  0.1835
  541MOL0     C71345   3.711   8.327   3.443  0.0433 -0.7478  0.2815
  541MOL0     C71346   3.575   8.303   3.447  1.2636 -0.4335  0.4196
  541MOL0     H71347   3.231   7.882   3.386 -0.3907 -0.9079 -1.3595
  541MOL0     H71348   2.999   7.808   3.425  0.3633  0.0260 -1.7920
  541MOL0     H71349   2.764   7.853   3.515 -1.0521  3.9090  1.2937
  541MOL0     H71350   2.758   7.770   3.359  1.4999 -1.5414  3.4401
  541MOL0     H71351   2.510   7.884   3.333  0.7964  0.0511 -1.7950
  541MOL0     H71352   2.545   7.959   3.483 -0.4435  0.3887  0.3408
  541MOL0     H71353   2.585   7.717   3.574  3.0550 -1.1500 -1.7408
  541MOL0     H71354   2.523   7.668   3.416 -1.2315  0.1617 -1.2807
  541MOL0     H71355   2.366   7.844   3.605  4.6063 -0.1007 -0.3213
  541MOL0     H71356   2.315   7.816   3.426 -1.5806 -1.6641 -0.4388
  541MOL0     H71357   2.358   7.601   3.645  2.1563 -2.4719 -2.1283
  541MOL0     H71358   2.304   7.567   3.488 -1.2752 -0.5291  0.9653
  541MOL0     H71359   2.159   7.720   3.704  3.3320 -0.8238  0.7582
  541MOL0     H71360   2.111   7.563   3.649  0.2058  0.8635  1.5132
  541MOL0     H71361   2.090   7.843   3.514  0.0227 -0.0162 -0.8181
  541MOL0     H71362   2.068   7.696   3.423 -1.1177  0.6161  0.1456
  541MOL0     H71363   1.870   7.624   3.592 -2.4167  0.3274 -1.7123
  541MOL0     H71364   1.844   7.755   3.485  0.7005 -1.1024 -1.5475
  541MOL0     H71365   1.963   8.010   3.621  2.8466 -0.8426  0.9956
  541MOL0     H71366   1.962   8.130   3.911  0.6415  2.2244  0.1270
  541MOL0     H71367   1.786   8.137   3.935  1.6019  2.0549  0.9925
  541MOL0     H71368   1.758   8.232   3.710 -0.3581 -0.2308  0.2383
  541MOL0     H71369   1.922   8.216   3.676 -1.8047 -0.1686 -1.1115
  541MOL0     H71370   1.902   8.432   3.727  3.5873 -2.8392 -1.5116
  541MOL0     H71371   1.833   8.399   3.889 -1.1106 -1.7664 -0.4031
  541MOL0     H71372   2.051   8.308   3.970  0.1975  3.8396  3.0099
  541MOL0     H71373   2.051   8.469   3.901 -0.6876 -0.3226 -3.2954
  541MOL0     H71374   2.262   8.397   4.008 -1.7516 -1.9134 -0.3515
  541MOL0     H71375   2.499   8.376   4.053  2.0511  0.1459 -0.1266
  541MOL0     H71376   2.897   8.061   4.052  1.2562 -1.1100 -0.6634
  541MOL0     H71377   3.139   8.086   4.045 -1.0629  1.7479  1.3596
  541MOL0     H71378   3.288   8.320   3.886  0.0846 -0.8491  1.4518
  541MOL0     H71379   3.292   8.289   3.709  2.0931  1.5120 -0.2489
  541MOL0     H71380   3.494   8.387   3.786 -2.1178  0.7004 -0.7268
  541MOL0     H71381   3.526   8.232   3.719  0.2694 -2.7331  1.9386
  541MOL0     H71382   3.651   8.244   3.902 -0.9885  1.7389 -2.1622
  541MOL0     H71383   3.510   8.128   3.941 -2.5363  0.2057 -0.0462
  541MOL0     H71384   3.625   8.388   4.064 -0.3911  0.3360  0.8898
  541MOL0     H71385   3.464   8.408   4.035 -0.6643 -0.6613 -1.3963
  541MOL0     H71386   3.608   8.210   4.215 -0.7686 -1.5921  1.7145
  541MOL0     H71387   3.452   8.159   4.179 -1.4087  1.8125  0.9845
  541MOL0     H71388   3.491   8.396   4.334  0.6096 -0.7911  0.4325
  541MOL0     H71389   3.416   8.248   4.382  2.5828 -1.4367  0.3068
  541MOL0     H71390   3.296   8.440   4.175  1.6645  2.8598  2.2471
  541MOL0     H71391   3.235   8.279   4.232  0.7012 -0.1876  2.3424
  541MOL0     H71392   3.290   8.523   4.411  1.1452 -0.2121 -0.1502
  541MOL0     H71393   3.225   8.379   4.474 -1.1394 -0.3907 -0.9956
  541MOL0     H71394   3.131   8.108   3.624 -0.0045  0.7270 -0.0544
  541MOL0     H71395   2.877   8.124   3.630  0.2637 -5.5306 -2.3665
  541MOL0     H71396   2.531   8.129   3.702  0.2800 -2.5594  1.7898
  541MOL0     H71397   2.302   8.155   3.660 -1.2478 -1.9627  1.1371
  541MOL0     H71398   2.847   8.177   3.268 -0.3393 -0.6477  0.6498
  541MOL0     H71399   3.085   8.250   3.225 -3.3851  1.3672  0.3220
  541MOL0     H71400   3.523   8.104   3.193 -1.5804  0.5144  0.9864
  541MOL0     H71401   3.785   8.170   3.158  2.9384  4.8801 -1.0443
  541MOL0     H71402   4.078   8.426   3.375 -0.1462  1.1585  0.7681
  541MOL0     H71403   3.954   8.387   3.495 -2.0658 -0.9694 -0.2285
  541MOL0     H71404   3.895   8.577   3.262 -2.3283 -0.2569  0.6544
  541MOL0     H71405   3.824   8.564   3.423 -0.0783  2.8327 -0.1902
  541MOL0     H71406   4.114   8.665   3.378  0.6837 -0.6158  2.5863
  541MOL0     H71407   4.036   8.660   3.530  3.3737 -1.4273 -0.2691
  541MOL0     H71408   3.907   8.815   3.299  0.4383  2.3716  0.3804
  541MOL0     H71409   3.863   8.825   3.466 -0.3951  0.3445 -0.7913
  541MOL0     H71410   4.213   9.073   3.446  1.1966 -1.5520  1.3342
  541MOL0     H71411   3.744   8.386   3.528 -2.0456 -1.3583  1.5957
  541MOL0     H71412   3.522   8.349   3.530  0.1204 -1.9098  0.5601
  542MOL0     O71413   2.296   9.560   7.310  0.0915 -0.2684 -1.1204
  542MOL0     C71414   2.266   9.551   7.430 -0.1754  0.6545  0.4485
  542MOL0     O71415   2.145   9.538   7.477  0.2346 -0.0738 -0.7310
  542MOL0     C71416   2.027   9.553   7.403  0.4175 -0.2716 -0.0203
  542MOL0     C71417   1.923   9.466   7.440  0.6603 -0.0115  0.2303
  542MOL0     C71418   1.800   9.467   7.367  0.5698 -0.8681 -0.9475
  542MOL0     C71419   1.777   9.560   7.266  0.8608 -0.0812  0.1551
  542MOL0     O71420   1.656   9.572   7.205 -0.4544 -0.0439  0.6846
  542MOL0     C71421   1.598   9.706   7.199 -0.5646 -0.7243 -0.1791
  542MOL0     C71422   1.454   9.693   7.166  0.1755 -0.5711  1.1379
  542MOL0     C71423   1.371   9.818   7.210 -0.5285  0.3408  0.7481
  542MOL0     C71424   1.229   9.796   7.150 -0.0052 -0.0315 -0.1400
  542MOL0     C71425   1.142   9.902   7.208 -0.2003 -0.2989  0.4247
  542MOL0     C71426   1.008   9.934   7.126  0.1939 -0.2261 -0.2009
  542MOL0     C71427   0.919  10.045   7.192 -0.4388  0.7605 -0.3877
  542MOL0     C71428   0.803  10.070   7.103  0.5528  0.0695 -0.1951
  542MOL0     N71429   0.724  10.185   7.143  0.0558  0.0288 -0.0353
  542MOL0     C71430   0.614  10.162   7.207 -0.5766 -0.3009 -1.0572
  542MOL0     C71431   0.553  10.284   7.234 -0.2896  0.3635  0.1163
  542MOL0     C71432   0.426  10.296   7.313 -0.2248  0.0645 -0.0087
  542MOL0     C71433   0.304  10.332   7.226 -0.0630 -0.3284  0.6259
  542MOL0     C71434   0.172  10.350   7.308 -0.2540  0.6451  0.0559
  542MOL0     C71435   0.113  10.228   7.374  0.7887 -0.1114  0.7643
  542MOL0     O71436   0.046  10.134   7.288 -0.2253  0.4260 -0.2247
  542MOL0     C71437  -0.067  10.168   7.221  0.8717  0.3283 -1.0338
  542MOL0     C71438  -0.188  10.166   7.285  0.1742 -0.6116  0.1698
  542MOL0     C71439  -0.310  10.169   7.222 -0.7889 -0.0961  0.0699
  542MOL0     C71440  -0.316  10.188   7.082  0.0217 -0.0221 -0.0650
  542MOL0     C71441  -0.448  10.190   7.009 -0.0055  0.5618 -0.3223
  542MOL0     O71442  -0.563  10.177   7.086 -0.5072  0.1285  0.1837
  542MOL0     C71443  -0.673  10.195   7.009  0.2737 -0.0228 -0.6078
  542MOL0     C71444  -0.717  10.317   6.942  0.1686  0.1857 -0.2969
  542MOL0     C71445  -0.841  10.321   6.884 -0.3425 -0.1845  0.7343
  542MOL0     C71446  -0.922  10.205   6.869  0.5997 -0.4972  0.7478
  542MOL0     O71447  -1.025  10.213   6.794  0.7620 -0.7336  0.2015
  542MOL0     C71448  -1.079  10.086   6.738  0.1150 -0.4305  0.0744
  542MOL0     C71449  -1.171  10.109   6.617  0.6296 -0.2098  0.2411
  542MOL0     C71450  -1.225   9.978   6.556  0.0571  0.3715  0.1525
  542MOL0     C71451  -1.325  10.019   6.448  0.2068  0.8350  0.1580
  542MOL0     C71452  -1.377   9.905   6.361 -0.1993 -0.4632 -0.9665
  542MOL0     C71453  -1.518   9.866   6.407 -0.4306 -0.9689 -0.7389
  542MOL0     C71454  -1.561   9.746   6.330  0.0226 -0.6879 -0.4308
  542MOL0     C71455  -1.702   9.701   6.381  0.1834 -0.2920 -0.1238
  542MOL0    Cl71456  -1.697   9.593   6.520  0.0719 -0.0227 -0.4121
  542MOL0     C71457  -0.871  10.085   6.929  0.1810 -0.5000  0.1305
  542MOL0     C71458  -0.759  10.077   7.008 -0.4015 -0.5509  0.0542
  542MOL0     O71459  -0.444  10.200   6.888 -0.2880 -1.6192 -0.3636
  542MOL0     C71460  -0.193  10.182   7.013 -0.7037  0.0189  0.2370
  542MOL0     C71461  -0.076  10.176   7.082 -0.5965  0.1264 -0.5068
  542MOL0     N71462   0.634  10.378   7.175 -1.0807 -0.0623  0.2735
  542MOL0     N71463   0.739  10.319   7.126 -0.4770 -0.8535  0.0582
  542MOL0     C71464   1.883   9.645   7.232  0.1147 -0.4659 -0.4226
  542MOL0     C71465   2.005   9.648   7.298 -0.1456 -0.6002  0.1105
  542MOL0     C71466   2.369   9.519   7.527  0.8774  1.2251 -0.5446
  542MOL0     C71467   2.497   9.481   7.478  0.3340 -1.0463 -0.2482
  542MOL0     C71468   2.604   9.453   7.557 -0.3204  0.0180 -0.2286
  542MOL0     C71469   2.602   9.456   7.697  0.6782  0.3328  0.6065
  542MOL0     O71470   2.717   9.414   7.760 -0.1777  0.2105 -0.7235
  542MOL0     C71471   2.756   9.505   7.860 -0.8134  0.5927  0.1787
  542MOL0     C71472   2.826   9.630   7.813  0.5683 -0.1606  0.0504
  542MOL0     C71473   2.963   9.595   7.774  0.3407 -0.8663 -0.3935
  542MOL0     C71474   2.984   9.511   7.647 -0.9647 -0.5503  0.7694
  542MOL0     C71475   2.923   9.579   7.531 -0.4244  0.6587  0.5391
  542MOL0     C71476   2.877   9.649   7.440 -0.2957 -0.0121 -0.3191
  542MOL0     C71477   2.484   9.494   7.748 -0.5890  0.2671  0.3965
  542MOL0     C71478   2.364   9.526   7.672 -0.8359 -0.1158  0.0722
  542MOL0     H71479   1.935   9.384   7.511  0.5840 -0.5975 -0.4186
  542MOL0     H71480   1.725   9.399   7.404 -0.1352 -0.8287 -2.2297
  542MOL0     H71481   1.654   9.763   7.124  0.2709 -3.4574 -1.7899
  542MOL0     H71482   1.603   9.741   7.302  0.2548  1.5774 -0.9471
  542MOL0     H71483   1.411   9.608   7.219  0.7629 -1.1907  0.6362
  542MOL0     H71484   1.431   9.665   7.062 -1.3337 -0.3210  1.3853
  542MOL0     H71485   1.416   9.911   7.174 -3.6663  1.1491 -1.5028
  542MOL0     H71486   1.355   9.817   7.318 -1.1135 -4.0342  0.8009
  542MOL0     H71487   1.245   9.794   7.042  1.3861  0.3245  0.0319
  542MOL0     H71488   1.186   9.700   7.177 -0.6309  0.6814  1.5383
  542MOL0     H71489   1.190   9.998   7.230  1.0775 -0.6493 -0.6919
  542MOL0     H71490   1.109   9.853   7.300  1.4679 -2.3698 -0.0060
  542MOL0     H71491   0.949   9.842   7.129 -0.1164 -0.0258 -0.1304
  542MOL0     H71492   1.016   9.960   7.020 -1.1194  1.3148  0.0404
  542MOL0     H71493   0.887  10.014   7.292 -1.9586 -0.6241 -1.2539
  542MOL0     H71494   0.972  10.140   7.201  0.8935 -0.0321  0.3946
  542MOL0     H71495   0.739   9.981   7.100  2.3828 -1.4362  2.1020
  542MOL0     H71496   0.846  10.091   7.004 -2.6916  0.3037 -1.6729
  542MOL0     H71497   0.568  10.067   7.231 -3.5073  1.0690 -0.8068
  542MOL0     H71498   0.433  10.383   7.379 -1.2602 -1.1163  1.7386
  542MOL0     H71499   0.401  10.212   7.379 -0.3546 -0.8574 -1.2126
  542MOL0     H71500   0.293  10.246   7.159  1.9572  0.9480 -1.4957
  542MOL0     H71501   0.331  10.409   7.154  3.2051 -2.1200 -0.2865
  542MOL0     H71502   0.194  10.435   7.374  0.0841  1.2265 -0.7822
  542MOL0     H71503   0.100  10.389   7.235 -1.5774 -1.0494  0.3888
  542MOL0     H71504   0.038  10.273   7.440 -0.6737 -0.5528 -0.5208
  542MOL0     H71505   0.190  10.176   7.431 -0.4100 -0.4515  2.1418
  542MOL0     H71506  -0.195  10.176   7.393  0.0523 -0.0729  0.1112
  542MOL0     H71507  -0.397  10.181   7.284 -1.8663 -1.5468 -1.0716
  542MOL0     H71508  -0.659  10.408   6.946 -0.0426  0.4445 -2.0943
  542MOL0     H71509  -0.866  10.417   6.840 -2.5809 -1.5632 -1.2675
  542MOL0     H71510  -1.125  10.030   6.820 -1.4939  2.6526  1.4710
  542MOL0     H71511  -0.994  10.027   6.703 -0.1279 -0.7291 -0.0166
  542MOL0     H71512  -1.109  10.161   6.543  0.0277 -2.6720 -2.1733
  542MOL0     H71513  -1.258  10.171   6.642  0.3454  1.1000 -3.4540
  542MOL0     H71514  -1.272   9.921   6.636  1.1610  0.3780  0.8151
  542MOL0     H71515  -1.149   9.915   6.509  0.5977 -0.0718  1.5806
  542MOL0     H71516  -1.416  10.063   6.490 -1.0836  0.6940 -2.3339
  542MOL0     H71517  -1.277  10.094   6.384  1.5226 -0.6274 -0.6224
  542MOL0     H71518  -1.313   9.816   6.368 -1.2750 -1.1397  0.8938
  542MOL0     H71519  -1.378   9.931   6.254  1.2760 -0.7159 -1.0706
  542MOL0     H71520  -1.585   9.949   6.386 -0.9124 -0.0987  3.4852
  542MOL0     H71521  -1.540   9.846   6.512  1.2626  0.6113 -0.0390
  542MOL0     H71522  -1.553   9.751   6.221 -0.1505 -2.5187 -0.5614
  542MOL0     H71523  -1.488   9.676   6.373  0.2274  2.3251  4.9402
  542MOL0     H71524  -1.761   9.656   6.300 -0.8727  2.3741 -0.9588
  542MOL0     H71525  -1.764   9.787   6.410 -1.8820 -1.7937  0.1104
  542MOL0     H71526  -0.921   9.991   6.908  0.7050 -0.6427 -0.5395
  542MOL0     H71527  -0.733   9.988   7.064  1.4915 -1.1263 -1.6166
  542MOL0     H71528  -0.189  10.183   6.905 -0.4397 -2.3651  0.1675
  542MOL0     H71529   0.027  10.172   7.046 -0.4298 -1.0285  0.0589
  542MOL0     H71530   1.877   9.707   7.144 -0.0836 -1.2746 -0.9874
  542MOL0     H71531   2.083   9.716   7.265 -1.1145  0.7867  0.6155
  542MOL0     H71532   2.526   9.474   7.373  0.3867 -0.5753 -0.2681
  542MOL0     H71533   2.698   9.424   7.510 -1.7030 -2.2730 -1.7561
  542MOL0     H71534   2.824   9.446   7.923 -0.3919  2.7348  1.8315
  542MOL0     H71535   2.672   9.542   7.920 -1.9907  0.4643 -1.3380
  542MOL0     H71536   2.787   9.682   7.725  0.5258 -1.8003 -0.9548
  542MOL0     H71537   2.832   9.705   7.892 -0.5097 -0.7737  0.7472
  542MOL0     H71538   3.010   9.553   7.863 -1.0464  0.3223  0.9606
  542MOL0     H71539   3.014   9.690   7.757  0.3282 -1.1319 -2.1312
  542MOL0     H71540   3.092   9.500   7.631 -0.7840  0.7301  1.0279
  542MOL0     H71541   2.953   9.406   7.653  2.3221 -1.7876 -1.1919
  542MOL0     H71542   2.852   9.701   7.350  2.1054  0.0612 -1.0394
  542MOL0     H71543   2.464   9.466   7.851 -0.5766 -2.7591 -0.3303
  542MOL0     H71544   2.271   9.539   7.726 -0.7226 -0.7088  0.4274
  543MOL0     O71545   7.700   0.244   6.753  0.2755 -0.4028 -0.0336
  543MOL0     C71546   7.679   0.119   6.764 -0.1043  0.2061 -0.2175
  543MOL0     O71547   7.769   0.034   6.825  0.6009 -0.3982  0.3679
  543MOL0     C71548   7.883   0.093   6.884  0.4317 -0.3800  0.2255
  543MOL0     C71549   7.999   0.090   6.813  0.1961 -0.5845  0.7046
  543MOL0     C71550   8.108   0.162   6.845 -0.5957  0.9915 -0.5153
  543MOL0     C71551   8.111   0.232   6.976  0.4339 -0.0326 -1.2845
  543MOL0     O71552   8.201   0.323   7.030  0.9028  0.0096  0.6031
  543MOL0     C71553   8.324   0.366   6.964  0.1621 -0.1083  0.4446
  543MOL0     C71554   8.281   0.482   6.868  0.1401  0.2862  1.1249
  543MOL0     C71555   8.214   0.589   6.951  0.0903 -0.3664  0.4543
  543MOL0     C71556   8.166   0.717   6.867 -0.1425  0.0403  0.1445
  543MOL0     C71557   8.131   0.817   6.967 -0.2298  0.5465  0.0335
  543MOL0     C71558   8.078   0.943   6.891 -0.1554 -0.3749  0.4366
  543MOL0     C71559   7.950   0.932   6.820  0.2795  0.3900  0.4111
  543MOL0     C71560   7.891   1.058   6.755  0.4579 -0.6023 -0.3766
  543MOL0     N71561   7.757   1.030   6.697  0.5213 -0.6010 -0.7520
  543MOL0     C71562   7.629   1.028   6.764 -0.8300  0.5176 -0.0884
  543MOL0     C71563   7.548   0.970   6.666 -0.5797  0.7749  0.6217
  543MOL0     C71564   7.398   0.935   6.673  0.2031 -0.4936 -0.4120
  543MOL0     C71565   7.332   1.029   6.774  0.1863 -0.1439 -0.3547
  543MOL0     C71566   7.180   1.007   6.774 -0.3977 -0.2010 -0.4887
  543MOL0     C71567   7.142   0.863   6.810  0.0199  0.2461 -0.6302
  543MOL0     O71568   6.997   0.849   6.831  0.0355 -0.1499 -0.4936
  543MOL0     C71569   6.906   0.858   6.727 -0.1430 -0.4760  0.1175
  543MOL0     C71570   6.766   0.859   6.759  0.1577 -0.1632 -0.7075
  543MOL0     C71571   6.671   0.875   6.658  0.1640 -0.4095 -0.1796
  543MOL0     C71572   6.712   0.884   6.524  0.1736  0.7049  1.1788
  543MOL0     C71573   6.609   0.899   6.415 -0.1738  0.1251 -0.6294
  543MOL0     O71574   6.658   0.929   6.287 -0.0957 -0.1143 -0.2584
  543MOL0     C71575   6.583   0.938   6.175  0.3042  0.5440  0.3229
  543MOL0     C71576   6.443   0.931   6.156  0.7295  0.1831  0.3674
  543MOL0     C71577   6.380   0.925   6.027 -1.2165  0.8840 -0.2384
  543MOL0     C71578   6.469   0.936   5.916  0.5178  0.3373  0.2795
  543MOL0     O71579   6.410   0.957   5.792 -0.2763 -0.0023 -1.2734
  543MOL0     C71580   6.462   1.041   5.695 -0.3923 -0.3115 -0.4219
  543MOL0     C71581   6.446   0.994   5.546 -0.0100  0.6384  0.0757
  543MOL0     C71582   6.299   0.969   5.500 -0.1661 -0.0306  0.8195
  543MOL0     C71583   6.256   1.062   5.389 -0.0752 -0.4304 -0.1041
  543MOL0     C71584   6.106   1.043   5.334 -0.0735 -0.6581 -0.8702
  543MOL0     C71585   6.102   0.908   5.259 -0.0351  0.1099 -0.1670
  543MOL0     C71586   5.965   0.871   5.221  0.9347  1.4313  0.2616
  543MOL0     C71587   5.968   0.738   5.144 -0.4410  0.8625 -0.0254
  543MOL0    Cl71588   5.809   0.716   5.070  0.4725  0.3411  0.3423
  543MOL0     C71589   6.606   0.930   5.934  0.4346  0.0458  0.3300
  543MOL0     C71590   6.665   0.940   6.061 -0.5131 -0.3688  0.4587
  543MOL0     O71591   6.491   0.882   6.450  0.1906 -0.0084  0.2020
  543MOL0     C71592   6.851   0.875   6.499  0.8705 -0.1310  0.5878
  543MOL0     C71593   6.944   0.852   6.592  0.1422  0.0289  0.2931
  543MOL0     N71594   7.626   0.955   6.548 -0.2103  0.3168  0.7795
  543MOL0     N71595   7.751   0.980   6.573  0.3029  0.4185  0.1263
  543MOL0     C71596   7.989   0.234   7.051 -0.4603 -0.5842  0.5797
  543MOL0     C71597   7.876   0.162   7.004 -0.5260 -0.4723 -0.4052
  543MOL0     C71598   7.553   0.068   6.706  0.5960 -0.3126 -0.1016
  543MOL0     C71599   7.455   0.153   6.658  1.3005  0.1842 -0.0725
  543MOL0     C71600   7.344   0.086   6.603 -0.1695 -0.3576  0.0329
  543MOL0     C71601   7.324  -0.050   6.600  0.2970  0.7936 -0.0031
  543MOL0     O71602   7.206  -0.080   6.539  0.1791 -0.2773 -0.1957
  543MOL0     C71603   7.204  -0.202   6.472 -0.2962  0.8044  0.5411
  543MOL0     C71604   7.310  -0.237   6.363 -0.8513  0.6543  0.4517
  543MOL0     C71605   7.292  -0.180   6.217  0.5741 -0.1337  0.5675
  543MOL0     C71606   7.415  -0.219   6.127 -0.5893 -0.6208 -0.4425
  543MOL0     C71607   7.407  -0.153   5.990  0.0995 -0.1128 -1.3164
  543MOL0     C71608   7.427  -0.101   5.884  0.5550  1.1669  0.7936
  543MOL0     C71609   7.426  -0.138   6.654  0.0991 -0.0777 -0.2883
  543MOL0     C71610   7.536  -0.072   6.701 -0.7363  1.3151 -0.5006
  543MOL0     H71611   8.007   0.036   6.719  4.2559  2.0408 -0.7682
  543MOL0     H71612   8.194   0.152   6.779  0.4961  0.6196  0.9079
  543MOL0     H71613   8.366   0.282   6.906  1.0336 -1.4317  2.8583
  543MOL0     H71614   8.393   0.402   7.040 -0.2637  0.9633  0.3361
  543MOL0     H71615   8.208   0.445   6.796  0.4123 -1.2418  1.6017
  543MOL0     H71616   8.367   0.523   6.815  0.3427 -2.6515 -1.0405
  543MOL0     H71617   8.271   0.626   7.036 -0.4174 -0.1308  0.6974
  543MOL0     H71618   8.129   0.540   6.999  0.3488 -2.1532 -0.8005
  543MOL0     H71619   8.252   0.749   6.808  1.3122  1.1476  2.6737
  543MOL0     H71620   8.079   0.685   6.808 -1.5156  0.2060  1.9858
  543MOL0     H71621   8.221   0.841   7.024  1.4102 -2.1276 -1.2343
  543MOL0     H71622   8.050   0.794   7.037  0.6755  1.8740  1.5965
  543MOL0     H71623   8.158   0.969   6.821  0.5127  1.2405  1.7360
  543MOL0     H71624   8.055   1.022   6.964 -1.8394 -1.2776  0.9238
  543MOL0     H71625   7.966   0.864   6.736 -0.2445  0.7783 -0.0010
  543MOL0     H71626   7.875   0.887   6.885 -0.6159  1.8047  0.3895
  543MOL0     H71627   7.957   1.094   6.676  4.6356 -1.7791  2.2261
  543MOL0     H71628   7.882   1.136   6.832 -0.9412  1.7119 -2.7328
  543MOL0     H71629   7.617   1.053   6.868  0.3330 -0.1629  0.2308
  543MOL0     H71630   7.375   0.829   6.686 -0.6385 -0.0518  2.1467
  543MOL0     H71631   7.361   0.977   6.578 -2.1730 -0.5866  0.4057
  543MOL0     H71632   7.361   1.133   6.759 -2.0339  0.5451 -0.0629
  543MOL0     H71633   7.366   0.997   6.873  0.7608  1.0223 -0.1542
  543MOL0     H71634   7.126   1.081   6.833  1.1223  0.7345 -0.2198
  543MOL0     H71635   7.143   1.029   6.674  1.2155  0.2447 -1.0157
  543MOL0     H71636   7.197   0.848   6.903 -0.7136  2.0205  0.1444
  543MOL0     H71637   7.167   0.787   6.735 -3.8232 -1.0732 -0.7812
  543MOL0     H71638   6.744   0.849   6.864  0.5659  0.7195 -0.5253
  543MOL0     H71639   6.568   0.882   6.692  0.5497 -0.9100  1.1744
  543MOL0     H71640   6.378   0.934   6.242  1.5411  3.6735  1.0276
  543MOL0     H71641   6.274   0.926   6.005 -1.5757  1.9392  1.3847
  543MOL0     H71642   6.569   1.059   5.713 -0.8212 -0.0771  2.3690
  543MOL0     H71643   6.419   1.142   5.692  0.5925  0.1138 -0.9878
  543MOL0     H71644   6.517   0.912   5.535 -0.8753 -0.3215  1.3588
  543MOL0     H71645   6.488   1.069   5.478  0.9409 -0.4966 -0.6179
  543MOL0     H71646   6.224   0.968   5.580 -0.7277 -1.2186  0.3060
  543MOL0     H71647   6.283   0.867   5.462  2.9289  0.2018 -1.4727
  543MOL0     H71648   6.267   1.168   5.410  0.1286 -0.1627 -1.4315
  543MOL0     H71649   6.325   1.035   5.308 -1.6884 -3.2563 -0.6991
  543MOL0     H71650   6.095   1.121   5.258  1.9596  0.4466 -0.1277
  543MOL0     H71651   6.031   1.055   5.413 -0.1173  2.6283 -1.2621
  543MOL0     H71652   6.152   0.836   5.324  1.6796  0.8240 -0.6372
  543MOL0     H71653   6.167   0.926   5.172 -1.6216 -0.3390 -1.5101
  543MOL0     H71654   5.899   0.851   5.306 -0.0104  0.1308 -0.7301
  543MOL0     H71655   5.910   0.940   5.157  0.2637  1.0864  0.4592
  543MOL0     H71656   6.009   0.653   5.198  1.0675  0.5063 -1.6240
  543MOL0     H71657   6.035   0.746   5.057 -0.8869 -1.3339 -0.6168
  543MOL0     H71658   6.666   0.932   5.844 -1.3600  1.5011 -0.9062
  543MOL0     H71659   6.772   0.930   6.072 -0.2405  0.2255 -1.3263
  543MOL0     H71660   6.881   0.877   6.395  2.7138  2.7987  1.0832
  543MOL0     H71661   7.043   0.838   6.550 -0.9123 -1.0158 -2.1110
  543MOL0     H71662   7.975   0.274   7.151 -2.7326 -0.8131  0.4038
  543MOL0     H71663   7.783   0.163   7.059  1.2694  0.8365  2.8600
  543MOL0     H71664   7.450   0.261   6.660 -0.7251  0.1166  1.1865
  543MOL0     H71665   7.261   0.152   6.578  1.0256  1.2298  0.1480
  543MOL0     H71666   7.105  -0.223   6.430  1.1236 -1.2678 -2.0720
  543MOL0     H71667   7.216  -0.277   6.551 -0.5038  0.1379 -0.0506
  543MOL0     H71668   7.414  -0.209   6.383  0.4538 -0.5197 -3.7138
  543MOL0     H71669   7.310  -0.345   6.344 -0.3690  0.6576  0.4073
  543MOL0     H71670   7.298  -0.072   6.236 -0.1642 -0.5115  3.2761
  543MOL0     H71671   7.200  -0.216   6.171  1.7824 -0.1573 -2.0162
  543MOL0     H71672   7.515  -0.201   6.169  0.9584 -2.5582 -2.9925
  543MOL0     H71673   7.420  -0.323   6.094 -2.5457  0.3127 -4.2006
  543MOL0     H71674   7.446  -0.059   5.788 -1.1028  0.0416 -0.0728
  543MOL0     H71675   7.430  -0.246   6.648  0.1926 -0.0331 -1.0252
  543MOL0     H71676   7.618  -0.137   6.729 -0.9853  1.6064  1.0459
  544MOL0     O71677   9.489   2.205   6.965  0.6337 -0.6779  0.3585
  544MOL0     C71678   9.515   2.327   6.959 -0.9597 -0.2212 -0.8213
  544MOL0     O71679   9.442   2.431   6.996  0.3588 -0.2697  0.3306
  544MOL0     C71680   9.309   2.424   7.005 -0.3442 -0.0053  0.7631
  544MOL0     C71681   9.241   2.526   6.941  0.1622  0.4422 -0.7990
  544MOL0     C71682   9.103   2.534   6.921 -0.5904 -0.6978 -0.4938
  544MOL0     C71683   9.021   2.429   6.974 -0.6525 -0.2597  0.5328
  544MOL0     O71684   8.888   2.424   6.943 -0.7783  0.0569 -0.9486
  544MOL0     C71685   8.795   2.349   7.018 -0.6062  0.7326 -0.4611
  544MOL0     C71686   8.650   2.377   6.968 -0.0560  0.8903  0.0774
  544MOL0     C71687   8.625   2.535   6.961 -0.3611 -0.0264  0.0872
  544MOL0     C71688   8.670   2.606   7.095 -0.2478  0.1754 -0.0472
  544MOL0     C71689   8.662   2.757   7.094 -0.8195 -0.2174  0.2185
  544MOL0     C71690   8.779   2.836   7.053 -0.7919 -1.0426  0.2283
  544MOL0     C71691   8.743   2.969   6.982 -0.6136 -0.7742  0.3164
  544MOL0     C71692   8.871   3.042   6.962  0.4418 -1.1455  0.8895
  544MOL0     N71693   8.847   3.177   6.927  0.5855 -0.3854 -1.5272
  544MOL0     C71694   8.889   3.233   6.811  0.8677 -0.4016  0.5782
  544MOL0     C71695   8.845   3.364   6.814  0.7176 -0.4044  0.4102
  544MOL0     C71696   8.863   3.478   6.711  0.0142  0.4504 -0.1639
  544MOL0     C71697   8.999   3.553   6.720 -0.3950 -1.0568  0.8988
  544MOL0     C71698   9.018   3.664   6.607 -0.2060 -0.2111 -0.0365
  544MOL0     C71699   9.128   3.765   6.634 -0.5065  0.8980  0.8726
  544MOL0     O71700   9.257   3.688   6.620  0.5607  0.0372 -0.0997
  544MOL0     C71701   9.379   3.743   6.635 -0.1861 -0.3343  0.1446
  544MOL0     C71702   9.492   3.678   6.579  0.1197  0.1256 -0.0962
  544MOL0     C71703   9.626   3.729   6.602 -0.3150 -1.2406  1.0277
  544MOL0     C71704   9.645   3.841   6.682  0.0960  0.6533 -0.8316
  544MOL0     C71705   9.782   3.895   6.706  0.0152 -0.0668 -0.3780
  544MOL0     O71706   9.884   3.817   6.659  1.0141  0.3421  0.0402
  544MOL0     C71707  10.016   3.847   6.658 -0.0587  0.3529 -0.6670
  544MOL0     C71708  10.099   3.752   6.596  1.1880 -0.3322 -0.0646
  544MOL0     C71709  10.240   3.766   6.597  0.0930 -0.2390  1.0768
  544MOL0     C71710  10.302   3.890   6.616 -0.3130  0.6134  0.2169
  544MOL0     O71711  10.439   3.906   6.592 -1.1953 -0.5567 -0.5377
  544MOL0     C71712  10.508   3.803   6.526 -0.0836  0.4128 -0.2151
  544MOL0     C71713  10.656   3.839   6.514  0.5135  0.0464  0.4205
  544MOL0     C71714  10.748   3.730   6.553 -0.1415 -0.0959  0.2991
  544MOL0     C71715  10.750   3.621   6.440 -0.0314 -0.9140 -0.3148
  544MOL0     C71716  10.821   3.640   6.303  0.7523  0.4268  0.4705
  544MOL0     C71717  10.970   3.673   6.320  0.0989 -0.6652  0.1350
  544MOL0     C71718  11.024   3.763   6.199  0.0221  0.5589  0.5168
  544MOL0     C71719  11.156   3.838   6.243 -0.4587  0.5008  0.3111
  544MOL0    Cl71720  11.168   3.928   6.401  0.1835  0.1032  0.0779
  544MOL0     C71721  10.225   3.987   6.666 -0.7115 -0.1935 -0.3274
  544MOL0     C71722  10.084   3.965   6.692 -1.1894 -0.3044  0.2473
  544MOL0     O71723   9.793   4.005   6.753 -0.5894  0.4205  0.5375
  544MOL0     C71724   9.528   3.898   6.733 -0.0136 -0.2258  0.0458
  544MOL0     C71725   9.398   3.860   6.706 -0.1104  0.1303 -1.3671
  544MOL0     N71726   8.774   3.377   6.938  0.5967  0.7762  0.0055
  544MOL0     N71727   8.789   3.276   7.008  0.2851  0.1261  0.0839
  544MOL0     C71728   9.081   2.321   7.045 -0.3559  1.0567 -0.5805
  544MOL0     C71729   9.225   2.319   7.059  0.1973 -0.2412  0.2146
  544MOL0     C71730   9.654   2.351   6.909  0.1301  0.0177  1.2944
  544MOL0     C71731   9.727   2.248   6.851  0.7989 -0.9227 -0.1977
  544MOL0     C71732   9.850   2.279   6.787 -0.6214  0.1467 -0.3612
  544MOL0     C71733   9.897   2.417   6.775  0.4290 -0.0627 -0.6026
  544MOL0     O71734  10.010   2.451   6.709 -0.2106  0.9736  0.0604
  544MOL0     C71735  10.087   2.344   6.638 -0.5350 -0.2212  1.1214
  544MOL0     C71736  10.179   2.425   6.535 -0.2558  0.1034 -0.4235
  544MOL0     C71737  10.289   2.505   6.610 -0.8137  0.3578  0.6226
  544MOL0     C71738  10.353   2.614   6.513 -0.1437  0.3921  0.1003
  544MOL0     C71739  10.408   2.552   6.396 -0.2648 -0.3316  0.5374
  544MOL0     C71740  10.477   2.513   6.304 -0.3088 -0.0604 -1.2928
  544MOL0     C71741   9.817   2.510   6.822  0.8091 -0.3322 -0.0562
  544MOL0     C71742   9.702   2.483   6.891  0.3290 -0.0118  0.2629
  544MOL0     H71743   9.294   2.601   6.882  2.5695 -1.6835 -1.5383
  544MOL0     H71744   9.061   2.627   6.883  1.4154  0.5396  0.2036
  544MOL0     H71745   8.806   2.374   7.124  0.6548  1.5632 -0.7672
  544MOL0     H71746   8.814   2.243   6.999  1.5268  1.3969 -2.5205
  544MOL0     H71747   8.573   2.322   7.023  1.1448 -1.3544 -0.3374
  544MOL0     H71748   8.646   2.348   6.863 -0.1994  2.6498 -0.4345
  544MOL0     H71749   8.521   2.567   6.947 -0.2455  0.8958  1.2076
  544MOL0     H71750   8.688   2.565   6.877 -2.1698 -0.1413 -1.3938
  544MOL0     H71751   8.608   2.557   7.170 -0.5544 -0.2681 -0.5804
  544MOL0     H71752   8.773   2.573   7.114 -0.5356 -0.5232  0.3158
  544MOL0     H71753   8.646   2.789   7.197  0.7826  0.1311  0.3907
  544MOL0     H71754   8.577   2.790   7.034 -0.9197  0.3801  0.6879
  544MOL0     H71755   8.826   2.765   6.985 -0.7823  1.7646 -2.9536
  544MOL0     H71756   8.842   2.856   7.141 -2.5548  1.2918  1.0713
  544MOL0     H71757   8.700   2.940   6.886  1.3998 -2.7368 -0.0743
  544MOL0     H71758   8.672   3.034   7.033 -0.5113 -1.5788  1.5362
  544MOL0     H71759   8.933   2.998   6.883  0.7967  1.4166 -0.3805
  544MOL0     H71760   8.936   3.038   7.050 -0.7269 -3.5835  1.7170
  544MOL0     H71761   8.951   3.198   6.729  2.9971 -2.7865  3.0397
  544MOL0     H71762   8.791   3.558   6.730  0.4662  0.4511  1.8002
  544MOL0     H71763   8.840   3.445   6.610  1.2590  1.9721 -0.9862
  544MOL0     H71764   9.085   3.486   6.715  1.4064  1.1777 -3.0652
  544MOL0     H71765   9.000   3.616   6.810  1.3687 -0.2810  0.3837
  544MOL0     H71766   9.032   3.613   6.511  0.4065 -2.4331  1.1618
  544MOL0     H71767   8.925   3.718   6.585  0.3444 -0.5910 -4.3463
  544MOL0     H71768   9.100   3.796   6.735 -1.2190 -1.9341  1.6457
  544MOL0     H71769   9.130   3.852   6.567  1.8645 -0.1253 -0.5090
  544MOL0     H71770   9.473   3.576   6.547  0.0727 -0.3403  1.3416
  544MOL0     H71771   9.711   3.674   6.563  0.2408 -1.5516  2.6047
  544MOL0     H71772  10.058   3.658   6.560  3.3695 -1.2152 -0.3589
  544MOL0     H71773  10.286   3.674   6.562 -2.0594 -1.7878  2.0701
  544MOL0     H71774  10.469   3.786   6.425  1.3322  0.9864 -0.8907
  544MOL0     H71775  10.499   3.713   6.588  1.0322 -0.8512 -1.8071
  544MOL0     H71776  10.672   3.920   6.586  0.3311 -0.5539  1.1492
  544MOL0     H71777  10.670   3.876   6.412  1.0775 -0.3759  0.3418
  544MOL0     H71778  10.709   3.682   6.644  1.4078  0.1567  1.1398
  544MOL0     H71779  10.851   3.755   6.580 -0.4439 -0.1706  1.5979
  544MOL0     H71780  10.789   3.527   6.478 -1.0168 -0.9009  0.7711
  544MOL0     H71781  10.649   3.594   6.407 -0.1152 -0.9800 -0.0087
  544MOL0     H71782  10.760   3.717   6.253 -1.5239 -1.2291  0.5615
  544MOL0     H71783  10.819   3.546   6.248  0.2862  0.0735  1.0817
  544MOL0     H71784  11.038   3.587   6.314  1.8642  0.7684 -3.6384
  544MOL0     H71785  10.978   3.727   6.415 -1.0899 -1.5330  0.7576
  544MOL0     H71786  11.051   3.706   6.110  2.1380  0.7185  0.9909
  544MOL0     H71787  10.952   3.835   6.158  1.0232  0.9110 -0.6918
  544MOL0     H71788  11.184   3.913   6.168  1.9726 -3.1791 -2.8808
  544MOL0     H71789  11.233   3.760   6.237 -1.5606 -0.6077  0.3484
  544MOL0     H71790  10.263   4.087   6.681  0.5097 -0.3137 -2.2858
  544MOL0     H71791  10.032   4.051   6.733  1.1530  0.4550  1.8143
  544MOL0     H71792   9.545   3.981   6.801  0.1798 -0.6273  0.4909
  544MOL0     H71793   9.317   3.919   6.748  2.1284  2.7917 -0.4682
  544MOL0     H71794   9.030   2.236   7.091  0.4655  1.5958  1.4563
  544MOL0     H71795   9.264   2.225   7.095  1.2702 -0.3239 -1.0654
  544MOL0     H71796   9.699   2.143   6.841  1.4210 -1.1452  0.3167
  544MOL0     H71797   9.901   2.196   6.738  1.8150  0.7034  1.0563
  544MOL0     H71798  10.022   2.285   6.574 -0.0823  1.5997 -1.1390
  544MOL0     H71799  10.135   2.271   6.705 -2.5047 -2.3103  0.3822
  544MOL0     H71800  10.216   2.355   6.459 -0.9343 -0.0855 -0.5890
  544MOL0     H71801  10.119   2.498   6.480 -4.6425 -1.6670  1.4974
  544MOL0     H71802  10.365   2.432   6.642 -1.4756 -1.0655 -0.9074
  544MOL0     H71803  10.257   2.559   6.699 -1.3845 -0.6660  1.0574
  544MOL0     H71804  10.292   2.702   6.491 -1.2849 -0.3301  0.3447
  544MOL0     H71805  10.438   2.659   6.566 -1.9495  2.0983  1.6823
  544MOL0     H71806  10.542   2.465   6.234  1.1389 -2.1433  1.3028
  544MOL0     H71807   9.848   2.614   6.814  1.7824 -0.4951  1.2201
  544MOL0     H71808   9.648   2.569   6.931 -1.2778  0.7314 -3.1111
  545MOL0     O71809  10.838  11.043   4.080 -0.1881 -1.1931  0.2735
  545MOL0     C71810  10.902  10.967   4.007  0.6853 -0.7586 -0.0690
  545MOL0     O71811  10.858  10.891   3.906 -0.6597  0.9849 -0.8988
  545MOL0     C71812  10.726  10.881   3.881  1.0775 -0.2830  0.1742
  545MOL0     C71813  10.655  10.994   3.845  0.2238  0.1852 -0.2381
  545MOL0     C71814  10.514  10.989   3.826  0.9811  0.9851  0.2982
  545MOL0     C71815  10.445  10.871   3.818 -0.2968  0.3557 -0.0547
  545MOL0     O71816  10.306  10.862   3.788 -0.4525  0.0862 -0.5147
  545MOL0     C71817  10.230  10.745   3.786 -0.8439 -1.1137 -0.3272
  545MOL0     C71818  10.089  10.776   3.733 -0.5825 -0.1479  0.0752
  545MOL0     C71819   9.992  10.666   3.761  0.4293  1.2272  0.4341
  545MOL0     C71820   9.870  10.687   3.670 -0.2563 -0.0625  0.0383
  545MOL0     C71821   9.755  10.583   3.695  0.3889 -0.2523 -0.2107
  545MOL0     C71822   9.629  10.603   3.600 -1.1488 -0.1192 -0.9745
  545MOL0     C71823   9.513  10.503   3.621  1.0514 -1.1978 -0.7283
  545MOL0     C71824   9.394  10.560   3.707 -0.5984  0.8924  0.2911
  545MOL0     N71825   9.271  10.474   3.714 -0.1115  0.0819  0.0910
  545MOL0     C71826   9.223  10.385   3.625  0.3335 -0.0318 -0.1756
  545MOL0     C71827   9.108  10.337   3.679  0.2766 -0.0073  0.6018
  545MOL0     C71828   9.008  10.229   3.635 -0.4899 -0.8454 -0.0655
  545MOL0     C71829   8.942  10.283   3.503  0.3117  0.4272 -0.6989
  545MOL0     C71830   8.892  10.431   3.494 -0.3753 -0.5828 -0.1656
  545MOL0     C71831   8.800  10.487   3.607  0.1015 -0.1207  0.5283
  545MOL0     O71832   8.661  10.428   3.603 -0.5776  0.9385  0.5172
  545MOL0     C71833   8.592  10.417   3.719 -0.4008  0.2204 -0.5217
  545MOL0     C71834   8.646  10.371   3.839  1.0422  0.5538 -0.3031
  545MOL0     C71835   8.559  10.375   3.950 -0.8672  0.0459 -0.1131
  545MOL0     C71836   8.429  10.428   3.949  0.1032  0.5845  0.4243
  545MOL0     C71837   8.332  10.423   4.059  0.5842  0.9823 -0.0443
  545MOL0     O71838   8.198  10.451   4.053 -0.7785  0.0788  0.2657
  545MOL0     C71839   8.122  10.392   4.149 -0.1586  0.4381 -0.3162
  545MOL0     C71840   8.068  10.267   4.137  0.0929 -0.3871 -0.2948
  545MOL0     C71841   7.970  10.220   4.228 -0.0291 -0.0248 -1.2045
  545MOL0     C71842   7.929  10.299   4.336  1.0980 -0.1828 -1.1955
  545MOL0     O71843   7.840  10.240   4.425  0.1820 -0.0054  0.3284
  545MOL0     C71844   7.710  10.304   4.437 -0.4204 -0.1228 -0.4576
  545MOL0     C71845   7.621  10.227   4.336  0.1711 -0.7373 -0.2360
  545MOL0     C71846   7.470  10.257   4.330 -0.2388  0.0092 -0.5486
  545MOL0     C71847   7.395  10.228   4.457  0.3137  0.8891  0.0210
  545MOL0     C71848   7.240  10.248   4.427  0.7989  0.4334  1.0959
  545MOL0     C71849   7.154  10.264   4.552  0.8347  0.7112 -0.5080
  545MOL0     C71850   7.044  10.350   4.513  0.1650 -0.6498  0.3008
  545MOL0     C71851   6.915  10.320   4.584  0.7280  0.3976  0.8042
  545MOL0    Cl71852   6.818  10.471   4.565 -0.0808  0.2662 -0.5326
  545MOL0     C71853   7.989  10.429   4.353  0.5155 -1.1773 -0.6540
  545MOL0     C71854   8.079  10.472   4.257  0.6365 -0.0048  0.1216
  545MOL0     O71855   8.386  10.380   4.158 -0.1292  0.0527 -0.6239
  545MOL0     C71856   8.386  10.467   3.820 -0.4184 -1.1973 -0.8571
  545MOL0     C71857   8.464  10.456   3.708  0.9166  0.0134  0.5681
  545MOL0     N71858   9.097  10.387   3.804 -0.6739 -1.1930  0.1027
  545MOL0     N71859   9.193  10.477   3.819  0.0312 -0.4565 -0.0191
  545MOL0     C71860  10.527  10.753   3.828  0.5159 -0.4447 -0.3652
  545MOL0     C71861  10.657  10.756   3.876 -0.3720  1.0550 -0.2869
  545MOL0     C71862  11.035  10.939   4.057 -1.0671  0.4271  0.0379
  545MOL0     C71863  11.084  10.986   4.178  0.9371  0.3516 -0.4362
  545MOL0     C71864  11.212  10.956   4.227 -0.2754  0.1376  0.6348
  545MOL0     C71865  11.309  10.898   4.133  0.1550 -0.2708  1.2365
  545MOL0     O71866  11.446  10.891   4.152 -1.2446  0.4751  0.3393
  545MOL0     C71867  11.506  10.947   4.270 -0.2714  0.3518  0.4860
  545MOL0     C71868  11.509  10.842   4.380 -0.4710  1.0189 -0.1243
  545MOL0     C71869  11.598  10.725   4.348  0.3073  0.7993  0.6491
  545MOL0     C71870  11.607  10.624   4.467 -0.8169  0.4112  0.1710
  545MOL0     C71871  11.670  10.664   4.592  0.1124  0.7596 -0.6013
  545MOL0     C71872  11.702  10.701   4.702  0.1256  0.6593  0.5673
  545MOL0     C71873  11.264  10.872   4.000 -0.1412  0.5948 -0.0331
  545MOL0     C71874  11.129  10.879   3.965 -1.1123 -0.1718 -0.9523
  545MOL0     H71875  10.718  11.082   3.846 -2.0538  2.0333 -3.2563
  545MOL0     H71876  10.457  11.078   3.800  3.3599  2.6027  0.3239
  545MOL0     H71877  10.228  10.699   3.885  1.9127  0.8735  0.7679
  545MOL0     H71878  10.264  10.667   3.717 -2.7496  1.0672 -4.0272
  545MOL0     H71879  10.100  10.793   3.626  1.8895 -0.6274  0.1773
  545MOL0     H71880  10.049  10.859   3.793  2.1991  0.5338  1.1501
  545MOL0     H71881   9.960  10.687   3.864 -0.0090 -0.7401  0.7375
  545MOL0     H71882  10.043  10.571   3.744 -0.6545  0.7171 -0.0901
  545MOL0     H71883   9.832  10.788   3.681  1.9989  0.5809  3.9690
  545MOL0     H71884   9.899  10.678   3.565 -0.8305 -0.4687 -0.0892
  545MOL0     H71885   9.732  10.595   3.801 -0.9518  0.3803 -0.5554
  545MOL0     H71886   9.786  10.480   3.676 -1.1117 -0.5683 -1.1410
  545MOL0     H71887   9.665  10.587   3.498  0.4260 -1.2201 -0.2799
  545MOL0     H71888   9.588  10.703   3.619 -1.5630 -0.5885  0.7698
  545MOL0     H71889   9.471  10.490   3.520 -0.9929  0.9239 -0.2283
  545MOL0     H71890   9.552  10.412   3.667 -0.9727 -2.1611 -0.7947
  545MOL0     H71891   9.360  10.654   3.662 -1.7828  0.1310 -0.4529
  545MOL0     H71892   9.424  10.574   3.811 -3.4670 -1.9719  1.6809
  545MOL0     H71893   9.275  10.343   3.540  0.4885 -3.2668  1.3494
  545MOL0     H71894   8.930  10.197   3.705 -0.2718  1.4790  1.3609
  545MOL0     H71895   9.057  10.134   3.615 -0.7159 -1.9689  3.8379
  545MOL0     H71896   8.853  10.219   3.496  1.0933 -1.1081  1.7717
  545MOL0     H71897   9.020  10.265   3.429  3.3799 -0.1812  2.4418
  545MOL0     H71898   8.982  10.492   3.483 -3.2523  4.3042  0.5004
  545MOL0     H71899   8.843  10.448   3.398  0.1702 -3.4334 -1.0493
  545MOL0     H71900   8.785  10.594   3.590  2.1983  1.6752  6.9220
  545MOL0     H71901   8.842  10.490   3.708 -1.1215  1.9031  1.0300
  545MOL0     H71902   8.746  10.334   3.856  0.9623  0.1488 -0.6763
  545MOL0     H71903   8.610  10.343   4.041  0.4467  4.4135  0.9088
  545MOL0     H71904   8.096  10.216   4.045  0.3683 -1.8082  0.5391
  545MOL0     H71905   7.921  10.124   4.211 -1.1912 -0.4585  3.2938
  545MOL0     H71906   7.708  10.410   4.409 -0.8390  0.4039  1.4023
  545MOL0     H71907   7.683  10.298   4.543 -0.2864 -1.3413 -0.4738
  545MOL0     H71908   7.629  10.121   4.362 -1.4291 -0.0630  3.5423
  545MOL0     H71909   7.667  10.258   4.241 -0.8425  0.7455 -0.2717
  545MOL0     H71910   7.435  10.206   4.240  0.1650 -0.0252 -0.6864
  545MOL0     H71911   7.449  10.361   4.301 -1.9548 -0.4802 -1.1956
  545MOL0     H71912   7.408  10.123   4.488 -2.0890  0.3234 -0.6816
  545MOL0     H71913   7.429  10.293   4.538 -0.7658  1.3286  0.1433
  545MOL0     H71914   7.190  10.166   4.374  1.2359  0.0076  1.3364
  545MOL0     H71915   7.234  10.330   4.355  4.7887  1.1934  1.4283
  545MOL0     H71916   7.206  10.322   4.629  0.6454  0.2802 -0.0491
  545MOL0     H71917   7.129  10.171   4.604  1.8471  0.8698  0.2950
  545MOL0     H71918   7.066  10.455   4.536 -0.5298 -0.5498  0.5464
  545MOL0     H71919   7.026  10.339   4.406  2.2090 -0.9777 -0.0488
  545MOL0     H71920   6.923  10.312   4.693 -1.3916  0.4207  0.9993
  545MOL0     H71921   6.855  10.238   4.543  0.0408  0.3618  1.8577
  545MOL0     H71922   7.949  10.483   4.439 -3.3231 -2.4943 -1.4091
  545MOL0     H71923   8.121  10.570   4.271 -1.1570  0.4883  2.8501
  545MOL0     H71924   8.280  10.491   3.811 -1.0647 -3.5391 -0.2766
  545MOL0     H71925   8.438  10.502   3.613  0.2799  0.0133  0.7399
  545MOL0     H71926  10.479  10.657   3.820  2.4281 -1.6985  1.7136
  545MOL0     H71927  10.714  10.667   3.903 -2.6411 -0.4589 -0.2620
  545MOL0     H71928  11.026  11.049   4.245  0.2358 -2.0541  1.3520
  545MOL0     H71929  11.234  10.966   4.333  1.0029  2.7511  0.1933
  545MOL0     H71930  11.448  11.035   4.298  1.2717  1.6264 -0.1917
  545MOL0     H71931  11.606  10.989   4.254  0.0623 -0.8958 -0.8927
  545MOL0     H71932  11.557  10.885   4.469  0.0328 -0.2178  0.2248
  545MOL0     H71933  11.407  10.805   4.388 -0.9413  2.3382  0.2543
  545MOL0     H71934  11.695  10.762   4.316 -0.1734  1.3531 -0.2006
  545MOL0     H71935  11.548  10.667   4.269 -0.6460 -0.2563  1.9762
  545MOL0     H71936  11.509  10.575   4.470 -1.3012  1.3524  0.0079
  545MOL0     H71937  11.677  10.547   4.433 -2.0291 -0.8248  0.3836
  545MOL0     H71938  11.742  10.736   4.795 -1.9663  0.4451  1.6051
  545MOL0     H71939  11.330  10.826   3.926  1.4181  0.2704  1.5120
  545MOL0     H71940  11.090  10.872   3.864  0.8355 -0.3256 -1.7407
  546MOL0     O71941   9.878   4.379   0.897  0.3358  0.6674 -0.3561
  546MOL0     C71942   9.880   4.263   0.940 -0.0586 -1.0438 -0.2641
  546MOL0     O71943   9.769   4.202   0.996  0.1454  0.1716  0.3661
  546MOL0     C71944   9.641   4.241   0.982  0.1243  0.0313 -1.0331
  546MOL0     C71945   9.593   4.322   0.877 -0.3970 -1.0306 -0.3840
  546MOL0     C71946   9.453   4.361   0.882 -0.6250  0.7205  0.4107
  546MOL0     C71947   9.385   4.326   0.997 -0.5172  0.0018 -0.8858
  546MOL0     O71948   9.259   4.395   1.005 -0.4106  0.0840  0.2869
  546MOL0     C71949   9.163   4.318   1.059  0.0972 -0.0963  0.0027
  546MOL0     C71950   9.040   4.365   0.995  0.4126 -0.1546 -0.4364
  546MOL0     C71951   8.922   4.284   1.031 -0.3072 -0.7522 -0.2851
  546MOL0     C71952   8.802   4.343   0.962  1.1378  0.1619  0.6467
  546MOL0     C71953   8.673   4.284   1.026  0.2579  0.8683  0.0547
  546MOL0     C71954   8.546   4.320   0.948  0.3025 -0.4618 -0.5846
  546MOL0     C71955   8.419   4.315   1.040 -0.3672 -0.4789  0.3444
  546MOL0     C71956   8.288   4.360   0.976  0.1951  0.8671 -0.1042
  546MOL0     N71957   8.164   4.317   1.043 -0.8215 -0.1466  0.5189
  546MOL0     C71958   8.143   4.317   1.175 -0.6344 -0.2787 -0.2856
  546MOL0     C71959   8.011   4.295   1.196 -0.3007 -0.0897 -0.1548
  546MOL0     C71960   7.936   4.298   1.327 -0.3856 -0.1320 -0.0088
  546MOL0     C71961   7.859   4.177   1.355 -0.4841 -0.0006 -0.3600
  546MOL0     C71962   7.740   4.159   1.249 -0.4592 -0.5352 -0.3564
  546MOL0     C71963   7.612   4.096   1.302 -0.4588 -0.8228 -0.0355
  546MOL0     O71964   7.535   4.045   1.199 -0.3374 -0.3789 -0.3235
  546MOL0     C71965   7.433   4.119   1.142 -0.1875  0.1330 -0.1338
  546MOL0     C71966   7.383   4.248   1.186  0.3423 -0.1986  0.2257
  546MOL0     C71967   7.281   4.311   1.123 -0.4785 -0.1769 -0.3301
  546MOL0     C71968   7.217   4.255   1.007 -0.4168  0.2745 -0.0463
  546MOL0     C71969   7.116   4.334   0.945  0.5890  0.4629  0.3290
  546MOL0     O71970   7.063   4.449   1.008 -0.0770 -0.1168 -0.0719
  546MOL0     C71971   6.953   4.522   0.957  0.7787 -0.8774  0.7039
  546MOL0     C71972   6.923   4.532   0.816  0.3938 -0.0770 -0.6254
  546MOL0     C71973   6.814   4.599   0.764  0.0370 -0.5135 -0.0538
  546MOL0     C71974   6.712   4.639   0.854 -0.0907  1.5701 -0.6951
  546MOL0     O71975   6.588   4.673   0.801 -0.6306 -0.2590 -0.3346
  546MOL0     C71976   6.477   4.719   0.887 -0.4877 -0.0023  0.1702
  546MOL0     C71977   6.345   4.726   0.812  0.4142 -0.0227 -0.3073
  546MOL0     C71978   6.224   4.729   0.915  0.9047 -0.3204 -0.1719
  546MOL0     C71979   6.098   4.717   0.827 -1.4663 -0.4001 -0.0317
  546MOL0     C71980   5.964   4.700   0.908 -0.5079 -0.4278  0.5844
  546MOL0     C71981   5.848   4.694   0.813 -0.5371 -0.4549 -0.0127
  546MOL0     C71982   5.724   4.666   0.895  1.2639 -0.2472  0.1079
  546MOL0     C71983   5.596   4.671   0.814 -0.2948  0.3465  0.3774
  546MOL0    Cl71984   5.529   4.839   0.811 -0.2072  0.0032 -0.3480
  546MOL0     C71985   6.729   4.618   0.994 -0.2902 -0.1831 -0.3064
  546MOL0     C71986   6.853   4.577   1.044 -0.0284  0.4505 -0.3260
  546MOL0     O71987   7.058   4.280   0.852 -0.3522 -0.6384  0.2920
  546MOL0     C71988   7.254   4.124   0.969  0.1090  0.2778  0.3628
  546MOL0     C71989   7.356   4.062   1.035  0.2206 -0.2166  0.9411
  546MOL0     N71990   7.950   4.294   1.072  0.4026 -0.0930  0.8239
  546MOL0     N71991   8.046   4.315   0.983  0.0174 -0.2594  0.3453
  546MOL0     C71992   9.428   4.234   1.095 -0.1423 -0.2010  0.1294
  546MOL0     C71993   9.560   4.194   1.092  0.4780 -0.1898 -0.2988
  546MOL0     C71994  10.006   4.191   0.940  0.2558 -0.3372 -0.2343
  546MOL0     C71995  10.129   4.257   0.968  0.6854  0.0702 -0.0196
  546MOL0     C71996  10.252   4.188   0.964 -0.5498 -1.2108 -0.5452
  546MOL0     C71997  10.262   4.056   0.935  0.7215 -0.1237 -0.0635
  546MOL0     O71998  10.387   3.997   0.924 -0.7997  0.3922  0.4736
  546MOL0     C71999  10.405   3.859   0.868  0.1629  0.1447 -0.0751
  546MOL0     C72000  10.543   3.825   0.811 -0.6367 -0.1980  0.6046
  546MOL0     C72001  10.588   3.915   0.707 -0.0366  0.2829 -0.9761
  546MOL0     C72002  10.542   3.884   0.564 -0.0101  0.4799  0.2121
  546MOL0     C72003  10.593   3.985   0.469  0.5826  0.3206 -0.0245
  546MOL0     C72004  10.630   4.063   0.379 -0.3510 -0.5286  0.9932
  546MOL0     C72005  10.142   3.990   0.919  0.1484  1.0242 -1.3613
  546MOL0     C72006  10.014   4.052   0.919 -0.4703 -0.1240 -0.8482
  546MOL0     H72007   9.655   4.360   0.796 -0.1896  4.2895  1.8490
  546MOL0     H72008   9.407   4.433   0.815 -1.7802 -0.3932 -0.0351
  546MOL0     H72009   9.160   4.317   1.169  1.7785 -4.9948  0.2520
  546MOL0     H72010   9.167   4.214   1.025  3.0192 -0.1944  0.3175
  546MOL0     H72011   9.053   4.353   0.887 -0.7939 -1.0764 -0.5081
  546MOL0     H72012   9.018   4.468   1.023 -0.7803 -0.2071 -1.0994
  546MOL0     H72013   8.901   4.282   1.139 -0.2646  0.4985 -0.2418
  546MOL0     H72014   8.941   4.180   1.002 -0.4828 -1.0905  0.7372
  546MOL0     H72015   8.793   4.452   0.960 -2.0419 -0.0312 -0.6292
  546MOL0     H72016   8.805   4.307   0.859  0.0146  0.2134  0.5829
  546MOL0     H72017   8.664   4.328   1.125 -0.2602 -0.7050  0.7311
  546MOL0     H72018   8.679   4.176   1.016 -0.5697  0.9723 -2.2173
  546MOL0     H72019   8.532   4.253   0.863  0.0959  0.6427 -1.4481
  546MOL0     H72020   8.557   4.420   0.904 -1.0090  0.5367  1.2267
  546MOL0     H72021   8.407   4.213   1.079 -0.9885 -0.0236  1.3968
  546MOL0     H72022   8.435   4.374   1.131 -0.3518 -1.2066  0.8245
  546MOL0     H72023   8.286   4.308   0.880 -1.3072 -1.4062  1.0657
  546MOL0     H72024   8.291   4.468   0.961 -1.7186  0.7410 -1.8408
  546MOL0     H72025   8.218   4.332   1.253  1.2154 -1.5872 -1.7185
  546MOL0     H72026   7.860   4.377   1.330  0.6637  1.0728 -2.4337
  546MOL0     H72027   8.006   4.318   1.408  1.0656 -1.6190 -0.8205
  546MOL0     H72028   7.809   4.191   1.451 -1.2360 -3.5818 -0.0903
  546MOL0     H72029   7.921   4.088   1.351  2.2070  1.7731 -3.2336
  546MOL0     H72030   7.719   4.252   1.195  2.0374 -1.4533 -3.1810
  546MOL0     H72031   7.788   4.089   1.180 -0.6320 -0.3875 -0.6315
  546MOL0     H72032   7.558   4.162   1.371  2.1109 -2.4537  3.8817
  546MOL0     H72033   7.647   4.011   1.362  1.9767  2.1635  3.1631
  546MOL0     H72034   7.431   4.311   1.260  2.4512 -1.4313 -0.0317
  546MOL0     H72035   7.248   4.407   1.163 -3.4927  0.2192 -3.2919
  546MOL0     H72036   6.994   4.499   0.741 -0.4970 -2.9801 -0.2927
  546MOL0     H72037   6.802   4.610   0.657 -2.5785 -0.5359  0.1889
  546MOL0     H72038   6.493   4.820   0.926  0.5560 -0.0555 -0.0784
  546MOL0     H72039   6.460   4.644   0.965 -0.7429 -1.6510 -1.4001
  546MOL0     H72040   6.334   4.633   0.755  0.7948 -0.9717  1.1003
  546MOL0     H72041   6.346   4.816   0.750  0.1272  0.6365  0.6251
  546MOL0     H72042   6.233   4.814   0.983  0.2844 -0.9954  0.7977
  546MOL0     H72043   6.237   4.639   0.977  0.2171 -0.2251  0.1202
  546MOL0     H72044   6.090   4.810   0.769 -2.0110 -0.0804  0.5323
  546MOL0     H72045   6.109   4.629   0.763  0.7539 -0.7182  0.7202
  546MOL0     H72046   5.950   4.790   0.969 -0.5823 -0.5126  0.6956
  546MOL0     H72047   5.979   4.608   0.966 -0.4162 -0.2955  0.7718
  546MOL0     H72048   5.875   4.618   0.738  1.4518 -1.5911  1.7415
  546MOL0     H72049   5.834   4.792   0.766 -1.5975  0.8126  2.7759
  546MOL0     H72050   5.734   4.564   0.932  2.4732 -0.7660 -1.4823
  546MOL0     H72051   5.716   4.734   0.980 -2.1448 -5.1420  4.2639
  546MOL0     H72052   5.536   4.587   0.852  2.3426 -0.8863  2.0789
  546MOL0     H72053   5.609   4.647   0.708 -0.4729  0.3864  0.3447
  546MOL0     H72054   6.655   4.650   1.067  0.2700  2.4121 -0.7559
  546MOL0     H72055   6.881   4.574   1.149  2.1719 -2.2062 -0.8618
  546MOL0     H72056   7.196   4.076   0.891  0.2489  1.1070 -0.2685
  546MOL0     H72057   7.385   3.960   1.011 -3.1914 -0.7462 -1.7617
  546MOL0     H72058   9.356   4.213   1.174  0.3534 -1.1747  0.3350
  546MOL0     H72059   9.596   4.137   1.177 -0.6784 -0.6328 -0.0993
  546MOL0     H72060  10.123   4.361   0.998 -2.7740 -0.0711  0.2015
  546MOL0     H72061  10.346   4.234   0.990 -2.1833  0.3852  3.2850
  546MOL0     H72062  10.330   3.836   0.792 -1.1462  0.9009  0.9315
  546MOL0     H72063  10.394   3.793   0.955  0.0744 -0.6979 -0.7157
  546MOL0     H72064  10.612   3.826   0.896  3.1685  1.3835 -2.2334
  546MOL0     H72065  10.540   3.722   0.773  1.8464 -0.4475  0.9238
  546MOL0     H72066  10.697   3.906   0.708 -0.0016  0.4279  1.1229
  546MOL0     H72067  10.572   4.021   0.730  3.2194  1.2232 -2.3520
  546MOL0     H72068  10.595   3.792   0.537  0.9453  1.2986 -0.7757
  546MOL0     H72069  10.434   3.872   0.548  0.3325 -3.3524 -0.1351
  546MOL0     H72070  10.667   4.124   0.298  2.7898 -3.7045 -0.2631
  546MOL0     H72071  10.127   3.883   0.907  1.3019  0.8469 -1.3344
  546MOL0     H72072   9.919   3.998   0.914 -2.1377  2.5556 -0.1167
  547MOL0     O72073   8.786   9.586   8.695  0.3713 -0.0359 -0.3340
  547MOL0     C72074   8.815   9.477   8.636  0.0188  0.3422  0.1904
  547MOL0     O72075   8.735   9.371   8.638 -0.3554  0.2637 -0.3012
  547MOL0     C72076   8.594   9.390   8.618  0.3268 -0.2801 -0.6479
  547MOL0     C72077   8.527   9.289   8.548  1.2724  0.0865  0.5338
  547MOL0     C72078   8.390   9.287   8.529  0.0253 -0.3904  0.0023
  547MOL0     C72079   8.309   9.391   8.573 -0.5641  0.2554  0.2514
  547MOL0     O72080   8.177   9.374   8.555 -0.6960 -0.5732  0.1886
  547MOL0     C72081   8.114   9.496   8.540  0.1924 -0.2537 -0.5529
  547MOL0     C72082   7.993   9.482   8.453  1.3610  0.6038 -0.3756
  547MOL0     C72083   7.884   9.408   8.526  0.4082 -0.2777  0.5101
  547MOL0     C72084   7.762   9.392   8.438  0.3007  0.8305  0.1086
  547MOL0     C72085   7.638   9.308   8.487 -0.0008 -1.1829  0.1542
  547MOL0     C72086   7.557   9.384   8.597  0.3814 -0.2331 -0.1588
  547MOL0     C72087   7.445   9.296   8.654 -0.2536 -0.5198  0.9621
  547MOL0     C72088   7.396   9.331   8.796 -0.1179  0.6740 -0.1031
  547MOL0     N72089   7.332   9.212   8.845  0.7861 -0.3138  0.7836
  547MOL0     C72090   7.191   9.196   8.832  0.5242  0.7140  0.6077
  547MOL0     C72091   7.175   9.075   8.889  0.3851 -0.6374 -0.3458
  547MOL0     C72092   7.040   9.021   8.915  0.3996  0.5105 -0.5581
  547MOL0     C72093   7.015   8.904   8.822 -0.0484  0.1700 -0.3381
  547MOL0     C72094   6.900   8.817   8.869 -0.8062 -0.2358 -0.6960
  547MOL0     C72095   6.885   8.705   8.764  0.5843 -0.2536  0.1196
  547MOL0     O72096   6.845   8.765   8.635  0.0093 -0.6383 -0.2855
  547MOL0     C72097   6.721   8.816   8.630  0.4311 -0.3599 -0.2516
  547MOL0     C72098   6.620   8.726   8.579  0.9381  0.0578 -0.0011
  547MOL0     C72099   6.485   8.764   8.572  0.5570  0.0147 -0.1473
  547MOL0     C72100   6.450   8.897   8.612 -0.4941 -0.5855 -0.9591
  547MOL0     C72101   6.311   8.938   8.615  0.5398  0.8103 -0.0295
  547MOL0     O72102   6.227   8.833   8.633  0.3721 -0.6331 -0.4896
  547MOL0     C72103   6.096   8.851   8.648  1.1700  1.2809 -0.4413
  547MOL0     C72104   6.028   8.857   8.773 -0.5509  0.7245  0.1910
  547MOL0     C72105   5.884   8.863   8.780  0.0104  0.1633  0.0929
  547MOL0     C72106   5.803   8.852   8.663 -0.5567 -0.0228 -1.3000
  547MOL0     O72107   5.672   8.855   8.685 -0.2778  0.0150  0.9286
  547MOL0     C72108   5.582   8.905   8.586  0.1305  0.7200  0.4413
  547MOL0     C72109   5.620   9.037   8.519  0.3970  0.2849 -0.6506
  547MOL0     C72110   5.504   9.103   8.437 -0.0596 -0.6792 -0.4488
  547MOL0     C72111   5.419   9.007   8.357  0.4969  0.9668  0.1906
  547MOL0     C72112   5.327   9.070   8.250  0.2585 -0.6452  1.1227
  547MOL0     C72113   5.251   9.193   8.296  0.5223 -0.5475  0.2787
  547MOL0     C72114   5.152   9.229   8.176  0.2537 -0.2914 -0.4443
  547MOL0     C72115   5.084   9.365   8.218  0.6113 -0.0236 -0.1063
  547MOL0    Cl72116   4.928   9.324   8.295 -0.4537  0.0695  0.1412
  547MOL0     C72117   5.876   8.847   8.543 -0.2083  0.1532  0.3869
  547MOL0     C72118   6.021   8.844   8.536  0.3674 -0.5005 -0.2301
  547MOL0     O72119   6.273   9.050   8.611 -0.2660 -0.4622 -0.3276
  547MOL0     C72120   6.547   8.980   8.665 -0.0528 -0.6019  0.3664
  547MOL0     C72121   6.684   8.943   8.674 -0.1881  0.7099  0.0324
  547MOL0     N72122   7.291   9.020   8.928  0.1484  0.1920  0.3463
  547MOL0     N72123   7.384   9.098   8.897  0.3427 -0.1603  0.2823
  547MOL0     C72124   8.368   9.491   8.656  0.4672  0.7673  0.3664
  547MOL0     C72125   8.512   9.495   8.670 -0.0313 -0.0690  0.3544
  547MOL0     C72126   8.955   9.470   8.592  0.7100 -0.1023 -0.6375
  547MOL0     C72127   9.046   9.582   8.623 -0.4232  0.3917 -0.3127
  547MOL0     C72128   9.182   9.561   8.616 -0.1348  0.5312  1.1738
  547MOL0     C72129   9.229   9.442   8.552  0.7701 -0.0431  0.1508
  547MOL0     O72130   9.353   9.409   8.535 -0.1461 -0.3955  0.8013
  547MOL0     C72131   9.456   9.509   8.552 -0.5324  0.7923 -0.1687
  547MOL0     C72132   9.583   9.428   8.519  0.0513 -0.7540  1.0334
  547MOL0     C72133   9.708   9.523   8.489  0.0247  0.1490  0.1175
  547MOL0     C72134   9.848   9.457   8.492 -0.3055  0.1445  0.0297
  547MOL0     C72135   9.887   9.352   8.403 -0.2673  0.7959 -0.7762
  547MOL0     C72136   9.933   9.274   8.328  0.3792 -0.8533 -0.5835
  547MOL0     C72137   9.136   9.338   8.528 -0.6975 -0.9418  0.1601
  547MOL0     C72138   8.997   9.347   8.552 -0.0370  0.2051 -0.1464
  547MOL0     H72139   8.578   9.202   8.507  0.7093  0.3099 -0.6945
  547MOL0     H72140   8.339   9.200   8.487  0.2598  0.4243 -2.1150
  547MOL0     H72141   8.177   9.574   8.496  0.5043 -1.1486 -1.7334
  547MOL0     H72142   8.077   9.519   8.641  3.1567  2.1799  0.1178
  547MOL0     H72143   8.026   9.432   8.361 -1.2657  0.6610 -1.4515
  547MOL0     H72144   7.946   9.577   8.429 -1.9229  0.5592  4.4620
  547MOL0     H72145   7.851   9.454   8.619  1.5399 -1.1430  1.3690
  547MOL0     H72146   7.919   9.307   8.550 -1.6141 -1.5809 -1.5295
  547MOL0     H72147   7.720   9.491   8.417 -1.1625 -0.3232 -2.9223
  547MOL0     H72148   7.792   9.344   8.345  2.3979 -2.2752  2.1791
  547MOL0     H72149   7.672   9.206   8.508 -0.6888 -1.4712 -0.1059
  547MOL0     H72150   7.569   9.294   8.403  1.9701 -2.4792 -1.3526
  547MOL0     H72151   7.519   9.479   8.558  0.8616  0.3753  0.8168
  547MOL0     H72152   7.617   9.416   8.683  0.1559  1.9660 -0.7604
  547MOL0     H72153   7.359   9.306   8.586  0.4598  2.1878  0.3328
  547MOL0     H72154   7.482   9.193   8.661 -0.5137 -0.5990  1.1758
  547MOL0     H72155   7.326   9.415   8.799 -1.0415 -0.0694 -0.4463
  547MOL0     H72156   7.486   9.349   8.856  0.0401  1.4002 -0.5401
  547MOL0     H72157   7.113   9.265   8.802 -0.7464 -1.2251 -0.7980
  547MOL0     H72158   6.962   9.097   8.901  0.9606  0.7655 -2.6312
  547MOL0     H72159   7.026   8.977   9.014 -2.4242 -0.8441 -1.4526
  547MOL0     H72160   7.099   8.834   8.816 -0.5152 -0.2904 -1.7423
  547MOL0     H72161   7.002   8.939   8.719  1.1776 -1.5127 -1.1156
  547MOL0     H72162   6.931   8.768   8.961  0.2078 -0.0092 -0.9100
  547MOL0     H72163   6.803   8.863   8.889 -2.0803 -2.1552 -2.0787
  547MOL0     H72164   6.798   8.643   8.788 -0.5161  1.1050 -0.1827
  547MOL0     H72165   6.962   8.629   8.748 -0.9745 -1.7799 -0.5379
  547MOL0     H72166   6.642   8.632   8.530  2.0457  0.8728 -1.1230
  547MOL0     H72167   6.411   8.702   8.522  1.2618  0.3113 -1.6216
  547MOL0     H72168   6.095   8.863   8.858  0.6491 -2.0096 -0.4571
  547MOL0     H72169   5.849   8.880   8.881  1.0145 -0.2248  0.5212
  547MOL0     H72170   5.486   8.923   8.635 -0.1644 -0.5866  0.3897
  547MOL0     H72171   5.564   8.826   8.512 -2.7835 -0.6360  2.3809
  547MOL0     H72172   5.707   9.010   8.458  2.3859 -0.2316  2.2429
  547MOL0     H72173   5.663   9.104   8.594 -1.7340  1.5688 -0.4906
  547MOL0     H72174   5.541   9.193   8.386 -1.4288  1.6107  2.3004
  547MOL0     H72175   5.452   9.166   8.510  2.1294  1.3003 -0.4481
  547MOL0     H72176   5.477   8.925   8.315  0.7097  1.0601  0.3016
  547MOL0     H72177   5.348   8.961   8.426  0.2930  2.8274  1.2952
  547MOL0     H72178   5.247   9.003   8.216 -1.6996  2.7984 -1.7202
  547MOL0     H72179   5.393   9.092   8.166  0.0401 -1.7665  0.6323
  547MOL0     H72180   5.326   9.268   8.321  0.6007 -0.8427  0.9383
  547MOL0     H72181   5.201   9.174   8.391 -0.4454  0.7977  0.0532
  547MOL0     H72182   5.210   9.249   8.086  3.6017 -1.5296  1.2655
  547MOL0     H72183   5.078   9.149   8.165 -1.6332  1.1091  1.2415
  547MOL0     H72184   5.055   9.428   8.133 -0.5457 -1.9640 -1.2088
  547MOL0     H72185   5.143   9.429   8.285  0.1918  5.3989 -4.1855
  547MOL0     H72186   5.819   8.833   8.451 -1.5673 -0.2817  1.2737
  547MOL0     H72187   6.064   8.837   8.436  0.2296  2.7302 -0.6191
  547MOL0     H72188   6.530   9.080   8.704 -0.5547 -0.0907 -1.1186
  547MOL0     H72189   6.757   9.011   8.717 -0.6453 -0.5763  3.0645
  547MOL0     H72190   8.297   9.561   8.700  0.1596 -0.6984  2.3440
  547MOL0     H72191   8.556   9.575   8.729 -1.0413  1.1921 -0.5549
  547MOL0     H72192   9.008   9.677   8.662  2.4495  0.4611  2.7751
  547MOL0     H72193   9.243   9.649   8.634 -1.4947  1.5947  0.8035
  547MOL0     H72194   9.454   9.545   8.655 -0.8241  1.4404 -0.3974
  547MOL0     H72195   9.445   9.591   8.481  0.4137  0.2254 -1.0118
  547MOL0     H72196   9.609   9.368   8.606 -3.4996  0.5210  3.2206
  547MOL0     H72197   9.567   9.365   8.431 -0.4493  1.2951 -0.4300
  547MOL0     H72198   9.706   9.612   8.553  0.1115 -0.9642  1.7344
  547MOL0     H72199   9.681   9.554   8.388 -0.2368 -0.3680  0.0288
  547MOL0     H72200   9.920   9.538   8.480  2.1621 -2.1787 -2.1447
  547MOL0     H72201   9.856   9.414   8.593  2.0921 -0.3663 -0.3228
  547MOL0     H72202   9.964   9.199   8.258 -0.0858 -1.4903 -0.1233
  547MOL0     H72203   9.165   9.243   8.485 -1.4997 -1.8487  1.5778
  547MOL0     H72204   8.931   9.261   8.546 -0.7462  0.4903  2.3247
  548MOL0     O72205   6.021   9.366  10.468  0.4300 -0.6550 -0.3657
  548MOL0     C72206   6.088   9.445  10.537 -0.3915  0.3883 -0.1498
  548MOL0     O72207   6.044   9.559  10.594  0.4406  0.2120 -0.3107
  548MOL0     C72208   5.905   9.591  10.590  0.1388  0.5672 -0.0919
  548MOL0     C72209   5.837   9.620  10.713 -0.0368  0.0193 -0.7463
  548MOL0     C72210   5.698   9.644  10.711  0.1966 -0.3216  0.0824
  548MOL0     C72211   5.624   9.626  10.598  0.1170 -0.0438 -0.0059
  548MOL0     O72212   5.494   9.663  10.600 -0.5625 -0.6553 -0.2376
  548MOL0     C72213   5.392   9.563  10.565  0.7954 -0.0234 -0.1235
  548MOL0     C72214   5.254   9.621  10.615 -0.5849 -0.5474 -0.4076
  548MOL0     C72215   5.128   9.565  10.546  0.5398  0.2815 -0.7567
  548MOL0     C72216   5.010   9.662  10.575  0.2374 -0.4786 -0.2156
  548MOL0     C72217   4.869   9.603  10.569  0.3297 -0.0457 -0.7808
  548MOL0     C72218   4.772   9.709  10.623  0.2110 -0.4736 -0.8402
  548MOL0     C72219   4.631   9.666  10.650  0.5811  0.7894 -0.4432
  548MOL0     C72220   4.538   9.674  10.523 -0.5962  0.1918 -0.0060
  548MOL0     N72221   4.516   9.807  10.469  0.0134  0.3374  0.4659
  548MOL0     C72222   4.599   9.875  10.370 -0.7178 -1.1031 -0.4807
  548MOL0     C72223   4.526   9.987  10.329 -0.4459 -0.6689 -0.0367
  548MOL0     C72224   4.577  10.087  10.236 -1.0841  0.3264 -0.4287
  548MOL0     C72225   4.737  10.103  10.249  0.5209  0.6688  0.3018
  548MOL0     C72226   4.793  10.223  10.169 -0.8175 -0.6036  0.4507
  548MOL0     C72227   4.904  10.295  10.243  0.3755  0.4593 -0.7837
  548MOL0     O72228   4.967  10.402  10.170 -0.0273 -0.3706  0.6180
  548MOL0     C72229   5.093  10.441  10.208 -0.0634 -0.4017 -0.4964
  548MOL0     C72230   5.200  10.353  10.191  0.1076  0.2140 -0.3833
  548MOL0     C72231   5.324  10.396  10.229 -0.4740 -0.2247  0.3163
  548MOL0     C72232   5.342  10.524  10.297 -0.3931  0.0682 -0.2485
  548MOL0     C72233   5.474  10.572  10.321 -0.1046 -0.5872 -0.0891
  548MOL0     O72234   5.579  10.516  10.255 -0.0986 -0.1725  0.2693
  548MOL0     C72235   5.714  10.519  10.287  0.5330 -0.3643 -0.4601
  548MOL0     C72236   5.781  10.625  10.354 -0.6591  0.0414  1.5771
  548MOL0     C72237   5.917  10.622  10.378 -0.1402  0.3321  0.2545
  548MOL0     C72238   6.004  10.524  10.328  0.3349 -0.4140  0.4053
  548MOL0     O72239   6.138  10.539  10.353 -0.2302  0.1247 -0.2726
  548MOL0     C72240   6.219  10.426  10.372  0.1413 -0.9879 -0.6485
  548MOL0     C72241   6.352  10.482  10.411  0.6629 -0.1546 -0.1660
  548MOL0     C72242   6.448  10.364  10.431  0.1451 -0.9220 -0.6532
  548MOL0     C72243   6.592  10.420  10.438  1.1243  0.5995  0.0651
  548MOL0     C72244   6.685  10.290  10.432 -0.2319  0.1877  0.9323
  548MOL0     C72245   6.834  10.333  10.437 -0.4350 -0.0671 -0.5093
  548MOL0     C72246   6.927  10.206  10.414  0.1657 -0.3247  0.4286
  548MOL0     C72247   7.076  10.213  10.439 -0.6079  0.0583 -1.0280
  548MOL0    Cl72248   7.112  10.254  10.616 -0.4049 -0.1348  0.1142
  548MOL0     C72249   5.946  10.417  10.266  1.0230 -0.2965  0.5315
  548MOL0     C72250   5.804  10.424  10.241 -0.3524 -0.3521 -0.0460
  548MOL0     O72251   5.479  10.666  10.400  0.2823  1.1730  0.2105
  548MOL0     C72252   5.224  10.602  10.328 -0.1027 -0.3185  1.2495
  548MOL0     C72253   5.099  10.555  10.285 -0.1475 -0.6259  0.6494
  548MOL0     N72254   4.411   9.992  10.407 -0.2976  0.1851 -0.5291
  548MOL0     N72255   4.414   9.892  10.496 -0.5372  0.5955 -0.1712
  548MOL0     C72256   5.689   9.588  10.478  0.1688  0.2026  0.5886
  548MOL0     C72257   5.825   9.569  10.481  0.0860 -0.1079  0.5858
  548MOL0     C72258   6.230   9.412  10.556 -0.5893  0.3716 -0.6303
  548MOL0     C72259   6.284   9.303  10.494  0.0899  0.2098 -0.2120
  548MOL0     C72260   6.411   9.248  10.538 -0.3494  0.2369 -0.2993
  548MOL0     C72261   6.487   9.307  10.635  0.0686  0.3316 -0.1566
  548MOL0     O72262   6.602   9.250  10.658 -0.2782 -0.4595 -0.0484
  548MOL0     C72263   6.707   9.318  10.586  0.0976 -0.8002  0.1417
  548MOL0     C72264   6.769   9.425  10.679  1.2082 -0.3124  0.9671
  548MOL0     C72265   6.920   9.430  10.678 -0.1825  0.1423  0.8571
  548MOL0     C72266   6.977   9.325  10.770 -0.1777  0.5489 -1.0547
  548MOL0     C72267   7.122   9.321  10.758 -0.9387 -0.9335  0.1208
  548MOL0     C72268   7.235   9.334  10.730  0.2536 -0.1541  0.1640
  548MOL0     C72269   6.440   9.420  10.694  0.9285 -0.8845 -0.9536
  548MOL0     C72270   6.310   9.467  10.660  0.3041  0.6976  0.0489
  548MOL0     H72271   5.896   9.630  10.804 -1.8056  0.8809  0.3538
  548MOL0     H72272   5.651   9.676  10.804  4.7032 -1.9844  3.2758
  548MOL0     H72273   5.418   9.470  10.618  1.6807  2.1793  3.6927
  548MOL0     H72274   5.396   9.542  10.458  3.5736 -0.9084  0.0617
  548MOL0     H72275   5.277   9.726  10.596  1.3783 -0.8995 -0.1579
  548MOL0     H72276   5.247   9.620  10.724  1.7895 -1.9057 -0.2083
  548MOL0     H72277   5.093   9.467  10.578 -1.8085  1.1194 -0.5984
  548MOL0     H72278   5.142   9.554  10.438 -0.0973  1.4044 -0.9667
  548MOL0     H72279   5.018   9.696  10.678 -0.6002 -1.7157  0.2858
  548MOL0     H72280   5.028   9.749  10.511  2.9663 -1.3401 -0.7849
  548MOL0     H72281   4.877   9.509  10.623  2.3136 -1.2825 -3.0112
  548MOL0     H72282   4.839   9.579  10.467  0.6691 -0.5459 -0.7673
  548MOL0     H72283   4.782   9.804  10.570  1.8231 -1.5219 -2.5521
  548MOL0     H72284   4.817   9.723  10.721 -0.7701 -1.9460 -0.1453
  548MOL0     H72285   4.630   9.564  10.691  3.0688  0.9613  0.2503
  548MOL0     H72286   4.591   9.732  10.728  3.1931  1.9677  0.0337
  548MOL0     H72287   4.442   9.628  10.547 -1.6120 -0.9134 -5.0343
  548MOL0     H72288   4.569   9.599  10.450 -0.0695  1.1595 -0.7960
  548MOL0     H72289   4.695   9.851  10.327 -0.0164 -0.3022  0.5947
  548MOL0     H72290   4.528  10.183  10.255 -2.2091 -0.2142 -0.5345
  548MOL0     H72291   4.558  10.060  10.132 -2.9713  2.1734 -0.6289
  548MOL0     H72292   4.783  10.014  10.205  0.1603  0.3855  0.4933
  548MOL0     H72293   4.766  10.115  10.353  1.1382  0.4296  0.1606
  548MOL0     H72294   4.830  10.181  10.074  1.8220  2.0789  0.1275
  548MOL0     H72295   4.723  10.303  10.142  0.9231  0.8588  0.0727
  548MOL0     H72296   4.981  10.220  10.263 -1.7819 -1.7162 -0.3015
  548MOL0     H72297   4.871  10.343  10.336 -3.7072 -0.3688 -1.6369
  548MOL0     H72298   5.185  10.259  10.139  0.3385 -0.7212  1.1895
  548MOL0     H72299   5.414  10.341  10.202 -0.1155  0.0511  0.9227
  548MOL0     H72300   5.724  10.709  10.392 -2.2832 -1.1090  1.7940
  548MOL0     H72301   5.962  10.705  10.431  2.6640 -0.2208 -1.0735
  548MOL0     H72302   6.211  10.377  10.275  0.8372 -1.5310 -0.4358
  548MOL0     H72303   6.185  10.354  10.447  1.6961  0.3220  1.4220
  548MOL0     H72304   6.340  10.531  10.508 -1.0982 -0.6137 -0.1046
  548MOL0     H72305   6.395  10.549  10.336 -1.4057 -0.7844 -2.0422
  548MOL0     H72306   6.441  10.284  10.358 -0.1598 -3.5687  2.0864
  548MOL0     H72307   6.426  10.319  10.528 -1.8281  0.5347 -0.3516
  548MOL0     H72308   6.615  10.488  10.355 -1.7329  1.2930 -0.2406
  548MOL0     H72309   6.597  10.469  10.535  1.4575  0.6882  0.0053
  548MOL0     H72310   6.663  10.227  10.345  0.6280  2.4250 -1.0450
  548MOL0     H72311   6.661  10.234  10.523  0.7013 -2.0071 -0.0956
  548MOL0     H72312   6.847  10.375  10.537  2.8465  1.7124 -1.5520
  548MOL0     H72313   6.855  10.398  10.352 -1.8640 -3.2819 -3.5812
  548MOL0     H72314   6.887  10.126  10.477  0.1846 -1.0427 -0.4502
  548MOL0     H72315   6.912  10.182  10.309  1.0363 -0.1121  0.2466
  548MOL0     H72316   7.115  10.294  10.376  0.9996  0.5903  0.5460
  548MOL0     H72317   7.128  10.120  10.416  0.9333  1.2905 -2.8850
  548MOL0     H72318   6.007  10.334  10.232 -1.7103 -2.2012 -0.0733
  548MOL0     H72319   5.769  10.336  10.189  4.2200 -2.5618  0.1278
  548MOL0     H72320   5.235  10.695  10.383 -3.2397 -0.0286  1.6101
  548MOL0     H72321   5.011  10.613  10.311 -0.3087 -1.2580  1.5647
  548MOL0     H72322   5.640   9.587  10.382  1.1337 -2.1403  0.0475
  548MOL0     H72323   5.870   9.534  10.388 -0.3284  0.8398  0.0075
  548MOL0     H72324   6.217   9.252  10.425 -0.7681 -1.9561  2.0558
  548MOL0     H72325   6.457   9.160  10.493  1.3330  0.9238  0.0202
  548MOL0     H72326   6.667   9.364  10.495  1.0047  0.2285  0.2460
  548MOL0     H72327   6.789   9.250  10.562  1.2176  1.0263 -1.6176
  548MOL0     H72328   6.734   9.525  10.653  0.8603 -0.9894 -1.4219
  548MOL0     H72329   6.734   9.401  10.780 -0.2781 -2.5879 -0.0248
  548MOL0     H72330   6.937   9.534  10.708 -0.1727 -0.6079  3.7269
  548MOL0     H72331   6.957   9.416  10.576 -0.2835  0.5304  0.7676
  548MOL0     H72332   6.947   9.342  10.873  0.3581  0.3451 -0.8605
  548MOL0     H72333   6.945   9.225  10.740  0.4841  0.0143 -0.0373
  548MOL0     H72334   7.330   9.355  10.686  0.6890 -2.8159 -0.2894
  548MOL0     H72335   6.499   9.446  10.781  0.6314 -5.0887  0.7552
  548MOL0     H72336   6.273   9.552  10.716 -0.3328  0.1860  0.4116
  549MOL0     O72337   6.805   5.035   6.880  0.6857 -0.1620 -0.2479
  549MOL0     C72338   6.760   5.098   6.782 -0.9188 -0.1628 -1.0094
  549MOL0     O72339   6.623   5.125   6.746 -0.1088 -0.6901  0.3165
  549MOL0     C72340   6.516   5.060   6.809 -0.3607 -0.3657 -0.4238
  549MOL0     C72341   6.521   4.927   6.836  0.7438 -0.2681 -0.5671
  549MOL0     C72342   6.399   4.855   6.866 -0.8157  1.1589  0.4256
  549MOL0     C72343   6.280   4.920   6.872 -0.3860 -0.3641 -0.5909
  549MOL0     O72344   6.154   4.861   6.871  0.5092 -0.0024 -0.4752
  549MOL0     C72345   6.140   4.733   6.944  0.5346 -0.7064 -0.3920
  549MOL0     C72346   5.991   4.733   6.990  0.0258  0.1467 -0.1839
  549MOL0     C72347   5.937   4.578   7.003 -0.6532 -0.5548  0.1620
  549MOL0     C72348   5.792   4.563   7.038  0.0052  0.1395  0.2545
  549MOL0     C72349   5.736   4.416   7.040 -0.9027 -0.3071 -0.2546
  549MOL0     C72350   5.613   4.405   7.128  0.6858 -0.0827  0.3828
  549MOL0     C72351   5.531   4.272   7.118  0.3820 -0.0479  0.0222
  549MOL0     C72352   5.471   4.249   6.984 -0.8525 -1.1358 -0.0513
  549MOL0     N72353   5.351   4.161   6.976  0.4861  0.3477  0.3995
  549MOL0     C72354   5.348   4.030   7.022 -0.1298  0.8154 -0.1550
  549MOL0     C72355   5.225   3.999   7.033 -0.4874  0.3409  0.9167
  549MOL0     C72356   5.173   3.858   7.061  0.5071 -0.2995 -0.0898
  549MOL0     C72357   5.232   3.796   7.196  0.0712 -0.0942 -0.1066
  549MOL0     C72358   5.188   3.871   7.327  0.2994  0.5768 -0.0596
  549MOL0     C72359   5.051   3.818   7.381  0.4351 -0.1770  0.7130
  549MOL0     O72360   5.067   3.677   7.386  0.1202 -0.6298  0.1442
  549MOL0     C72361   4.973   3.586   7.418 -0.4549 -0.4769 -0.4921
  549MOL0     C72362   4.848   3.604   7.472 -0.2857  0.2052 -0.0023
  549MOL0     C72363   4.770   3.496   7.495 -0.2195  0.3947 -0.6595
  549MOL0     C72364   4.821   3.362   7.486  0.6830 -0.1962 -0.5996
  549MOL0     C72365   4.734   3.245   7.528 -1.0247  0.4499  0.5172
  549MOL0     O72366   4.787   3.118   7.504 -0.4955  0.2305  0.3015
  549MOL0     C72367   4.713   3.006   7.534 -0.0585 -0.1694  0.2795
  549MOL0     C72368   4.636   2.941   7.433  0.0192 -0.7696 -0.6248
  549MOL0     C72369   4.553   2.822   7.457  0.6547 -0.6047  0.3608
  549MOL0     C72370   4.545   2.781   7.593 -0.8736  0.4048 -0.6725
  549MOL0     O72371   4.464   2.674   7.632 -0.5430 -0.4339  0.7040
  549MOL0     C72372   4.346   2.628   7.555  0.5479  0.1020 -0.4925
  549MOL0     C72373   4.270   2.519   7.637  0.1530  0.6282 -1.2316
  549MOL0     C72374   4.129   2.498   7.581 -0.6191 -0.3498  0.1773
  549MOL0     C72375   4.021   2.603   7.605  0.1696  0.5943  0.1646
  549MOL0     C72376   3.886   2.550   7.560  1.4258 -0.5610  0.8495
  549MOL0     C72377   3.833   2.457   7.667  0.3406  0.3765 -0.2020
  549MOL0     C72378   3.691   2.416   7.630  0.4296 -0.0960 -0.0287
  549MOL0     C72379   3.618   2.395   7.764  0.1024  0.0760  0.3404
  549MOL0    Cl72380   3.461   2.313   7.715 -0.1282  0.3641 -0.2869
  549MOL0     C72381   4.632   2.836   7.694 -1.0720  0.7874  0.0254
  549MOL0     C72382   4.712   2.949   7.661 -0.7228 -0.2981  0.3450
  549MOL0     O72383   4.638   3.270   7.600 -0.0361  0.0385  0.0203
  549MOL0     C72384   4.951   3.339   7.440  0.1476 -0.0083  0.3338
  549MOL0     C72385   5.024   3.453   7.402  0.0290 -0.5333 -0.7375
  549MOL0     N72386   5.147   4.115   7.006 -0.7447 -0.3206  1.4847
  549MOL0     N72387   5.227   4.215   6.974 -0.1759 -0.3050 -0.1101
  549MOL0     C72388   6.277   5.056   6.859 -0.2412 -0.6347  0.4128
  549MOL0     C72389   6.396   5.130   6.827  1.7638  0.0983 -0.0578
  549MOL0     C72390   6.870   5.170   6.706  0.1389 -0.4855  0.5411
  549MOL0     C72391   6.843   5.223   6.578  0.6838  0.1300  0.8674
  549MOL0     C72392   6.938   5.282   6.502 -0.4745 -0.6812 -0.1830
  549MOL0     C72393   7.073   5.294   6.548 -0.0292 -0.0430 -1.1820
  549MOL0     O72394   7.174   5.342   6.471  0.5536  0.2407 -0.0665
  549MOL0     C72395   7.254   5.436   6.537 -0.1690  0.2008 -0.3939
  549MOL0     C72396   7.397   5.384   6.517 -0.4141  0.0048  0.8580
  549MOL0     C72397   7.497   5.480   6.589  0.7018 -0.4162 -0.0110
  549MOL0     C72398   7.632   5.435   6.549 -0.4573 -0.7977  0.3610
  549MOL0     C72399   7.735   5.522   6.605  0.5595 -0.3219 -0.5843
  549MOL0     C72400   7.827   5.587   6.650  0.8187  0.0557 -0.2396
  549MOL0     C72401   7.105   5.220   6.667  0.1029  0.3434  0.4599
  549MOL0     C72402   7.004   5.164   6.741  0.0232 -0.7265  0.1871
  549MOL0     H72403   6.614   4.872   6.830  0.0108 -2.0568  2.3790
  549MOL0     H72404   6.417   4.748   6.870  3.7061  1.7296  2.8997
  549MOL0     H72405   6.197   4.738   7.037 -0.9314  2.0048  0.4772
  549MOL0     H72406   6.163   4.658   6.868  1.8623  2.5058 -3.4745
  549MOL0     H72407   5.944   4.780   6.903 -0.0095 -2.1917 -1.5438
  549MOL0     H72408   5.969   4.791   7.079 -0.3637  1.1191 -0.8995
  549MOL0     H72409   5.995   4.537   7.087 -1.7772  0.0022  1.2398
  549MOL0     H72410   5.958   4.520   6.913  3.5879  1.2775 -0.2750
  549MOL0     H72411   5.784   4.604   7.139  1.4024 -0.7215  0.7338
  549MOL0     H72412   5.727   4.622   6.972 -0.5665  1.0180  1.5558
  549MOL0     H72413   5.804   4.337   7.072 -1.1816 -0.1836  0.6713
  549MOL0     H72414   5.722   4.391   6.934 -2.0128  3.0320 -1.0082
  549MOL0     H72415   5.543   4.488   7.113  0.9869  1.0243  3.9927
  549MOL0     H72416   5.656   4.416   7.228  2.6564  0.1215 -0.4441
  549MOL0     H72417   5.594   4.187   7.143  2.6108  1.2435 -0.9223
  549MOL0     H72418   5.455   4.269   7.197  1.2605  0.1961  0.8881
  549MOL0     H72419   5.551   4.217   6.916  2.5136  3.9821  0.9220
  549MOL0     H72420   5.437   4.348   6.953  0.8157 -0.2117  0.9275
  549MOL0     H72421   5.437   3.969   7.030  1.0468  2.4139 -0.4913
  549MOL0     H72422   5.187   3.788   6.978  0.3590 -1.4166  0.8145
  549MOL0     H72423   5.064   3.862   7.071  0.3647 -4.3831  1.8459
  549MOL0     H72424   5.340   3.787   7.183  0.6416  0.6721  3.1906
  549MOL0     H72425   5.195   3.693   7.189 -2.1653  0.6436 -0.1354
  549MOL0     H72426   5.263   3.851   7.404 -0.8799  0.0780  0.9888
  549MOL0     H72427   5.169   3.977   7.306 -0.0554 -0.0513 -3.6910
  549MOL0     H72428   4.973   3.848   7.311  1.7442 -2.8557 -2.1494
  549MOL0     H72429   5.025   3.846   7.483 -4.8701  0.3450 -0.4779
  549MOL0     H72430   4.818   3.708   7.480  0.7780  0.4759  0.5853
  549MOL0     H72431   4.672   3.506   7.541 -0.4543 -1.1668 -0.7621
  549MOL0     H72432   4.652   2.986   7.336 -0.8868 -0.9464 -0.8550
  549MOL0     H72433   4.485   2.790   7.379 -1.0295  1.3816  0.9123
  549MOL0     H72434   4.372   2.580   7.460  0.8819 -2.3657  0.7628
  549MOL0     H72435   4.285   2.718   7.543  2.1264  1.1633 -0.8155
  549MOL0     H72436   4.279   2.563   7.737 -0.0989  2.4961 -1.9962
  549MOL0     H72437   4.326   2.426   7.623 -0.2942 -0.2931  2.1490
  549MOL0     H72438   4.097   2.401   7.622  3.1276 -0.5822  3.1867
  549MOL0     H72439   4.154   2.491   7.475 -0.4442  0.2008  0.1792
  549MOL0     H72440   4.013   2.637   7.709  1.2637  1.3768  0.0060
  549MOL0     H72441   4.037   2.698   7.555  2.7728  1.3172  2.1629
  549MOL0     H72442   3.887   2.506   7.460  1.5520  3.6312 -1.2037
  549MOL0     H72443   3.811   2.629   7.555 -0.1961 -2.0842 -2.7215
  549MOL0     H72444   3.831   2.501   7.768 -2.0697 -0.6299  0.2493
  549MOL0     H72445   3.898   2.369   7.677 -1.0324 -0.4881  1.9023
  549MOL0     H72446   3.642   2.504   7.585 -0.1428 -0.3104  0.1685
  549MOL0     H72447   3.674   2.325   7.572 -2.3029  0.2562  0.0520
  549MOL0     H72448   3.602   2.487   7.820 -2.2562 -1.1099  1.7896
  549MOL0     H72449   3.668   2.321   7.828  1.4571  2.0145  1.6281
  549MOL0     H72450   4.635   2.800   7.796 -1.1450 -2.3799 -0.9988
  549MOL0     H72451   4.772   2.999   7.736  1.4478 -0.1443 -1.3872
  549MOL0     H72452   5.002   3.244   7.422 -0.3816 -0.1346 -0.5707
  549MOL0     H72453   5.121   3.440   7.356 -0.2286 -1.6401 -1.0022
  549MOL0     H72454   6.181   5.105   6.876 -0.4268 -0.7767 -0.2021
  549MOL0     H72455   6.400   5.238   6.829  2.5671  0.0636  1.2557
  549MOL0     H72456   6.743   5.215   6.535  0.7409 -0.4149  0.8349
  549MOL0     H72457   6.911   5.337   6.412  0.4316  1.5160  0.8053
  549MOL0     H72458   7.218   5.450   6.640 -2.2880 -1.0892 -0.9017
  549MOL0     H72459   7.257   5.532   6.485  2.1707  0.9880  1.0159
  549MOL0     H72460   7.407   5.281   6.553  2.6395 -0.8855 -2.0919
  549MOL0     H72461   7.420   5.377   6.411  0.3589 -2.3466  1.1095
  549MOL0     H72462   7.484   5.487   6.698 -1.4557 -0.2806 -0.2364
  549MOL0     H72463   7.481   5.585   6.564  0.5692 -0.1604  1.0945
  549MOL0     H72464   7.631   5.329   6.577 -3.2593 -2.1133 -3.8048
  549MOL0     H72465   7.647   5.446   6.442  2.0114  2.4394  0.8634
  549MOL0     H72466   7.917   5.633   6.686 -0.1727  1.7627  0.1654
  549MOL0     H72467   7.208   5.218   6.702  0.5012  4.9763  0.2162
  549MOL0     H72468   7.046   5.115   6.828  3.8614 -0.4212 -1.2913
  550MOL0     O72469   6.490   1.439   0.742 -0.4821 -0.2621 -0.1428
  550MOL0     C72470   6.597   1.426   0.799 -0.6284  0.9349  1.0398
  550MOL0     O72471   6.625   1.367   0.922 -0.2548  0.0426  0.5871
  550MOL0     C72472   6.521   1.319   0.993 -0.3631  0.0445  0.3750
  550MOL0     C72473   6.499   1.361   1.124  0.8395 -0.6821 -0.1294
  550MOL0     C72474   6.391   1.313   1.206 -0.1688  0.1496 -0.3120
  550MOL0     C72475   6.307   1.218   1.156 -0.0748  1.7440  0.0304
  550MOL0     O72476   6.204   1.158   1.224  0.1799 -0.1408  0.1670
  550MOL0     C72477   6.200   1.167   1.368  0.2422  0.2865 -0.8307
  550MOL0     C72478   6.119   1.286   1.413 -0.5505 -0.6040 -0.4394
  550MOL0     C72479   5.965   1.260   1.417 -0.0950  0.2454  0.6111
  550MOL0     C72480   5.870   1.383   1.450 -0.4956  0.5594  0.8244
  550MOL0     C72481   5.726   1.338   1.461  0.9540 -0.5858  0.3776
  550MOL0     C72482   5.625   1.445   1.482 -0.0158 -1.1484 -0.2052
  550MOL0     C72483   5.482   1.395   1.466 -0.0447  0.5937  0.7057
  550MOL0     C72484   5.437   1.317   1.335  0.1382 -0.4018 -0.3872
  550MOL0     N72485   5.299   1.364   1.301 -0.0379  0.5531  0.5464
  550MOL0     C72486   5.187   1.291   1.330  0.6741 -0.1960 -0.5478
  550MOL0     C72487   5.090   1.386   1.309 -1.0341  0.3721 -0.1799
  550MOL0     C72488   4.939   1.364   1.329 -0.0658  0.9630  0.4170
  550MOL0     C72489   4.836   1.476   1.338 -0.3147 -0.3558 -0.0122
  550MOL0     C72490   4.697   1.438   1.375  0.0266 -0.2154  0.1733
  550MOL0     C72491   4.616   1.363   1.258 -0.0827 -0.3769 -0.5241
  550MOL0     O72492   4.481   1.376   1.312 -0.1436 -0.9853  0.3442
  550MOL0     C72493   4.371   1.379   1.224 -0.2925 -0.3441 -0.0257
  550MOL0     C72494   4.252   1.423   1.282  0.0060 -1.3731  0.2892
  550MOL0     C72495   4.128   1.413   1.207 -0.0884  0.2707  0.0440
  550MOL0     C72496   4.117   1.358   1.078  0.0732  0.1644  0.1563
  550MOL0     C72497   3.985   1.332   1.006 -0.7364 -0.0392 -1.0358
  550MOL0     O72498   3.873   1.380   1.079  0.4437  0.4728  0.6539
  550MOL0     C72499   3.754   1.364   1.020  0.5534 -0.1948 -0.0169
  550MOL0     C72500   3.658   1.351   1.119  0.0758 -0.0710 -0.3434
  550MOL0     C72501   3.528   1.347   1.084  0.3531  0.3968 -0.2128
  550MOL0     C72502   3.486   1.373   0.956  0.3530 -0.2963  0.5542
  550MOL0     O72503   3.351   1.350   0.939 -0.7804  0.2339 -0.4037
  550MOL0     C72504   3.294   1.336   0.806 -0.1451 -0.4686  0.0239
  550MOL0     C72505   3.143   1.310   0.810  0.0863 -0.7876 -0.8474
  550MOL0     C72506   3.100   1.183   0.728  0.1861  0.5572 -0.3824
  550MOL0     C72507   2.949   1.155   0.735  0.4621  0.5400  0.5149
  550MOL0     C72508   2.928   1.115   0.883  0.0001 -0.3212  0.7705
  550MOL0     C72509   2.788   1.082   0.909  0.8879 -0.7335 -0.3818
  550MOL0     C72510   2.777   1.040   1.055 -0.2245  0.8743 -0.8038
  550MOL0     C72511   2.629   1.004   1.097 -0.5854  0.7095  0.5155
  550MOL0    Cl72512   2.521   1.138   1.072  0.3223 -0.3847 -0.2196
  550MOL0     C72513   3.582   1.401   0.855  0.1669  0.1993 -0.1448
  550MOL0     C72514   3.718   1.390   0.885  0.3852 -0.4760 -0.9124
  550MOL0     O72515   3.980   1.296   0.881 -0.9674 -0.0776  0.0661
  550MOL0     C72516   4.240   1.304   1.022  0.8525 -0.7188 -0.3223
  550MOL0     C72517   4.361   1.318   1.094  0.1741 -0.4705  0.4185
  550MOL0     N72518   5.148   1.507   1.269  0.9265 -0.6703 -0.6301
  550MOL0     N72519   5.273   1.489   1.258 -0.5456 -0.1409 -0.4133
  550MOL0     C72520   6.319   1.183   1.024  0.6312  0.1870 -0.3058
  550MOL0     C72521   6.423   1.232   0.942 -0.6821 -0.4771 -0.1709
  550MOL0     C72522   6.711   1.471   0.730  0.0643 -1.6523 -0.4411
  550MOL0     C72523   6.842   1.426   0.761  0.5033  0.0280  0.2779
  550MOL0     C72524   6.954   1.465   0.690  0.3388  0.3344  0.7542
  550MOL0     C72525   6.943   1.566   0.593  0.8957  0.4458  0.0461
  550MOL0     O72526   7.044   1.631   0.529  0.3647  0.5613  0.5095
  550MOL0     C72527   7.171   1.646   0.593 -0.0992 -0.4151  0.7319
  550MOL0     C72528   7.169   1.768   0.688  0.6362  0.3608  0.8776
  550MOL0     C72529   7.145   1.893   0.615 -0.6504 -0.7631  0.0549
  550MOL0     C72530   7.243   1.931   0.504 -0.1037 -0.6165  0.6061
  550MOL0     C72531   7.376   1.970   0.548  0.7438 -0.2464 -0.0510
  550MOL0     C72532   7.492   2.009   0.562 -0.0863  0.0951  0.1508
  550MOL0     C72533   6.813   1.614   0.569 -0.6523  0.5538  0.3879
  550MOL0     C72534   6.703   1.580   0.638  0.9322  0.6748  0.8269
  550MOL0     H72535   6.554   1.446   1.162 -1.5056  0.3811  1.1048
  550MOL0     H72536   6.382   1.354   1.306  0.5000  0.9168 -0.5553
  550MOL0     H72537   6.301   1.161   1.409 -0.3558  2.6950  1.2817
  550MOL0     H72538   6.153   1.075   1.405 -2.4286  2.1988  0.8951
  550MOL0     H72539   6.154   1.371   1.354 -0.2195 -0.4757 -0.0675
  550MOL0     H72540   6.156   1.300   1.515 -2.0016 -0.7071  0.1390
  550MOL0     H72541   5.941   1.179   1.487 -1.5205  1.8166  2.0010
  550MOL0     H72542   5.945   1.227   1.315  5.9993  0.3769 -1.0069
  550MOL0     H72543   5.908   1.447   1.530  0.6913  1.5303 -0.4576
  550MOL0     H72544   5.880   1.441   1.357  1.9524 -1.2471 -0.1683
  550MOL0     H72545   5.716   1.264   1.541 -0.7516  0.5245  1.2580
  550MOL0     H72546   5.689   1.295   1.368  0.1660 -0.6438  0.7086
  550MOL0     H72547   5.637   1.538   1.424 -0.4345 -0.1847  1.2160
  550MOL0     H72548   5.638   1.487   1.582  0.3929 -0.1821 -0.6479
  550MOL0     H72549   5.472   1.321   1.546  1.3209  1.9287  2.1847
  550MOL0     H72550   5.416   1.480   1.489  2.0058  2.7909 -0.9839
  550MOL0     H72551   5.448   1.210   1.352 -2.3427 -0.6085  0.2501
  550MOL0     H72552   5.499   1.349   1.251 -2.3058  0.5800 -1.9336
  550MOL0     H72553   5.160   1.189   1.359  0.0339 -0.5549 -2.3110
  550MOL0     H72554   4.929   1.301   1.418 -0.7563 -2.0108 -1.6048
  550MOL0     H72555   4.910   1.292   1.252  0.1558  0.0304  1.1762
  550MOL0     H72556   4.840   1.529   1.242 -1.2312 -0.8827 -0.3578
  550MOL0     H72557   4.875   1.532   1.424 -2.4423 -0.1107  0.8642
  550MOL0     H72558   4.715   1.378   1.465  0.5967  0.2845  0.3990
  550MOL0     H72559   4.635   1.522   1.408  1.3231  0.7919  0.0926
  550MOL0     H72560   4.628   1.256   1.241  4.1904 -0.4347  1.6415
  550MOL0     H72561   4.624   1.411   1.160 -0.5937 -3.9322 -2.4899
  550MOL0     H72562   4.246   1.475   1.377 -0.9683  0.1428 -0.5555
  550MOL0     H72563   4.045   1.453   1.264 -1.3127 -2.6029  0.4793
  550MOL0     H72564   3.704   1.333   1.215 -0.6789  1.6323  0.3913
  550MOL0     H72565   3.467   1.318   1.169  0.3184  1.0027 -0.0243
  550MOL0     H72566   3.348   1.257   0.753 -0.2598  0.2977 -1.2586
  550MOL0     H72567   3.316   1.429   0.753 -0.3117  0.0630  0.8578
  550MOL0     H72568   3.090   1.394   0.765  0.7108  0.3579  0.4836
  550MOL0     H72569   3.110   1.305   0.914  0.1033 -1.8775 -0.8818
  550MOL0     H72570   3.154   1.096   0.765 -2.7033 -1.8192 -1.4128
  550MOL0     H72571   3.115   1.195   0.621 -4.4794 -0.0329 -1.3096
  550MOL0     H72572   2.885   1.242   0.717 -0.2495 -0.1879 -0.5064
  550MOL0     H72573   2.932   1.075   0.663  2.2402  2.0665 -1.7626
  550MOL0     H72574   2.943   1.199   0.952  1.6774  1.0978 -1.1979
  550MOL0     H72575   3.006   1.042   0.904  1.0835  0.8830  1.0437
  550MOL0     H72576   2.762   0.995   0.849 -0.8708 -0.3581 -0.2119
  550MOL0     H72577   2.722   1.166   0.885  2.1171  1.9769  4.2474
  550MOL0     H72578   2.834   0.947   1.070 -1.8230 -0.3985 -2.2587
  550MOL0     H72579   2.809   1.113   1.130  1.9927  0.1547 -0.9616
  550MOL0     H72580   2.627   0.971   1.202  0.1911 -0.6974  0.1134
  550MOL0     H72581   2.599   0.921   1.032 -0.3398  0.3931  0.8045
  550MOL0     H72582   3.552   1.419   0.752  0.5907 -1.1367 -0.5288
  550MOL0     H72583   3.790   1.417   0.809  1.3187  1.7706  0.6594
  550MOL0     H72584   4.230   1.250   0.929 -0.6503  0.3883 -0.8434
  550MOL0     H72585   4.450   1.279   1.045 -0.5765 -2.5396  0.6151
  550MOL0     H72586   6.251   1.114   0.974  0.5769  0.1635 -0.2026
  550MOL0     H72587   6.442   1.199   0.840  1.4197 -3.1480  0.9741
  550MOL0     H72588   6.860   1.355   0.841 -3.0759 -2.5955 -0.9761
  550MOL0     H72589   7.035   1.402   0.724  0.5342 -0.0428 -0.3601
  550MOL0     H72590   7.250   1.661   0.519 -0.4118 -1.0931  0.2448
  550MOL0     H72591   7.201   1.558   0.650  0.6164  0.4241  1.6772
  550MOL0     H72592   7.092   1.740   0.760 -1.6202 -0.3748 -1.6844
  550MOL0     H72593   7.262   1.769   0.745  0.1320 -1.4028  1.7782
  550MOL0     H72594   7.145   1.971   0.691  1.9896 -0.0480 -0.6034
  550MOL0     H72595   7.053   1.893   0.556  1.9004  0.9431 -4.4407
  550MOL0     H72596   7.256   1.850   0.431  0.2986 -0.6266  0.6841
  550MOL0     H72597   7.199   2.012   0.445 -0.0233 -0.4219  0.8114
  550MOL0     H72598   7.587   2.056   0.575  3.1940 -6.0550  3.2230
  550MOL0     H72599   6.795   1.699   0.503 -0.1310 -0.1425 -0.6799
  550MOL0     H72600   6.604   1.620   0.622  0.5079 -1.2484 -2.0128
  551MOL0     O72601   7.858   0.976   7.706  0.0127 -0.5859  1.0636
  551MOL0     C72602   7.850   1.023   7.821 -0.9376  0.0332 -0.2526
  551MOL0     O72603   7.947   1.032   7.910 -0.6528 -0.2216 -0.0889
  551MOL0     C72604   8.070   0.977   7.877 -0.6021 -0.6329 -0.3053
  551MOL0     C72605   8.092   0.858   7.797  0.2817  0.6146  0.3079
  551MOL0     C72606   8.220   0.810   7.769  1.0624 -0.0329 -0.6549
  551MOL0     C72607   8.324   0.876   7.850  0.6294 -0.3416 -0.1475
  551MOL0     O72608   8.451   0.819   7.836 -0.2541  0.1448 -0.3675
  551MOL0     C72609   8.557   0.913   7.817 -0.6458  0.3329  0.3886
  551MOL0     C72610   8.673   0.840   7.735  1.0334  0.4567 -0.1929
  551MOL0     C72611   8.769   0.743   7.812 -0.8779 -0.1064 -0.4013
  551MOL0     C72612   8.701   0.622   7.875  0.1189  1.1791 -1.0994
  551MOL0     C72613   8.804   0.534   7.950 -0.1835 -0.5455 -0.2015
  551MOL0     C72614   8.927   0.487   7.866  0.3624 -0.5841 -0.0267
  551MOL0     C72615   8.875   0.388   7.755 -0.4261 -0.2007 -0.2379
  551MOL0     C72616   8.995   0.322   7.665 -0.1051 -0.5679  0.0726
  551MOL0     N72617   9.066   0.428   7.587 -0.1828 -0.9088 -0.3862
  551MOL0     C72618   9.066   0.442   7.453 -0.1080 -0.4478 -0.2124
  551MOL0     C72619   9.150   0.544   7.432  0.3332  0.6002  0.4673
  551MOL0     C72620   9.202   0.596   7.307  0.7720  0.3198 -0.1773
  551MOL0     C72621   9.347   0.569   7.274  0.0229  0.5381  0.7158
  551MOL0     C72622   9.434   0.684   7.332 -0.0972  0.5377  0.2290
  551MOL0     C72623   9.582   0.650   7.335 -0.3011  0.5675  1.0640
  551MOL0     O72624   9.635   0.740   7.431 -0.8534 -0.1483  0.5614
  551MOL0     C72625   9.772   0.754   7.441 -0.3377  0.0505  0.4825
  551MOL0     C72626   9.870   0.679   7.374 -1.0097  0.4126  0.1504
  551MOL0     C72627  10.006   0.712   7.388  0.1316  0.2971  0.1819
  551MOL0     C72628  10.046   0.830   7.452 -0.4014  0.0600  0.0260
  551MOL0     C72629  10.179   0.873   7.454 -0.2186  0.4804 -0.1940
  551MOL0     O72630  10.267   0.824   7.363 -0.1193  0.1262  0.6824
  551MOL0     C72631  10.397   0.837   7.399  0.5814 -0.5348  0.6821
  551MOL0     C72632  10.462   0.956   7.353  0.2997  0.2831  0.6139
  551MOL0     C72633  10.596   0.965   7.367  0.5662  0.2401  0.2170
  551MOL0     C72634  10.670   0.855   7.424 -0.2938  0.6202  0.3696
  551MOL0     O72635  10.805   0.863   7.421  0.0227 -0.4853 -0.0835
  551MOL0     C72636  10.876   0.826   7.543 -0.6586  0.0401  0.2417
  551MOL0     C72637  11.020   0.792   7.509 -0.2492  0.5448 -0.1972
  551MOL0     C72638  11.096   0.926   7.519 -0.1632 -0.4407  0.4697
  551MOL0     C72639  11.144   0.964   7.664  0.7146  0.2279  0.1821
  551MOL0     C72640  11.233   1.088   7.680  0.2995 -0.4305 -0.0385
  551MOL0     C72641  11.187   1.221   7.615 -0.1289 -0.5412  0.3217
  551MOL0     C72642  11.051   1.268   7.657  1.4424  0.1809  0.5561
  551MOL0     C72643  11.032   1.296   7.804  0.8495 -0.2110  0.8732
  551MOL0    Cl72644  10.861   1.350   7.830 -0.3142  0.3457 -0.2705
  551MOL0     C72645  10.599   0.741   7.465 -0.1786 -0.4150  0.5998
  551MOL0     C72646  10.465   0.727   7.446 -0.2592 -0.6843  0.6803
  551MOL0     O72647  10.205   0.945   7.553  0.4123  0.8845 -0.1300
  551MOL0     C72648   9.948   0.902   7.524 -0.0355  0.0284 -0.3045
  551MOL0     C72649   9.819   0.861   7.523  0.3088 -0.1177  0.1575
  551MOL0     N72650   9.194   0.588   7.546 -0.5020  1.0428 -0.1168
  551MOL0     N72651   9.147   0.520   7.638  0.7226 -1.4568 -0.2050
  551MOL0     C72652   8.304   0.988   7.931  0.3342  1.1053 -0.3140
  551MOL0     C72653   8.177   1.038   7.948  0.3143  1.0077  0.6882
  551MOL0     C72654   7.726   1.080   7.870 -0.3556 -0.3078 -1.0026
  551MOL0     C72655   7.699   1.105   8.011  0.4810 -0.4895  0.1262
  551MOL0     C72656   7.569   1.158   8.041  0.4535  0.1589  0.0722
  551MOL0     C72657   7.475   1.200   7.943  0.8261  0.1216  0.5496
  551MOL0     O72658   7.371   1.264   8.006  0.2524  0.0480  0.5751
  551MOL0     C72659   7.264   1.308   7.912 -0.5468 -0.7274  0.8041
  551MOL0     C72660   7.135   1.358   7.993 -0.0455 -0.6348  0.2739
  551MOL0     C72661   7.069   1.251   8.075 -0.7086  0.7797 -0.2714
  551MOL0     C72662   6.935   1.297   8.128  0.3812  0.5692 -0.2428
  551MOL0     C72663   6.911   1.216   8.249  0.4096 -0.8376 -0.9702
  551MOL0     C72664   6.873   1.146   8.348 -0.7489 -1.0096  0.9308
  551MOL0     C72665   7.498   1.170   7.809 -0.8120  0.4745 -0.5065
  551MOL0     C72666   7.620   1.108   7.771 -0.0136 -1.1028 -0.5045
  551MOL0     H72667   8.011   0.813   7.739  1.9474  0.1469 -1.7735
  551MOL0     H72668   8.255   0.729   7.706  0.6837 -1.1796  0.5655
  551MOL0     H72669   8.598   0.943   7.914  1.6599 -0.0958 -0.3788
  551MOL0     H72670   8.528   1.002   7.759 -0.7616 -1.0116 -1.7190
  551MOL0     H72671   8.728   0.915   7.678 -0.2838  1.5872 -0.0315
  551MOL0     H72672   8.630   0.792   7.647  0.2229  0.9822 -0.0928
  551MOL0     H72673   8.830   0.797   7.886 -1.7204  0.4403 -0.0886
  551MOL0     H72674   8.835   0.712   7.731 -0.0066  0.7130 -0.0373
  551MOL0     H72675   8.637   0.670   7.950  2.2850  0.2683  1.5310
  551MOL0     H72676   8.639   0.570   7.802  1.0154  0.9726 -1.7362
  551MOL0     H72677   8.752   0.447   7.991  0.0770 -0.3090  0.6469
  551MOL0     H72678   8.850   0.594   8.029  0.3073  1.7032 -2.0851
  551MOL0     H72679   8.995   0.422   7.924 -1.5950 -2.6034  0.1354
  551MOL0     H72680   8.972   0.579   7.828 -0.4818  1.1214  2.7415
  551MOL0     H72681   8.816   0.304   7.793 -0.8446  0.4152  0.5051
  551MOL0     H72682   8.807   0.435   7.684  0.1824 -2.1255 -2.1692
  551MOL0     H72683   8.954   0.249   7.595  0.5417  0.1898 -1.1358
  551MOL0     H72684   9.073   0.271   7.722  0.2015 -0.2729 -0.0777
  551MOL0     H72685   9.016   0.382   7.378 -0.1856 -0.4906 -0.1260
  551MOL0     H72686   9.199   0.706   7.305  0.8955  0.3144 -1.3141
  551MOL0     H72687   9.133   0.565   7.227  0.8171  0.5535 -0.3082
  551MOL0     H72688   9.366   0.577   7.167  1.1548 -0.8391  0.7828
  551MOL0     H72689   9.389   0.472   7.302  4.0001  1.2439 -2.0027
  551MOL0     H72690   9.415   0.775   7.274  2.5554  0.8955 -0.2047
  551MOL0     H72691   9.405   0.698   7.436 -0.9310  1.3472 -0.0994
  551MOL0     H72692   9.631   0.653   7.238  1.7881 -0.8287  1.9838
  551MOL0     H72693   9.605   0.548   7.369  1.5317 -0.9265 -3.8555
  551MOL0     H72694   9.845   0.590   7.318  0.9901  0.5628 -1.0831
  551MOL0     H72695  10.078   0.653   7.331 -0.3372 -2.2723  2.0327
  551MOL0     H72696  10.413   1.039   7.303  0.4771  1.9586  3.0402
  551MOL0     H72697  10.648   1.048   7.320  2.3459 -0.1556  1.3717
  551MOL0     H72698  10.831   0.741   7.596 -0.9882 -1.0559 -1.6901
  551MOL0     H72699  10.875   0.909   7.613  1.8106  0.7643 -0.4914
  551MOL0     H72700  11.042   0.741   7.415  4.0691 -0.7570  1.3196
  551MOL0     H72701  11.068   0.731   7.586  2.0475  1.1048 -1.1227
  551MOL0     H72702  11.028   0.999   7.474  0.8971 -1.2176 -2.6184
  551MOL0     H72703  11.177   0.911   7.448 -2.1009  1.8495 -2.4849
  551MOL0     H72704  11.055   0.979   7.726  0.0114  0.7974 -0.9326
  551MOL0     H72705  11.201   0.880   7.705  1.0347 -0.2678 -1.2427
  551MOL0     H72706  11.335   1.072   7.643  0.6487  0.3299  0.5740
  551MOL0     H72707  11.245   1.094   7.789  1.7092 -0.6926 -0.1550
  551MOL0     H72708  11.185   1.205   7.507 -2.8081 -0.0991  0.2511
  551MOL0     H72709  11.267   1.292   7.640 -0.2253  0.5209 -2.1285
  551MOL0     H72710  11.043   1.364   7.606 -0.4483  0.5450  1.4693
  551MOL0     H72711  10.973   1.205   7.614  1.2743  2.4133 -2.7650
  551MOL0     H72712  11.091   1.377   7.846  0.6970  1.4380 -1.8850
  551MOL0     H72713  11.047   1.204   7.862 -0.2931 -1.7402 -1.1072
  551MOL0     H72714  10.641   0.649   7.503 -2.7452 -2.9151 -2.0849
  551MOL0     H72715  10.414   0.632   7.463 -0.0683 -0.7675  0.7810
  551MOL0     H72716   9.974   0.980   7.596 -2.2303 -0.1852  0.7941
  551MOL0     H72717   9.745   0.928   7.564  2.8244  1.7464  1.9574
  551MOL0     H72718   8.388   1.028   7.986  1.5549 -1.1168 -0.4385
  551MOL0     H72719   8.143   1.118   8.014 -0.8117  0.3743  0.9171
  551MOL0     H72720   7.766   1.093   8.096 -0.8714  1.2622  1.5175
  551MOL0     H72721   7.550   1.173   8.147 -1.2571  1.8497 -0.4219
  551MOL0     H72722   7.229   1.223   7.853 -1.8931  0.0257  0.4813
  551MOL0     H72723   7.310   1.377   7.841  1.9475 -1.7903  1.2687
  551MOL0     H72724   7.158   1.445   8.055 -3.5119  1.4038 -1.0548
  551MOL0     H72725   7.072   1.392   7.911  1.0595 -0.4211 -0.5140
  551MOL0     H72726   7.131   1.222   8.160 -1.9116  1.1894  0.7914
  551MOL0     H72727   7.053   1.163   8.013 -0.4440  0.8697 -0.4703
  551MOL0     H72728   6.935   1.403   8.152  0.3569  0.5662 -0.2296
  551MOL0     H72729   6.851   1.275   8.062  0.7047  0.0746 -0.5017
  551MOL0     H72730   6.834   1.067   8.409 -2.9680  0.5738  1.6521
  551MOL0     H72731   7.433   1.193   7.725 -3.4317 -1.5446  0.8101
  551MOL0     H72732   7.628   1.085   7.665 -0.7407 -0.5794 -0.6797
  552MOL0     O72733   7.652   2.492   4.014  0.6556  0.0948 -0.3895
  552MOL0     C72734   7.725   2.471   3.917  0.2037  0.2272  0.1453
  552MOL0     O72735   7.689   2.436   3.793  0.2151  0.6209  0.3821
  552MOL0     C72736   7.567   2.389   3.764  0.8610 -0.2907  0.8009
  552MOL0     C72737   7.545   2.366   3.626  0.3888  0.1586 -0.0835
  552MOL0     C72738   7.421   2.291   3.586 -0.5172 -0.3742 -0.0961
  552MOL0     C72739   7.330   2.246   3.682  0.1502 -0.4080 -0.3928
  552MOL0     O72740   7.217   2.188   3.635  0.2944  0.4833 -0.1189
  552MOL0     C72741   7.093   2.161   3.710  0.5700 -0.5259 -0.0148
  552MOL0     C72742   6.978   2.176   3.614 -0.0926  0.9674 -0.4078
  552MOL0     C72743   6.852   2.118   3.675 -0.1386 -0.2397 -0.8132
  552MOL0     C72744   6.736   2.126   3.573 -0.0451 -0.3747  0.0240
  552MOL0     C72745   6.615   2.039   3.627 -0.9715 -0.4242 -0.0934
  552MOL0     C72746   6.497   2.023   3.542 -0.8728 -0.5904  0.3185
  552MOL0     C72747   6.389   1.934   3.608  0.2316 -0.0781  0.0511
  552MOL0     C72748   6.251   1.962   3.547 -0.4742 -0.5943 -0.1567
  552MOL0     N72749   6.153   1.857   3.573 -0.0706  0.0881 -0.3130
  552MOL0     C72750   6.076   1.805   3.476 -0.2995  0.6365  0.2332
  552MOL0     C72751   5.974   1.748   3.529 -0.0472 -0.0681  0.7354
  552MOL0     C72752   5.861   1.683   3.449  0.3897 -1.0038 -0.1234
  552MOL0     C72753   5.898   1.544   3.411  0.4141 -0.1038 -0.4371
  552MOL0     C72754   5.815   1.491   3.287 -0.2448  0.5907  0.5379
  552MOL0     C72755   5.689   1.418   3.338 -0.1931 -0.0829 -0.5987
  552MOL0     O72756   5.595   1.527   3.371 -0.1943  0.0820  0.0134
  552MOL0     C72757   5.464   1.489   3.361  0.4414  0.8892  0.5753
  552MOL0     C72758   5.363   1.578   3.379 -0.4799 -0.3527  0.6404
  552MOL0     C72759   5.228   1.542   3.394  0.0055  0.4574  0.0553
  552MOL0     C72760   5.189   1.409   3.390  0.4313 -0.4176 -0.0170
  552MOL0     C72761   5.046   1.389   3.396 -0.9441 -0.0857  0.3790
  552MOL0     O72762   4.972   1.476   3.472  0.0046 -0.2214  0.2450
  552MOL0     C72763   4.842   1.465   3.480  0.4590  0.4040  0.3560
  552MOL0     C72764   4.764   1.563   3.422  0.1635  0.4321 -0.9251
  552MOL0     C72765   4.620   1.558   3.451 -0.5870  1.3346 -0.3478
  552MOL0     C72766   4.561   1.464   3.536  0.4764 -0.2851 -0.1365
  552MOL0     O72767   4.428   1.452   3.572  0.3876 -0.3029 -0.5930
  552MOL0     C72768   4.339   1.563   3.576  0.2944 -0.8022  0.3608
  552MOL0     C72769   4.198   1.510   3.543  0.7136 -0.6661  0.4471
  552MOL0     C72770   4.079   1.597   3.555  0.1925 -0.5021  0.0821
  552MOL0     C72771   3.956   1.520   3.523  0.1753 -0.7883  0.1017
  552MOL0     C72772   3.823   1.569   3.605  0.6643 -0.0100  0.1576
  552MOL0     C72773   3.772   1.697   3.529 -0.0817 -0.4465  1.1366
  552MOL0     C72774   3.651   1.778   3.600 -0.2138  0.4818  0.1727
  552MOL0     C72775   3.517   1.739   3.533  1.0434 -0.2794  0.1035
  552MOL0    Cl72776   3.396   1.864   3.564 -0.5965  0.4412  0.3555
  552MOL0     C72777   4.647   1.366   3.590 -0.3880  0.5695  0.3713
  552MOL0     C72778   4.784   1.375   3.573 -0.5208  0.4735  0.6195
  552MOL0     O72779   5.007   1.297   3.326 -0.3260  0.1448 -0.5529
  552MOL0     C72780   5.289   1.316   3.362  0.3152 -0.9505 -0.7906
  552MOL0     C72781   5.423   1.350   3.368 -0.3443  0.6964  0.2579
  552MOL0     N72782   5.975   1.785   3.663  0.0231  0.2378  0.6968
  552MOL0     N72783   6.080   1.856   3.684 -0.2795 -0.5117 -0.6731
  552MOL0     C72784   7.355   2.272   3.811  0.1871  0.2346  0.7802
  552MOL0     C72785   7.471   2.334   3.852  0.7522  0.9099  0.1353
  552MOL0     C72786   7.869   2.496   3.941 -0.2866  0.4517  0.8564
  552MOL0     C72787   7.959   2.506   3.842 -0.1463  0.3029 -0.6322
  552MOL0     C72788   8.093   2.546   3.861  0.1346 -0.0406 -0.6760
  552MOL0     C72789   8.130   2.586   3.996 -0.4759 -0.8680  0.7113
  552MOL0     O72790   8.248   2.653   4.033  0.2215  0.2289 -0.2996
  552MOL0     C72791   8.359   2.658   3.940  0.8254 -0.2099  0.8594
  552MOL0     C72792   8.478   2.718   4.014  0.1033 -0.5654  0.7006
  552MOL0     C72793   8.592   2.757   3.912  0.3613 -1.0429  0.0911
  552MOL0     C72794   8.684   2.853   3.987 -0.3544  0.4080  0.5623
  552MOL0     C72795   8.806   2.897   3.918  0.2672 -0.4408  0.4619
  552MOL0     C72796   8.897   2.943   3.850  0.9717  1.1781 -0.1476
  552MOL0     C72797   8.043   2.574   4.102  0.7040  0.3056  0.1606
  552MOL0     C72798   7.903   2.532   4.069 -0.2832  1.0977 -0.4331
  552MOL0     H72799   7.616   2.407   3.554 -0.6101 -1.2898 -1.9577
  552MOL0     H72800   7.404   2.273   3.480  0.0922 -1.6467  0.0019
  552MOL0     H72801   7.085   2.243   3.782 -1.3042  1.8640 -2.7425
  552MOL0     H72802   7.085   2.060   3.751 -1.6389  1.1008  4.1167
  552MOL0     H72803   7.009   2.121   3.525 -1.4316 -2.3655  1.0225
  552MOL0     H72804   6.964   2.281   3.585  3.8786  2.3121  1.7509
  552MOL0     H72805   6.845   2.187   3.760 -1.1776 -0.9423 -0.3072
  552MOL0     H72806   6.881   2.018   3.708  2.1286  0.7002  0.2781
  552MOL0     H72807   6.701   2.230   3.570 -1.1274 -0.7219  0.0363
  552MOL0     H72808   6.767   2.098   3.473  1.4654  3.3695 -0.7415
  552MOL0     H72809   6.577   2.099   3.711  0.1918  1.8570 -1.1234
  552MOL0     H72810   6.654   1.948   3.675  0.9786  0.7098  0.5574
  552MOL0     H72811   6.538   1.982   3.449  3.2025  1.0997  1.1458
  552MOL0     H72812   6.461   2.121   3.511  1.8490  0.4500  0.2244
  552MOL0     H72813   6.410   1.829   3.586  2.4754  0.4849 -0.7525
  552MOL0     H72814   6.378   1.951   3.716  0.3309  0.2196  0.0156
  552MOL0     H72815   6.264   1.992   3.442 -0.1964  4.2275  1.0219
  552MOL0     H72816   6.224   2.057   3.593  2.1378 -0.7516  1.9678
  552MOL0     H72817   6.092   1.812   3.368  2.4180 -2.1663  0.3108
  552MOL0     H72818   5.838   1.733   3.355 -0.9784 -1.4615 -0.0547
  552MOL0     H72819   5.769   1.683   3.508  2.0282 -0.7797  2.6142
  552MOL0     H72820   5.876   1.469   3.487 -0.5644 -3.1886 -3.5066
  552MOL0     H72821   6.002   1.528   3.381 -0.0549 -1.3309 -1.5006
  552MOL0     H72822   5.777   1.576   3.228  2.0872 -0.1144 -2.1848
  552MOL0     H72823   5.877   1.438   3.214  1.0606  1.9243  0.6349
  552MOL0     H72824   5.717   1.367   3.430  1.1338 -0.3185 -1.1107
  552MOL0     H72825   5.645   1.362   3.255 -2.0892  0.4188  0.0061
  552MOL0     H72826   5.377   1.685   3.375  2.1270 -0.5943  1.5252
  552MOL0     H72827   5.159   1.624   3.414  0.8596  0.8438  1.6833
  552MOL0     H72828   4.811   1.637   3.357  2.1757 -0.4959 -0.6030
  552MOL0     H72829   4.552   1.631   3.408 -0.9747  0.6144 -0.9708
  552MOL0     H72830   4.375   1.640   3.507 -0.1758 -1.7455 -0.9741
  552MOL0     H72831   4.328   1.606   3.676 -1.7516 -0.4069  0.0076
  552MOL0     H72832   4.166   1.431   3.612 -3.0729 -0.0786 -0.4179
  552MOL0     H72833   4.193   1.474   3.440  0.8283 -2.2774  0.9772
  552MOL0     H72834   4.079   1.678   3.482 -1.3477  1.1090  1.7659
  552MOL0     H72835   4.083   1.645   3.654  3.6169  0.1164 -0.2331
  552MOL0     H72836   3.933   1.526   3.416  0.8579 -3.4769 -0.2711
  552MOL0     H72837   3.977   1.415   3.543 -0.5337 -1.3405 -1.8123
  552MOL0     H72838   3.844   1.606   3.705 -4.0900  2.3589  0.5914
  552MOL0     H72839   3.748   1.489   3.608  1.3988 -0.7006  0.3322
  552MOL0     H72840   3.744   1.680   3.424 -2.5715  3.3502  0.9979
  552MOL0     H72841   3.847   1.776   3.517  1.4961 -1.7518  2.1104
  552MOL0     H72842   3.652   1.766   3.708  0.2831  0.1403  0.1324
  552MOL0     H72843   3.668   1.884   3.580 -0.0929  0.2883 -0.8024
  552MOL0     H72844   3.480   1.647   3.580  0.9759 -0.3812 -0.1490
  552MOL0     H72845   3.529   1.730   3.425 -0.6577 -0.4090 -0.0923
  552MOL0     H72846   4.621   1.281   3.652  2.8034 -0.2434  0.8025
  552MOL0     H72847   4.844   1.301   3.624 -0.0173  1.0855  0.9382
  552MOL0     H72848   5.261   1.211   3.363 -1.5957 -0.4840 -0.3830
  552MOL0     H72849   5.497   1.270   3.364  2.1471  2.6078  3.3475
  552MOL0     H72850   7.278   2.243   3.882 -1.3914 -1.7047 -1.5606
  552MOL0     H72851   7.475   2.349   3.959  0.4676  0.3610  0.2217
  552MOL0     H72852   7.924   2.493   3.740 -1.4329  0.8252 -0.2810
  552MOL0     H72853   8.172   2.535   3.788 -1.2921  0.3951 -2.3372
  552MOL0     H72854   8.318   2.714   3.856  2.6450  0.1025  0.1344
  552MOL0     H72855   8.386   2.554   3.919  3.1019  0.5634 -0.2966
  552MOL0     H72856   8.447   2.803   4.075 -2.0805 -0.6904 -0.1174
  552MOL0     H72857   8.521   2.634   4.068 -0.9856 -3.2051 -2.2385
  552MOL0     H72858   8.548   2.798   3.821 -2.9540 -0.8904  1.6030
  552MOL0     H72859   8.659   2.677   3.881  2.7855  0.8866  0.0570
  552MOL0     H72860   8.632   2.946   4.011  0.9449  1.2445  0.2330
  552MOL0     H72861   8.716   2.807   4.081  3.1584  1.0448 -0.1557
  552MOL0     H72862   8.981   2.977   3.793  1.0446 -1.7942 -2.0231
  552MOL0     H72863   8.062   2.610   4.202 -1.0829  0.4816  0.4842
  552MOL0     H72864   7.841   2.520   4.158  0.5962 -2.5581 -0.1713
  553MOL0     O72865   2.031  10.523   4.330 -0.4008  0.5364 -0.0751
  553MOL0     C72866   2.078  10.600   4.246 -0.2523 -0.2023  0.1020
  553MOL0     O72867   2.005  10.674   4.151 -0.1387 -0.9469 -0.2562
  553MOL0     C72868   1.871  10.658   4.135 -0.7739  0.3793  0.6175
  553MOL0     C72869   1.781  10.721   4.224 -1.2281 -0.6333 -0.3114
  553MOL0     C72870   1.643  10.706   4.202 -0.6674  0.3382 -0.6370
  553MOL0     C72871   1.597  10.634   4.101 -0.4352  0.2960  0.4113
  553MOL0     O72872   1.466  10.615   4.081  0.6535  0.1556  1.0011
  553MOL0     C72873   1.357  10.682   4.157 -0.0944 -0.1029  0.2162
  553MOL0     C72874   1.216  10.646   4.096  0.0284 -0.2549 -0.0297
  553MOL0     C72875   1.129  10.557   4.181 -0.6255  0.4458 -1.0745
  553MOL0     C72876   1.101  10.612   4.321  0.4954  0.4281 -0.0162
  553MOL0     C72877   1.065  10.506   4.428  0.1184  0.0024  0.5797
  553MOL0     C72878   1.189  10.426   4.464 -0.0176  0.3983  0.6907
  553MOL0     C72879   1.317  10.498   4.519  0.0620 -0.1726  0.3778
  553MOL0     C72880   1.425  10.401   4.576 -0.5268 -0.6906 -0.7223
  553MOL0     N72881   1.474  10.307   4.479  0.8210  0.3101 -0.6513
  553MOL0     C72882   1.531  10.338   4.360 -1.2568 -0.6470 -0.8799
  553MOL0     C72883   1.566  10.213   4.317 -0.9176 -0.9066  0.2299
  553MOL0     C72884   1.646  10.180   4.198 -0.1931  0.2320 -0.0858
  553MOL0     C72885   1.787  10.224   4.217  0.3206  0.0668  0.4283
  553MOL0     C72886   1.862  10.140   4.318 -0.0986  0.6211  0.2994
  553MOL0     C72887   2.008  10.170   4.298  0.2261  0.6092 -0.3164
  553MOL0     O72888   2.077  10.118   4.411  0.9387 -0.4841 -0.0107
  553MOL0     C72889   2.209  10.156   4.428 -0.2699 -0.3002 -0.2513
  553MOL0     C72890   2.279  10.094   4.538 -0.0539 -0.8025 -0.1696
  553MOL0     C72891   2.412  10.106   4.566  0.5327  0.8767 -0.0708
  553MOL0     C72892   2.482  10.198   4.497  0.3086 -0.6853 -0.8046
  553MOL0     C72893   2.621  10.240   4.536 -0.5397 -0.3599  0.2275
  553MOL0     O72894   2.684  10.172   4.637 -0.4802  0.1745  0.1337
  553MOL0     C72895   2.790  10.237   4.693 -0.3363 -0.5147 -1.3798
  553MOL0     C72896   2.922  10.229   4.639  0.8729 -0.0762  0.2438
  553MOL0     C72897   3.029  10.287   4.702 -0.2012  0.3930 -0.1601
  553MOL0     C72898   3.011  10.354   4.826  0.1274  0.3295 -1.3442
  553MOL0     O72899   3.128  10.411   4.875  0.4300  0.5568 -0.2529
  553MOL0     C72900   3.117  10.507   4.978  0.2202 -0.3050 -0.2050
  553MOL0     C72901   3.264  10.550   5.000 -0.8712  0.5759 -0.1774
  553MOL0     C72902   3.293  10.659   5.100 -1.0275 -0.7803  0.2852
  553MOL0     C72903   3.448  10.682   5.124  0.7074 -0.1405 -0.2679
  553MOL0     C72904   3.462  10.795   5.233 -0.0441  0.4391 -0.7918
  553MOL0     C72905   3.612  10.823   5.251 -0.0062  0.4117 -0.2753
  553MOL0     C72906   3.644  10.970   5.295 -0.1001 -0.1364 -0.3708
  553MOL0     C72907   3.784  11.003   5.289  0.8434  0.5216  0.3726
  553MOL0    Cl72908   3.838  11.026   5.121  0.5969  0.3889 -0.2904
  553MOL0     C72909   2.880  10.355   4.886  0.0180  0.1510 -0.4986
  553MOL0     C72910   2.772  10.295   4.822  0.4221  0.2370 -0.2506
  553MOL0     O72911   2.673  10.326   4.463 -0.0435 -0.2619  0.6933
  553MOL0     C72912   2.417  10.265   4.384 -0.6267  0.7163 -0.3275
  553MOL0     C72913   2.286  10.247   4.354  0.6147  0.4029 -0.0221
  553MOL0     N72914   1.525  10.108   4.405 -0.2822 -0.8082 -0.0203
  553MOL0     N72915   1.464  10.171   4.494  0.2116 -0.3338  0.0370
  553MOL0     C72916   1.683  10.568   4.012 -0.4841 -0.2661 -0.1095
  553MOL0     C72917   1.823  10.581   4.026  0.0230  0.1978 -0.9503
  553MOL0     C72918   2.220  10.634   4.259 -0.8529 -0.1056 -0.8150
  553MOL0     C72919   2.296  10.621   4.383 -0.3531 -0.5167  0.5291
  553MOL0     C72920   2.426  10.646   4.390 -0.8656 -0.4047  0.2383
  553MOL0     C72921   2.497  10.683   4.273  0.4411  0.5959  0.0863
  553MOL0     O72922   2.632  10.712   4.256  0.1027  0.1484  0.7162
  553MOL0     C72923   2.721  10.728   4.363  0.3028  0.5092  0.1367
  553MOL0     C72924   2.851  10.782   4.310  0.4270  1.0289  0.7872
  553MOL0     C72925   2.914  10.697   4.197 -0.1511  0.2175 -0.3500
  553MOL0     C72926   2.911  10.545   4.222 -0.0533  0.9166  0.4834
  553MOL0     C72927   2.989  10.504   4.334 -0.0378  0.0506  0.1908
  553MOL0     C72928   3.045  10.467   4.434 -0.9637  0.8649 -0.3002
  553MOL0     C72929   2.426  10.705   4.154  0.5131  0.0789  0.1854
  553MOL0     C72930   2.289  10.696   4.147  0.0167  0.0739 -0.3497
  553MOL0     H72931   1.825  10.790   4.296 -0.2112  1.1643 -2.5300
  553MOL0     H72932   1.579  10.752   4.276 -0.1190  2.3183 -1.3355
  553MOL0     H72933   1.364  10.791   4.150  1.4508 -0.2593 -1.5333
  553MOL0     H72934   1.361  10.660   4.264 -2.6921 -0.4249  0.3151
  553MOL0     H72935   1.230  10.584   4.007  2.1802  0.7145 -0.4474
  553MOL0     H72936   1.155  10.736   4.085 -1.1171 -1.1165 -0.9363
  553MOL0     H72937   1.168  10.455   4.185 -1.4234  0.1392 -0.8710
  553MOL0     H72938   1.036  10.536   4.127 -0.7405 -1.6412 -0.1733
  553MOL0     H72939   1.177  10.682   4.357 -0.3536  2.1940 -1.5067
  553MOL0     H72940   1.019  10.681   4.298  0.6388  1.1367  1.4644
  553MOL0     H72941   0.987  10.439   4.390 -0.3641  0.1345  1.3127
  553MOL0     H72942   1.032  10.555   4.519 -2.6603  1.1111 -0.9099
  553MOL0     H72943   1.216  10.371   4.374 -1.1805  1.2616 -0.2340
  553MOL0     H72944   1.163  10.350   4.537 -1.0452 -1.0522 -1.1011
  553MOL0     H72945   1.365  10.551   4.437  1.9988 -0.6500  1.1512
  553MOL0     H72946   1.286  10.566   4.599  2.1919  3.1272 -1.3651
  553MOL0     H72947   1.394  10.362   4.673  0.4427  1.8757  0.7168
  553MOL0     H72948   1.516  10.453   4.607  0.1993 -2.4538  0.2435
  553MOL0     H72949   1.565  10.433   4.320 -4.3644  3.9029  5.4705
  553MOL0     H72950   1.591  10.219   4.112 -0.0152 -2.9261 -1.7700
  553MOL0     H72951   1.638  10.075   4.168 -1.2172 -0.6370  2.8506
  553MOL0     H72952   1.780  10.328   4.249  0.3664 -0.3828  1.9900
  553MOL0     H72953   1.839  10.218   4.121  0.7046 -1.3337  0.6897
  553MOL0     H72954   1.830  10.151   4.422  1.5121 -0.7915  1.0015
  553MOL0     H72955   1.854  10.035   4.289  1.6714  0.4349  0.3334
  553MOL0     H72956   2.023  10.278   4.294  3.9128  0.2382 -0.8060
  553MOL0     H72957   2.049  10.121   4.209  0.5714  0.8352 -0.2854
  553MOL0     H72958   2.224  10.021   4.597  1.2174  0.8466  3.3344
  553MOL0     H72959   2.467  10.051   4.641 -0.5216  0.0222  0.0978
  553MOL0     H72960   2.932  10.181   4.542  2.5002  2.0765 -0.7370
  553MOL0     H72961   3.126  10.278   4.655  0.4706 -3.9606  1.5611
  553MOL0     H72962   3.079  10.461   5.069  0.5779 -1.3945 -0.5871
  553MOL0     H72963   3.054  10.592   4.950  1.7142  0.9699  0.1703
  553MOL0     H72964   3.292  10.590   4.902  2.4832 -1.7239 -0.3086
  553MOL0     H72965   3.336  10.473   5.027  0.3263  1.0320 -1.9297
  553MOL0     H72966   3.243  10.645   5.196 -2.4986  1.4352 -0.0942
  553MOL0     H72967   3.247  10.751   5.064  2.3502  1.9489  2.2771
  553MOL0     H72968   3.500  10.590   5.151 -1.3429 -0.6195  2.4167
  553MOL0     H72969   3.491  10.723   5.032 -0.1091  1.2551 -0.0599
  553MOL0     H72970   3.425  10.765   5.332 -1.5555  2.4626 -0.6685
  553MOL0     H72971   3.409  10.889   5.216  0.0931  1.2771  2.6831
  553MOL0     H72972   3.650  10.799   5.151 -0.1631 -1.4437  0.0633
  553MOL0     H72973   3.664  10.749   5.314  2.3790  0.4076 -2.1348
  553MOL0     H72974   3.588  11.040   5.232 -2.7126 -1.6127  0.1475
  553MOL0     H72975   3.613  10.971   5.399  1.0405 -3.5028  0.1162
  553MOL0     H72976   3.844  10.924   5.335 -0.7192 -1.6169 -1.1038
  553MOL0     H72977   3.791  11.092   5.352  0.1606  0.4508  0.5514
  553MOL0     H72978   2.847  10.412   4.972  4.0597  1.0173  0.6940
  553MOL0     H72979   2.673  10.292   4.867  0.2577 -0.2945 -0.6436
  553MOL0     H72980   2.469  10.341   4.327 -1.4388  0.8593 -0.8949
  553MOL0     H72981   2.241  10.315   4.283 -0.3724  0.9737  1.1075
  553MOL0     H72982   1.656  10.497   3.935  0.3751 -1.6675  0.8343
  553MOL0     H72983   1.893  10.536   3.956 -1.3282  2.3226 -3.8832
  553MOL0     H72984   2.246  10.578   4.469  0.3706 -1.7736  0.3454
  553MOL0     H72985   2.477  10.626   4.484  4.5028 -2.7182 -2.6917
  553MOL0     H72986   2.743  10.635   4.416 -0.7790 -0.1066 -0.4506
  553MOL0     H72987   2.677  10.801   4.432  1.2205  0.0463  1.2308
  553MOL0     H72988   2.835  10.881   4.266  1.1242  2.0624  2.7529
  553MOL0     H72989   2.913  10.785   4.400  0.3187  3.4545  0.8375
  553MOL0     H72990   3.016  10.732   4.184 -0.8941  2.1557 -1.2626
  553MOL0     H72991   2.866  10.716   4.101  1.5201 -0.7737 -1.4249
  553MOL0     H72992   2.810  10.504   4.219 -0.1387  1.1633 -0.8732
  553MOL0     H72993   2.944  10.488   4.134 -0.1079  1.9415 -0.2249
  553MOL0     H72994   3.103  10.442   4.520  0.9566  0.3396 -1.6720
  553MOL0     H72995   2.471  10.753   4.068 -0.6775  3.5209  1.3106
  553MOL0     H72996   2.242  10.723   4.053  2.7219 -0.6768 -2.0159
  554MOL0     O72997  11.081   7.333   2.826 -0.1796  0.9060 -1.0355
  554MOL0     C72998  11.020   7.369   2.931 -0.0523  0.2790  0.0990
  554MOL0     O72999  10.884   7.389   2.944  0.2053  0.4115 -0.0809
  554MOL0     C73000  10.802   7.339   2.843 -0.0216 -0.6850  0.1214
  554MOL0     C73001  10.814   7.210   2.786  1.0540 -0.9728  0.2165
  554MOL0     C73002  10.708   7.160   2.703  0.2631 -0.8186  0.3540
  554MOL0     C73003  10.597   7.244   2.682 -0.4707 -0.6100  0.4426
  554MOL0     O73004  10.498   7.175   2.617  0.3765  0.7197  0.0157
  554MOL0     C73005  10.409   7.250   2.536  0.0446 -0.3385 -0.0846
  554MOL0     C73006  10.283   7.298   2.609  0.1802  0.2755 -0.4152
  554MOL0     C73007  10.149   7.223   2.596 -0.8823  0.8622 -0.3727
  554MOL0     C73008  10.110   7.227   2.444  0.0877  0.1026 -0.2478
  554MOL0     C73009  10.013   7.098   2.428  0.1645 -0.3023  0.0616
  554MOL0     C73010   9.959   7.101   2.281 -0.3189  0.1138 -0.0674
  554MOL0     C73011   9.833   7.032   2.272 -0.2644 -0.3322  0.3493
  554MOL0     C73012   9.770   7.048   2.138  0.6754  0.7274  0.0847
  554MOL0     N73013   9.634   6.984   2.156 -0.6160 -0.4312  0.5118
  554MOL0     C73014   9.616   6.848   2.163 -0.3459  0.8451 -0.1800
  554MOL0     C73015   9.482   6.826   2.155 -0.1377  0.5601 -0.7771
  554MOL0     C73016   9.413   6.690   2.173  0.4697  0.4895 -0.5527
  554MOL0     C73017   9.295   6.668   2.082  0.6589  0.3002  0.8588
  554MOL0     C73018   9.179   6.776   2.095 -0.3544 -0.0721 -0.4439
  554MOL0     C73019   9.052   6.733   2.019  0.8564  0.1959  0.7378
  554MOL0     O73020   9.072   6.751   1.883 -0.8213  0.4479 -0.1601
  554MOL0     C73021   9.011   6.666   1.797  0.4841 -0.3645 -0.6560
  554MOL0     C73022   8.945   6.724   1.690 -0.0920 -0.0811 -0.5988
  554MOL0     C73023   8.873   6.666   1.593 -0.5876 -0.6158  0.6782
  554MOL0     C73024   8.854   6.529   1.601 -0.1790  1.3263  0.1089
  554MOL0     C73025   8.779   6.465   1.491  0.2427  0.2044  0.7684
  554MOL0     O73026   8.711   6.559   1.410  0.0091  0.2726 -0.0608
  554MOL0     C73027   8.598   6.530   1.349  0.6132  0.0245  0.3792
  554MOL0     C73028   8.539   6.614   1.242 -0.2311 -0.1377  0.4295
  554MOL0     C73029   8.415   6.587   1.181  0.6614  0.0891  0.3339
  554MOL0     C73030   8.342   6.472   1.230 -0.6307  0.6672  0.1108
  554MOL0     O73031   8.215   6.446   1.189  0.0905 -0.0226 -0.3110
  554MOL0     C73032   8.134   6.561   1.141  0.6473  0.0042 -0.6836
  554MOL0     C73033   7.986   6.532   1.195 -0.8380  0.4184 -0.9535
  554MOL0     C73034   7.886   6.634   1.138  0.1920  0.0903 -0.8495
  554MOL0     C73035   7.739   6.584   1.177  1.2251 -0.5034  0.9408
  554MOL0     C73036   7.638   6.678   1.107  0.2786  0.1494 -0.7387
  554MOL0     C73037   7.494   6.613   1.115 -0.9425  1.0228 -0.4521
  554MOL0     C73038   7.395   6.708   1.046 -0.4264 -0.4598 -0.0071
  554MOL0     C73039   7.252   6.679   1.075 -0.4777 -0.3929  0.8298
  554MOL0    Cl73040   7.145   6.823   1.042 -0.4945  0.4770 -0.0736
  554MOL0     C73041   8.394   6.386   1.325  0.4406 -0.5503  0.8159
  554MOL0     C73042   8.518   6.418   1.379  0.5710  0.8754  0.2730
  554MOL0     O73043   8.779   6.344   1.471  0.1791  0.0752 -0.1563
  554MOL0     C73044   8.908   6.454   1.718  0.0851 -0.8922  0.2720
  554MOL0     C73045   8.992   6.524   1.815 -0.6671  0.0224 -0.8670
  554MOL0     N73046   9.421   6.954   2.162 -0.3855  0.3914  0.6662
  554MOL0     N73047   9.511   7.047   2.158 -0.3082  0.6980  0.4866
  554MOL0     C73048  10.583   7.370   2.742  0.5067  0.0673 -0.5012
  554MOL0     C73049  10.689   7.422   2.813 -0.9916 -0.3326 -1.4631
  554MOL0     C73050  11.099   7.411   3.047  0.0315 -0.4436  0.5510
  554MOL0     C73051  11.041   7.450   3.171 -0.7447  0.5123  0.2596
  554MOL0     C73052  11.130   7.471   3.282 -0.4399 -0.1362  0.1095
  554MOL0     C73053  11.271   7.461   3.275  0.8363  0.1320 -0.9143
  554MOL0     O73054  11.343   7.473   3.395  0.7466  0.6809  0.4906
  554MOL0     C73055  11.481   7.449   3.383 -0.4989  1.0031 -0.3396
  554MOL0     C73056  11.568   7.563   3.339  1.0953  0.0424  0.1651
  554MOL0     C73057  11.717   7.522   3.368  0.2307  0.0469  0.3816
  554MOL0     C73058  11.805   7.631   3.307  0.3623  0.7379 -0.4965
  554MOL0     C73059  11.811   7.630   3.157 -0.0553 -0.5106  0.5170
  554MOL0     C73060  11.787   7.635   3.033  0.4558 -0.0441 -0.0433
  554MOL0     C73061  11.322   7.428   3.150 -0.2514  0.6279  0.7441
  554MOL0     C73062  11.236   7.399   3.044 -0.3322  0.4470 -0.6246
  554MOL0     H73063  10.899   7.146   2.809  1.5564 -0.8184 -1.1150
  554MOL0     H73064  10.701   7.053   2.684  0.2412 -1.2812  2.6671
  554MOL0     H73065  10.369   7.185   2.458 -1.6768 -3.8071  3.3204
  554MOL0     H73066  10.457   7.338   2.492  2.8336 -0.9972  1.3651
  554MOL0     H73067  10.264   7.404   2.591  3.6861  1.3293  1.1314
  554MOL0     H73068  10.312   7.304   2.714  1.2942  1.3309 -0.7476
  554MOL0     H73069  10.073   7.265   2.662  0.8204  0.1077  2.2269
  554MOL0     H73070  10.168   7.121   2.632 -1.1304  0.9907  0.1352
  554MOL0     H73071  10.058   7.323   2.432  2.1442  1.1113 -1.6994
  554MOL0     H73072  10.189   7.210   2.371  0.6094 -0.4223  0.4332
  554MOL0     H73073   9.938   7.088   2.507 -0.2957 -3.3439 -0.6238
  554MOL0     H73074  10.061   7.000   2.443 -1.5374 -1.3386 -0.9904
  554MOL0     H73075  10.040   7.056   2.224  0.8302  2.9307 -0.8036
  554MOL0     H73076   9.947   7.204   2.248  3.1712  1.0119  1.0785
  554MOL0     H73077   9.851   6.927   2.297  1.6817 -0.6645 -2.0672
  554MOL0     H73078   9.767   7.081   2.344  1.0464 -0.1041  1.4379
  554MOL0     H73079   9.824   6.998   2.057  0.9609  1.8070 -0.4172
  554MOL0     H73080   9.765   7.155   2.115  1.4166  0.6561 -0.4421
  554MOL0     H73081   9.699   6.779   2.171 -0.7687  0.2689 -0.6342
  554MOL0     H73082   9.384   6.686   2.279 -0.1378  3.9807 -0.4516
  554MOL0     H73083   9.488   6.611   2.166  1.0499  0.8326  1.2147
  554MOL0     H73084   9.245   6.575   2.111 -0.0948  0.2904 -0.4187
  554MOL0     H73085   9.338   6.658   1.982  2.3243  0.6712  1.5010
  554MOL0     H73086   9.148   6.781   2.200  0.5143 -1.5932 -0.0793
  554MOL0     H73087   9.211   6.874   2.060  0.0401  0.9190  2.3851
  554MOL0     H73088   8.971   6.800   2.051  1.7153  1.7233 -0.1353
  554MOL0     H73089   9.030   6.627   2.035 -2.8831 -0.0114 -3.6222
  554MOL0     H73090   8.945   6.833   1.684 -1.8774  0.1339  1.9302
  554MOL0     H73091   8.828   6.730   1.518 -3.2613 -1.9790  0.9805
  554MOL0     H73092   8.613   6.686   1.209  0.5350  0.0354  2.3862
  554MOL0     H73093   8.374   6.660   1.111  0.1188  2.4137  2.9002
  554MOL0     H73094   8.133   6.570   1.032 -2.1288  1.0834 -0.6441
  554MOL0     H73095   8.164   6.656   1.184 -1.8389  0.3644  0.4306
  554MOL0     H73096   7.982   6.529   1.304  2.3119 -1.6299 -0.7455
  554MOL0     H73097   7.951   6.435   1.159  1.4265 -0.1632 -1.7601
  554MOL0     H73098   7.891   6.645   1.030  2.0556 -2.9006 -1.1864
  554MOL0     H73099   7.884   6.731   1.188 -4.7295 -0.6236  0.9200
  554MOL0     H73100   7.722   6.483   1.139  2.1560 -0.0291 -0.8513
  554MOL0     H73101   7.726   6.589   1.285 -2.0919 -0.1865  0.6404
  554MOL0     H73102   7.656   6.688   0.999 -1.9342 -0.3490 -1.1874
  554MOL0     H73103   7.646   6.775   1.156 -0.5855  0.2859 -0.8519
  554MOL0     H73104   7.474   6.602   1.222  1.6340  3.8520  0.4500
  554MOL0     H73105   7.501   6.516   1.065 -1.7959  0.4474  0.5135
  554MOL0     H73106   7.417   6.810   1.078 -1.8095 -0.7390  2.0291
  554MOL0     H73107   7.407   6.710   0.937  4.0159 -2.3024  0.1967
  554MOL0     H73108   7.259   6.653   1.181 -2.4488  0.2392  1.1722
  554MOL0     H73109   7.204   6.598   1.020 -3.5083  1.3589  0.6122
  554MOL0     H73110   8.342   6.296   1.356  1.5166 -2.0264 -1.4590
  554MOL0     H73111   8.543   6.358   1.466 -0.5104 -0.1713 -0.1109
  554MOL0     H73112   8.891   6.347   1.717  1.6016 -1.1479 -0.5210
  554MOL0     H73113   9.033   6.483   1.907 -3.9679  0.2220  0.8260
  554MOL0     H73114  10.492   7.429   2.735  0.7167  0.3790 -0.6146
  554MOL0     H73115  10.683   7.522   2.854  1.5604  0.4969 -2.8856
  554MOL0     H73116  10.935   7.468   3.181 -0.8438  0.4946 -0.6819
  554MOL0     H73117  11.089   7.508   3.375  1.0888  0.0871  0.7078
  554MOL0     H73118  11.501   7.356   3.330  0.3079 -0.3584  2.1860
  554MOL0     H73119  11.520   7.444   3.485 -0.1849  4.4295 -0.1573
  554MOL0     H73120  11.556   7.564   3.231  2.0728  1.1102  0.0496
  554MOL0     H73121  11.539   7.653   3.395  0.2600 -0.1209  0.0061
  554MOL0     H73122  11.724   7.422   3.325  1.3388 -0.0764  0.8221
  554MOL0     H73123  11.754   7.509   3.470 -0.2800  2.2107  0.8955
  554MOL0     H73124  11.758   7.724   3.338 -1.5659 -0.2370 -0.3632
  554MOL0     H73125  11.909   7.621   3.341  1.2037 -1.2559 -3.3233
  554MOL0     H73126  11.755   7.623   2.932  0.7186 -0.9357 -0.0296
  554MOL0     H73127  11.429   7.413   3.138 -0.5048 -1.3913  0.6794
  554MOL0     H73128  11.278   7.354   2.955  0.4070  2.1449 -1.1783
  555MOL0     O73129   6.962   3.382   8.716 -0.6221 -0.3318  0.5333
  555MOL0     C73130   6.952   3.384   8.835  0.3552 -0.1967  0.1247
  555MOL0     O73131   7.056   3.339   8.922  0.3900 -0.7539 -0.7880
  555MOL0     C73132   7.189   3.313   8.882  0.5095  0.4883  0.4411
  555MOL0     C73133   7.255   3.394   8.773  0.3549  0.6300  0.6411
  555MOL0     C73134   7.391   3.373   8.746 -0.2585 -0.8451 -0.1612
  555MOL0     C73135   7.461   3.284   8.819  0.4329 -0.2249 -0.4477
  555MOL0     O73136   7.592   3.274   8.788  0.1131 -1.2633 -0.1132
  555MOL0     C73137   7.657   3.156   8.821 -1.4718 -0.1276  0.0319
  555MOL0     C73138   7.802   3.158   8.782 -0.4234 -0.3141  0.8802
  555MOL0     C73139   7.872   3.024   8.803 -0.9984  0.2072 -0.5619
  555MOL0     C73140   8.013   3.039   8.742 -0.2543  0.2497 -0.1253
  555MOL0     C73141   8.083   2.901   8.778 -0.0930 -0.0731 -0.6178
  555MOL0     C73142   8.232   2.882   8.733 -0.3830  0.5509 -0.3601
  555MOL0     C73143   8.295   2.741   8.778 -0.4641 -0.6007 -1.0491
  555MOL0     C73144   8.202   2.620   8.741  0.5993 -0.3205  0.0579
  555MOL0     N73145   8.172   2.624   8.600  0.5478 -0.4248  0.2589
  555MOL0     C73146   8.271   2.631   8.500 -0.2597  0.2121 -0.7202
  555MOL0     C73147   8.197   2.649   8.391  0.6038  0.2380  1.2608
  555MOL0     C73148   8.253   2.677   8.251  0.4226 -0.4974 -0.3281
  555MOL0     C73149   8.304   2.818   8.223 -0.1608  1.4021  0.0879
  555MOL0     C73150   8.220   2.931   8.290 -0.0749  0.3683  0.1275
  555MOL0     C73151   8.087   2.951   8.215 -0.5253  0.6031  0.2932
  555MOL0     O73152   8.016   3.053   8.284  0.3613 -0.2649  0.3392
  555MOL0     C73153   7.886   3.068   8.259 -0.7991  1.1961 -1.8358
  555MOL0     C73154   7.817   3.164   8.335 -0.0069  0.3830  0.1624
  555MOL0     C73155   7.677   3.176   8.330 -0.7478  0.1840 -0.6493
  555MOL0     C73156   7.596   3.097   8.248 -0.2751 -0.4969 -0.1696
  555MOL0     C73157   7.459   3.125   8.228  0.2908  0.5012 -0.2252
  555MOL0     O73158   7.387   3.028   8.157 -0.4496  0.2855  0.2936
  555MOL0     C73159   7.250   3.022   8.135 -0.8243 -0.4876 -0.2475
  555MOL0     C73160   7.197   2.905   8.074  0.5925  0.4901 -0.6950
  555MOL0     C73161   7.059   2.902   8.030  0.2349  0.7991  1.2112
  555MOL0     C73162   6.972   3.010   8.056 -1.0968 -0.0777 -0.1012
  555MOL0     O73163   6.835   2.985   8.028 -0.7206 -0.4354  0.4958
  555MOL0     C73164   6.748   3.093   8.034 -0.6760 -0.6938 -0.0129
  555MOL0     C73165   6.605   3.071   7.989 -0.0936  0.0712  0.0166
  555MOL0     C73166   6.523   3.034   8.114  0.5296 -0.5630 -0.8514
  555MOL0     C73167   6.373   3.041   8.074 -1.0016  0.3003  0.4822
  555MOL0     C73168   6.275   3.028   8.182  0.6002  0.3904  0.5220
  555MOL0     C73169   6.298   2.908   8.277  0.5941  0.4981  0.1080
  555MOL0     C73170   6.213   2.896   8.402 -0.5137 -0.3125  0.4316
  555MOL0     C73171   6.231   2.761   8.471 -0.1427 -0.3148 -0.2682
  555MOL0    Cl73172   6.130   2.647   8.381  0.4477  0.2351  0.1363
  555MOL0     C73173   7.036   3.126   8.110  0.3913 -0.1049  0.7642
  555MOL0     C73174   7.163   3.132   8.152 -0.3201  0.4661  0.0524
  555MOL0     O73175   7.415   3.229   8.275 -0.6411  0.3335 -0.4867
  555MOL0     C73176   7.676   3.001   8.177  0.8006  1.1363 -0.2381
  555MOL0     C73177   7.813   2.990   8.182 -0.3200 -0.3390 -0.0301
  555MOL0     N73178   8.062   2.639   8.410 -0.4380 -0.7507  0.0205
  555MOL0     N73179   8.056   2.616   8.539  0.1645  0.3461  0.0966
  555MOL0     C73180   7.396   3.209   8.914 -0.0850  1.2026  0.0644
  555MOL0     C73181   7.263   3.223   8.958  0.0838 -0.3855  0.0510
  555MOL0     C73182   6.811   3.428   8.886 -0.0167 -0.1762 -0.4224
  555MOL0     C73183   6.778   3.405   9.023 -0.6002 -0.5372  0.1847
  555MOL0     C73184   6.653   3.452   9.066 -0.0329 -0.6932 -0.1372
  555MOL0     C73185   6.560   3.514   8.989 -0.1248 -0.3301  0.1661
  555MOL0     O73186   6.449   3.584   9.029  0.1810  0.2248  0.9238
  555MOL0     C73187   6.425   3.608   9.163 -0.1418  0.0237  0.5675
  555MOL0     C73188   6.277   3.617   9.198  0.0481 -0.0620  0.0706
  555MOL0     C73189   6.261   3.681   9.337  0.0659  0.3624  1.1343
  555MOL0     C73190   6.295   3.586   9.458 -0.2125 -0.5871  0.0679
  555MOL0     C73191   6.237   3.659   9.576  0.2692 -0.7691 -0.4423
  555MOL0     C73192   6.179   3.712   9.673  0.2896 -0.1090  0.9726
  555MOL0     C73193   6.593   3.529   8.855  0.1867  0.9036  0.1112
  555MOL0     C73194   6.712   3.476   8.795  0.9301 -0.5112 -0.3193
  555MOL0     H73195   7.205   3.477   8.725  1.0995  1.3610  1.0975
  555MOL0     H73196   7.452   3.434   8.679  1.4954 -4.1048 -1.7645
  555MOL0     H73197   7.606   3.071   8.774  1.9774 -3.6702  2.0271
  555MOL0     H73198   7.654   3.129   8.927 -0.2178 -0.8574 -0.0961
  555MOL0     H73199   7.858   3.237   8.832  1.5155  0.7518 -2.6223
  555MOL0     H73200   7.819   3.188   8.678 -0.1189  0.9159  1.2699
  555MOL0     H73201   7.818   2.950   8.744 -2.2803 -0.1936  1.0337
  555MOL0     H73202   7.877   2.986   8.906  1.3879 -2.1577 -1.4384
  555MOL0     H73203   8.006   3.051   8.634 -0.7307 -0.2273 -0.1534
  555MOL0     H73204   8.060   3.126   8.789 -1.3591  1.5215 -1.3178
  555MOL0     H73205   8.016   2.829   8.732 -2.9208  0.8079  1.8087
  555MOL0     H73206   8.080   2.884   8.886  0.6644 -0.3049 -0.6261
  555MOL0     H73207   8.284   2.970   8.773 -1.4523  0.3562  1.6173
  555MOL0     H73208   8.238   2.905   8.627  2.9067  1.5696 -0.0577
  555MOL0     H73209   8.395   2.732   8.735 -0.0131 -1.9253  0.1788
  555MOL0     H73210   8.310   2.731   8.886 -2.8732 -3.6735 -0.8269
  555MOL0     H73211   8.106   2.615   8.793 -0.6034  2.5954 -1.6107
  555MOL0     H73212   8.264   2.534   8.766 -2.6263 -2.5395  1.0081
  555MOL0     H73213   8.379   2.636   8.506  0.1956 -4.9181 -0.2060
  555MOL0     H73214   8.167   2.668   8.183 -0.5704  0.2449  0.7971
  555MOL0     H73215   8.333   2.606   8.225  0.9579  0.8484 -2.6731
  555MOL0     H73216   8.324   2.822   8.115  0.5397 -3.5521 -0.2185
  555MOL0     H73217   8.399   2.831   8.275  0.1713  4.5169 -1.1183
  555MOL0     H73218   8.201   2.906   8.394 -1.4037 -0.8195 -0.3725
  555MOL0     H73219   8.268   3.029   8.287 -0.9667  0.8515  1.0687
  555MOL0     H73220   8.044   2.853   8.237  4.1431 -1.0979  3.2134
  555MOL0     H73221   8.108   2.969   8.109 -3.2100  2.2616 -0.0759
  555MOL0     H73222   7.873   3.230   8.400 -3.2450  2.3536  1.1885
  555MOL0     H73223   7.625   3.244   8.396 -0.2866 -0.7082  0.6687
  555MOL0     H73224   7.254   2.812   8.074 -2.8519 -1.8166 -0.3626
  555MOL0     H73225   7.024   2.810   7.986  3.9343 -0.0026 -0.3809
  555MOL0     H73226   6.785   3.170   7.966 -3.4509 -1.3243 -2.4554
  555MOL0     H73227   6.748   3.138   8.134  1.2958 -1.9483  0.6174
  555MOL0     H73228   6.592   2.998   7.908 -0.2562  0.2416 -0.1130
  555MOL0     H73229   6.569   3.161   7.939  0.0695 -0.2257 -0.6491
  555MOL0     H73230   6.539   3.110   8.192 -2.5085 -1.0440  0.3775
  555MOL0     H73231   6.537   2.933   8.153 -0.0460 -0.1019  0.6386
  555MOL0     H73232   6.349   3.133   8.020 -1.8722 -0.0215  0.2943
  555MOL0     H73233   6.347   2.958   8.007  2.7226 -0.4401 -0.2676
  555MOL0     H73234   6.178   3.020   8.132  2.0536 -2.5058 -2.1595
  555MOL0     H73235   6.277   3.123   8.237 -1.1450  0.9065 -0.2141
  555MOL0     H73236   6.404   2.902   8.302  0.7638 -1.3369 -0.8469
  555MOL0     H73237   6.266   2.822   8.217 -2.1534  1.2805  0.2776
  555MOL0     H73238   6.246   2.974   8.471  3.2602  1.4190 -2.8881
  555MOL0     H73239   6.107   2.908   8.382 -0.0972  1.8166 -0.7657
  555MOL0     H73240   6.200   2.766   8.576 -0.0604  4.0023 -0.2664
  555MOL0     H73241   6.331   2.716   8.471  0.6570  1.3626 -1.6303
  555MOL0     H73242   6.977   3.218   8.116 -1.4052 -1.2007  0.8074
  555MOL0     H73243   7.195   3.230   8.187  2.1297  0.6555 -2.3946
  555MOL0     H73244   7.604   2.948   8.115 -1.5479  3.6346  0.1617
  555MOL0     H73245   7.857   2.906   8.130 -0.5257 -1.5108  1.6018
  555MOL0     H73246   7.452   3.132   8.965 -1.3876 -0.4245 -0.8544
  555MOL0     H73247   7.209   3.165   9.032 -3.1210  0.1547 -1.6777
  555MOL0     H73248   6.850   3.361   9.092 -0.4343 -0.2947  0.1678
  555MOL0     H73249   6.637   3.451   9.173 -1.1873 -1.6664 -0.3003
  555MOL0     H73250   6.464   3.708   9.181  1.5813 -0.7286  1.2341
  555MOL0     H73251   6.474   3.540   9.233  0.4297  0.2175  0.3619
  555MOL0     H73252   6.217   3.678   9.130 -1.2678 -0.5294  0.7792
  555MOL0     H73253   6.228   3.519   9.191  0.2708 -0.1431 -0.4288
  555MOL0     H73254   6.155   3.705   9.341 -0.8848 -2.9857 -0.2785
  555MOL0     H73255   6.315   3.776   9.335  2.2547 -0.7916 -1.3984
  555MOL0     H73256   6.239   3.493   9.449 -2.0795  0.6547 -2.3167
  555MOL0     H73257   6.400   3.559   9.473  0.5300  0.8753 -2.0005
  555MOL0     H73258   6.128   3.759   9.755  0.0466 -0.6388  1.1268
  555MOL0     H73259   6.519   3.562   8.783  1.6350 -0.4783 -2.1494
  555MOL0     H73260   6.714   3.492   8.688 -1.7295 -0.8702 -0.4891
  556MOL0     O73261   8.569   1.072   9.756  0.0899 -0.1999 -0.3954
  556MOL0     C73262   8.465   1.034   9.793  0.4799 -0.4832  0.0743
  556MOL0     O73263   8.432   0.903   9.815  0.4974  0.1745 -0.5089
  556MOL0     C73264   8.532   0.808   9.828  0.6170  0.1314 -0.6969
  556MOL0     C73265   8.667   0.819   9.862 -0.1073 -0.1046  0.0328
  556MOL0     C73266   8.758   0.716   9.875 -0.0491 -0.1563  0.1692
  556MOL0     C73267   8.716   0.583   9.871  0.0785  0.6428  0.0027
  556MOL0     O73268   8.795   0.469   9.878  0.8990  0.0913 -0.3092
  556MOL0     C73269   8.934   0.493   9.877 -0.1955 -1.1145  0.1498
  556MOL0     C73270   9.002   0.360   9.851  0.7870 -0.4603 -0.4572
  556MOL0     C73271   9.152   0.367   9.819 -0.1712 -0.6856  0.4160
  556MOL0     C73272   9.219   0.233   9.800  0.4851  0.1150  0.3095
  556MOL0     C73273   9.348   0.245   9.722 -0.2464 -0.5501 -0.2732
  556MOL0     C73274   9.456   0.318   9.812  0.3171  0.2518  0.5480
  556MOL0     C73275   9.583   0.345   9.726  0.4326 -0.7046 -0.0387
  556MOL0     C73276   9.688   0.433   9.799 -1.0067 -0.8372 -0.9760
  556MOL0     N73277   9.704   0.408   9.946  0.5837  0.3119 -0.5073
  556MOL0     C73278   9.698   0.280  10.015  0.8321 -0.7746  0.2085
  556MOL0     C73279   9.713   0.313  10.146 -0.0235 -0.4051 -0.4245
  556MOL0     C73280   9.680   0.229  10.264 -0.8707 -0.5595  0.2029
  556MOL0     C73281   9.781   0.231  10.380  1.2653  0.1290  0.2343
  556MOL0     C73282   9.726   0.142  10.495  0.3296 -0.0266 -0.8829
  556MOL0     C73283   9.670   0.006  10.462 -0.3010  0.7116  1.0231
  556MOL0     O73284   9.620  -0.062  10.587 -0.8235 -0.2326 -0.4696
  556MOL0     C73285   9.515   0.005  10.653 -0.5353 -0.4947 -0.3392
  556MOL0     C73286   9.530   0.056  10.781  0.9083  0.1873 -0.8272
  556MOL0     C73287   9.419   0.128  10.843 -0.1138 -0.1834  0.1905
  556MOL0     C73288   9.300   0.140  10.765  0.9420 -0.3891 -0.3583
  556MOL0     C73289   9.182   0.206  10.825 -0.0445  0.1738  0.1734
  556MOL0     O73290   9.076   0.238  10.751 -0.1268  0.2585  0.3674
  556MOL0     C73291   8.989   0.310  10.823  0.0309 -0.2508  0.5487
  556MOL0     C73292   8.884   0.237  10.871  0.8022 -0.0601 -0.7742
  556MOL0     C73293   8.789   0.303  10.951  1.5439  0.2916  0.0327
  556MOL0     C73294   8.781   0.439  10.957  0.7620  0.6462 -0.2354
  556MOL0     O73295   8.674   0.503  11.026  0.1096  0.8989  0.0378
  556MOL0     C73296   8.602   0.426  11.124 -0.6131  0.3955 -0.2236
  556MOL0     C73297   8.504   0.501  11.206  0.5539 -0.1047 -0.7193
  556MOL0     C73298   8.377   0.555  11.133 -0.6104  0.0460 -0.4441
  556MOL0     C73299   8.280   0.447  11.065 -0.2606 -0.2436  0.6474
  556MOL0     C73300   8.154   0.513  11.002 -0.2729  0.5366  0.0762
  556MOL0     C73301   8.015   0.445  11.015  0.1073  0.2936  0.0212
  556MOL0     C73302   7.903   0.504  10.933 -0.6678  0.1627  0.1174
  556MOL0     C73303   7.785   0.403  10.942  0.7058 -0.4776  0.0224
  556MOL0    Cl73304   7.743   0.334  11.097 -0.3117 -0.0284  0.3267
  556MOL0     C73305   8.887   0.513  10.913 -0.0520 -1.3429 -0.3345
  556MOL0     C73306   8.995   0.447  10.851  0.0174  0.1621 -0.2258
  556MOL0     O73307   9.191   0.231  10.942 -0.1204  0.4183 -0.1196
  556MOL0     C73308   9.284   0.079  10.640  0.1017  0.6252 -0.8039
  556MOL0     C73309   9.401   0.031  10.581  0.3777 -0.3933  0.3139
  556MOL0     N73310   9.720   0.447  10.154 -0.1375 -0.3764 -0.2136
  556MOL0     N73311   9.712   0.499  10.040 -0.7424 -0.4500 -0.1340
  556MOL0     C73312   8.585   0.566   9.850 -0.2913  1.0035  0.5779
  556MOL0     C73313   8.493   0.673   9.822  0.3017  0.9484 -0.4902
  556MOL0     C73314   8.357   1.136   9.802  0.3606 -0.3294  0.0106
  556MOL0     C73315   8.391   1.271   9.807  0.1956 -0.7834 -1.0672
  556MOL0     C73316   8.297   1.372   9.841 -0.0403 -0.1844  1.1632
  556MOL0     C73317   8.163   1.339   9.854 -0.7603 -0.1314 -0.6221
  556MOL0     O73318   8.068   1.437   9.881 -0.0085  0.2716 -0.1685
  556MOL0     C73319   7.925   1.406   9.878 -0.3463  0.2590 -0.2085
  556MOL0     C73320   7.845   1.507   9.940 -0.5202 -0.0388  0.0837
  556MOL0     C73321   7.880   1.539  10.086  0.5957 -0.4546  0.0895
  556MOL0     C73322   7.855   1.438  10.199 -0.0569 -0.0319  0.6537
  556MOL0     C73323   7.722   1.379  10.190 -0.1261 -0.7939  0.0345
  556MOL0     C73324   7.605   1.357  10.170  0.0009  0.3894 -0.3030
  556MOL0     C73325   8.123   1.207   9.823  0.2343  0.8686  0.0825
  556MOL0     C73326   8.221   1.109   9.785  0.1680  0.0452 -0.6518
  556MOL0     H73327   8.720   0.908   9.895 -0.4984  0.0182  0.3449
  556MOL0     H73328   8.858   0.739   9.911 -0.3527 -0.4591  1.2364
  556MOL0     H73329   8.962   0.535   9.974  1.0632 -0.9014 -0.2904
  556MOL0     H73330   8.970   0.562   9.800  0.8517 -2.4141 -0.5600
  556MOL0     H73331   8.936   0.308   9.781 -0.3723 -0.8693  0.9062
  556MOL0     H73332   8.997   0.293   9.938 -2.1745  0.3527  0.1067
  556MOL0     H73333   9.204   0.421   9.898 -2.2130  1.3295  0.4668
  556MOL0     H73334   9.147   0.427   9.728 -2.9558 -0.9780  0.2806
  556MOL0     H73335   9.235   0.201   9.903 -2.3895 -1.4358  0.3847
  556MOL0     H73336   9.145   0.171   9.749  2.3535  1.4835 -4.6498
  556MOL0     H73337   9.346   0.296   9.625  2.6138  0.7787  0.2444
  556MOL0     H73338   9.381   0.147   9.686 -0.3740 -1.1081  1.0698
  556MOL0     H73339   9.466   0.255   9.901  0.2861 -1.9144 -0.9022
  556MOL0     H73340   9.417   0.414   9.847  3.6850  1.8079  0.4512
  556MOL0     H73341   9.641   0.257   9.696  1.5856 -0.3005  0.9190
  556MOL0     H73342   9.560   0.396   9.632  1.5838 -2.1597 -1.1796
  556MOL0     H73343   9.664   0.539   9.790 -1.2232 -0.5122  2.1549
  556MOL0     H73344   9.792   0.413   9.772 -0.1915 -0.0093  1.2708
  556MOL0     H73345   9.686   0.179   9.978  3.3313 -0.6170 -1.2343
  556MOL0     H73346   9.687   0.126  10.229 -0.4204 -1.0018  1.5110
  556MOL0     H73347   9.584   0.257  10.310 -0.4641  1.8125 -0.2415
  556MOL0     H73348   9.806   0.332  10.414  0.9028  0.7290 -1.2216
  556MOL0     H73349   9.878   0.190  10.353  0.9986  0.5854 -1.5563
  556MOL0     H73350   9.793   0.130  10.581 -2.8867  0.9077  1.9838
  556MOL0     H73351   9.652   0.210  10.539  3.4170  5.1077 -2.6951
  556MOL0     H73352   9.745  -0.053  10.408 -2.3831 -1.6344  0.5253
  556MOL0     H73353   9.582   0.023  10.401  0.4803  1.3815  0.0534
  556MOL0     H73354   9.624   0.023  10.823  1.3545  1.8494 -0.4517
  556MOL0     H73355   9.446   0.175  10.937  1.1671 -2.5476  1.0869
  556MOL0     H73356   8.897   0.130  10.859  1.2725 -0.2657  1.2047
  556MOL0     H73357   8.713   0.237  10.992  0.8700  1.1930  0.2526
  556MOL0     H73358   8.674   0.379  11.192  1.7344 -1.4775 -3.7404
  556MOL0     H73359   8.553   0.341  11.077  2.2212 -1.3448 -0.2947
  556MOL0     H73360   8.558   0.578  11.262 -2.5857  0.5125  1.7344
  556MOL0     H73361   8.465   0.430  11.279  1.1748 -1.6362 -1.8086
  556MOL0     H73362   8.419   0.623  11.058  2.0510 -0.3702  0.5634
  556MOL0     H73363   8.325   0.610  11.211  0.1687  0.4057 -0.1628
  556MOL0     H73364   8.340   0.397  10.988  0.5738 -1.3480  1.9605
  556MOL0     H73365   8.242   0.370  11.132  0.2284 -0.5915  0.5344
  556MOL0     H73366   8.189   0.545  10.904 -0.4981  2.2280  0.5070
  556MOL0     H73367   8.144   0.599  11.069  1.6025 -1.3089  3.0051
  556MOL0     H73368   7.977   0.439  11.117  0.4634  0.5356  0.1706
  556MOL0     H73369   8.026   0.341  10.981 -2.0974  0.0419 -0.0425
  556MOL0     H73370   7.867   0.598  10.975 -0.6361  0.5154 -0.6202
  556MOL0     H73371   7.923   0.518  10.826 -1.6553  0.0210 -0.0941
  556MOL0     H73372   7.797   0.328  10.863  1.2908  1.9189 -2.3032
  556MOL0     H73373   7.694   0.455  10.912 -0.3628  0.1934  3.9404
  556MOL0     H73374   8.872   0.620  10.924 -2.2595 -1.5216 -1.1379
  556MOL0     H73375   9.086   0.503  10.832  0.3034  0.0583  0.7797
  556MOL0     H73376   9.193   0.101  10.585  0.8641  1.3136 -1.8323
  556MOL0     H73377   9.384  -0.006  10.480 -4.3456 -0.1508  0.8182
  556MOL0     H73378   8.546   0.465   9.856 -1.8092  1.4477 -1.0411
  556MOL0     H73379   8.389   0.646   9.804  0.1292 -0.7726  2.4950
  556MOL0     H73380   8.492   1.309   9.809 -0.4565  1.2021  2.2788
  556MOL0     H73381   8.329   1.475   9.851  2.4149 -0.9975  2.4666
  556MOL0     H73382   7.907   1.318   9.940 -1.4893  1.7437  1.6699
  556MOL0     H73383   7.893   1.389   9.774  0.2469  0.1279 -0.3726
  556MOL0     H73384   7.874   1.598   9.887 -0.8211  0.8336  1.3936
  556MOL0     H73385   7.738   1.491   9.924 -0.1554 -0.6431 -2.1867
  556MOL0     H73386   7.833   1.636  10.106  0.1298 -0.4217 -1.0730
  556MOL0     H73387   7.986   1.563  10.094 -0.0653  3.9937 -1.4544
  556MOL0     H73388   7.932   1.360  10.198 -1.5644 -1.5934  1.5679
  556MOL0     H73389   7.858   1.489  10.296 -0.7288 -2.8931  2.2814
  556MOL0     H73390   7.502   1.326  10.164 -0.2270  0.4737  2.1151
  556MOL0     H73391   8.018   1.182   9.812 -0.3207  3.8425 -3.0737
  556MOL0     H73392   8.196   1.005   9.764  1.5903 -1.4860  4.0203
  557MOL0     O73393   4.932  10.162   5.133 -0.1879 -0.2948 -0.0120
  557MOL0     C73394   5.048  10.144   5.164 -1.2614 -0.3455 -0.0942
  557MOL0     O73395   5.091  10.112   5.289 -0.3378  0.5387  0.2570
  557MOL0     C73396   5.003  10.105   5.387  0.6984 -0.4915  0.6283
  557MOL0     C73397   5.011  10.003   5.478 -0.8546 -0.0687 -0.2945
  557MOL0     C73398   4.929  10.000   5.593 -0.1439 -0.9300  0.7922
  557MOL0     C73399   4.842  10.107   5.626 -0.0886 -0.1874  0.2756
  557MOL0     O73400   4.807  10.112   5.758 -0.0185 -0.7010  0.4828
  557MOL0     C73401   4.673  10.163   5.788 -0.3811  1.0337  0.6144
  557MOL0     C73402   4.558  10.095   5.711  0.5024  0.4023  1.0456
  557MOL0     C73403   4.458  10.007   5.800 -0.5032 -0.7043 -0.3880
  557MOL0     C73404   4.352   9.944   5.714  0.2444 -0.5530  0.4935
  557MOL0     C73405   4.263   9.847   5.797 -0.3715  0.1976 -0.3721
  557MOL0     C73406   4.151   9.898   5.888 -0.1087  0.5001 -0.5145
  557MOL0     C73407   4.057   9.785   5.940 -0.2163 -0.0556  0.3250
  557MOL0     C73408   3.966   9.831   6.058  0.1180 -0.1126 -0.2696
  557MOL0     N73409   3.843   9.750   6.075 -0.1533 -0.2603 -0.6251
  557MOL0     C73410   3.840   9.623   6.124  1.0578  0.3092  0.8910
  557MOL0     C73411   3.703   9.598   6.139  0.8643  0.2181 -0.2556
  557MOL0     C73412   3.627   9.477   6.185 -0.9585 -1.1654  0.5768
  557MOL0     C73413   3.514   9.515   6.280 -0.5433 -0.4198 -0.6530
  557MOL0     C73414   3.417   9.397   6.304 -0.3417  0.3877 -0.5648
  557MOL0     C73415   3.316   9.384   6.184  0.9840 -0.0183 -0.4061
  557MOL0     O73416   3.197   9.322   6.248 -0.3620  0.5665  0.4902
  557MOL0     C73417   3.085   9.272   6.176 -0.7379 -0.3181 -0.3018
  557MOL0     C73418   2.988   9.211   6.251 -0.5618 -0.4434  0.0087
  557MOL0     C73419   2.879   9.154   6.185  0.1713  0.7001  0.6471
  557MOL0     C73420   2.868   9.151   6.045 -1.0969 -0.8386 -1.0765
  557MOL0     C73421   2.742   9.106   5.978 -0.4815  0.9658 -0.1789
  557MOL0     O73422   2.627   9.088   6.049  0.5267 -0.1321 -0.2740
  557MOL0     C73423   2.495   9.070   6.009 -0.5592  0.0176 -0.5755
  557MOL0     C73424   2.403   9.093   6.112 -0.2445 -0.4317  0.2272
  557MOL0     C73425   2.264   9.093   6.081 -0.7382 -0.0669  0.2872
  557MOL0     C73426   2.217   9.049   5.961  0.2137 -1.1857 -0.4678
  557MOL0     O73427   2.085   9.030   5.958 -0.9027 -0.1323  0.0024
  557MOL0     C73428   2.008   9.135   5.892 -1.0749  0.0225  0.7041
  557MOL0     C73429   1.861   9.106   5.888  0.1366 -0.9410  0.3620
  557MOL0     C73430   1.774   9.214   5.810 -0.6862  0.1290 -0.0706
  557MOL0     C73431   1.637   9.160   5.810 -0.8178  0.3410 -0.1924
  557MOL0     C73432   1.534   9.275   5.810 -0.6905  0.2422  0.7476
  557MOL0     C73433   1.401   9.210   5.763 -1.6579  0.3141 -0.2760
  557MOL0     C73434   1.369   9.215   5.616  0.3883 -0.9686  0.4794
  557MOL0     C73435   1.234   9.172   5.589 -0.5890 -0.9824  0.1065
  557MOL0    Cl73436   1.194   9.217   5.421  0.0273  0.1570 -0.5352
  557MOL0     C73437   2.310   9.041   5.856  0.1880  0.3323  0.3699
  557MOL0     C73438   2.448   9.060   5.878 -0.5901 -0.5155 -0.0877
  557MOL0     O73439   2.746   9.096   5.855 -0.1772  0.5151 -0.2131
  557MOL0     C73440   2.964   9.217   5.979 -0.5784 -0.1062  0.7082
  557MOL0     C73441   3.072   9.284   6.040 -0.8356 -1.0259 -0.5308
  557MOL0     N73442   3.635   9.712   6.087 -0.0368 -0.1678 -0.3475
  557MOL0     N73443   3.719   9.798   6.051  0.2468  0.0572 -0.4143
  557MOL0     C73444   4.820  10.210   5.526 -0.5585 -0.2850 -0.3309
  557MOL0     C73445   4.911  10.206   5.413  0.1287 -0.0259 -0.0781
  557MOL0     C73446   5.150  10.196   5.062  0.1405  0.1059  0.4922
  557MOL0     C73447   5.291  10.154   5.050  1.1477 -0.1351 -0.7313
  557MOL0     C73448   5.382  10.198   4.951  0.7864 -0.0219 -0.2447
  557MOL0     C73449   5.327  10.272   4.846 -0.6446 -0.4314  0.0367
  557MOL0     O73450   5.416  10.325   4.761  0.1769  0.3722 -0.2179
  557MOL0     C73451   5.394  10.445   4.697 -0.7326  0.2921  0.5134
  557MOL0     C73452   5.501  10.436   4.586  0.9679 -0.0926 -0.1604
  557MOL0     C73453   5.495  10.577   4.541  0.2066 -0.5992  0.1575
  557MOL0     C73454   5.607  10.608   4.441  0.2908 -0.8707  0.6445
  557MOL0     C73455   5.736  10.619   4.504  0.0661 -1.3823  0.4890
  557MOL0     C73456   5.836  10.616   4.564  0.3378 -0.8648  0.0565
  557MOL0     C73457   5.190  10.314   4.857 -0.9064  0.5874  0.4531
  557MOL0     C73458   5.107  10.275   4.957 -0.4992  0.6848 -0.3769
  557MOL0     H73459   5.076   9.922   5.447  0.4177 -0.1855  2.4183
  557MOL0     H73460   4.946   9.909   5.651 -0.3640  0.2744  2.8253
  557MOL0     H73461   4.672  10.271   5.771  0.0152  0.7790 -1.3487
  557MOL0     H73462   4.659  10.149   5.895  3.7408  0.0349  1.1946
  557MOL0     H73463   4.591  10.034   5.626 -2.6653 -1.1621  0.7906
  557MOL0     H73464   4.495  10.174   5.669 -0.5481 -1.7462 -1.7949
  557MOL0     H73465   4.401  10.070   5.867  1.6301 -1.1806  2.0318
  557MOL0     H73466   4.506   9.917   5.840  1.0208 -0.4984 -1.6385
  557MOL0     H73467   4.297  10.015   5.652  2.5012  2.0111  1.2330
  557MOL0     H73468   4.401   9.876   5.644 -0.5022 -1.5515  0.9231
  557MOL0     H73469   4.331   9.783   5.854  1.0136  2.0608  0.2062
  557MOL0     H73470   4.210   9.800   5.714 -3.9415  0.4952  1.5282
  557MOL0     H73471   4.090   9.971   5.833  1.4314  0.7787 -1.9222
  557MOL0     H73472   4.200   9.945   5.974  0.2354 -0.9462  0.1008
  557MOL0     H73473   4.000   9.743   5.857  0.3493 -1.4387  0.6075
  557MOL0     H73474   4.122   9.704   5.973  1.6163  2.2147  2.7335
  557MOL0     H73475   3.941   9.935   6.034 -0.8971 -0.3210 -0.1426
  557MOL0     H73476   4.023   9.830   6.151 -1.5933 -1.2741  0.8129
  557MOL0     H73477   3.924   9.557   6.140  1.0986  0.3427  0.8177
  557MOL0     H73478   3.699   9.411   6.234  0.9963  2.3525  2.9188
  557MOL0     H73479   3.593   9.432   6.091  3.9448 -1.9696 -1.0971
  557MOL0     H73480   3.449   9.592   6.238 -1.8942 -1.7076 -1.0313
  557MOL0     H73481   3.551   9.560   6.373 -0.2228  0.9454 -1.4171
  557MOL0     H73482   3.466   9.300   6.318 -3.2426 -1.3724 -1.7027
  557MOL0     H73483   3.357   9.435   6.388 -2.2391  1.5612 -2.3649
  557MOL0     H73484   3.358   9.324   6.102 -3.1799 -1.7910 -1.5113
  557MOL0     H73485   3.285   9.480   6.141 -1.7702 -2.4499 -4.6792
  557MOL0     H73486   2.995   9.208   6.360 -1.3840 -0.0440  0.0778
  557MOL0     H73487   2.808   9.103   6.250  2.0469 -3.7965 -0.4701
  557MOL0     H73488   2.432   9.107   6.216 -0.4406 -0.0996  0.2394
  557MOL0     H73489   2.201   9.106   6.168 -0.9259 -0.6420  0.2400
  557MOL0     H73490   2.046   9.150   5.790 -1.3069  1.4817  0.8157
  557MOL0     H73491   2.012   9.226   5.951 -1.2397 -0.7446  1.9324
  557MOL0     H73492   1.816   9.083   5.985 -0.4697 -0.6732  0.1475
  557MOL0     H73493   1.859   9.014   5.828 -0.3220  0.1200 -1.3389
  557MOL0     H73494   1.810   9.250   5.714 -3.5536  2.0751 -0.5202
  557MOL0     H73495   1.776   9.306   5.870  1.5215 -1.1720  2.0508
  557MOL0     H73496   1.633   9.101   5.718  0.9858 -2.8181  1.5877
  557MOL0     H73497   1.614   9.087   5.888  0.1238  0.0424 -0.1874
  557MOL0     H73498   1.560   9.358   5.743 -1.1989  0.6283  1.0164
  557MOL0     H73499   1.506   9.333   5.899 -3.2697  3.6051 -1.9326
  557MOL0     H73500   1.323   9.263   5.818  0.3971 -0.8994  4.3202
  557MOL0     H73501   1.399   9.108   5.803  1.5486  0.3103  0.1541
  557MOL0     H73502   1.387   9.318   5.584 -1.3813 -1.3966 -2.1046
  557MOL0     H73503   1.443   9.160   5.558  0.0421  1.0614 -2.0469
  557MOL0     H73504   1.167   9.229   5.655 -2.4439  2.8681 -4.5017
  557MOL0     H73505   1.214   9.066   5.605 -4.1238 -0.2910  1.3492
  557MOL0     H73506   2.279   9.041   5.752 -0.9195 -0.3595  0.6838
  557MOL0     H73507   2.504   9.040   5.787 -0.4038 -4.7631  0.7530
  557MOL0     H73508   2.948   9.223   5.872  0.3508 -1.4201  0.4674
  557MOL0     H73509   3.137   9.345   5.978 -2.2520  2.4506  1.1233
  557MOL0     H73510   4.766  10.304   5.534 -0.2393  0.2350 -3.2606
  557MOL0     H73511   4.903  10.295   5.352  0.1641  2.2348  2.9833
  557MOL0     H73512   5.335  10.084   5.120  1.9424 -1.1806 -2.2126
  557MOL0     H73513   5.491  10.189   4.952  0.7343 -0.6936 -0.0843
  557MOL0     H73514   5.404  10.524   4.772  3.6743 -1.4479  2.1188
  557MOL0     H73515   5.301  10.442   4.640 -0.2552  2.1822 -0.4288
  557MOL0     H73516   5.601  10.421   4.626  0.8476 -0.1245  0.1268
  557MOL0     H73517   5.473  10.363   4.509 -2.3966  1.0051 -0.1230
  557MOL0     H73518   5.495  10.648   4.625 -1.1565  0.4243 -0.6565
  557MOL0     H73519   5.394  10.587   4.499 -0.4095  1.8326  1.9420
  557MOL0     H73520   5.617  10.534   4.361 -1.5676 -2.2356  1.6109
  557MOL0     H73521   5.578  10.702   4.392  0.1178 -1.8443 -1.2142
  557MOL0     H73522   5.920  10.631   4.629  2.6555 -0.4493 -2.8649
  557MOL0     H73523   5.157  10.371   4.770 -1.5066 -0.2640  0.1060
  557MOL0     H73524   5.008  10.319   4.959 -0.1261  1.6118 -1.3034
  558MOL0     O73525   6.321   9.874   6.011 -0.3664  0.5547  0.0364
  558MOL0     C73526   6.234   9.782   6.038 -1.4203 -0.2947 -0.3853
  558MOL0     O73527   6.106   9.797   6.076  1.3243  0.5474  0.0140
  558MOL0     C73528   6.053   9.922   6.080 -0.2151 -0.3944 -0.5457
  558MOL0     C73529   6.091  10.026   6.174  0.3474  0.7380  0.2557
  558MOL0     C73530   6.025  10.149   6.180 -0.2206  0.3329  0.0167
  558MOL0     C73531   5.925  10.183   6.098 -0.1612  0.3885  0.3272
  558MOL0     O73532   5.876  10.311   6.107 -0.8312 -1.1173  0.3584
  558MOL0     C73533   5.762  10.339   6.024 -0.1259  0.5289 -0.2179
  558MOL0     C73534   5.716  10.476   6.066  0.8598  0.5468  0.7798
  558MOL0     C73535   5.569  10.499   6.021 -0.2409 -0.1437 -0.2062
  558MOL0     C73536   5.515  10.638   6.041 -0.0822  0.0736 -0.4306
  558MOL0     C73537   5.370  10.649   5.977  0.0238  0.4970 -0.7042
  558MOL0     C73538   5.322  10.804   5.966 -0.2377  0.7995  0.2243
  558MOL0     C73539   5.290  10.864   6.093  0.0368 -0.1045 -1.3713
  558MOL0     C73540   5.213  10.996   6.086 -1.2112 -0.2048 -0.2640
  558MOL0     N73541   5.150  11.031   6.218  0.6128 -0.7402  0.1368
  558MOL0     C73542   5.040  10.969   6.271  0.3166  0.7021  0.5025
  558MOL0     C73543   5.009  11.030   6.380  0.6414 -0.9722  0.2462
  558MOL0     C73544   4.900  11.000   6.478  1.3464  0.3195 -0.0019
  558MOL0     C73545   4.758  11.040   6.450  0.6759  0.1544  0.1974
  558MOL0     C73546   4.675  11.049   6.578 -0.6033 -0.4072  0.3735
  558MOL0     C73547   4.530  11.071   6.541 -0.3562 -0.6094  0.8032
  558MOL0     O73548   4.450  11.065   6.659  0.4779  0.2104  0.0002
  558MOL0     C73549   4.311  11.047   6.644 -0.9142 -0.1020 -0.5418
  558MOL0     C73550   4.243  10.969   6.734 -1.0500 -0.2493 -0.0841
  558MOL0     C73551   4.107  10.956   6.737  0.3484 -0.8012 -0.3850
  558MOL0     C73552   4.020  11.011   6.643 -0.3563  0.3657 -0.0362
  558MOL0     C73553   3.873  10.974   6.646 -0.3016 -0.2363  0.3261
  558MOL0     O73554   3.811  10.906   6.751 -0.1061 -0.1850 -0.1352
  558MOL0     C73555   3.676  10.891   6.730 -0.4780  0.0702 -0.1207
  558MOL0     C73556   3.596  11.003   6.723 -0.1826  0.3645 -0.4532
  558MOL0     C73557   3.457  10.981   6.718  0.1016 -0.0394 -0.2443
  558MOL0     C73558   3.403  10.851   6.732 -0.6995  0.2466  0.3444
  558MOL0     O73559   3.268  10.839   6.740  0.2487 -0.3435 -0.0151
  558MOL0     C73560   3.201  10.727   6.800 -0.2474  0.5866  0.3757
  558MOL0     C73561   3.058  10.708   6.754  0.1022 -0.5779  0.5435
  558MOL0     C73562   2.968  10.822   6.743 -0.6016  0.4793  0.4742
  558MOL0     C73563   2.830  10.770   6.685 -0.4415 -0.5592  0.2815
  558MOL0     C73564   2.719  10.867   6.721  0.9119  0.1272 -0.3019
  558MOL0     C73565   2.712  10.884   6.876 -0.1878 -0.0131  0.2321
  558MOL0     C73566   2.583  10.960   6.920  0.3609  0.2566 -0.0624
  558MOL0     C73567   2.565  10.971   7.067  0.0460 -0.1016 -0.7482
  558MOL0    Cl73568   2.447  11.103   7.102 -0.3881  0.3998  0.3352
  558MOL0     C73569   3.484  10.734   6.733  0.2030 -0.4516 -0.1517
  558MOL0     C73570   3.621  10.758   6.737 -0.2911  0.2145  0.0390
  558MOL0     O73571   3.831  10.985   6.532  1.0626 -0.4143  0.2252
  558MOL0     C73572   4.088  11.078   6.539 -0.0762  0.5688  0.3171
  558MOL0     C73573   4.231  11.097   6.545  0.2702  0.1453  0.2527
  558MOL0     N73574   5.087  11.146   6.394  0.1497  0.4172  0.0848
  558MOL0     N73575   5.171  11.146   6.294  0.1068  1.1054 -0.2468
  558MOL0     C73576   5.898  10.090   5.996 -0.6495  0.0009 -1.0752
  558MOL0     C73577   5.954   9.958   5.991  0.5130 -0.3948  0.6771
  558MOL0     C73578   6.285   9.644   6.034 -0.2533  0.4757  0.4970
  558MOL0     C73579   6.421   9.608   6.040  0.0389  0.1342  0.0078
  558MOL0     C73580   6.466   9.470   6.038 -0.0503 -0.3289 -0.1362
  558MOL0     C73581   6.370   9.365   6.022 -0.0303 -0.1650  0.5742
  558MOL0     O73582   6.419   9.245   6.004  0.4167 -0.0668 -0.9345
  558MOL0     C73583   6.390   9.152   6.105 -0.2723  0.2130 -0.3478
  558MOL0     C73584   6.422   9.009   6.054 -0.1278 -0.1282  0.4199
  558MOL0     C73585   6.300   8.945   5.976 -0.9024  0.4582 -0.1560
  558MOL0     C73586   6.343   8.822   5.898  1.0069 -0.4626 -0.3846
  558MOL0     C73587   6.345   8.692   5.968 -0.2231  1.0211 -0.8080
  558MOL0     C73588   6.354   8.582   6.017 -0.1407 -0.7342 -0.3357
  558MOL0     C73589   6.240   9.404   6.015  0.3794 -0.0184 -0.4685
  558MOL0     C73590   6.195   9.539   6.008 -0.3811  0.1097 -0.5976
  558MOL0     H73591   6.165  10.015   6.251  0.5003 -2.6486 -0.2287
  558MOL0     H73592   6.055  10.223   6.254  2.5643  0.1968 -0.8643
  558MOL0     H73593   5.697  10.255   6.053  0.8468 -0.0603  0.3085
  558MOL0     H73594   5.775  10.335   5.916  1.4515  0.3223 -0.0483
  558MOL0     H73595   5.784  10.543   6.012 -0.5139 -0.5282 -2.4807
  558MOL0     H73596   5.735  10.490   6.173  2.2149 -0.5183  0.7040
  558MOL0     H73597   5.512  10.424   6.076  0.0857 -0.3339 -0.1251
  558MOL0     H73598   5.565  10.484   5.912  1.7884  1.1231 -0.5110
  558MOL0     H73599   5.503  10.668   6.145 -0.7192  1.3950 -0.8696
  558MOL0     H73600   5.580  10.704   5.983  0.2014 -2.3694 -3.1640
  558MOL0     H73601   5.300  10.588   6.035  1.6545 -0.3119  0.4843
  558MOL0     H73602   5.377  10.624   5.871 -1.6388  2.4706 -1.3524
  558MOL0     H73603   5.234  10.812   5.901  0.5189 -0.6502 -1.0406
  558MOL0     H73604   5.401  10.856   5.912  0.4929 -0.8056 -0.2872
  558MOL0     H73605   5.257  10.786   6.163  0.9911  0.9291  0.3145
  558MOL0     H73606   5.390  10.882   6.134 -0.1092 -0.8104 -0.6777
  558MOL0     H73607   5.132  10.980   6.014 -2.9020  1.4783  1.1218
  558MOL0     H73608   5.284  11.068   6.044 -0.5154 -1.5782 -1.4932
  558MOL0     H73609   4.996  10.874   6.241  1.7522  0.0772  0.3173
  558MOL0     H73610   4.918  11.047   6.576  0.8895 -1.0317  0.7566
  558MOL0     H73611   4.899  10.898   6.517 -1.5430  1.0344  2.1568
  558MOL0     H73612   4.708  10.972   6.380 -1.9167 -0.7447  2.6946
  558MOL0     H73613   4.759  11.136   6.398 -1.0289 -0.1699 -0.5112
  558MOL0     H73614   4.677  10.952   6.629 -2.4010 -0.6672  0.0093
  558MOL0     H73615   4.697  11.135   6.642 -1.7236  0.0168  0.2056
  558MOL0     H73616   4.510  10.996   6.464  0.1964 -2.3417  2.2789
  558MOL0     H73617   4.513  11.171   6.499  0.5630  0.1138  2.1079
  558MOL0     H73618   4.308  10.926   6.809 -2.1028  0.1994  1.1104
  558MOL0     H73619   4.070  10.903   6.825 -1.2415 -0.1272 -0.6098
  558MOL0     H73620   3.632  11.105   6.716 -2.2656  1.0534 -2.5948
  558MOL0     H73621   3.392  11.068   6.714 -3.0578 -2.0830  1.7339
  558MOL0     H73622   3.211  10.740   6.909  1.4863  1.3483  0.1671
  558MOL0     H73623   3.248  10.636   6.760  2.5447  1.9302  0.3513
  558MOL0     H73624   3.016  10.631   6.820 -0.4241 -1.9028 -1.2621
  558MOL0     H73625   3.051  10.665   6.654  0.7214  0.2384  0.1418
  558MOL0     H73626   3.011  10.912   6.697 -1.4565  2.2499  2.9483
  558MOL0     H73627   2.957  10.854   6.847  0.4596 -0.6707  0.9689
  558MOL0     H73628   2.836  10.750   6.578 -0.4281 -0.8251  0.3325
  558MOL0     H73629   2.806  10.671   6.724 -1.4294  0.0192  1.1866
  558MOL0     H73630   2.625  10.826   6.682 -0.5726  1.1782  1.9541
  558MOL0     H73631   2.723  10.967   6.678 -1.1747  2.4750  4.2543
  558MOL0     H73632   2.805  10.925   6.915  1.8434 -1.8478 -2.4065
  558MOL0     H73633   2.706  10.781   6.914 -2.2104  0.3822  1.1802
  558MOL0     H73634   2.588  11.064   6.887  0.5199  0.3495  0.2517
  558MOL0     H73635   2.494  10.916   6.875 -0.4058  1.1383  0.5550
  558MOL0     H73636   2.661  10.997   7.114 -0.5491 -0.9887  1.0405
  558MOL0     H73637   2.530  10.878   7.114  1.4825 -0.3783 -0.1601
  558MOL0     H73638   3.445  10.634   6.742  3.6241 -1.8368  0.8591
  558MOL0     H73639   3.695  10.679   6.741  1.2205  1.6130  2.2692
  558MOL0     H73640   4.029  11.113   6.454 -1.5658  0.1021  1.1108
  558MOL0     H73641   4.264  11.161   6.463  1.3125 -1.2341 -0.4382
  558MOL0     H73642   5.838  10.127   5.914 -0.7099  1.5373 -0.3679
  558MOL0     H73643   5.924   9.904   5.902 -3.7888  1.1613  0.9316
  558MOL0     H73644   6.498   9.682   6.062  1.5674 -0.6679 -2.3173
  558MOL0     H73645   6.572   9.450   6.051 -0.1870 -0.1734  1.3682
  558MOL0     H73646   6.284   9.165   6.130  0.1032  4.2596 -0.1938
  558MOL0     H73647   6.446   9.180   6.194 -1.7369 -1.8879  1.3362
  558MOL0     H73648   6.512   9.029   5.996 -0.8970  2.8418  0.0933
  558MOL0     H73649   6.462   8.942   6.131  3.2166 -1.8826 -2.5629
  558MOL0     H73650   6.264   9.016   5.902 -1.3732 -0.3514 -0.7265
  558MOL0     H73651   6.213   8.926   6.040 -2.3863 -0.9130 -2.4405
  558MOL0     H73652   6.270   8.821   5.817  1.5005 -0.9429 -0.8352
  558MOL0     H73653   6.430   8.836   5.834  1.3115  0.6296  0.2396
  558MOL0     H73654   6.383   8.484   6.050  0.9398 -0.5793 -0.7939
  558MOL0     H73655   6.168   9.324   6.004  1.6643 -0.9080 -3.1590
  558MOL0     H73656   6.090   9.565   5.998 -1.4640 -3.7510 -0.9123
  559MOL0     O73657   1.736   1.435   8.756  0.2574 -0.6845  0.7792
  559MOL0     C73658   1.707   1.474   8.643 -0.0592 -0.4657  0.2268
  559MOL0     O73659   1.623   1.411   8.560 -0.2340  1.2350  0.2268
  559MOL0     C73660   1.572   1.292   8.606  0.4448  0.3823 -0.4435
  559MOL0     C73661   1.443   1.296   8.665  0.8551  0.3824 -1.5289
  559MOL0     C73662   1.393   1.168   8.698  0.3980  0.8241  0.2853
  559MOL0     C73663   1.450   1.047   8.662 -0.4192 -0.6214  0.7493
  559MOL0     O73664   1.387   0.925   8.661  0.0310  0.3599  0.3595
  559MOL0     C73665   1.305   0.905   8.549  0.0425 -0.5545  0.7857
  559MOL0     C73666   1.236   0.772   8.524 -0.1978 -0.2769 -0.7171
  559MOL0     C73667   1.202   0.696   8.651  0.1258  0.1664  0.8554
  559MOL0     C73668   1.121   0.565   8.615  0.5320  0.3929  0.5244
  559MOL0     C73669   1.049   0.488   8.730  0.0389 -0.0708 -0.9245
  559MOL0     C73670   1.156   0.446   8.838 -0.3062 -0.4694 -0.4629
  559MOL0     C73671   1.100   0.365   8.958 -0.6062 -0.6038  1.1871
  559MOL0     C73672   1.211   0.276   9.033 -1.5685 -0.2474  1.0580
  559MOL0     N73673   1.160   0.186   9.131  0.4496  0.3410  0.3178
  559MOL0     C73674   1.145   0.226   9.264 -0.2544  0.6140 -0.1145
  559MOL0     C73675   1.090   0.120   9.323 -0.6574  0.8244  0.3116
  559MOL0     C73676   1.089   0.116   9.473  0.2102  0.3018 -0.2346
  559MOL0     C73677   1.230   0.078   9.539  0.0158 -0.5770 -0.0077
  559MOL0     C73678   1.325   0.197   9.529 -0.2372  0.1346  0.4048
  559MOL0     C73679   1.436   0.193   9.622  0.3562  0.3889  0.5426
  559MOL0     O73680   1.387   0.204   9.762 -0.0872 -0.1432 -0.5583
  559MOL0     C73681   1.467   0.157   9.858 -0.2526 -0.4533  1.3100
  559MOL0     C73682   1.419   0.079   9.954  0.3663 -0.9215 -0.2547
  559MOL0     C73683   1.505   0.027  10.054 -0.1992  0.5638  0.0053
  559MOL0     C73684   1.638   0.073  10.062 -0.1635 -0.1340 -0.2648
  559MOL0     C73685   1.716   0.034  10.183 -0.1818 -0.7818  0.6032
  559MOL0     O73686   1.854   0.056  10.179 -0.3536  0.1889  0.6519
  559MOL0     C73687   1.921   0.064  10.298 -0.5884  0.3037 -0.3940
  559MOL0     C73688   1.961   0.193  10.338 -0.8316 -0.5919  0.7772
  559MOL0     C73689   2.036   0.204  10.450 -0.1992 -0.1027  0.9629
  559MOL0     C73690   2.089   0.091  10.516 -0.3768 -0.4103  0.0998
  559MOL0     O73691   2.163   0.094  10.632  0.0904  0.0116 -0.0869
  559MOL0     C73692   2.256   0.209  10.620  0.0153 -0.4895  0.0997
  559MOL0     C73693   2.384   0.192  10.700 -0.1386  0.1176  0.5244
  559MOL0     C73694   2.371   0.170  10.846  0.0327  0.0588 -0.0258
  559MOL0     C73695   2.255   0.243  10.907  0.6419  0.4336 -0.1301
  559MOL0     C73696   2.256   0.244  11.058  0.1633 -0.0669 -1.1108
  559MOL0     C73697   2.110   0.238  11.107  0.1490 -0.8150  0.0944
  559MOL0     C73698   2.107   0.259  11.257 -0.6223 -0.3241  0.3769
  559MOL0     C73699   1.999   0.183  11.336  0.2524  0.2790  0.4591
  559MOL0    Cl73700   1.985   0.260  11.505  0.1642  0.1781 -0.0181
  559MOL0     C73701   2.047  -0.030  10.475  0.7881 -0.5400  0.3861
  559MOL0     C73702   1.960  -0.050  10.368  0.8140 -0.2026 -0.7472
  559MOL0     O73703   1.659  -0.022  10.275  0.1873 -0.0450 -0.3770
  559MOL0     C73704   1.684   0.158   9.963  0.3350  0.5491 -0.0877
  559MOL0     C73705   1.596   0.211   9.864 -0.2410  0.3393 -0.3963
  559MOL0     N73706   1.079   0.016   9.236 -0.2370  0.0206 -0.5262
  559MOL0     N73707   1.110   0.060   9.116 -0.7300  0.3675  0.5489
  559MOL0     C73708   1.579   1.053   8.599  0.1069  0.2026  0.6214
  559MOL0     C73709   1.644   1.178   8.588 -0.6915  0.1826  0.2369
  559MOL0     C73710   1.762   1.608   8.609 -0.0432 -0.1896  0.5129
  559MOL0     C73711   1.879   1.657   8.674  0.3477  0.0433  0.1856
  559MOL0     C73712   1.951   1.773   8.618  0.5577  0.3971 -0.4373
  559MOL0     C73713   1.901   1.843   8.505 -1.0273  0.0657  0.7784
  559MOL0     O73714   1.967   1.950   8.441 -0.0489  0.6519 -0.2309
  559MOL0     C73715   2.031   2.047   8.528  0.0547  0.8447  0.2407
  559MOL0     C73716   1.999   2.191   8.482  0.1848  0.1711  0.7701
  559MOL0     C73717   1.846   2.211   8.512 -0.7677 -0.0942  0.2491
  559MOL0     C73718   1.795   2.345   8.461  0.2352 -0.5916 -0.0410
  559MOL0     C73719   1.652   2.362   8.478 -0.2035 -0.0149 -0.3921
  559MOL0     C73720   1.530   2.375   8.489 -0.9394  0.3888  0.5274
  559MOL0     C73721   1.790   1.794   8.442 -0.7603 -0.1644 -0.2310
  559MOL0     C73722   1.716   1.683   8.497 -0.3705  0.3661 -0.7154
  559MOL0     H73723   1.383   1.383   8.689 -0.2208 -1.0836  1.5676
  559MOL0     H73724   1.294   1.167   8.742  1.6177 -1.8403  3.4387
  559MOL0     H73725   1.373   0.909   8.463  0.4528  1.3087  1.1480
  559MOL0     H73726   1.235   0.989   8.539  0.0889 -0.7509 -2.0138
  559MOL0     H73727   1.302   0.718   8.455 -1.6176 -0.4484 -1.9923
  559MOL0     H73728   1.143   0.796   8.472 -2.0413 -3.5321  0.8336
  559MOL0     H73729   1.129   0.764   8.694 -0.4605  2.1947 -2.8836
  559MOL0     H73730   1.292   0.665   8.706  1.4538  0.0641 -1.2308
  559MOL0     H73731   1.044   0.605   8.548 -0.8300  1.7543  2.7444
  559MOL0     H73732   1.185   0.488   8.571  0.7151  0.4102  0.7599
  559MOL0     H73733   0.997   0.400   8.691  0.1463 -0.2706 -0.6177
  559MOL0     H73734   0.974   0.562   8.760  0.6676  0.6862 -1.1783
  559MOL0     H73735   1.197   0.539   8.878 -3.1113  1.9089 -2.6869
  559MOL0     H73736   1.243   0.393   8.800 -0.6662 -0.3546 -1.4862
  559MOL0     H73737   1.048   0.435   9.024  0.1404  0.3388  0.8078
  559MOL0     H73738   1.012   0.304   8.938 -1.1832  0.2164  1.1396
  559MOL0     H73739   1.291   0.341   9.069 -1.1899  1.5443 -2.5341
  559MOL0     H73740   1.263   0.223   8.953 -0.1492  0.4299  1.4984
  559MOL0     H73741   1.178   0.318   9.310 -1.5352  1.3926 -0.6912
  559MOL0     H73742   1.019   0.039   9.506  1.0080 -0.2465  0.2298
  559MOL0     H73743   1.057   0.212   9.514 -1.2812 -0.6971  1.0435
  559MOL0     H73744   1.268  -0.004   9.477  2.0201 -0.4108  0.9182
  559MOL0     H73745   1.212   0.045   9.642  0.0860 -0.4552  0.0429
  559MOL0     H73746   1.359   0.206   9.425  1.3659  0.0359  0.8917
  559MOL0     H73747   1.269   0.290   9.541 -2.6126 -0.8595 -1.8521
  559MOL0     H73748   1.496   0.281   9.597  0.6769 -0.5773 -2.4745
  559MOL0     H73749   1.495   0.104   9.599  0.5493  0.6294  0.0829
  559MOL0     H73750   1.311   0.074   9.964 -0.1700  0.9412 -3.7140
  559MOL0     H73751   1.472  -0.055  10.117  0.8008 -2.9852 -3.6233
  559MOL0     H73752   1.932   0.282  10.284 -2.2836 -1.7684 -0.5015
  559MOL0     H73753   2.056   0.308  10.476 -0.6746  0.2908 -0.1956
  559MOL0     H73754   2.206   0.302  10.649  1.8448  1.5672 -2.6779
  559MOL0     H73755   2.298   0.219  10.519 -3.4121 -1.7856 -1.6137
  559MOL0     H73756   2.452   0.277  10.686  1.1376 -0.7076  1.5162
  559MOL0     H73757   2.438   0.106  10.658 -3.8701 -0.7657 -3.0650
  559MOL0     H73758   2.465   0.190  10.897 -0.9294  0.8467  1.5313
  559MOL0     H73759   2.348   0.064  10.861 -1.6262  0.4987  0.7494
  559MOL0     H73760   2.248   0.350  10.884  0.9470  0.3072 -0.8295
  559MOL0     H73761   2.170   0.186  10.867  2.7874 -4.0433  1.0801
  559MOL0     H73762   2.312   0.331  11.094  1.1847 -0.9715 -0.4169
  559MOL0     H73763   2.311   0.158  11.099 -2.9691 -2.6861 -1.9692
  559MOL0     H73764   2.071   0.138  11.088 -1.0167  0.1432 -3.2034
  559MOL0     H73765   2.047   0.311  11.055 -0.8573 -2.5186 -1.1613
  559MOL0     H73766   2.206   0.242  11.301  0.2311  0.1304 -1.2455
  559MOL0     H73767   2.083   0.364  11.272 -1.5201 -0.7414  2.0416
  559MOL0     H73768   2.024   0.077  11.350  1.7444  0.5752  0.2061
  559MOL0     H73769   1.912   0.194  11.270  0.7805  1.3530 -0.0770
  559MOL0     H73770   2.088  -0.125  10.509  1.1712 -1.2695 -1.9002
  559MOL0     H73771   1.921  -0.147  10.337 -1.1487 -0.1795  1.4118
  559MOL0     H73772   1.790   0.170   9.983  0.3732 -2.1437  1.9253
  559MOL0     H73773   1.637   0.277   9.789  0.6262 -1.4120 -1.5263
  559MOL0     H73774   1.621   0.958   8.570 -0.2786  0.5920 -1.3087
  559MOL0     H73775   1.738   1.183   8.534 -1.1183 -2.1941 -0.8302
  559MOL0     H73776   1.919   1.607   8.761 -1.8324  1.2513  1.9809
  559MOL0     H73777   2.044   1.811   8.660 -0.8668  2.6201  0.8831
  559MOL0     H73778   2.141   2.043   8.531  0.0601  0.3155 -0.4705
  559MOL0     H73779   2.000   2.041   8.633  0.3681  3.3179  0.5460
  559MOL0     H73780   2.055   2.264   8.541  2.9605 -2.8311  2.2260
  559MOL0     H73781   2.025   2.197   8.376 -3.5591 -0.8009 -0.3563
  559MOL0     H73782   1.829   2.215   8.620  0.5377  3.0642  0.4675
  559MOL0     H73783   1.792   2.131   8.460  0.1128 -1.1446  0.9111
  559MOL0     H73784   1.844   2.430   8.510  0.0115 -0.5646  0.1375
  559MOL0     H73785   1.812   2.351   8.353 -2.2782 -0.3696 -0.4916
  559MOL0     H73786   1.423   2.386   8.486 -1.1699 -1.3400  1.3031
  559MOL0     H73787   1.740   1.847   8.362 -1.9672  0.9910  1.2191
  559MOL0     H73788   1.645   1.636   8.429 -1.0710  0.7900 -0.2855
  560MOL0     O73789   3.985   0.204   7.761 -0.5898 -0.6048  0.0892
  560MOL0     C73790   4.008   0.102   7.820  0.5387  0.1669  0.4519
  560MOL0     O73791   4.118   0.084   7.907 -0.1631  0.1380  0.4174
  560MOL0     C73792   4.225   0.159   7.880 -0.1860 -0.1465  0.7308
  560MOL0     C73793   4.322   0.119   7.785 -0.3522  1.3464 -0.5050
  560MOL0     C73794   4.433   0.202   7.765  0.4437 -0.1226 -0.3678
  560MOL0     C73795   4.447   0.331   7.832 -0.5589  0.3438  0.2385
  560MOL0     O73796   4.555   0.405   7.802 -0.0651 -0.3609 -0.0960
  560MOL0     C73797   4.562   0.537   7.857  0.6611  0.4095  0.1973
  560MOL0     C73798   4.689   0.583   7.787  0.4391 -0.3984 -0.3764
  560MOL0     C73799   4.704   0.731   7.818 -0.3126 -1.1530 -0.1378
  560MOL0     C73800   4.826   0.795   7.736  0.1187 -0.0203  0.9203
  560MOL0     C73801   4.793   0.948   7.745 -0.0793 -0.1823  0.5794
  560MOL0     C73802   4.884   1.043   7.666  0.0130 -0.1649 -0.4877
  560MOL0     C73803   5.027   1.044   7.715 -0.8557 -0.6766  0.0180
  560MOL0     C73804   5.103   1.168   7.663  0.4160 -0.3975 -0.0210
  560MOL0     N73805   5.099   1.199   7.524 -0.2264 -0.0707 -0.0042
  560MOL0     C73806   5.118   1.102   7.430  0.9387 -0.0263 -0.5115
  560MOL0     C73807   5.109   1.165   7.309  0.2729  0.3756 -0.2681
  560MOL0     C73808   5.130   1.099   7.177 -0.0509 -0.2583  0.1543
  560MOL0     C73809   5.021   1.137   7.085  0.0413 -1.2135 -0.6247
  560MOL0     C73810   5.047   1.271   7.014  0.1073  0.8701  0.1644
  560MOL0     C73811   4.922   1.324   6.946 -0.5821 -0.1877  0.1826
  560MOL0     O73812   4.861   1.219   6.861  0.0195  0.8223 -0.3018
  560MOL0     C73813   4.760   1.141   6.907 -0.4438  0.2023  0.6298
  560MOL0     C73814   4.641   1.181   6.973 -1.2736 -0.2075 -0.3721
  560MOL0     C73815   4.529   1.105   6.969  0.1929 -0.5312  0.9239
  560MOL0     C73816   4.526   0.982   6.911 -1.0521 -0.1067 -1.2488
  560MOL0     C73817   4.400   0.902   6.929  0.7012 -0.4998 -0.1765
  560MOL0     O73818   4.289   0.954   6.996  0.1437 -0.8508  0.2572
  560MOL0     C73819   4.195   0.864   7.030 -0.1053 -0.4933  0.2742
  560MOL0     C73820   4.220   0.760   7.128 -0.3071  0.5776 -0.1248
  560MOL0     C73821   4.121   0.671   7.169 -0.6202  0.1014  0.4303
  560MOL0     C73822   3.989   0.696   7.129 -0.5273  0.2416 -0.5806
  560MOL0     O73823   3.889   0.616   7.173  0.0002  0.0954  0.1716
  560MOL0     C73824   3.887   0.476   7.133 -1.7497 -0.6983  0.3704
  560MOL0     C73825   3.763   0.415   7.190 -0.1837  0.2062  0.9014
  560MOL0     C73826   3.638   0.476   7.119  0.1605  0.4043  0.2234
  560MOL0     C73827   3.533   0.364   7.112  0.4375  0.1691  0.8044
  560MOL0     C73828   3.384   0.425   7.086  0.5619  0.2819 -0.3535
  560MOL0     C73829   3.270   0.322   7.075  0.2447  0.1528  0.3054
  560MOL0     C73830   3.140   0.385   7.108 -0.4045  0.4151  0.5235
  560MOL0     C73831   3.023   0.307   7.064  0.2031  0.5241 -0.8175
  560MOL0    Cl73832   3.028   0.143   7.139 -0.2687  0.2468 -0.5473
  560MOL0     C73833   3.964   0.792   7.032 -0.7828 -0.1316 -0.6223
  560MOL0     C73834   4.065   0.877   6.984  0.8384  0.2245 -0.4419
  560MOL0     O73835   4.404   0.791   6.878  0.1322 -0.4738 -0.4849
  560MOL0     C73836   4.656   0.923   6.880 -0.7474 -0.0224  0.0020
  560MOL0     C73837   4.774   1.002   6.881  0.0470 -0.0912  0.0620
  560MOL0     N73838   5.075   1.294   7.344 -0.9874  0.4970  0.4267
  560MOL0     N73839   5.071   1.317   7.471 -0.2288 -0.1723 -0.5135
  560MOL0     C73840   4.350   0.364   7.930 -0.0214 -0.9189  0.1734
  560MOL0     C73841   4.241   0.283   7.938 -0.2405 -0.3938 -0.2087
  560MOL0     C73842   3.912  -0.010   7.806  0.0563  0.1063  0.6554
  560MOL0     C73843   3.937  -0.132   7.866  0.9471 -0.1597 -0.1608
  560MOL0     C73844   3.845  -0.235   7.877  0.2726 -0.2862 -0.1233
  560MOL0     C73845   3.717  -0.213   7.833  0.1691 -0.3929 -0.2808
  560MOL0     O73846   3.639  -0.326   7.828 -1.0327  0.1858  0.6406
  560MOL0     C73847   3.508  -0.293   7.780  0.1421  0.6294  1.6368
  560MOL0     C73848   3.422  -0.421   7.776  0.0413 -0.2582  0.3767
  560MOL0     C73849   3.268  -0.369   7.764 -0.2093 -0.4863 -0.6230
  560MOL0     C73850   3.185  -0.408   7.881  0.0581 -0.3335 -0.0862
  560MOL0     C73851   3.068  -0.332   7.891 -0.1947  0.3546  0.4926
  560MOL0     C73852   2.964  -0.269   7.882 -0.1177 -0.5907  0.2544
  560MOL0     C73853   3.687  -0.089   7.766 -0.2819  0.6241  0.5639
  560MOL0     C73854   3.787   0.013   7.750  0.6035  0.0348  0.3830
  560MOL0     H73855   4.311   0.021   7.739  0.5905 -0.4221  2.7257
  560MOL0     H73856   4.502   0.161   7.692  0.3917  0.5235 -0.7882
  560MOL0     H73857   4.572   0.536   7.966 -2.3056 -0.7660  0.5634
  560MOL0     H73858   4.473   0.593   7.826  0.1302  0.7208  2.1756
  560MOL0     H73859   4.684   0.569   7.678  0.9203 -1.0351 -0.3209
  560MOL0     H73860   4.772   0.525   7.827  1.2811  0.3936 -0.9228
  560MOL0     H73861   4.717   0.745   7.925 -1.1431 -1.8358  0.0693
  560MOL0     H73862   4.615   0.781   7.778  1.1219 -0.2834 -2.4285
  560MOL0     H73863   4.925   0.781   7.780  1.1021 -2.2575 -1.7182
  560MOL0     H73864   4.822   0.765   7.631  1.3034  1.0653  0.5425
  560MOL0     H73865   4.799   0.973   7.851  0.4740 -0.6176  0.6517
  560MOL0     H73866   4.693   0.958   7.700 -0.1853  3.5152  1.3007
  560MOL0     H73867   4.837   1.140   7.687 -1.6702 -0.9491 -0.3910
  560MOL0     H73868   4.893   1.010   7.562 -0.8550 -1.1635 -0.2622
  560MOL0     H73869   5.041   1.048   7.824 -0.6437 -1.5549  0.0284
  560MOL0     H73870   5.078   0.950   7.698 -1.7663 -1.3142  0.6904
  560MOL0     H73871   5.207   1.165   7.696  0.9728 -4.1221 -1.5463
  560MOL0     H73872   5.059   1.252   7.717 -1.1971 -0.2503 -1.4665
  560MOL0     H73873   5.130   0.994   7.442 -3.1121 -0.8777 -2.5062
  560MOL0     H73874   5.132   0.992   7.198  2.7379 -0.3279 -0.1320
  560MOL0     H73875   5.226   1.123   7.131  1.0088 -1.7044  1.5362
  560MOL0     H73876   4.931   1.138   7.148  0.2082 -2.4203 -0.3443
  560MOL0     H73877   5.003   1.058   7.012  0.2483  1.0626 -3.3261
  560MOL0     H73878   5.105   1.345   7.070  1.0307 -0.1936  0.6659
  560MOL0     H73879   5.112   1.242   6.931  0.3301 -0.1785  0.6798
  560MOL0     H73880   4.948   1.407   6.880 -0.0245  0.4121  1.1256
  560MOL0     H73881   4.858   1.373   7.020 -0.5528  1.2498 -0.7098
  560MOL0     H73882   4.630   1.277   7.023 -1.1295 -1.0866  1.3786
  560MOL0     H73883   4.440   1.156   7.006 -0.0706  1.6283 -2.2638
  560MOL0     H73884   4.317   0.754   7.177 -0.8153 -1.5431  0.7493
  560MOL0     H73885   4.149   0.595   7.242  0.5740 -1.4074 -1.5130
  560MOL0     H73886   3.973   0.421   7.171 -0.7210  0.0784 -0.7562
  560MOL0     H73887   3.889   0.453   7.026  2.7106 -0.2691  0.1620
  560MOL0     H73888   3.754   0.439   7.296  1.6794  0.5120  1.0283
  560MOL0     H73889   3.782   0.308   7.179 -0.5680  0.1260  1.0065
  560MOL0     H73890   3.662   0.495   7.014  1.0723 -0.4995  0.2423
  560MOL0     H73891   3.598   0.563   7.170  0.3640 -1.3882  3.7257
  560MOL0     H73892   3.565   0.292   7.037  1.5700  0.1725  1.2729
  560MOL0     H73893   3.533   0.308   7.207  1.3399  0.6034  1.0662
  560MOL0     H73894   3.381   0.482   6.993  0.8246  1.1023  0.1316
  560MOL0     H73895   3.354   0.490   7.169 -4.1807  0.4440 -1.9088
  560MOL0     H73896   3.305   0.237   7.136 -2.7767 -1.7798 -0.4708
  560MOL0     H73897   3.271   0.289   6.971 -0.2743  0.2734  0.2642
  560MOL0     H73898   3.137   0.401   7.216  2.1671  3.6648  0.2532
  560MOL0     H73899   3.139   0.480   7.054  0.1062 -0.2629 -0.7465
  560MOL0     H73900   3.021   0.285   6.957 -0.3626 -1.7888 -0.3950
  560MOL0     H73901   2.929   0.354   7.095 -0.3225 -1.7661  1.3548
  560MOL0     H73902   3.862   0.802   6.994 -0.7202  0.2779 -0.6874
  560MOL0     H73903   4.047   0.964   6.921 -1.2847  1.1724  1.3473
  560MOL0     H73904   4.645   0.815   6.871 -2.3415  0.2553 -2.1764
  560MOL0     H73905   4.866   0.960   6.842 -0.1286  0.7420 -1.3006
  560MOL0     H73906   4.345   0.457   7.984  3.4861 -1.3884  1.5914
  560MOL0     H73907   4.162   0.316   8.005 -2.8869  0.8106 -3.6519
  560MOL0     H73908   4.033  -0.139   7.916  0.3431  1.3779  1.3256
  560MOL0     H73909   3.879  -0.324   7.929  1.0905  0.7297  1.1320
  560MOL0     H73910   3.517  -0.253   7.679  3.9839 -2.0810  0.6853
  560MOL0     H73911   3.470  -0.218   7.851  1.2555  1.2332  1.6223
  560MOL0     H73912   3.449  -0.482   7.688 -0.1008 -0.7735  0.6838
  560MOL0     H73913   3.445  -0.496   7.853  4.1634 -2.7609 -2.8133
  560MOL0     H73914   3.221  -0.409   7.674 -0.6830  0.3003 -0.7418
  560MOL0     H73915   3.262  -0.261   7.748 -2.8284 -0.8220 -2.4419
  560MOL0     H73916   3.167  -0.516   7.868  3.6716 -0.8060 -3.1101
  560MOL0     H73917   3.242  -0.390   7.972  0.4637  0.5662 -0.5049
  560MOL0     H73918   2.877  -0.213   7.853 -0.3221 -1.2910 -0.5352
  560MOL0     H73919   3.589  -0.082   7.721  0.4631 -1.2359 -1.5357
  560MOL0     H73920   3.753   0.101   7.694  0.1772 -0.2666  0.1624
  561MOL0     O73921   2.826   7.479   5.828  0.3083  0.2301  0.0921
  561MOL0     C73922   2.796   7.470   5.950 -0.6663  0.3097  1.1051
  561MOL0     O73923   2.675   7.438   6.003 -0.4194  0.1519 -0.2780
  561MOL0     C73924   2.561   7.449   5.928  0.3946 -0.1350  0.4507
  561MOL0     C73925   2.449   7.373   5.971 -0.2893  0.3360 -1.2574
  561MOL0     C73926   2.321   7.394   5.914 -0.9965 -0.2371 -0.0960
  561MOL0     C73927   2.308   7.497   5.818 -0.4472 -0.3938  0.8234
  561MOL0     O73928   2.189   7.544   5.768 -0.1332 -0.7492 -0.1796
  561MOL0     C73929   2.070   7.461   5.795 -0.7033 -0.1251  0.4998
  561MOL0     C73930   2.002   7.513   5.918  0.2497 -0.3608 -0.1963
  561MOL0     C73931   1.992   7.671   5.916  0.1841 -0.9848 -0.1819
  561MOL0     C73932   1.904   7.732   5.809 -0.0085 -0.4400 -0.0666
  561MOL0     C73933   1.872   7.878   5.844  0.2299  0.1134  0.2130
  561MOL0     C73934   1.806   7.955   5.731  0.6991  0.1296  0.2159
  561MOL0     C73935   1.794   8.106   5.750  0.9317 -0.5527 -0.0034
  561MOL0     C73936   1.731   8.177   5.634 -0.3592 -0.0041  0.3768
  561MOL0     N73937   1.678   8.312   5.657 -0.0032  0.3817  0.8191
  561MOL0     C73938   1.731   8.427   5.612  0.5343  0.8813 -0.3126
  561MOL0     C73939   1.640   8.518   5.645  0.1174  0.6129  0.0787
  561MOL0     C73940   1.630   8.664   5.594  0.0885 -0.2643  0.5820
  561MOL0     C73941   1.489   8.683   5.540 -0.0934 -0.1480  0.9845
  561MOL0     C73942   1.474   8.825   5.483  0.8358  0.0705  0.7124
  561MOL0     C73943   1.328   8.857   5.453  0.1474 -0.3702 -0.0011
  561MOL0     O73944   1.263   8.753   5.386 -0.1201  0.3377  0.5935
  561MOL0     C73945   1.141   8.770   5.330 -0.1878  0.0089 -0.0935
  561MOL0     C73946   1.061   8.879   5.352 -0.5595  0.0439  0.7717
  561MOL0     C73947   0.935   8.887   5.307 -0.4939 -0.0791  0.0034
  561MOL0     C73948   0.890   8.798   5.206 -0.1423 -0.2722 -0.3943
  561MOL0     C73949   0.762   8.819   5.138 -0.4979  1.2760  0.3171
  561MOL0     O73950   0.714   8.703   5.082  0.3063  0.6204  0.3502
  561MOL0     C73951   0.593   8.680   5.023 -0.5211  0.1216  0.3476
  561MOL0     C73952   0.550   8.554   4.996 -0.7643 -0.3826 -0.2312
  561MOL0     C73953   0.428   8.520   4.927 -0.7050 -0.3455 -0.2289
  561MOL0     C73954   0.342   8.621   4.885 -0.3048  0.4154 -1.6175
  561MOL0     O73955   0.223   8.588   4.841  0.5408  0.4474 -0.0281
  561MOL0     C73956   0.119   8.679   4.878  0.4462 -0.0310 -0.3403
  561MOL0     C73957  -0.021   8.627   4.826 -0.4113  0.3511 -0.1742
  561MOL0     C73958  -0.036   8.683   4.678  0.7860 -0.7765 -0.3483
  561MOL0     C73959  -0.172   8.638   4.616  0.1894 -0.6651  0.7560
  561MOL0     C73960  -0.168   8.662   4.467  0.5093 -0.4688  0.0285
  561MOL0     C73961  -0.267   8.590   4.376 -0.0613  0.3812 -1.1802
  561MOL0     C73962  -0.338   8.673   4.266 -0.8725  0.4038  0.2580
  561MOL0     C73963  -0.251   8.685   4.135 -0.6179  0.6092 -0.6622
  561MOL0    Cl73964  -0.083   8.739   4.171 -0.2987 -0.4200  0.0864
  561MOL0     C73965   0.388   8.753   4.902 -0.2462 -0.1152 -0.9775
  561MOL0     C73966   0.512   8.774   4.964  0.7805 -0.7330 -0.0825
  561MOL0     O73967   0.701   8.926   5.152 -0.2054  0.0012  0.0857
  561MOL0     C73968   0.972   8.688   5.166 -0.5858  0.2457 -0.0216
  561MOL0     C73969   1.098   8.676   5.237  0.1516 -0.1467  0.8770
  561MOL0     N73970   1.534   8.463   5.703  0.0229 -0.1518 -0.1960
  561MOL0     N73971   1.556   8.337   5.712 -0.9758 -0.6975 -0.2870
  561MOL0     C73972   2.416   7.574   5.781  0.2372 -0.1503  1.0825
  561MOL0     C73973   2.539   7.554   5.837 -0.6290 -0.7462  0.1388
  561MOL0     C73974   2.914   7.486   6.033  0.0498 -0.7186  0.4673
  561MOL0     C73975   2.908   7.433   6.161  0.3952  0.0071 -1.1162
  561MOL0     C73976   3.022   7.447   6.243 -0.1121  0.2220 -0.3452
  561MOL0     C73977   3.139   7.517   6.206 -0.2105 -0.2867  0.0295
  561MOL0     O73978   3.246   7.517   6.300  0.9750 -0.3061 -0.3751
  561MOL0     C73979   3.357   7.602   6.264 -1.0987  0.2062  0.0723
  561MOL0     C73980   3.473   7.618   6.371  0.9030  0.1228 -1.0500
  561MOL0     C73981   3.547   7.481   6.392  0.7021 -0.3910 -0.4690
  561MOL0     C73982   3.675   7.479   6.318  0.8402 -0.2027  0.3898
  561MOL0     C73983   3.755   7.375   6.381  0.5868 -0.7354 -0.4585
  561MOL0     C73984   3.830   7.299   6.427 -0.0088 -0.3096 -0.0639
  561MOL0     C73985   3.142   7.571   6.074 -0.3460  0.5085  0.7515
  561MOL0     C73986   3.023   7.569   5.998  0.2347  0.5290  0.1636
  561MOL0     H73987   2.453   7.300   6.051 -1.0582  0.3590 -1.1957
  561MOL0     H73988   2.233   7.349   5.958  0.6317 -0.5743  3.0709
  561MOL0     H73989   2.088   7.353   5.798 -2.7195 -0.4640  1.8658
  561MOL0     H73990   1.997   7.482   5.716  0.2147  0.1231 -0.3017
  561MOL0     H73991   2.055   7.474   6.005  3.0624  0.5268 -1.3808
  561MOL0     H73992   1.897   7.481   5.920  0.3159 -0.5650  1.0569
  561MOL0     H73993   2.091   7.717   5.908 -1.5859  3.7603  1.6082
  561MOL0     H73994   1.973   7.702   6.019  1.7104  1.8652 -0.6350
  561MOL0     H73995   1.942   7.740   5.707  2.0462 -1.8067  0.5425
  561MOL0     H73996   1.811   7.673   5.814  0.2984 -0.8167  1.7568
  561MOL0     H73997   1.961   7.937   5.868 -0.5812  1.3764  0.2332
  561MOL0     H73998   1.797   7.888   5.923 -1.3358 -0.0979 -1.1747
  561MOL0     H73999   1.704   7.915   5.724  0.3024  0.4569  3.0695
  561MOL0     H74000   1.854   7.922   5.638  0.7102 -1.6794  0.8222
  561MOL0     H74001   1.706   8.113   5.815  0.2064  0.4847 -1.0561
  561MOL0     H74002   1.871   8.166   5.798 -2.7165  3.0088  1.9814
  561MOL0     H74003   1.653   8.114   5.591 -1.4181  1.4747  0.0438
  561MOL0     H74004   1.805   8.176   5.553 -0.2756  1.7911  0.3762
  561MOL0     H74005   1.814   8.427   5.541  0.9092  2.2324  0.0929
  561MOL0     H74006   1.702   8.694   5.518 -1.7807  3.0526 -0.0944
  561MOL0     H74007   1.655   8.733   5.675  2.4677 -0.4137  0.0362
  561MOL0     H74008   1.409   8.660   5.610 -0.4140 -0.2219  0.6032
  561MOL0     H74009   1.471   8.600   5.471 -0.0909 -2.0564  3.1714
  561MOL0     H74010   1.511   8.895   5.558  2.9608 -0.4750  0.2420
  561MOL0     H74011   1.530   8.835   5.390  1.1157 -0.0528  0.8674
  561MOL0     H74012   1.336   8.945   5.388  0.9263 -0.1887  0.3353
  561MOL0     H74013   1.273   8.889   5.542  0.3033  0.4726 -0.1980
  561MOL0     H74014   1.101   8.951   5.423 -1.3522  0.2592  1.0077
  561MOL0     H74015   0.868   8.966   5.339 -1.7736 -2.0789  2.6024
  561MOL0     H74016   0.614   8.471   5.026 -1.3998 -1.6680 -2.2190
  561MOL0     H74017   0.394   8.417   4.917  0.7476 -0.7623 -1.1907
  561MOL0     H74018   0.134   8.777   4.831  1.6344  0.9554  1.9295
  561MOL0     H74019   0.110   8.690   4.986 -1.4348  0.7975 -0.5369
  561MOL0     H74020  -0.102   8.674   4.883  0.1505  0.2544  0.7227
  561MOL0     H74021  -0.038   8.520   4.842 -2.8235  0.7660  0.4843
  561MOL0     H74022   0.050   8.660   4.615 -0.4087  1.3845 -2.9530
  561MOL0     H74023  -0.031   8.793   4.680  2.8242 -0.8199 -0.7909
  561MOL0     H74024  -0.188   8.533   4.641 -0.6429 -1.8762 -3.9254
  561MOL0     H74025  -0.261   8.688   4.655 -0.8784 -1.2522 -0.8730
  561MOL0     H74026  -0.073   8.614   4.441 -0.1033 -1.3815 -0.6162
  561MOL0     H74027  -0.160   8.770   4.452  1.4520 -0.4414  0.6309
  561MOL0     H74028  -0.332   8.528   4.438  2.7122  1.2710  3.0805
  561MOL0     H74029  -0.209   8.509   4.333 -1.2208 -0.2641 -1.5629
  561MOL0     H74030  -0.430   8.620   4.242 -0.0882 -1.6036  1.4270
  561MOL0     H74031  -0.357   8.775   4.301 -0.7824  0.2503  0.7623
  561MOL0     H74032  -0.300   8.758   4.070 -1.8191  1.3899  1.0439
  561MOL0     H74033  -0.236   8.588   4.087 -2.6550 -0.3579  0.5492
  561MOL0     H74034   0.326   8.836   4.869 -0.4170  1.5250  2.8976
  561MOL0     H74035   0.547   8.877   4.969  3.0906 -1.2866 -2.3391
  561MOL0     H74036   0.934   8.609   5.102 -1.8894  0.0460  0.9393
  561MOL0     H74037   1.166   8.598   5.206 -1.6166 -1.3019 -0.3185
  561MOL0     H74038   2.413   7.648   5.702  2.9483 -0.9343  0.1296
  561MOL0     H74039   2.621   7.616   5.802  0.6661 -3.3530 -1.7688
  561MOL0     H74040   2.823   7.368   6.180 -0.8222  1.5249 -1.1638
  561MOL0     H74041   3.018   7.414   6.347 -1.5700  0.0143 -0.4491
  561MOL0     H74042   3.309   7.695   6.233 -6.6042 -1.6791  1.8194
  561MOL0     H74043   3.409   7.564   6.175 -0.6850  3.1556 -1.0710
  561MOL0     H74044   3.544   7.699   6.352  1.3979  0.2264  1.0665
  561MOL0     H74045   3.419   7.654   6.459  2.5724 -2.1241  1.0292
  561MOL0     H74046   3.486   7.399   6.352  1.2392 -1.0908  0.1215
  561MOL0     H74047   3.567   7.474   6.499 -1.3830 -1.2135 -0.0941
  561MOL0     H74048   3.648   7.458   6.214 -0.0441  2.1658  0.0745
  561MOL0     H74049   3.713   7.581   6.316 -0.8460  0.4978  1.3950
  561MOL0     H74050   3.905   7.244   6.480  1.8913  1.5351 -0.6827
  561MOL0     H74051   3.219   7.625   6.020 -1.4393  2.2088  0.7982
  561MOL0     H74052   3.020   7.605   5.895  1.9729  0.9378  0.2189
  562MOL0     O74053   3.570   3.758   9.719  0.1588  0.5879  1.1664
  562MOL0     C74054   3.575   3.777   9.839 -0.3730 -1.0773  0.2736
  562MOL0     O74055   3.497   3.861   9.904  0.2455  0.3996 -0.2597
  562MOL0     C74056   3.377   3.916   9.847  0.7365 -0.0215 -1.0740
  562MOL0     C74057   3.296   3.833   9.764 -0.1596 -0.3366 -0.0270
  562MOL0     C74058   3.158   3.873   9.737  0.1391  0.0398 -0.1695
  562MOL0     C74059   3.113   4.002   9.781 -0.3463  0.3002 -0.0572
  562MOL0     O74060   2.999   4.064   9.750  0.0760 -0.7554 -0.6265
  562MOL0     C74061   2.887   3.983   9.707 -0.3233 -0.3765  0.2009
  562MOL0     C74062   2.871   3.953   9.557 -0.2378  0.1646  0.2608
  562MOL0     C74063   2.752   3.850   9.520 -0.5401  0.3654 -0.0440
  562MOL0     C74064   2.617   3.909   9.576  0.9812 -0.0947  1.0297
  562MOL0     C74065   2.492   3.834   9.517 -0.1641 -0.5940 -0.0599
  562MOL0     C74066   2.367   3.905   9.569  0.0788 -1.1353  0.2300
  562MOL0     C74067   2.234   3.849   9.508  0.1031 -0.0867 -0.5432
  562MOL0     C74068   2.116   3.907   9.592  0.8878 -1.1039 -0.1312
  562MOL0     N74069   2.023   3.798   9.641 -0.0461 -0.0755 -0.4885
  562MOL0     C74070   2.046   3.744   9.767  0.5958 -0.2408  0.4832
  562MOL0     C74071   1.952   3.658   9.789  0.2739 -0.0174  0.0406
  562MOL0     C74072   1.930   3.569   9.909 -0.2452 -0.7263 -0.4269
  562MOL0     C74073   1.901   3.614  10.060  0.3028 -0.5460 -0.7440
  562MOL0     C74074   1.825   3.750  10.076  0.2449 -0.7646  0.0498
  562MOL0     C74075   1.700   3.763   9.996 -0.0092 -0.3916  0.6408
  562MOL0     O74076   1.587   3.682  10.038  0.2207  0.2795 -0.3630
  562MOL0     C74077   1.461   3.725  10.015 -0.1324 -0.2313 -0.0911
  562MOL0     C74078   1.383   3.651   9.926  1.4714 -0.0451 -0.1674
  562MOL0     C74079   1.244   3.681   9.919  0.0310 -0.1572 -0.5120
  562MOL0     C74080   1.180   3.770  10.009 -0.6471  0.3743  0.3379
  562MOL0     C74081   1.038   3.786  10.019 -0.0971  0.2855  0.7447
  562MOL0     O74082   0.973   3.740   9.912  0.3821 -0.5485  0.6666
  562MOL0     C74083   0.847   3.702   9.945  0.0833 -0.4260  0.0565
  562MOL0     C74084   0.836   3.571   9.994  0.3453 -0.0050 -0.5370
  562MOL0     C74085   0.710   3.520  10.034 -0.3906 -0.5204 -0.7994
  562MOL0     C74086   0.601   3.604  10.034  0.4521 -0.4434  0.3486
  562MOL0     O74087   0.499   3.545  10.105 -0.1691 -0.6577 -0.4734
  562MOL0     C74088   0.367   3.610  10.088  0.4973 -0.3204 -0.2923
  562MOL0     C74089   0.252   3.505  10.129  0.0426 -0.5820  0.3258
  562MOL0     C74090   0.115   3.556  10.097 -0.3210  0.3684  0.3298
  562MOL0     C74091   0.018   3.435  10.123 -0.5769 -1.1242  0.1764
  562MOL0     C74092  -0.126   3.481  10.089  1.0086  1.0678 -0.2311
  562MOL0     C74093  -0.235   3.382  10.119 -0.2189 -0.6602  0.6042
  562MOL0     C74094  -0.237   3.344  10.266  0.2978 -0.1670  0.5347
  562MOL0     C74095  -0.368   3.271  10.291  0.1049 -0.5361 -0.3363
  562MOL0    Cl74096  -0.521   3.366  10.281 -0.0667 -0.5202 -0.4301
  562MOL0     C74097   0.607   3.736   9.990 -1.1886  0.2548  0.2106
  562MOL0     C74098   0.732   3.789   9.951  0.0799 -0.1170  0.3427
  562MOL0     O74099   0.994   3.837  10.121  0.1813 -0.6830  0.1806
  562MOL0     C74100   1.262   3.850  10.085 -0.0766 -0.3691  0.0775
  562MOL0     C74101   1.402   3.825  10.097 -0.3465  0.6054  0.8229
  562MOL0     N74102   1.866   3.670   9.679 -0.3857  0.2564  0.0018
  562MOL0     N74103   1.912   3.749   9.590  0.3448  0.2117  0.7354
  562MOL0     C74104   3.207   4.087   9.842  0.6150  0.0004  0.0080
  562MOL0     C74105   3.330   4.046   9.872 -0.9723  0.0723  0.0114
  562MOL0     C74106   3.674   3.709   9.915 -0.3377 -0.9164  0.5646
  562MOL0     C74107   3.781   3.643   9.846 -0.5451  0.7582  0.3012
  562MOL0     C74108   3.892   3.592   9.924  0.1989  0.1326  0.3408
  562MOL0     C74109   3.897   3.606  10.060 -0.0450 -0.1408  0.6806
  562MOL0     O74110   3.983   3.543  10.149  0.6325  0.0899  0.1250
  562MOL0     C74111   4.104   3.504  10.104 -1.0039  0.4305  0.2435
  562MOL0     C74112   4.188   3.464  10.219 -0.1099  0.6742  0.9017
  562MOL0     C74113   4.325   3.425  10.172  1.3553 -0.4385 -0.1476
  562MOL0     C74114   4.396   3.364  10.291  0.7876  0.3571 -0.2494
  562MOL0     C74115   4.531   3.323  10.244  0.8725  0.4388 -0.8248
  562MOL0     C74116   4.649   3.304  10.206  0.0547  0.3414 -0.2523
  562MOL0     C74117   3.784   3.655  10.121  0.1238  0.3950  0.4906
  562MOL0     C74118   3.674   3.712  10.054  0.4409 -0.3004 -0.2781
  562MOL0     H74119   3.330   3.740   9.719 -0.8745 -0.9768  0.7297
  562MOL0     H74120   3.084   3.807   9.692  0.6112 -0.4320 -0.2748
  562MOL0     H74121   2.804   4.052   9.728  1.3561  1.5263  0.9427
  562MOL0     H74122   2.881   3.888   9.761  1.0185 -1.0042 -0.7058
  562MOL0     H74123   2.958   3.898   9.520 -1.4417 -0.7628 -1.2893
  562MOL0     H74124   2.854   4.042   9.494  0.1184 -1.4002 -2.1794
  562MOL0     H74125   2.783   3.754   9.563  1.6173  0.1637 -1.8454
  562MOL0     H74126   2.746   3.834   9.412  0.3839 -3.7449  0.3321
  562MOL0     H74127   2.618   3.906   9.686 -1.4148 -2.6238  1.0974
  562MOL0     H74128   2.606   4.011   9.538 -3.9449 -0.7839  0.0203
  562MOL0     H74129   2.495   3.735   9.563 -0.1894 -1.3376 -1.6207
  562MOL0     H74130   2.507   3.835   9.409  0.0809  2.4313 -0.0997
  562MOL0     H74131   2.377   4.010   9.539  0.8165 -1.1832  0.3015
  562MOL0     H74132   2.371   3.898   9.678  1.5460 -1.4432  0.1751
  562MOL0     H74133   2.214   3.868   9.402 -0.5511 -0.2983 -0.4676
  562MOL0     H74134   2.221   3.741   9.511 -0.5131 -0.0433 -1.3017
  562MOL0     H74135   2.060   3.981   9.534  2.2219  1.8352  2.0518
  562MOL0     H74136   2.142   3.973   9.676 -1.6323  0.3634 -0.4135
  562MOL0     H74137   2.136   3.766   9.823  1.7213 -0.5904 -1.1244
  562MOL0     H74138   2.025   3.515   9.919 -1.3950 -2.3237  3.8566
  562MOL0     H74139   1.840   3.511   9.890 -0.1475 -1.7794  2.0304
  562MOL0     H74140   1.993   3.623  10.119  0.3669 -0.2289 -0.8867
  562MOL0     H74141   1.847   3.538  10.116  2.7357 -2.5729 -0.9730
  562MOL0     H74142   1.797   3.747  10.182 -0.0364  1.3993  0.0866
  562MOL0     H74143   1.892   3.835  10.061  0.2021 -1.0012 -1.6383
  562MOL0     H74144   1.717   3.728   9.893  1.1630 -1.5846  1.2086
  562MOL0     H74145   1.671   3.868   9.990  3.9558  1.0835  3.3926
  562MOL0     H74146   1.420   3.568   9.866 -0.9905 -2.6642  1.6725
  562MOL0     H74147   1.186   3.642   9.836 -0.4639  1.7847 -1.1470
  562MOL0     H74148   0.922   3.505  10.003 -0.4891 -1.1121 -0.4816
  562MOL0     H74149   0.716   3.420  10.076  2.0814  0.0593  0.4719
  562MOL0     H74150   0.344   3.635   9.984  3.0327 -1.9502 -1.3188
  562MOL0     H74151   0.368   3.697  10.155  0.4998 -0.9319  0.5127
  562MOL0     H74152   0.266   3.499  10.237 -0.4626 -0.0302  0.4239
  562MOL0     H74153   0.271   3.408  10.081  3.1386 -0.3665  0.9326
  562MOL0     H74154   0.118   3.578   9.990 -0.8178 -0.3706  0.1562
  562MOL0     H74155   0.097   3.648  10.154 -0.3069 -1.2556  3.1510
  562MOL0     H74156   0.044   3.353  10.055 -0.7918  0.6964 -2.2398
  562MOL0     H74157   0.017   3.392  10.224  1.0502 -3.9322 -0.8821
  562MOL0     H74158  -0.135   3.512   9.985 -0.6348  2.0950  0.1635
  562MOL0     H74159  -0.137   3.576  10.143 -2.0789  1.9462 -2.1467
  562MOL0     H74160  -0.218   3.290  10.062  1.2243 -0.0206 -0.0565
  562MOL0     H74161  -0.331   3.427  10.092  0.1824  0.0794  0.3833
  562MOL0     H74162  -0.155   3.275  10.288  0.1099 -0.5527  0.0304
  562MOL0     H74163  -0.221   3.430  10.332  1.9904  0.3952 -0.5479
  562MOL0     H74164  -0.367   3.206  10.379 -2.0676 -1.4016 -0.8901
  562MOL0     H74165  -0.372   3.190  10.217  0.6922  0.4048 -1.4267
  562MOL0     H74166   0.527   3.809   9.997  0.3870  1.9356  2.1749
  562MOL0     H74167   0.749   3.888   9.912  1.7911  0.7515  3.0276
  562MOL0     H74168   1.217   3.918  10.157 -2.2601 -2.7054  1.1055
  562MOL0     H74169   1.468   3.871  10.171  0.0052 -0.8514  1.4643
  562MOL0     H74170   3.178   4.189   9.867  1.5433  0.0114  1.0741
  562MOL0     H74171   3.397   4.119   9.918 -1.6612  0.0891  1.0245
  562MOL0     H74172   3.771   3.635   9.738  1.8079 -0.5423  0.1127
  562MOL0     H74173   3.977   3.551   9.870  2.4833  3.4065  1.1219
  562MOL0     H74174   4.149   3.589  10.052 -0.1945 -0.7217 -1.0337
  562MOL0     H74175   4.091   3.431  10.023 -0.5837 -1.7688  2.0716
  562MOL0     H74176   4.184   3.552  10.283  1.5480  0.7815  0.8990
  562MOL0     H74177   4.148   3.375  10.269  1.0474 -0.7672 -0.6179
  562MOL0     H74178   4.376   3.517  10.144  2.3175 -1.4169 -1.7450
  562MOL0     H74179   4.333   3.368  10.079 -1.1741 -1.0563 -0.0791
  562MOL0     H74180   4.404   3.429  10.379  0.1383 -1.1483  0.9888
  562MOL0     H74181   4.339   3.275  10.319  1.4448  0.1767  0.5791
  562MOL0     H74182   4.745   3.279  10.165  0.4812  1.4526  0.0515
  562MOL0     H74183   3.767   3.646  10.228 -0.5477  0.1943  0.3701
  562MOL0     H74184   3.603   3.749  10.126  2.1322 -3.2257  3.2357
  563MOL0     O74185   4.012   6.864  11.151  0.7437  0.2817 -0.7743
  563MOL0     C74186   4.018   6.965  11.222 -0.3353 -0.8971 -0.2304
  563MOL0     O74187   3.934   7.070  11.221  0.1352 -1.0934  0.4245
  563MOL0     C74188   3.823   7.054  11.137  0.0385 -0.5241 -0.5186
  563MOL0     C74189   3.830   7.025  10.997  0.2320  0.4347 -0.6921
  563MOL0     C74190   3.709   6.989  10.927  0.2697 -0.0199  0.1043
  563MOL0     C74191   3.582   7.008  10.983  0.3940 -0.2905  0.7766
  563MOL0     O74192   3.460   6.988  10.918 -0.1239 -0.2307  0.3815
  563MOL0     C74193   3.455   6.935  10.787  0.1618 -0.2937 -0.0425
  563MOL0     C74194   3.309   6.881  10.774  0.1683 -0.0494  0.2032
  563MOL0     C74195   3.194   6.981  10.810 -0.1294  0.6435  0.0316
  563MOL0     C74196   3.052   6.933  10.780 -0.0044 -0.5474  0.1177
  563MOL0     C74197   2.933   7.028  10.823  0.7014  0.1125 -0.7886
  563MOL0     C74198   2.802   7.004  10.739  0.4445 -0.3180  0.1542
  563MOL0     C74199   2.721   6.897  10.807 -0.2193  0.3712 -0.4864
  563MOL0     C74200   2.618   6.830  10.709 -0.2044 -0.2485 -0.1491
  563MOL0     N74201   2.539   6.915  10.622  0.5840 -0.1972 -0.4371
  563MOL0     C74202   2.470   7.026  10.663 -0.2810  0.1719  1.1518
  563MOL0     C74203   2.400   7.064  10.555  0.0902 -0.1923 -0.2529
  563MOL0     C74204   2.309   7.187  10.550 -0.1790 -0.2163 -0.1665
  563MOL0     C74205   2.176   7.160  10.612 -0.3928  0.0586  0.3112
  563MOL0     C74206   2.091   7.289  10.636 -0.3465  0.5974 -0.5603
  563MOL0     C74207   1.944   7.252  10.665  0.7346  0.0092  0.0744
  563MOL0     O74208   1.868   7.369  10.664  0.6006  0.6112  0.1000
  563MOL0     C74209   1.735   7.360  10.708 -0.3480 -1.4066  0.1748
  563MOL0     C74210   1.718   7.360  10.848 -0.0880  0.5779  0.3002
  563MOL0     C74211   1.586   7.377  10.901 -0.0683  0.4160 -0.0545
  563MOL0     C74212   1.480   7.406  10.809  0.0985 -0.1702  0.5992
  563MOL0     C74213   1.355   7.448  10.871  0.0362 -0.7846 -0.0395
  563MOL0     O74214   1.239   7.411  10.810  0.6247  0.5223 -0.5091
  563MOL0     C74215   1.113   7.423  10.875  0.6219  1.0645  0.4740
  563MOL0     C74216   1.027   7.313  10.888 -0.4672  1.0918  0.2861
  563MOL0     C74217   0.909   7.319  10.963 -0.2326 -0.9884 -0.0560
  563MOL0     C74218   0.868   7.435  11.022  0.0311 -0.3419 -0.1369
  563MOL0     O74219   0.756   7.436  11.101  0.1143 -0.4046  0.4571
  563MOL0     C74220   0.673   7.554  11.094  0.2363 -0.0443  0.4493
  563MOL0     C74221   0.530   7.509  11.097  0.9658  0.8678 -1.4107
  563MOL0     C74222   0.477   7.433  11.217 -0.0624  0.3989 -0.2776
  563MOL0     C74223   0.329   7.436  11.225  0.3977 -0.5251  0.5795
  563MOL0     C74224   0.278   7.559  11.298  0.9794  0.7982 -0.4514
  563MOL0     C74225   0.127   7.560  11.309  0.2690  0.4213  0.5754
  563MOL0     C74226   0.067   7.682  11.380  0.2725  0.2486  0.4502
  563MOL0     C74227  -0.092   7.684  11.370  0.4875 -0.2483  0.3822
  563MOL0    Cl74228  -0.136   7.740  11.206  0.0122 -0.0144  0.0615
  563MOL0     C74229   0.953   7.552  11.010  0.4819  0.4354  0.3013
  563MOL0     C74230   1.069   7.547  10.924  0.2762  0.7294 -1.1140
  563MOL0     O74231   1.357   7.510  10.976  0.2108 -0.1138  0.1669
  563MOL0     C74232   1.489   7.384  10.673 -0.1656  0.9073 -0.2318
  563MOL0     C74233   1.625   7.360  10.623  0.1475  0.1692  0.2807
  563MOL0     N74234   2.439   6.976  10.453  0.4020  0.2110  0.2398
  563MOL0     N74235   2.525   6.889  10.497 -0.5252  0.3224  0.0287
  563MOL0     C74236   3.582   7.058  11.114 -0.7433  0.8593 -0.3247
  563MOL0     C74237   3.694   7.067  11.194  0.6360 -0.3941  0.4370
  563MOL0     C74238   4.140   6.974  11.313 -0.1481 -0.9820  0.4323
  563MOL0     C74239   4.243   6.880  11.298 -0.2348  0.0898 -1.0964
  563MOL0     C74240   4.353   6.885  11.390  0.6896 -0.1146  0.9876
  563MOL0     C74241   4.355   6.981  11.492 -0.5333 -0.4088 -0.1619
  563MOL0     O74242   4.450   6.976  11.593 -0.3558  0.1310 -1.1224
  563MOL0     C74243   4.456   7.066  11.703 -0.3651 -0.6352 -0.1432
  563MOL0     C74244   4.502   7.199  11.660  1.0017  0.2088  0.1069
  563MOL0     C74245   4.533   7.280  11.788 -0.2767 -0.4482  0.1669
  563MOL0     C74246   4.642   7.381  11.746  0.6526 -0.2377  0.4014
  563MOL0     C74247   4.577   7.477  11.655  0.4727 -0.0250 -0.0427
  563MOL0     C74248   4.501   7.530  11.587 -0.8674 -0.3905  0.7442
  563MOL0     C74249   4.259   7.082  11.489  0.2478 -1.5571  0.3359
  563MOL0     C74250   4.155   7.083  11.392 -0.5115 -0.8167 -0.2422
  563MOL0     H74251   3.926   7.018  10.945  1.2161 -1.2640  1.2131
  563MOL0     H74252   3.720   6.936  10.833 -0.1292  0.2895 -0.1155
  563MOL0     H74253   3.525   6.857  10.757  1.4162  1.2330 -1.2240
  563MOL0     H74254   3.496   7.018  10.730  0.9426  0.3459  1.3868
  563MOL0     H74255   3.300   6.797  10.843  0.7380  2.5417  3.6842
  563MOL0     H74256   3.296   6.845  10.671  0.9077 -1.4422  0.5613
  563MOL0     H74257   3.200   7.072  10.749 -1.3543  1.8625  1.6316
  563MOL0     H74258   3.198   7.013  10.914 -2.2972  1.9743 -0.2354
  563MOL0     H74259   3.039   6.923  10.672 -0.7376 -2.4328  0.3403
  563MOL0     H74260   3.039   6.833  10.823  1.6774 -0.1959  1.5207
  563MOL0     H74261   2.974   7.126  10.796  0.5610  0.6301  0.7736
  563MOL0     H74262   2.915   7.041  10.930  0.3479  2.0330 -1.0356
  563MOL0     H74263   2.825   6.988  10.633  3.1155 -0.4240  0.6862
  563MOL0     H74264   2.754   7.100  10.758  1.1621 -0.1273  1.0326
  563MOL0     H74265   2.789   6.815  10.831 -2.8931 -1.7972  0.1952
  563MOL0     H74266   2.672   6.937  10.896 -0.1873  0.2209 -0.4014
  563MOL0     H74267   2.561   6.759  10.769 -2.4733 -0.0823 -1.9915
  563MOL0     H74268   2.666   6.764  10.635 -0.5315  1.5964 -2.1003
  563MOL0     H74269   2.462   7.057  10.766 -0.8788 -1.0334  1.4871
  563MOL0     H74270   2.287   7.210  10.445 -2.2792 -1.1716 -0.0033
  563MOL0     H74271   2.347   7.275  10.601 -3.6382  2.2515 -1.4121
  563MOL0     H74272   2.190   7.098  10.701  0.4385  1.0555  0.8877
  563MOL0     H74273   2.119   7.094  10.546  2.4337 -3.2476  0.8600
  563MOL0     H74274   2.125   7.337  10.728  0.0698 -1.7967  0.6122
  563MOL0     H74275   2.116   7.355  10.552  0.0477  1.5703  0.2998
  563MOL0     H74276   1.925   7.213  10.766 -0.8391  1.3874  0.3706
  563MOL0     H74277   1.903   7.190  10.585  1.2356  1.5444 -1.4313
  563MOL0     H74278   1.805   7.345  10.911  1.0938 -3.3925 -1.9224
  563MOL0     H74279   1.569   7.374  11.008 -0.6556  0.1048 -0.1529
  563MOL0     H74280   1.059   7.223  10.836  2.9811  1.7196  1.0314
  563MOL0     H74281   0.845   7.231  10.955 -0.0745 -0.9787 -5.7424
  563MOL0     H74282   0.693   7.615  11.005  0.9016  0.8796  1.2119
  563MOL0     H74283   0.695   7.616  11.181  1.0835 -2.2758  1.8901
  563MOL0     H74284   0.506   7.454  11.005  0.6428 -0.1948 -0.7093
  563MOL0     H74285   0.461   7.592  11.078 -0.7843  0.5228  2.4834
  563MOL0     H74286   0.532   7.469  11.305  1.3510 -2.9681  0.3620
  563MOL0     H74287   0.523   7.334  11.213 -1.7830 -0.7996  4.0875
  563MOL0     H74288   0.284   7.438  11.125  1.5177  0.4661  0.0747
  563MOL0     H74289   0.288   7.351  11.280  1.4037 -1.0403  0.5550
  563MOL0     H74290   0.306   7.643  11.233 -1.5053  0.4955 -2.0501
  563MOL0     H74291   0.319   7.562  11.400  1.8396  0.3860 -0.7713
  563MOL0     H74292   0.094   7.478  11.373 -0.6110  1.7838  1.9063
  563MOL0     H74293   0.082   7.543  11.211 -0.5782 -0.4722  1.1127
  563MOL0     H74294   0.102   7.668  11.483  1.3674 -1.5708 -0.1110
  563MOL0     H74295   0.119   7.776  11.361  1.6293  0.0838  2.9627
  563MOL0     H74296  -0.146   7.755  11.434  0.9724  3.1100 -2.6154
  563MOL0     H74297  -0.130   7.582  11.386  0.6213 -0.4012 -0.2697
  563MOL0     H74298   0.931   7.646  11.060 -2.5398  1.0502 -1.8943
  563MOL0     H74299   1.128   7.637  10.913  2.9547 -0.9496 -1.2934
  563MOL0     H74300   1.398   7.394  10.615 -0.3744  0.1506 -0.0329
  563MOL0     H74301   1.632   7.346  10.516 -1.7416  0.7777  0.0423
  563MOL0     H74302   3.480   7.058  11.151 -1.7711 -1.6436 -2.7923
  563MOL0     H74303   3.687   7.082  11.301 -0.0928  0.7117  0.2546
  563MOL0     H74304   4.237   6.787  11.243  2.3546  0.2538 -1.8143
  563MOL0     H74305   4.425   6.804  11.390  0.4023 -0.4733 -1.8887
  563MOL0     H74306   4.521   7.022  11.779 -0.3760  0.5782  0.6009
  563MOL0     H74307   4.361   7.078  11.756  0.0097 -0.8297  0.5837
  563MOL0     H74308   4.595   7.183  11.604  0.0570  0.2556 -1.5393
  563MOL0     H74309   4.432   7.256  11.599  2.4589  0.7219 -1.1589
  563MOL0     H74310   4.581   7.217  11.863 -3.1484 -2.0783  0.7665
  563MOL0     H74311   4.437   7.314  11.828 -0.3392  0.2963 -0.5761
  563MOL0     H74312   4.665   7.451  11.827 -1.6643  1.3816 -0.2309
  563MOL0     H74313   4.727   7.321  11.711  1.2161 -0.8167  2.5832
  563MOL0     H74314   4.444   7.576  11.509  1.3999  1.1859 -0.1091
  563MOL0     H74315   4.248   7.171  11.550  0.6283  1.6429 -3.8238
  563MOL0     H74316   4.081   7.162  11.385  0.0130 -0.1152  1.5068
  564MOL0     O74317   8.641   3.415   2.253 -0.7435 -0.1995 -0.6990
  564MOL0     C74318   8.646   3.358   2.366  0.1597 -0.0480  0.7616
  564MOL0     O74319   8.546   3.346   2.457 -0.2884  0.0888 -0.1612
  564MOL0     C74320   8.419   3.386   2.429  0.5399  0.1120 -0.4273
  564MOL0     C74321   8.349   3.429   2.543  0.9667 -1.5367  1.2059
  564MOL0     C74322   8.226   3.486   2.540  0.3490  0.1115 -0.2113
  564MOL0     C74323   8.163   3.512   2.421 -0.0351  0.7578  0.3932
  564MOL0     O74324   8.046   3.574   2.399  0.1980  0.0403  0.4112
  564MOL0     C74325   8.019   3.691   2.469 -0.2580  0.4117  0.6335
  564MOL0     C74326   7.876   3.685   2.518 -0.3180  0.0404  0.2384
  564MOL0     C74327   7.852   3.616   2.653 -1.2487  0.2856  0.4858
  564MOL0     C74328   7.707   3.620   2.707  0.3987 -0.8788  1.0021
  564MOL0     C74329   7.693   3.537   2.835 -0.4177  0.2118 -0.2518
  564MOL0     C74330   7.576   3.586   2.918  0.6400 -0.2330  0.0224
  564MOL0     C74331   7.535   3.466   3.014 -0.1311  0.1941 -0.2732
  564MOL0     C74332   7.425   3.516   3.113 -0.0212 -0.5210  0.1912
  564MOL0     N74333   7.288   3.504   3.052 -0.4890 -0.0774 -0.3245
  564MOL0     C74334   7.213   3.396   3.060  0.1125  1.0036 -0.3820
  564MOL0     C74335   7.117   3.411   2.972  0.5952 -0.6875 -0.2477
  564MOL0     C74336   7.008   3.299   2.951  0.7438 -0.5572 -0.4286
  564MOL0     C74337   6.881   3.361   2.899 -0.3320  0.5192 -0.1947
  564MOL0     C74338   6.797   3.263   2.822 -0.0492  0.0347 -0.8489
  564MOL0     C74339   6.753   3.143   2.895 -0.2996  0.2540 -0.4825
  564MOL0     O74340   6.680   3.052   2.817 -0.0633  0.7978  0.4305
  564MOL0     C74341   6.546   3.043   2.815 -1.4202  0.5941  0.2852
  564MOL0     C74342   6.489   2.915   2.811 -0.5316 -0.5892  0.2773
  564MOL0     C74343   6.352   2.901   2.798  0.2273  0.2653 -0.8910
  564MOL0     C74344   6.270   3.017   2.811  0.6233 -0.6339  1.1049
  564MOL0     C74345   6.128   3.014   2.772  0.3639  0.1056 -0.0010
  564MOL0     O74346   6.066   2.892   2.764 -0.1345  0.1949  0.1505
  564MOL0     C74347   5.934   2.884   2.756 -0.3861 -0.4837  0.6907
  564MOL0     C74348   5.874   2.815   2.651 -0.7775  0.9221  0.3917
  564MOL0     C74349   5.739   2.801   2.649 -0.0707 -0.8641  0.6282
  564MOL0     C74350   5.652   2.856   2.748 -0.5453  0.3064 -0.2128
  564MOL0     O74351   5.517   2.839   2.740  0.6376 -0.8499  0.0775
  564MOL0     C74352   5.423   2.917   2.812 -0.5171  0.3525 -0.2889
  564MOL0     C74353   5.392   2.870   2.957 -0.2512 -0.5216  0.1862
  564MOL0     C74354   5.459   2.730   2.976 -0.6186  0.0105  0.6156
  564MOL0     C74355   5.403   2.646   3.103 -0.1920  0.4585  0.9108
  564MOL0     C74356   5.252   2.643   3.124  0.7743 -0.9505  0.4932
  564MOL0     C74357   5.174   2.586   3.001  0.5992  0.1907  0.3746
  564MOL0     C74358   5.021   2.562   3.019 -0.9073  0.0142 -0.0377
  564MOL0     C74359   4.998   2.416   3.074 -0.4281  0.5883 -0.5068
  564MOL0    Cl74360   4.825   2.399   3.063 -0.4312 -0.3267  0.1377
  564MOL0     C74361   5.717   2.917   2.859 -0.0129 -0.1171 -0.0607
  564MOL0     C74362   5.852   2.936   2.863  0.1670 -0.0216  0.3976
  564MOL0     O74363   6.074   3.122   2.769 -0.5105  0.2117  0.0537
  564MOL0     C74364   6.327   3.143   2.849 -0.3309  1.2427 -0.0455
  564MOL0     C74365   6.462   3.148   2.852  0.5030 -0.0343 -0.0000
  564MOL0     N74366   7.116   3.551   2.935 -0.2201  0.8592  0.3237
  564MOL0     N74367   7.219   3.603   2.987  0.3990 -0.1915 -0.2239
  564MOL0     C74368   8.222   3.456   2.308  0.5658  0.1066  0.0544
  564MOL0     C74369   8.347   3.393   2.311  0.5187 -0.2094  0.4821
  564MOL0     C74370   8.776   3.317   2.408 -1.3092 -0.3498 -0.0023
  564MOL0     C74371   8.892   3.390   2.391  0.1940  0.0357  1.5522
  564MOL0     C74372   9.011   3.346   2.450 -0.5320 -0.5563  0.5833
  564MOL0     C74373   9.023   3.226   2.512  0.7643 -1.0676 -0.3497
  564MOL0     O74374   9.149   3.190   2.559  0.0948 -0.8972  0.6224
  564MOL0     C74375   9.159   3.098   2.671 -0.3559 -0.2716  0.6212
  564MOL0     C74376   9.307   3.074   2.685 -0.7882  0.1048 -0.2391
  564MOL0     C74377   9.346   2.935   2.724 -1.3112  1.7624 -0.4457
  564MOL0     C74378   9.496   2.918   2.733  0.0883  0.2774 -0.1591
  564MOL0     C74379   9.539   2.810   2.827 -0.1233 -0.1983 -0.4823
  564MOL0     C74380   9.576   2.713   2.897  0.2640  0.7615 -0.2058
  564MOL0     C74381   8.902   3.154   2.541  0.7028  0.4143  0.9135
  564MOL0     C74382   8.778   3.198   2.485  0.4241 -0.6841  0.1722
  564MOL0     H74383   8.405   3.424   2.636  0.4940  0.5641  1.6555
  564MOL0     H74384   8.172   3.518   2.628  0.0991 -1.0984  0.0896
  564MOL0     H74385   8.029   3.771   2.395 -1.3950  2.8753  2.9338
  564MOL0     H74386   8.098   3.705   2.544  0.5729 -1.2809  0.1103
  564MOL0     H74387   7.822   3.628   2.442  1.8961 -2.4023  0.3606
  564MOL0     H74388   7.835   3.786   2.528  1.0071  0.8729 -2.0170
  564MOL0     H74389   7.914   3.682   2.715 -0.6691  0.7814 -0.5975
  564MOL0     H74390   7.884   3.512   2.655 -1.8012  0.0046 -2.2188
  564MOL0     H74391   7.694   3.726   2.731  0.7113 -0.6013  0.0123
  564MOL0     H74392   7.644   3.573   2.632 -0.9012 -0.4695  1.8100
  564MOL0     H74393   7.782   3.557   2.895 -0.6330  0.0604  0.1171
  564MOL0     H74394   7.688   3.430   2.814 -2.7678  0.2154  0.0128
  564MOL0     H74395   7.497   3.610   2.847 -1.1608  1.8532  2.5309
  564MOL0     H74396   7.611   3.675   2.970  0.2304 -0.2588  0.3509
  564MOL0     H74397   7.509   3.375   2.958  6.4956 -2.6604  0.4076
  564MOL0     H74398   7.629   3.454   3.068  2.1210  3.2377 -3.1867
  564MOL0     H74399   7.437   3.623   3.132  0.3280 -0.9025  2.4719
  564MOL0     H74400   7.433   3.462   3.208 -1.0327  1.1928  1.2970
  564MOL0     H74401   7.235   3.313   3.126  1.3150  0.2581 -1.6525
  564MOL0     H74402   6.994   3.228   3.033  1.7326 -0.1692  0.0974
  564MOL0     H74403   7.052   3.238   2.872  0.8411  0.2333 -0.9963
  564MOL0     H74404   6.918   3.425   2.819  2.8099  1.6344  1.9403
  564MOL0     H74405   6.820   3.425   2.963  1.1055  2.3215 -0.5363
  564MOL0     H74406   6.708   3.316   2.787 -1.9636 -0.2752  2.9761
  564MOL0     H74407   6.852   3.232   2.732  3.5047  3.8306 -0.2785
  564MOL0     H74408   6.678   3.164   2.971 -0.9897  0.2539 -1.1585
  564MOL0     H74409   6.836   3.095   2.948 -0.3953  1.3829  0.7499
  564MOL0     H74410   6.548   2.825   2.796  0.7061  0.4409 -1.3473
  564MOL0     H74411   6.303   2.809   2.769 -3.4248  0.5938  3.2473
  564MOL0     H74412   5.939   2.767   2.579 -1.7278  1.0970 -0.5935
  564MOL0     H74413   5.694   2.742   2.569 -2.3852  1.8223 -0.2099
  564MOL0     H74414   5.333   2.918   2.750 -1.5472  0.0359  1.1571
  564MOL0     H74415   5.458   3.021   2.817 -1.9641  0.8092  1.1088
  564MOL0     H74416   5.284   2.855   2.957 -0.4817  0.8478 -1.0308
  564MOL0     H74417   5.442   2.942   3.023  0.9388  0.2777 -1.5158
  564MOL0     H74418   5.568   2.732   2.980 -0.2301 -2.6035 -3.0817
  564MOL0     H74419   5.428   2.670   2.890  0.6204 -0.4516  0.4731
  564MOL0     H74420   5.451   2.548   3.095  0.7209  0.9623 -0.0680
  564MOL0     H74421   5.439   2.695   3.194 -0.5509 -2.0674  2.5325
  564MOL0     H74422   5.207   2.743   3.128 -0.7723 -1.6519  1.7526
  564MOL0     H74423   5.232   2.594   3.219  2.4640  0.3239  1.5801
  564MOL0     H74424   5.213   2.491   2.963  0.2992  0.1081  0.2730
  564MOL0     H74425   5.187   2.646   2.910 -0.8386 -1.8268 -1.2564
  564MOL0     H74426   4.972   2.631   3.089 -2.2976  1.1322 -1.9883
  564MOL0     H74427   4.978   2.571   2.919  1.2599  0.5047 -0.9728
  564MOL0     H74428   5.044   2.408   3.172  1.3757 -0.8901 -1.4136
  564MOL0     H74429   5.067   2.356   3.015  1.4310 -1.0023  2.9969
  564MOL0     H74430   5.662   2.956   2.944 -1.5586 -3.3126  0.5696
  564MOL0     H74431   5.887   3.007   2.937 -1.4866  0.3296  0.8841
  564MOL0     H74432   6.270   3.229   2.881 -0.1980  1.4907 -0.4647
  564MOL0     H74433   6.506   3.245   2.875 -1.2661  1.2177 -1.6021
  564MOL0     H74434   8.176   3.470   2.210 -1.2563 -0.7008  0.7326
  564MOL0     H74435   8.398   3.358   2.222  1.1679  1.4867  0.1310
  564MOL0     H74436   8.912   3.478   2.331  1.5215  2.1145  4.7474
  564MOL0     H74437   9.097   3.408   2.430 -1.7806  1.0780  0.0362
  564MOL0     H74438   9.120   3.001   2.637  0.3775 -0.4040  0.1403
  564MOL0     H74439   9.106   3.130   2.761 -1.8494 -1.6149  0.2889
  564MOL0     H74440   9.353   3.083   2.586  0.1524  0.5441  0.2222
  564MOL0     H74441   9.338   3.140   2.766 -2.0196 -0.2499  0.5397
  564MOL0     H74442   9.312   2.861   2.651  0.6088  0.2399  0.1172
  564MOL0     H74443   9.295   2.916   2.819  1.0486  0.1192  0.6167
  564MOL0     H74444   9.541   2.905   2.634  3.3826  2.5221  0.8582
  564MOL0     H74445   9.538   3.014   2.763 -2.1299  1.3026 -0.1101
  564MOL0     H74446   9.598   2.624   2.952  1.4307  0.1955 -1.5269
  564MOL0     H74447   8.893   3.056   2.587 -3.9509 -0.1667 -0.6867
  564MOL0     H74448   8.683   3.144   2.489 -1.4372  2.3622  0.6844
  565MOL0     O74449   7.409   5.077   6.884  0.0429  0.7371 -0.0652
  565MOL0     C74450   7.510   5.037   6.821  0.4854 -0.5905 -0.2223
  565MOL0     O74451   7.514   4.973   6.702 -0.0878  0.9098 -0.9701
  565MOL0     C74452   7.402   4.943   6.651  0.3201 -0.1897 -0.3260
  565MOL0     C74453   7.311   4.853   6.715  1.3947  0.6258  0.4172
  565MOL0     C74454   7.187   4.815   6.658  0.2048  0.2954 -0.2611
  565MOL0     C74455   7.151   4.860   6.532  0.0501 -0.5852  0.0498
  565MOL0     O74456   7.051   4.801   6.451  0.3328 -0.1257 -0.1319
  565MOL0     C74457   6.929   4.805   6.512 -0.1890 -1.4707 -0.2777
  565MOL0     C74458   6.838   4.712   6.444  0.4785  0.0386 -0.0272
  565MOL0     C74459   6.697   4.717   6.506 -0.8535  0.0760 -0.1795
  565MOL0     C74460   6.611   4.834   6.452 -0.2674 -0.1370 -0.2726
  565MOL0     C74461   6.477   4.794   6.400  0.2555 -0.3005  0.1002
  565MOL0     C74462   6.379   4.913   6.390  0.3153  0.6647 -0.0055
  565MOL0     C74463   6.264   4.879   6.292 -0.6247 -0.1713  0.8310
  565MOL0     C74464   6.112   4.899   6.332 -0.6840 -0.6376 -0.3099
  565MOL0     N74465   6.060   4.765   6.387  0.0022 -0.7118  0.9625
  565MOL0     C74466   6.051   4.725   6.516 -0.0026  0.5602 -0.5739
  565MOL0     C74467   5.944   4.637   6.523 -0.4220  0.1916 -0.4874
  565MOL0     C74468   5.901   4.573   6.653  0.0402  0.2593  0.0210
  565MOL0     C74469   5.778   4.490   6.640  0.6762 -0.7572  0.4773
  565MOL0     C74470   5.649   4.581   6.640 -0.1992  0.0734  0.6717
  565MOL0     C74471   5.513   4.504   6.644  0.1765  0.2713  1.2271
  565MOL0     O74472   5.505   4.440   6.517 -0.4612  0.2169  0.0681
  565MOL0     C74473   5.400   4.350   6.501  0.0224 -0.1355  0.4193
  565MOL0     C74474   5.280   4.364   6.561 -0.1384 -0.6989  0.4082
  565MOL0     C74475   5.184   4.267   6.549 -0.5773  0.8252 -0.1025
  565MOL0     C74476   5.194   4.157   6.468  0.7689  0.1889 -0.1692
  565MOL0     C74477   5.073   4.066   6.471  0.5194 -0.2907 -0.0290
  565MOL0     O74478   4.980   4.072   6.567 -0.4692  0.2007 -0.0237
  565MOL0     C74479   4.883   3.980   6.566  0.5077  0.1565  1.0713
  565MOL0     C74480   4.812   3.935   6.449  0.1127 -0.0829  1.3340
  565MOL0     C74481   4.708   3.836   6.465 -0.6815  0.3159  0.0949
  565MOL0     C74482   4.666   3.789   6.591 -0.4341  0.1832 -0.4858
  565MOL0     O74483   4.572   3.694   6.594 -0.3967  0.3291 -0.0369
  565MOL0     C74484   4.515   3.638   6.710 -0.0091  0.2933  0.3797
  565MOL0     C74485   4.499   3.489   6.686  0.2212 -0.5688 -0.5754
  565MOL0     C74486   4.369   3.459   6.618 -0.3748  0.5948 -0.0292
  565MOL0     C74487   4.347   3.312   6.601  0.4163  0.6125  0.6612
  565MOL0     C74488   4.203   3.280   6.563 -0.5745  0.4545 -0.9546
  565MOL0     C74489   4.139   3.343   6.446  0.6203 -0.0315  0.0218
  565MOL0     C74490   4.183   3.287   6.312 -0.8668  0.6213 -0.0848
  565MOL0     C74491   4.148   3.367   6.195  0.6159 -0.1487  0.2991
  565MOL0    Cl74492   4.230   3.295   6.059  0.3733  0.0140  0.1854
  565MOL0     C74493   4.738   3.839   6.708 -0.4051 -0.1393  0.2382
  565MOL0     C74494   4.842   3.933   6.694  0.5908  0.7703  1.0379
  565MOL0     O74495   5.070   3.993   6.377  0.0931  0.2524 -0.2426
  565MOL0     C74496   5.315   4.143   6.393 -0.4033 -0.8712  0.3703
  565MOL0     C74497   5.411   4.241   6.413 -0.2581  0.3715 -0.1292
  565MOL0     N74498   5.892   4.624   6.394 -0.7528  0.1011 -1.1907
  565MOL0     N74499   5.958   4.701   6.318  0.7067  0.1903  0.7161
  565MOL0     C74500   7.231   4.947   6.465 -0.8589 -0.7996 -0.0652
  565MOL0     C74501   7.354   4.984   6.523  0.4260  0.4205  0.0077
  565MOL0     C74502   7.645   5.070   6.884  0.3641  0.5133  0.0389
  565MOL0     C74503   7.768   5.029   6.828 -0.4506  0.9627 -0.3422
  565MOL0     C74504   7.888   5.050   6.901 -0.2892 -0.7867  0.0868
  565MOL0     C74505   7.887   5.112   7.025 -0.0871 -0.1535  0.3356
  565MOL0     O74506   7.994   5.131   7.102  0.2969 -0.8545 -0.0997
  565MOL0     C74507   8.126   5.117   7.053 -0.3929  0.6583  0.0230
  565MOL0     C74508   8.228   5.196   7.137 -0.2717  0.5449  0.1095
  565MOL0     C74509   8.249   5.164   7.291 -0.0943 -0.1450 -1.0535
  565MOL0     C74510   8.127   5.179   7.379 -0.8779  0.4589 -0.1456
  565MOL0     C74511   8.158   5.130   7.515 -0.2372  0.1594 -0.2743
  565MOL0     C74512   8.192   5.087   7.625 -0.0145 -0.2693  0.1256
  565MOL0     C74513   7.766   5.159   7.083 -0.8357  0.2951  0.4885
  565MOL0     C74514   7.647   5.129   7.008 -0.3198  0.3876 -0.3167
  565MOL0     H74515   7.323   4.813   6.815 -0.1024  0.0390  0.3908
  565MOL0     H74516   7.122   4.749   6.713  0.3724  2.4395  2.7834
  565MOL0     H74517   6.899   4.910   6.500 -0.7176 -1.3844  1.4839
  565MOL0     H74518   6.930   4.781   6.619  3.8870  1.0400  0.4895
  565MOL0     H74519   6.875   4.610   6.459  1.2266  0.6054  2.6464
  565MOL0     H74520   6.836   4.731   6.337 -2.1420 -2.0023 -0.4502
  565MOL0     H74521   6.710   4.717   6.615  1.9472 -1.6982 -0.4107
  565MOL0     H74522   6.659   4.620   6.471  0.1592 -0.3022 -0.2692
  565MOL0     H74523   6.602   4.899   6.540  0.7089 -0.3669  0.0119
  565MOL0     H74524   6.668   4.892   6.379  0.4295  1.9691  1.8035
  565MOL0     H74525   6.419   4.726   6.463 -0.7203 -0.3022 -0.7740
  565MOL0     H74526   6.490   4.747   6.303  0.9756 -0.7290  0.3988
  565MOL0     H74527   6.427   5.005   6.357 -1.0744  0.8278 -1.7112
  565MOL0     H74528   6.333   4.910   6.489 -0.3166 -2.7605 -0.2722
  565MOL0     H74529   6.268   4.950   6.210 -1.4876 -0.1316  0.8077
  565MOL0     H74530   6.289   4.783   6.246  4.0335  0.6399  1.2197
  565MOL0     H74531   6.044   4.936   6.256  0.4838  1.6642 -0.3058
  565MOL0     H74532   6.118   4.975   6.411  1.3772 -0.2407 -0.7924
  565MOL0     H74533   6.101   4.768   6.602  2.9756 -1.8050 -0.9312
  565MOL0     H74534   5.876   4.658   6.718 -0.0994  1.3271 -1.4047
  565MOL0     H74535   5.986   4.515   6.691 -1.2192 -1.6129  0.1181
  565MOL0     H74536   5.766   4.423   6.726 -0.8051  0.8602  1.6000
  565MOL0     H74537   5.785   4.420   6.557 -1.3667  1.6441 -1.9029
  565MOL0     H74538   5.653   4.646   6.728  3.3839  1.3380 -0.2719
  565MOL0     H74539   5.651   4.636   6.546  1.9454  0.2957  0.7856
  565MOL0     H74540   5.436   4.581   6.652  0.8295  1.7841 -3.8011
  565MOL0     H74541   5.512   4.431   6.726  0.1581 -1.7867 -0.5172
  565MOL0     H74542   5.260   4.447   6.628 -0.2140 -1.6907  1.6452
  565MOL0     H74543   5.093   4.282   6.605 -0.9433  0.8349 -0.6938
  565MOL0     H74544   4.840   3.972   6.351 -2.6016  0.0035  0.5312
  565MOL0     H74545   4.661   3.797   6.375  1.8122  1.0031 -1.6068
  565MOL0     H74546   4.413   3.672   6.733 -0.8271 -1.4003 -0.5471
  565MOL0     H74547   4.575   3.650   6.801 -0.5999 -1.1079  0.9860
  565MOL0     H74548   4.518   3.437   6.781 -2.6684 -0.4205  0.1946
  565MOL0     H74549   4.581   3.446   6.628  0.2968 -1.0155 -0.1480
  565MOL0     H74550   4.380   3.504   6.519  2.2701 -0.1054 -0.1447
  565MOL0     H74551   4.289   3.503   6.678 -0.5129  2.5525 -1.5369
  565MOL0     H74552   4.409   3.271   6.520  1.0349  0.0546  1.3991
  565MOL0     H74553   4.376   3.262   6.694  0.3218  0.8331  0.8095
  565MOL0     H74554   4.140   3.295   6.651  1.9706  2.4019  0.6845
  565MOL0     H74555   4.199   3.173   6.539  3.6462 -0.5211  1.5841
  565MOL0     H74556   4.147   3.452   6.442 -2.1300  0.3969  2.4891
  565MOL0     H74557   4.033   3.314   6.445  0.0640  1.8740 -0.3303
  565MOL0     H74558   4.290   3.267   6.308 -0.5764  1.1262  2.9376
  565MOL0     H74559   4.130   3.192   6.302 -0.5937  0.6930 -3.8272
  565MOL0     H74560   4.165   3.474   6.204 -2.1484  0.2944  1.4103
  565MOL0     H74561   4.042   3.342   6.180  1.2891 -3.3469 -0.0130
  565MOL0     H74562   4.710   3.819   6.811 -0.7870  0.5239  0.2692
  565MOL0     H74563   4.898   3.965   6.781 -1.3359 -0.0354  2.6530
  565MOL0     H74564   5.337   4.061   6.325 -1.1616 -0.4249 -0.4407
  565MOL0     H74565   5.506   4.223   6.364  0.5772  1.2485  1.1088
  565MOL0     H74566   7.207   4.975   6.363  2.8509 -0.5480 -1.0146
  565MOL0     H74567   7.412   5.061   6.472  2.8121 -1.3368 -0.1189
  565MOL0     H74568   7.780   5.001   6.724 -0.3406 -1.5677  0.3033
  565MOL0     H74569   7.982   5.021   6.857  1.2191  2.9368  0.4662
  565MOL0     H74570   8.143   5.148   6.949 -3.3339 -3.1684 -1.8862
  565MOL0     H74571   8.152   5.011   7.044 -0.6844  0.4974  0.9929
  565MOL0     H74572   8.330   5.185   7.097  0.1641  2.4594  0.6225
  565MOL0     H74573   8.211   5.303   7.120  2.8848  0.9769 -1.0798
  565MOL0     H74574   8.328   5.229   7.329  0.1303 -0.4661 -0.9762
  565MOL0     H74575   8.296   5.066   7.296 -1.2653 -0.6713  0.4165
  565MOL0     H74576   8.096   5.283   7.383  1.8349  1.2996  1.7097
  565MOL0     H74577   8.047   5.115   7.340 -1.2898  0.7934  0.1350
  565MOL0     H74578   8.234   5.038   7.711 -5.0657 -3.6509  1.1397
  565MOL0     H74579   7.770   5.196   7.185  2.8457  0.7323  0.3422
  565MOL0     H74580   7.559   5.164   7.061  0.8002  3.0965 -0.0759
  566MOL0     O74581   9.821   5.229   7.607  0.1153 -0.1938 -0.0515
  566MOL0     C74582   9.832   5.336   7.662  0.0150 -0.2302 -0.9510
  566MOL0     O74583   9.736   5.400   7.739 -0.1991  0.0546  0.4864
  566MOL0     C74584   9.609   5.358   7.759 -0.3877 -0.1120 -0.7591
  566MOL0     C74585   9.510   5.452   7.787 -0.0023  0.5335  1.1278
  566MOL0     C74586   9.379   5.403   7.801 -0.0514 -1.4599  0.0502
  566MOL0     C74587   9.342   5.265   7.812 -0.3701  0.2710  0.4885
  566MOL0     O74588   9.219   5.227   7.854 -0.2231 -0.2822  0.1292
  566MOL0     C74589   9.129   5.332   7.905  0.1428  0.7450  0.6548
  566MOL0     C74590   9.003   5.277   7.958  0.3767  0.7072  0.1067
  566MOL0     C74591   8.946   5.168   7.865  0.4920  0.0375 -0.1697
  566MOL0     C74592   8.792   5.169   7.878 -0.1955  0.5532  0.1924
  566MOL0     C74593   8.751   5.038   7.805 -0.0806 -0.6098 -0.3063
  566MOL0     C74594   8.615   5.056   7.744  0.5695 -0.6077  1.0870
  566MOL0     C74595   8.616   5.155   7.619  0.8302  0.2465 -0.5278
  566MOL0     C74596   8.692   5.099   7.493  0.4670 -0.2034  0.1034
  566MOL0     N74597   8.662   5.167   7.367 -0.4688 -0.1667 -0.0893
  566MOL0     C74598   8.663   5.311   7.341 -1.0383  0.6890 -0.1713
  566MOL0     C74599   8.604   5.327   7.220  0.3474  0.4139  0.3640
  566MOL0     C74600   8.562   5.464   7.175 -0.5118 -0.4139 -0.6689
  566MOL0     C74601   8.448   5.529   7.265  0.7160 -0.4676 -0.2664
  566MOL0     C74602   8.401   5.660   7.212  1.0838 -0.4882  1.1362
  566MOL0     C74603   8.257   5.699   7.240  0.3945 -0.2416 -0.7285
  566MOL0     O74604   8.162   5.598   7.193  0.9402  0.0060  0.2487
  566MOL0     C74605   8.026   5.618   7.157  1.6259  1.2314 -0.3998
  566MOL0     C74606   7.966   5.741   7.176  0.1942  0.5387 -0.5335
  566MOL0     C74607   7.830   5.766   7.150 -0.1372  0.2834 -0.0462
  566MOL0     C74608   7.754   5.655   7.101  1.0628 -1.1476 -0.0729
  566MOL0     C74609   7.607   5.679   7.063 -0.0572 -0.1295  0.1240
  566MOL0     O74610   7.551   5.563   7.018 -0.0001 -0.2011 -0.3950
  566MOL0     C74611   7.419   5.554   6.985  0.5348  1.2496 -0.2394
  566MOL0     C74612   7.380   5.418   6.960  0.6648 -0.1520 -0.4904
  566MOL0     C74613   7.247   5.373   6.945 -0.6601 -0.0121  0.0623
  566MOL0     C74614   7.141   5.463   6.960 -0.0208 -0.5656 -0.0075
  566MOL0     O74615   7.022   5.415   6.949  1.2034  0.0175 -0.6465
  566MOL0     C74616   6.943   5.401   7.071 -0.9517  0.0242  1.0623
  566MOL0     C74617   6.796   5.395   7.029  0.0468  0.0558 -0.6405
  566MOL0     C74618   6.728   5.479   7.143  0.8460  0.3744 -0.0655
  566MOL0     C74619   6.568   5.461   7.127 -0.4802  0.1940  0.0261
  566MOL0     C74620   6.489   5.526   7.246 -0.4672  0.0947  0.1244
  566MOL0     C74621   6.493   5.458   7.382  1.2095  0.1500 -0.4675
  566MOL0     C74622   6.416   5.541   7.485 -0.0455  0.8215 -0.0575
  566MOL0     C74623   6.506   5.658   7.537 -0.1425 -0.2441 -0.5836
  566MOL0    Cl74624   6.418   5.738   7.668  0.3266  0.2878 -0.4037
  566MOL0     C74625   7.172   5.599   6.981  0.1445  0.7467  0.6056
  566MOL0     C74626   7.312   5.649   6.992  0.2322 -0.3623 -0.4669
  566MOL0     O74627   7.559   5.791   7.080 -0.5902 -0.2227 -0.2329
  566MOL0     C74628   7.811   5.528   7.083 -0.0924  0.3492 -0.5485
  566MOL0     C74629   7.953   5.513   7.096 -0.4241  0.7874 -0.6309
  566MOL0     N74630   8.576   5.200   7.175 -0.1976  0.2495 -0.3764
  566MOL0     N74631   8.608   5.107   7.259 -0.2560 -0.1442 -0.1647
  566MOL0     C74632   9.448   5.179   7.786  0.5405  0.5405  0.1943
  566MOL0     C74633   9.578   5.218   7.764  0.5864  0.4949  0.3978
  566MOL0     C74634   9.971   5.390   7.662 -0.4713  0.0670  0.9548
  566MOL0     C74635  10.001   5.521   7.706  0.6675 -0.1655  0.0303
  566MOL0     C74636  10.124   5.583   7.689  0.2517  0.2921 -0.2772
  566MOL0     C74637  10.232   5.518   7.643  0.2397  0.6318 -0.1511
  566MOL0     O74638  10.354   5.592   7.632 -1.0084  0.3398  0.4796
  566MOL0     C74639  10.487   5.522   7.621 -0.1728  0.6476  0.0511
  566MOL0     C74640  10.512   5.418   7.732  0.2868  0.0972 -0.2192
  566MOL0     C74641  10.459   5.461   7.867  0.7745  0.0142 -0.5745
  566MOL0     C74642  10.555   5.424   7.981  0.4709  0.1750 -0.6071
  566MOL0     C74643  10.497   5.475   8.103  0.6623  0.3302 -0.0918
  566MOL0     C74644  10.444   5.522   8.204 -0.2749 -0.0801 -0.4924
  566MOL0     C74645  10.209   5.387   7.611 -0.0920 -0.2939  0.1916
  566MOL0     C74646  10.083   5.330   7.604  0.4088  0.6525 -0.9881
  566MOL0     H74647   9.525   5.559   7.796 -1.4779  0.8060  0.5701
  566MOL0     H74648   9.311   5.482   7.831  1.2032 -0.6555  0.8649
  566MOL0     H74649   9.096   5.403   7.829 -0.3944 -1.0666 -0.9160
  566MOL0     H74650   9.175   5.376   7.994 -0.0426  1.5163  0.3717
  566MOL0     H74651   8.924   5.352   7.969 -0.4622 -0.2209  0.5959
  566MOL0     H74652   9.023   5.234   8.056  1.8718 -1.9685 -1.2619
  566MOL0     H74653   8.981   5.076   7.913 -1.0698 -0.7967 -0.5576
  566MOL0     H74654   8.988   5.182   7.765  1.0572 -2.4410 -0.3630
  566MOL0     H74655   8.751   5.174   7.979  0.4197  2.9973  0.3955
  566MOL0     H74656   8.749   5.258   7.831  1.8395  1.7663  0.5316
  566MOL0     H74657   8.752   4.954   7.874  0.8893  1.1075  1.9028
  566MOL0     H74658   8.825   5.012   7.728  0.5903  1.9056 -0.6038
  566MOL0     H74659   8.542   5.084   7.820  0.5571 -1.1286  1.2775
  566MOL0     H74660   8.590   4.955   7.709 -3.9148  0.4550  0.5817
  566MOL0     H74661   8.511   5.166   7.590  0.4274 -1.0024  0.3534
  566MOL0     H74662   8.663   5.251   7.643  0.8977 -0.3107  1.9123
  566MOL0     H74663   8.665   4.993   7.486 -0.2672  0.0745 -1.8237
  566MOL0     H74664   8.799   5.102   7.516  1.1305 -1.3643 -2.4468
  566MOL0     H74665   8.672   5.390   7.415  0.7486 -0.0455  0.4390
  566MOL0     H74666   8.520   5.461   7.074 -3.2756 -0.2057  0.4112
  566MOL0     H74667   8.647   5.534   7.178 -3.2018  3.0604  1.1026
  566MOL0     H74668   8.472   5.535   7.372 -2.2909  0.3354  0.4409
  566MOL0     H74669   8.367   5.457   7.274  0.0321  0.2810 -0.3753
  566MOL0     H74670   8.465   5.735   7.259  0.4160  0.3835  0.6790
  566MOL0     H74671   8.415   5.658   7.104  1.9353 -1.7649  1.2512
  566MOL0     H74672   8.244   5.790   7.182 -1.2924  0.7138  1.0128
  566MOL0     H74673   8.254   5.722   7.347 -1.3435 -0.9049 -0.6006
  566MOL0     H74674   8.039   5.814   7.211  0.6169 -0.0549 -0.1418
  566MOL0     H74675   7.783   5.862   7.170 -2.0210 -0.8622  1.3576
  566MOL0     H74676   7.459   5.345   6.945 -2.8047 -4.1519 -0.8920
  566MOL0     H74677   7.230   5.267   6.927 -0.6427  0.3171 -2.1705
  566MOL0     H74678   6.972   5.482   7.137  0.5359 -0.6580  1.2858
  566MOL0     H74679   6.979   5.306   7.112 -1.2089 -1.2964 -1.5199
  566MOL0     H74680   6.761   5.293   7.014  0.5355 -0.0877 -0.8212
  566MOL0     H74681   6.779   5.448   6.935 -1.0992  2.1534  0.6549
  566MOL0     H74682   6.764   5.582   7.138  1.7544  0.0630 -0.0852
  566MOL0     H74683   6.754   5.439   7.242 -2.4186 -1.6779  0.1436
  566MOL0     H74684   6.539   5.508   7.032  0.8185  0.9585 -0.0063
  566MOL0     H74685   6.540   5.355   7.121 -2.7267  0.3369  4.0819
  566MOL0     H74686   6.384   5.523   7.215 -0.1249 -1.1045 -0.9841
  566MOL0     H74687   6.515   5.632   7.256 -2.4193  0.6723 -0.4525
  566MOL0     H74688   6.598   5.436   7.405  0.6125 -0.3682  2.0220
  566MOL0     H74689   6.441   5.361   7.379 -0.3302  0.8776  1.1973
  566MOL0     H74690   6.318   5.567   7.445 -1.8138 -2.8604  1.4325
  566MOL0     H74691   6.392   5.483   7.574 -1.0342  0.3745 -0.6040
  566MOL0     H74692   6.534   5.729   7.458  0.1635  0.3450  0.0498
  566MOL0     H74693   6.601   5.613   7.568 -0.9310 -0.0700  2.3623
  566MOL0     H74694   7.094   5.673   6.998 -1.1211 -1.0717  3.3471
  566MOL0     H74695   7.327   5.751   7.024  0.9716 -0.8574  0.8428
  566MOL0     H74696   7.755   5.441   7.052  0.1554  0.7272 -2.1248
  566MOL0     H74697   8.001   5.418   7.074 -0.5661  0.4912  0.2675
  566MOL0     H74698   9.409   5.078   7.785  2.2138 -0.2870  3.4070
  566MOL0     H74699   9.647   5.141   7.731 -1.0463 -1.2132  0.7604
  566MOL0     H74700   9.920   5.586   7.739 -1.5644 -1.4616 -2.5230
  566MOL0     H74701  10.138   5.687   7.718  2.2886 -0.1141  0.3545
  566MOL0     H74702  10.563   5.600   7.630 -0.1608  0.6404  0.0138
  566MOL0     H74703  10.498   5.471   7.525  2.6892  1.4520 -0.1391
  566MOL0     H74704  10.478   5.320   7.695  2.3873 -0.8918  0.3157
  566MOL0     H74705  10.621   5.414   7.741  0.5864  4.9961  0.9522
  566MOL0     H74706  10.358   5.428   7.892  1.1197 -1.1054 -0.6174
  566MOL0     H74707  10.469   5.570   7.865  2.3183 -0.1037 -3.0335
  566MOL0     H74708  10.558   5.315   7.995 -1.3205  0.1287 -0.3674
  566MOL0     H74709  10.655   5.463   7.960  0.9953 -0.5260  0.4632
  566MOL0     H74710  10.384   5.537   8.291  0.6714 -1.2535  0.3901
  566MOL0     H74711  10.292   5.333   7.567 -0.4924 -1.1167  0.4308
  566MOL0     H74712  10.080   5.231   7.559  3.6686  0.4268 -0.9666
  567MOL0     O74713   3.525   2.460   5.541  0.9346  0.3882 -0.0008
  567MOL0     C74714   3.476   2.567   5.521  0.0139  0.6315  0.3090
  567MOL0     O74715   3.358   2.595   5.469 -0.0791  0.2134 -0.5974
  567MOL0     C74716   3.250   2.504   5.469 -0.7052  0.0042  0.4049
  567MOL0     C74717   3.162   2.512   5.359  0.4535  0.3130  0.4743
  567MOL0     C74718   3.050   2.429   5.354 -0.0579  0.5495 -0.0117
  567MOL0     C74719   3.020   2.340   5.450 -0.2325 -0.3097 -0.6355
  567MOL0     O74720   2.913   2.257   5.440 -0.0989 -0.0211 -0.4027
  567MOL0     C74721   2.785   2.317   5.421 -0.0665 -0.0571  0.2227
  567MOL0     C74722   2.688   2.234   5.501 -0.2832 -0.1863  0.1674
  567MOL0     C74723   2.563   2.209   5.408  0.0150  0.2693 -0.8261
  567MOL0     C74724   2.461   2.127   5.492 -0.4363 -0.4256  0.1037
  567MOL0     C74725   2.358   2.083   5.384  0.0632  0.3769 -0.2421
  567MOL0     C74726   2.224   2.042   5.457 -0.0878 -0.1670  0.0442
  567MOL0     C74727   2.121   2.005   5.349 -0.3501 -0.2990 -0.8776
  567MOL0     C74728   1.995   1.982   5.443  1.0980  0.5729 -0.2550
  567MOL0     N74729   2.012   1.864   5.530 -0.3856 -0.2949  0.4808
  567MOL0     C74730   2.068   1.741   5.485  1.2743 -0.0264 -0.5768
  567MOL0     C74731   2.111   1.678   5.598  0.1067  0.6973  0.3066
  567MOL0     C74732   2.184   1.545   5.602  0.5267 -0.2568 -0.2333
  567MOL0     C74733   2.158   1.472   5.739  0.4666 -0.6460 -0.4466
  567MOL0     C74734   2.237   1.335   5.750  0.0481 -0.1086 -0.1268
  567MOL0     C74735   2.220   1.273   5.898  0.2656  0.4427  0.2815
  567MOL0     O74736   2.294   1.357   5.992 -0.2826 -0.2372  0.5301
  567MOL0     C74737   2.227   1.425   6.092 -0.6056  0.0370 -0.0674
  567MOL0     C74738   2.098   1.399   6.139 -0.2992  0.1593  0.9552
  567MOL0     C74739   2.038   1.458   6.255 -0.5600 -0.3373 -0.4138
  567MOL0     C74740   2.116   1.546   6.339  0.8460  0.1018 -0.4318
  567MOL0     C74741   2.060   1.611   6.459 -0.1732 -0.8204 -0.5679
  567MOL0     O74742   2.141   1.698   6.529  0.0474 -0.3943 -0.0831
  567MOL0     C74743   2.100   1.772   6.644  0.2154  0.4989  0.2109
  567MOL0     C74744   2.170   1.894   6.668  0.0463  0.7581  0.4612
  567MOL0     C74745   2.153   1.971   6.785  0.3336  0.5746 -0.2312
  567MOL0     C74746   2.070   1.920   6.887 -0.1393  0.1668  0.1439
  567MOL0     O74747   2.055   2.004   6.997  0.3974 -0.4629 -0.3533
  567MOL0     C74748   2.061   1.942   7.125 -0.3748  0.3896 -0.6314
  567MOL0     C74749   2.064   2.036   7.242 -0.2401  0.5648 -1.0164
  567MOL0     C74750   2.184   2.116   7.249 -0.3249  0.1850  0.6661
  567MOL0     C74751   2.306   2.029   7.310  0.5353  0.3702 -0.2034
  567MOL0     C74752   2.421   2.120   7.321  0.8727 -0.0587 -0.1566
  567MOL0     C74753   2.543   2.073   7.404 -0.3517  0.3115  0.2678
  567MOL0     C74754   2.663   2.170   7.377 -0.2734 -0.7502  0.1816
  567MOL0     C74755   2.656   2.305   7.446  0.1767  0.1485  0.5436
  567MOL0    Cl74756   2.823   2.358   7.490 -0.4793  0.5605  0.2786
  567MOL0     C74757   2.015   1.798   6.873 -0.0358 -0.1041 -0.7159
  567MOL0     C74758   2.027   1.719   6.757  0.3064  0.2135 -0.5632
  567MOL0     O74759   1.940   1.591   6.473  0.0701 -0.1196 -1.1121
  567MOL0     C74760   2.240   1.579   6.284 -0.0359  0.5110  0.2602
  567MOL0     C74761   2.296   1.517   6.171  0.4055 -0.2675 -0.1034
  567MOL0     N74762   2.087   1.754   5.704  0.9723 -0.5609 -0.2372
  567MOL0     N74763   2.023   1.865   5.669 -0.6616  0.3916 -0.0745
  567MOL0     C74764   3.115   2.325   5.557 -0.4655  0.1867 -0.3910
  567MOL0     C74765   3.233   2.409   5.567  0.3525 -0.0878  0.2089
  567MOL0     C74766   3.564   2.685   5.518 -0.7170 -0.0858  0.2465
  567MOL0     C74767   3.507   2.814   5.532  0.2809 -0.4603 -0.5337
  567MOL0     C74768   3.579   2.928   5.579  0.0014  0.7699  0.3162
  567MOL0     C74769   3.709   2.919   5.590 -0.6630 -0.6691  0.0781
  567MOL0     O74770   3.775   3.027   5.648  0.1193  0.2417  0.2436
  567MOL0     C74771   3.862   2.995   5.748 -1.1251  0.4602 -0.0589
  567MOL0     C74772   3.945   3.124   5.776  0.4001  0.0986  0.1674
  567MOL0     C74773   4.066   3.158   5.692  0.2970  0.4071  0.3339
  567MOL0     C74774   4.211   3.099   5.732  0.8803 -0.0344 -0.2068
  567MOL0     C74775   4.305   3.153   5.635 -0.4161  0.3682  0.1890
  567MOL0     C74776   4.388   3.199   5.552  0.5187  0.1249  0.6858
  567MOL0     C74777   3.783   2.797   5.562  0.1058 -0.6263 -0.7138
  567MOL0     C74778   3.709   2.676   5.547 -0.8052 -0.2527  0.3330
  567MOL0     H74779   3.168   2.586   5.280  0.6933  1.3394  1.4241
  567MOL0     H74780   2.967   2.444   5.285 -3.0358 -4.3461  2.0010
  567MOL0     H74781   2.759   2.322   5.315  1.6680  6.0103 -0.2680
  567MOL0     H74782   2.794   2.421   5.451 -2.2183  0.3748 -0.3974
  567MOL0     H74783   2.661   2.285   5.593 -0.0691 -0.7785  0.5680
  567MOL0     H74784   2.736   2.139   5.525  1.0860  0.0644 -1.3457
  567MOL0     H74785   2.582   2.150   5.318 -3.0911 -1.9137 -0.1928
  567MOL0     H74786   2.528   2.309   5.381  1.5128  1.1788  0.4479
  567MOL0     H74787   2.507   2.034   5.525  1.2976  0.0354 -0.9325
  567MOL0     H74788   2.423   2.196   5.569  4.0411  2.1939  0.3285
  567MOL0     H74789   2.391   2.007   5.313 -1.0172 -2.2645  1.9050
  567MOL0     H74790   2.337   2.174   5.327 -0.3762  0.7297  0.4673
  567MOL0     H74791   2.187   2.132   5.509  1.6175  1.4546 -1.4177
  567MOL0     H74792   2.239   1.957   5.524  0.9911 -0.7184 -0.8707
  567MOL0     H74793   2.102   2.093   5.286  2.0559 -0.9079 -2.5687
  567MOL0     H74794   2.157   1.920   5.291 -0.0050 -0.0053 -1.0940
  567MOL0     H74795   1.906   1.968   5.380  1.2887  0.2169 -0.4493
  567MOL0     H74796   1.975   2.064   5.512  1.1870 -0.7238  1.3605
  567MOL0     H74797   2.085   1.704   5.385 -0.9492  1.5911 -1.6486
  567MOL0     H74798   2.292   1.559   5.591  0.3794  2.7289  1.0538
  567MOL0     H74799   2.152   1.483   5.517 -1.8696 -0.3044  0.6313
  567MOL0     H74800   2.050   1.457   5.743  0.0616  1.7845 -0.9676
  567MOL0     H74801   2.191   1.545   5.814  2.8179  2.3452 -4.0117
  567MOL0     H74802   2.195   1.265   5.678 -0.1816 -0.9876  0.8414
  567MOL0     H74803   2.340   1.361   5.721 -0.7559 -0.8763 -4.3087
  567MOL0     H74804   2.259   1.172   5.909 -0.2470  0.2749  0.5764
  567MOL0     H74805   2.113   1.274   5.922 -0.0081  2.7106 -0.7368
  567MOL0     H74806   2.037   1.323   6.091  0.2862 -0.1320  0.6478
  567MOL0     H74807   1.937   1.431   6.284 -0.6074 -2.2946 -2.1358
  567MOL0     H74808   2.242   1.924   6.593  2.2451 -0.1206  2.1054
  567MOL0     H74809   2.190   2.072   6.793 -0.7059  1.1125 -1.8852
  567MOL0     H74810   2.150   1.879   7.126 -1.1177 -0.8613  3.0423
  567MOL0     H74811   1.981   1.869   7.139 -1.9615  2.0472 -0.6680
  567MOL0     H74812   2.038   1.983   7.335 -0.2348 -0.7375 -1.7352
  567MOL0     H74813   1.980   2.107   7.238 -0.7920  0.1408  1.2834
  567MOL0     H74814   2.176   2.207   7.309  1.0994 -0.9070  2.6427
  567MOL0     H74815   2.214   2.149   7.149 -1.6463 -2.4594 -0.7277
  567MOL0     H74816   2.287   1.980   7.406  0.2061 -0.3968 -0.6470
  567MOL0     H74817   2.331   1.954   7.234 -0.8094  2.1566 -2.5460
  567MOL0     H74818   2.389   2.218   7.358 -0.4974 -0.0910 -1.1903
  567MOL0     H74819   2.462   2.126   7.220  1.4301 -2.5476 -0.1338
  567MOL0     H74820   2.557   1.968   7.378  2.3107  0.6728 -0.1076
  567MOL0     H74821   2.533   2.076   7.512  2.2864 -1.7296  0.6750
  567MOL0     H74822   2.754   2.125   7.416  1.9210  0.4868 -3.0696
  567MOL0     H74823   2.688   2.185   7.271 -3.1943 -0.2491 -0.5454
  567MOL0     H74824   2.614   2.296   7.547  2.5199 -0.9151  1.4962
  567MOL0     H74825   2.608   2.382   7.385  4.2504  2.0188 -0.6782
  567MOL0     H74826   1.959   1.763   6.959  3.4310 -1.2004  1.3153
  567MOL0     H74827   1.986   1.619   6.758  0.1099  0.2507 -2.0604
  567MOL0     H74828   2.306   1.654   6.326  0.6163  0.3160 -0.3904
  567MOL0     H74829   2.399   1.534   6.139  0.6355 -0.9378  0.2732
  567MOL0     H74830   3.095   2.250   5.633  0.5347 -2.0705 -2.2681
  567MOL0     H74831   3.301   2.411   5.652 -1.3310  2.6025  1.6423
  567MOL0     H74832   3.405   2.850   5.519  0.3687  0.4132  0.9394
  567MOL0     H74833   3.535   3.025   5.600  0.7542  1.4410 -1.0095
  567MOL0     H74834   3.943   2.926   5.721 -1.1733  0.4559 -0.1927
  567MOL0     H74835   3.817   2.954   5.838 -2.3132  1.4712 -0.1739
  567MOL0     H74836   3.877   3.210   5.769  1.6774  1.1521  0.3380
  567MOL0     H74837   3.993   3.115   5.874 -0.6677 -2.2147  0.5616
  567MOL0     H74838   4.078   3.266   5.682 -1.2859  0.4347 -2.0404
  567MOL0     H74839   4.049   3.125   5.589 -1.2885 -0.7171  0.9218
  567MOL0     H74840   4.222   3.124   5.838 -0.1054 -3.3804  0.8138
  567MOL0     H74841   4.210   2.989   5.727 -0.3619 -0.1116  1.0259
  567MOL0     H74842   4.465   3.234   5.487  0.1042  3.4669  1.8336
  567MOL0     H74843   3.889   2.775   5.575  0.1192 -1.5615 -2.1292
  567MOL0     H74844   3.758   2.579   5.545  1.2051  0.7175 -1.0454
  568MOL0     O74845  10.982   1.451   3.238  0.4427  0.1133 -0.0641
  568MOL0     C74846  11.021   1.518   3.144  0.1066  0.5633  0.5328
  568MOL0     O74847  10.932   1.579   3.058  0.7451  0.6712 -0.5461
  568MOL0     C74848  10.800   1.583   3.101  0.0221 -0.1616 -1.3655
  568MOL0     C74849  10.717   1.482   3.077 -0.3525 -0.4107 -0.6854
  568MOL0     C74850  10.578   1.487   3.120  0.7081 -0.8061  0.6031
  568MOL0     C74851  10.537   1.604   3.188  0.6267  0.1674 -0.5350
  568MOL0     O74852  10.410   1.598   3.242  0.1222 -0.4447  0.3368
  568MOL0     C74853  10.328   1.719   3.244  0.7280 -0.4953  0.1352
  568MOL0     C74854  10.195   1.674   3.202  0.1081  0.0826  0.2018
  568MOL0     C74855  10.104   1.595   3.285  0.2765 -0.4127 -0.2140
  568MOL0     C74856   9.957   1.586   3.224  0.6012  0.4346 -0.8822
  568MOL0     C74857   9.953   1.550   3.077  0.4956  0.4671 -0.0003
  568MOL0     C74858   9.807   1.518   3.031  0.6103  0.4936  0.4037
  568MOL0     C74859   9.803   1.460   2.881 -0.5123 -0.5860  0.2560
  568MOL0     C74860   9.671   1.385   2.851 -0.6858  0.3645 -0.0679
  568MOL0     N74861   9.649   1.256   2.917 -0.2073 -0.8302  0.1925
  568MOL0     C74862   9.657   1.131   2.860  0.6522  0.2796  0.0655
  568MOL0     C74863   9.604   1.050   2.954 -0.5148  0.1392  0.1254
  568MOL0     C74864   9.598   0.899   2.944 -0.8380 -0.0675 -0.6335
  568MOL0     C74865   9.552   0.846   2.802  0.6354  0.0273 -0.0822
  568MOL0     C74866   9.467   0.713   2.792  0.5732  0.1139 -0.3368
  568MOL0     C74867   9.346   0.728   2.883  0.3443 -0.7078  0.0341
  568MOL0     O74868   9.258   0.629   2.833  0.5333  0.0761 -0.4512
  568MOL0     C74869   9.154   0.579   2.912  0.2715  0.7282  0.0994
  568MOL0     C74870   9.076   0.477   2.860  0.4828  0.2488 -0.7346
  568MOL0     C74871   8.959   0.431   2.929 -0.4019 -0.6078 -0.4418
  568MOL0     C74872   8.926   0.494   3.047  0.9146  0.6837 -0.8302
  568MOL0     C74873   8.803   0.447   3.122 -0.4723 -0.6388  0.5445
  568MOL0     O74874   8.715   0.374   3.041 -0.6247  0.0555 -0.2535
  568MOL0     C74875   8.603   0.314   3.101  0.2794 -0.2372  0.0901
  568MOL0     C74876   8.617   0.227   3.211  0.5967 -0.1122 -0.6240
  568MOL0     C74877   8.505   0.163   3.263 -0.4341  0.0616 -0.5132
  568MOL0     C74878   8.377   0.178   3.206 -0.7488 -0.1832 -1.1493
  568MOL0     O74879   8.273   0.108   3.273 -0.0015 -0.5378  0.8207
  568MOL0     C74880   8.145   0.141   3.240  1.1341 -0.1283  0.9709
  568MOL0     C74881   8.045   0.075   3.338 -0.9576 -0.0904 -0.0498
  568MOL0     C74882   7.902   0.107   3.315  0.1542 -0.7683  0.7300
  568MOL0     C74883   7.818   0.022   3.411 -0.5194 -0.3348  0.1681
  568MOL0     C74884   7.674   0.068   3.418  0.0456  0.0164 -0.4369
  568MOL0     C74885   7.609   0.008   3.542  0.2401 -0.1461 -0.7163
  568MOL0     C74886   7.496   0.102   3.594  0.0906  0.0217 -0.3429
  568MOL0     C74887   7.380   0.046   3.674 -0.4116 -0.0547  0.0270
  568MOL0    Cl74888   7.346  -0.119   3.622 -0.3695  0.3708  0.1751
  568MOL0     C74889   8.365   0.269   3.096  0.5005 -0.0478 -0.2246
  568MOL0     C74890   8.476   0.330   3.044 -0.0638  0.0927 -0.9897
  568MOL0     O74891   8.790   0.467   3.243 -0.0219 -0.5184  0.0097
  568MOL0     C74892   9.001   0.597   3.103 -0.2955 -0.3852 -0.2814
  568MOL0     C74893   9.122   0.629   3.044 -0.6164 -0.8926  0.7485
  568MOL0     N74894   9.583   1.120   3.072 -0.0925 -1.1242 -0.1206
  568MOL0     N74895   9.611   1.241   3.045  0.5510 -0.3085 -0.1893
  568MOL0     C74896  10.627   1.707   3.217 -0.3388 -0.0221  0.0183
  568MOL0     C74897  10.761   1.694   3.174 -0.2468  0.6705 -0.2750
  568MOL0     C74898  11.166   1.540   3.121 -0.4831 -0.1214 -0.5097
  568MOL0     C74899  11.218   1.602   3.002  0.3875 -0.7399  0.5249
  568MOL0     C74900  11.352   1.606   2.969 -0.0511  0.3094  0.4154
  568MOL0     C74901  11.446   1.555   3.054 -1.0179  0.2720 -0.7582
  568MOL0     O74902  11.581   1.568   3.033  0.3900 -0.3661 -0.6012
  568MOL0     C74903  11.644   1.705   3.022 -0.2112  0.1849  0.3804
  568MOL0     C74904  11.798   1.691   3.032  0.2886 -0.4681 -1.0133
  568MOL0     C74905  11.851   1.720   3.170 -0.1920  0.0215  0.5165
  568MOL0     C74906  11.877   1.863   3.204  0.1024 -1.0552  0.4343
  568MOL0     C74907  11.961   1.928   3.089  0.3454 -0.5785  0.1658
  568MOL0     C74908  12.028   1.988   3.008  0.1966 -0.6262 -0.6433
  568MOL0     C74909  11.399   1.488   3.171 -0.2606  0.3361  0.2602
  568MOL0     C74910  11.259   1.484   3.209 -0.8487  0.3730 -0.4166
  568MOL0     H74911  10.762   1.399   3.024  1.6124  0.0608  0.1410
  568MOL0     H74912  10.504   1.408   3.109 -0.3510  0.0611  1.2785
  568MOL0     H74913  10.378   1.799   3.190  3.1500 -0.8159  1.7310
  568MOL0     H74914  10.323   1.764   3.343 -3.5339  3.4000 -1.4843
  568MOL0     H74915  10.209   1.622   3.107  0.9134  0.6130  0.0206
  568MOL0     H74916  10.138   1.762   3.172 -1.1607 -0.4524  0.9521
  568MOL0     H74917  10.094   1.645   3.381  1.8513  0.1770 -0.3429
  568MOL0     H74918  10.150   1.496   3.291  1.4908  0.1113 -0.6580
  568MOL0     H74919   9.909   1.512   3.289 -0.2568 -0.7569 -2.7839
  568MOL0     H74920   9.906   1.681   3.240 -0.2578 -0.0058 -0.9382
  568MOL0     H74921  10.003   1.454   3.061  0.9427  0.6951 -0.0018
  568MOL0     H74922  10.002   1.630   3.021  1.0213  0.7826  0.8876
  568MOL0     H74923   9.753   1.613   3.036  2.0955  1.3919  0.0568
  568MOL0     H74924   9.749   1.453   3.097 -1.6668  0.7159 -1.2503
  568MOL0     H74925   9.804   1.541   2.808  0.4691 -0.8139  0.0022
  568MOL0     H74926   9.886   1.389   2.871 -1.4120 -1.6313  0.0588
  568MOL0     H74927   9.661   1.353   2.747 -0.5190 -2.9912  0.8422
  568MOL0     H74928   9.580   1.440   2.878 -2.0099 -1.9131  0.3544
  568MOL0     H74929   9.700   1.108   2.763  0.8379  2.8796 -0.5499
  568MOL0     H74930   9.533   0.853   3.018  0.7843 -4.0793 -1.4399
  568MOL0     H74931   9.699   0.859   2.961 -0.4235  1.2452  0.1168
  568MOL0     H74932   9.633   0.826   2.731 -2.1916 -2.0783 -2.9974
  568MOL0     H74933   9.490   0.927   2.763 -1.8105 -0.1695  2.9712
  568MOL0     H74934   9.437   0.693   2.689 -1.7295 -1.6551  0.5568
  568MOL0     H74935   9.522   0.621   2.815  1.0892  0.4163 -0.3601
  568MOL0     H74936   9.301   0.827   2.866  2.8648  0.6444  0.7098
  568MOL0     H74937   9.374   0.707   2.986 -0.2053 -0.0755  0.3226
  568MOL0     H74938   9.102   0.439   2.761  5.2084  1.1135 -0.0516
  568MOL0     H74939   8.906   0.346   2.887 -2.1881  0.1989  0.0715
  568MOL0     H74940   8.705   0.193   3.265  0.6002  1.6594  0.5576
  568MOL0     H74941   8.523   0.089   3.340  1.4698  1.5969  0.6076
  568MOL0     H74942   8.115   0.096   3.145  0.0898 -0.8152  1.6017
  568MOL0     H74943   8.127   0.247   3.226 -1.6439 -0.6633 -0.0369
  568MOL0     H74944   8.073   0.113   3.436  1.9126 -0.7154 -0.5255
  568MOL0     H74945   8.046  -0.035   3.343 -0.7391 -0.0217  2.3581
  568MOL0     H74946   7.884   0.078   3.211 -0.8157  0.4071  0.5589
  568MOL0     H74947   7.870   0.211   3.316 -3.1790 -1.6361 -1.3018
  568MOL0     H74948   7.825  -0.083   3.380 -1.1558 -0.0343 -1.0826
  568MOL0     H74949   7.861   0.038   3.510 -0.2043 -3.5635  0.6594
  568MOL0     H74950   7.617   0.042   3.328 -0.1169 -0.9471 -0.0732
  568MOL0     H74951   7.673   0.175   3.441 -0.9915 -0.7407  3.9645
  568MOL0     H74952   7.689   0.003   3.617 -0.9236  1.3221  0.7180
  568MOL0     H74953   7.574  -0.094   3.524  1.6153 -0.7475 -0.0916
  568MOL0     H74954   7.538   0.173   3.665 -1.6116  0.3961  0.3423
  568MOL0     H74955   7.456   0.148   3.503 -1.3794 -1.4164 -0.4735
  568MOL0     H74956   7.291   0.106   3.650 -0.5900 -0.7938 -1.2623
  568MOL0     H74957   7.399   0.046   3.782 -1.1136 -1.6969  0.1761
  568MOL0     H74958   8.264   0.277   3.055 -0.4731 -0.8473  1.8294
  568MOL0     H74959   8.482   0.382   2.949  0.5401 -2.6383 -2.5609
  568MOL0     H74960   8.970   0.646   3.195  1.0176 -0.2356  0.1057
  568MOL0     H74961   9.188   0.703   3.088  0.2704  0.1410 -2.1057
  568MOL0     H74962  10.586   1.785   3.281  2.9910  0.1691  2.1612
  568MOL0     H74963  10.846   1.756   3.200 -0.6770  0.9744  0.4268
  568MOL0     H74964  11.157   1.661   2.934  2.9651  0.7180 -0.6563
  568MOL0     H74965  11.381   1.667   2.884 -2.9372  1.5494  0.2157
  568MOL0     H74966  11.604   1.769   3.101  0.7200  0.0480  0.9793
  568MOL0     H74967  11.614   1.740   2.923 -1.7322  0.8172  1.0290
  568MOL0     H74968  11.831   1.592   2.999  2.8679 -0.6559  1.7097
  568MOL0     H74969  11.846   1.746   2.951  0.1352  0.7729 -0.2740
  568MOL0     H74970  11.953   1.683   3.177  0.7414  2.2588 -0.4681
  568MOL0     H74971  11.787   1.672   3.245  0.8232  0.2072  1.5311
  568MOL0     H74972  11.783   1.918   3.212 -0.3605 -1.9518  1.2725
  568MOL0     H74973  11.930   1.870   3.300  2.5680 -0.2415 -0.8894
  568MOL0     H74974  12.092   2.029   2.933  1.6321  0.4651  1.0957
  568MOL0     H74975  11.480   1.449   3.233 -0.0651  1.6343  0.8646
  568MOL0     H74976  11.232   1.431   3.299  3.1053  1.1352  1.4172
  569MOL0     O74977   7.383  11.304  11.015  0.5565 -0.2590  0.1433
  569MOL0     C74978   7.425  11.186  11.001  0.0677 -0.4777 -0.4551
  569MOL0     O74979   7.354  11.069  10.970  0.6004 -0.1546  0.1489
  569MOL0     C74980   7.221  11.064  10.929  0.1704 -0.3270  0.9022
  569MOL0     C74981   7.163  10.935  10.930 -0.3756 -0.3560 -0.3444
  569MOL0     C74982   7.036  10.910  10.867  0.1320 -0.2473 -0.0993
  569MOL0     C74983   6.949  11.018  10.838  0.4014  0.0347  0.2567
  569MOL0     O74984   6.814  10.992  10.793 -0.5222 -0.2515  0.5887
  569MOL0     C74985   6.723  11.106  10.811 -0.1861 -0.1193  0.2757
  569MOL0     C74986   6.578  11.070  10.780  0.8552 -1.2368  1.2737
  569MOL0     C74987   6.476  11.183  10.775 -0.3802  0.0199  1.0831
  569MOL0     C74988   6.344  11.132  10.811  0.7261 -0.0284 -0.1751
  569MOL0     C74989   6.221  11.215  10.778  0.7663  0.5168  0.1466
  569MOL0     C74990   6.096  11.127  10.794 -0.3918 -0.2231  0.0632
  569MOL0     C74991   5.956  11.198  10.773  0.4660 -0.0199  0.8414
  569MOL0     C74992   5.932  11.241  10.626 -0.1650 -0.7171  0.3709
  569MOL0     N74993   5.800  11.308  10.606 -0.8197  0.3622  0.5907
  569MOL0     C74994   5.693  11.236  10.578  0.2588  0.3042 -0.2617
  569MOL0     C74995   5.593  11.326  10.591 -0.6741 -0.5729 -0.1727
  569MOL0     C74996   5.441  11.319  10.588 -1.2584  0.3505  0.3409
  569MOL0     C74997   5.407  11.341  10.445  0.3535  0.3326 -0.0881
  569MOL0     C74998   5.423  11.481  10.394  0.3494  0.0181  0.5627
  569MOL0     C74999   5.311  11.572  10.431  0.2489  0.1452  0.0791
  569MOL0     O75000   5.184  11.515  10.389 -0.3136  0.4093 -0.7878
  569MOL0     C75001   5.076  11.536  10.467 -0.6900  0.8386  0.3484
  569MOL0     C75002   5.053  11.660  10.513  0.4841  1.2868 -0.9078
  569MOL0     C75003   4.951  11.681  10.608 -0.0892 -0.0662  1.3701
  569MOL0     C75004   4.870  11.572  10.648  1.7432 -0.1276 -0.2378
  569MOL0     C75005   4.755  11.580  10.736 -0.4586 -1.2651 -0.5680
  569MOL0     O75006   4.733  11.707  10.796 -0.3126  1.0181  1.0819
  569MOL0     C75007   4.629  11.721  10.889 -0.8323  0.7953  0.1895
  569MOL0     C75008   4.494  11.691  10.850 -0.7768 -0.4009  0.9288
  569MOL0     C75009   4.390  11.736  10.937  0.0170 -0.1598 -0.6298
  569MOL0     C75010   4.413  11.805  11.050 -0.5829  0.7276  0.0425
  569MOL0     O75011   4.317  11.832  11.146  0.7530  0.2530 -0.7301
  569MOL0     C75012   4.282  11.716  11.218  0.3809  0.2726  0.6430
  569MOL0     C75013   4.369  11.676  11.338  0.3031 -0.1484 -0.3009
  569MOL0     C75014   4.496  11.593  11.311 -0.4320 -0.6750  0.5319
  569MOL0     C75015   4.615  11.638  11.403  0.8152  0.3141 -0.3815
  569MOL0     C75016   4.708  11.530  11.432 -0.0661  0.0874  0.6904
  569MOL0     C75017   4.654  11.400  11.477  0.3078 -0.2070 -0.3652
  569MOL0     C75018   4.538  11.393  11.586 -1.0945 -0.2634  0.9846
  569MOL0     C75019   4.588  11.402  11.729  0.5443 -0.0971 -0.1077
  569MOL0    Cl75020   4.466  11.407  11.859  0.2360 -0.0487  0.6878
  569MOL0     C75021   4.544  11.841  11.070  0.8081  0.1137  0.0238
  569MOL0     C75022   4.658  11.801  10.997  0.0040 -0.1535 -0.2537
  569MOL0     O75023   4.678  11.487  10.745  0.0226  0.8173 -0.2142
  569MOL0     C75024   4.893  11.443  10.596  0.2591 -0.1583 -0.2103
  569MOL0     C75025   5.001  11.423  10.515  0.0224  1.2962  0.3841
  569MOL0     N75026   5.653  11.445  10.625  0.6901 -0.8790  0.3063
  569MOL0     N75027   5.779  11.436  10.629  0.2769  0.2209  0.1263
  569MOL0     C75028   7.006  11.144  10.852  0.3837  0.1288  1.0445
  569MOL0     C75029   7.138  11.167  10.888  0.3075  0.2871 -0.1210
  569MOL0     C75030   7.575  11.164  11.019 -0.5305 -0.0383  0.4061
  569MOL0     C75031   7.651  11.059  10.962 -0.4546 -0.2084 -0.0774
  569MOL0     C75032   7.790  11.045  10.983 -0.1216 -0.0321  0.4565
  569MOL0     C75033   7.862  11.146  11.049  1.2912 -0.7007  0.3536
  569MOL0     O75034   8.002  11.153  11.056 -0.0019 -0.6383 -0.2360
  569MOL0     C75035   8.057  11.145  11.198  0.2337 -0.8592  0.0423
  569MOL0     C75036   8.048  11.004  11.242  0.3737  0.2534 -0.3540
  569MOL0     C75037   8.116  10.905  11.155 -0.0364 -0.3192 -0.3259
  569MOL0     C75038   8.270  10.924  11.133 -0.0090  0.2036 -0.5590
  569MOL0     C75039   8.352  10.834  11.049 -0.3737 -0.4284 -0.0141
  569MOL0     C75040   8.414  10.761  10.973  0.0718  0.2571  0.5930
  569MOL0     C75041   7.795  11.255  11.102  0.2436 -0.7365 -0.9050
  569MOL0     C75042   7.652  11.257  11.096  1.6904 -0.6574  1.0436
  569MOL0     H75043   7.234  10.859  10.963  1.5088  1.0899 -0.9031
  569MOL0     H75044   7.005  10.807  10.857 -1.0512 -0.3278  3.2404
  569MOL0     H75045   6.761  11.184  10.745 -1.8757  0.3365 -0.2127
  569MOL0     H75046   6.736  11.141  10.914 -0.9048 -1.1750  0.7407
  569MOL0     H75047   6.550  11.002  10.861  2.5590 -2.8036  0.6240
  569MOL0     H75048   6.567  11.031  10.679 -1.0640 -0.4493  1.1336
  569MOL0     H75049   6.471  11.233  10.678  0.0606 -1.6395  0.1845
  569MOL0     H75050   6.504  11.260  10.848  0.5071  1.0188 -0.2663
  569MOL0     H75051   6.340  11.038  10.755 -0.6673  0.2732 -0.6269
  569MOL0     H75052   6.338  11.102  10.916 -0.6631  0.2746 -0.1452
  569MOL0     H75053   6.215  11.243  10.672 -0.5246 -0.3847 -0.0348
  569MOL0     H75054   6.208  11.303  10.842  0.3057 -1.9886  3.7676
  569MOL0     H75055   6.102  11.087  10.896 -0.9932  0.4560  0.3709
  569MOL0     H75056   6.096  11.045  10.722 -0.3612  1.6314 -2.1674
  569MOL0     H75057   5.873  11.129  10.792  1.1685 -0.4445  2.5499
  569MOL0     H75058   5.947  11.282  10.843 -0.0357  1.3564 -0.8031
  569MOL0     H75059   5.937  11.154  10.560  1.8015 -0.2481 -0.1556
  569MOL0     H75060   6.008  11.315  10.601 -1.0330 -0.2097 -0.8548
  569MOL0     H75061   5.690  11.129  10.563  1.8756  0.5711 -3.1143
  569MOL0     H75062   5.405  11.401  10.650  0.1652  1.3204 -0.0663
  569MOL0     H75063   5.392  11.225  10.614 -3.4786  1.4265  0.2937
  569MOL0     H75064   5.305  11.304  10.427  0.9431 -1.8925  0.7643
  569MOL0     H75065   5.461  11.276  10.375 -0.4343 -2.0353  1.3938
  569MOL0     H75066   5.518  11.525  10.427 -0.6088  2.5864  0.1642
  569MOL0     H75067   5.427  11.478  10.285  2.2087 -3.1332  0.5964
  569MOL0     H75068   5.334  11.670  10.390  0.5642  1.5433  3.3311
  569MOL0     H75069   5.305  11.600  10.536 -3.6644  2.8584 -0.6749
  569MOL0     H75070   5.099  11.754  10.483 -0.0368  1.3744 -1.4466
  569MOL0     H75071   4.939  11.779  10.654  0.2231 -0.4755  2.3365
  569MOL0     H75072   4.467  11.637  10.760  0.3675  1.2452 -0.4769
  569MOL0     H75073   4.291  11.704  10.906  1.1725 -1.7492 -3.0436
  569MOL0     H75074   4.288  11.631  11.150  1.5024 -0.7503  1.9494
  569MOL0     H75075   4.176  11.722  11.246 -0.2346 -0.1215 -1.4643
  569MOL0     H75076   4.304  11.615  11.402  0.2730  1.6919  1.5076
  569MOL0     H75077   4.397  11.766  11.393  1.7241  0.2380 -1.5802
  569MOL0     H75078   4.525  11.606  11.207 -0.5751 -0.3665  0.5303
  569MOL0     H75079   4.477  11.485  11.317  1.9225 -1.1209  0.9590
  569MOL0     H75080   4.669  11.727  11.369  2.0258 -1.4227 -3.4005
  569MOL0     H75081   4.573  11.666  11.500  0.0109 -1.3721 -0.2035
  569MOL0     H75082   4.780  11.565  11.507 -1.5961 -1.6810  3.1341
  569MOL0     H75083   4.752  11.513  11.333 -0.6537  1.6316  0.1459
  569MOL0     H75084   4.734  11.342  11.524  1.8146  0.4254 -2.0157
  569MOL0     H75085   4.613  11.340  11.396  1.1925 -2.8208  1.0084
  569MOL0     H75086   4.459  11.468  11.575 -0.9684  0.1039  2.3483
  569MOL0     H75087   4.498  11.292  11.573  0.8084 -0.7997 -1.3453
  569MOL0     H75088   4.654  11.488  11.745  2.7623 -1.9304  1.3888
  569MOL0     H75089   4.643  11.309  11.751 -2.4946 -1.2598  3.7768
  569MOL0     H75090   4.565  11.921  11.141  2.5632 -0.7427  0.5253
  569MOL0     H75091   4.749  11.855  11.021 -1.6710  2.8922 -0.2912
  569MOL0     H75092   4.834  11.360  10.633 -0.6195 -0.0343 -1.2684
  569MOL0     H75093   5.029  11.323  10.484  1.3657  1.4106  1.1436
  569MOL0     H75094   6.952  11.234  10.824  0.8697 -0.7565 -3.5283
  569MOL0     H75095   7.180  11.266  10.868  0.3127  0.3385  0.1440
  569MOL0     H75096   7.605  11.002  10.881  2.2121  0.7535 -2.4521
  569MOL0     H75097   7.854  10.966  10.944 -0.2141  0.7392 -1.3907
  569MOL0     H75098   7.988  11.189  11.270 -1.9519 -1.9848 -1.2830
  569MOL0     H75099   8.155  11.194  11.202  0.1559 -0.7469  3.3799
  569MOL0     H75100   8.111  10.996  11.331  1.9295 -1.7543 -1.5497
  569MOL0     H75101   7.944  10.975  11.258  0.8032 -1.1064  0.1418
  569MOL0     H75102   8.074  10.890  11.055  3.6400 -3.3424 -1.6847
  569MOL0     H75103   8.097  10.808  11.202 -0.1624  0.2188  0.7790
  569MOL0     H75104   8.289  11.027  11.101 -2.5023  0.8366 -0.1960
  569MOL0     H75105   8.315  10.901  11.230 -2.0822 -1.4565  0.0774
  569MOL0     H75106   8.472  10.694  10.914  1.4697  0.9135  1.1852
  569MOL0     H75107   7.847  11.338  11.149  0.3575 -0.2036 -1.9384
  569MOL0     H75108   7.599  11.346  11.128  1.3815 -0.0846 -0.9084
  570MOL0     O75109   4.051   6.160   2.674  0.0872 -0.7121 -0.1971
  570MOL0     C75110   4.034   6.253   2.760  0.5914  0.2825 -0.8737
  570MOL0     O75111   3.910   6.307   2.792  0.2063 -0.3588 -0.4405
  570MOL0     C75112   3.801   6.242   2.751  0.2982 -0.7400  0.1415
  570MOL0     C75113   3.774   6.221   2.619  0.4598 -0.1382 -0.5308
  570MOL0     C75114   3.651   6.148   2.581  0.7628  0.0808 -0.5740
  570MOL0     C75115   3.566   6.095   2.686 -0.0138  0.8967  1.2555
  570MOL0     O75116   3.444   6.041   2.637  0.1072  0.4196 -0.6632
  570MOL0     C75117   3.351   6.002   2.741  0.0627 -0.1491 -0.5229
  570MOL0     C75118   3.216   6.001   2.672 -0.5490 -0.4546 -0.5278
  570MOL0     C75119   3.119   5.940   2.763  0.8869  0.3241 -0.8754
  570MOL0     C75120   2.970   5.956   2.723  0.4566 -0.1247 -0.1475
  570MOL0     C75121   2.864   5.890   2.813  0.2162 -1.0500  0.1982
  570MOL0     C75122   2.725   5.882   2.744  0.0363 -1.0867 -0.5371
  570MOL0     C75123   2.622   5.774   2.804 -0.5389 -0.2037 -0.7463
  570MOL0     C75124   2.505   5.754   2.709  0.4700 -0.8537  0.4610
  570MOL0     N75125   2.403   5.667   2.762 -0.1541  0.7983 -0.0001
  570MOL0     C75126   2.425   5.534   2.797  0.3547  0.0914  0.0550
  570MOL0     C75127   2.309   5.497   2.857  0.5530  0.6107  0.7769
  570MOL0     C75128   2.292   5.365   2.927  0.3820  0.5331  0.4417
  570MOL0     C75129   2.335   5.244   2.846 -0.4372 -0.0709  1.0432
  570MOL0     C75130   2.279   5.223   2.712  0.5825 -0.1992  0.4716
  570MOL0     C75131   2.136   5.195   2.731  0.4997  0.3071  0.5430
  570MOL0     O75132   2.062   5.323   2.741 -0.2865  0.0545 -0.3016
  570MOL0     C75133   1.932   5.336   2.763  0.2661 -0.4519  0.9064
  570MOL0     C75134   1.869   5.447   2.703 -0.2454 -0.2438 -0.0299
  570MOL0     C75135   1.733   5.456   2.698 -0.2362  0.3548 -0.3987
  570MOL0     C75136   1.653   5.368   2.770  0.2967  0.7293 -0.7246
  570MOL0     C75137   1.508   5.395   2.778 -0.3540 -0.4092  0.3522
  570MOL0     O75138   1.425   5.306   2.842  0.0467 -0.5930 -0.1054
  570MOL0     C75139   1.290   5.317   2.852 -0.2965 -0.1709 -0.3670
  570MOL0     C75140   1.238   5.290   2.983  0.4072  0.8916  0.0375
  570MOL0     C75141   1.111   5.301   3.006  0.0122 -0.0705  0.3504
  570MOL0     C75142   1.021   5.345   2.905  0.0754  0.3099 -0.1531
  570MOL0     O75143   0.882   5.364   2.940 -0.6722  0.0387  0.0311
  570MOL0     C75144   0.848   5.483   3.011 -0.9154  0.1545 -0.4779
  570MOL0     C75145   0.707   5.525   2.986 -0.8302  0.6717  0.4853
  570MOL0     C75146   0.604   5.411   3.014  0.8840 -0.7941  0.6012
  570MOL0     C75147   0.466   5.468   3.016  0.1810 -0.1649 -0.1724
  570MOL0     C75148   0.352   5.375   3.056 -0.6832 -0.4374 -0.2314
  570MOL0     C75149   0.328   5.257   2.969 -0.3553  0.3161 -0.3668
  570MOL0     C75150   0.231   5.162   3.042 -0.0280  0.4855  0.0886
  570MOL0     C75151   0.095   5.217   3.074 -0.9294 -0.0229 -0.2474
  570MOL0    Cl75152   0.006   5.283   2.931 -0.0645 -0.3396 -0.4149
  570MOL0     C75153   1.068   5.362   2.775  0.4847  0.3435 -0.4133
  570MOL0     C75154   1.200   5.350   2.751 -0.0815  0.2157 -0.5849
  570MOL0     O75155   1.476   5.506   2.729  0.0142 -0.3685  0.1674
  570MOL0     C75156   1.713   5.257   2.841  0.1605 -0.5430  0.5426
  570MOL0     C75157   1.854   5.249   2.844  0.6256 -0.9831  0.0037
  570MOL0     N75158   2.222   5.599   2.848  0.1333 -0.0081  0.1762
  570MOL0     N75159   2.274   5.703   2.794  0.1007 -0.2292  0.2684
  570MOL0     C75160   3.607   6.108   2.822  0.6775 -0.8362  0.0269
  570MOL0     C75161   3.719   6.182   2.846 -0.4501  0.1526 -0.9994
  570MOL0     C75162   4.147   6.327   2.817  0.2252 -0.7052  0.9332
  570MOL0     C75163   4.283   6.307   2.777  0.7018 -0.4763 -0.0909
  570MOL0     C75164   4.390   6.373   2.831 -0.0338  0.9463  0.0826
  570MOL0     C75165   4.368   6.471   2.932  0.5941  0.6044 -1.0621
  570MOL0     O75166   4.462   6.559   2.976 -0.1680  0.0321  0.6986
  570MOL0     C75167   4.596   6.546   2.932  0.0910 -0.2643  0.4143
  570MOL0     C75168   4.700   6.590   3.033 -0.8186 -0.9644 -0.0718
  570MOL0     C75169   4.669   6.729   3.086  0.0815  0.2872 -0.0290
  570MOL0     C75170   4.785   6.780   3.175  0.9517 -0.5526  0.7237
  570MOL0     C75171   4.879   6.828   3.074  0.1437 -0.0521 -0.8695
  570MOL0     C75172   4.955   6.899   3.013  0.0703  0.9127  0.4306
  570MOL0     C75173   4.235   6.491   2.961 -0.5363 -0.0750 -0.2789
  570MOL0     C75174   4.128   6.430   2.914  0.2138 -0.2050  0.0592
  570MOL0     H75175   3.828   6.270   2.539  2.3066  0.7423  1.1581
  570MOL0     H75176   3.617   6.144   2.478 -0.4479 -0.5632 -0.1713
  570MOL0     H75177   3.349   6.067   2.829 -0.7638 -1.5027  0.4988
  570MOL0     H75178   3.384   5.907   2.783  2.6641  1.6101  1.7581
  570MOL0     H75179   3.224   5.952   2.575 -0.5401 -0.1884 -0.6624
  570MOL0     H75180   3.182   6.103   2.653 -0.9060 -0.5527 -0.4206
  570MOL0     H75181   3.123   5.978   2.866 -1.1219  0.8517 -0.9437
  570MOL0     H75182   3.135   5.832   2.764 -1.0269 -0.1790  3.8560
  570MOL0     H75183   2.961   6.064   2.712  2.7972  0.2081  0.7053
  570MOL0     H75184   2.954   5.925   2.620 -0.2485  1.3769 -0.5162
  570MOL0     H75185   2.847   5.936   2.911 -1.1505  2.5526 -1.5490
  570MOL0     H75186   2.913   5.794   2.828  3.1884 -0.1721 -2.7326
  570MOL0     H75187   2.747   5.866   2.638  1.5906  1.8135 -0.7605
  570MOL0     H75188   2.685   5.983   2.758 -0.7970 -1.5177  0.3212
  570MOL0     H75189   2.685   5.687   2.823  0.9920  1.3538  2.1701
  570MOL0     H75190   2.585   5.803   2.903  0.1349 -2.7854  0.3489
  570MOL0     H75191   2.540   5.720   2.611 -1.3594 -0.8879 -0.2223
  570MOL0     H75192   2.449   5.847   2.696  0.2886 -1.3451 -3.3093
  570MOL0     H75193   2.509   5.467   2.780 -1.5715 -1.8599 -2.4754
  570MOL0     H75194   2.188   5.345   2.952  0.0986  0.0739 -0.9860
  570MOL0     H75195   2.354   5.362   3.017  1.2250 -0.1118 -0.1432
  570MOL0     H75196   2.327   5.147   2.897  3.7134 -1.0293  0.2224
  570MOL0     H75197   2.444   5.253   2.840 -0.3907 -0.4776  1.2621
  570MOL0     H75198   2.305   5.306   2.645 -1.3220  1.2230  1.4003
  570MOL0     H75199   2.325   5.134   2.667 -0.7846 -0.1487 -1.1344
  570MOL0     H75200   2.112   5.145   2.825 -2.5593  0.0930 -0.2502
  570MOL0     H75201   2.110   5.135   2.643  0.3059  1.4913 -0.2304
  570MOL0     H75202   1.939   5.521   2.665 -1.5567  0.8834 -0.3428
  570MOL0     H75203   1.693   5.539   2.641  3.5896  2.0982 -0.8838
  570MOL0     H75204   1.313   5.258   3.055  2.3851 -0.0568 -2.2834
  570MOL0     H75205   1.067   5.277   3.103 -1.4880  3.7026  0.7526
  570MOL0     H75206   0.910   5.564   2.968  1.1566 -2.0121 -1.8490
  570MOL0     H75207   0.865   5.471   3.118 -2.2580 -1.1692 -0.3915
  570MOL0     H75208   0.716   5.542   2.878  2.0727 -1.7184  0.2078
  570MOL0     H75209   0.677   5.618   3.035  0.8373  0.2824  2.3829
  570MOL0     H75210   0.624   5.364   3.111  1.4254  2.5083  2.2155
  570MOL0     H75211   0.620   5.334   2.938  2.7667  0.4032 -0.2791
  570MOL0     H75212   0.474   5.548   3.090  1.8317  2.0517 -2.5674
  570MOL0     H75213   0.424   5.506   2.923 -0.2062 -0.7917 -0.2652
  570MOL0     H75214   0.263   5.436   3.041  0.2567  0.7399 -1.1414
  570MOL0     H75215   0.362   5.339   3.159  2.5762 -1.0201 -0.6397
  570MOL0     H75216   0.419   5.197   2.968 -0.2743  0.1774  3.1949
  570MOL0     H75217   0.296   5.276   2.866 -0.1321 -2.1498 -0.9465
  570MOL0     H75218   0.233   5.069   2.984  2.0620 -0.5655  1.6868
  570MOL0     H75219   0.286   5.142   3.135  0.5651 -0.4764 -0.4516
  570MOL0     H75220   0.109   5.302   3.142 -1.8285 -1.6622  2.1163
  570MOL0     H75221   0.042   5.146   3.138 -0.8262  1.3496  1.4294
  570MOL0     H75222   0.990   5.383   2.704 -0.3152 -1.7735 -0.2279
  570MOL0     H75223   1.228   5.374   2.649  0.3548 -1.2813 -0.8498
  570MOL0     H75224   1.661   5.181   2.899  0.3372 -1.1419 -0.0732
  570MOL0     H75225   1.887   5.169   2.910  1.0806 -0.5592  0.3031
  570MOL0     H75226   3.554   6.068   2.908 -0.9655  1.4370  0.1472
  570MOL0     H75227   3.746   6.203   2.949  0.6911  0.8271 -1.4162
  570MOL0     H75228   4.305   6.244   2.691 -1.8669  3.1531 -3.8293
  570MOL0     H75229   4.490   6.352   2.795  0.3248  2.3600  0.2112
  570MOL0     H75230   4.604   6.602   2.838 -0.0211 -2.7046 -1.1410
  570MOL0     H75231   4.607   6.438   2.915 -4.8810 -0.6199 -2.4599
  570MOL0     H75232   4.696   6.520   3.117 -0.1329  1.9500  2.5547
  570MOL0     H75233   4.802   6.574   2.998 -0.7120 -2.0724  0.6901
  570MOL0     H75234   4.574   6.726   3.141 -0.1453 -2.4855 -0.4033
  570MOL0     H75235   4.647   6.792   2.999 -0.6163  0.3354  0.1726
  570MOL0     H75236   4.749   6.860   3.240 -2.0324 -0.3400 -1.0205
  570MOL0     H75237   4.831   6.710   3.246 -1.2515 -1.2009  1.5776
  570MOL0     H75238   5.026   6.964   2.967 -1.3919  1.7262 -0.7716
  570MOL0     H75239   4.222   6.572   3.032  3.4757 -2.1500  3.2847
  570MOL0     H75240   4.032   6.460   2.952  0.5202 -0.0474  0.7208
  571MOL0     O75241   4.315   0.248   8.867  0.8761  0.3253  0.1023
  571MOL0     C75242   4.357   0.158   8.798 -0.1344 -0.3319 -0.4580
  571MOL0     O75243   4.283   0.046   8.766 -0.8131  0.0174  0.5933
  571MOL0     C75244   4.180   0.013   8.842  1.2491 -0.6718 -0.5391
  571MOL0     C75245   4.069  -0.035   8.775 -0.8336  0.4822 -0.7275
  571MOL0     C75246   3.940  -0.040   8.824 -0.1682  0.4276 -0.6928
  571MOL0     C75247   3.921  -0.019   8.963 -0.6364  0.4821  0.1587
  571MOL0     O75248   3.795  -0.018   9.020 -0.5599 -0.6536  0.2318
  571MOL0     C75249   3.695  -0.112   8.973  0.0618  0.1531 -1.0434
  571MOL0     C75250   3.560  -0.074   9.015  0.0444  0.2002  0.0496
  571MOL0     C75251   3.512   0.071   8.976 -0.5052  0.1564  0.0916
  571MOL0     C75252   3.399   0.070   8.877  0.3384  0.1616  0.2639
  571MOL0     C75253   3.293   0.175   8.891 -0.1159 -0.1820  0.6995
  571MOL0     C75254   3.192   0.164   8.774  0.5765 -0.7838 -0.7595
  571MOL0     C75255   3.062   0.231   8.811  0.4053 -0.0378 -0.8447
  571MOL0     C75256   3.079   0.384   8.799  1.0070 -0.2173 -0.1374
  571MOL0     N75257   2.954   0.457   8.860 -0.4895  0.1386 -0.0601
  571MOL0     C75258   2.818   0.422   8.840  0.5366 -0.2978 -0.0772
  571MOL0     C75259   2.745   0.500   8.919  0.4299 -0.1069  0.7048
  571MOL0     C75260   2.599   0.522   8.885 -0.5505 -1.1636  0.2046
  571MOL0     C75261   2.500   0.401   8.906  0.0884 -0.2151  0.1546
  571MOL0     C75262   2.527   0.329   9.040  0.4996  0.3510  0.6141
  571MOL0     C75263   2.416   0.219   9.058 -0.8965  0.1666  1.1884
  571MOL0     O75264   2.445   0.106   8.967  0.2888  0.0342  0.2836
  571MOL0     C75265   2.353   0.006   8.963  0.1016 -0.1650 -0.8833
  571MOL0     C75266   2.374  -0.090   8.867  0.2702  1.0367 -0.5483
  571MOL0     C75267   2.296  -0.206   8.853 -0.8097  0.3807 -0.5696
  571MOL0     C75268   2.183  -0.230   8.939 -0.5074  0.0930 -0.8475
  571MOL0     C75269   2.098  -0.347   8.929 -1.6693 -0.3291 -0.3954
  571MOL0     O75270   1.968  -0.326   8.971  0.2601  0.7221 -0.0075
  571MOL0     C75271   1.893  -0.429   9.010 -0.2676  0.4706 -0.1115
  571MOL0     C75272   1.938  -0.555   9.059 -0.2865 -0.3772 -0.6177
  571MOL0     C75273   1.840  -0.653   9.098 -1.2176 -0.0051 -0.0916
  571MOL0     C75274   1.700  -0.621   9.096 -0.0574  0.0720  0.5089
  571MOL0     O75275   1.603  -0.719   9.110 -0.1240  0.0849 -0.3635
  571MOL0     C75276   1.639  -0.841   9.184 -0.2129 -0.4050  0.3388
  571MOL0     C75277   1.675  -0.963   9.100 -0.3452 -0.5697 -0.2802
  571MOL0     C75278   1.555  -1.001   9.015  0.2961  0.4174  1.4808
  571MOL0     C75279   1.591  -1.118   8.929 -0.9322  0.1890  0.2388
  571MOL0     C75280   1.474  -1.165   8.845  1.1538  0.3336 -0.3947
  571MOL0     C75281   1.373  -1.250   8.938  0.4509  0.6192  0.5136
  571MOL0     C75282   1.284  -1.333   8.853  0.9969 -0.5404  0.9524
  571MOL0     C75283   1.201  -1.441   8.915  0.5344  0.7356 -0.1984
  571MOL0    Cl75284   1.119  -1.528   8.788 -0.1596 -0.0897 -0.2599
  571MOL0     C75285   1.659  -0.499   9.052 -0.3332  0.0251 -1.1423
  571MOL0     C75286   1.753  -0.401   9.013 -0.5669  0.0770  0.3314
  571MOL0     O75287   2.143  -0.451   8.886 -0.7219  1.1454  0.1086
  571MOL0     C75288   2.155  -0.127   9.029  0.2194 -0.3447 -0.5799
  571MOL0     C75289   2.241  -0.014   9.045  0.1213  0.0615  0.4607
  571MOL0     N75290   2.829   0.573   8.998 -0.3887  0.4918 -0.6587
  571MOL0     N75291   2.951   0.560   8.952  0.6390  0.0515 -0.4109
  571MOL0     C75292   4.034   0.015   9.036  0.0679 -0.4048 -0.0922
  571MOL0     C75293   4.159   0.034   8.978 -0.0954 -0.4430 -0.2007
  571MOL0     C75294   4.481   0.169   8.723  0.3617 -0.1876 -0.9433
  571MOL0     C75295   4.586   0.256   8.771 -0.2259  0.2132 -0.1978
  571MOL0     C75296   4.717   0.245   8.714 -0.2775 -0.2523 -0.0191
  571MOL0     C75297   4.739   0.154   8.610  0.8363  0.9354  0.2849
  571MOL0     O75298   4.861   0.135   8.549 -0.3755  0.5694 -0.0473
  571MOL0     C75299   4.890   0.247   8.461  0.2995  0.1225 -0.2657
  571MOL0     C75300   4.984   0.203   8.340 -0.3420  0.5876  0.1130
  571MOL0     C75301   5.117   0.157   8.401  0.3887 -0.3606  0.3945
  571MOL0     C75302   5.233   0.197   8.308 -0.2652 -0.9092 -0.3809
  571MOL0     C75303   5.356   0.146   8.369  0.3661 -0.4640  1.0423
  571MOL0     C75304   5.457   0.100   8.418 -0.4659  0.0949  0.0620
  571MOL0     C75305   4.639   0.067   8.569  0.9491 -0.5522  0.4020
  571MOL0     C75306   4.512   0.067   8.624 -0.3806 -0.6616  0.5567
  571MOL0     H75307   4.079  -0.055   8.669 -2.4034 -2.4749 -0.4339
  571MOL0     H75308   3.855  -0.055   8.758  1.4205 -0.9390 -2.5341
  571MOL0     H75309   3.718  -0.211   9.012  1.7424  0.4277 -1.2535
  571MOL0     H75310   3.708  -0.126   8.865  3.0524  1.3962 -0.9431
  571MOL0     H75311   3.555  -0.069   9.125  1.4637  0.1018  0.1458
  571MOL0     H75312   3.487  -0.147   8.981  0.8844 -1.5906  1.8221
  571MOL0     H75313   3.603   0.125   8.948 -0.9818  1.6409  1.2639
  571MOL0     H75314   3.487   0.113   9.074  2.0541  1.6649  0.1936
  571MOL0     H75315   3.444   0.076   8.778  0.0624  4.1040  0.2122
  571MOL0     H75316   3.349  -0.027   8.884  1.2185 -0.2057  1.9757
  571MOL0     H75317   3.339   0.273   8.877  0.6451 -0.6370 -0.1155
  571MOL0     H75318   3.241   0.173   8.987 -0.9920  0.0170  0.2345
  571MOL0     H75319   3.178   0.057   8.759 -1.9616 -0.3980 -1.5985
  571MOL0     H75320   3.237   0.211   8.686  2.8387  0.0435  0.7382
  571MOL0     H75321   2.979   0.212   8.743  0.9256 -0.5108 -1.3562
  571MOL0     H75322   3.035   0.202   8.913  2.8812 -0.1971 -0.1713
  571MOL0     H75323   3.099   0.403   8.694  0.9230 -1.5142 -0.3973
  571MOL0     H75324   3.163   0.429   8.854  0.5414  0.0224  0.3902
  571MOL0     H75325   2.778   0.360   8.761  0.5237 -2.7153  1.7142
  571MOL0     H75326   2.596   0.559   8.783  2.5977 -1.4728 -0.0852
  571MOL0     H75327   2.559   0.599   8.953 -1.6826 -0.8458 -0.7999
  571MOL0     H75328   2.515   0.327   8.826  0.3799 -1.8121  1.6326
  571MOL0     H75329   2.400   0.442   8.899  0.7936  1.3587 -1.6418
  571MOL0     H75330   2.631   0.295   9.047  0.3723  0.2704  2.9292
  571MOL0     H75331   2.520   0.407   9.116  2.5479  0.9114  0.2907
  571MOL0     H75332   2.316   0.259   9.040 -1.5301 -2.4658 -2.3978
  571MOL0     H75333   2.418   0.181   9.161 -0.5706 -1.7742  0.5254
  571MOL0     H75334   2.459  -0.080   8.800  1.4532 -0.6152  0.6087
  571MOL0     H75335   2.318  -0.270   8.768  1.8896  2.0824 -1.2537
  571MOL0     H75336   2.045  -0.577   9.062  0.5399  3.1484 -0.2848
  571MOL0     H75337   1.886  -0.737   9.149  0.6741  1.0207 -0.0020
  571MOL0     H75338   1.552  -0.868   9.244  0.3838  1.3405  2.1062
  571MOL0     H75339   1.719  -0.825   9.257 -1.1105 -2.3874  1.8555
  571MOL0     H75340   1.702  -1.049   9.163 -0.5715  1.3315  2.5925
  571MOL0     H75341   1.767  -0.942   9.044 -0.9241  2.5347 -0.2306
  571MOL0     H75342   1.529  -0.925   8.941 -0.9669 -1.5710 -0.2350
  571MOL0     H75343   1.466  -1.028   9.074 -1.0365  1.6116  0.1007
  571MOL0     H75344   1.673  -1.097   8.860  0.2369  0.3058  1.5984
  571MOL0     H75345   1.633  -1.201   8.988  0.9367 -0.4819 -1.9041
  571MOL0     H75346   1.509  -1.212   8.753 -2.7798 -3.1365 -0.4093
  571MOL0     H75347   1.416  -1.078   8.813 -0.6851  0.5110  3.0035
  571MOL0     H75348   1.301  -1.192   8.996  2.5592  1.9092  1.9739
  571MOL0     H75349   1.426  -1.322   9.002 -2.2277 -1.3654  0.6742
  571MOL0     H75350   1.215  -1.278   8.790  1.8540 -1.5516 -0.9489
  571MOL0     H75351   1.350  -1.380   8.779  2.6828  0.8479  1.4894
  571MOL0     H75352   1.125  -1.389   8.975 -0.9339 -0.8280 -0.6206
  571MOL0     H75353   1.246  -1.512   8.984 -0.3112  1.6406  1.3677
  571MOL0     H75354   1.554  -0.474   9.047 -0.1174  1.9056  1.5000
  571MOL0     H75355   1.707  -0.305   8.991 -0.7551  0.3682  1.8639
  571MOL0     H75356   2.075  -0.133   9.103 -0.2691 -1.2321 -1.1491
  571MOL0     H75357   2.211   0.061   9.118 -3.6551  3.1811 -3.7676
  571MOL0     H75358   4.015   0.033   9.142  0.2318  1.5195 -0.3527
  571MOL0     H75359   4.242   0.076   9.033  1.2794 -0.1980 -2.3653
  571MOL0     H75360   4.565   0.328   8.850 -2.3025 -0.3461 -0.1775
  571MOL0     H75361   4.797   0.308   8.753  0.4821 -0.4979 -1.1236
  571MOL0     H75362   4.930   0.334   8.514  3.1200 -1.1161 -0.1645
  571MOL0     H75363   4.802   0.281   8.405  0.0702 -0.0068  0.0145
  571MOL0     H75364   4.933   0.122   8.288 -2.6996  2.3461 -0.4756
  571MOL0     H75365   4.998   0.293   8.279  2.2013 -1.0449 -1.8509
  571MOL0     H75366   5.113   0.048   8.412  2.0060 -0.5477 -0.5591
  571MOL0     H75367   5.138   0.201   8.499  3.4476 -0.0770 -0.2700
  571MOL0     H75368   5.219   0.160   8.207 -0.9673  2.1010 -1.4690
  571MOL0     H75369   5.256   0.304   8.300 -0.5207 -0.8270 -0.0392
  571MOL0     H75370   5.550   0.078   8.467  0.7106  3.8692 -0.1607
  571MOL0     H75371   4.662  -0.011   8.497 -3.0715 -0.5493 -1.1495
  571MOL0     H75372   4.436   0.002   8.584  0.8493 -0.7967 -1.7568
  572MOL0     O75373   0.017   9.817   5.184  0.0801 -0.3330 -0.0855
  572MOL0     C75374   0.118   9.791   5.114  0.3902  0.6303 -0.9489
  572MOL0     O75375   0.126   9.747   4.987 -0.2188 -0.0305  0.4452
  572MOL0     C75376   0.002   9.741   4.926 -0.3314  0.0126  0.0350
  572MOL0     C75377  -0.028   9.838   4.821 -0.1340  0.4921 -0.2910
  572MOL0     C75378  -0.144   9.813   4.755 -0.6321  0.5170  0.1787
  572MOL0     C75379  -0.231   9.707   4.767  0.3994  0.3196 -0.4139
  572MOL0     O75380  -0.340   9.680   4.691 -0.0219 -0.2187 -0.2747
  572MOL0     C75381  -0.404   9.791   4.618  0.6215  0.5770 -0.0652
  572MOL0     C75382  -0.509   9.738   4.516  0.1552  0.5379  0.6048
  572MOL0     C75383  -0.630   9.677   4.580  0.6324 -0.7426 -0.2345
  572MOL0     C75384  -0.734   9.659   4.470 -0.7434 -0.2349  0.0950
  572MOL0     C75385  -0.864   9.610   4.527  0.5682  0.5734  0.5485
  572MOL0     C75386  -0.983   9.619   4.431  0.4649 -0.0346 -0.0278
  572MOL0     C75387  -1.111   9.556   4.493 -0.1290  0.9582  0.2671
  572MOL0     C75388  -1.228   9.584   4.390  0.0184 -0.4580 -0.1410
  572MOL0     N75389  -1.363   9.593   4.461 -0.0059  0.4643  0.1455
  572MOL0     C75390  -1.465   9.685   4.441 -0.2510  0.4051 -0.6494
  572MOL0     C75391  -1.560   9.650   4.525  0.0282 -0.3262 -0.9550
  572MOL0     C75392  -1.698   9.709   4.532  0.4218  0.5577  0.6262
  572MOL0     C75393  -1.805   9.633   4.446  0.8414 -0.0819  0.6860
  572MOL0     C75394  -1.873   9.526   4.529 -0.2326 -0.3241 -0.3813
  572MOL0     C75395  -1.926   9.579   4.660 -0.2902 -0.8569 -0.1005
  572MOL0     O75396  -2.040   9.500   4.683 -0.6985  1.1858 -0.1916
  572MOL0     C75397  -2.164   9.552   4.662 -0.7636 -0.3385 -0.4079
  572MOL0     C75398  -2.196   9.683   4.613  0.5732  0.9791 -1.2163
  572MOL0     C75399  -2.330   9.716   4.628  1.0187  0.2998 -0.4636
  572MOL0     C75400  -2.433   9.631   4.664  0.6948  0.1943 -0.9177
  572MOL0     C75401  -2.576   9.679   4.661  0.1960  0.2427 -0.1259
  572MOL0     O75402  -2.676   9.582   4.698  0.5634 -0.1986 -0.4246
  572MOL0     C75403  -2.807   9.622   4.683 -1.0650 -0.8897 -1.2808
  572MOL0     C75404  -2.866   9.600   4.563  0.0219  0.3978  0.1924
  572MOL0     C75405  -2.994   9.652   4.533 -0.2466 -0.2398 -0.4833
  572MOL0     C75406  -3.073   9.719   4.635  0.5864 -0.1648 -0.1475
  572MOL0     O75407  -3.197   9.758   4.616  0.4073  0.4678  0.0348
  572MOL0     C75408  -3.242   9.812   4.487 -0.4388 -0.1912  0.2580
  572MOL0     C75409  -3.367   9.888   4.513  0.0769  0.6531  0.6745
  572MOL0     C75410  -3.494   9.790   4.510 -0.1090 -0.2888 -1.0447
  572MOL0     C75411  -3.615   9.870   4.574  0.1423  0.0136 -0.1444
  572MOL0     C75412  -3.748   9.800   4.596 -0.2145 -0.2833 -0.2964
  572MOL0     C75413  -3.812   9.842   4.725  0.6042  0.3299 -0.2996
  572MOL0     C75414  -3.932   9.746   4.750  1.1251  0.7000 -0.4052
  572MOL0     C75415  -4.057   9.805   4.818  0.2913  0.6082 -1.2029
  572MOL0    Cl75416  -4.120   9.935   4.710  0.2294  0.2315  0.1465
  572MOL0     C75417  -3.008   9.740   4.754 -0.3909  0.0154  0.0331
  572MOL0     C75418  -2.878   9.703   4.783  0.1523  0.3629  0.3276
  572MOL0     O75419  -2.596   9.800   4.625  0.0067 -0.4130 -0.2156
  572MOL0     C75420  -2.393   9.501   4.703 -0.6112  0.1297 -0.4602
  572MOL0     C75421  -2.254   9.460   4.696  0.8098  0.4022  0.2321
  572MOL0     N75422  -1.522   9.535   4.594  0.8439 -0.0094 -0.3888
  572MOL0     N75423  -1.401   9.499   4.549  0.2324  0.3118  0.4036
  572MOL0     C75424  -0.199   9.618   4.865 -0.6203 -0.4734 -1.1163
  572MOL0     C75425  -0.084   9.630   4.946  0.7537  0.1403 -0.0519
  572MOL0     C75426   0.243   9.813   5.191  0.0186 -0.4003  0.4239
  572MOL0     C75427   0.346   9.722   5.165 -0.6418 -0.9690 -1.4956
  572MOL0     C75428   0.469   9.744   5.222 -0.2355 -0.2382  0.2865
  572MOL0     C75429   0.495   9.848   5.306 -0.3405  0.0121  0.6153
  572MOL0     O75430   0.618   9.865   5.361 -0.0803 -0.1093  0.7518
  572MOL0     C75431   0.678   9.987   5.325 -0.7995  0.6055 -0.4391
  572MOL0     C75432   0.833   9.971   5.356  0.7287  0.8178  0.0315
  572MOL0     C75433   0.912   9.867   5.273  0.2357  0.9387 -0.9927
  572MOL0     C75434   0.984   9.756   5.358  0.5159 -0.1662  0.5766
  572MOL0     C75435   1.093   9.826   5.430 -0.6526 -0.3560  0.0991
  572MOL0     C75436   1.196   9.862   5.486  0.4060  0.0721 -0.6876
  572MOL0     C75437   0.393   9.940   5.335  0.6862  0.2239  0.9057
  572MOL0     C75438   0.267   9.914   5.285 -0.1323 -0.3924  0.9707
  572MOL0     H75439   0.040   9.916   4.789  0.9141 -0.5163 -0.5859
  572MOL0     H75440  -0.148   9.884   4.673  0.4564  1.8783  1.2573
  572MOL0     H75441  -0.332   9.854   4.566  0.3874  1.5009  0.6988
  572MOL0     H75442  -0.450   9.859   4.691 -1.2111  0.2498 -0.8617
  572MOL0     H75443  -0.459   9.659   4.459 -0.8129 -1.1293  1.9453
  572MOL0     H75444  -0.534   9.822   4.452  0.9155  0.6857  0.4942
  572MOL0     H75445  -0.675   9.747   4.651  1.6753  0.7247 -0.9829
  572MOL0     H75446  -0.604   9.583   4.629 -1.0174 -0.3488  1.5291
  572MOL0     H75447  -0.748   9.756   4.421 -0.0193 -0.7668 -1.2231
  572MOL0     H75448  -0.695   9.575   4.412 -0.3634 -1.3930  1.9682
  572MOL0     H75449  -0.888   9.672   4.614 -0.5778  0.6711  0.1677
  572MOL0     H75450  -0.849   9.506   4.556 -1.1209 -0.0356 -0.6754
  572MOL0     H75451  -0.957   9.580   4.332  1.4445  2.1094 -0.6538
  572MOL0     H75452  -1.007   9.725   4.418 -1.3705  0.0208  2.8773
  572MOL0     H75453  -1.089   9.450   4.509  1.2596  1.6915  4.3414
  572MOL0     H75454  -1.129   9.600   4.591  0.7415  1.4874  0.2019
  572MOL0     H75455  -1.233   9.516   4.305 -1.1413  0.6276 -0.9824
  572MOL0     H75456  -1.214   9.685   4.350  1.5983 -1.5071 -2.4555
  572MOL0     H75457  -1.469   9.769   4.373 -0.8330  0.9247  0.0113
  572MOL0     H75458  -1.707   9.811   4.491 -0.9491  1.2520  2.4912
  572MOL0     H75459  -1.726   9.715   4.638 -0.1961  0.0695  0.4933
  572MOL0     H75460  -1.747   9.590   4.365  1.4198  1.5590  0.1866
  572MOL0     H75461  -1.886   9.691   4.399  0.1398 -2.8264 -1.7826
  572MOL0     H75462  -1.950   9.482   4.465  0.6974 -1.2341 -0.9039
  572MOL0     H75463  -1.796   9.452   4.550 -0.2065  0.0363  0.8417
  572MOL0     H75464  -1.951   9.686   4.657  2.2039 -0.2533 -1.5062
  572MOL0     H75465  -1.852   9.571   4.739 -1.6232  1.7664  1.5628
  572MOL0     H75466  -2.124   9.757   4.581 -0.4271  3.0153  0.9452
  572MOL0     H75467  -2.342   9.821   4.601 -1.8907  0.0667 -0.4181
  572MOL0     H75468  -2.797   9.558   4.491  2.7125  3.2220  0.9200
  572MOL0     H75469  -3.030   9.638   4.432  2.7319 -2.3330 -1.4025
  572MOL0     H75470  -3.257   9.739   4.408 -0.9083 -1.4315  1.4486
  572MOL0     H75471  -3.158   9.877   4.461 -0.3955  0.0084  0.8798
  572MOL0     H75472  -3.394   9.960   4.436  0.0694 -0.7984 -0.7396
  572MOL0     H75473  -3.352   9.941   4.607  3.2599 -0.7066  1.0819
  572MOL0     H75474  -3.471   9.695   4.560 -0.6032  1.0841  1.9916
  572MOL0     H75475  -3.516   9.774   4.404  1.4245  2.4706 -1.8656
  572MOL0     H75476  -3.574   9.916   4.664  2.6223  0.5214 -1.4067
  572MOL0     H75477  -3.644   9.949   4.504 -2.0960  0.8353  1.6176
  572MOL0     H75478  -3.740   9.691   4.593 -0.2926 -0.3216 -3.9826
  572MOL0     H75479  -3.819   9.835   4.520 -2.6074 -0.4574  1.7161
  572MOL0     H75480  -3.845   9.944   4.706 -1.7310 -0.2297  0.5109
  572MOL0     H75481  -3.738   9.851   4.805  0.8277 -0.2861 -0.4301
  572MOL0     H75482  -3.961   9.696   4.657  2.9982 -1.3846  0.0566
  572MOL0     H75483  -3.891   9.665   4.811  1.4812  0.5808 -0.7980
  572MOL0     H75484  -4.033   9.835   4.920 -0.1353 -3.4214  0.2733
  572MOL0     H75485  -4.129   9.724   4.836  0.1876  0.9975  0.2384
  572MOL0     H75486  -3.066   9.795   4.827  0.3123  0.8555 -0.0347
  572MOL0     H75487  -2.847   9.730   4.883  1.4034  0.2374 -0.0077
  572MOL0     H75488  -2.466   9.426   4.732 -0.0709 -0.5551 -0.8610
  572MOL0     H75489  -2.219   9.366   4.736  1.5903  0.4382 -0.3305
  572MOL0     H75490  -0.264   9.531   4.868 -0.3092 -0.7299 -1.6409
  572MOL0     H75491  -0.060   9.561   5.027 -0.5722  0.9885  1.1080
  572MOL0     H75492   0.346   9.633   5.102  0.9679 -2.2096  0.1395
  572MOL0     H75493   0.547   9.678   5.184 -1.8698 -1.0242 -1.8985
  572MOL0     H75494   0.645  10.080   5.372 -2.3838 -0.2338  0.1883
  572MOL0     H75495   0.670   9.997   5.217  0.3916  0.4275 -0.5645
  572MOL0     H75496   0.888  10.064   5.340 -0.1877  1.1710 -1.1667
  572MOL0     H75497   0.837   9.935   5.460  1.3482  2.3387  0.5705
  572MOL0     H75498   0.972   9.923   5.200  0.9798  2.9142  1.0250
  572MOL0     H75499   0.841   9.818   5.205  0.7341 -0.4101 -0.5802
  572MOL0     H75500   0.906   9.702   5.412 -1.5175 -0.4804 -2.4249
  572MOL0     H75501   1.018   9.683   5.284  0.2415  1.1212 -0.8809
  572MOL0     H75502   1.286   9.906   5.524 -1.1885  1.3841  1.8095
  572MOL0     H75503   0.415  10.017   5.409  1.2746 -0.5845  1.5991
  572MOL0     H75504   0.177   9.972   5.304 -0.3163  0.0964 -1.0963
  573MOL0     O75505   9.085   1.146   1.246  1.0204 -0.5622 -0.3992
  573MOL0     C75506   9.103   1.238   1.169  0.3544 -1.1723 -0.0392
  573MOL0     O75507   9.007   1.286   1.074  0.2338 -0.4372 -0.6424
  573MOL0     C75508   8.876   1.250   1.088  0.8971 -0.8161 -0.3544
  573MOL0     C75509   8.803   1.219   1.196  0.4652 -0.9566 -0.2411
  573MOL0     C75510   8.663   1.185   1.186 -0.7213 -0.3791  0.5277
  573MOL0     C75511   8.590   1.186   1.065  0.0735 -0.3472 -0.3052
  573MOL0     O75512   8.468   1.150   1.051 -0.0613 -0.3786 -0.8720
  573MOL0     C75513   8.376   1.146   1.166 -0.0272  0.1090  0.0147
  573MOL0     C75514   8.264   1.245   1.135  0.5131  0.8870  0.5138
  573MOL0     C75515   8.150   1.180   1.053  0.1456  0.0491 -0.5101
  573MOL0     C75516   8.108   1.279   0.946  0.3113  0.6753 -0.0693
  573MOL0     C75517   8.003   1.239   0.851  0.0841 -0.1092  0.5776
  573MOL0     C75518   7.866   1.200   0.901  0.0072 -0.2927 -0.1987
  573MOL0     C75519   7.813   1.299   1.002  0.2352  0.4951 -1.1335
  573MOL0     C75520   7.719   1.229   1.104 -0.1378  0.6424 -0.1821
  573MOL0     N75521   7.596   1.163   1.047 -0.2973  0.3949  0.3503
  573MOL0     C75522   7.469   1.217   1.054  0.2864  0.1309  0.0094
  573MOL0     C75523   7.386   1.128   0.998 -0.1780 -0.0538  0.8555
  573MOL0     C75524   7.238   1.143   0.983  0.6899 -0.5550 -0.2381
  573MOL0     C75525   7.183   1.176   0.846 -0.7132  0.4141 -0.2013
  573MOL0     C75526   7.163   1.041   0.752 -0.5796  0.4506 -0.3812
  573MOL0     C75527   7.104   1.058   0.614 -0.0651 -0.5520 -1.0434
  573MOL0     O75528   6.997   1.151   0.608 -0.6106 -1.3416  0.0979
  573MOL0     C75529   6.867   1.115   0.615 -0.3769 -0.1091 -0.1353
  573MOL0     C75530   6.823   1.018   0.702 -0.2465  0.7570 -0.5358
  573MOL0     C75531   6.687   0.989   0.715 -0.5166 -0.1976  1.6631
  573MOL0     C75532   6.590   1.061   0.639  0.1278  0.6077  0.6351
  573MOL0     C75533   6.455   1.020   0.635 -0.7865  0.2746 -0.6149
  573MOL0     O75534   6.382   1.075   0.540  0.7046 -0.7150  0.2862
  573MOL0     C75535   6.237   1.058   0.564  0.4622 -0.5661  0.2203
  573MOL0     C75536   6.180   1.133   0.662  0.7701 -0.0646 -0.4685
  573MOL0     C75537   6.046   1.126   0.695 -0.3405  0.0994  1.2671
  573MOL0     C75538   5.960   1.039   0.622 -0.7326  0.2793  0.4356
  573MOL0     O75539   5.831   1.043   0.645 -0.0459  0.5797  0.1278
  573MOL0     C75540   5.737   0.927   0.644 -0.2072 -0.9846 -0.4195
  573MOL0     C75541   5.646   0.931   0.521 -0.6900 -0.1785  0.0929
  573MOL0     C75542   5.585   0.799   0.486  0.4855  0.0369 -1.1285
  573MOL0     C75543   5.491   0.740   0.594  0.6336  0.1435  0.7686
  573MOL0     C75544   5.396   0.849   0.652  0.2695 -0.4453  0.4318
  573MOL0     C75545   5.283   0.888   0.550 -1.0964 -0.5290  0.1302
  573MOL0     C75546   5.183   0.976   0.608 -0.5232 -0.5442  1.1701
  573MOL0     C75547   5.060   0.905   0.658 -0.0505 -0.6518 -0.5763
  573MOL0    Cl75548   4.932   1.047   0.692 -0.0962  0.1878  0.1799
  573MOL0     C75549   6.014   0.967   0.513  0.5986 -0.6641  0.4405
  573MOL0     C75550   6.150   0.975   0.483 -0.4605  0.8092  0.5433
  573MOL0     O75551   6.424   0.940   0.721  0.8404  0.4629  0.1573
  573MOL0     C75552   6.638   1.172   0.561 -0.6077  0.3278  0.6994
  573MOL0     C75553   6.774   1.199   0.552 -0.4015 -0.1094 -0.3239
  573MOL0     N75554   7.465   1.015   0.953 -0.1764 -0.3850  0.1624
  573MOL0     N75555   7.586   1.047   0.978  0.7110 -0.3434 -0.6216
  573MOL0     C75556   8.671   1.210   0.952 -0.6482  0.2330 -0.6057
  573MOL0     C75557   8.801   1.256   0.972  0.0013  0.1273  0.5342
  573MOL0     C75558   9.241   1.302   1.170 -0.4242  0.6099 -0.8595
  573MOL0     C75559   9.281   1.402   1.080 -0.2447  0.0454  0.4406
  573MOL0     C75560   9.399   1.475   1.099 -0.5050  0.3707  1.1437
  573MOL0     C75561   9.487   1.442   1.197 -0.3020 -0.4682  0.3180
  573MOL0     O75562   9.611   1.512   1.214  0.8412 -0.5390  0.0801
  573MOL0     C75563   9.729   1.434   1.218 -0.4186  0.0219 -0.3801
  573MOL0     C75564   9.776   1.409   1.083 -0.6920  0.6416 -0.7387
  573MOL0     C75565   9.915   1.343   1.071  0.2242  0.9268  0.0271
  573MOL0     C75566   9.969   1.330   0.923 -0.0410  0.1986 -0.1239
  573MOL0     C75567  10.049   1.442   0.879 -0.4548 -0.0996  0.4021
  573MOL0     C75568  10.121   1.542   0.842  0.6405  0.1415  0.2092
  573MOL0     C75569   9.449   1.337   1.279  0.8781 -0.3374  0.2008
  573MOL0     C75570   9.331   1.272   1.272 -0.3546  0.7041 -0.1022
  573MOL0     H75571   8.844   1.201   1.295 -0.5101  0.3792  0.4465
  573MOL0     H75572   8.608   1.145   1.270 -1.0985  0.2697  0.5929
  573MOL0     H75573   8.415   1.166   1.266 -0.9913 -0.5358  0.5403
  573MOL0     H75574   8.330   1.048   1.155 -3.5855  1.6430 -0.3714
  573MOL0     H75575   8.305   1.316   1.062  1.3992 -1.5550 -1.5037
  573MOL0     H75576   8.212   1.294   1.217 -1.0637 -0.5337  0.3990
  573MOL0     H75577   8.067   1.161   1.121  0.3118  0.5777 -0.1566
  573MOL0     H75578   8.172   1.091   0.994 -3.0428  1.1396 -3.6457
  573MOL0     H75579   8.090   1.382   0.979 -1.2808  0.3024  0.3078
  573MOL0     H75580   8.197   1.277   0.882  0.8551  0.2458  0.6874
  573MOL0     H75581   8.044   1.146   0.811  0.6820 -1.4969  4.0570
  573MOL0     H75582   7.998   1.314   0.772  0.8121  1.6311  2.1047
  573MOL0     H75583   7.865   1.100   0.946 -1.6715 -1.0302 -1.7513
  573MOL0     H75584   7.805   1.202   0.810 -0.3056 -0.5070  0.0071
  573MOL0     H75585   7.887   1.357   1.057  1.0257 -0.1065 -1.5507
  573MOL0     H75586   7.749   1.368   0.945 -0.3457 -0.2695 -1.4376
  573MOL0     H75587   7.677   1.297   1.179 -1.7529  0.3483 -0.7690
  573MOL0     H75588   7.774   1.151   1.156  0.4690  0.1004 -1.5933
  573MOL0     H75589   7.439   1.313   1.094 -0.8427 -1.0222  2.0806
  573MOL0     H75590   7.224   1.234   1.043  2.1111 -0.2840 -0.2664
  573MOL0     H75591   7.196   1.055   1.033 -0.6957 -0.3673 -1.0293
  573MOL0     H75592   7.257   1.241   0.799  0.8424 -1.1476 -0.0270
  573MOL0     H75593   7.082   1.216   0.859 -1.1557 -1.1682  1.6934
  573MOL0     H75594   7.257   0.987   0.741 -0.3126  0.4271  1.7227
  573MOL0     H75595   7.098   0.975   0.810 -0.1309  0.3029 -0.0469
  573MOL0     H75596   7.059   0.965   0.577 -1.2768 -0.0331 -0.9194
  573MOL0     H75597   7.190   1.091   0.556  0.2642  2.7876  1.0766
  573MOL0     H75598   6.891   0.965   0.768 -1.1976 -1.4474 -1.2540
  573MOL0     H75599   6.657   0.899   0.767 -0.3489 -1.3066 -0.0887
  573MOL0     H75600   6.245   1.203   0.714 -0.3177 -1.0236  2.3968
  573MOL0     H75601   6.005   1.173   0.783  1.4951  0.0501  2.2111
  573MOL0     H75602   5.685   0.916   0.740  0.6787  1.7482  0.4706
  573MOL0     H75603   5.804   0.840   0.646  1.2276 -0.0629  4.0777
  573MOL0     H75604   5.708   0.965   0.437 -0.2396  0.0270  0.5015
  573MOL0     H75605   5.570   1.008   0.537 -1.1021 -0.5689  0.0049
  573MOL0     H75606   5.664   0.723   0.485  0.3267 -0.2944  1.8488
  573MOL0     H75607   5.542   0.812   0.386 -0.8363  0.5949 -0.4997
  573MOL0     H75608   5.432   0.658   0.551 -1.4117  1.7602  0.3526
  573MOL0     H75609   5.554   0.705   0.677 -0.4917  3.0311  2.9937
  573MOL0     H75610   5.441   0.933   0.705  0.5894  0.8530 -1.7670
  573MOL0     H75611   5.350   0.809   0.742  1.3267 -3.3509 -0.2124
  573MOL0     H75612   5.233   0.800   0.507  2.3750 -3.5436  1.7146
  573MOL0     H75613   5.329   0.949   0.472  2.5154 -2.4891  0.5239
  573MOL0     H75614   5.222   1.037   0.690  1.3935  1.5067 -1.0969
  573MOL0     H75615   5.147   1.052   0.538 -1.2894 -0.5353  1.5575
  573MOL0     H75616   5.077   0.855   0.753 -0.3580  3.5072  1.8905
  573MOL0     H75617   5.033   0.845   0.570  1.6617  0.6349 -2.0709
  573MOL0     H75618   5.944   0.917   0.447 -1.2975  0.6622  1.3532
  573MOL0     H75619   6.197   0.943   0.390 -0.1981  1.4861  0.4346
  573MOL0     H75620   6.567   1.245   0.524 -0.4811 -0.0455 -0.3060
  573MOL0     H75621   6.806   1.293   0.508  3.3363 -1.6267 -1.2672
  573MOL0     H75622   8.626   1.199   0.854 -0.0830  3.2079 -1.2857
  573MOL0     H75623   8.868   1.301   0.898  2.1826  2.4929  3.6454
  573MOL0     H75624   9.205   1.429   1.007  0.3385 -1.0667 -0.6128
  573MOL0     H75625   9.422   1.551   1.025 -3.6219 -0.5577 -0.9883
  573MOL0     H75626   9.729   1.343   1.278  2.6588 -1.3720 -2.2404
  573MOL0     H75627   9.797   1.504   1.269 -0.7639  0.4703 -0.5270
  573MOL0     H75628   9.710   1.345   1.023  3.6189 -0.9514 -4.3632
  573MOL0     H75629   9.780   1.500   1.023 -1.3844  0.9461 -0.3315
  573MOL0     H75630   9.920   1.244   1.118  1.9637  1.1017  0.2968
  573MOL0     H75631   9.990   1.405   1.120 -0.0755  1.1014  0.2592
  573MOL0     H75632  10.037   1.244   0.919  1.7292  1.5816 -1.0222
  573MOL0     H75633   9.884   1.307   0.858  0.5288  1.8001 -1.4961
  573MOL0     H75634  10.180   1.626   0.814 -0.1112  0.6788  0.1913
  573MOL0     H75635   9.518   1.325   1.361  2.1434  2.9551 -0.2045
  573MOL0     H75636   9.312   1.211   1.360  1.3597 -0.6245 -0.5939
  574MOL0     O75637   9.758   3.982   1.870  0.3377 -0.0233 -0.2889
  574MOL0     C75638   9.831   3.985   1.773 -0.2184  0.5207  0.2689
  574MOL0     O75639   9.791   4.011   1.643 -0.8558 -0.2336  0.1527
  574MOL0     C75640   9.661   4.044   1.610  0.6105  0.7261  0.3763
  574MOL0     C75641   9.550   3.979   1.667  0.1275 -0.5833 -0.0306
  574MOL0     C75642   9.419   4.019   1.628 -0.5030 -0.0480  0.7794
  574MOL0     C75643   9.404   4.116   1.527 -0.0495 -0.1683 -0.0528
  574MOL0     O75644   9.288   4.140   1.465  0.7166  0.4181 -0.5235
  574MOL0     C75645   9.168   4.087   1.530 -0.2643 -0.5836 -0.3017
  574MOL0     C75646   9.053   4.159   1.476  0.0355  0.2070 -0.4892
  574MOL0     C75647   8.926   4.076   1.517  0.2728 -0.7980  0.4959
  574MOL0     C75648   8.799   4.143   1.475 -0.6796  0.4383  0.1360
  574MOL0     C75649   8.677   4.057   1.515 -0.4404  0.6985 -0.4039
  574MOL0     C75650   8.543   4.124   1.497 -0.1619  0.8010  0.7014
  574MOL0     C75651   8.431   4.014   1.489 -1.0297 -0.6349 -1.4035
  574MOL0     C75652   8.297   4.076   1.504 -0.7074  0.9149  0.3332
  574MOL0     N75653   8.196   3.983   1.556 -0.5481 -0.5650 -0.4617
  574MOL0     C75654   8.136   3.884   1.488  0.3013  0.3330 -0.0001
  574MOL0     C75655   8.044   3.834   1.567  0.3771  0.4582 -0.7124
  574MOL0     C75656   7.951   3.727   1.540 -0.0379  0.3644  0.6480
  574MOL0     C75657   7.899   3.744   1.393  0.4392 -0.2725  0.7941
  574MOL0     C75658   7.795   3.630   1.348  0.0778 -0.5430 -0.2898
  574MOL0     C75659   7.679   3.602   1.443  0.2812 -0.8391  0.5486
  574MOL0     O75660   7.618   3.727   1.472 -0.2940 -1.0352 -0.0785
  574MOL0     C75661   7.495   3.761   1.420 -0.2980 -0.2165 -0.3158
  574MOL0     C75662   7.462   3.732   1.288  1.4201  0.2963 -0.1118
  574MOL0     C75663   7.333   3.750   1.239  0.5197 -0.0406  0.5339
  574MOL0     C75664   7.230   3.817   1.324  0.2896  1.5537 -0.2701
  574MOL0     C75665   7.099   3.842   1.266  0.5053  1.0136 -0.7093
  574MOL0     O75666   7.099   3.843   1.128  0.0396 -0.3432  0.4962
  574MOL0     C75667   6.984   3.842   1.056  0.4742  0.2769  0.4203
  574MOL0     C75668   6.894   3.732   1.069 -0.2031 -1.1609 -0.1271
  574MOL0     C75669   6.798   3.701   0.973 -0.0708  0.2339 -0.1523
  574MOL0     C75670   6.763   3.796   0.873 -0.5931 -0.4894  0.3324
  574MOL0     O75671   6.656   3.790   0.785  0.1778 -0.4366 -0.8177
  574MOL0     C75672   6.594   3.658   0.778  0.1438  0.2571  0.4405
  574MOL0     C75673   6.483   3.618   0.873 -0.0817 -1.4052 -0.6753
  574MOL0     C75674   6.350   3.688   0.838 -0.4499 -0.0063 -1.2338
  574MOL0     C75675   6.282   3.629   0.708  0.9608  0.1489 -0.5184
  574MOL0     C75676   6.145   3.682   0.712  0.6726 -0.2614  0.0447
  574MOL0     C75677   6.053   3.588   0.635  0.5726  0.3053 -0.3976
  574MOL0     C75678   5.929   3.675   0.593 -0.2684  0.3385  0.8511
  574MOL0     C75679   5.819   3.599   0.521 -0.2402 -0.1651 -0.7792
  574MOL0    Cl75680   5.793   3.452   0.620  0.1312  0.4696  0.3264
  574MOL0     C75681   6.842   3.908   0.869  0.2449 -0.6084  0.4157
  574MOL0     C75682   6.952   3.936   0.958 -0.0565  1.2546  0.1737
  574MOL0     O75683   6.994   3.861   1.337  0.4136 -0.3691 -0.3327
  574MOL0     C75684   7.276   3.859   1.448 -1.2248 -0.0230 -0.2763
  574MOL0     C75685   7.405   3.837   1.493 -0.9282  0.7287 -0.6163
  574MOL0     N75686   8.041   3.904   1.690  0.4128 -0.3823  0.6367
  574MOL0     N75687   8.136   3.994   1.684 -0.0743 -0.5146 -0.0138
  574MOL0     C75688   9.513   4.172   1.466  0.9077 -0.5715  0.1773
  574MOL0     C75689   9.645   4.135   1.503 -0.2813 -0.5786 -0.2232
  574MOL0     C75690   9.972   3.955   1.797 -0.1216  0.4502 -0.3087
  574MOL0     C75691  10.015   3.901   1.922  0.2422 -0.1637 -0.3355
  574MOL0     C75692  10.152   3.879   1.935 -0.0947  0.5915 -0.4978
  574MOL0     C75693  10.249   3.897   1.837 -0.6575  0.9873 -0.3265
  574MOL0     O75694  10.380   3.870   1.843  0.3612  0.5957  0.5382
  574MOL0     C75695  10.436   3.840   1.970  0.1738  0.6396 -0.2892
  574MOL0     C75696  10.587   3.824   1.972  0.2431 -0.4039  0.2740
  574MOL0     C75697  10.636   3.759   1.845  0.3655 -0.8547 -0.0393
  574MOL0     C75698  10.775   3.693   1.870  0.3462  0.4866  0.1160
  574MOL0     C75699  10.883   3.780   1.931  0.0381 -0.3525 -0.7063
  574MOL0     C75700  10.958   3.872   1.955 -0.3963 -0.7320 -0.7405
  574MOL0     C75701  10.201   3.946   1.717  0.1513  0.1582 -0.2753
  574MOL0     C75702  10.064   3.965   1.693 -0.5450  0.9085 -0.2430
  574MOL0     H75703   9.548   3.901   1.743 -2.7518  3.2899  4.4734
  574MOL0     H75704   9.333   3.961   1.658  0.2508 -2.4063 -1.2525
  574MOL0     H75705   9.169   4.108   1.637  3.8848 -0.1788 -0.2524
  574MOL0     H75706   9.164   3.979   1.513  3.7812 -0.8088 -0.7956
  574MOL0     H75707   9.067   4.195   1.373  2.0492  2.9797  0.6138
  574MOL0     H75708   9.058   4.256   1.527  1.5110  0.4660 -1.0717
  574MOL0     H75709   8.915   4.063   1.625  2.1159 -2.1498  0.5504
  574MOL0     H75710   8.924   3.973   1.481 -0.7906 -0.6686  0.1404
  574MOL0     H75711   8.806   4.237   1.529  1.8105  0.2046  0.3035
  574MOL0     H75712   8.793   4.170   1.369 -0.1480  1.8483  0.4547
  574MOL0     H75713   8.679   4.032   1.621 -3.9288  0.3701 -0.3099
  574MOL0     H75714   8.684   3.969   1.450 -0.3364  0.4509 -0.0559
  574MOL0     H75715   8.539   4.175   1.400  0.5832 -1.2078 -0.4376
  574MOL0     H75716   8.520   4.192   1.580  0.0381  0.3525  1.1227
  574MOL0     H75717   8.446   3.963   1.393  3.5778  0.8184 -1.7123
  574MOL0     H75718   8.453   3.945   1.571  1.7778  0.0022 -1.5104
  574MOL0     H75719   8.270   4.097   1.400 -1.9861 -1.0788  0.2036
  574MOL0     H75720   8.307   4.169   1.562 -2.9347  0.2911  1.8564
  574MOL0     H75721   8.169   3.853   1.389  1.2328  2.4561 -0.4140
  574MOL0     H75722   7.863   3.714   1.605 -0.6070  0.4933 -0.0859
  574MOL0     H75723   8.008   3.634   1.550  0.1892  0.3048 -1.0129
  574MOL0     H75724   7.986   3.737   1.327 -1.4297  3.7306 -2.5763
  574MOL0     H75725   7.848   3.840   1.392 -1.2743 -1.1452  1.3965
  574MOL0     H75726   7.759   3.661   1.249 -0.2119 -2.6901 -0.8954
  574MOL0     H75727   7.854   3.539   1.336  0.6400 -0.5512  1.9881
  574MOL0     H75728   7.712   3.548   1.532 -0.5151 -0.5460  1.0307
  574MOL0     H75729   7.621   3.531   1.385  0.0774  0.3231 -0.7124
  574MOL0     H75730   7.531   3.682   1.221  0.7007 -1.4007  0.3843
  574MOL0     H75731   7.318   3.734   1.133  2.7264  0.1922  0.1538
  574MOL0     H75732   6.900   3.662   1.152 -1.5654 -0.1483  0.8582
  574MOL0     H75733   6.739   3.611   0.987 -1.4726  1.1049 -0.2358
  574MOL0     H75734   6.663   3.573   0.787 -0.2650  0.0885  2.3899
  574MOL0     H75735   6.555   3.654   0.676 -0.0566  1.6468  0.4476
  574MOL0     H75736   6.507   3.651   0.975  0.0245 -0.6113 -0.9457
  574MOL0     H75737   6.462   3.511   0.875 -0.8871 -1.2428  0.0796
  574MOL0     H75738   6.377   3.794   0.830  1.4482 -0.2987  0.5821
  574MOL0     H75739   6.293   3.683   0.931  2.5124 -0.5830  0.6873
  574MOL0     H75740   6.355   3.641   0.628  0.9066  1.2114 -0.4139
  574MOL0     H75741   6.264   3.521   0.714 -3.6495  0.7349  0.0961
  574MOL0     H75742   6.137   3.781   0.666  4.5942 -0.7743 -2.1355
  574MOL0     H75743   6.119   3.678   0.818  1.9363  2.1064  0.5025
  574MOL0     H75744   6.028   3.509   0.706 -1.4170  1.4987  0.3108
  574MOL0     H75745   6.095   3.552   0.541 -1.9583 -3.0478 -0.4475
  574MOL0     H75746   5.888   3.730   0.678 -2.0583  2.7785 -1.4349
  574MOL0     H75747   5.972   3.748   0.524  2.7018 -0.0793  2.0932
  574MOL0     H75748   5.855   3.577   0.420  4.2602  1.4048  0.2538
  574MOL0     H75749   5.724   3.649   0.498  0.9267  1.7644 -1.6937
  574MOL0     H75750   6.803   3.974   0.792 -4.5343 -0.4951  2.5917
  574MOL0     H75751   7.002   4.030   0.937  1.1219  0.6752  0.3014
  574MOL0     H75752   7.202   3.915   1.505 -0.8015  1.0503 -0.7590
  574MOL0     H75753   7.433   3.889   1.585 -1.2549  0.1658 -0.1979
  574MOL0     H75754   9.491   4.236   1.381  2.8577 -1.9138 -1.4441
  574MOL0     H75755   9.724   4.177   1.442 -0.2397 -4.1081 -2.9145
  574MOL0     H75756   9.950   3.879   2.007 -0.7848 -3.2340 -1.7486
  574MOL0     H75757  10.187   3.835   2.027  1.4742  0.8163 -0.9516
  574MOL0     H75758  10.386   3.749   2.005 -2.0776  2.7303  2.4063
  574MOL0     H75759  10.396   3.906   2.048 -0.9086 -0.8529  0.4601
  574MOL0     H75760  10.638   3.921   1.972  1.9963 -1.2348 -1.7275
  574MOL0     H75761  10.615   3.784   2.069 -0.4370  1.3026  1.2204
  574MOL0     H75762  10.646   3.841   1.774 -1.0539 -0.3004  0.3712
  574MOL0     H75763  10.560   3.691   1.806 -0.8084 -0.5168  1.5900
  574MOL0     H75764  10.766   3.606   1.936  3.2096  0.1467  0.1955
  574MOL0     H75765  10.798   3.653   1.771 -1.4522 -3.1798  0.9944
  574MOL0     H75766  11.025   3.947   1.991 -0.8650 -1.1309  1.0449
  574MOL0     H75767  10.263   3.963   1.629 -1.4848  0.3464 -1.4469
  574MOL0     H75768  10.040   4.000   1.594  0.9023 -0.7060 -1.2359
  575MOL0     O75769   7.971   3.363   8.042 -0.8205 -0.0927  0.8506
  575MOL0     C75770   7.946   3.278   7.956 -0.0491 -0.4219  0.2785
  575MOL0     O75771   8.039   3.194   7.899 -0.0768 -0.0512 -0.2696
  575MOL0     C75772   8.167   3.198   7.935  0.1165  0.4351  0.9821
  575MOL0     C75773   8.227   3.227   8.059 -0.7198  0.1874  0.3356
  575MOL0     C75774   8.364   3.228   8.069  0.4857 -0.1888 -0.4326
  575MOL0     C75775   8.449   3.203   7.969  0.6853  0.0444  0.7989
  575MOL0     O75776   8.586   3.225   7.992  0.3601 -0.3339 -0.3441
  575MOL0     C75777   8.661   3.319   7.909 -0.3280 -0.1937 -0.0778
  575MOL0     C75778   8.744   3.247   7.814 -0.8534  0.0675  0.1743
  575MOL0     C75779   8.865   3.173   7.876 -0.0761  0.0982 -0.2931
  575MOL0     C75780   8.934   3.070   7.792  0.3803  0.5910 -0.2792
  575MOL0     C75781   8.874   2.926   7.787 -0.3028 -0.1848  0.2215
  575MOL0     C75782   8.854   2.873   7.924  0.5079  0.3235  0.3355
  575MOL0     C75783   8.707   2.894   7.972 -1.0166  0.5993  0.5438
  575MOL0     C75784   8.697   2.869   8.124 -0.1355 -0.4018 -0.4514
  575MOL0     N75785   8.755   2.737   8.152 -0.6581  0.3104  0.8333
  575MOL0     C75786   8.691   2.624   8.127  0.2946  0.5232 -0.7391
  575MOL0     C75787   8.769   2.531   8.192  0.8021  0.3553  0.3318
  575MOL0     C75788   8.741   2.389   8.201 -0.1068 -0.5188  0.5046
  575MOL0     C75789   8.622   2.333   8.281 -0.4932 -0.1816  0.2403
  575MOL0     C75790   8.624   2.180   8.286 -0.0837 -0.0997  0.2067
  575MOL0     C75791   8.500   2.121   8.361  0.3646 -0.2252 -0.3254
  575MOL0     O75792   8.484   2.181   8.493  0.5603  1.0465 -0.5774
  575MOL0     C75793   8.354   2.176   8.553 -0.9138  0.5175 -0.4710
  575MOL0     C75794   8.336   2.239   8.674  0.4641 -0.1443 -0.4432
  575MOL0     C75795   8.212   2.240   8.741 -0.0126  0.0894  0.1944
  575MOL0     C75796   8.106   2.174   8.685  0.3326 -0.3234 -0.3948
  575MOL0     C75797   7.973   2.152   8.760  0.4548 -0.9740  0.2137
  575MOL0     O75798   7.888   2.067   8.702  0.4570 -0.0712  0.6365
  575MOL0     C75799   7.766   2.026   8.755 -0.9089  0.1313 -0.0600
  575MOL0     C75800   7.727   1.900   8.708 -0.4709 -0.2586 -0.3600
  575MOL0     C75801   7.601   1.854   8.751  0.2023 -0.4104 -0.1259
  575MOL0     C75802   7.532   1.922   8.854  1.0109  0.8373  0.3796
  575MOL0     O75803   7.416   1.852   8.890  0.0690  0.0862 -0.1809
  575MOL0     C75804   7.389   1.852   9.028  0.4359  0.3295 -0.0667
  575MOL0     C75805   7.264   1.755   9.060 -0.1271  0.0335  0.7039
  575MOL0     C75806   7.153   1.753   8.957  0.3177 -0.5239 -0.0180
  575MOL0     C75807   7.040   1.666   8.996  0.0351  0.0509  0.4348
  575MOL0     C75808   6.938   1.658   8.887 -0.0791 -0.7040 -0.9531
  575MOL0     C75809   6.810   1.581   8.934  0.7258 -0.9902  0.0142
  575MOL0     C75810   6.712   1.575   8.814 -0.5508  0.3856 -0.5558
  575MOL0     C75811   6.632   1.701   8.800  0.0341  0.0102 -0.7757
  575MOL0    Cl75812   6.521   1.672   8.659  0.1801  0.1944  0.0656
  575MOL0     C75813   7.569   2.041   8.900  0.1729  0.6785 -0.9201
  575MOL0     C75814   7.682   2.096   8.850 -0.0543  0.0049 -0.0403
  575MOL0     O75815   7.958   2.221   8.864 -0.5086 -0.1614  0.3027
  575MOL0     C75816   8.126   2.115   8.560 -1.0499  0.0260  0.8704
  575MOL0     C75817   8.250   2.109   8.493  0.2319  0.5568  0.5066
  575MOL0     N75818   8.885   2.584   8.228  0.1307  0.2775 -0.6591
  575MOL0     N75819   8.878   2.710   8.203 -0.8593  0.1957 -0.5024
  575MOL0     C75820   8.396   3.162   7.850 -0.4722  1.0924 -0.2197
  575MOL0     C75821   8.261   3.173   7.828  0.8115  0.1489 -0.2240
  575MOL0     C75822   7.809   3.253   7.915  0.7095  0.0001 -0.8290
  575MOL0     C75823   7.765   3.148   7.827 -0.9317  0.1271  0.3623
  575MOL0     C75824   7.632   3.116   7.807 -1.1817  0.0867  0.5272
  575MOL0     C75825   7.535   3.195   7.858 -0.2503  0.6294 -0.2926
  575MOL0     O75826   7.399   3.156   7.835 -0.0398  0.2698 -0.1733
  575MOL0     C75827   7.289   3.249   7.846 -0.0859 -0.0804 -0.1158
  575MOL0     C75828   7.184   3.177   7.772 -0.6015  0.3107 -0.1192
  575MOL0     C75829   7.062   3.254   7.761 -0.0568  0.0082 -0.0259
  575MOL0     C75830   6.949   3.169   7.704  0.3778 -0.2567  0.2013
  575MOL0     C75831   6.826   3.247   7.706 -0.6850  1.2026  0.4018
  575MOL0     C75832   6.730   3.318   7.724  0.2378 -0.4678  0.1366
  575MOL0     C75833   7.576   3.298   7.939  0.3413 -0.2716  1.3394
  575MOL0     C75834   7.709   3.342   7.968  0.0955 -0.5675  0.4467
  575MOL0     H75835   8.160   3.247   8.142  0.4574  0.4536  1.2353
  575MOL0     H75836   8.406   3.269   8.161  0.9395  3.8159 -2.2227
  575MOL0     H75837   8.719   3.393   7.964  0.1343 -0.5918 -0.0268
  575MOL0     H75838   8.591   3.378   7.849  1.5048  1.2800 -0.8775
  575MOL0     H75839   8.784   3.308   7.733 -3.2985  0.1168 -1.0732
  575MOL0     H75840   8.681   3.170   7.768 -2.1751  1.6494 -0.7718
  575MOL0     H75841   8.834   3.129   7.971  1.9665 -3.3164 -1.0397
  575MOL0     H75842   8.936   3.253   7.900  0.1880 -0.9931  3.0793
  575MOL0     H75843   8.955   3.108   7.691  2.2117 -1.8793 -0.9040
  575MOL0     H75844   9.030   3.059   7.843  0.6508  1.3521 -0.6091
  575MOL0     H75845   8.940   2.860   7.731 -0.5524  0.7280 -1.1831
  575MOL0     H75846   8.778   2.925   7.735  0.2849 -0.7287 -0.8935
  575MOL0     H75847   8.932   2.914   7.988 -0.0095 -0.0701  1.2404
  575MOL0     H75848   8.881   2.767   7.918 -1.8512 -0.3625  0.4469
  575MOL0     H75849   8.683   3.000   7.959  2.6635  1.4898  0.0528
  575MOL0     H75850   8.641   2.816   7.931 -0.5439 -0.0686  1.0447
  575MOL0     H75851   8.593   2.875   8.158 -0.1373  1.3222 -0.6810
  575MOL0     H75852   8.757   2.942   8.179  4.0191 -2.2362 -2.1546
  575MOL0     H75853   8.602   2.610   8.068 -0.2380 -0.6645  0.2962
  575MOL0     H75854   8.833   2.359   8.253  0.0807  2.6350  2.2838
  575MOL0     H75855   8.746   2.341   8.103  1.8549 -2.4055  1.4496
  575MOL0     H75856   8.526   2.366   8.238 -0.5201  0.2031  0.5907
  575MOL0     H75857   8.623   2.380   8.380  2.6659  3.8614 -1.4265
  575MOL0     H75858   8.623   2.135   8.186  1.2069  0.9287 -0.2867
  575MOL0     H75859   8.720   2.148   8.327 -0.4378 -1.0359  0.3473
  575MOL0     H75860   8.508   2.013   8.371  0.1274 -0.0489  5.3166
  575MOL0     H75861   8.415   2.152   8.300  1.4797  3.5056 -0.2676
  575MOL0     H75862   8.434   2.270   8.709  0.8948 -3.2040  1.3679
  575MOL0     H75863   8.220   2.290   8.837  2.2279  2.0667 -0.9165
  575MOL0     H75864   7.776   1.840   8.631 -1.6806 -0.8303 -0.7028
  575MOL0     H75865   7.578   1.758   8.706 -0.9190  0.1368 -0.7621
  575MOL0     H75866   7.362   1.954   9.057 -0.2213  0.7356 -1.9623
  575MOL0     H75867   7.477   1.827   9.088 -1.4217 -1.1779  2.2273
  575MOL0     H75868   7.223   1.788   9.156  0.9479  1.2752  0.7724
  575MOL0     H75869   7.304   1.655   9.077 -1.1421 -0.5845 -0.4852
  575MOL0     H75870   7.200   1.721   8.864 -1.2393 -2.6187 -0.1771
  575MOL0     H75871   7.106   1.849   8.935 -2.2816 -1.6513  0.2345
  575MOL0     H75872   7.060   1.560   9.013 -0.5359 -0.3453 -1.1897
  575MOL0     H75873   6.994   1.709   9.086 -0.5539 -0.2522  0.2854
  575MOL0     H75874   6.976   1.614   8.794  2.9067  1.1013 -0.6976
  575MOL0     H75875   6.909   1.763   8.882 -4.6273 -1.5944  1.2182
  575MOL0     H75876   6.760   1.643   9.009  0.4579  1.9972 -2.4415
  575MOL0     H75877   6.829   1.481   8.976 -0.4793 -0.8876  0.8435
  575MOL0     H75878   6.754   1.538   8.720 -0.7375  0.6357 -0.7424
  575MOL0     H75879   6.641   1.500   8.850 -2.5374  2.2698 -0.2896
  575MOL0     H75880   6.698   1.786   8.785  1.8458 -0.9237  1.4169
  575MOL0     H75881   6.557   1.717   8.879  0.7589 -3.3326  0.7672
  575MOL0     H75882   7.521   2.098   8.980  0.4915 -3.8173  2.9251
  575MOL0     H75883   7.709   2.192   8.894 -1.7738  0.1396  0.8107
  575MOL0     H75884   8.049   2.063   8.503  0.8808 -2.3988  0.3043
  575MOL0     H75885   8.251   2.053   8.399 -1.0927 -0.0062  0.8052
  575MOL0     H75886   8.452   3.140   7.759 -2.4180 -1.6872 -0.8660
  575MOL0     H75887   8.224   3.142   7.731 -1.4848  1.8026  0.0253
  575MOL0     H75888   7.845   3.088   7.784  0.6563  4.0875 -2.9401
  575MOL0     H75889   7.611   3.028   7.747 -1.2078  0.0538  0.5847
  575MOL0     H75890   7.309   3.347   7.803  0.1960 -0.3347 -0.5731
  575MOL0     H75891   7.253   3.254   7.949  0.1395 -3.8959  0.3052
  575MOL0     H75892   7.223   3.166   7.671  0.8613 -0.6103  0.5109
  575MOL0     H75893   7.168   3.083   7.826  0.2333 -0.5299 -1.2950
  575MOL0     H75894   7.078   3.340   7.696 -0.6572 -0.9966 -1.5431
  575MOL0     H75895   7.032   3.292   7.859  1.2210  1.2656 -0.0958
  575MOL0     H75896   6.980   3.127   7.608 -0.6439 -2.6735  0.8662
  575MOL0     H75897   6.929   3.086   7.772  0.1895 -1.6262 -1.4648
  575MOL0     H75898   6.636   3.369   7.729  0.0700 -0.3051 -2.7431
  575MOL0     H75899   7.498   3.345   7.999 -0.2414  0.8133 -0.2017
  575MOL0     H75900   7.732   3.417   8.042  0.6197 -0.0127 -0.2680
  576MOL0     O75901  10.076   7.079   0.387  0.0728 -0.0782  0.4445
  576MOL0     C75902  10.152   7.092   0.485  0.0795 -0.3126 -0.2261
  576MOL0     O75903  10.115   7.089   0.611  0.1855  0.2595 -0.2486
  576MOL0     C75904   9.993   7.027   0.646 -0.3168 -0.4052  1.1619
  576MOL0     C75905   9.913   7.073   0.748  0.5964  0.3704 -0.0371
  576MOL0     C75906   9.807   6.987   0.785  0.6381 -0.4228  0.2708
  576MOL0     C75907   9.776   6.868   0.715 -0.6577 -0.7791 -0.1856
  576MOL0     O75908   9.662   6.798   0.746 -0.3500 -0.3280  0.1661
  576MOL0     C75909   9.585   6.723   0.648  0.0510 -0.3066 -0.0593
  576MOL0     C75910   9.457   6.644   0.690  0.0751  0.5108  0.3115
  576MOL0     C75911   9.429   6.536   0.583 -0.1703  0.1325  0.3508
  576MOL0     C75912   9.299   6.458   0.621 -0.3687 -0.1336  0.6325
  576MOL0     C75913   9.226   6.386   0.501 -0.4368 -0.7167  0.4696
  576MOL0     C75914   9.125   6.281   0.537 -0.1009 -0.7786  0.8942
  576MOL0     C75915   9.061   6.216   0.411 -0.8849  0.1459  0.5828
  576MOL0     C75916   8.961   6.299   0.338 -0.4300  0.8690  0.6792
  576MOL0     N75917   8.848   6.333   0.423  0.2286  0.4305 -0.2196
  576MOL0     C75918   8.826   6.457   0.486 -1.0057  0.4896  0.2950
  576MOL0     C75919   8.736   6.421   0.585  0.9090  0.1420 -0.3459
  576MOL0     C75920   8.675   6.526   0.681 -0.0823  0.3877  0.2391
  576MOL0     C75921   8.540   6.580   0.621  0.4290  0.8517  0.6737
  576MOL0     C75922   8.422   6.513   0.694 -0.0857  0.8709  0.4155
  576MOL0     C75923   8.291   6.585   0.669 -0.7381 -0.0661 -0.6227
  576MOL0     O75924   8.187   6.500   0.737 -0.3726 -0.6392  0.3018
  576MOL0     C75925   8.062   6.550   0.734  0.7301 -0.1348 -0.1452
  576MOL0     C75926   7.962   6.456   0.770 -0.7657  0.0266 -0.1505
  576MOL0     C75927   7.826   6.487   0.755 -0.4194 -0.8073  0.0959
  576MOL0     C75928   7.786   6.606   0.687  1.3049  0.5615 -0.0179
  576MOL0     C75929   7.636   6.644   0.675  0.9365  0.6078 -0.0639
  576MOL0     O75930   7.552   6.535   0.696 -0.1638  1.2041  0.2680
  576MOL0     C75931   7.418   6.537   0.690 -0.0056 -0.8233  0.1229
  576MOL0     C75932   7.357   6.406   0.711 -0.4479 -0.7450  0.6613
  576MOL0     C75933   7.215   6.385   0.712 -0.2440  0.4529 -0.9301
  576MOL0     C75934   7.134   6.497   0.685  0.4408  0.2532  0.0071
  576MOL0     O75935   7.001   6.469   0.695  1.0829 -0.6343  0.1419
  576MOL0     C75936   6.910   6.579   0.684  0.3066  0.8492 -0.1994
  576MOL0     C75937   6.862   6.633   0.818 -0.3975 -0.0107 -0.3491
  576MOL0     C75938   6.747   6.730   0.798  0.4685 -0.8305 -0.5074
  576MOL0     C75939   6.697   6.797   0.934  0.9600  0.2842 -0.9215
  576MOL0     C75940   6.573   6.883   0.910 -0.6409  0.2958  0.1430
  576MOL0     C75941   6.532   6.939   1.046 -0.0172  0.6372 -0.2604
  576MOL0     C75942   6.412   7.043   1.033 -0.1390  0.3973  0.2627
  576MOL0     C75943   6.349   7.066   1.167 -0.3865 -0.1593  0.0408
  576MOL0    Cl75944   6.206   7.172   1.141 -0.0876 -0.3459 -0.3365
  576MOL0     C75945   7.190   6.622   0.669 -0.5155 -0.6610  0.7872
  576MOL0     C75946   7.328   6.642   0.668  0.0418  0.3916  0.2427
  576MOL0     O75947   7.596   6.756   0.658  0.9322  0.4676  0.3171
  576MOL0     C75948   7.886   6.695   0.645 -1.1748 -0.0430 -0.7123
  576MOL0     C75949   8.022   6.675   0.672  0.3720  0.0767 -0.3067
  576MOL0     N75950   8.693   6.293   0.568 -0.4786 -0.4720 -0.5826
  576MOL0     N75951   8.764   6.237   0.481  0.1461 -0.0521 -0.1907
  576MOL0     C75952   9.848   6.840   0.598 -0.0070 -0.5761  0.6074
  576MOL0     C75953   9.961   6.911   0.570  0.5949  0.4514 -0.6364
  576MOL0     C75954  10.293   7.128   0.463 -0.1012  0.0699  0.3868
  576MOL0     C75955  10.342   7.181   0.346 -0.2242  0.8369  0.7344
  576MOL0     C75956  10.485   7.222   0.337  0.6345 -0.1150  0.4441
  576MOL0     C75957  10.565   7.209   0.442 -0.8776 -0.0624  0.3097
  576MOL0     O75958  10.688   7.263   0.415  0.3056  0.0555 -0.1686
  576MOL0     C75959  10.782   7.279   0.525  0.3355 -0.3038 -0.1205
  576MOL0     C75960  10.737   7.410   0.590  0.9878  0.9764 -0.2838
  576MOL0     C75961  10.833   7.449   0.700 -0.2724  0.3775  0.9506
  576MOL0     C75962  10.773   7.524   0.812  0.8346 -0.2508 -0.1513
  576MOL0     C75963  10.856   7.501   0.937  0.1064  0.2889 -0.8240
  576MOL0     C75964  10.922   7.449   1.023  0.3463 -0.9497  0.1675
  576MOL0     C75965  10.523   7.141   0.558  0.1375 -0.4279 -0.6053
  576MOL0     C75966  10.387   7.103   0.572  1.3536  0.0730 -0.5939
  576MOL0     H75967   9.927   7.161   0.809 -4.2933  3.2367 -2.4003
  576MOL0     H75968   9.769   6.998   0.886 -0.5532 -0.7324 -0.1357
  576MOL0     H75969   9.657   6.652   0.605  2.1817  1.0204  1.1024
  576MOL0     H75970   9.547   6.800   0.581  0.4128  0.1905  0.3026
  576MOL0     H75971   9.373   6.714   0.688 -0.8792 -0.5440  1.6623
  576MOL0     H75972   9.446   6.594   0.786 -0.2919  1.9364  1.0338
  576MOL0     H75973   9.516   6.470   0.591  1.6153  2.3543  0.2930
  576MOL0     H75974   9.417   6.580   0.484  0.3899 -1.2292 -0.3509
  576MOL0     H75975   9.320   6.390   0.703 -0.2030 -0.7153  0.1097
  576MOL0     H75976   9.228   6.539   0.645  1.0624  1.7998 -1.1983
  576MOL0     H75977   9.303   6.344   0.436  1.5684  0.9093  1.6760
  576MOL0     H75978   9.177   6.465   0.444  0.8042 -0.0550  0.2836
  576MOL0     H75979   9.044   6.325   0.596  1.1011  0.7079  1.5250
  576MOL0     H75980   9.175   6.207   0.601  0.0488  0.1864  1.9325
  576MOL0     H75981   9.134   6.174   0.342 -0.6509  2.9006 -0.9936
  576MOL0     H75982   9.014   6.122   0.441 -1.4218 -0.3321 -1.5850
  576MOL0     H75983   8.929   6.236   0.254 -0.2965 -2.0711  2.6505
  576MOL0     H75984   9.013   6.385   0.295  2.7600  0.0199  2.4146
  576MOL0     H75985   8.880   6.548   0.463 -0.2509 -0.0302 -0.0377
  576MOL0     H75986   8.761   6.594   0.684  0.2965 -0.1053  0.5338
  576MOL0     H75987   8.656   6.490   0.782 -1.6704  1.9553  0.5600
  576MOL0     H75988   8.547   6.574   0.512  2.9358  0.3832  0.8061
  576MOL0     H75989   8.530   6.684   0.651 -3.0855 -0.3086  4.3506
  576MOL0     H75990   8.417   6.407   0.666  0.1018  0.5635  1.4965
  576MOL0     H75991   8.442   6.527   0.800  1.8812  2.3927 -0.0936
  576MOL0     H75992   8.276   6.602   0.562  1.3337  4.0111 -0.4380
  576MOL0     H75993   8.302   6.683   0.715  0.6734  0.7687 -2.5935
  576MOL0     H75994   7.993   6.359   0.805  0.8254  0.8854  0.9556
  576MOL0     H75995   7.755   6.416   0.797 -1.6040 -0.2044 -0.8186
  576MOL0     H75996   7.433   6.330   0.724  0.9137  0.3848 -0.3489
  576MOL0     H75997   7.174   6.287   0.735 -2.6893  1.3738 -1.1268
  576MOL0     H75998   6.822   6.534   0.637  1.2819  0.6430 -1.9073
  576MOL0     H75999   6.940   6.659   0.615  0.8804  0.6429 -0.1893
  576MOL0     H76000   6.948   6.686   0.858 -0.0938 -0.1921 -0.7496
  576MOL0     H76001   6.834   6.548   0.882 -0.8040  0.0374 -0.4565
  576MOL0     H76002   6.667   6.675   0.749  0.9639 -0.0421 -2.2738
  576MOL0     H76003   6.776   6.812   0.731 -0.8241 -0.9994 -1.3005
  576MOL0     H76004   6.655   6.720   0.999 -0.2600  0.6759 -1.2301
  576MOL0     H76005   6.780   6.844   0.989  0.8021 -0.3850 -0.0824
  576MOL0     H76006   6.507   6.807   0.866 -1.1062  0.9955 -0.4019
  576MOL0     H76007   6.575   6.961   0.833 -2.5828  1.3621  1.1131
  576MOL0     H76008   6.618   6.997   1.081  0.7724 -0.0782 -0.9872
  576MOL0     H76009   6.503   6.863   1.119  0.6989 -0.0988 -0.7280
  576MOL0     H76010   6.453   7.134   0.987  0.1342 -0.9498 -2.3842
  576MOL0     H76011   6.338   7.019   0.956  1.6087  1.0556 -1.7624
  576MOL0     H76012   6.419   7.105   1.241  1.8647  3.1214 -3.4333
  576MOL0     H76013   6.310   6.970   1.201 -0.4020 -1.0723 -2.3448
  576MOL0     H76014   7.127   6.709   0.657 -0.1052 -0.6459 -1.7729
  576MOL0     H76015   7.370   6.741   0.672  1.0920  0.0131 -0.8546
  576MOL0     H76016   7.845   6.784   0.597 -2.9528  0.2306  1.1866
  576MOL0     H76017   8.081   6.755   0.629  0.5231  0.1587  0.0453
  576MOL0     H76018   9.821   6.768   0.522  1.0565  0.5975 -0.9472
  576MOL0     H76019  10.011   6.876   0.481 -0.9825 -2.6222 -0.4555
  576MOL0     H76020  10.273   7.190   0.263  0.9915  0.7699 -0.3160
  576MOL0     H76021  10.518   7.264   0.242  0.7639  1.8455  1.3016
  576MOL0     H76022  10.872   7.290   0.465  0.0946 -2.1170 -0.8628
  576MOL0     H76023  10.800   7.195   0.592  1.5533 -1.5317 -1.9145
  576MOL0     H76024  10.735   7.489   0.514 -0.7468 -0.1557 -1.4936
  576MOL0     H76025  10.632   7.408   0.621  1.7457 -0.7940  2.5738
  576MOL0     H76026  10.916   7.506   0.658 -0.1180 -1.2158 -1.0212
  576MOL0     H76027  10.874   7.358   0.743  1.0696  1.1000  1.2496
  576MOL0     H76028  10.766   7.632   0.796  1.2053 -0.7207 -5.3459
  576MOL0     H76029  10.674   7.480   0.821  0.3842  0.4197 -1.4976
  576MOL0     H76030  10.976   7.417   1.110 -0.7612 -0.1534  1.1763
  576MOL0     H76031  10.593   7.136   0.641  1.4544 -1.1356 -1.7064
  576MOL0     H76032  10.362   7.058   0.668  2.6313 -0.6280 -0.5598
  577MOL0     O76033   5.984   1.271   3.699  0.7465 -0.2350 -0.4020
  577MOL0     C76034   6.009   1.382   3.759 -0.3307 -0.3654  0.4366
  577MOL0     O76035   5.932   1.454   3.831 -0.3163 -0.1731  0.5623
  577MOL0     C76036   5.800   1.431   3.849 -0.3340 -0.1448  0.0905
  577MOL0     C76037   5.751   1.416   3.984 -0.0486 -0.1880  0.6914
  577MOL0     C76038   5.612   1.421   4.005  0.2650  0.1149  0.0352
  577MOL0     C76039   5.518   1.433   3.906  0.6372  0.2028  0.5418
  577MOL0     O76040   5.385   1.433   3.948  0.1372 -1.0372  0.2244
  577MOL0     C76041   5.268   1.455   3.875  0.1754 -0.4303 -0.6914
  577MOL0     C76042   5.203   1.311   3.839  0.3659 -0.6961  0.1984
  577MOL0     C76043   5.103   1.273   3.952  0.6616  0.4506 -0.1273
  577MOL0     C76044   4.959   1.326   3.942 -0.0685  0.0109  0.3742
  577MOL0     C76045   4.847   1.230   3.993 -0.1991  0.7853 -0.5836
  577MOL0     C76046   4.715   1.307   4.007 -0.2003 -0.1762  0.1527
  577MOL0     C76047   4.587   1.219   4.036  0.2029  1.4309 -0.4956
  577MOL0     C76048   4.532   1.136   3.917  0.1512  0.5770  0.1951
  577MOL0     N76049   4.385   1.119   3.922 -0.2574  1.0908 -0.0467
  577MOL0     C76050   4.305   1.181   3.827  0.7138  0.0593  0.5341
  577MOL0     C76051   4.181   1.129   3.855  0.1856 -0.6782 -0.8131
  577MOL0     C76052   4.057   1.165   3.788 -0.1010 -0.7167  0.0646
  577MOL0     C76053   3.987   1.066   3.691  0.1969 -0.3679  0.5716
  577MOL0     C76054   4.019   1.086   3.542  0.1900  0.3299  0.4887
  577MOL0     C76055   4.176   1.080   3.513  0.7774  0.7354  0.3666
  577MOL0     O76056   4.222   0.957   3.569  0.0258  0.1261  0.2855
  577MOL0     C76057   4.360   0.947   3.588  0.1410 -0.1062 -0.5507
  577MOL0     C76058   4.401   0.833   3.651 -1.0289  0.5432  0.4749
  577MOL0     C76059   4.539   0.808   3.663  0.1707  0.1899 -0.1093
  577MOL0     C76060   4.634   0.910   3.630  0.0789  0.6690  0.6294
  577MOL0     C76061   4.774   0.896   3.671 -0.1078  0.4569 -0.4424
  577MOL0     O76062   4.853   0.996   3.619 -0.3872  0.4989  1.0249
  577MOL0     C76063   4.987   0.968   3.616 -0.2807 -0.5143 -0.4953
  577MOL0     C76064   5.063   1.080   3.608 -0.8224 -0.7632 -0.6176
  577MOL0     C76065   5.203   1.081   3.603  0.9838 -0.1956 -0.3304
  577MOL0     C76066   5.268   0.958   3.614 -0.8018  0.3419 -0.3112
  577MOL0     O76067   5.404   0.946   3.607 -0.2577  0.0251 -0.5534
  577MOL0     C76068   5.468   1.020   3.705 -0.1928  0.3295  0.0655
  577MOL0     C76069   5.601   0.959   3.737  0.5434 -0.3191  0.1705
  577MOL0     C76070   5.698   0.975   3.618  0.5380  0.9606 -0.0375
  577MOL0     C76071   5.717   1.112   3.549 -0.8904  0.2144  0.3514
  577MOL0     C76072   5.845   1.128   3.469  0.0480 -0.0122  0.0087
  577MOL0     C76073   5.846   1.046   3.338 -0.4372 -1.0349 -0.5934
  577MOL0     C76074   5.987   1.014   3.297  0.5793 -0.0469 -1.1056
  577MOL0     C76075   6.069   1.140   3.248 -0.0334 -0.9072 -0.2090
  577MOL0    Cl76076   6.222   1.096   3.165  0.5610  0.0338  0.5811
  577MOL0     C76077   5.196   0.832   3.620 -0.6868 -0.4543 -0.2339
  577MOL0     C76078   5.055   0.843   3.628  0.5885 -0.6651  0.1607
  577MOL0     O76079   4.804   0.818   3.764 -0.1100 -0.0464  0.2438
  577MOL0     C76080   4.589   1.017   3.557 -0.0069 -0.3000 -0.5833
  577MOL0     C76081   4.460   1.036   3.531  0.4223  1.3978 -1.4178
  577MOL0     N76082   4.194   1.044   3.962 -0.6141 -0.1406  0.2442
  577MOL0     N76083   4.307   1.047   4.019 -0.4502 -1.0875 -0.4860
  577MOL0     C76084   5.565   1.432   3.774  0.0694 -0.7624 -1.2193
  577MOL0     C76085   5.706   1.436   3.750 -0.8297  0.1553  0.0857
  577MOL0     C76086   6.147   1.427   3.739  0.5632 -0.1487  0.4196
  577MOL0     C76087   6.236   1.349   3.667  0.9771 -0.8617  0.7508
  577MOL0     C76088   6.361   1.383   3.649 -0.4372 -0.0786  0.3656
  577MOL0     C76089   6.424   1.497   3.711 -0.8631 -0.2918  0.0759
  577MOL0     O76090   6.559   1.532   3.697  0.0844  0.5419  0.0235
  577MOL0     C76091   6.646   1.458   3.615  0.2570  0.5047  0.4466
  577MOL0     C76092   6.640   1.502   3.471 -0.4821 -1.3496 -0.1395
  577MOL0     C76093   6.715   1.640   3.449  0.4876  0.3069 -0.5272
  577MOL0     C76094   6.867   1.614   3.418 -0.6940  0.2469 -0.0513
  577MOL0     C76095   6.943   1.738   3.421  0.1681 -0.1362  0.6831
  577MOL0     C76096   7.008   1.838   3.418  0.0653 -0.5009 -0.5176
  577MOL0     C76097   6.332   1.584   3.772 -0.2073 -0.2877  0.7444
  577MOL0     C76098   6.196   1.552   3.780  0.7621 -0.2426  0.3704
  577MOL0     H76099   5.826   1.409   4.062  2.6364 -1.9418 -1.8280
  577MOL0     H76100   5.578   1.421   4.108  1.6649 -1.2273  0.5429
  577MOL0     H76101   5.290   1.513   3.785 -1.2464 -0.4275 -1.0655
  577MOL0     H76102   5.191   1.515   3.925  1.1503  2.3868 -2.3113
  577MOL0     H76103   5.285   1.239   3.842  0.9658  0.0189  1.1396
  577MOL0     H76104   5.143   1.310   3.747 -0.2069  0.2639  0.5562
  577MOL0     H76105   5.128   1.309   4.052 -2.1205  0.9913  0.4585
  577MOL0     H76106   5.089   1.165   3.958 -2.8933  0.6383 -2.3435
  577MOL0     H76107   4.949   1.425   3.986  2.1466  1.1329 -1.4860
  577MOL0     H76108   4.931   1.342   3.838  0.4762 -2.5527 -0.2557
  577MOL0     H76109   4.879   1.186   4.088 -3.2255 -1.4584 -0.4272
  577MOL0     H76110   4.811   1.151   3.927 -0.2759  1.2078 -1.0575
  577MOL0     H76111   4.702   1.367   3.916  1.1641  2.7193  1.7518
  577MOL0     H76112   4.724   1.381   4.087  0.0569  1.5205 -1.3858
  577MOL0     H76113   4.619   1.153   4.116  1.7633  2.0422 -0.5710
  577MOL0     H76114   4.499   1.274   4.071 -0.9130  0.2503 -1.3551
  577MOL0     H76115   4.567   1.033   3.918  0.9394  0.8279  1.9538
  577MOL0     H76116   4.565   1.184   3.824  1.3198  1.3214  0.9801
  577MOL0     H76117   4.325   1.250   3.745 -0.9260 -0.8758 -0.6994
  577MOL0     H76118   4.086   1.249   3.725  0.1980 -0.2526  0.8076
  577MOL0     H76119   3.989   1.209   3.862  0.4745  1.1259 -0.4509
  577MOL0     H76120   3.879   1.071   3.702 -0.1020 -0.5560 -1.7307
  577MOL0     H76121   4.013   0.965   3.723 -0.8678 -0.8527 -0.0520
  577MOL0     H76122   3.960   1.009   3.492  1.6323 -1.0853  0.8620
  577MOL0     H76123   3.975   1.175   3.497 -3.3168 -1.6351 -0.3416
  577MOL0     H76124   4.221   1.167   3.561  1.4354  1.6560 -1.8155
  577MOL0     H76125   4.198   1.071   3.406  0.3606 -3.3447  0.4322
  577MOL0     H76126   4.333   0.756   3.687  1.7631 -3.0710 -1.2848
  577MOL0     H76127   4.582   0.717   3.704  4.4398  0.9143 -2.4599
  577MOL0     H76128   5.023   1.180   3.604  0.2408 -0.2068  1.2107
  577MOL0     H76129   5.261   1.173   3.614  1.2496 -0.4314  0.2956
  577MOL0     H76130   5.402   1.019   3.792 -1.9038 -1.5238 -1.1448
  577MOL0     H76131   5.478   1.120   3.662  1.4373  1.2578  2.4045
  577MOL0     H76132   5.584   0.853   3.756 -2.5172  0.3730  1.9500
  577MOL0     H76133   5.630   1.022   3.822 -3.1017  2.7124 -0.5310
  577MOL0     H76134   5.671   0.914   3.531 -0.9803  0.5945  0.6555
  577MOL0     H76135   5.796   0.935   3.645  0.7046  1.8129  0.6676
  577MOL0     H76136   5.629   1.125   3.486  1.0255 -1.8735 -3.0693
  577MOL0     H76137   5.720   1.192   3.624  1.7446  1.4943 -0.9689
  577MOL0     H76138   5.928   1.088   3.528  0.0608  0.1084  0.0722
  577MOL0     H76139   5.869   1.233   3.451 -0.4950  0.5660  2.4233
  577MOL0     H76140   5.791   1.099   3.260  3.2370  1.1686 -1.9144
  577MOL0     H76141   5.788   0.958   3.367 -1.0196 -0.9966 -1.6017
  577MOL0     H76142   6.035   0.972   3.386  1.4244  1.9399 -0.5777
  577MOL0     H76143   5.983   0.937   3.219  0.4335 -0.9512 -0.2387
  577MOL0     H76144   6.087   1.199   3.339  1.4508  1.1910 -1.7547
  577MOL0     H76145   5.998   1.199   3.189  0.8463  0.1784 -0.2096
  577MOL0     H76146   5.249   0.737   3.609  1.8421  0.4442  2.7512
  577MOL0     H76147   4.995   0.753   3.629 -1.8845  0.8935  1.8637
  577MOL0     H76148   4.654   1.100   3.532  1.6276 -1.0828  0.8039
  577MOL0     H76149   4.419   1.119   3.473 -0.0209  0.5632 -2.3386
  577MOL0     H76150   5.490   1.462   3.701 -2.0020  2.0684  1.7309
  577MOL0     H76151   5.747   1.454   3.651  0.4862  0.3574  0.6448
  577MOL0     H76152   6.206   1.249   3.635  0.9156 -0.1854 -1.4624
  577MOL0     H76153   6.418   1.311   3.591  1.4656  2.1853 -0.7651
  577MOL0     H76154   6.620   1.353   3.629  1.1409  0.6344  4.2632
  577MOL0     H76155   6.747   1.475   3.653 -0.0975  0.2528  1.5235
  577MOL0     H76156   6.693   1.432   3.406  0.8656 -1.3706  0.9346
  577MOL0     H76157   6.535   1.517   3.444 -0.3137 -0.3976 -0.3161
  577MOL0     H76158   6.702   1.696   3.543  2.5117 -0.1422  0.0674
  577MOL0     H76159   6.658   1.696   3.374  1.3164  0.5064 -1.0114
  577MOL0     H76160   6.891   1.540   3.494 -0.6007  0.9300  0.5922
  577MOL0     H76161   6.874   1.573   3.317  0.8045 -0.6968  0.4130
  577MOL0     H76162   7.060   1.931   3.418  2.2236 -1.6327  0.1638
  577MOL0     H76163   6.356   1.683   3.811 -3.6325  0.9536  0.0053
  577MOL0     H76164   6.130   1.619   3.834 -1.2101 -4.1628  3.3383
  578MOL0     O76165   6.551   9.571   1.276 -0.6789 -0.1832  0.4469
  578MOL0     C76166   6.567   9.673   1.334  0.1766  0.4302  0.0813
  578MOL0     O76167   6.468   9.759   1.386 -0.5914 -0.1991  0.5561
  578MOL0     C76168   6.334   9.720   1.366  0.3545 -0.1185 -0.5126
  578MOL0     C76169   6.282   9.604   1.428 -0.2640 -0.2719 -1.0110
  578MOL0     C76170   6.145   9.571   1.411 -0.3159  0.1620  0.2936
  578MOL0     C76171   6.066   9.632   1.313  0.3195 -0.6724  0.4325
  578MOL0     O76172   5.940   9.584   1.281  0.0637  0.3557  0.0273
  578MOL0     C76173   5.848   9.679   1.231 -0.2761  0.7145  0.3076
  578MOL0     C76174   5.706   9.623   1.211 -0.9387  0.4093 -0.5293
  578MOL0     C76175   5.682   9.504   1.118 -0.2559 -0.5624 -0.1022
  578MOL0     C76176   5.545   9.443   1.144 -0.1112 -0.1349 -0.7184
  578MOL0     C76177   5.527   9.309   1.078  0.4369  0.1011 -0.3937
  578MOL0     C76178   5.394   9.237   1.085 -0.7225 -0.6231  1.0027
  578MOL0     C76179   5.267   9.322   1.080  0.0450  0.3192  0.3426
  578MOL0     C76180   5.138   9.242   1.056  0.5077 -0.0673 -0.8765
  578MOL0     N76181   5.036   9.331   0.979 -0.9060  0.7026 -0.5937
  578MOL0     C76182   4.958   9.435   1.032 -0.2963  0.2846 -0.3045
  578MOL0     C76183   4.895   9.491   0.924 -0.4709  0.7279  0.2833
  578MOL0     C76184   4.795   9.606   0.933 -0.0945  0.1713  0.3049
  578MOL0     C76185   4.648   9.563   0.930  0.2807  0.4482  0.5994
  578MOL0     C76186   4.562   9.675   0.986 -0.0790 -0.4920 -0.0224
  578MOL0     C76187   4.408   9.653   0.976  0.8792  0.0838  0.0172
  578MOL0     O76188   4.368   9.620   0.844  0.0205 -0.4879 -0.4222
  578MOL0     C76189   4.234   9.600   0.826  0.4587  0.9168  0.0328
  578MOL0     C76190   4.124   9.653   0.894  0.4789  0.1116 -0.0108
  578MOL0     C76191   3.992   9.630   0.853  0.2295 -0.1529 -0.0534
  578MOL0     C76192   3.960   9.552   0.742 -0.1983  0.4761  0.8170
  578MOL0     C76193   3.816   9.540   0.706  0.3208  0.5079 -0.0977
  578MOL0     O76194   3.789   9.450   0.605 -0.2398 -0.0443  0.1969
  578MOL0     C76195   3.665   9.397   0.600  0.1024  0.4413  0.1597
  578MOL0     C76196   3.570   9.467   0.539  0.1376 -0.4538 -0.9427
  578MOL0     C76197   3.440   9.414   0.521 -0.6015 -0.8244 -0.7812
  578MOL0     C76198   3.408   9.288   0.574  0.2389  0.4672  0.6343
  578MOL0     O76199   3.280   9.246   0.558  0.3542 -0.4849  0.5461
  578MOL0     C76200   3.266   9.096   0.558  0.1156  0.0969 -0.8128
  578MOL0     C76201   3.131   9.054   0.511  0.6140  0.0194 -0.7332
  578MOL0     C76202   3.010   9.101   0.597 -0.7280  0.3187  0.4432
  578MOL0     C76203   2.878   9.084   0.521  0.1320  0.2033  0.4383
  578MOL0     C76204   2.764   9.174   0.575 -0.8737  0.7775 -0.9780
  578MOL0     C76205   2.624   9.139   0.526 -0.6767  0.7575 -0.4633
  578MOL0     C76206   2.521   9.254   0.554 -0.2736  0.9146 -0.2457
  578MOL0     C76207   2.482   9.319   0.425  0.4821 -0.5783  0.9126
  578MOL0    Cl76208   2.633   9.399   0.371  0.2181 -0.1502  0.4295
  578MOL0     C76209   3.516   9.210   0.638 -1.0353  0.4206 -0.7868
  578MOL0     C76210   3.644   9.274   0.653 -0.7685 -0.3870 -0.4280
  578MOL0     O76211   3.731   9.597   0.769  0.0852 -0.4338 -0.4033
  578MOL0     C76212   4.067   9.500   0.668  0.4034  0.7162 -0.1922
  578MOL0     C76213   4.203   9.516   0.711  0.0260 -0.9864  0.7956
  578MOL0     N76214   4.939   9.424   0.806  0.1208 -0.2712  0.0444
  578MOL0     N76215   5.021   9.323   0.848 -0.2597 -0.1775  0.4352
  578MOL0     C76216   6.124   9.744   1.244 -0.6409  0.3023  0.5935
  578MOL0     C76217   6.254   9.794   1.275  0.4481  0.4962 -0.4685
  578MOL0     C76218   6.708   9.729   1.351  0.1864  1.0226 -0.3670
  578MOL0     C76219   6.736   9.855   1.405  0.2462  0.2277  0.5743
  578MOL0     C76220   6.860   9.900   1.440 -0.1352 -0.0231 -0.0160
  578MOL0     C76221   6.967   9.819   1.414  0.2459  0.0432  0.0001
  578MOL0     O76222   7.093   9.867   1.439 -0.6219 -0.1380 -0.7887
  578MOL0     C76223   7.203   9.776   1.449 -0.0034 -0.4767 -0.2661
  578MOL0     C76224   7.285   9.766   1.316  0.3960  0.2551  0.5094
  578MOL0     C76225   7.385   9.878   1.304 -0.0735 -0.3396 -0.8933
  578MOL0     C76226   7.482   9.895   1.426 -0.8016 -0.3257  0.3510
  578MOL0     C76227   7.578  10.000   1.392  0.6638  0.9463 -0.4834
  578MOL0     C76228   7.667  10.073   1.369  1.1035 -0.7341 -0.3755
  578MOL0     C76229   6.951   9.706   1.347  0.2896  0.4023  0.8954
  578MOL0     C76230   6.823   9.654   1.318  0.3986 -0.0182  0.1148
  578MOL0     H76231   6.342   9.551   1.501  1.8565 -2.4390 -4.0380
  578MOL0     H76232   6.095   9.488   1.461 -0.9076 -0.4278 -1.1855
  578MOL0     H76233   5.881   9.712   1.132  1.8689  0.4078  0.8801
  578MOL0     H76234   5.849   9.772   1.288 -1.8395  2.2177 -1.9252
  578MOL0     H76235   5.647   9.709   1.179 -2.6671  0.2682  1.9490
  578MOL0     H76236   5.665   9.597   1.309 -0.0715  0.6055 -0.1014
  578MOL0     H76237   5.743   9.416   1.139 -2.2288 -1.7257  1.0118
  578MOL0     H76238   5.694   9.529   1.012 -0.1745 -2.3224 -0.5438
  578MOL0     H76239   5.533   9.434   1.252 -2.2847  1.8176 -0.7213
  578MOL0     H76240   5.470   9.515   1.109 -1.0504 -0.5193  0.4388
  578MOL0     H76241   5.599   9.239   1.121  0.2450  0.1593  0.0219
  578MOL0     H76242   5.553   9.325   0.973 -0.2026  0.7359 -0.4640
  578MOL0     H76243   5.378   9.187   1.181 -2.3808 -2.0496  0.0357
  578MOL0     H76244   5.398   9.161   1.007  1.0557  0.0873  0.3616
  578MOL0     H76245   5.251   9.377   1.173  0.1747 -1.8649  1.7377
  578MOL0     H76246   5.284   9.384   0.992  2.5743 -1.4151 -0.5253
  578MOL0     H76247   5.095   9.215   1.153  1.4819  2.5928  0.4208
  578MOL0     H76248   5.165   9.151   1.004  3.8669 -0.1555  0.7425
  578MOL0     H76249   4.933   9.467   1.133 -1.1003  2.0032 -1.0013
  578MOL0     H76250   4.831   9.684   0.866  0.1951 -1.0768 -1.0366
  578MOL0     H76251   4.802   9.654   1.031 -2.0441  2.5583 -0.6151
  578MOL0     H76252   4.651   9.477   0.998 -1.4330 -0.5475 -0.5108
  578MOL0     H76253   4.624   9.540   0.826 -3.5064 -3.0414  1.9735
  578MOL0     H76254   4.576   9.682   1.094  0.9082  1.2272 -0.2320
  578MOL0     H76255   4.593   9.771   0.943 -1.4342  0.0523  0.1656
  578MOL0     H76256   4.351   9.744   0.997 -1.0247 -0.6523 -1.6411
  578MOL0     H76257   4.378   9.578   1.051 -1.3291 -1.9098 -2.6373
  578MOL0     H76258   4.135   9.706   0.987 -0.7270  1.3271 -0.5436
  578MOL0     H76259   3.905   9.669   0.905 -1.4634 -3.5106 -0.0740
  578MOL0     H76260   3.601   9.567   0.509 -2.0829  0.2590 -1.0471
  578MOL0     H76261   3.370   9.473   0.462  0.7138  1.6626 -0.0296
  578MOL0     H76262   3.284   9.063   0.661 -2.9909 -1.1475 -0.5318
  578MOL0     H76263   3.342   9.047   0.497  0.4647 -3.0786  1.8758
  578MOL0     H76264   3.117   8.946   0.501  2.4712 -0.9070  4.0942
  578MOL0     H76265   3.116   9.103   0.415 -0.3716  1.5230  0.1445
  578MOL0     H76266   3.020   9.209   0.609 -0.9169  0.7590 -2.5355
  578MOL0     H76267   2.995   9.049   0.693  0.3160  1.3237  1.1752
  578MOL0     H76268   2.895   9.111   0.416 -2.5969 -0.3927 -0.2227
  578MOL0     H76269   2.846   8.979   0.521 -2.0889  0.8320 -0.3329
  578MOL0     H76270   2.787   9.278   0.551 -1.1050  0.8672 -0.8151
  578MOL0     H76271   2.772   9.156   0.683  2.0658  0.0826 -1.2119
  578MOL0     H76272   2.588   9.057   0.589 -1.5782  3.6225  3.0982
  578MOL0     H76273   2.625   9.112   0.420  1.1706  0.3968 -0.3870
  578MOL0     H76274   2.432   9.218   0.606  1.0331 -0.0753  1.4268
  578MOL0     H76275   2.556   9.328   0.628  0.0331 -1.2004  1.8480
  578MOL0     H76276   2.412   9.401   0.444  1.5003  0.0121  2.2510
  578MOL0     H76277   2.444   9.257   0.343 -2.5280  3.3097 -0.9498
  578MOL0     H76278   3.506   9.115   0.690 -0.0956  0.3966 -0.6230
  578MOL0     H76279   3.728   9.228   0.705  2.1763  0.8720 -3.6292
  578MOL0     H76280   4.046   9.441   0.580  0.9828 -3.3810  2.1472
  578MOL0     H76281   4.283   9.471   0.653  0.3906 -1.9382  1.9836
  578MOL0     H76282   6.065   9.807   1.178  0.1083  2.4081  1.8545
  578MOL0     H76283   6.287   9.892   1.242  2.5119 -0.5150 -1.6752
  578MOL0     H76284   6.644   9.908   1.426  0.4377  0.9656 -0.3719
  578MOL0     H76285   6.871   9.995   1.492 -0.2852 -0.9740  1.8372
  578MOL0     H76286   7.175   9.679   1.490  2.7410 -1.5450 -0.7123
  578MOL0     H76287   7.266   9.795   1.536 -1.5169  1.0215  0.5624
  578MOL0     H76288   7.328   9.667   1.303 -0.6313 -0.3247  1.3950
  578MOL0     H76289   7.214   9.777   1.234  0.8470 -2.5430 -0.3607
  578MOL0     H76290   7.330   9.970   1.282  0.7859  0.6771  0.9589
  578MOL0     H76291   7.459   9.861   1.225  1.1054 -1.0399  0.3173
  578MOL0     H76292   7.435   9.937   1.515  2.6498  0.9498  1.7133
  578MOL0     H76293   7.534   9.806   1.461 -0.0662  0.4172  1.2122
  578MOL0     H76294   7.741  10.145   1.337  0.0440  1.7545  2.3393
  578MOL0     H76295   7.040   9.648   1.324  2.0913  2.7083  1.5446
  578MOL0     H76296   6.813   9.564   1.258  3.6629  0.8111 -1.9435
  579MOL0     O76297   2.622   5.335   2.620  0.5649 -0.5986 -0.5801
  579MOL0     C76298   2.734   5.275   2.592  1.4700 -1.2734  0.5750
  579MOL0     O76299   2.762   5.151   2.609  0.6597 -0.2094  0.0858
  579MOL0     C76300   2.647   5.066   2.635  0.0662 -0.4644 -0.3040
  579MOL0     C76301   2.606   5.046   2.765 -0.3245  0.5383 -0.4655
  579MOL0     C76302   2.498   4.959   2.788 -0.3285 -0.0980 -0.4869
  579MOL0     C76303   2.433   4.897   2.683  0.1220  0.1262 -0.5667
  579MOL0     O76304   2.313   4.829   2.688  0.5230 -0.9325 -0.0499
  579MOL0     C76305   2.294   4.758   2.803  0.0979 -0.6471  0.6408
  579MOL0     C76306   2.169   4.668   2.780 -0.4108 -0.3975 -0.5909
  579MOL0     C76307   2.052   4.768   2.761 -0.5892 -0.7005 -0.7875
  579MOL0     C76308   1.924   4.702   2.725  0.2275 -0.8218 -0.2152
  579MOL0     C76309   1.798   4.787   2.746  0.3251  0.1849  0.2354
  579MOL0     C76310   1.771   4.840   2.887  0.5443 -0.1509 -0.4658
  579MOL0     C76311   1.629   4.909   2.887  0.7244  0.0746  0.0754
  579MOL0     C76312   1.517   4.808   2.904 -0.3061  0.7069  0.2155
  579MOL0     N76313   1.384   4.872   2.939 -0.2901  0.0914 -0.1442
  579MOL0     C76314   1.293   4.910   2.846  1.0611 -0.4596 -0.2637
  579MOL0     C76315   1.181   4.930   2.927 -0.2154  0.1529 -0.1024
  579MOL0     C76316   1.042   4.965   2.878  1.2552  1.1238 -0.3225
  579MOL0     C76317   0.937   4.958   2.988 -0.8301 -0.2535 -0.1368
  579MOL0     C76318   0.804   5.013   2.946 -0.1537  0.2770  0.6540
  579MOL0     C76319   0.709   5.032   3.065 -0.7465  0.3768  0.1052
  579MOL0     O76320   0.677   4.903   3.126  0.3407 -0.9628 -0.0189
  579MOL0     C76321   0.547   4.860   3.100 -0.4442  0.5747  0.3260
  579MOL0     C76322   0.489   4.855   2.972 -0.8125  0.4759 -0.3515
  579MOL0     C76323   0.364   4.805   2.954  0.1639  0.3184 -0.0501
  579MOL0     C76324   0.286   4.761   3.062 -0.5432  1.0704  0.1340
  579MOL0     C76325   0.163   4.693   3.055  0.0061 -0.2660  0.0656
  579MOL0     O76326   0.155   4.613   2.947 -0.1201 -0.2273  1.0786
  579MOL0     C76327   0.042   4.538   2.923 -0.0730 -0.6695 -0.0149
  579MOL0     C76328  -0.083   4.576   2.952  0.5444  0.2839  0.1561
  579MOL0     C76329  -0.202   4.508   2.925 -0.5201 -0.1540 -0.3432
  579MOL0     C76330  -0.196   4.388   2.859 -0.0800 -0.0860  0.2131
  579MOL0     O76331  -0.323   4.335   2.829 -0.6929 -0.4196  0.0619
  579MOL0     C76332  -0.333   4.194   2.799  0.6255  0.1609  0.7548
  579MOL0     C76333  -0.475   4.139   2.787 -0.3372  0.8991  0.3711
  579MOL0     C76334  -0.579   4.245   2.747 -0.5717 -0.1788 -1.9018
  579MOL0     C76335  -0.572   4.280   2.601 -0.4788 -0.3815 -0.3430
  579MOL0     C76336  -0.676   4.384   2.557  0.8135  0.5403 -0.1764
  579MOL0     C76337  -0.643   4.432   2.414 -0.5531 -0.0785 -0.2495
  579MOL0     C76338  -0.740   4.526   2.347 -0.1022 -1.0580 -0.0350
  579MOL0     C76339  -0.700   4.586   2.220  0.6574 -0.7191 -0.3988
  579MOL0    Cl76340  -0.531   4.664   2.224  0.3519  0.1263  0.1994
  579MOL0     C76341  -0.068   4.345   2.808  0.1894  0.5127  0.0204
  579MOL0     C76342   0.044   4.419   2.840  0.4561 -0.4366  0.1643
  579MOL0     O76343   0.076   4.711   3.141  0.6635 -0.4472  1.1255
  579MOL0     C76344   0.340   4.778   3.188 -0.6009  0.0987  0.8642
  579MOL0     C76345   0.471   4.827   3.210 -0.1262 -0.8786  0.1236
  579MOL0     N76346   1.217   4.909   3.058 -0.1048  0.2331 -0.0487
  579MOL0     N76347   1.336   4.872   3.060  0.7416  0.6914 -1.0111
  579MOL0     C76348   2.474   4.931   2.554 -0.4210  0.2750  0.0286
  579MOL0     C76349   2.579   5.012   2.528  0.2317 -0.5187 -0.4255
  579MOL0     C76350   2.849   5.375   2.556  0.0582  0.0842 -0.8106
  579MOL0     C76351   2.967   5.333   2.493  0.4367  0.0824 -0.4307
  579MOL0     C76352   3.083   5.413   2.477  0.7661 -0.6644  0.3399
  579MOL0     C76353   3.074   5.540   2.533 -0.5998 -0.5825  0.8771
  579MOL0     O76354   3.174   5.634   2.552 -0.9881 -0.9726  0.7501
  579MOL0     C76355   3.311   5.612   2.505  1.1323  0.5299 -0.0911
  579MOL0     C76356   3.397   5.735   2.488  0.3284 -0.5163 -0.2919
  579MOL0     C76357   3.521   5.714   2.410 -0.2555 -0.6658 -0.4131
  579MOL0     C76358   3.619   5.826   2.450 -0.1682  0.0705 -0.1277
  579MOL0     C76359   3.745   5.804   2.379  0.8522 -0.2537 -0.0983
  579MOL0     C76360   3.847   5.774   2.318 -0.7256 -0.3109  0.3502
  579MOL0     C76361   2.958   5.591   2.583 -0.2352  0.7974  0.0029
  579MOL0     C76362   2.848   5.509   2.606 -0.6660 -1.1336  1.0567
  579MOL0     H76363   2.650   5.093   2.852  0.6977 -0.2973 -0.5059
  579MOL0     H76364   2.465   4.955   2.891  0.8190  1.2224 -0.0295
  579MOL0     H76365   2.290   4.823   2.891 -1.5372  0.1049  0.0538
  579MOL0     H76366   2.377   4.687   2.808  0.3589 -0.6101 -2.0914
  579MOL0     H76367   2.156   4.587   2.852 -1.3562  1.3621  1.3198
  579MOL0     H76368   2.188   4.616   2.686 -0.2642 -2.8053  0.7005
  579MOL0     H76369   2.073   4.837   2.679  3.1230  0.2345  0.7456
  579MOL0     H76370   2.054   4.822   2.856 -0.9274 -0.3549 -0.9725
  579MOL0     H76371   1.941   4.675   2.620  0.0067  0.9209 -0.7239
  579MOL0     H76372   1.915   4.605   2.775 -2.0382 -0.0141  1.0864
  579MOL0     H76373   1.718   4.718   2.718  1.4599 -1.1346  0.1525
  579MOL0     H76374   1.797   4.871   2.677 -3.1058  0.1396  0.0385
  579MOL0     H76375   1.842   4.918   2.914  0.2181  0.6656 -1.8833
  579MOL0     H76376   1.781   4.760   2.961 -0.3330 -1.1181 -1.3570
  579MOL0     H76377   1.638   4.976   2.973 -1.1891  1.3205 -0.6284
  579MOL0     H76378   1.616   4.967   2.796  0.7734 -1.1141 -0.7058
  579MOL0     H76379   1.547   4.741   2.985 -0.5652 -0.1097 -0.3409
  579MOL0     H76380   1.510   4.753   2.809  2.2550  2.3467 -1.0594
  579MOL0     H76381   1.306   4.912   2.738  0.3913 -1.6960 -0.3797
  579MOL0     H76382   1.014   4.891   2.802  3.4526 -1.9391  1.6152
  579MOL0     H76383   1.037   5.064   2.833  0.1149  0.6579 -1.3074
  579MOL0     H76384   0.967   5.023   3.071 -1.3134  1.8732 -1.5694
  579MOL0     H76385   0.923   4.855   3.023  0.7654  0.2221  2.1439
  579MOL0     H76386   0.825   5.113   2.908  4.9425 -0.8826 -0.3541
  579MOL0     H76387   0.767   4.937   2.877  2.2175 -1.1175  0.8069
  579MOL0     H76388   0.615   5.068   3.023  0.4850 -0.0017 -3.3064
  579MOL0     H76389   0.755   5.088   3.146 -0.3033 -2.0212  1.6244
  579MOL0     H76390   0.561   4.880   2.895  0.2691  1.5644  0.9587
  579MOL0     H76391   0.317   4.809   2.856  2.0555  2.7044 -0.9474
  579MOL0     H76392  -0.104   4.674   2.994 -1.0472  0.5893 -1.2312
  579MOL0     H76393  -0.288   4.560   2.968 -0.2949 -2.1942  2.9016
  579MOL0     H76394  -0.277   4.139   2.875 -0.2270  1.8615  2.7252
  579MOL0     H76395  -0.282   4.182   2.703 -0.8641  0.6815 -0.1396
  579MOL0     H76396  -0.501   4.095   2.884  1.1712 -0.3893  0.2332
  579MOL0     H76397  -0.482   4.058   2.714  0.8677  2.2478 -1.3332
  579MOL0     H76398  -0.570   4.331   2.815  0.2299 -2.4956  1.1415
  579MOL0     H76399  -0.678   4.207   2.769 -0.8929  0.5906 -1.9762
  579MOL0     H76400  -0.472   4.316   2.575  1.8468 -3.8854  2.7244
  579MOL0     H76401  -0.570   4.191   2.538 -1.0546 -0.3253 -0.4505
  579MOL0     H76402  -0.668   4.472   2.621 -3.6661  1.3227 -0.3963
  579MOL0     H76403  -0.777   4.343   2.549  0.2824  2.0487 -1.7981
  579MOL0     H76404  -0.615   4.350   2.347  1.5482  0.2922  0.1079
  579MOL0     H76405  -0.552   4.489   2.434 -1.0852  1.3920 -1.7299
  579MOL0     H76406  -0.840   4.486   2.331 -0.3373 -0.9319  1.0634
  579MOL0     H76407  -0.752   4.619   2.404 -2.1085 -1.6905  0.6663
  579MOL0     H76408  -0.766   4.669   2.192  2.6386 -0.0109 -3.5107
  579MOL0     H76409  -0.713   4.518   2.135 -3.3323 -1.8634  0.9174
  579MOL0     H76410  -0.067   4.248   2.760 -0.0716  0.7063 -0.3894
  579MOL0     H76411   0.145   4.391   2.811  0.0740 -0.8709 -0.8109
  579MOL0     H76412   0.286   4.756   3.280 -1.2321 -1.0181  0.2522
  579MOL0     H76413   0.512   4.845   3.309 -3.1542  0.3045  1.2786
  579MOL0     H76414   2.425   4.892   2.465  1.3959 -1.2799 -0.3489
  579MOL0     H76415   2.599   5.038   2.425  0.3310  2.5185  0.2638
  579MOL0     H76416   2.965   5.236   2.445 -2.1078  1.7153 -4.0859
  579MOL0     H76417   3.171   5.369   2.432 -0.4788 -1.0804 -1.8524
  579MOL0     H76418   3.312   5.564   2.407  0.4989 -2.6087  1.3299
  579MOL0     H76419   3.369   5.561   2.582  3.6754  2.7267 -0.3997
  579MOL0     H76420   3.331   5.806   2.438  1.4890  1.0628  0.3399
  579MOL0     H76421   3.408   5.783   2.585 -0.6194  0.2184 -0.5358
  579MOL0     H76422   3.504   5.709   2.302  1.7677  0.6716 -0.8536
  579MOL0     H76423   3.561   5.617   2.439 -0.1876 -0.5014  0.0451
  579MOL0     H76424   3.571   5.919   2.420  1.4603  0.8113 -0.5863
  579MOL0     H76425   3.635   5.839   2.558 -0.5849  1.6000 -0.2290
  579MOL0     H76426   3.944   5.741   2.287 -0.5359 -0.0148  0.6243
  579MOL0     H76427   2.960   5.693   2.621 -0.5958 -0.5435  4.0534
  579MOL0     H76428   2.757   5.551   2.646 -1.0045  2.0780 -2.5109
  580MOL0     O76429   1.057   6.063  10.599  0.3976  0.5101  0.5366
  580MOL0     C76430   1.140   6.150  10.572 -0.3110  0.1497 -0.9510
  580MOL0     O76431   1.117   6.286  10.555 -0.4426 -0.5069 -0.1310
  580MOL0     C76432   0.999   6.329  10.608 -0.3787  0.1536 -0.3645
  580MOL0     C76433   0.984   6.363  10.742  0.2488 -0.1023  0.0994
  580MOL0     C76434   0.853   6.399  10.780  0.0656  0.2396 -0.2514
  580MOL0     C76435   0.742   6.399  10.700  0.6472  0.1372 -1.0106
  580MOL0     O76436   0.613   6.439  10.743  0.2854 -0.4743  0.5252
  580MOL0     C76437   0.612   6.521  10.861  0.7777  0.0825  1.2010
  580MOL0     C76438   0.479   6.596  10.888 -0.5867  0.0915  1.1867
  580MOL0     C76439   0.359   6.494  10.892  0.4750  0.8740 -0.8666
  580MOL0     C76440   0.251   6.562  10.975  0.8098  0.0599  0.1745
  580MOL0     C76441   0.111   6.561  10.900  0.1090  0.4061 -0.9197
  580MOL0     C76442   0.118   6.646  10.777 -0.5966  0.6582 -0.5165
  580MOL0     C76443  -0.019   6.659  10.730  0.4232  0.4786 -0.7086
  580MOL0     C76444  -0.033   6.741  10.595 -0.0415  0.4302  0.8501
  580MOL0     N76445  -0.161   6.733  10.530  1.3210  0.3022  0.5900
  580MOL0     C76446  -0.280   6.800  10.565  0.1195 -0.2342 -0.2856
  580MOL0     C76447  -0.376   6.740  10.491  0.4664  0.0135 -0.4348
  580MOL0     C76448  -0.527   6.769  10.506 -0.1556  0.3180 -0.1537
  580MOL0     C76449  -0.618   6.749  10.380 -0.2356  0.0566  0.1340
  580MOL0     C76450  -0.567   6.820  10.252 -0.1968  0.0829  0.3732
  580MOL0     C76451  -0.676   6.815  10.141 -0.5465 -0.4185 -0.8218
  580MOL0     O76452  -0.756   6.921  10.190 -0.1967  0.1324 -0.3342
  580MOL0     C76453  -0.869   6.926  10.116  0.4225  0.6412 -0.4612
  580MOL0     C76454  -0.892   7.019  10.019  0.4532 -0.1031 -0.7385
  580MOL0     C76455  -1.030   7.031   9.981 -0.2393 -1.0856  0.6524
  580MOL0     C76456  -1.143   6.966  10.026 -0.7147  0.6955  1.0300
  580MOL0     C76457  -1.275   6.986   9.959 -1.1226  0.0914  0.0080
  580MOL0     O76458  -1.367   6.927  10.030 -0.2748 -0.3890 -0.6298
  580MOL0     C76459  -1.502   6.939   9.992 -0.3610 -0.4914 -0.2331
  580MOL0     C76460  -1.561   7.067   9.995 -0.2951 -0.4182 -0.4594
  580MOL0     C76461  -1.697   7.073   9.959 -0.4203  0.1954  0.2218
  580MOL0     C76462  -1.773   6.962   9.929  0.1542  0.0262 -0.1221
  580MOL0     O76463  -1.910   6.981   9.919  0.1443  1.1131  0.2519
  580MOL0     C76464  -2.003   6.914  10.003 -0.2299  0.0921 -0.4436
  580MOL0     C76465  -2.027   6.759   9.995 -0.4509 -0.5242 -0.3380
  580MOL0     C76466  -2.132   6.703  10.098 -0.8986  0.5599  0.3473
  580MOL0     C76467  -2.277   6.728  10.054  0.1989 -0.0818  0.4625
  580MOL0     C76468  -2.392   6.633  10.109 -0.2375  0.5978 -0.0394
  580MOL0     C76469  -2.366   6.586  10.245 -0.0912 -0.3897  0.6501
  580MOL0     C76470  -2.403   6.704  10.347 -0.7954 -0.0255  0.5917
  580MOL0     C76471  -2.408   6.641  10.486  0.1055  0.1346  0.3047
  580MOL0    Cl76472  -2.577   6.609  10.540  0.1907 -0.3708  0.0480
  580MOL0     C76473  -1.711   6.839   9.917  0.2179 -0.1930 -0.0446
  580MOL0     C76474  -1.575   6.826   9.947  0.0162 -0.0119  0.7486
  580MOL0     O76475  -1.287   7.064   9.865  0.6966  0.3079  0.4292
  580MOL0     C76476  -1.112   6.886  10.132  0.1999  0.2483 -0.0744
  580MOL0     C76477  -0.981   6.875  10.183  0.4738  0.4653 -0.5576
  580MOL0     N76478  -0.315   6.638  10.416 -0.5429  0.2062  0.7505
  580MOL0     N76479  -0.187   6.638  10.441  0.0221  0.2955  0.0691
  580MOL0     C76480   0.764   6.367  10.564  0.9177  0.1218 -0.2265
  580MOL0     C76481   0.895   6.331  10.519 -0.1913 -0.5271  0.3935
  580MOL0     C76482   1.279   6.098  10.552  0.0789 -0.0296  0.5271
  580MOL0     C76483   1.309   5.978  10.615 -0.1707  0.4061  0.7736
  580MOL0     C76484   1.443   5.938  10.618  0.0078  0.2512  0.0313
  580MOL0     C76485   1.549   6.018  10.574  0.2573  0.1995 -0.6182
  580MOL0     O76486   1.680   5.972  10.592 -0.1321  0.2814 -0.1599
  580MOL0     C76487   1.787   6.021  10.497  0.3287  0.0033 -1.0924
  580MOL0     C76488   1.897   6.102  10.574  0.0998  0.8756  0.2776
  580MOL0     C76489   1.999   6.000  10.637 -0.5331  0.7076  0.4140
  580MOL0     C76490   2.128   6.068  10.670 -0.7738 -0.4203  0.4126
  580MOL0     C76491   2.239   5.973  10.663 -0.0502 -0.0184  0.8106
  580MOL0     C76492   2.339   5.910  10.634 -0.3638  0.1225 -0.2417
  580MOL0     C76493   1.513   6.138  10.513  0.2351 -0.5976  0.1437
  580MOL0     C76494   1.380   6.175  10.498  0.1589 -0.2854  0.2506
  580MOL0     H76495   1.064   6.351  10.814 -1.3486  1.6465  2.3169
  580MOL0     H76496   0.833   6.421  10.885  2.2780  0.5862  0.1475
  580MOL0     H76497   0.680   6.607  10.856 -1.1359  1.6053 -1.0958
  580MOL0     H76498   0.636   6.457  10.946 -0.9886 -4.8971 -1.6543
  580MOL0     H76499   0.474   6.671  10.808  2.4293  0.9551  1.6805
  580MOL0     H76500   0.486   6.648  10.984 -2.8667  1.2852  0.7682
  580MOL0     H76501   0.398   6.404  10.939  1.2573  2.7549  2.3908
  580MOL0     H76502   0.319   6.466  10.794 -0.3838 -1.0784 -0.0102
  580MOL0     H76503   0.243   6.511  11.071  1.3166  0.9955  0.7253
  580MOL0     H76504   0.272   6.665  11.005 -0.0631 -0.0096  1.0694
  580MOL0     H76505   0.032   6.596  10.967 -0.9393  0.8191 -2.3364
  580MOL0     H76506   0.081   6.459  10.875  1.2010 -0.4777  1.0928
  580MOL0     H76507   0.186   6.598  10.706 -0.5529 -1.2973  0.7719
  580MOL0     H76508   0.165   6.742  10.799 -2.4278  1.4661  0.0949
  580MOL0     H76509  -0.083   6.571  10.729 -1.1595  1.5656  0.0240
  580MOL0     H76510  -0.070   6.727  10.799 -0.9127 -2.2734  1.2072
  580MOL0     H76511   0.041   6.705  10.523  0.7352 -0.8480  2.2215
  580MOL0     H76512  -0.006   6.844  10.622 -0.1885  0.7863 -0.3163
  580MOL0     H76513  -0.302   6.884  10.631  0.5661  0.5923 -1.1606
  580MOL0     H76514  -0.543   6.871  10.543 -0.0262 -0.1097  1.1418
  580MOL0     H76515  -0.576   6.714  10.586 -1.3605  3.3932  1.3710
  580MOL0     H76516  -0.720   6.786  10.396  0.4501  2.4654 -0.6286
  580MOL0     H76517  -0.626   6.641  10.364 -2.2444  0.2978 -0.8596
  580MOL0     H76518  -0.547   6.921  10.287 -0.2287  0.5087 -0.8134
  580MOL0     H76519  -0.481   6.766  10.211  0.1270 -0.1834  1.3787
  580MOL0     H76520  -0.725   6.718  10.127 -0.2244 -1.2060  2.6442
  580MOL0     H76521  -0.632   6.846  10.046 -1.4300  0.5905 -0.9177
  580MOL0     H76522  -0.810   7.079   9.981  1.5077 -1.4730 -0.7111
  580MOL0     H76523  -1.055   7.095   9.898 -1.4906 -0.0702  1.7668
  580MOL0     H76524  -1.502   7.150  10.032  1.1870 -2.5668  2.3756
  580MOL0     H76525  -1.751   7.167   9.959  1.9431  1.6146 -0.0440
  580MOL0     H76526  -2.101   6.960   9.986 -0.6256 -1.0618 -1.3618
  580MOL0     H76527  -1.964   6.938  10.103  2.2926 -3.0870 -0.4832
  580MOL0     H76528  -1.927   6.718  10.015  0.0148  0.3393 -0.8497
  580MOL0     H76529  -2.056   6.734   9.893  4.6753  1.3248 -2.6054
  580MOL0     H76530  -2.113   6.734  10.201  1.6053 -2.1665  0.8650
  580MOL0     H76531  -2.119   6.594  10.102 -2.4368  0.3029 -0.6886
  580MOL0     H76532  -2.305   6.831  10.078  1.9132  0.3266  0.8008
  580MOL0     H76533  -2.281   6.719   9.945  0.5760 -2.8554  0.6121
  580MOL0     H76534  -2.394   6.538  10.055 -0.0993  0.2013  0.6547
  580MOL0     H76535  -2.487   6.687  10.097 -1.8140 -2.5068 -3.9773
  580MOL0     H76536  -2.264   6.551  10.261 -0.2586 -0.7157  1.0267
  580MOL0     H76537  -2.441   6.508  10.262 -2.0677  0.6544 -2.3483
  580MOL0     H76538  -2.329   6.785  10.341  2.2429 -2.7215 -1.9552
  580MOL0     H76539  -2.501   6.740  10.315 -1.6233 -1.9134  0.8794
  580MOL0     H76540  -2.365   6.703  10.565  0.0826 -0.9473  1.1821
  580MOL0     H76541  -2.341   6.555  10.491  0.7984  0.7250  1.5805
  580MOL0     H76542  -1.769   6.751   9.892  1.2154 -0.6714 -0.7568
  580MOL0     H76543  -1.528   6.729   9.934  0.0612  0.2685 -1.6024
  580MOL0     H76544  -1.188   6.821  10.174 -0.0872  0.4894 -0.2116
  580MOL0     H76545  -0.971   6.832  10.282  0.2691  3.8290  1.0489
  580MOL0     H76546   0.674   6.357  10.505 -0.6603 -0.8710  2.1963
  580MOL0     H76547   0.923   6.309  10.417  2.0047 -1.5110  1.1258
  580MOL0     H76548   1.242   5.911  10.667  1.4665 -3.4257 -1.6605
  580MOL0     H76549   1.461   5.848  10.677 -2.4167 -1.8017 -2.1152
  580MOL0     H76550   1.747   6.090  10.422  2.0184 -0.2017 -2.2442
  580MOL0     H76551   1.822   5.930  10.448  0.7868  0.7300 -2.1729
  580MOL0     H76552   1.951   6.143  10.489  0.4583  0.1082  0.1276
  580MOL0     H76553   1.862   6.179  10.644 -1.7391  3.5561 -3.2726
  580MOL0     H76554   2.032   5.926  10.564  1.5598  1.1037  0.8956
  580MOL0     H76555   1.952   5.944  10.719  0.5702 -2.3807 -0.8833
  580MOL0     H76556   2.154   6.139  10.591 -2.0233 -0.2979  0.0856
  580MOL0     H76557   2.122   6.119  10.767 -1.5600 -2.9334  1.7691
  580MOL0     H76558   2.424   5.851  10.606 -0.8342 -1.0834  0.7368
  580MOL0     H76559   1.580   6.215  10.476 -1.8990  0.4266 -1.8906
  580MOL0     H76560   1.351   6.273  10.459  1.1520  0.0582  0.3423
  581MOL0     O76561   9.669   4.443  10.686  0.3303  0.4682 -0.1762
  581MOL0     C76562   9.686   4.351  10.768 -0.0720  0.7946 -0.2135
  581MOL0     O76563   9.594   4.262  10.796 -0.4207  0.4169 -0.1025
  581MOL0     C76564   9.479   4.274  10.728 -0.5329  0.5334  0.1712
  581MOL0     C76565   9.456   4.188  10.618 -0.2337  0.2916  0.7941
  581MOL0     C76566   9.324   4.170  10.574  0.9516 -0.4074  0.6287
  581MOL0     C76567   9.218   4.239  10.637  0.1462 -1.0965  1.1059
  581MOL0     O76568   9.088   4.203  10.608  0.0758  0.1047  0.1557
  581MOL0     C76569   8.993   4.304  10.637  0.4923  0.0441  0.2046
  581MOL0     C76570   8.861   4.256  10.579  1.2306 -0.5338  1.3537
  581MOL0     C76571   8.761   4.387  10.579  0.2384 -0.5230  0.3603
  581MOL0     C76572   8.610   4.356  10.546  0.7062  0.1281  0.7345
  581MOL0     C76573   8.517   4.476  10.511  0.2662  0.5910 -0.5129
  581MOL0     C76574   8.373   4.430  10.511 -0.2952 -0.1006 -0.0093
  581MOL0     C76575   8.268   4.530  10.461 -0.2131  0.4696  0.6047
  581MOL0     C76576   8.251   4.649  10.553  0.0316  0.2817 -0.0813
  581MOL0     N76577   8.168   4.757  10.514 -0.1636 -0.6074  0.0462
  581MOL0     C76578   8.077   4.761  10.413 -1.0935 -0.2064 -0.0552
  581MOL0     C76579   8.028   4.887  10.406  0.6065 -0.3527 -0.0628
  581MOL0     C76580   7.930   4.947  10.317 -0.2638 -0.3803 -0.1495
  581MOL0     C76581   7.797   4.877  10.334 -0.0148  0.0640 -0.4582
  581MOL0     C76582   7.696   4.892  10.221  0.1844 -0.5215 -0.8212
  581MOL0     C76583   7.569   4.832  10.246 -0.0092  0.4606 -0.4646
  581MOL0     O76584   7.494   4.836  10.119 -0.0453  0.0123 -0.6382
  581MOL0     C76585   7.362   4.816  10.114  1.4076 -0.2030 -0.4723
  581MOL0     C76586   7.291   4.879  10.009 -0.0587  0.7903 -0.7587
  581MOL0     C76587   7.152   4.861  10.004  0.5762 -0.9277 -0.2452
  581MOL0     C76588   7.079   4.797  10.100  0.3790 -1.1700 -0.1530
  581MOL0     C76589   6.935   4.783  10.090 -0.6033 -0.7642 -0.2425
  581MOL0     O76590   6.873   4.834   9.979  0.2160 -0.3799 -0.3568
  581MOL0     C76591   6.751   4.770   9.940  0.6844 -0.2623  0.0331
  581MOL0     C76592   6.629   4.826   9.918 -0.3930  0.3321  0.1519
  581MOL0     C76593   6.517   4.756   9.884  0.3868 -0.4808  0.1890
  581MOL0     C76594   6.517   4.623   9.855 -0.6821 -0.3607  0.4256
  581MOL0     O76595   6.410   4.552   9.813  0.5210 -0.4759  1.1561
  581MOL0     C76596   6.424   4.415   9.772  0.0973 -0.3631  0.2432
  581MOL0     C76597   6.290   4.351   9.742  1.1858  0.3068 -0.0693
  581MOL0     C76598   6.191   4.450   9.675 -0.5644 -0.7218  0.9558
  581MOL0     C76599   6.083   4.369   9.600  0.3660  0.5318 -0.2455
  581MOL0     C76600   6.142   4.311   9.466  1.2901 -0.1807  0.0118
  581MOL0     C76601   6.034   4.281   9.359  0.3001  0.0221  0.2375
  581MOL0     C76602   5.931   4.177   9.400  0.5263 -0.0195  0.4581
  581MOL0     C76603   5.994   4.032   9.411 -0.1360 -0.5472 -0.4808
  581MOL0    Cl76604   6.014   3.990   9.584  0.2017  0.3117 -0.6646
  581MOL0     C76605   6.646   4.565   9.863 -1.3332 -0.2980  1.0045
  581MOL0     C76606   6.758   4.640   9.906  0.0371  0.4658  0.4689
  581MOL0     O76607   6.884   4.714  10.176 -0.4572  0.0454  0.2595
  581MOL0     C76608   7.151   4.751  10.209 -0.8453 -0.5483 -0.8348
  581MOL0     C76609   7.295   4.739  10.207  0.7039  0.1380 -0.7357
  581MOL0     N76610   8.085   4.965  10.506 -0.5296 -0.1999  0.3250
  581MOL0     N76611   8.169   4.885  10.556  0.1625 -0.2289  0.5852
  581MOL0     C76612   9.246   4.334  10.740 -0.0759 -0.1494  0.1442
  581MOL0     C76613   9.378   4.352  10.786 -0.6062 -0.1425  0.0251
  581MOL0     C76614   9.823   4.331  10.819  0.5470 -0.5231  0.1729
  581MOL0     C76615   9.924   4.427  10.781 -0.4648 -0.5819 -0.1385
  581MOL0     C76616  10.055   4.409  10.825  0.2904 -0.2147  0.0434
  581MOL0     C76617  10.097   4.298  10.896 -0.0044  0.5032 -0.0667
  581MOL0     O76618  10.226   4.290  10.925 -0.9759 -0.8598  0.1973
  581MOL0     C76619  10.288   4.174  10.981  0.1988 -0.2598  0.1884
  581MOL0     C76620  10.315   4.202  11.130 -0.6016 -0.6066 -0.2615
  581MOL0     C76621  10.408   4.088  11.178 -0.0734 -0.2685  0.8941
  581MOL0     C76622  10.431   4.094  11.327 -0.3135 -1.2457 -0.2585
  581MOL0     C76623  10.537   4.197  11.362 -0.0818  0.0934 -0.1520
  581MOL0     C76624  10.610   4.284  11.410  0.2830  0.4234  1.3665
  581MOL0     C76625   9.992   4.208  10.927 -0.5548  0.6618  0.3605
  581MOL0     C76626   9.862   4.219  10.887 -0.1684 -0.8745 -0.2555
  581MOL0     H76627   9.530   4.121  10.575 -2.0736 -0.0219 -2.1567
  581MOL0     H76628   9.298   4.109  10.489 -1.8291  0.3250  0.8596
  581MOL0     H76629   9.029   4.399  10.596 -0.0915  0.6167  0.9848
  581MOL0     H76630   8.974   4.304  10.745 -1.8916  1.1409 -0.1548
  581MOL0     H76631   8.820   4.177  10.642 -0.0943  0.6227  1.9848
  581MOL0     H76632   8.860   4.217  10.477 -3.3012 -0.0929  1.0253
  581MOL0     H76633   8.799   4.457  10.504 -1.2491  0.1431  0.1893
  581MOL0     H76634   8.751   4.431  10.678  0.5754 -2.3025  1.2227
  581MOL0     H76635   8.603   4.290  10.459  4.0160 -0.0347  0.4679
  581MOL0     H76636   8.561   4.302  10.628  3.8133 -0.0158  2.6440
  581MOL0     H76637   8.557   4.501  10.413  1.0757 -0.7594 -0.5496
  581MOL0     H76638   8.541   4.537  10.599  0.3510 -0.2328  0.0466
  581MOL0     H76639   8.353   4.403  10.616  0.7443 -1.1506 -0.0700
  581MOL0     H76640   8.367   4.339  10.452  2.3207  1.0374 -2.2218
  581MOL0     H76641   8.292   4.559  10.359 -2.1620  1.0038  0.2678
  581MOL0     H76642   8.170   4.482  10.458 -1.0422  2.1690 -0.9729
  581MOL0     H76643   8.349   4.688  10.582 -0.8419  0.8404  2.4620
  581MOL0     H76644   8.207   4.604  10.643  0.8976 -1.4092 -0.4593
  581MOL0     H76645   8.048   4.676  10.351 -1.2046  0.6380 -1.1907
  581MOL0     H76646   7.976   4.925  10.219  0.3179  0.8309 -0.1711
  581MOL0     H76647   7.931   5.055  10.331  3.6927 -0.5875  3.1511
  581MOL0     H76648   7.751   4.909  10.428 -0.8769 -2.9427  0.2531
  581MOL0     H76649   7.823   4.770  10.336  0.1245  0.0669 -1.4313
  581MOL0     H76650   7.679   4.998  10.198  2.1865  0.8647  3.1026
  581MOL0     H76651   7.733   4.838  10.134  1.0252 -1.6679  0.2201
  581MOL0     H76652   7.527   4.891  10.328 -2.4735 -1.9222  0.1344
  581MOL0     H76653   7.582   4.724  10.259  1.1532  0.4371 -1.6627
  581MOL0     H76654   7.335   4.928   9.922  0.9131 -2.6137 -2.3389
  581MOL0     H76655   7.096   4.914   9.928  0.4209 -0.2890  0.3048
  581MOL0     H76656   6.624   4.935   9.925  1.2143  0.4498 -0.0373
  581MOL0     H76657   6.428   4.812   9.859 -0.5877 -1.0317  2.2039
  581MOL0     H76658   6.474   4.361   9.852 -0.3712 -0.3515  0.5468
  581MOL0     H76659   6.486   4.404   9.682 -0.4324 -0.7528 -0.0814
  581MOL0     H76660   6.240   4.326   9.836  2.3382  0.2183  0.5371
  581MOL0     H76661   6.308   4.266   9.676  1.6626  1.4262 -1.4270
  581MOL0     H76662   6.251   4.498   9.597 -1.9981  1.6641  1.1949
  581MOL0     H76663   6.147   4.527   9.739  0.6078  2.0500 -1.3214
  581MOL0     H76664   6.036   4.288   9.658 -0.3926 -1.9663 -3.9420
  581MOL0     H76665   6.010   4.449   9.586 -0.3254 -0.1065 -0.3697
  581MOL0     H76666   6.189   4.215   9.490  0.7638 -0.3302  0.4775
  581MOL0     H76667   6.225   4.374   9.434  2.5391 -1.5116  0.5332
  581MOL0     H76668   6.081   4.240   9.270  0.2663 -0.8175  0.6010
  581MOL0     H76669   5.991   4.381   9.348 -0.2611 -0.1362  0.9256
  581MOL0     H76670   5.892   4.202   9.499  2.4297 -2.3934  1.9119
  581MOL0     H76671   5.854   4.181   9.322  2.1193  2.7373 -1.1906
  581MOL0     H76672   6.097   4.034   9.374  0.5591  0.5465  1.3902
  581MOL0     H76673   5.925   3.961   9.364  0.1377 -0.4958 -0.9645
  581MOL0     H76674   6.674   4.461   9.852 -0.9584 -0.1303  0.3621
  581MOL0     H76675   6.857   4.597   9.916 -0.1327 -1.0293 -2.7810
  581MOL0     H76676   7.098   4.708  10.293  0.8129  0.9027  1.0616
  581MOL0     H76677   7.343   4.682  10.285  2.4194 -0.9013 -2.4660
  581MOL0     H76678   9.173   4.400  10.786  0.1027 -1.8959  3.2302
  581MOL0     H76679   9.396   4.432  10.857 -0.9469  0.2057 -0.2784
  581MOL0     H76680   9.893   4.519  10.732 -1.1532 -0.4011  0.6113
  581MOL0     H76681  10.125   4.489  10.808 -0.3246  1.1468  3.2163
  581MOL0     H76682  10.387   4.173  10.935 -1.0991  1.8220 -2.9946
  581MOL0     H76683  10.237   4.078  10.969 -1.0670  0.4809 -0.6317
  581MOL0     H76684  10.369   4.296  11.141 -0.2649 -0.5321 -2.1688
  581MOL0     H76685  10.224   4.193  11.190  0.5074 -2.3350  1.2611
  581MOL0     H76686  10.496   4.084  11.112 -3.0573  2.8061 -3.8891
  581MOL0     H76687  10.371   3.987  11.155  1.3370 -0.3363 -1.4449
  581MOL0     H76688  10.345   4.138  11.380  1.0321  1.8614 -0.4012
  581MOL0     H76689  10.464   3.994  11.356  0.6679 -1.5788 -2.3435
  581MOL0     H76690  10.680   4.359  11.443  1.9087 -1.9708  3.7812
  581MOL0     H76691  10.013   4.112  10.974 -0.7838  1.2526  1.7155
  581MOL0     H76692   9.792   4.136  10.899  1.0854 -2.2791 -2.0731
  582MOL0     O76693   2.653   3.600  10.793  0.2953  0.0506  0.2045
  582MOL0     C76694   2.715   3.523  10.868  0.0568 -0.7148 -0.1412
  582MOL0     O76695   2.648   3.421  10.944 -0.1792 -0.2376  0.5157
  582MOL0     C76696   2.518   3.431  10.994  0.5539  0.3201  0.3461
  582MOL0     C76697   2.413   3.438  10.897  0.8726  0.5730 -0.7309
  582MOL0     C76698   2.274   3.419  10.937  0.5107 -0.8606 -0.0847
  582MOL0     C76699   2.249   3.402  11.074 -0.0450  0.0797 -0.3917
  582MOL0     O76700   2.125   3.391  11.126 -0.0826  0.2462  0.0624
  582MOL0     C76701   2.090   3.506  11.206  0.2130 -0.7445  0.4394
  582MOL0     C76702   1.954   3.558  11.167  0.5037 -0.2943 -0.0505
  582MOL0     C76703   1.903   3.657  11.271  0.5722 -0.2917 -0.9027
  582MOL0     C76704   1.764   3.707  11.243  1.3908 -0.8771  0.4091
  582MOL0     C76705   1.654   3.614  11.300  0.1112  0.5418  0.0064
  582MOL0     C76706   1.512   3.644  11.259  0.2609  1.1622  0.4921
  582MOL0     C76707   1.408   3.565  11.344  0.6411  0.1817 -0.1880
  582MOL0     C76708   1.267   3.588  11.292 -0.2670  0.4795 -0.5913
  582MOL0     N76709   1.200   3.692  11.365  0.5088  0.3729 -0.2572
  582MOL0     C76710   1.184   3.814  11.313  0.5918 -0.1784 -0.0018
  582MOL0     C76711   1.090   3.885  11.380 -0.8622 -0.2873 -1.1442
  582MOL0     C76712   1.029   4.013  11.344 -0.9329 -0.0312  0.1441
  582MOL0     C76713   0.876   3.986  11.319  0.8121 -0.0298 -0.9962
  582MOL0     C76714   0.811   4.123  11.252 -0.7310  0.9400  0.6543
  582MOL0     C76715   0.667   4.095  11.224  0.1841 -0.2966  0.2905
  582MOL0     O76716   0.633   3.996  11.123 -0.1186 -0.1788 -0.2410
  582MOL0     C76717   0.540   3.904  11.161  0.6788 -0.4064 -0.2063
  582MOL0     C76718   0.579   3.772  11.129 -0.4974 -1.2566  0.1974
  582MOL0     C76719   0.509   3.656  11.168 -0.7414 -0.9007  0.7618
  582MOL0     C76720   0.386   3.670  11.234 -0.0867 -0.0564 -0.1169
  582MOL0     C76721   0.313   3.548  11.295 -0.6768 -0.0134  0.1959
  582MOL0     O76722   0.181   3.560  11.337  0.3334  0.2616  0.2765
  582MOL0     C76723   0.110   3.447  11.389 -0.1647  0.0673  0.7167
  582MOL0     C76724   0.163   3.352  11.480  0.8070  0.0615  0.0711
  582MOL0     C76725   0.079   3.253  11.535  0.5108 -1.0259  0.3347
  582MOL0     C76726  -0.055   3.250  11.508 -0.0733 -0.0926 -0.3724
  582MOL0     O76727  -0.127   3.149  11.569  0.4288 -0.6032  0.3594
  582MOL0     C76728  -0.264   3.123  11.527 -1.0343 -0.4951 -0.6550
  582MOL0     C76729  -0.315   3.000  11.608  0.7544 -0.2874 -0.9224
  582MOL0     C76730  -0.462   2.956  11.576 -0.3926  1.0124  0.6419
  582MOL0     C76731  -0.572   3.055  11.625  0.0618 -0.4799  0.5906
  582MOL0     C76732  -0.709   2.989  11.634  0.4389  0.3657 -0.8370
  582MOL0     C76733  -0.808   3.079  11.710 -0.9978 -0.5554 -0.7920
  582MOL0     C76734  -0.955   3.024  11.730  0.5726  0.0420 -0.3615
  582MOL0     C76735  -1.013   2.949  11.616 -0.2905 -0.4568  1.0694
  582MOL0    Cl76736  -1.006   3.068  11.482 -0.2678  0.2211 -0.3199
  582MOL0     C76737  -0.109   3.336  11.412 -0.9012  0.2994  0.6688
  582MOL0     C76738  -0.027   3.424  11.349  0.1979  0.2617  0.0338
  582MOL0     O76739   0.380   3.445  11.299 -0.2254  0.9200 -0.1835
  582MOL0     C76740   0.331   3.796  11.250  0.0012 -0.2790  0.2629
  582MOL0     C76741   0.409   3.913  11.217 -0.7308  0.4633  0.0881
  582MOL0     N76742   1.042   3.801  11.481 -0.6059 -0.5226  0.3693
  582MOL0     N76743   1.115   3.688  11.469  0.2900  0.1646 -0.3679
  582MOL0     C76744   2.358   3.386  11.162  0.0704 -0.0445 -0.3735
  582MOL0     C76745   2.485   3.400  11.129 -0.4302  0.1021 -0.5146
  582MOL0     C76746   2.865   3.522  10.855 -0.4042  0.0909  0.7298
  582MOL0     C76747   2.939   3.428  10.924 -0.1379  0.0971 -0.2562
  582MOL0     C76748   3.083   3.421  10.909 -0.3073 -0.1024  0.1774
  582MOL0     C76749   3.156   3.504  10.840  0.6899  0.0639  0.1379
  582MOL0     O76750   3.288   3.498  10.820 -0.7257  0.3543 -0.2941
  582MOL0     C76751   3.374   3.415  10.904 -0.4014  0.7161 -0.0024
  582MOL0     C76752   3.365   3.268  10.850 -0.5505  0.1731 -0.5506
  582MOL0     C76753   3.480   3.179  10.899  0.0930 -0.2795  0.5679
  582MOL0     C76754   3.466   3.031  10.846 -0.0578  0.2487 -0.3331
  582MOL0     C76755   3.466   3.027  10.706  0.7285 -0.0706 -0.0705
  582MOL0     C76756   3.441   3.026  10.589  0.1669 -0.4412 -0.7375
  582MOL0     C76757   3.085   3.607  10.772  0.3935  0.5986  0.1373
  582MOL0     C76758   2.940   3.609  10.779  0.1259 -0.6091  0.3478
  582MOL0     H76759   2.435   3.448  10.792  0.2914 -3.6731 -1.4279
  582MOL0     H76760   2.195   3.421  10.861 -0.9771  0.8999  1.4116
  582MOL0     H76761   2.162   3.587  11.190  0.9693 -1.1902  1.4381
  582MOL0     H76762   2.091   3.491  11.314 -1.1389 -1.5956  0.3494
  582MOL0     H76763   1.883   3.477  11.148 -2.3198  1.8659  0.5454
  582MOL0     H76764   1.962   3.608  11.069 -1.6814 -0.6091 -0.4429
  582MOL0     H76765   1.969   3.744  11.274  0.8443 -0.5211  0.2534
  582MOL0     H76766   1.912   3.605  11.367 -2.2882  2.0743  0.8078
  582MOL0     H76767   1.744   3.805  11.286  0.0241 -1.5881  1.4621
  582MOL0     H76768   1.751   3.717  11.135  1.1895 -0.8593  0.4356
  582MOL0     H76769   1.660   3.620  11.409 -2.5316 -1.6642  0.3945
  582MOL0     H76770   1.684   3.510  11.281 -1.0823  0.1673  0.0528
  582MOL0     H76771   1.504   3.631  11.151  1.1559  0.7996  0.4675
  582MOL0     H76772   1.496   3.749  11.285  0.0968  0.7808  2.0207
  582MOL0     H76773   1.431   3.458  11.340 -0.7183 -0.1390  0.1816
  582MOL0     H76774   1.409   3.591  11.450 -0.2138 -0.3341 -0.0389
  582MOL0     H76775   1.210   3.499  11.321  0.1935  0.9143  1.8577
  582MOL0     H76776   1.254   3.618  11.187 -0.0461 -0.6864 -0.9685
  582MOL0     H76777   1.250   3.831  11.228  0.0122 -1.7578 -0.8237
  582MOL0     H76778   1.068   4.050  11.248 -0.9295  0.5819  0.3774
  582MOL0     H76779   1.054   4.091  11.417  2.5357  0.0834 -0.9454
  582MOL0     H76780   0.827   3.965  11.415 -2.6012  0.0784 -2.5592
  582MOL0     H76781   0.858   3.899  11.256  0.5983 -1.2615  0.7061
  582MOL0     H76782   0.821   4.207  11.320  1.8959  2.1752 -1.0980
  582MOL0     H76783   0.863   4.158  11.162 -3.0317  4.0579  0.4068
  582MOL0     H76784   0.603   4.182  11.205 -1.0506 -1.1828  0.3006
  582MOL0     H76785   0.628   4.063  11.321  1.0688 -0.3876  0.6264
  582MOL0     H76786   0.673   3.768  11.074 -2.4254 -4.2842 -3.3212
  582MOL0     H76787   0.545   3.558  11.138  0.6852 -0.1349 -0.1550
  582MOL0     H76788   0.267   3.355  11.511  0.0759 -0.6170  2.8588
  582MOL0     H76789   0.125   3.180  11.601 -0.8772 -3.3286 -1.1144
  582MOL0     H76790  -0.259   3.109  11.419  0.9372  1.8416 -0.9469
  582MOL0     H76791  -0.322   3.215  11.526  0.2522  0.3377 -1.5117
  582MOL0     H76792  -0.311   3.010  11.716  1.0947  2.4717 -1.1085
  582MOL0     H76793  -0.243   2.923  11.581  2.2412  0.0427  1.7842
  582MOL0     H76794  -0.470   2.860  11.629 -0.2080  0.9690  0.5951
  582MOL0     H76795  -0.458   2.931  11.470  0.0477 -0.6151  1.0040
  582MOL0     H76796  -0.560   3.094  11.727  0.3441 -1.2617  0.8614
  582MOL0     H76797  -0.581   3.139  11.555  1.3257  0.2433  1.2625
  582MOL0     H76798  -0.703   2.895  11.689  2.4707 -0.2294 -1.9569
  582MOL0     H76799  -0.740   2.969  11.530 -0.0386  0.9469 -0.8128
  582MOL0     H76800  -0.812   3.167  11.645  1.5978  0.7729  0.6771
  582MOL0     H76801  -0.773   3.098  11.812 -1.4347 -3.2317 -0.0538
  582MOL0     H76802  -0.940   2.957  11.816  2.5105  2.2295  1.1381
  582MOL0     H76803  -1.021   3.107  11.758  0.5863  0.3299 -1.1568
  582MOL0     H76804  -1.110   2.905  11.641 -0.7038  0.3836  0.9739
  582MOL0     H76805  -0.942   2.870  11.590  4.1535  4.0576 -2.3459
  582MOL0     H76806  -0.210   3.343  11.371 -0.9744 -0.4332  0.7116
  582MOL0     H76807  -0.073   3.483  11.270 -1.2743 -2.0173 -0.9228
  582MOL0     H76808   0.236   3.812  11.299 -0.9094 -3.3768 -0.2685
  582MOL0     H76809   0.372   4.008  11.253  0.1845  0.9324 -0.1630
  582MOL0     H76810   2.334   3.360  11.265  1.8674  0.4348  0.2047
  582MOL0     H76811   2.574   3.401  11.191 -1.0203  0.8498  0.3482
  582MOL0     H76812   2.892   3.364  10.998  1.5804  1.6743  2.3666
  582MOL0     H76813   3.133   3.346  10.969 -0.0436  1.0631  1.4638
  582MOL0     H76814   3.347   3.420  11.010 -0.9306  0.0777 -0.0994
  582MOL0     H76815   3.468   3.470  10.896 -1.5276  2.4274 -3.3724
  582MOL0     H76816   3.273   3.220  10.885 -0.3409  0.0199 -0.2035
  582MOL0     H76817   3.366   3.261  10.740 -0.6079 -3.0172 -0.4336
  582MOL0     H76818   3.491   3.175  11.008  0.9334 -2.6889  0.4358
  582MOL0     H76819   3.570   3.232  10.868  1.1485 -1.7387  1.0672
  582MOL0     H76820   3.547   2.971  10.889 -0.5503  1.2858  2.2420
  582MOL0     H76821   3.375   2.991  10.892 -0.2336  1.7864  0.7040
  582MOL0     H76822   3.414   3.011  10.487 -0.9395 -0.4283 -0.4566
  582MOL0     H76823   3.144   3.675  10.712  1.3225 -0.0145  0.3316
  582MOL0     H76824   2.888   3.678  10.713  0.1243 -1.3813 -0.4735
  583MOL0     O76825   0.526   3.481   9.425  0.1157  0.1681  0.4030
  583MOL0     C76826   0.577   3.571   9.483 -0.1150  0.4257  0.0964
  583MOL0     O76827   0.513   3.665   9.550  0.2431 -0.4813  0.1080
  583MOL0     C76828   0.380   3.680   9.523 -0.1085  0.0450  0.3383
  583MOL0     C76829   0.336   3.739   9.401 -0.9700 -0.6737  0.0980
  583MOL0     C76830   0.205   3.765   9.382 -0.8492  0.6476 -0.8244
  583MOL0     C76831   0.116   3.747   9.483  0.5577  0.0769 -0.2899
  583MOL0     O76832  -0.006   3.794   9.465 -0.6540 -0.2096 -0.2453
  583MOL0     C76833  -0.080   3.826   9.582  0.0849  0.3678  0.7310
  583MOL0     C76834  -0.215   3.873   9.526 -0.4925 -0.9766  0.7477
  583MOL0     C76835  -0.296   3.758   9.457  0.6453 -0.4175 -0.2592
  583MOL0     C76836  -0.405   3.802   9.356 -0.0240 -0.0665  0.7626
  583MOL0     C76837  -0.514   3.701   9.366  0.4120 -0.1829 -0.3382
  583MOL0     C76838  -0.486   3.560   9.315 -0.0134  0.6597 -0.1916
  583MOL0     C76839  -0.600   3.456   9.325 -0.5487 -0.1498  0.2866
  583MOL0     C76840  -0.735   3.511   9.263 -0.3159  1.5806 -0.7010
  583MOL0     N76841  -0.848   3.415   9.282  0.1357 -0.3780 -0.6361
  583MOL0     C76842  -0.900   3.359   9.175 -0.3097  0.4692 -0.2974
  583MOL0     C76843  -0.999   3.279   9.228 -0.7686  0.2118  0.2796
  583MOL0     C76844  -1.086   3.192   9.136 -0.1113  0.1443  0.1166
  583MOL0     C76845  -1.225   3.177   9.192  0.9473 -0.4708 -0.1401
  583MOL0     C76846  -1.293   3.311   9.169  0.6041 -0.1179  0.5618
  583MOL0     C76847  -1.444   3.306   9.213  0.4178 -0.2257  0.5433
  583MOL0     O76848  -1.515   3.427   9.178  0.6846  0.6206  0.0562
  583MOL0     C76849  -1.652   3.440   9.203  0.1851  0.0285 -0.2124
  583MOL0     C76850  -1.713   3.559   9.148 -0.4875 -0.6388 -0.2104
  583MOL0     C76851  -1.852   3.579   9.190 -0.9601  0.0329  0.5498
  583MOL0     C76852  -1.925   3.493   9.270  0.1821  0.0978 -0.0359
  583MOL0     C76853  -2.062   3.523   9.311  0.8272 -0.8340 -0.1011
  583MOL0     O76854  -2.126   3.616   9.227 -0.8440  0.1095  1.2715
  583MOL0     C76855  -2.256   3.644   9.258  0.1768 -0.3463  0.4811
  583MOL0     C76856  -2.351   3.562   9.320  0.0174  0.0795  1.1053
  583MOL0     C76857  -2.475   3.618   9.349  0.0149 -0.3343  0.6170
  583MOL0     C76858  -2.511   3.747   9.316  0.7128  0.5158 -0.8337
  583MOL0     O76859  -2.642   3.775   9.353 -0.6790 -0.5610  0.0158
  583MOL0     C76860  -2.670   3.914   9.369 -0.0170 -0.3614  1.0205
  583MOL0     C76861  -2.782   3.916   9.475  0.5074  0.0752  0.0104
  583MOL0     C76862  -2.919   3.878   9.419 -0.4146  0.9330  0.0846
  583MOL0     C76863  -3.031   3.907   9.523  0.7604  0.2607 -1.1620
  583MOL0     C76864  -3.161   3.857   9.469 -0.4985  0.0151  0.5623
  583MOL0     C76865  -3.276   3.903   9.563  0.2076  0.5992  0.2360
  583MOL0     C76866  -3.396   3.812   9.532 -0.2722 -0.2154 -0.6503
  583MOL0     C76867  -3.501   3.836   9.647 -0.4169  0.3554 -0.1413
  583MOL0    Cl76868  -3.662   3.783   9.604 -0.0802  0.4873 -0.4762
  583MOL0     C76869  -2.421   3.821   9.242  1.1796  1.0858  0.1979
  583MOL0     C76870  -2.295   3.775   9.212  0.0474  0.5490 -0.8491
  583MOL0     O76871  -2.106   3.477   9.415  0.2558 -0.2236  0.2447
  583MOL0     C76872  -1.861   3.379   9.320 -0.1312  0.8781 -0.0214
  583MOL0     C76873  -1.725   3.357   9.298 -0.4605  0.2808 -0.2939
  583MOL0     N76874  -0.996   3.291   9.370 -0.6692 -0.1999 -0.1800
  583MOL0     N76875  -0.894   3.363   9.400  0.0250  0.2942 -0.2036
  583MOL0     C76876   0.155   3.675   9.601  0.3994  0.0444 -0.5169
  583MOL0     C76877   0.288   3.644   9.615 -0.3791 -0.2636 -0.9009
  583MOL0     C76878   0.725   3.572   9.476 -0.1765 -0.7753  0.5996
  583MOL0     C76879   0.805   3.635   9.563  1.4157  0.0247  0.8449
  583MOL0     C76880   0.944   3.638   9.559  0.2838  0.3163  0.8175
  583MOL0     C76881   1.012   3.585   9.450 -0.4021 -0.4045 -0.4346
  583MOL0     O76882   1.147   3.585   9.437  0.0980  0.4922  0.2160
  583MOL0     C76883   1.232   3.607   9.550 -0.3170 -0.3149  0.9026
  583MOL0     C76884   1.378   3.561   9.524  0.6490 -0.3751  0.1911
  583MOL0     C76885   1.403   3.426   9.576  0.5581 -0.4024  0.2844
  583MOL0     C76886   1.343   3.308   9.494 -0.2995  0.4611  0.1848
  583MOL0     C76887   1.355   3.171   9.540 -0.0002  0.2820  0.8915
  583MOL0     C76888   1.367   3.063   9.585 -0.2910 -0.2112 -0.4976
  583MOL0     C76889   0.931   3.534   9.342 -0.1243 -0.7368 -1.0673
  583MOL0     C76890   0.787   3.518   9.357  0.0319 -1.1375  0.5078
  583MOL0     H76891   0.406   3.765   9.323 -1.1541 -1.6919 -0.4114
  583MOL0     H76892   0.186   3.812   9.286  1.2992 -0.6357 -1.9459
  583MOL0     H76893  -0.032   3.904   9.642  3.1847  0.3550 -1.5047
  583MOL0     H76894  -0.099   3.743   9.652 -1.4677  0.7377  0.8028
  583MOL0     H76895  -0.198   3.955   9.456 -2.3594  0.4115  1.8426
  583MOL0     H76896  -0.279   3.912   9.605 -0.2027  0.6979  0.1977
  583MOL0     H76897  -0.333   3.700   9.541  2.7050 -1.0213  0.2968
  583MOL0     H76898  -0.221   3.701   9.402  0.7161 -0.4039 -0.1770
  583MOL0     H76899  -0.444   3.902   9.378  1.1727  0.3240  1.2041
  583MOL0     H76900  -0.357   3.795   9.258 -0.3381 -0.9726  0.6624
  583MOL0     H76901  -0.597   3.742   9.309  0.4007 -0.0355 -0.2146
  583MOL0     H76902  -0.550   3.686   9.468 -0.8887 -4.3415 -1.2070
  583MOL0     H76903  -0.417   3.513   9.386 -1.4933  0.2979  1.0650
  583MOL0     H76904  -0.432   3.563   9.219 -0.0441  1.8975 -0.1843
  583MOL0     H76905  -0.573   3.358   9.285  1.4224  0.9531 -1.3219
  583MOL0     H76906  -0.625   3.430   9.428  2.0825 -0.0078  1.0555
  583MOL0     H76907  -0.719   3.528   9.156 -0.2747 -2.5030 -1.4842
  583MOL0     H76908  -0.763   3.603   9.315  0.2091  0.2599  2.0737
  583MOL0     H76909  -0.892   3.372   9.068  2.3009 -3.7531 -0.8737
  583MOL0     H76910  -1.038   3.094   9.129  0.9173  0.5592  0.9679
  583MOL0     H76911  -1.088   3.244   9.040  0.1857 -1.4146 -0.7678
  583MOL0     H76912  -1.229   3.146   9.297 -1.1467  3.6863  1.2345
  583MOL0     H76913  -1.287   3.099   9.145 -2.5243  0.8225  1.8648
  583MOL0     H76914  -1.239   3.394   9.214 -1.2579  1.5938 -0.2106
  583MOL0     H76915  -1.297   3.328   9.061  0.4015 -2.3363  0.1602
  583MOL0     H76916  -1.442   3.301   9.323  0.3725  2.9814  0.7883
  583MOL0     H76917  -1.488   3.214   9.173 -2.4613  0.0887  2.5907
  583MOL0     H76918  -1.662   3.623   9.077 -2.8451  1.4858 -0.0928
  583MOL0     H76919  -1.892   3.668   9.141 -0.3083  0.2066  0.3279
  583MOL0     H76920  -2.338   3.456   9.340  0.5598 -0.1509 -0.3047
  583MOL0     H76921  -2.549   3.559   9.402 -1.1000 -0.8027 -1.3386
  583MOL0     H76922  -2.697   3.960   9.274 -1.4732  4.3710  3.3825
  583MOL0     H76923  -2.586   3.971   9.412  0.1001  0.3699 -0.1448
  583MOL0     H76924  -2.795   4.017   9.516  3.3158 -0.9280  4.0255
  583MOL0     H76925  -2.755   3.852   9.559 -3.0828  0.0249  1.2959
  583MOL0     H76926  -2.920   3.769   9.417  2.7955  0.8208  0.5719
  583MOL0     H76927  -2.939   3.911   9.316 -0.4553  2.7499  0.6530
  583MOL0     H76928  -3.015   3.864   9.623  0.1173  0.5640 -0.9168
  583MOL0     H76929  -3.047   4.015   9.530 -0.1853  0.0945 -0.5234
  583MOL0     H76930  -3.152   3.748   9.463  2.0617  0.2313 -1.9027
  583MOL0     H76931  -3.176   3.905   9.372 -1.2879 -3.5154 -1.2216
  583MOL0     H76932  -3.304   4.007   9.544  0.3807  1.0746  2.3298
  583MOL0     H76933  -3.241   3.899   9.666 -0.2109  3.4402  0.5530
  583MOL0     H76934  -3.447   3.848   9.442 -0.0728  0.2651 -0.5700
  583MOL0     H76935  -3.366   3.706   9.528 -2.8500 -1.2986  3.2548
  583MOL0     H76936  -3.502   3.938   9.686 -2.7141  0.8269 -1.2654
  583MOL0     H76937  -3.473   3.772   9.731 -0.7489  0.5992  0.1603
  583MOL0     H76938  -2.437   3.925   9.213 -3.0366  1.0937  1.8170
  583MOL0     H76939  -2.228   3.841   9.158 -1.0556  2.4699  0.0443
  583MOL0     H76940  -1.907   3.323   9.400 -1.0210  1.7563  0.0941
  583MOL0     H76941  -1.671   3.278   9.350 -1.3364 -2.2581 -2.9560
  583MOL0     H76942   0.086   3.650   9.681 -0.5838  2.3631 -0.5535
  583MOL0     H76943   0.322   3.592   9.704 -0.7330  0.0247 -0.5947
  583MOL0     H76944   0.753   3.689   9.642  1.8507  1.6294  0.0657
  583MOL0     H76945   0.992   3.686   9.644 -0.6643 -2.3624  3.0234
  583MOL0     H76946   1.190   3.548   9.632  0.7151  0.7952  2.2709
  583MOL0     H76947   1.227   3.707   9.593 -1.3112 -0.5477  1.3573
  583MOL0     H76948   1.398   3.584   9.419 -1.4397 -1.8641 -0.6072
  583MOL0     H76949   1.442   3.623   9.588  0.1791 -1.6931  1.9879
  583MOL0     H76950   1.361   3.423   9.677 -2.6072 -1.9191 -0.9447
  583MOL0     H76951   1.512   3.430   9.586  0.5081  0.4576  0.5701
  583MOL0     H76952   1.236   3.328   9.489 -0.5015  0.6161  3.1130
  583MOL0     H76953   1.368   3.315   9.388  2.7228  0.2761  0.7758
  583MOL0     H76954   1.400   2.964   9.609 -1.3255 -0.3768  0.2973
  583MOL0     H76955   0.989   3.487   9.263  1.4215 -2.4382  0.9719
  583MOL0     H76956   0.717   3.476   9.286 -0.9362 -0.5811  1.1083
  584MOL0     O76957   2.655   2.850   7.465  0.3276  0.1912 -0.0726
  584MOL0     C76958   2.676   2.748   7.397 -0.0835  0.1387 -0.5470
  584MOL0     O76959   2.615   2.632   7.420  0.2249  0.3960  0.3915
  584MOL0     C76960   2.510   2.607   7.506 -0.3571  0.1553 -1.2387
  584MOL0     C76961   2.527   2.633   7.638  0.7843 -0.5818 -0.1282
  584MOL0     C76962   2.414   2.611   7.722 -0.5902 -0.2584 -1.2152
  584MOL0     C76963   2.289   2.563   7.683 -0.7750 -0.1169  0.3022
  584MOL0     O76964   2.178   2.540   7.768 -0.2213 -0.6087  0.3775
  584MOL0     C76965   2.175   2.633   7.880 -0.3734  0.3251  0.6073
  584MOL0     C76966   2.036   2.618   7.946 -0.0337  1.2426  0.6061
  584MOL0     C76967   1.921   2.649   7.848 -0.4148  1.0054 -0.0106
  584MOL0     C76968   1.792   2.671   7.928 -0.6909  0.1232  0.5009
  584MOL0     C76969   1.709   2.552   7.985  0.3777  0.1458 -0.7043
  584MOL0     C76970   1.572   2.608   8.035 -1.4530 -0.4675  0.4749
  584MOL0     C76971   1.501   2.505   8.114  0.7194  0.6652  0.3910
  584MOL0     C76972   1.366   2.554   8.164  0.3396  0.2886  0.6139
  584MOL0     N76973   1.292   2.453   8.241  0.6950  0.5942 -0.0071
  584MOL0     C76974   1.204   2.489   8.343 -0.1154 -0.5542  0.1084
  584MOL0     C76975   1.140   2.374   8.368  0.1425  0.5278 -0.8546
  584MOL0     C76976   1.031   2.345   8.467 -0.0421  0.3450 -0.0322
  584MOL0     C76977   0.920   2.446   8.458  1.0207 -1.1700 -0.0592
  584MOL0     C76978   0.842   2.459   8.318 -0.5811 -0.1068 -0.6968
  584MOL0     C76979   0.704   2.519   8.348  0.3954 -0.0577 -1.0391
  584MOL0     O76980   0.603   2.454   8.270  0.0203 -0.2112  0.7296
  584MOL0     C76981   0.475   2.503   8.252 -1.3489  1.1079  0.7180
  584MOL0     C76982   0.403   2.446   8.151 -0.1094 -0.1004  0.4511
  584MOL0     C76983   0.267   2.473   8.149  0.5179 -0.3950  0.5645
  584MOL0     C76984   0.203   2.560   8.241 -0.8267 -0.1310  0.8897
  584MOL0     C76985   0.055   2.577   8.244  0.6633 -0.4928 -0.1944
  584MOL0     O76986  -0.000   2.674   8.332  0.1429  0.1169 -0.0440
  584MOL0     C76987  -0.140   2.665   8.327 -0.2515 -0.7413  0.1097
  584MOL0     C76988  -0.215   2.593   8.425  0.2641 -0.0132  0.1780
  584MOL0     C76989  -0.358   2.573   8.417 -0.9349 -0.2561  0.0219
  584MOL0     C76990  -0.433   2.656   8.329 -0.2654 -0.2357 -0.1185
  584MOL0     O76991  -0.563   2.650   8.321  0.2274 -1.1393  0.0670
  584MOL0     C76992  -0.615   2.590   8.194 -0.1967 -0.9217  0.1989
  584MOL0     C76993  -0.763   2.592   8.194  0.3747  0.2480 -0.9426
  584MOL0     C76994  -0.821   2.519   8.315  0.4907  0.4785 -1.2585
  584MOL0     C76995  -0.979   2.511   8.306 -0.8472 -0.1525  0.2385
  584MOL0     C76996  -1.037   2.445   8.422  0.1538  0.1041 -1.7374
  584MOL0     C76997  -1.043   2.530   8.550 -0.6195  0.0731 -0.2591
  584MOL0     C76998  -1.127   2.659   8.540  0.0074  0.4536 -0.9305
  584MOL0     C76999  -1.271   2.642   8.497 -0.1664  0.3413 -0.0955
  584MOL0    Cl77000  -1.376   2.545   8.612 -0.3894  0.0831 -0.4877
  584MOL0     C77001  -0.357   2.743   8.249  0.6684  1.0361 -0.3611
  584MOL0     C77002  -0.217   2.745   8.239 -0.8224 -0.0731 -1.7300
  584MOL0     O77003  -0.011   2.515   8.155  0.3562 -0.0247  0.5892
  584MOL0     C77004   0.282   2.629   8.334  0.6522  0.2187  0.4175
  584MOL0     C77005   0.418   2.602   8.336  0.0428  0.2332  0.9370
  584MOL0     N77006   1.174   2.282   8.273  0.0394  1.2714 -0.1524
  584MOL0     N77007   1.271   2.327   8.205 -0.1134  0.2928  0.1010
  584MOL0     C77008   2.286   2.519   7.545 -0.5333 -0.9206  0.6331
  584MOL0     C77009   2.392   2.541   7.462 -0.2917  0.4809 -0.3556
  584MOL0     C77010   2.768   2.753   7.282  0.5578  0.0488  0.3141
  584MOL0     C77011   2.801   2.874   7.221 -0.0795 -0.9971 -0.9050
  584MOL0     C77012   2.894   2.873   7.111  0.3607  0.3946  0.0336
  584MOL0     C77013   2.948   2.749   7.064  0.1069 -0.8342  0.1267
  584MOL0     O77014   3.032   2.735   6.951  0.0972  0.1702 -0.0851
  584MOL0     C77015   3.116   2.841   6.911 -0.2651  0.5421 -0.0086
  584MOL0     C77016   3.225   2.887   7.001 -0.3463  0.1903  0.1926
  584MOL0     C77017   3.354   2.794   7.018 -0.0097 -0.1782 -0.3947
  584MOL0     C77018   3.400   2.720   6.899  0.0692  1.2052 -0.0101
  584MOL0     C77019   3.479   2.809   6.814  0.0972 -0.3897  0.5524
  584MOL0     C77020   3.518   2.897   6.743  0.5848  0.0716 -0.2930
  584MOL0     C77021   2.915   2.625   7.133  0.7109 -0.1743  1.0746
  584MOL0     C77022   2.821   2.636   7.238 -0.4866 -0.1833 -0.9636
  584MOL0     H77023   2.624   2.664   7.676  0.0731  1.8565 -0.1298
  584MOL0     H77024   2.447   2.628   7.824 -0.6844 -0.9641 -1.0645
  584MOL0     H77025   2.181   2.738   7.852  0.9624  0.1124  0.0235
  584MOL0     H77026   2.253   2.601   7.950 -0.6448 -0.5232  0.5448
  584MOL0     H77027   2.027   2.677   8.038 -1.9501  1.4926  0.3042
  584MOL0     H77028   2.034   2.512   7.973 -3.9860  0.9141 -0.3592
  584MOL0     H77029   1.918   2.573   7.769  2.8701 -0.3162  0.9614
  584MOL0     H77030   1.952   2.741   7.798 -0.5274  1.2210  0.3104
  584MOL0     H77031   1.825   2.742   8.004  4.2302  0.0856 -1.2371
  584MOL0     H77032   1.722   2.718   7.859  0.0706  1.0428  0.3442
  584MOL0     H77033   1.757   2.495   8.065 -0.0037 -3.4514 -2.8096
  584MOL0     H77034   1.682   2.480   7.907 -0.0466  0.6272 -1.0013
  584MOL0     H77035   1.518   2.645   7.947 -1.5266  2.8277  1.7902
  584MOL0     H77036   1.582   2.696   8.099 -0.1003 -0.2476 -0.0027
  584MOL0     H77037   1.488   2.422   8.043 -1.0437  1.2218  0.0322
  584MOL0     H77038   1.552   2.471   8.205 -0.1302  0.3537  0.7629
  584MOL0     H77039   1.303   2.595   8.085 -0.5070 -3.8143 -1.0712
  584MOL0     H77040   1.386   2.638   8.232 -4.1261  1.4899  0.7351
  584MOL0     H77041   1.178   2.583   8.391 -1.8114  0.5065 -2.6563
  584MOL0     H77042   1.074   2.351   8.567 -0.0014  1.4383 -0.0969
  584MOL0     H77043   1.001   2.241   8.451  0.9655  0.2036 -1.1968
  584MOL0     H77044   0.955   2.542   8.496 -0.5566  0.0239 -1.4757
  584MOL0     H77045   0.838   2.424   8.527 -0.2506  1.9009 -0.4365
  584MOL0     H77046   0.902   2.527   8.257  0.1496  2.6603  2.7448
  584MOL0     H77047   0.842   2.364   8.264  0.2545 -0.4099 -0.1874
  584MOL0     H77048   0.696   2.620   8.308 -0.4755 -0.5472 -2.1592
  584MOL0     H77049   0.676   2.525   8.454  1.3976  0.2330 -0.7818
  584MOL0     H77050   0.450   2.370   8.090  1.3794  0.6789  0.5862
  584MOL0     H77051   0.205   2.416   8.079  1.8879  1.3829 -2.3062
  584MOL0     H77052  -0.162   2.537   8.501 -0.9471  0.6812  1.5814
  584MOL0     H77053  -0.408   2.500   8.480 -1.5127 -0.9205 -1.1627
  584MOL0     H77054  -0.589   2.485   8.179 -0.8117 -1.1081  0.4315
  584MOL0     H77055  -0.583   2.644   8.104  1.7766  2.3343  2.5775
  584MOL0     H77056  -0.787   2.520   8.115  3.7333 -2.7758  0.5127
  584MOL0     H77057  -0.804   2.691   8.173 -0.7648 -0.5699 -2.8219
  584MOL0     H77058  -0.790   2.578   8.403 -1.1023  1.6411 -1.4380
  584MOL0     H77059  -0.776   2.423   8.343 -0.3094  1.2273  3.4594
  584MOL0     H77060  -1.018   2.613   8.293  2.9683  1.5477  0.6161
  584MOL0     H77061  -1.001   2.470   8.207  0.8401  0.7600 -0.5719
  584MOL0     H77062  -0.978   2.357   8.444  1.5403  1.5738  0.9327
  584MOL0     H77063  -1.135   2.405   8.394  0.5760 -1.3652 -1.2016
  584MOL0     H77064  -0.940   2.557   8.571 -1.4141  4.1835 -0.8844
  584MOL0     H77065  -1.086   2.482   8.638  2.1013  0.0720  1.1529
  584MOL0     H77066  -1.125   2.698   8.642  2.0989 -1.9014  0.0285
  584MOL0     H77067  -1.074   2.733   8.479 -0.7523 -1.5063 -4.2566
  584MOL0     H77068  -1.273   2.596   8.398 -3.4387  0.5651 -0.2666
  584MOL0     H77069  -1.306   2.746   8.494  0.4655  0.6280  1.4095
  584MOL0     H77070  -0.420   2.809   8.190 -0.7035  1.2483  1.2606
  584MOL0     H77071  -0.163   2.811   8.172  0.3236  0.9839  0.1217
  584MOL0     H77072   0.248   2.685   8.420  2.3948  1.0997  0.5609
  584MOL0     H77073   0.481   2.651   8.409 -0.1230  2.8276 -0.5300
  584MOL0     H77074   2.198   2.469   7.507  0.2756 -2.5830  0.8616
  584MOL0     H77075   2.373   2.501   7.363 -2.3686  0.3666  0.0473
  584MOL0     H77076   2.769   2.968   7.263  1.3892 -0.6979 -0.4384
  584MOL0     H77077   2.927   2.966   7.067  0.7373  0.1875 -0.1228
  584MOL0     H77078   3.052   2.927   6.887  1.4232  2.4449  1.8359
  584MOL0     H77079   3.151   2.811   6.812 -3.0234 -0.8745 -0.6323
  584MOL0     H77080   3.246   2.978   6.945 -2.8714  0.9588  0.3822
  584MOL0     H77081   3.185   2.905   7.101  0.9330 -0.8245  0.9242
  584MOL0     H77082   3.335   2.707   7.082  2.1589 -1.7188 -1.7196
  584MOL0     H77083   3.434   2.846   7.071 -0.3035  2.6688 -2.5267
  584MOL0     H77084   3.454   2.628   6.925 -0.5896  1.3417  1.9335
  584MOL0     H77085   3.309   2.686   6.847  0.0422 -0.4948  1.0862
  584MOL0     H77086   3.546   2.980   6.681  0.4969 -0.3938 -0.9728
  584MOL0     H77087   2.944   2.527   7.096  0.2314  0.6309 -1.6573
  584MOL0     H77088   2.800   2.549   7.299  0.0425  0.1638 -0.2707
  585MOL0     O77089   7.740   8.452   1.268 -0.5474  0.8114 -0.6574
  585MOL0     C77090   7.841   8.395   1.233  1.1448 -0.8787  0.2910
  585MOL0     O77091   7.843   8.292   1.142 -0.4507 -0.6280  0.5909
  585MOL0     C77092   7.729   8.264   1.071 -0.5789  0.2632 -0.1503
  585MOL0     C77093   7.678   8.335   0.959 -0.9513 -0.5709  0.0996
  585MOL0     C77094   7.577   8.294   0.881  0.3532 -1.1575 -0.2366
  585MOL0     C77095   7.506   8.178   0.909 -0.0275 -0.0160 -0.4388
  585MOL0     O77096   7.413   8.143   0.811 -0.0905 -0.0261  0.9882
  585MOL0     C77097   7.297   8.068   0.867 -0.4843 -0.9189  0.5453
  585MOL0     C77098   7.293   7.928   0.824 -0.1594 -0.4589 -0.0504
  585MOL0     C77099   7.148   7.876   0.830 -0.0965 -0.5952 -0.7782
  585MOL0     C77100   7.146   7.724   0.832 -0.3114 -0.2062  0.1914
  585MOL0     C77101   7.006   7.657   0.853  0.0334  0.0638 -0.8395
  585MOL0     C77102   6.965   7.672   1.001 -0.4982 -0.0150 -0.4739
  585MOL0     C77103   6.828   7.593   1.026 -0.5016  0.0469 -0.7842
  585MOL0     C77104   6.760   7.632   1.162 -0.2679 -0.5104  0.5559
  585MOL0     N77105   6.850   7.623   1.285 -0.0345  0.0992 -0.1029
  585MOL0     C77106   6.885   7.510   1.343 -0.9580  0.8689 -0.8613
  585MOL0     C77107   6.935   7.535   1.465  1.2653 -0.5688 -0.2165
  585MOL0     C77108   7.008   7.447   1.556 -0.4989 -0.8601  0.0528
  585MOL0     C77109   7.157   7.473   1.559 -0.1691 -0.3403  0.3207
  585MOL0     C77110   7.223   7.413   1.675  1.3683 -0.2190  0.6733
  585MOL0     C77111   7.368   7.484   1.697 -0.0033  0.3306  0.0874
  585MOL0     O77112   7.440   7.477   1.577 -0.4323 -0.5033 -0.2522
  585MOL0     C77113   7.575   7.481   1.574 -0.4435 -0.6529  0.2660
  585MOL0     C77114   7.650   7.423   1.467  0.8380  0.3324  0.9792
  585MOL0     C77115   7.786   7.440   1.455 -0.5560 -0.6585 -0.1229
  585MOL0     C77116   7.856   7.514   1.553  0.7109 -0.2355 -0.2212
  585MOL0     C77117   8.003   7.534   1.541 -0.4252 -0.0086  1.0934
  585MOL0     O77118   8.087   7.439   1.485 -0.2158 -0.4800 -0.7002
  585MOL0     C77119   8.220   7.462   1.498  0.2238  0.1274  0.0647
  585MOL0     C77120   8.298   7.350   1.525 -0.7254  0.3397 -0.2166
  585MOL0     C77121   8.434   7.359   1.538  0.0772  0.6979  0.1681
  585MOL0     C77122   8.505   7.477   1.504 -0.2707 -0.0874  1.2183
  585MOL0     O77123   8.645   7.472   1.494 -0.3908 -1.2306 -0.5275
  585MOL0     C77124   8.713   7.579   1.438  0.3888 -0.4818 -0.6485
  585MOL0     C77125   8.861   7.567   1.457 -0.4207  0.2449  0.0581
  585MOL0     C77126   8.924   7.442   1.396  0.0976  0.0596  0.4191
  585MOL0     C77127   9.076   7.471   1.377  0.4942 -0.9468 -0.3917
  585MOL0     C77128   9.147   7.354   1.309 -0.4693 -0.2675 -0.2313
  585MOL0     C77129   9.297   7.393   1.266  1.0528 -0.2699 -0.0634
  585MOL0     C77130   9.381   7.445   1.378 -0.1968  0.1686 -0.0739
  585MOL0     C77131   9.507   7.498   1.315 -0.5104 -0.6023  0.4576
  585MOL0    Cl77132   9.528   7.667   1.318  0.2435  0.2868 -0.0314
  585MOL0     C77133   8.423   7.589   1.465 -0.1429 -0.5603 -0.7229
  585MOL0     C77134   8.286   7.583   1.461 -0.3300 -0.6859  0.4534
  585MOL0     O77135   8.040   7.632   1.596  0.6219 -0.8163  0.1987
  585MOL0     C77136   7.779   7.573   1.658  0.3922 -0.0078 -0.8702
  585MOL0     C77137   7.639   7.556   1.677 -0.6886 -0.2825 -0.0745
  585MOL0     N77138   6.941   7.671   1.474 -0.7507  0.0686  0.3568
  585MOL0     N77139   6.890   7.727   1.364 -0.0002  0.5331 -0.0268
  585MOL0     C77140   7.550   8.096   1.014  0.2479  0.1022 -0.0691
  585MOL0     C77141   7.662   8.143   1.095  1.6114  1.4681  0.5007
  585MOL0     C77142   7.962   8.440   1.287 -0.1845  0.0915 -0.3277
  585MOL0     C77143   7.983   8.565   1.350 -0.1475  0.2844 -0.2254
  585MOL0     C77144   8.110   8.593   1.407  0.1411  0.1035  0.0199
  585MOL0     C77145   8.218   8.508   1.398 -1.1115  0.3083  0.2369
  585MOL0     O77146   8.329   8.548   1.463 -0.8991 -0.2636  0.2929
  585MOL0     C77147   8.446   8.462   1.485  0.9837 -0.7156  0.4969
  585MOL0     C77148   8.545   8.501   1.387 -0.3546  0.0948 -0.2347
  585MOL0     C77149   8.587   8.649   1.385 -0.5093 -1.1583  0.2986
  585MOL0     C77150   8.717   8.687   1.319 -0.8252 -0.1349  0.0314
  585MOL0     C77151   8.826   8.642   1.403 -0.1976 -1.1273 -0.7759
  585MOL0     C77152   8.934   8.600   1.449  0.6898  0.2538 -0.0731
  585MOL0     C77153   8.199   8.382   1.340  0.2782  0.1300  0.6394
  585MOL0     C77154   8.070   8.350   1.295 -0.9752 -1.0224  0.7450
  585MOL0     H77155   7.734   8.428   0.955 -1.2543 -0.2619  1.9812
  585MOL0     H77156   7.547   8.354   0.796 -2.5623 -1.1430  0.6808
  585MOL0     H77157   7.207   8.121   0.832  0.7383 -1.0710 -3.3368
  585MOL0     H77158   7.280   8.079   0.974 -2.8016 -1.3392  0.2736
  585MOL0     H77159   7.359   7.865   0.885  1.1534 -0.3433 -1.3024
  585MOL0     H77160   7.339   7.913   0.726  2.6107 -0.4321  1.1461
  585MOL0     H77161   7.089   7.916   0.747 -1.4393 -1.9949 -0.5467
  585MOL0     H77162   7.096   7.921   0.915  2.4119 -0.1281  0.6115
  585MOL0     H77163   7.185   7.693   0.735 -0.5122  4.5498 -1.6963
  585MOL0     H77164   7.217   7.690   0.908 -1.2775 -2.2113  0.2545
  585MOL0     H77165   6.999   7.553   0.821  0.8538 -0.9673  1.9662
  585MOL0     H77166   6.933   7.721   0.802  0.7176  0.4197 -1.3826
  585MOL0     H77167   6.970   7.778   1.029 -1.0750 -0.6928  2.4778
  585MOL0     H77168   7.043   7.620   1.058  0.3887 -0.7809 -2.2937
  585MOL0     H77169   6.767   7.625   0.940  1.1004  1.4818 -1.4445
  585MOL0     H77170   6.849   7.486   1.024  1.6606  0.4373 -1.0878
  585MOL0     H77171   6.673   7.568   1.176 -0.2061 -1.2895 -2.0319
  585MOL0     H77172   6.718   7.732   1.145 -1.7530 -1.3222 -0.8147
  585MOL0     H77173   6.861   7.418   1.290 -3.0775 -0.1765  1.6517
  585MOL0     H77174   7.001   7.343   1.522  1.1028 -0.3683 -2.0038
  585MOL0     H77175   6.968   7.457   1.657  2.4398  0.0986  1.2229
  585MOL0     H77176   7.172   7.581   1.556  3.2075 -0.7151  0.5194
  585MOL0     H77177   7.193   7.424   1.468 -3.2185  1.6291 -2.1887
  585MOL0     H77178   7.165   7.441   1.764  2.1754  1.6255  0.6641
  585MOL0     H77179   7.221   7.305   1.662 -1.9249 -0.5072  2.5843
  585MOL0     H77180   7.423   7.426   1.773  1.8271 -0.0975 -1.4799
  585MOL0     H77181   7.353   7.586   1.732 -0.1712  0.2418  0.2753
  585MOL0     H77182   7.583   7.370   1.400  1.8753 -1.1813  1.1015
  585MOL0     H77183   7.853   7.405   1.376  1.1407  1.5527  0.2183
  585MOL0     H77184   8.256   7.258   1.565  0.8758 -0.7517 -0.9823
  585MOL0     H77185   8.479   7.270   1.580  1.4334  0.1648 -2.2374
  585MOL0     H77186   8.685   7.676   1.479 -0.2523 -0.5682 -0.8657
  585MOL0     H77187   8.688   7.573   1.331 -0.2258  0.4935 -0.5745
  585MOL0     H77188   8.888   7.572   1.563 -1.6375  0.1556  0.3795
  585MOL0     H77189   8.908   7.649   1.402 -2.6675  1.2073 -0.5065
  585MOL0     H77190   8.883   7.422   1.297  2.2763  2.1965 -1.0598
  585MOL0     H77191   8.916   7.349   1.453 -1.5270 -2.2933 -3.2883
  585MOL0     H77192   9.075   7.561   1.315 -0.5573 -0.9646 -0.4132
  585MOL0     H77193   9.115   7.505   1.473 -4.8156  3.3945  0.6880
  585MOL0     H77194   9.089   7.316   1.224 -0.8915 -0.4369  0.1299
  585MOL0     H77195   9.150   7.273   1.383  0.6576  0.2272  0.2888
  585MOL0     H77196   9.292   7.467   1.185 -0.4246  1.9956  1.9670
  585MOL0     H77197   9.355   7.310   1.225 -0.8686 -0.6549 -2.2256
  585MOL0     H77198   9.333   7.528   1.431  1.1719 -0.1539  1.8162
  585MOL0     H77199   9.401   7.363   1.448  0.6717  1.1903  0.9257
  585MOL0     H77200   9.529   7.483   1.208  4.2439  3.4114  0.5339
  585MOL0     H77201   9.595   7.454   1.363  0.0945 -0.0316 -0.1136
  585MOL0     H77202   8.465   7.686   1.442  0.0517  0.0956  1.9935
  585MOL0     H77203   8.236   7.671   1.422 -1.0243 -0.0578  2.6261
  585MOL0     H77204   7.833   7.632   1.732  1.4891  1.7413 -2.9350
  585MOL0     H77205   7.584   7.606   1.756 -1.2590 -0.0693 -0.5943
  585MOL0     H77206   7.505   7.998   1.028 -0.4940 -0.1385 -3.3027
  585MOL0     H77207   7.685   8.072   1.174 -2.6738 -2.1868 -1.1455
  585MOL0     H77208   7.895   8.626   1.365 -0.2469 -0.1762  1.1910
  585MOL0     H77209   8.123   8.681   1.469 -3.0150  0.1695  0.7262
  585MOL0     H77210   8.419   8.357   1.471  1.3201 -0.6472 -0.8226
  585MOL0     H77211   8.476   8.482   1.588  3.4392  5.0487 -0.9078
  585MOL0     H77212   8.629   8.435   1.411 -2.3402 -2.0244  1.3682
  585MOL0     H77213   8.503   8.470   1.291 -3.5226  0.2742  0.9847
  585MOL0     H77214   8.592   8.679   1.490 -2.0009  0.1491  0.0269
  585MOL0     H77215   8.507   8.710   1.344  0.5221  0.3177  0.4065
  585MOL0     H77216   8.715   8.645   1.218  2.4345  1.5673 -0.8724
  585MOL0     H77217   8.704   8.795   1.308 -0.5853 -0.1638 -0.5748
  585MOL0     H77218   9.028   8.561   1.482 -0.3949 -1.7577  0.8227
  585MOL0     H77219   8.278   8.308   1.334 -1.4941 -1.7504 -0.4994
  585MOL0     H77220   8.084   8.249   1.258  1.9073 -0.5412  0.3069
  586MOL0     O77221   4.375   1.204   4.964 -0.0065 -0.2632  0.2755
  586MOL0     C77222   4.432   1.260   5.057 -0.0200  0.2385 -0.1712
  586MOL0     O77223   4.399   1.257   5.187  0.1024  0.2330  0.1756
  586MOL0     C77224   4.281   1.193   5.227 -0.4506  0.1801  0.5380
  586MOL0     C77225   4.160   1.270   5.231  1.2139  0.3878 -0.3491
  586MOL0     C77226   4.040   1.201   5.249  1.0191  0.3222 -0.3714
  586MOL0     C77227   4.043   1.065   5.270  0.3388  0.0109  0.0697
  586MOL0     O77228   3.921   1.010   5.308 -0.7135 -0.0549  1.2105
  586MOL0     C77229   3.878   0.906   5.216 -1.0966 -0.4957 -0.2299
  586MOL0     C77230   3.876   0.961   5.069 -0.8374 -0.1419  0.4917
  586MOL0     C77231   3.855   0.841   4.972  1.1909 -0.6910  0.4830
  586MOL0     C77232   3.720   0.775   4.965 -0.4770  0.5738 -0.2325
  586MOL0     C77233   3.616   0.848   4.888 -0.0494 -0.1162  0.0206
  586MOL0     C77234   3.503   0.754   4.850  0.1139  0.0440 -0.0921
  586MOL0     C77235   3.390   0.841   4.792  0.2468 -0.0273  0.5553
  586MOL0     C77236   3.272   0.765   4.745  0.5434 -0.2541 -0.5044
  586MOL0     N77237   3.180   0.763   4.854  0.3652  0.1489 -0.0081
  586MOL0     C77238   3.165   0.651   4.941  0.1768  0.8828  0.8105
  586MOL0     C77239   3.081   0.688   5.037  0.2855 -0.2535  0.2293
  586MOL0     C77240   3.018   0.604   5.138  0.4753  0.2660 -0.3518
  586MOL0     C77241   2.917   0.503   5.087  0.3061  0.8230 -0.0447
  586MOL0     C77242   2.847   0.433   5.201  0.2088 -0.1014 -0.6026
  586MOL0     C77243   2.689   0.428   5.186  0.1663  0.4750  0.4578
  586MOL0     O77244   2.660   0.328   5.089 -0.4139  0.3006  0.4602
  586MOL0     C77245   2.532   0.303   5.053  0.0022 -0.4339  1.0037
  586MOL0     C77246   2.415   0.376   5.091 -0.7176  0.4418 -0.0837
  586MOL0     C77247   2.297   0.356   5.027 -0.6484 -0.2701 -0.0742
  586MOL0     C77248   2.279   0.247   4.940 -0.0871 -0.7868  0.9872
  586MOL0     C77249   2.139   0.207   4.883 -0.6404 -0.4554  0.7591
  586MOL0     O77250   2.024   0.263   4.931  0.2059 -1.3248  0.1066
  586MOL0     C77251   1.902   0.222   4.878 -0.4720  0.1191 -0.3539
  586MOL0     C77252   1.842   0.280   4.767 -0.3103 -0.3964 -1.0211
  586MOL0     C77253   1.712   0.245   4.722  0.2714 -0.3778  0.3759
  586MOL0     C77254   1.638   0.148   4.795 -0.6335 -0.2389 -0.2639
  586MOL0     O77255   1.511   0.109   4.755 -0.4342 -1.0556  0.1349
  586MOL0     C77256   1.414   0.047   4.839 -0.0040 -0.0206 -0.3987
  586MOL0     C77257   1.290   0.030   4.749  0.3677  0.7408 -1.1494
  586MOL0     C77258   1.169   0.029   4.843  0.4151 -0.7129  0.2859
  586MOL0     C77259   1.044   0.012   4.755 -0.4714 -0.7061  0.6471
  586MOL0     C77260   0.910   0.054   4.812  0.5878 -0.1992  0.9409
  586MOL0     C77261   0.866  -0.029   4.935 -0.6304  0.4205  0.0984
  586MOL0     C77262   0.737   0.005   5.000 -0.2583  0.4411  0.3212
  586MOL0     C77263   0.616  -0.026   4.917  0.3277  0.2148 -0.2399
  586MOL0    Cl77264   0.473   0.080   4.953 -0.2800  0.1678  0.1923
  586MOL0     C77265   1.708   0.079   4.899  0.8235  0.2361 -0.5917
  586MOL0     C77266   1.841   0.114   4.941  0.2350 -0.6308  0.6641
  586MOL0     O77267   2.139   0.116   4.801 -0.4533  0.8733 -0.1769
  586MOL0     C77268   2.394   0.173   4.906 -0.2430 -0.1553 -0.2129
  586MOL0     C77269   2.511   0.203   4.963 -1.1795  0.1353  0.1353
  586MOL0     N77270   3.038   0.821   5.004 -1.1241  0.2146  0.0859
  586MOL0     N77271   3.100   0.859   4.899  0.4827 -0.1665  0.1860
  586MOL0     C77272   4.160   0.991   5.287  0.5507  0.5738 -0.4334
  586MOL0     C77273   4.283   1.053   5.263  0.3920 -0.0444  0.9587
  586MOL0     C77274   4.564   1.323   5.028  0.0585 -0.7714  0.6318
  586MOL0     C77275   4.678   1.315   5.102  0.4278  0.8840  0.1798
  586MOL0     C77276   4.800   1.373   5.065  0.4008  0.6595  0.3929
  586MOL0     C77277   4.803   1.445   4.947  0.0166 -0.5808 -0.5314
  586MOL0     O77278   4.914   1.511   4.910  0.0480 -0.2917 -0.4980
  586MOL0     C77279   4.950   1.532   4.773  0.4183 -0.6882 -0.7611
  586MOL0     C77280   5.084   1.596   4.753 -0.0135 -0.1417 -0.9604
  586MOL0     C77281   5.211   1.513   4.767 -0.6598  0.0452 -0.0104
  586MOL0     C77282   5.325   1.606   4.726  0.7459 -0.0253 -0.2057
  586MOL0     C77283   5.454   1.570   4.787 -0.2329 -0.0442 -0.1732
  586MOL0     C77284   5.571   1.556   4.807 -0.3961  0.8766 -0.6941
  586MOL0     C77285   4.691   1.455   4.858  0.2819  1.1980  0.1892
  586MOL0     C77286   4.573   1.394   4.904  0.0450  0.3543 -0.8993
  586MOL0     H77287   4.174   1.374   5.200  0.5462  0.0756 -1.7716
  586MOL0     H77288   3.941   1.245   5.237  0.1131 -1.4280  0.3041
  586MOL0     H77289   3.785   0.860   5.251 -0.4955 -1.5761 -0.0211
  586MOL0     H77290   3.950   0.824   5.218 -2.6147 -1.8739  1.3814
  586MOL0     H77291   3.972   1.010   5.049  0.5434 -1.5624  3.1743
  586MOL0     H77292   3.801   1.041   5.062  0.2962  0.9397  0.3022
  586MOL0     H77293   3.924   0.763   5.005  2.4502  0.4710  0.6585
  586MOL0     H77294   3.874   0.865   4.867 -1.9268 -3.0775 -0.8178
  586MOL0     H77295   3.732   0.678   4.916 -1.8441 -1.7612  3.6170
  586MOL0     H77296   3.677   0.755   5.064  1.3788  1.4846  0.8364
  586MOL0     H77297   3.650   0.897   4.796 -3.9783  2.5769 -0.2167
  586MOL0     H77298   3.583   0.933   4.949 -0.9527  0.0264 -0.6421
  586MOL0     H77299   3.480   0.689   4.935  3.5775 -4.8266 -2.3524
  586MOL0     H77300   3.537   0.696   4.764 -3.1852 -0.6228 -1.0598
  586MOL0     H77301   3.354   0.916   4.862 -1.8288  1.3708 -1.8141
  586MOL0     H77302   3.422   0.903   4.708 -1.3926  1.2870  0.8518
  586MOL0     H77303   3.308   0.665   4.723  0.4822 -0.8601  1.8694
  586MOL0     H77304   3.224   0.812   4.659  0.7303 -2.0119 -1.6036
  586MOL0     H77305   3.230   0.564   4.939 -0.4400  0.3692  1.9149
  586MOL0     H77306   2.972   0.667   5.216 -0.1301 -1.9763  1.1944
  586MOL0     H77307   3.095   0.560   5.202 -3.0996 -1.1151  3.4226
  586MOL0     H77308   2.974   0.433   5.026 -0.4823 -0.1073  0.2733
  586MOL0     H77309   2.841   0.553   5.026  2.5084  4.3556 -0.2080
  586MOL0     H77310   2.897   0.336   5.217 -0.3338  0.0803  3.2272
  586MOL0     H77311   2.861   0.484   5.297 -1.7775  2.7261 -1.7197
  586MOL0     H77312   2.647   0.524   5.152 -4.2967 -1.0447  1.0281
  586MOL0     H77313   2.635   0.420   5.281 -0.9841  0.9182 -0.1334
  586MOL0     H77314   2.436   0.456   5.162  2.0427 -0.6086  0.3942
  586MOL0     H77315   2.211   0.413   5.063 -0.9979  0.2391 -1.6276
  586MOL0     H77316   1.902   0.343   4.703 -0.0505  2.0308  1.4466
  586MOL0     H77317   1.677   0.289   4.629 -1.2492 -3.9172 -0.8949
  586MOL0     H77318   1.395   0.114   4.923 -1.4738  0.5447 -1.1389
  586MOL0     H77319   1.436  -0.048   4.888 -1.1642  0.3611  0.9099
  586MOL0     H77320   1.305  -0.057   4.685  1.1550  0.4210 -0.5409
  586MOL0     H77321   1.283   0.110   4.674 -0.9210 -1.0077 -3.0172
  586MOL0     H77322   1.155   0.127   4.890  2.4736  0.3090 -1.0448
  586MOL0     H77323   1.177  -0.058   4.909  2.0528 -0.4434  0.4993
  586MOL0     H77324   1.058   0.067   4.662  0.9204  2.3043  2.5117
  586MOL0     H77325   1.042  -0.095   4.730  2.3318 -1.4084  2.8351
  586MOL0     H77326   0.837   0.053   4.730 -0.3531  3.0477  1.5899
  586MOL0     H77327   0.914   0.161   4.836  0.0694  0.3310 -1.1277
  586MOL0     H77328   0.943  -0.015   5.011 -0.1104  0.0456 -0.3542
  586MOL0     H77329   0.864  -0.134   4.905  0.2281  0.7143 -1.0416
  586MOL0     H77330   0.728  -0.054   5.091  0.3512 -3.7401 -2.0770
  586MOL0     H77331   0.731   0.111   5.027  1.0234  0.6556 -0.1816
  586MOL0     H77332   0.596  -0.133   4.921  0.4195  0.1126 -1.7419
  586MOL0     H77333   0.625  -0.005   4.810  0.9910 -1.3903 -0.5258
  586MOL0     H77334   1.670  -0.010   4.950  0.7133  1.8622  2.3894
  586MOL0     H77335   1.898   0.071   5.023  1.0813 -0.3121  0.2534
  586MOL0     H77336   2.389   0.091   4.835 -0.3233  0.9344 -1.5004
  586MOL0     H77337   2.600   0.143   4.946 -0.0441  1.0411  2.4092
  586MOL0     H77338   4.168   0.888   5.322  0.5820 -0.2669 -2.7631
  586MOL0     H77339   4.374   0.993   5.256 -0.6598 -1.5313 -4.1760
  586MOL0     H77340   4.683   1.262   5.196  3.1509  0.5554 -0.0885
  586MOL0     H77341   4.890   1.372   5.127 -0.9772 -1.2892  2.4990
  586MOL0     H77342   4.888   1.603   4.717  1.0974  0.7433  0.2462
  586MOL0     H77343   4.944   1.432   4.727  1.0418 -1.1011  0.0361
  586MOL0     H77344   5.078   1.644   4.655  0.4706  3.0889  0.4619
  586MOL0     H77345   5.100   1.680   4.822  0.6811  0.8695 -2.2867
  586MOL0     H77346   5.203   1.436   4.690  1.6290  0.5497 -0.8205
  586MOL0     H77347   5.214   1.468   4.866 -1.3656  0.5718  0.2564
  586MOL0     H77348   5.321   1.603   4.617  4.4533  3.1764 -0.6471
  586MOL0     H77349   5.298   1.703   4.770 -0.6671 -0.6252  0.3444
  586MOL0     H77350   5.673   1.532   4.826 -0.8575  0.1468  1.0851
  586MOL0     H77351   4.682   1.503   4.761 -2.1385 -0.7241 -0.6424
  586MOL0     H77352   4.479   1.402   4.850  0.0286  0.1031 -0.9093
  587MOL0     O77353   6.846   5.250  11.174 -1.1169 -0.1604 -0.6299
  587MOL0     C77354   6.894   5.235  11.061  0.0033 -0.1648 -0.0949
  587MOL0     O77355   6.843   5.159  10.953 -0.3964  0.9600  0.0422
  587MOL0     C77356   6.730   5.079  10.969 -0.5035  0.3793 -0.9341
  587MOL0     C77357   6.628   5.106  11.063  0.3621 -0.0049  0.0906
  587MOL0     C77358   6.512   5.020  11.058  0.6614  0.4267 -0.7937
  587MOL0     C77359   6.509   4.912  10.968  0.1212 -0.1473 -0.4178
  587MOL0     O77360   6.393   4.843  10.967  0.1432  0.5832  0.4017
  587MOL0     C77361   6.397   4.706  10.922  1.1765 -0.6184 -0.8160
  587MOL0     C77362   6.274   4.638  10.966  0.2928  0.3688  0.2425
  587MOL0     C77363   6.144   4.696  10.929 -0.4949 -0.3727 -0.1151
  587MOL0     C77364   6.036   4.606  10.976  0.6041  0.4214  0.6127
  587MOL0     C77365   5.893   4.675  10.985 -0.5907 -0.6655 -0.7029
  587MOL0     C77366   5.840   4.728  10.850 -0.8641  0.8309  0.3884
  587MOL0     C77367   5.701   4.788  10.852 -0.2199  0.1065  0.7292
  587MOL0     C77368   5.600   4.673  10.822  0.3821  0.4180 -0.1226
  587MOL0     N77369   5.462   4.710  10.825 -0.7904  0.4291 -0.1675
  587MOL0     C77370   5.364   4.619  10.849 -0.0534 -1.1731 -0.4634
  587MOL0     C77371   5.243   4.675  10.806 -0.0963 -0.4410  0.3691
  587MOL0     C77372   5.099   4.631  10.856 -0.2134 -0.3005 -0.2462
  587MOL0     C77373   5.001   4.598  10.741 -0.2515 -0.1369 -0.1501
  587MOL0     C77374   4.850   4.614  10.773 -0.6312 -0.0660 -0.0827
  587MOL0     C77375   4.763   4.557  10.652 -0.1266  1.0259 -0.6349
  587MOL0     O77376   4.662   4.651  10.637  0.0935  0.2106  0.0630
  587MOL0     C77377   4.559   4.631  10.549 -0.0987  0.6423  0.8729
  587MOL0     C77378   4.533   4.518  10.465  0.5076  0.4263 -0.5372
  587MOL0     C77379   4.416   4.504  10.379  0.2142 -1.3926 -0.1258
  587MOL0     C77380   4.338   4.623  10.367 -0.2412  0.0444 -0.1323
  587MOL0     C77381   4.219   4.616  10.278  0.1633  0.6607 -0.6635
  587MOL0     O77382   4.116   4.704  10.298 -0.5778 -0.1473 -0.1816
  587MOL0     C77383   4.008   4.718  10.214 -0.6852 -0.8191 -0.1639
  587MOL0     C77384   4.010   4.672  10.075 -0.7510 -0.2860  0.3428
  587MOL0     C77385   3.897   4.694   9.999  1.0577 -0.0989  0.2637
  587MOL0     C77386   3.778   4.759  10.046 -0.1506  0.0727  1.1231
  587MOL0     O77387   3.679   4.754   9.947  0.1686 -0.4777  0.4585
  587MOL0     C77388   3.598   4.871   9.945  0.2222 -0.1868 -0.0293
  587MOL0     C77389   3.468   4.829   9.880 -0.1136 -0.7957  1.2960
  587MOL0     C77390   3.390   4.951   9.846  0.0842 -0.0032 -0.5684
  587MOL0     C77391   3.260   4.915   9.773  0.2763 -0.1079  0.3061
  587MOL0     C77392   3.161   5.033   9.775 -1.3555 -0.4847  0.2581
  587MOL0     C77393   3.056   5.043   9.670 -0.3289 -0.2952 -0.5398
  587MOL0     C77394   2.958   5.156   9.703 -1.1023  0.4006  0.3380
  587MOL0     C77395   2.815   5.102   9.741 -0.7312 -0.0681 -0.1874
  587MOL0    Cl77396   2.751   4.971   9.636 -0.3520  0.0875 -0.2544
  587MOL0     C77397   3.779   4.813  10.181 -0.3807  0.5842  0.0737
  587MOL0     C77398   3.897   4.794  10.256  0.0482  0.3586  0.6383
  587MOL0     O77399   4.218   4.527  10.192  0.7454  0.6811  0.0857
  587MOL0     C77400   4.370   4.740  10.450  0.4345 -0.2832  1.0727
  587MOL0     C77401   4.475   4.741  10.539  0.5411 -0.7141 -0.0614
  587MOL0     N77402   5.273   4.806  10.763  0.2161 -0.2985 -1.1071
  587MOL0     N77403   5.400   4.825  10.776  0.1275  0.6378  0.4056
  587MOL0     C77404   6.617   4.882  10.885  1.0898  0.2608 -0.2990
  587MOL0     C77405   6.728   4.964  10.889  0.4814 -0.0800  0.5738
  587MOL0     C77406   7.027   5.317  11.043  0.1194  0.6862 -0.3693
  587MOL0     C77407   7.089   5.305  10.915  0.2513  0.5426 -0.4315
  587MOL0     C77408   7.196   5.390  10.890  1.3076  0.6932  0.5443
  587MOL0     C77409   7.245   5.482  10.988 -0.0594  0.4339  0.0862
  587MOL0     O77410   7.357   5.558  10.946  0.7153  0.2961 -0.5146
  587MOL0     C77411   7.416   5.648  11.039  0.6935  0.0403  0.5082
  587MOL0     C77412   7.548   5.682  10.970 -0.2650  0.0306  0.2941
  587MOL0     C77413   7.646   5.750  11.069 -0.0956  0.8776  0.0727
  587MOL0     C77414   7.787   5.760  11.003  0.5651 -0.2419  1.0878
  587MOL0     C77415   7.851   5.629  10.988 -0.2901 -0.3634  0.3615
  587MOL0     C77416   7.907   5.519  10.988  0.6050  0.0764 -0.1053
  587MOL0     C77417   7.179   5.490  11.113 -0.1584  0.4505 -0.6674
  587MOL0     C77418   7.081   5.401  11.143 -0.3774 -0.2730  1.0219
  587MOL0     H77419   6.615   5.199  11.118 -1.8903 -1.3190  2.0111
  587MOL0     H77420   6.424   5.037  11.119  1.1948 -0.3546  0.2271
  587MOL0     H77421   6.488   4.657  10.956  0.5583  0.3626  2.6189
  587MOL0     H77422   6.385   4.711  10.813  0.3524 -2.2747 -0.8182
  587MOL0     H77423   6.278   4.634  11.076  3.8120  2.7325  0.3592
  587MOL0     H77424   6.280   4.531  10.945  0.7478  0.0455  1.8271
  587MOL0     H77425   6.133   4.722  10.823 -4.2784  1.1525  0.4800
  587MOL0     H77426   6.142   4.793  10.981 -2.3111  0.4416 -1.5853
  587MOL0     H77427   6.044   4.519  10.909  0.2033 -0.4078  1.6146
  587MOL0     H77428   6.056   4.560  11.073 -2.2397 -2.6864 -0.0957
  587MOL0     H77429   5.904   4.752  11.062  1.1077 -2.4018  0.8852
  587MOL0     H77430   5.824   4.604  11.032 -1.1651  0.7796  0.7722
  587MOL0     H77431   5.856   4.648  10.778 -3.0439  0.5938  0.1124
  587MOL0     H77432   5.908   4.808  10.818  0.2362 -0.8124 -1.5342
  587MOL0     H77433   5.680   4.834  10.949 -0.0380 -0.0371  0.8365
  587MOL0     H77434   5.693   4.863  10.773  2.6252 -0.5032 -0.2502
  587MOL0     H77435   5.616   4.598  10.900  0.0870 -0.0844 -0.5442
  587MOL0     H77436   5.623   4.629  10.725  4.1724 -0.5095  1.0112
  587MOL0     H77437   5.365   4.524  10.901  1.2168 -0.4039  0.9830
  587MOL0     H77438   5.056   4.716  10.910  0.0083 -1.0228  1.1092
  587MOL0     H77439   5.108   4.546  10.924 -0.7679 -0.8223 -0.8030
  587MOL0     H77440   5.017   4.492  10.718  1.9553 -0.0505  0.7899
  587MOL0     H77441   5.031   4.656  10.653  2.2965 -1.1360 -0.0263
  587MOL0     H77442   4.835   4.562  10.868  0.7803  0.8012  0.6467
  587MOL0     H77443   4.826   4.719  10.789 -1.2905 -0.4611  1.8848
  587MOL0     H77444   4.717   4.463  10.684  1.7369 -0.6627 -2.5722
  587MOL0     H77445   4.812   4.529  10.558  3.0162 -4.6765  2.1518
  587MOL0     H77446   4.597   4.434  10.491  0.9703  0.8940 -0.1564
  587MOL0     H77447   4.381   4.416  10.327 -2.2382 -0.3450 -0.4077
  587MOL0     H77448   4.099   4.636  10.024 -0.0786  0.6282  0.8358
  587MOL0     H77449   3.903   4.652   9.899 -3.0381  2.8374 -1.4951
  587MOL0     H77450   3.653   4.949   9.891  1.5558  0.6304  2.3836
  587MOL0     H77451   3.573   4.916  10.041 -0.5874 -0.5502 -0.0601
  587MOL0     H77452   3.411   4.767   9.948 -1.8955 -0.4674  0.1648
  587MOL0     H77453   3.480   4.776   9.785  1.2830 -0.2352  1.1373
  587MOL0     H77454   3.455   5.009   9.779  3.8585 -2.7999  0.3894
  587MOL0     H77455   3.374   5.014   9.934  1.0695  1.2903 -1.2686
  587MOL0     H77456   3.273   4.894   9.666  2.6032  2.6359 -0.0622
  587MOL0     H77457   3.223   4.824   9.820  0.5073  0.5869  1.9145
  587MOL0     H77458   3.227   5.120   9.774  1.1896 -2.3257 -0.4023
  587MOL0     H77459   3.115   5.030   9.875  1.9272 -0.7768  1.9076
  587MOL0     H77460   2.997   4.951   9.662  0.8018 -0.8944 -3.3511
  587MOL0     H77461   3.096   5.061   9.570  0.5930  0.9833  0.0500
  587MOL0     H77462   3.007   5.220   9.777 -2.3792  1.4435  0.3207
  587MOL0     H77463   2.944   5.220   9.616  0.3315  0.4716  0.1351
  587MOL0     H77464   2.748   5.189   9.737  1.3172  1.5322 -3.2791
  587MOL0     H77465   2.829   5.063   9.842  1.7415 -1.0064 -0.8216
  587MOL0     H77466   3.698   4.857  10.238  1.4694 -0.7207  4.0927
  587MOL0     H77467   3.906   4.832  10.357  0.3570  2.2099 -0.0587
  587MOL0     H77468   4.298   4.822  10.452 -0.3414 -0.7541 -2.0601
  587MOL0     H77469   4.501   4.832  10.591  0.1610 -0.2370 -0.6977
  587MOL0     H77470   6.615   4.799  10.816  0.1857  0.4275 -0.4921
  587MOL0     H77471   6.819   4.952  10.831  1.0778  0.9980  1.2509
  587MOL0     H77472   7.069   5.233  10.836  1.3462 -0.8656  0.5356
  587MOL0     H77473   7.233   5.388  10.788 -1.0784 -0.5595 -0.3727
  587MOL0     H77474   7.438   5.586  11.126 -0.6587  0.1220  0.9268
  587MOL0     H77475   7.343   5.728  11.055  1.1289 -0.1839  4.7280
  587MOL0     H77476   7.591   5.586  10.941 -1.3008 -0.0237 -1.1841
  587MOL0     H77477   7.546   5.745  10.881 -1.2764 -2.3923 -1.4881
  587MOL0     H77478   7.654   5.696  11.163  3.3919  2.0218  0.5782
  587MOL0     H77479   7.605   5.849  11.093  0.3494  0.5019  2.7002
  587MOL0     H77480   7.784   5.805  10.903  1.4295 -1.3608  0.5385
  587MOL0     H77481   7.856   5.820  11.063  2.3463 -0.3662 -0.7220
  587MOL0     H77482   7.949   5.421  10.977 -0.2692 -0.6520  2.2522
  587MOL0     H77483   7.219   5.553  11.192 -0.1297 -0.9730  0.4969
  587MOL0     H77484   7.045   5.414  11.244  0.8453 -0.8775  1.5601
  588MOL0     O77485  10.031   5.244   4.117 -0.4001  0.1342 -0.4981
  588MOL0     C77486  10.055   5.368   4.110 -0.1204  0.8576  0.3933
  588MOL0     O77487   9.966   5.464   4.134  0.0688 -0.1904  0.3289
  588MOL0     C77488   9.840   5.418   4.175  0.3577  0.3242  0.4496
  588MOL0     C77489   9.802   5.469   4.300  0.4797 -0.2438 -0.4481
  588MOL0     C77490   9.672   5.441   4.335 -0.5506  0.0908 -0.4905
  588MOL0     C77491   9.583   5.361   4.263 -0.3450 -0.3225 -0.9657
  588MOL0     O77492   9.457   5.341   4.307 -0.5533 -0.1060 -0.5255
  588MOL0     C77493   9.416   5.212   4.307  0.5185  0.4464  0.0051
  588MOL0     C77494   9.278   5.208   4.375 -0.3109  0.0942 -0.3983
  588MOL0     C77495   9.308   5.226   4.522  0.6890  0.2694  0.3480
  588MOL0     C77496   9.169   5.200   4.587  0.2408  0.0244  0.0970
  588MOL0     C77497   9.186   5.239   4.732 -0.3508 -0.3501  0.0595
  588MOL0     C77498   9.062   5.207   4.822 -0.3698 -0.0555  0.5186
  588MOL0     C77499   9.066   5.253   4.964  0.1109 -1.1138 -1.2518
  588MOL0     C77500   9.198   5.232   5.028  0.1153  0.6746 -0.1189
  588MOL0     N77501   9.230   5.090   5.044  0.0572  0.5136 -0.4291
  588MOL0     C77502   9.363   5.048   5.029  0.4263 -0.7996 -0.6341
  588MOL0     C77503   9.360   4.924   5.087  0.1429 -0.4129 -0.1607
  588MOL0     C77504   9.487   4.842   5.104 -0.3251  0.0297 -0.2838
  588MOL0     C77505   9.526   4.789   4.965 -0.0039  0.2600  0.9103
  588MOL0     C77506   9.632   4.683   4.995 -0.6357  0.2475  0.3463
  588MOL0     C77507   9.671   4.597   4.869  0.0647  0.0674 -0.9286
  588MOL0     O77508   9.561   4.540   4.799 -0.2047 -0.5376 -0.3498
  588MOL0     C77509   9.550   4.408   4.802  0.0836  0.9139  0.2025
  588MOL0     C77510   9.498   4.353   4.923  0.1658  0.2287  0.9169
  588MOL0     C77511   9.481   4.217   4.942  0.2439  0.2580  0.0722
  588MOL0     C77512   9.495   4.137   4.825 -0.3001  0.5019  0.4492
  588MOL0     C77513   9.454   3.997   4.829 -0.3546 -1.3580 -0.4623
  588MOL0     O77514   9.464   3.928   4.944 -0.5544 -0.0146 -0.4032
  588MOL0     C77515   9.404   3.810   4.957 -0.1414 -0.8619  0.3357
  588MOL0     C77516   9.266   3.805   4.924 -0.8934 -0.8183 -0.4010
  588MOL0     C77517   9.208   3.682   4.914  0.1386 -1.0793 -0.2115
  588MOL0     C77518   9.274   3.565   4.953  1.2009 -0.4842  0.2309
  588MOL0     O77519   9.204   3.447   4.959  0.1101 -0.4338  0.1094
  588MOL0     C77520   9.266   3.337   5.014 -1.1131  0.9693 -0.2325
  588MOL0     C77521   9.177   3.216   5.006 -0.5178  0.6631  0.3842
  588MOL0     C77522   9.036   3.247   5.077 -0.7189 -0.0298 -0.4072
  588MOL0     C77523   8.926   3.142   5.057 -0.8949  0.3905 -0.2678
  588MOL0     C77524   8.971   2.996   5.094  1.0494  0.4573  0.5440
  588MOL0     C77525   8.845   2.904   5.093 -0.7626  0.2069  0.6543
  588MOL0     C77526   8.866   2.765   5.149 -0.9373 -0.5793  0.0398
  588MOL0     C77527   8.740   2.708   5.205  0.2691 -0.1373  0.6852
  588MOL0    Cl77528   8.762   2.547   5.268  0.0926  0.1748  0.1611
  588MOL0     C77529   9.401   3.571   5.011  0.3633  0.0124  0.1387
  588MOL0     C77530   9.465   3.694   5.005  0.1304 -0.5823 -0.1095
  588MOL0     O77531   9.426   3.956   4.722  0.4484 -0.5393  0.6044
  588MOL0     C77532   9.531   4.190   4.703  0.0487  0.2990 -0.0342
  588MOL0     C77533   9.553   4.328   4.689 -0.7459 -0.3060 -0.5003
  588MOL0     N77534   9.234   4.887   5.125 -0.0471  0.1421  0.7914
  588MOL0     N77535   9.160   4.990   5.101  0.1713  0.2256  0.1908
  588MOL0     C77536   9.633   5.299   4.151  0.6544 -0.2842 -0.5919
  588MOL0     C77537   9.762   5.331   4.103 -0.1242  0.3745 -0.2134
  588MOL0     C77538  10.195   5.393   4.068  0.6321 -0.6544  0.0549
  588MOL0     C77539  10.281   5.295   4.031  0.2896 -0.0156 -0.3475
  588MOL0     C77540  10.413   5.325   4.015  0.5691  1.6171  0.7058
  588MOL0     C77541  10.464   5.451   4.029  0.2294  0.2548 -0.4808
  588MOL0     O77542  10.598   5.456   4.004  0.4580 -0.1137  0.8385
  588MOL0     C77543  10.644   5.596   3.999  1.0325  1.5450  0.6199
  588MOL0     C77544  10.782   5.591   3.953  0.4020 -0.2354  0.1938
  588MOL0     C77545  10.839   5.733   3.932 -0.0237 -0.7557  0.8701
  588MOL0     C77546  10.960   5.746   3.828 -0.1583  0.2836 -0.6941
  588MOL0     C77547  10.917   5.773   3.688 -0.4320  0.8022 -0.5247
  588MOL0     C77548  10.895   5.793   3.566  0.1769  0.1719 -0.7246
  588MOL0     C77549  10.377   5.553   4.057  0.5237 -0.5056 -0.0059
  588MOL0     C77550  10.241   5.526   4.084 -1.1253 -0.0425  0.1226
  588MOL0     H77551   9.860   5.542   4.354 -0.9671  3.0339 -2.9986
  588MOL0     H77552   9.623   5.476   4.425  0.9419 -0.6614  0.6662
  588MOL0     H77553   9.495   5.146   4.344  0.2299  0.0459 -0.0885
  588MOL0     H77554   9.395   5.182   4.204 -1.2009  0.0535  0.4407
  588MOL0     H77555   9.257   5.102   4.357  0.0584 -0.4929  2.2410
  588MOL0     H77556   9.188   5.261   4.346 -1.7037 -0.7567  2.0442
  588MOL0     H77557   9.335   5.331   4.535 -2.5515  1.3777 -0.7767
  588MOL0     H77558   9.385   5.151   4.542  0.0228 -1.4015 -2.7664
  588MOL0     H77559   9.093   5.266   4.544 -0.2892 -0.7498 -0.1864
  588MOL0     H77560   9.137   5.096   4.577  1.9690 -0.4723 -0.7192
  588MOL0     H77561   9.215   5.344   4.744  0.4103 -0.6130  0.6029
  588MOL0     H77562   9.265   5.185   4.785 -0.3680  1.4074  2.0142
  588MOL0     H77563   9.051   5.098   4.824 -0.4728 -0.0735 -0.4018
  588MOL0     H77564   8.973   5.239   4.768  1.5443  3.2929 -0.9844
  588MOL0     H77565   9.048   5.361   4.971  0.4838 -1.1256  0.0742
  588MOL0     H77566   8.989   5.204   5.024  2.0352 -1.0339  1.4728
  588MOL0     H77567   9.200   5.286   5.123  4.2301 -0.6535  0.7401
  588MOL0     H77568   9.284   5.276   4.976  1.4927 -3.2337 -1.5421
  588MOL0     H77569   9.444   5.107   4.989 -1.0465  2.5010  0.8655
  588MOL0     H77570   9.475   4.754   5.168  0.6732 -1.3275 -1.8560
  588MOL0     H77571   9.562   4.908   5.147  1.4188 -0.9592 -1.6601
  588MOL0     H77572   9.568   4.873   4.908  0.1865  0.7384  1.7342
  588MOL0     H77573   9.444   4.735   4.917  0.5728  0.4332 -0.3034
  588MOL0     H77574   9.720   4.737   5.030 -0.9887  1.4044 -0.5169
  588MOL0     H77575   9.593   4.612   5.070  1.8168 -0.7231  0.7969
  588MOL0     H77576   9.734   4.514   4.902  0.8407  1.6875  2.0523
  588MOL0     H77577   9.728   4.666   4.805 -1.6865  0.7951 -1.7858
  588MOL0     H77578   9.487   4.438   4.989  1.0898  3.9269 -3.2020
  588MOL0     H77579   9.441   4.175   5.033 -0.1439  0.3296 -0.0666
  588MOL0     H77580   9.200   3.886   4.897  0.0971  1.3279  3.0400
  588MOL0     H77581   9.105   3.675   4.883  0.1122  0.8135 -0.6536
  588MOL0     H77582   9.297   3.366   5.115  1.8072  2.5332 -1.4532
  588MOL0     H77583   9.364   3.309   4.976 -1.0577 -2.9767  2.2823
  588MOL0     H77584   9.230   3.138   5.061  1.3053  2.7498  1.8003
  588MOL0     H77585   9.157   3.191   4.901 -0.6467  2.4747 -0.0594
  588MOL0     H77586   8.989   3.343   5.055 -0.2431  0.5353  0.8920
  588MOL0     H77587   9.060   3.250   5.184  0.6612 -1.5047 -0.6345
  588MOL0     H77588   8.835   3.167   5.112 -1.3109  2.4106 -1.7857
  588MOL0     H77589   8.892   3.137   4.953 -0.0103 -1.8901 -0.5303
  588MOL0     H77590   9.018   2.996   5.193  0.9014 -1.1555  0.6446
  588MOL0     H77591   9.049   2.953   5.031  0.3757 -0.8470  0.5686
  588MOL0     H77592   8.817   2.890   4.988  1.9071  1.4959 -0.3161
  588MOL0     H77593   8.755   2.934   5.146 -3.0579 -0.4195 -2.5622
  588MOL0     H77594   8.908   2.704   5.069  2.1347 -1.4142  2.1274
  588MOL0     H77595   8.937   2.759   5.232 -2.0029  0.1978  1.0327
  588MOL0     H77596   8.652   2.703   5.140 -0.3309 -1.8725  1.5766
  588MOL0     H77597   8.707   2.759   5.296 -2.5518 -1.0316  0.2673
  588MOL0     H77598   9.464   3.484   5.023  1.0400  0.8444  3.3469
  588MOL0     H77599   9.568   3.692   5.042 -0.2422 -3.5286  1.0106
  588MOL0     H77600   9.532   4.132   4.611 -0.5665 -1.5988  1.0922
  588MOL0     H77601   9.559   4.380   4.593 -1.3740  1.4218  0.3549
  588MOL0     H77602   9.562   5.234   4.101 -4.2639  2.7653  1.7849
  588MOL0     H77603   9.792   5.300   4.003 -1.6895  2.8203 -1.5383
  588MOL0     H77604  10.241   5.194   4.022 -0.0350  0.2155 -1.6783
  588MOL0     H77605  10.480   5.242   3.996  1.5637  2.3516  0.9788
  588MOL0     H77606  10.642   5.645   4.096  0.2983  1.8765  0.4501
  588MOL0     H77607  10.584   5.653   3.927 -2.4520 -1.4850  0.7798
  588MOL0     H77608  10.831   5.538   4.035 -0.7194  2.2392  2.6410
  588MOL0     H77609  10.782   5.544   3.854 -1.1324  1.3402 -0.5922
  588MOL0     H77610  10.877   5.774   4.026  1.9627 -2.1472  0.7339
  588MOL0     H77611  10.750   5.794   3.910  0.4212 -0.2690  0.3649
  588MOL0     H77612  11.026   5.826   3.862 -1.4458  1.4659 -0.8444
  588MOL0     H77613  11.023   5.657   3.825 -0.8389 -0.2659  0.4613
  588MOL0     H77614  10.852   5.794   3.468 -1.2067  0.5669 -0.1509
  588MOL0     H77615  10.407   5.657   4.054 -1.2995  0.0727  0.4546
  588MOL0     H77616  10.161   5.597   4.098 -2.9022 -2.1811  1.6308
  589MOL0     O77617   9.012   6.562   2.608 -0.1362 -0.4478 -0.2932
  589MOL0     C77618   9.032   6.656   2.686  0.5578  0.5273 -0.3669
  589MOL0     O77619   8.955   6.692   2.797  0.0766  0.1494 -0.8773
  589MOL0     C77620   8.826   6.662   2.817 -0.6354  0.7538 -0.2894
  589MOL0     C77621   8.755   6.747   2.904  0.4140  0.0191  0.0992
  589MOL0     C77622   8.627   6.714   2.938 -0.8410 -0.1339 -0.2445
  589MOL0     C77623   8.552   6.602   2.890 -0.4016  0.5268  0.4277
  589MOL0     O77624   8.425   6.577   2.935 -0.1676 -0.2486 -0.1697
  589MOL0     C77625   8.395   6.444   2.952 -0.4344  1.0231  0.2539
  589MOL0     C77626   8.252   6.432   3.002 -1.3218 -0.0914  0.3578
  589MOL0     C77627   8.141   6.453   2.901  0.4115  0.0153 -0.1865
  589MOL0     C77628   8.137   6.355   2.776 -0.5460  0.3735 -0.7322
  589MOL0     C77629   8.008   6.334   2.705  0.0788  0.1107  0.0169
  589MOL0     C77630   7.950   6.455   2.642  0.0221 -0.1476  0.1761
  589MOL0     C77631   7.843   6.426   2.542 -0.1650 -0.3981  0.2416
  589MOL0     C77632   7.708   6.375   2.593  0.0796  0.3387 -0.2827
  589MOL0     N77633   7.659   6.282   2.499 -0.6618  0.1713  0.0474
  589MOL0     C77634   7.529   6.287   2.453  0.1106  0.3477  0.4308
  589MOL0     C77635   7.520   6.165   2.394 -0.0341  0.2712  0.1400
  589MOL0     C77636   7.394   6.114   2.337 -0.3816 -0.2602 -0.9116
  589MOL0     C77637   7.414   6.048   2.197  0.6163  0.7132 -0.0831
  589MOL0     C77638   7.469   6.128   2.080 -0.0184  0.3916 -0.7330
  589MOL0     C77639   7.387   6.256   2.045  0.0830  0.0709  0.6896
  589MOL0     O77640   7.245   6.222   2.011 -0.1885 -0.3852 -0.0725
  589MOL0     C77641   7.175   6.313   1.933  0.7412  1.9714 -0.0812
  589MOL0     C77642   7.204   6.445   1.906 -0.1639 -0.9458 -0.0234
  589MOL0     C77643   7.111   6.529   1.841 -0.5622 -0.2691 -0.7323
  589MOL0     C77644   6.987   6.476   1.800  0.1492 -0.5201  0.2803
  589MOL0     C77645   6.888   6.555   1.733  0.5514  0.4739  0.2306
  589MOL0     O77646   6.776   6.501   1.671 -0.0248  0.3538 -0.1593
  589MOL0     C77647   6.675   6.584   1.620 -0.0716  0.6800  0.3268
  589MOL0     C77648   6.610   6.687   1.695 -1.2037  0.7708  0.6640
  589MOL0     C77649   6.510   6.753   1.637  0.1551  0.2333 -0.1154
  589MOL0     C77650   6.467   6.727   1.506 -0.5005 -0.2998  0.7259
  589MOL0     O77651   6.367   6.809   1.451  0.1281 -0.1453  0.3016
  589MOL0     C77652   6.250   6.738   1.406  0.3484  0.1471  0.4235
  589MOL0     C77653   6.147   6.787   1.503  0.0936  0.6294 -0.3101
  589MOL0     C77654   6.127   6.939   1.496  0.2065 -0.4422  0.0715
  589MOL0     C77655   6.038   6.987   1.611 -0.0536  0.0903 -1.0182
  589MOL0     C77656   6.025   7.145   1.599 -0.6393  0.7434 -0.0787
  589MOL0     C77657   5.972   7.197   1.732  0.4674 -0.0997 -0.1310
  589MOL0     C77658   5.994   7.345   1.752 -0.1939 -0.5924 -0.3469
  589MOL0     C77659   5.974   7.431   1.626 -0.4076 -0.1746 -0.3764
  589MOL0    Cl77660   5.920   7.600   1.669  0.1365 -0.0944  0.1494
  589MOL0     C77661   6.536   6.637   1.434 -0.1579  0.2606  0.7072
  589MOL0     C77662   6.636   6.554   1.489 -0.5851 -0.2548 -0.2788
  589MOL0     O77663   6.915   6.676   1.723 -0.5659  0.3888  0.0980
  589MOL0     C77664   6.959   6.343   1.832 -0.4224  0.5361 -0.6376
  589MOL0     C77665   7.050   6.260   1.884 -0.2893 -0.2082 -0.1048
  589MOL0     N77666   7.630   6.081   2.410 -0.3531  0.1659 -0.2975
  589MOL0     N77667   7.714   6.150   2.479  0.0027  0.1436  0.8842
  589MOL0     C77668   8.624   6.522   2.800  0.3027  0.1895 -0.0710
  589MOL0     C77669   8.756   6.551   2.772  0.4884 -0.0178  0.0953
  589MOL0     C77670   9.146   6.754   2.666 -0.7490 -0.3608  0.0403
  589MOL0     C77671   9.181   6.859   2.756 -0.0830  0.3454  0.1077
  589MOL0     C77672   9.265   6.955   2.734 -0.0038  0.0250 -0.5300
  589MOL0     C77673   9.320   6.971   2.603 -0.0636 -0.5557 -0.3630
  589MOL0     O77674   9.415   7.064   2.560  0.0769  0.5295 -0.6182
  589MOL0     C77675   9.462   7.169   2.645  0.1004  0.0419  0.0902
  589MOL0     C77676   9.566   7.122   2.737 -0.6247  0.3328 -0.0554
  589MOL0     C77677   9.679   7.228   2.783  0.4184 -0.5627  0.3812
  589MOL0     C77678   9.618   7.358   2.818 -1.1670 -0.2357 -0.6134
  589MOL0     C77679   9.540   7.353   2.940  0.5499  0.4469 -0.1994
  589MOL0     C77680   9.477   7.331   3.037 -0.4121  0.0862 -0.3585
  589MOL0     C77681   9.297   6.871   2.513 -0.6748 -0.0838  1.2965
  589MOL0     C77682   9.213   6.759   2.543 -0.7220  1.1240 -0.3651
  589MOL0     H77683   8.791   6.845   2.935  3.0180 -0.1202 -2.1236
  589MOL0     H77684   8.584   6.784   3.009  1.0827  2.9737 -1.9309
  589MOL0     H77685   8.459   6.404   3.032 -0.3760  1.3809  0.3862
  589MOL0     H77686   8.418   6.383   2.864 -0.0049  2.2701 -0.5270
  589MOL0     H77687   8.231   6.499   3.086 -2.6302 -1.7781  1.4438
  589MOL0     H77688   8.247   6.331   3.043  1.1631 -1.3459 -2.1349
  589MOL0     H77689   8.132   6.556   2.867 -0.2978 -0.5793 -1.8798
  589MOL0     H77690   8.049   6.444   2.959  0.6911 -0.6787  0.1667
  589MOL0     H77691   8.222   6.375   2.709 -0.8039  0.4694 -1.0340
  589MOL0     H77692   8.152   6.251   2.806 -1.0101  0.7754  0.9836
  589MOL0     H77693   7.939   6.299   2.782 -0.0018 -0.8847 -0.4927
  589MOL0     H77694   8.023   6.264   2.622 -1.2936 -2.0701  1.5021
  589MOL0     H77695   8.024   6.507   2.582 -0.6152 -2.4102 -2.8020
  589MOL0     H77696   7.909   6.518   2.721 -2.7730 -2.9231  1.1710
  589MOL0     H77697   7.823   6.517   2.484 -0.4287  0.4109  1.5585
  589MOL0     H77698   7.887   6.357   2.470  0.6752  0.6158 -0.2485
  589MOL0     H77699   7.636   6.456   2.597 -1.7093 -1.1164 -1.5741
  589MOL0     H77700   7.727   6.324   2.688  1.7367 -1.2423 -1.3803
  589MOL0     H77701   7.453   6.364   2.456 -2.3263 -1.8052 -1.4732
  589MOL0     H77702   7.317   6.191   2.343 -2.4427 -2.1885  5.7057
  589MOL0     H77703   7.357   6.039   2.408  1.5548 -1.0982 -0.7092
  589MOL0     H77704   7.314   6.014   2.166  0.6229 -0.5176  1.1250
  589MOL0     H77705   7.461   5.949   2.205  1.1768  1.0882  1.6819
  589MOL0     H77706   7.570   6.160   2.110 -0.2343  1.3965 -1.0509
  589MOL0     H77707   7.489   6.063   1.994  1.3783 -2.4458  1.5338
  589MOL0     H77708   7.436   6.301   1.958 -0.6832  1.8198  1.1352
  589MOL0     H77709   7.384   6.337   2.118  0.1482  2.1841 -1.5186
  589MOL0     H77710   7.288   6.495   1.953 -0.9423 -0.6960  1.1512
  589MOL0     H77711   7.134   6.634   1.831 -2.2703  0.1746 -0.3213
  589MOL0     H77712   6.639   6.711   1.796 -2.0318 -1.1653  1.4019
  589MOL0     H77713   6.482   6.848   1.679  1.6858  1.2035 -1.1768
  589MOL0     H77714   6.253   6.629   1.417 -3.7888 -0.1403  0.2530
  589MOL0     H77715   6.218   6.752   1.302 -0.9979 -0.6252  0.7154
  589MOL0     H77716   6.171   6.748   1.603  3.3606  1.0963 -0.7846
  589MOL0     H77717   6.063   6.722   1.478  0.4737 -0.5474  1.2761
  589MOL0     H77718   6.079   6.962   1.400  0.9081  2.5279  0.3177
  589MOL0     H77719   6.220   6.996   1.507  0.3114 -0.7869  1.0139
  589MOL0     H77720   5.943   6.933   1.605 -0.5651  0.9605 -0.8685
  589MOL0     H77721   6.082   6.965   1.709 -1.1405  3.0733  0.2510
  589MOL0     H77722   5.961   7.165   1.513  0.4910  0.5444 -0.9885
  589MOL0     H77723   6.126   7.182   1.576  0.9999 -3.3929 -0.4395
  589MOL0     H77724   6.018   7.152   1.820  0.5615  1.4683  0.6414
  589MOL0     H77725   5.864   7.183   1.739  0.2861  1.7901  1.5876
  589MOL0     H77726   5.910   7.371   1.818  0.9975  0.8854  0.6439
  589MOL0     H77727   6.094   7.357   1.795 -2.2216  0.3817  4.8717
  589MOL0     H77728   5.911   7.376   1.555 -2.5342  0.5439  0.8483
  589MOL0     H77729   6.070   7.440   1.575  0.4347  2.7641  1.4788
  589MOL0     H77730   6.501   6.636   1.331 -1.2615  1.5714  1.0402
  589MOL0     H77731   6.679   6.470   1.436  2.2867  2.0132 -1.8465
  589MOL0     H77732   6.856   6.310   1.822 -0.4964  1.1671 -2.3594
  589MOL0     H77733   7.030   6.156   1.905  0.1202 -0.3168 -0.2440
  589MOL0     H77734   8.572   6.446   2.743  0.3414  1.1620 -1.4441
  589MOL0     H77735   8.808   6.488   2.701  1.3169  1.2872 -0.4847
  589MOL0     H77736   9.129   6.864   2.851  1.6142  1.0500  1.0421
  589MOL0     H77737   9.291   7.031   2.807  1.9877  0.2339 -1.4007
  589MOL0     H77738   9.376   7.222   2.688  0.3631 -1.0652  2.1063
  589MOL0     H77739   9.509   7.239   2.575  2.7254 -0.4121  1.3115
  589MOL0     H77740   9.517   7.069   2.820  0.3323 -1.5504 -0.6438
  589MOL0     H77741   9.620   7.041   2.687 -0.2034  0.5981 -0.0259
  589MOL0     H77742   9.744   7.253   2.698  0.8514  0.9245  1.1233
  589MOL0     H77743   9.752   7.186   2.853  0.8937  1.3044  1.0587
  589MOL0     H77744   9.697   7.432   2.833 -1.2690 -0.3516  0.6325
  589MOL0     H77745   9.560   7.401   2.737  1.5288  2.1784 -1.4153
  589MOL0     H77746   9.423   7.317   3.129  0.2632 -0.1175  0.0075
  589MOL0     H77747   9.355   6.888   2.423  2.7273  0.4613  3.3919
  589MOL0     H77748   9.194   6.676   2.476  0.8530  0.4489 -0.0375
  590MOL0     O77749   7.712   4.955   8.343 -0.7160 -0.7836  0.0241
  590MOL0     C77750   7.797   4.913   8.269 -0.5497  0.5753  0.0989
  590MOL0     O77751   7.773   4.858   8.151  0.3584 -0.3782 -0.8113
  590MOL0     C77752   7.650   4.881   8.092 -0.3827 -0.0367  0.6632
  590MOL0     C77753   7.549   4.784   8.094  0.0666 -0.4303  0.0818
  590MOL0     C77754   7.428   4.807   8.031  0.8907 -0.4672  0.5406
  590MOL0     C77755   7.418   4.923   7.941  0.5707 -0.1081 -0.1703
  590MOL0     O77756   7.307   4.941   7.868  0.8377 -0.1315  0.4712
  590MOL0     C77757   7.303   5.005   7.738 -0.1844  0.2137 -0.4234
  590MOL0     C77758   7.157   5.055   7.718 -0.8208  0.1955  0.2999
  590MOL0     C77759   7.121   5.074   7.578 -0.0423  0.4522  1.2072
  590MOL0     C77760   6.972   5.089   7.552 -0.8791  0.7553  0.2790
  590MOL0     C77761   6.942   5.086   7.414 -0.7166  0.1735  0.5185
  590MOL0     C77762   6.795   5.073   7.383 -0.5197  0.0902 -0.8425
  590MOL0     C77763   6.765   5.023   7.239  0.1350 -0.0968 -0.1473
  590MOL0     C77764   6.623   5.036   7.180 -0.4697 -0.4100 -0.1836
  590MOL0     N77765   6.549   4.920   7.212 -0.5137 -0.0402  0.0597
  590MOL0     C77766   6.574   4.799   7.136  0.3378 -0.8419 -0.2640
  590MOL0     C77767   6.506   4.707   7.208  0.8449  0.2030 -0.8478
  590MOL0     C77768   6.507   4.563   7.162  0.5501  0.4159 -0.2320
  590MOL0     C77769   6.367   4.510   7.124  0.3722 -0.2098  0.3792
  590MOL0     C77770   6.368   4.355   7.122 -0.3848 -0.8157 -0.5127
  590MOL0     C77771   6.231   4.305   7.094 -0.6896  1.0355 -0.3050
  590MOL0     O77772   6.200   4.275   6.959  0.2105 -0.0665 -0.4062
  590MOL0     C77773   6.071   4.233   6.919  0.3787 -0.4075 -0.5914
  590MOL0     C77774   5.979   4.160   7.000  0.0871  0.4196 -0.8722
  590MOL0     C77775   5.861   4.096   6.943 -0.1416 -0.1330 -0.5092
  590MOL0     C77776   5.838   4.118   6.798 -0.7550 -0.5330  0.6356
  590MOL0     C77777   5.724   4.045   6.735  0.5017  0.2195  1.0919
  590MOL0     O77778   5.642   3.977   6.816  1.2188  0.0926 -0.1867
  590MOL0     C77779   5.558   3.883   6.757  0.4221  0.0141  0.6295
  590MOL0     C77780   5.428   3.918   6.726 -0.6754 -0.3209  0.6715
  590MOL0     C77781   5.344   3.817   6.688 -0.4441 -0.0357  0.4163
  590MOL0     C77782   5.386   3.682   6.681 -0.0484  0.3003  0.6852
  590MOL0     O77783   5.288   3.586   6.660  0.4723  0.1606  0.3902
  590MOL0     C77784   5.207   3.600   6.540 -0.2922 -0.6489 -0.6826
  590MOL0     C77785   5.097   3.481   6.532  0.8718 -0.6131 -0.1866
  590MOL0     C77786   5.021   3.501   6.403  0.2397 -0.2549 -0.4493
  590MOL0     C77787   4.892   3.409   6.393  0.5579 -0.0006  0.2189
  590MOL0     C77788   4.796   3.471   6.285 -0.3326  0.9427  0.5856
  590MOL0     C77789   4.662   3.396   6.290 -0.3991 -0.1373  0.7876
  590MOL0     C77790   4.562   3.440   6.180 -0.9101 -0.6825  0.0381
  590MOL0     C77791   4.603   3.382   6.048 -0.5663  0.2332 -0.0742
  590MOL0    Cl77792   4.594   3.208   6.039 -0.2467  0.2553  0.1131
  590MOL0     C77793   5.518   3.651   6.700 -0.2499  0.4171 -0.6208
  590MOL0     C77794   5.598   3.749   6.754 -0.6132  0.4986 -0.3882
  590MOL0     O77795   5.711   4.043   6.614 -0.5340  0.6916  0.6105
  590MOL0     C77796   5.937   4.192   6.725 -0.3859 -0.3249 -0.2258
  590MOL0     C77797   6.046   4.243   6.783 -0.0924 -0.2543  0.5401
  590MOL0     N77798   6.445   4.764   7.327 -0.5173  0.1786 -0.2598
  590MOL0     N77799   6.473   4.895   7.322  0.0150 -0.3155  0.2099
  590MOL0     C77800   7.527   5.013   7.937  0.5113 -0.2433 -0.0960
  590MOL0     C77801   7.637   4.996   8.015  0.2892 -0.7459  0.1388
  590MOL0     C77802   7.934   4.933   8.311  0.4970 -0.4384 -0.0524
  590MOL0     C77803   8.045   4.923   8.222  0.3499  0.2066  0.0859
  590MOL0     C77804   8.176   4.900   8.268  0.6250 -0.6844 -0.5600
  590MOL0     C77805   8.214   4.926   8.399  0.6063 -0.1666 -0.6786
  590MOL0     O77806   8.340   4.931   8.436  0.3416 -0.8144  0.2668
  590MOL0     C77807   8.363   4.946   8.573  0.0152 -0.6881 -0.2477
  590MOL0     C77808   8.514   4.970   8.593  0.1361 -0.2413  0.2841
  590MOL0     C77809   8.547   4.965   8.746 -0.3123  0.5440  0.7846
  590MOL0     C77810   8.529   4.818   8.798 -1.2810 -0.4496 -0.0697
  590MOL0     C77811   8.648   4.784   8.880 -0.7012 -0.4177  0.6538
  590MOL0     C77812   8.739   4.745   8.957  0.7704 -0.0886  0.1048
  590MOL0     C77813   8.111   4.954   8.492  0.5781  0.4954  0.7350
  590MOL0     C77814   7.973   4.961   8.445  1.5167  0.4045 -0.4905
  590MOL0     H77815   7.540   4.698   8.160 -1.0546 -1.3604 -1.2284
  590MOL0     H77816   7.343   4.743   8.054  0.1916  0.1609 -0.2252
  590MOL0     H77817   7.333   4.937   7.657  0.7848 -0.3447  0.3742
  590MOL0     H77818   7.369   5.092   7.735 -2.3359  2.0945  2.2462
  590MOL0     H77819   7.146   5.147   7.776  1.9418 -0.1681  1.5952
  590MOL0     H77820   7.092   4.981   7.766 -1.2165 -0.2648 -0.8989
  590MOL0     H77821   7.157   4.986   7.525  1.0009  2.9354 -2.5914
  590MOL0     H77822   7.165   5.167   7.539 -2.0576 -0.1137 -2.8714
  590MOL0     H77823   6.912   5.012   7.603  0.6638 -2.7131 -2.6518
  590MOL0     H77824   6.936   5.187   7.585 -0.7991  0.0674  2.6416
  590MOL0     H77825   6.995   5.001   7.370 -1.0265  1.5671 -2.8292
  590MOL0     H77826   6.983   5.169   7.357  1.4685  0.6915  2.7065
  590MOL0     H77827   6.749   5.172   7.385 -0.6727  0.0665 -2.1652
  590MOL0     H77828   6.753   5.000   7.453  0.2963 -0.5642 -1.0105
  590MOL0     H77829   6.840   5.070   7.175  1.9559  0.5722  2.3015
  590MOL0     H77830   6.781   4.916   7.230 -2.4047 -0.4659 -1.0645
  590MOL0     H77831   6.631   5.065   7.075 -2.4783  0.6096 -0.1104
  590MOL0     H77832   6.569   5.114   7.236  1.5220 -0.1157  1.4615
  590MOL0     H77833   6.646   4.784   7.057  1.7697  1.2270  0.5412
  590MOL0     H77834   6.541   4.505   7.248  1.0073  0.6146 -0.2752
  590MOL0     H77835   6.581   4.545   7.085  0.4873  0.1675 -0.2343
  590MOL0     H77836   6.328   4.536   7.025 -0.5265 -0.9712  0.5228
  590MOL0     H77837   6.307   4.556   7.203 -0.4798  0.2050 -0.4835
  590MOL0     H77838   6.443   4.320   7.051  0.7538 -0.2926  0.4029
  590MOL0     H77839   6.395   4.332   7.226 -2.2363  0.8152  0.4114
  590MOL0     H77840   6.156   4.372   7.136 -2.1443  0.1291 -1.3332
  590MOL0     H77841   6.212   4.209   7.143 -1.6030  0.1801 -2.2173
  590MOL0     H77842   6.008   4.150   7.104  1.6088 -0.9217 -1.3864
  590MOL0     H77843   5.814   4.033   7.018  1.9102 -0.3979  0.6038
  590MOL0     H77844   5.394   4.021   6.732 -2.1578 -0.6850 -0.7351
  590MOL0     H77845   5.237   3.833   6.684 -0.8557 -2.4004  0.4337
  590MOL0     H77846   5.271   3.618   6.454 -0.2758  2.0309 -0.1929
  590MOL0     H77847   5.142   3.688   6.544  0.2965 -0.2102 -0.6727
  590MOL0     H77848   5.042   3.498   6.626  0.6241 -1.0122 -0.2569
  590MOL0     H77849   5.139   3.380   6.535 -0.0894 -1.0921 -1.6692
  590MOL0     H77850   5.084   3.495   6.314 -1.3059 -0.3668 -1.5738
  590MOL0     H77851   4.978   3.601   6.396  0.0942 -0.3236 -0.5523
  590MOL0     H77852   4.916   3.303   6.376  0.7586 -0.5305  3.2308
  590MOL0     H77853   4.839   3.414   6.489  0.0860 -2.1537  0.1313
  590MOL0     H77854   4.851   3.469   6.191  0.5983  1.0042  1.1184
  590MOL0     H77855   4.777   3.576   6.309  4.5038  2.1800 -0.1032
  590MOL0     H77856   4.609   3.423   6.382  0.1886 -0.7777  1.3313
  590MOL0     H77857   4.681   3.288   6.297  3.5068  0.2482 -1.1491
  590MOL0     H77858   4.468   3.389   6.203 -1.2210 -0.2194 -0.1676
  590MOL0     H77859   4.561   3.550   6.184  1.3292 -0.6449  1.0763
  590MOL0     H77860   4.698   3.430   6.026  0.3475 -0.4278  2.0655
  590MOL0     H77861   4.530   3.418   5.976 -0.2409 -0.8708 -0.9860
  590MOL0     H77862   5.547   3.546   6.692 -1.6906 -0.4321  3.1512
  590MOL0     H77863   5.695   3.733   6.801 -1.2034 -2.5959  0.0026
  590MOL0     H77864   5.935   4.196   6.617 -1.9412  0.6927 -0.1841
  590MOL0     H77865   6.111   4.295   6.713  0.1142  0.3389  1.1654
  590MOL0     H77866   7.515   5.096   7.868 -2.4357 -1.5679 -1.3503
  590MOL0     H77867   7.710   5.076   8.008 -1.8855  1.2654 -1.5898
  590MOL0     H77868   8.014   4.908   8.119  2.1596  1.0186 -0.6191
  590MOL0     H77869   8.257   4.893   8.196  2.7352  3.2636  1.0775
  590MOL0     H77870   8.321   4.860   8.626  0.0260 -1.6262 -1.6987
  590MOL0     H77871   8.319   5.035   8.618  1.8973 -0.8162  2.0650
  590MOL0     H77872   8.579   4.905   8.533 -0.3085 -0.6370  0.2239
  590MOL0     H77873   8.523   5.077   8.569  0.1540  0.1313  1.8638
  590MOL0     H77874   8.487   5.033   8.806 -1.6048 -1.6283  2.1185
  590MOL0     H77875   8.648   5.001   8.767 -0.7062  1.5106  1.0736
  590MOL0     H77876   8.435   4.823   8.854  0.0921  1.8400  2.2794
  590MOL0     H77877   8.518   4.740   8.722 -1.8827 -2.5198  2.0542
  590MOL0     H77878   8.817   4.695   9.010  1.3143  0.4126 -0.2095
  590MOL0     H77879   8.126   4.971   8.598 -1.0589  1.2125  0.8804
  590MOL0     H77880   7.888   4.965   8.512 -0.9632 -0.6280 -3.3286
  591MOL0     O77881   8.737   0.367   1.996 -0.1122 -0.2424 -0.4135
  591MOL0     C77882   8.743   0.284   2.084  1.4126 -0.1234 -0.3768
  591MOL0     O77883   8.664   0.168   2.088  0.0440  0.0192 -0.0517
  591MOL0     C77884   8.584   0.137   1.973 -0.8214  0.0109 -1.2503
  591MOL0     C77885   8.484   0.219   1.937  0.3984 -0.5506 -0.0427
  591MOL0     C77886   8.399   0.179   1.827  0.6562 -0.7075  0.5046
  591MOL0     C77887   8.418   0.067   1.749 -0.9139 -0.0667  0.0891
  591MOL0     O77888   8.340   0.047   1.636 -0.2270 -0.2761 -0.8519
  591MOL0     C77889   8.419  -0.018   1.533 -1.0217 -0.0801  0.9560
  591MOL0     C77890   8.369   0.002   1.388  0.4361 -0.5753 -0.4651
  591MOL0     C77891   8.386   0.147   1.350 -0.0125  0.2169 -0.4410
  591MOL0     C77892   8.367   0.173   1.194  0.1448 -0.0599  0.0404
  591MOL0     C77893   8.363   0.325   1.171 -0.2170  0.4227  0.6028
  591MOL0     C77894   8.290   0.363   1.047 -0.2507 -0.8065  0.7895
  591MOL0     C77895   8.348   0.284   0.923 -0.1148 -0.8502  0.1970
  591MOL0     C77896   8.286   0.317   0.787 -0.4984 -0.3781  0.4081
  591MOL0     N77897   8.147   0.373   0.795 -0.3071  0.5516 -0.2505
  591MOL0     C77898   8.032   0.304   0.827  0.6131 -0.0694  0.5082
  591MOL0     C77899   7.936   0.400   0.841  0.0820 -0.1783 -0.2701
  591MOL0     C77900   7.786   0.401   0.860  0.0732  0.2820 -0.2134
  591MOL0     C77901   7.729   0.276   0.934 -0.5524 -0.0727 -1.3329
  591MOL0     C77902   7.589   0.268   0.998 -0.6106 -0.4777 -0.2487
  591MOL0     C77903   7.568   0.146   1.091 -0.0683 -0.0195  0.6333
  591MOL0     O77904   7.657   0.039   1.067 -0.1210  0.2753 -0.6123
  591MOL0     C77905   7.609  -0.076   1.112 -0.8075  0.0306 -0.4117
  591MOL0     C77906   7.679  -0.180   1.043  0.6228  0.1181 -0.7719
  591MOL0     C77907   7.638  -0.313   1.061 -1.0198 -0.2712  0.0421
  591MOL0     C77908   7.530  -0.351   1.143  1.0871 -0.1931 -1.0510
  591MOL0     C77909   7.495  -0.494   1.175 -0.2071  0.0927  0.2367
  591MOL0     O77910   7.360  -0.522   1.201 -0.2723  0.8790  0.7972
  591MOL0     C77911   7.315  -0.655   1.193  0.2292 -0.1998 -0.3373
  591MOL0     C77912   7.181  -0.671   1.243 -0.0556 -0.4583 -0.1367
  591MOL0     C77913   7.113  -0.794   1.250  0.5237  0.6407 -0.1879
  591MOL0     C77914   7.173  -0.907   1.186  0.2484  0.4418 -0.0615
  591MOL0     O77915   7.111  -1.031   1.178 -0.6710 -0.2623  0.4959
  591MOL0     C77916   6.991  -1.056   1.250  0.0084  0.6311  0.2662
  591MOL0     C77917   6.929  -1.179   1.186  0.7460 -0.4255 -0.2724
  591MOL0     C77918   6.866  -1.144   1.055 -0.0361 -0.8771  0.0688
  591MOL0     C77919   6.785  -1.263   0.988 -0.3591  0.8063  0.8318
  591MOL0     C77920   6.645  -1.271   1.059  0.0097 -0.3357  0.0840
  591MOL0     C77921   6.581  -1.399   1.033 -0.3430 -0.2758 -0.1314
  591MOL0     C77922   6.555  -1.431   0.896 -0.1152  0.0025  0.2281
  591MOL0     C77923   6.457  -1.548   0.898  0.3951  1.1769  0.1308
  591MOL0    Cl77924   6.430  -1.621   0.725  0.0631  0.3114 -0.0236
  591MOL0     C77925   7.310  -0.895   1.127 -0.0145  0.7964  0.1367
  591MOL0     C77926   7.376  -0.767   1.137 -0.5319 -0.3216  0.3712
  591MOL0     O77927   7.592  -0.569   1.170  0.1479  0.4479  0.6547
  591MOL0     C77928   7.465  -0.239   1.205  0.0312 -0.5953 -1.0670
  591MOL0     C77929   7.513  -0.111   1.194  0.2680  0.2509 -0.3653
  591MOL0     N77930   8.003   0.515   0.819 -0.2533 -0.9141 -0.4641
  591MOL0     N77931   8.128   0.507   0.786 -0.0031 -0.5695 -0.2585
  591MOL0     C77932   8.526  -0.016   1.794  0.8114 -0.1136 -0.4668
  591MOL0     C77933   8.600   0.013   1.912  0.7146 -0.0608  0.1338
  591MOL0     C77934   8.855   0.299   2.179  0.5887  0.7189 -0.6050
  591MOL0     C77935   8.893   0.190   2.269  0.1277 -0.5564  0.1688
  591MOL0     C77936   9.006   0.210   2.353  0.4040  0.1647 -0.5722
  591MOL0     C77937   9.070   0.333   2.367  0.3320  0.0405 -0.3132
  591MOL0     O77938   9.176   0.355   2.453  0.8250  0.4708  0.2092
  591MOL0     C77939   9.291   0.278   2.421 -0.1084 -1.2789  0.8539
  591MOL0     C77940   9.399   0.279   2.533  1.0954  0.8122 -0.1514
  591MOL0     C77941   9.354   0.261   2.676 -0.5366 -0.5877 -0.8006
  591MOL0     C77942   9.475   0.290   2.784  0.0762  0.0713 -0.7082
  591MOL0     C77943   9.429   0.227   2.909 -0.3925  0.4292  0.2656
  591MOL0     C77944   9.373   0.183   3.012  0.1371  0.2331  0.2186
  591MOL0     C77945   9.030   0.439   2.284 -0.8549  0.3098  0.1416
  591MOL0     C77946   8.937   0.416   2.190 -0.5879 -0.7339 -0.3428
  591MOL0     H77947   8.443   0.301   1.994 -1.4397 -1.6620  0.3536
  591MOL0     H77948   8.316   0.240   1.792 -0.2393 -1.5021  1.2050
  591MOL0     H77949   8.419  -0.127   1.544 -0.9436 -0.1245  0.5535
  591MOL0     H77950   8.523   0.016   1.534 -2.0285  3.4584  0.2244
  591MOL0     H77951   8.266  -0.029   1.367 -0.6980  1.7559  1.1875
  591MOL0     H77952   8.438  -0.070   1.344  1.8186  0.8500 -0.7124
  591MOL0     H77953   8.489   0.166   1.379  0.7016 -0.5732 -2.2909
  591MOL0     H77954   8.318   0.214   1.405 -0.6698  0.0135 -0.9838
  591MOL0     H77955   8.442   0.120   1.135 -0.3979 -1.3694  0.4900
  591MOL0     H77956   8.268   0.136   1.168  0.1824 -1.4069  1.6219
  591MOL0     H77957   8.464   0.366   1.174 -0.4237  1.2884 -1.9516
  591MOL0     H77958   8.304   0.374   1.250 -1.2410 -1.0318  0.7740
  591MOL0     H77959   8.308   0.469   1.023  1.0029 -0.9375  1.0887
  591MOL0     H77960   8.182   0.345   1.050 -0.2649 -2.3796 -2.9715
  591MOL0     H77961   8.457   0.296   0.916 -0.0611 -1.2018  0.4131
  591MOL0     H77962   8.335   0.176   0.935  1.2558 -1.1996 -1.0566
  591MOL0     H77963   8.295   0.220   0.737  2.7390  0.7928 -1.5629
  591MOL0     H77964   8.341   0.392   0.731 -2.2102 -0.8392 -2.0476
  591MOL0     H77965   8.013   0.198   0.817  0.1604  0.0235  0.3539
  591MOL0     H77966   7.741   0.411   0.761  0.4091  0.0213 -0.3947
  591MOL0     H77967   7.772   0.489   0.923  1.4308 -0.9684  1.9554
  591MOL0     H77968   7.790   0.259   1.024 -1.1762 -3.2654 -1.4074
  591MOL0     H77969   7.727   0.187   0.871  0.6069 -1.8154  0.9013
  591MOL0     H77970   7.579   0.354   1.065 -1.1549 -1.1334  0.5254
  591MOL0     H77971   7.512   0.276   0.920 -1.2195 -1.2763  0.2517
  591MOL0     H77972   7.469   0.113   1.061  0.5483  0.3680 -2.0366
  591MOL0     H77973   7.575   0.174   1.197  1.9174 -0.9084  0.7887
  591MOL0     H77974   7.779  -0.166   1.004 -0.2113  0.5476 -2.9167
  591MOL0     H77975   7.701  -0.376   0.999  1.4326  2.6698 -0.7063
  591MOL0     H77976   7.140  -0.579   1.283  0.4786  0.0617 -0.7539
  591MOL0     H77977   7.009  -0.809   1.277  0.7195 -0.3678  0.0506
  591MOL0     H77978   6.925  -0.969   1.245  1.3279  1.6629  0.2525
  591MOL0     H77979   7.009  -1.066   1.357 -0.7870 -2.1715  0.2039
  591MOL0     H77980   6.854  -1.225   1.251  0.9851 -2.7483 -1.5310
  591MOL0     H77981   7.000  -1.262   1.175 -1.2818 -1.9631 -2.9697
  591MOL0     H77982   6.944  -1.109   0.986 -2.0064 -0.2988 -2.0262
  591MOL0     H77983   6.794  -1.062   1.063  0.0682 -0.2980 -3.3631
  591MOL0     H77984   6.779  -1.241   0.881 -0.8536  0.8424  0.8634
  591MOL0     H77985   6.853  -1.349   0.990 -0.7851  0.2808 -2.2263
  591MOL0     H77986   6.581  -1.193   1.017  0.4660  0.8269  1.4832
  591MOL0     H77987   6.666  -1.254   1.165  2.1806  0.4825 -0.4178
  591MOL0     H77988   6.491  -1.398   1.095  0.5984 -2.6439  1.4293
  591MOL0     H77989   6.650  -1.472   1.075  0.8770  0.9721  0.0971
  591MOL0     H77990   6.509  -1.347   0.843 -0.8888 -0.9150 -0.5833
  591MOL0     H77991   6.646  -1.464   0.843 -1.5709 -0.1208 -2.3633
  591MOL0     H77992   6.357  -1.523   0.934  0.1636 -0.3996  0.6544
  591MOL0     H77993   6.481  -1.628   0.968 -0.2025 -0.4521 -1.4735
  591MOL0     H77994   7.353  -0.985   1.084 -0.2442 -0.2415  1.9590
  591MOL0     H77995   7.476  -0.760   1.096 -0.3041 -1.7876  0.6162
  591MOL0     H77996   7.372  -0.258   1.258  1.0680 -0.9185  0.7058
  591MOL0     H77997   7.450  -0.035   1.238  0.9735  0.8404 -0.3468
  591MOL0     H77998   8.552  -0.094   1.723 -0.5916 -0.6259 -0.4388
  591MOL0     H77999   8.684  -0.051   1.940  2.5910  2.5698  0.8482
  591MOL0     H78000   8.844   0.094   2.258  0.7138 -0.7171 -1.2330
  591MOL0     H78001   9.037   0.128   2.417  1.4681  0.7794 -0.2748
  591MOL0     H78002   9.341   0.334   2.342  1.0012  0.5097  2.7184
  591MOL0     H78003   9.248   0.180   2.399 -2.8023 -0.6361  2.7584
  591MOL0     H78004   9.460   0.189   2.518  1.1498  0.8343 -0.0648
  591MOL0     H78005   9.457   0.371   2.523  0.3008  1.5099  1.3801
  591MOL0     H78006   9.334   0.157   2.704  1.1799 -0.5291  0.9007
  591MOL0     H78007   9.274   0.331   2.701 -1.9190 -1.0452 -3.6096
  591MOL0     H78008   9.571   0.246   2.754 -0.1217 -0.5853 -0.3935
  591MOL0     H78009   9.505   0.393   2.804  3.2784 -1.3191  2.9569
  591MOL0     H78010   9.344   0.130   3.100 -0.1605  0.0644  0.0216
  591MOL0     H78011   9.088   0.529   2.301 -0.6017 -0.0661  1.3318
  591MOL0     H78012   8.914   0.507   2.134  0.6050 -0.2868 -0.1323
  592MOL0     O78013  11.180   4.321  10.118 -0.2068 -0.0839 -0.7994
  592MOL0     C78014  11.196   4.390  10.020 -0.6408  0.2777  0.0010
  592MOL0     O78015  11.099   4.448   9.947  0.2642 -0.5889  0.0496
  592MOL0     C78016  10.975   4.437   9.995  0.1379 -0.0352 -0.1290
  592MOL0     C78017  10.872   4.375   9.925  0.1209 -0.0693  0.6467
  592MOL0     C78018  10.741   4.356   9.973  0.1693 -0.4134  0.9578
  592MOL0     C78019  10.698   4.416  10.095 -1.1899 -1.0071  1.0683
  592MOL0     O78020  10.570   4.410  10.137  0.6266  0.5305 -0.1818
  592MOL0     C78021  10.503   4.540  10.109  0.5245 -0.7612  0.2773
  592MOL0     C78022  10.349   4.515  10.137 -0.0740 -0.1150 -0.6743
  592MOL0     C78023  10.262   4.634  10.082  0.0151 -0.0019 -0.4758
  592MOL0     C78024  10.112   4.602  10.105 -0.3384 -0.0350  0.5173
  592MOL0     C78025  10.013   4.720  10.087  0.4530  1.0233 -0.5911
  592MOL0     C78026   9.870   4.678  10.098  0.4353  0.4871  0.0525
  592MOL0     C78027   9.780   4.804  10.086 -0.0707 -0.1916  0.3066
  592MOL0     C78028   9.766   4.848   9.937  0.3462  0.9069 -0.5632
  592MOL0     N78029   9.673   4.778   9.845 -0.2928 -0.4603 -0.4606
  592MOL0     C78030   9.637   4.816   9.721 -0.9638 -0.1008 -0.2786
  592MOL0     C78031   9.581   4.709   9.659 -0.2881 -0.0403 -0.5775
  592MOL0     C78032   9.535   4.694   9.517 -0.5395 -0.0108 -0.5041
  592MOL0     C78033   9.416   4.592   9.495 -0.4742 -0.1060  0.0403
  592MOL0     C78034   9.463   4.448   9.454  0.1829 -0.2278  0.9464
  592MOL0     C78035   9.347   4.360   9.400  0.5558  0.7368 -0.0411
  592MOL0     O78036   9.318   4.390   9.263 -0.0158 -1.1246 -0.3788
  592MOL0     C78037   9.196   4.363   9.212  0.6696  0.1715  0.3752
  592MOL0     C78038   9.095   4.282   9.271  0.1960  1.1020  0.4369
  592MOL0     C78039   8.966   4.277   9.216 -0.3628  0.1314 -0.0820
  592MOL0     C78040   8.938   4.345   9.098 -0.2267 -0.1943 -0.2024
  592MOL0     C78041   8.801   4.339   9.042  0.6017 -0.2956 -0.3011
  592MOL0     O78042   8.784   4.408   8.922 -0.4444 -0.6735  1.0528
  592MOL0     C78043   8.661   4.430   8.865  0.6694 -0.3948 -0.5516
  592MOL0     C78044   8.542   4.451   8.958  0.4460 -0.3442  0.2664
  592MOL0     C78045   8.410   4.468   8.906 -0.1399  0.2684  0.1908
  592MOL0     C78046   8.394   4.488   8.766 -0.1980  0.1925  0.5432
  592MOL0     O78047   8.279   4.508   8.700 -0.3954 -0.5944 -0.4556
  592MOL0     C78048   8.169   4.558   8.781 -0.8898  0.0369  0.5239
  592MOL0     C78049   8.061   4.591   8.670 -0.4183  0.4114  0.0419
  592MOL0     C78050   7.936   4.648   8.737 -0.4165  0.1736  0.8416
  592MOL0     C78051   7.834   4.688   8.630  0.5441  0.5200 -0.4258
  592MOL0     C78052   7.710   4.753   8.688 -0.2846 -0.4157 -0.4783
  592MOL0     C78053   7.590   4.746   8.602  0.7977  0.1511 -1.1665
  592MOL0     C78054   7.520   4.607   8.619 -0.8517  1.1296  0.1129
  592MOL0     C78055   7.389   4.605   8.556  0.1733 -1.4807  0.7732
  592MOL0    Cl78056   7.274   4.711   8.636  0.1290 -0.0557 -0.3175
  592MOL0     C78057   8.504   4.476   8.674 -0.2465 -0.1690 -0.6511
  592MOL0     C78058   8.633   4.443   8.725 -0.0694 -0.1825  0.1446
  592MOL0     O78059   8.712   4.272   9.094 -0.0579  0.3266 -0.0721
  592MOL0     C78060   9.040   4.409   9.035 -0.4224  0.1242 -0.6637
  592MOL0     C78061   9.168   4.420   9.092 -0.0544 -0.0458  0.2550
  592MOL0     N78062   9.577   4.607   9.756 -0.4079 -0.2664 -0.1302
  592MOL0     N78063   9.636   4.649   9.864 -0.3102  0.0311  0.4683
  592MOL0     C78064  10.794   4.488  10.166 -0.9196 -0.7241  0.5346
  592MOL0     C78065  10.927   4.495  10.114  0.5356  0.1532 -0.1327
  592MOL0     C78066  11.333   4.411   9.995 -0.3536  0.9539  0.3057
  592MOL0     C78067  11.363   4.453   9.863 -0.0635  0.0352 -0.2497
  592MOL0     C78068  11.494   4.489   9.828  0.2125 -0.1259 -0.7566
  592MOL0     C78069  11.603   4.467   9.919  0.8720 -0.1803  1.4209
  592MOL0     O78070  11.737   4.499   9.875  0.2576 -0.0934 -1.0300
  592MOL0     C78071  11.831   4.575   9.955 -0.3888 -0.3427 -0.1934
  592MOL0     C78072  11.914   4.666   9.858  0.3091 -0.2079 -0.1515
  592MOL0     C78073  11.969   4.582   9.739  0.6050 -0.1051 -0.0951
  592MOL0     C78074  12.091   4.650   9.672 -1.1258  0.7821 -0.0530
  592MOL0     C78075  12.211   4.672   9.764  0.6644  0.5075  0.4907
  592MOL0     C78076  12.309   4.694   9.822 -0.2272 -0.5997 -1.6359
  592MOL0     C78077  11.575   4.417  10.047 -1.2953 -0.0184  0.4418
  592MOL0     C78078  11.446   4.382  10.081 -0.0875  0.4178  0.2973
  592MOL0     H78079  10.893   4.327   9.830 -2.5821  1.4312 -0.8498
  592MOL0     H78080  10.665   4.308   9.912 -0.5723 -0.2745  1.7464
  592MOL0     H78081  10.513   4.558  10.001  2.7974 -0.3240  0.5268
  592MOL0     H78082  10.551   4.623  10.162  2.3695 -1.1103 -0.7743
  592MOL0     H78083  10.339   4.494  10.244 -0.0411 -1.7005 -0.9604
  592MOL0     H78084  10.313   4.423  10.091  1.8529 -1.5917  0.5886
  592MOL0     H78085  10.281   4.656   9.976  1.1040  0.9100 -0.1190
  592MOL0     H78086  10.298   4.721  10.139 -0.3911  0.8268 -1.4383
  592MOL0     H78087  10.077   4.527  10.034 -0.1743 -0.7098  1.1388
  592MOL0     H78088  10.104   4.557  10.204 -0.7257 -1.3448 -0.0762
  592MOL0     H78089  10.040   4.778   9.998  6.2873  3.0285  1.9974
  592MOL0     H78090  10.018   4.793  10.169  0.1722 -1.0003  1.3120
  592MOL0     H78091   9.854   4.623  10.191  0.4208  0.7348  0.1965
  592MOL0     H78092   9.834   4.618  10.013  3.1941  0.8132 -1.4547
  592MOL0     H78093   9.685   4.771  10.127  0.2193 -0.8553  0.4521
  592MOL0     H78094   9.826   4.891  10.134 -0.0085  1.0490 -1.8607
  592MOL0     H78095   9.865   4.828   9.895  0.4845  2.0966 -0.8464
  592MOL0     H78096   9.745   4.955   9.930  0.2265  0.8633 -0.9042
  592MOL0     H78097   9.667   4.904   9.665 -1.7544  0.0178 -0.5218
  592MOL0     H78098   9.615   4.664   9.449 -1.8663  0.4644 -2.3726
  592MOL0     H78099   9.523   4.802   9.502  3.5527  1.2395  3.1271
  592MOL0     H78100   9.343   4.626   9.421 -4.5264 -2.3491  2.6127
  592MOL0     H78101   9.357   4.595   9.587 -0.7619 -0.1455 -0.1424
  592MOL0     H78102   9.537   4.449   9.373 -0.8242  0.8529  0.0089
  592MOL0     H78103   9.515   4.393   9.533  1.3742 -1.3992 -0.5754
  592MOL0     H78104   9.264   4.368   9.471  0.0478 -0.2891 -0.5052
  592MOL0     H78105   9.371   4.254   9.406  0.3881  0.7458  0.9013
  592MOL0     H78106   9.111   4.210   9.351 -0.5541  1.5176  0.9737
  592MOL0     H78107   8.888   4.227   9.271  0.4408 -0.2585  0.7233
  592MOL0     H78108   8.557   4.456   9.066 -0.3606 -1.3638  0.4400
  592MOL0     H78109   8.328   4.478   8.977  0.8578  3.3365  1.0853
  592MOL0     H78110   8.197   4.653   8.825 -1.6650 -0.5111  2.2836
  592MOL0     H78111   8.132   4.491   8.860  0.2661 -1.0736  0.1555
  592MOL0     H78112   8.034   4.498   8.620  1.2888 -0.0456 -0.0943
  592MOL0     H78113   8.098   4.652   8.587  0.7141  0.9383  0.9006
  592MOL0     H78114   7.965   4.720   8.814 -1.7397  1.2091  0.4019
  592MOL0     H78115   7.902   4.563   8.798  0.7076  0.7660  2.3593
  592MOL0     H78116   7.872   4.752   8.551  1.0133 -0.4319 -0.9955
  592MOL0     H78117   7.784   4.600   8.589 -0.7501  0.0499  1.9468
  592MOL0     H78118   7.746   4.854   8.709  1.0039 -0.7951 -0.7887
  592MOL0     H78119   7.686   4.709   8.785  1.0773 -2.3726 -0.9611
  592MOL0     H78120   7.620   4.770   8.500  2.5051  0.5348 -0.6011
  592MOL0     H78121   7.518   4.825   8.626 -0.8410 -2.0183  1.9161
  592MOL0     H78122   7.584   4.527   8.581  1.0569  1.1177  3.0650
  592MOL0     H78123   7.504   4.579   8.724 -1.4587 -0.7833 -0.4556
  592MOL0     H78124   7.354   4.501   8.560  1.4710 -1.9330  0.9450
  592MOL0     H78125   7.401   4.632   8.451 -2.1232 -2.1341  0.2903
  592MOL0     H78126   8.479   4.477   8.569  1.2600 -1.9399 -1.0738
  592MOL0     H78127   8.713   4.434   8.652 -0.0767 -0.5726  0.1869
  592MOL0     H78128   9.020   4.469   8.947 -0.7795 -1.5226 -1.7549
  592MOL0     H78129   9.244   4.479   9.040  2.5175  0.3834  4.1073
  592MOL0     H78130  10.769   4.549  10.253 -2.7308 -0.3394 -0.2036
  592MOL0     H78131  11.002   4.547  10.172  1.4817 -1.0633 -0.2292
  592MOL0     H78132  11.290   4.472   9.785  0.5081  0.7118 -0.6312
  592MOL0     H78133  11.524   4.525   9.730 -1.7092 -1.6943 -1.9903
  592MOL0     H78134  11.895   4.516  10.022  0.7331  0.4750 -0.5120
  592MOL0     H78135  11.781   4.635  10.031 -1.0089  1.0707 -1.6588
  592MOL0     H78136  11.856   4.748   9.816 -1.0267 -0.7416  0.5872
  592MOL0     H78137  11.994   4.706   9.921 -0.0862  0.9561 -0.3716
  592MOL0     H78138  11.892   4.564   9.664  2.3583 -0.0726 -1.9687
  592MOL0     H78139  11.997   4.483   9.778  0.8027 -0.6441 -1.5365
  592MOL0     H78140  12.121   4.582   9.592 -0.7934  2.0700 -1.0524
  592MOL0     H78141  12.052   4.741   9.626 -3.4397  0.9718  2.0693
  592MOL0     H78142  12.398   4.715   9.877 -2.2266 -0.0340  1.5922
  592MOL0     H78143  11.656   4.409  10.120 -0.8626 -0.7352 -0.1058
  592MOL0     H78144  11.436   4.339  10.180  0.9955 -1.1241 -0.2396
  593MOL0     O78145   7.885   0.579   2.306 -0.0037  0.0810 -0.2244
  593MOL0     C78146   7.953   0.563   2.210  0.4743 -0.7412 -0.2558
  593MOL0     O78147   7.911   0.571   2.076 -0.2062  0.1974 -0.4405
  593MOL0     C78148   7.777   0.565   2.036  0.3587  0.8088 -0.7634
  593MOL0     C78149   7.732   0.640   1.930 -0.3846 -0.6438  0.4876
  593MOL0     C78150   7.604   0.656   1.898  0.3295  0.1187 -0.4162
  593MOL0     C78151   7.504   0.590   1.968 -0.4559  0.5906 -0.7738
  593MOL0     O78152   7.369   0.601   1.935 -0.2536 -0.6692 -0.6234
  593MOL0     C78153   7.318   0.685   1.826  0.0725 -0.4644 -0.2706
  593MOL0     C78154   7.326   0.607   1.696 -0.2674 -0.3487  0.1779
  593MOL0     C78155   7.219   0.498   1.673 -0.0780  0.2131  0.0081
  593MOL0     C78156   7.213   0.389   1.769  0.1030 -0.0631  1.1412
  593MOL0     C78157   7.097   0.288   1.747 -1.1806 -0.3850 -0.4036
  593MOL0     C78158   7.140   0.166   1.660 -0.2940 -0.0800  0.3453
  593MOL0     C78159   7.021   0.068   1.623 -0.6768 -0.0345  0.2654
  593MOL0     C78160   7.053  -0.032   1.508 -0.0608  0.3369  0.1853
  593MOL0     N78161   7.098   0.034   1.387  0.3853  0.3734 -0.1064
  593MOL0     C78162   7.025   0.118   1.307 -0.2309  0.2228 -1.0918
  593MOL0     C78163   7.113   0.139   1.207  0.0775 -0.6418 -0.4852
  593MOL0     C78164   7.085   0.235   1.094  0.3543 -0.1157 -0.1525
  593MOL0     C78165   7.136   0.379   1.134 -0.6137  0.3846  0.5298
  593MOL0     C78166   7.281   0.394   1.080  0.0161  0.5101  0.1463
  593MOL0     C78167   7.335   0.536   1.097  0.4809  0.4032 -0.1934
  593MOL0     O78168   7.331   0.564   1.238  0.0626 -0.1147 -0.2454
  593MOL0     C78169   7.445   0.629   1.274 -0.6342 -0.3308 -0.0106
  593MOL0     C78170   7.484   0.747   1.202  0.2364 -0.3323 -0.2635
  593MOL0     C78171   7.588   0.832   1.249 -1.6237  0.3567  0.0784
  593MOL0     C78172   7.653   0.790   1.371 -0.0915  0.2527  0.0371
  593MOL0     C78173   7.745   0.889   1.440 -0.4469 -1.0919 -0.7920
  593MOL0     O78174   7.784   0.992   1.357 -0.8592 -0.1505  0.4176
  593MOL0     C78175   7.887   1.066   1.404  0.0419 -0.3145  0.1477
  593MOL0     C78176   8.014   1.040   1.353  0.7448  0.8003 -0.3030
  593MOL0     C78177   8.128   1.097   1.425  0.7627 -0.3980 -0.4119
  593MOL0     C78178   8.105   1.185   1.533  0.9617  0.4247  0.3015
  593MOL0     O78179   8.224   1.244   1.581  0.1027 -0.2550  0.4628
  593MOL0     C78180   8.248   1.215   1.712 -1.0344  0.8799 -0.0235
  593MOL0     C78181   8.366   1.122   1.727  0.0597  0.4045 -0.1792
  593MOL0     C78182   8.505   1.171   1.659  0.1326 -0.4048  0.2334
  593MOL0     C78183   8.632   1.092   1.702  0.1958  0.7063 -0.1659
  593MOL0     C78184   8.756   1.113   1.616 -0.1159 -1.0255 -0.4047
  593MOL0     C78185   8.866   1.194   1.686 -1.0638  0.0738  0.2954
  593MOL0     C78186   8.984   1.227   1.595  0.2171  0.4164  1.2399
  593MOL0     C78187   9.073   1.332   1.665 -0.2032  0.0980  1.1540
  593MOL0    Cl78188   9.205   1.381   1.550  0.2484 -0.5074 -0.2335
  593MOL0     C78189   7.973   1.221   1.571  0.6568 -0.5733 -0.3611
  593MOL0     C78190   7.864   1.146   1.516  0.7986 -0.8524 -0.0990
  593MOL0     O78191   7.802   0.855   1.544  0.8247 -0.1018 -0.0999
  593MOL0     C78192   7.612   0.675   1.447  0.2635  1.1966 -0.2850
  593MOL0     C78193   7.501   0.601   1.397 -0.7178 -0.0456  0.9271
  593MOL0     N78194   7.222   0.060   1.222 -0.6159  0.3637  1.0395
  593MOL0     N78195   7.218  -0.004   1.332 -0.1702 -0.7967 -0.1601
  593MOL0     C78196   7.550   0.503   2.068 -0.0931  0.8733  0.0094
  593MOL0     C78197   7.681   0.489   2.108  0.0607 -1.3895 -0.2146
  593MOL0     C78198   8.091   0.522   2.238 -0.1159 -0.2830 -0.0039
  593MOL0     C78199   8.191   0.555   2.149 -0.1354 -0.2566  0.7215
  593MOL0     C78200   8.324   0.516   2.170 -0.2884  0.5872 -0.6562
  593MOL0     C78201   8.362   0.458   2.286 -0.2502  0.9508 -0.9751
  593MOL0     O78202   8.497   0.450   2.303  0.4223 -0.4257 -0.3294
  593MOL0     C78203   8.554   0.406   2.423  0.0815  0.3767 -0.6752
  593MOL0     C78204   8.559   0.254   2.433 -0.1573 -0.5243  0.0426
  593MOL0     C78205   8.623   0.199   2.566 -0.0596  0.8865  0.3172
  593MOL0     C78206   8.549   0.254   2.700 -0.4528  0.6284  0.4060
  593MOL0     C78207   8.408   0.204   2.700  0.1085 -1.0573 -0.9536
  593MOL0     C78208   8.297   0.163   2.705 -0.0530  0.4572 -0.2314
  593MOL0     C78209   8.258   0.422   2.376 -1.3714  0.0579 -0.6354
  593MOL0     C78210   8.127   0.460   2.359  0.0155 -0.1888 -0.1511
  593MOL0     H78211   7.796   0.709   1.876  1.3515  0.0038  3.1669
  593MOL0     H78212   7.587   0.719   1.811  0.1238 -2.4688 -2.3859
  593MOL0     H78213   7.372   0.779   1.812  2.3043 -1.8364 -1.5962
  593MOL0     H78214   7.214   0.713   1.845 -0.2949 -0.6926 -1.7817
  593MOL0     H78215   7.425   0.564   1.677 -1.4584 -2.1866 -2.2302
  593MOL0     H78216   7.323   0.679   1.614  0.5662 -1.0307 -0.4707
  593MOL0     H78217   7.234   0.458   1.573  1.4879 -0.5062  0.5048
  593MOL0     H78218   7.121   0.546   1.685  0.6481  1.3851  1.7085
  593MOL0     H78219   7.310   0.338   1.765  0.6709  1.0496 -1.8219
  593MOL0     H78220   7.203   0.428   1.871 -1.0326  1.2287  0.5655
  593MOL0     H78221   7.018   0.338   1.689 -3.2285 -3.1210 -0.1526
  593MOL0     H78222   7.056   0.250   1.841  2.7336  0.8828  2.0198
  593MOL0     H78223   7.222   0.109   1.706  0.5535  0.8001 -0.0309
  593MOL0     H78224   7.177   0.206   1.566 -1.4730  3.0484  1.0907
  593MOL0     H78225   6.992   0.007   1.710  1.3663 -1.4135  0.0654
  593MOL0     H78226   6.943   0.141   1.600  0.5114  1.5318  1.0096
  593MOL0     H78227   6.959  -0.084   1.486 -0.3389  1.1444 -0.5897
  593MOL0     H78228   7.113  -0.108   1.558  3.3108  1.5788 -1.6821
  593MOL0     H78229   6.929   0.167   1.320  1.0036  3.2430 -2.3983
  593MOL0     H78230   6.977   0.226   1.080 -0.0502 -1.3016  2.8844
  593MOL0     H78231   7.145   0.203   1.008  1.9311  0.1368  0.8141
  593MOL0     H78232   7.140   0.391   1.243 -1.3209  0.3056  0.5704
  593MOL0     H78233   7.066   0.457   1.101  1.1474  1.6649 -0.3179
  593MOL0     H78234   7.350   0.322   1.123  0.2131 -0.5259 -1.7982
  593MOL0     H78235   7.282   0.373   0.973  1.9566  0.5903  0.1081
  593MOL0     H78236   7.272   0.603   1.038 -1.0625 -2.4879 -2.0675
  593MOL0     H78237   7.438   0.539   1.058  1.5798 -1.8703  2.2219
  593MOL0     H78238   7.450   0.786   1.107 -0.9685  2.5839  1.1988
  593MOL0     H78239   7.638   0.915   1.200  3.1878 -2.6683 -0.7937
  593MOL0     H78240   8.016   0.967   1.273 -0.3121  1.2361 -0.7469
  593MOL0     H78241   8.235   1.087   1.406  1.0658 -0.0492  0.9955
  593MOL0     H78242   8.166   1.183   1.778  1.0222  2.4997  3.6492
  593MOL0     H78243   8.278   1.314   1.749 -2.2712  2.0077 -1.8524
  593MOL0     H78244   8.334   1.024   1.690 -0.2080  1.5701 -3.2617
  593MOL0     H78245   8.384   1.109   1.834 -0.5501 -1.5018 -0.2645
  593MOL0     H78246   8.519   1.279   1.675  3.3389 -0.3467 -2.0326
  593MOL0     H78247   8.490   1.167   1.551  1.5481  0.5447 -0.0307
  593MOL0     H78248   8.649   1.124   1.805  1.0953 -0.1493 -0.0333
  593MOL0     H78249   8.601   0.987   1.692 -3.1591  1.4472  0.9810
  593MOL0     H78250   8.731   1.157   1.518  0.4291 -0.2645 -0.2180
  593MOL0     H78251   8.805   1.015   1.607 -0.6258 -1.5652  2.0462
  593MOL0     H78252   8.902   1.150   1.780 -2.5508 -2.2685 -0.1457
  593MOL0     H78253   8.812   1.287   1.709 -0.9190  0.1880  0.1768
  593MOL0     H78254   9.037   1.136   1.565  1.3400  1.3494  0.3003
  593MOL0     H78255   8.939   1.264   1.502  2.7532 -1.7797 -1.0394
  593MOL0     H78256   9.109   1.284   1.756 -0.7251 -0.4603  1.0787
  593MOL0     H78257   9.012   1.414   1.702 -3.8990 -1.7892 -0.1551
  593MOL0     H78258   7.953   1.293   1.650  2.2301  0.1734 -0.6036
  593MOL0     H78259   7.761   1.156   1.550 -0.3075  0.0960 -3.3609
  593MOL0     H78260   7.659   0.657   1.543 -1.4431 -2.1469  0.0606
  593MOL0     H78261   7.472   0.517   1.460  1.2978 -1.7413 -0.2796
  593MOL0     H78262   7.470   0.454   2.122 -0.4185  0.2547 -1.0000
  593MOL0     H78263   7.698   0.447   2.206 -0.4648 -2.2581 -0.4865
  593MOL0     H78264   8.154   0.605   2.061 -0.6397 -1.2366  0.3653
  593MOL0     H78265   8.404   0.550   2.105 -0.2811  0.4156 -0.7407
  593MOL0     H78266   8.487   0.447   2.500  0.0451  0.3582 -0.6972
  593MOL0     H78267   8.653   0.448   2.440  0.3699 -0.1392 -1.0641
  593MOL0     H78268   8.454   0.227   2.423  0.0898 -0.6370 -3.0979
  593MOL0     H78269   8.621   0.217   2.351  0.5120 -3.2650  1.6401
  593MOL0     H78270   8.728   0.229   2.569  0.3170  0.0033 -2.1078
  593MOL0     H78271   8.615   0.091   2.552 -2.5478  1.2404 -1.7127
  593MOL0     H78272   8.586   0.207   2.791  1.1548  1.9764  0.4778
  593MOL0     H78273   8.568   0.360   2.719  0.2262  0.0403  3.5159
  593MOL0     H78274   8.204   0.110   2.712  1.1645 -1.6029  5.5586
  593MOL0     H78275   8.285   0.381   2.473 -0.8839 -1.8471 -1.5183
  593MOL0     H78276   8.055   0.443   2.438 -2.2781  1.0190 -1.8582
  594MOL0     O78277   3.288   7.208   7.770  0.1669 -0.2987  0.2053
  594MOL0     C78278   3.355   7.307   7.751 -0.7453 -0.3604 -0.0402
  594MOL0     O78279   3.331   7.402   7.654  0.2545  0.5856 -0.2179
  594MOL0     C78280   3.205   7.415   7.608 -0.7153  0.0586 -0.0678
  594MOL0     C78281   3.189   7.457   7.477 -0.1315 -0.0960  0.4476
  594MOL0     C78282   3.060   7.490   7.434 -0.0100 -0.4354  1.0815
  594MOL0     C78283   2.951   7.485   7.512  0.9807 -0.4138 -0.3510
  594MOL0     O78284   2.823   7.517   7.476 -0.2655 -0.4202 -0.7739
  594MOL0     C78285   2.785   7.437   7.362  0.0549  0.0821 -0.8247
  594MOL0     C78286   2.649   7.364   7.392  0.3878  1.0102 -0.8569
  594MOL0     C78287   2.539   7.458   7.454 -0.3783  0.3478  0.3189
  594MOL0     C78288   2.400   7.398   7.461 -0.1910  1.0598  0.0809
  594MOL0     C78289   2.300   7.501   7.523 -0.0877  0.8197 -0.3235
  594MOL0     C78290   2.156   7.461   7.507 -0.0574 -0.3685 -0.1229
  594MOL0     C78291   2.060   7.565   7.567  0.3769  0.0730  0.4835
  594MOL0     C78292   1.909   7.524   7.563 -0.1953  0.4398 -0.4724
  594MOL0     N78293   1.815   7.621   7.613  0.4848  0.2208  0.4091
  594MOL0     C78294   1.678   7.600   7.638  0.0389  0.1776 -0.1314
  594MOL0     C78295   1.646   7.694   7.728 -0.5760 -0.3954  0.6353
  594MOL0     C78296   1.521   7.710   7.810  0.3260  0.2202 -0.4988
  594MOL0     C78297   1.491   7.858   7.848 -0.6106 -0.0647  0.9467
  594MOL0     C78298   1.359   7.887   7.911  0.9033  0.7173  0.1781
  594MOL0     C78299   1.235   7.856   7.833  0.4621  0.3747  0.4867
  594MOL0     O78300   1.211   7.712   7.856 -0.1050 -0.1679  0.7388
  594MOL0     C78301   1.111   7.663   7.940 -0.5208 -0.1936 -0.6034
  594MOL0     C78302   0.974   7.701   7.947 -0.2052  0.4639  0.2123
  594MOL0     C78303   0.886   7.647   8.039 -0.3458 -1.0440  0.0909
  594MOL0     C78304   0.928   7.565   8.145  0.2287 -0.3728 -0.5482
  594MOL0     C78305   0.837   7.529   8.258 -0.8429 -0.1673 -0.0255
  594MOL0     O78306   0.701   7.554   8.248  0.2718 -0.2895 -0.9613
  594MOL0     C78307   0.615   7.518   8.353 -0.0361  0.2230 -0.1687
  594MOL0     C78308   0.643   7.489   8.491 -0.7538 -0.8936 -0.0888
  594MOL0     C78309   0.541   7.446   8.579  0.5733 -0.1304 -0.1408
  594MOL0     C78310   0.411   7.448   8.531  0.7794 -0.3563  0.2897
  594MOL0     O78311   0.310   7.407   8.615 -0.0411  0.1447 -0.1481
  594MOL0     C78312   0.281   7.272   8.604  0.4526  0.3398 -0.1572
  594MOL0     C78313   0.126   7.246   8.603 -0.1544 -0.5085 -1.0772
  594MOL0     C78314   0.070   7.307   8.474  0.0192 -0.3365  0.1009
  594MOL0     C78315  -0.076   7.300   8.475 -0.1234 -0.2081  0.0881
  594MOL0     C78316  -0.150   7.335   8.342 -0.4323 -0.1370  0.2933
  594MOL0     C78317  -0.308   7.323   8.352 -0.0289  0.6998  0.0207
  594MOL0     C78318  -0.357   7.181   8.380  0.3454 -0.5160  0.1668
  594MOL0     C78319  -0.505   7.175   8.420  0.2217 -0.4516  0.3240
  594MOL0    Cl78320  -0.592   7.271   8.290  0.1748 -0.3392 -0.0323
  594MOL0     C78321   0.381   7.480   8.397 -0.3123  0.3947 -0.2705
  594MOL0     C78322   0.487   7.508   8.308 -0.0526  0.9406  0.0571
  594MOL0     O78323   0.896   7.490   8.355  0.1050  0.4351 -0.1327
  594MOL0     C78324   1.067   7.540   8.143  0.1328 -0.0053 -0.5714
  594MOL0     C78325   1.148   7.573   8.038  0.1393  0.7749  0.0664
  594MOL0     N78326   1.755   7.770   7.759 -0.1337  0.0576 -0.0626
  594MOL0     N78327   1.852   7.733   7.683 -0.0536 -0.3129 -0.3500
  594MOL0     C78328   2.961   7.426   7.640 -0.4829  0.6914 -0.0839
  594MOL0     C78329   3.092   7.398   7.681  0.0095  0.2650 -0.6316
  594MOL0     C78330   3.488   7.303   7.805  0.0401  0.0455  0.7888
  594MOL0     C78331   3.516   7.229   7.922  0.6040 -0.7313  0.0995
  594MOL0     C78332   3.636   7.236   7.984 -0.4567  1.2255 -0.4987
  594MOL0     C78333   3.744   7.291   7.916 -0.5666  0.0477  0.6376
  594MOL0     O78334   3.870   7.300   7.973 -0.7817  0.0375  0.5546
  594MOL0     C78335   3.891   7.235   8.104 -0.4152 -0.5853  0.1848
  594MOL0     C78336   4.032   7.197   8.117 -0.8138  0.3825 -0.0612
  594MOL0     C78337   4.141   7.306   8.126  0.5522  0.8807 -0.4716
  594MOL0     C78338   4.133   7.390   8.260 -1.0134  0.7197  0.5661
  594MOL0     C78339   4.157   7.302   8.370 -0.0707 -0.2547 -0.7053
  594MOL0     C78340   4.169   7.232   8.465  0.5542 -0.4224 -1.1307
  594MOL0     C78341   3.722   7.363   7.797  0.1315 -0.1767  0.7274
  594MOL0     C78342   3.596   7.371   7.744  0.8924 -0.3525 -0.4417
  594MOL0     H78343   3.270   7.474   7.408 -0.7056  0.8055 -0.0227
  594MOL0     H78344   3.032   7.519   7.334 -3.6404 -0.5913  1.9038
  594MOL0     H78345   2.862   7.370   7.323 -0.2596 -2.1854  2.1028
  594MOL0     H78346   2.762   7.507   7.281 -1.4342 -0.4985 -0.9446
  594MOL0     H78347   2.674   7.290   7.468  3.0294  1.0163 -1.6242
  594MOL0     H78348   2.611   7.313   7.303  0.2651  0.9691 -0.7829
  594MOL0     H78349   2.551   7.551   7.396  1.3364  1.4166  2.2632
  594MOL0     H78350   2.558   7.490   7.557  0.0802 -1.3237  0.7797
  594MOL0     H78351   2.366   7.379   7.359  0.8187  2.3030 -0.5156
  594MOL0     H78352   2.390   7.306   7.519  0.6648 -0.8819 -2.6619
  594MOL0     H78353   2.321   7.584   7.456 -0.2027  0.7849 -0.4032
  594MOL0     H78354   2.309   7.531   7.627 -2.4661 -1.3019  0.6069
  594MOL0     H78355   2.144   7.375   7.573  1.7421 -4.7877 -4.9370
  594MOL0     H78356   2.138   7.425   7.405  1.6321 -0.4190 -0.4204
  594MOL0     H78357   2.089   7.596   7.668 -1.7628 -0.5649  1.3462
  594MOL0     H78358   2.063   7.658   7.508 -2.0949  1.8709  2.9486
  594MOL0     H78359   1.903   7.436   7.627  1.7281  0.7392  0.1670
  594MOL0     H78360   1.877   7.498   7.462 -0.8782 -0.3681 -0.0654
  594MOL0     H78361   1.620   7.513   7.610 -1.5212  0.4872  1.8672
  594MOL0     H78362   1.534   7.654   7.904 -0.5804 -0.3445 -0.6906
  594MOL0     H78363   1.437   7.657   7.763 -1.0443 -0.2153  2.2527
  594MOL0     H78364   1.493   7.914   7.754 -2.1735 -1.1712  0.2037
  594MOL0     H78365   1.561   7.912   7.912 -4.8659  0.7699  5.4148
  594MOL0     H78366   1.355   7.836   8.008  0.9735  1.8745  0.8114
  594MOL0     H78367   1.349   7.989   7.950  2.9683 -0.2932  3.8463
  594MOL0     H78368   1.266   7.883   7.732  1.9857 -0.1916  0.7654
  594MOL0     H78369   1.146   7.910   7.867 -0.0427  0.4509 -0.9005
  594MOL0     H78370   0.952   7.763   7.860  1.5988  0.6525 -0.1441
  594MOL0     H78371   0.784   7.684   8.029 -0.8813 -2.4583  0.0763
  594MOL0     H78372   0.743   7.486   8.532 -0.1178  1.9352 -1.2077
  594MOL0     H78373   0.568   7.420   8.681 -1.0736 -1.4963 -0.0109
  594MOL0     H78374   0.315   7.225   8.697 -1.6069  1.3059  1.1452
  594MOL0     H78375   0.323   7.224   8.515 -0.8168  1.1485 -1.2276
  594MOL0     H78376   0.087   7.292   8.695  0.3020 -3.5497  0.7828
  594MOL0     H78377   0.113   7.138   8.621 -0.2064 -0.1094  1.8600
  594MOL0     H78378   0.116   7.245   8.396  0.8980  0.1964  0.1772
  594MOL0     H78379   0.100   7.412   8.468  1.8712 -0.8049  0.4032
  594MOL0     H78380  -0.099   7.195   8.495  1.2959 -0.3237  1.2972
  594MOL0     H78381  -0.110   7.360   8.561 -1.0255  0.3016 -0.6016
  594MOL0     H78382  -0.111   7.269   8.263  1.7246 -0.5807  1.6338
  594MOL0     H78383  -0.124   7.438   8.318 -0.9817 -0.2108 -0.6624
  594MOL0     H78384  -0.335   7.351   8.250  2.6377 -1.2089 -1.3403
  594MOL0     H78385  -0.344   7.393   8.429 -0.9845  2.1882 -1.7059
  594MOL0     H78386  -0.330   7.130   8.288 -2.7819  0.6212 -1.5365
  594MOL0     H78387  -0.303   7.137   8.464  1.6406 -2.6205 -1.6681
  594MOL0     H78388  -0.516   7.224   8.517 -1.8158 -0.1022 -0.0434
  594MOL0     H78389  -0.537   7.071   8.433 -0.7716 -0.1532  0.3614
  594MOL0     H78390   0.275   7.474   8.375 -1.3948  0.3115  4.0727
  594MOL0     H78391   0.457   7.536   8.207  1.0166 -1.4309 -0.9829
  594MOL0     H78392   1.115   7.472   8.212  0.4754  0.6952 -0.1025
  594MOL0     H78393   1.251   7.540   8.042 -0.1329 -0.0996  0.1299
  594MOL0     H78394   2.873   7.414   7.702 -1.1940  3.4183 -0.4304
  594MOL0     H78395   3.103   7.350   7.777 -0.5566 -0.9779 -1.1659
  594MOL0     H78396   3.436   7.179   7.976 -1.1623 -1.1863 -2.7279
  594MOL0     H78397   3.631   7.186   8.080 -1.0696  1.6851 -0.2810
  594MOL0     H78398   3.844   7.137   8.117 -0.3367 -0.3770  2.3205
  594MOL0     H78399   3.855   7.294   8.188 -0.7786  1.7670 -1.5269
  594MOL0     H78400   4.033   7.138   8.209 -2.2195  1.2946  0.5774
  594MOL0     H78401   4.053   7.142   8.025  0.1938  0.0149  0.3765
  594MOL0     H78402   4.123   7.376   8.044 -0.7377  2.7891  1.3418
  594MOL0     H78403   4.240   7.259   8.125  0.5822  0.9241  0.1030
  594MOL0     H78404   4.201   7.475   8.261  0.3324 -0.3202  1.1169
  594MOL0     H78405   4.032   7.431   8.267 -0.3947  2.1361  1.7064
  594MOL0     H78406   4.172   7.170   8.552 -0.4118 -0.4506 -1.1056
  594MOL0     H78407   3.802   7.405   7.738 -0.1531 -2.6898 -1.6069
  594MOL0     H78408   3.588   7.422   7.649  1.8616 -1.0727 -0.9297
  595MOL0     O78409   1.046   5.941   0.948  0.3862  0.0424  0.2004
  595MOL0     C78410   1.087   5.857   1.032  0.4944 -0.7439  0.1032
  595MOL0     O78411   1.006   5.775   1.096  0.1874  0.4395  0.4212
  595MOL0     C78412   0.874   5.766   1.082  0.4517  0.2079  0.7775
  595MOL0     C78413   0.783   5.844   1.003  1.1458  0.2926 -1.0124
  595MOL0     C78414   0.645   5.820   1.016  0.9628  0.5335 -1.0122
  595MOL0     C78415   0.591   5.714   1.100  0.0778 -0.1370  0.4603
  595MOL0     O78416   0.466   5.707   1.137 -0.6187 -0.8003  0.3257
  595MOL0     C78417   0.401   5.590   1.167 -0.3110 -0.8049  0.4765
  595MOL0     C78418   0.251   5.619   1.162 -0.0230  0.3030  0.0499
  595MOL0     C78419   0.165   5.511   1.232 -0.1156 -0.3440  0.4598
  595MOL0     C78420   0.016   5.553   1.249 -0.6268 -0.0170 -0.5230
  595MOL0     C78421  -0.092   5.441   1.279 -0.1130 -0.5033 -0.1873
  595MOL0     C78422  -0.176   5.413   1.151  0.3022  0.2770 -0.5618
  595MOL0     C78423  -0.249   5.266   1.142  0.4795  0.1711  0.9529
  595MOL0     C78424  -0.309   5.236   1.003  0.0452 -0.1174  0.5647
  595MOL0     N78425  -0.423   5.335   0.972 -0.5738  0.7339 -0.3025
  595MOL0     C78426  -0.418   5.466   0.933  0.2490 -1.0163 -0.7766
  595MOL0     C78427  -0.544   5.504   0.918 -0.4691  0.2331  0.5652
  595MOL0     C78428  -0.590   5.648   0.894  0.2489  0.4622 -0.1261
  595MOL0     C78429  -0.717   5.668   0.818  0.0453  0.1278 -0.3009
  595MOL0     C78430  -0.835   5.661   0.910 -0.1357 -0.2618  0.8849
  595MOL0     C78431  -0.962   5.675   0.822 -1.2015 -0.2689 -0.0101
  595MOL0     O78432  -0.990   5.807   0.772  0.7399 -0.6580  0.4151
  595MOL0     C78433  -1.119   5.830   0.714 -0.5317  0.8302 -0.1360
  595MOL0     C78434  -1.210   5.719   0.694  0.0822 -0.5582  0.1503
  595MOL0     C78435  -1.337   5.747   0.626  0.5032 -0.5353  0.4083
  595MOL0     C78436  -1.374   5.876   0.589 -0.2479  0.5028 -0.0558
  595MOL0     C78437  -1.518   5.918   0.548 -0.5266 -0.2226  0.7927
  595MOL0     O78438  -1.605   5.820   0.544  0.2746 -0.1796  0.6027
  595MOL0     C78439  -1.726   5.817   0.476 -0.2502 -0.6567 -0.4117
  595MOL0     C78440  -1.785   5.698   0.465  0.3542  0.4965  0.2599
  595MOL0     C78441  -1.910   5.686   0.405  0.2841 -0.3773  0.0360
  595MOL0     C78442  -1.981   5.800   0.356  0.1670  0.8062  1.1415
  595MOL0     O78443  -2.113   5.800   0.310 -0.6176  0.2043  0.2442
  595MOL0     C78444  -2.178   5.677   0.281  0.8200  0.1196 -0.3083
  595MOL0     C78445  -2.318   5.719   0.230  0.0312  0.3791 -0.7889
  595MOL0     C78446  -2.394   5.617   0.133 -1.0188  0.6161 -0.3013
  595MOL0     C78447  -2.537   5.662   0.119  0.0706  0.5937 -0.5247
  595MOL0     C78448  -2.606   5.569   0.019 -1.0165  0.2471  0.0686
  595MOL0     C78449  -2.756   5.596   0.007 -0.6022 -0.1268  0.7048
  595MOL0     C78450  -2.804   5.474  -0.068  1.4527  0.4467  1.0263
  595MOL0     C78451  -2.949   5.486  -0.083  0.2948  0.7141  1.1171
  595MOL0    Cl78452  -3.007   5.370  -0.207  0.7911 -0.0241 -0.3562
  595MOL0     C78453  -1.920   5.924   0.359 -0.8127 -0.6639 -0.0116
  595MOL0     C78454  -1.794   5.933   0.430  0.0835 -0.6765 -0.1942
  595MOL0     O78455  -1.533   6.030   0.498 -0.8632 -0.1406  0.0105
  595MOL0     C78456  -1.276   5.984   0.605  0.3384 -0.1104 -0.1487
  595MOL0     C78457  -1.155   5.961   0.666  0.0211 -0.7463  0.0215
  595MOL0     N78458  -0.629   5.400   0.958 -0.7965 -0.4932 -1.1244
  595MOL0     N78459  -0.560   5.302   0.981 -0.7023  0.0869  0.1728
  595MOL0     C78460   0.682   5.634   1.162 -0.0580 -0.1682 -0.8441
  595MOL0     C78461   0.813   5.665   1.157 -0.0550 -0.9631 -0.7739
  595MOL0     C78462   1.228   5.867   1.077  1.0522 -0.2856  0.5177
  595MOL0     C78463   1.296   5.765   1.137  0.2105  0.0029 -0.3720
  595MOL0     C78464   1.438   5.766   1.155 -0.2798  0.2067  0.6878
  595MOL0     C78465   1.512   5.882   1.119 -0.7228 -0.8125  0.2685
  595MOL0     O78466   1.649   5.902   1.140 -0.0281 -0.7544 -0.2194
  595MOL0     C78467   1.719   5.810   1.224  0.0334 -0.1334 -0.1248
  595MOL0     C78468   1.857   5.857   1.250 -0.3612 -0.3639 -0.2106
  595MOL0     C78469   1.956   5.746   1.293  0.3163  0.8284 -0.7712
  595MOL0     C78470   2.078   5.822   1.357 -0.1661  0.0489 -0.0386
  595MOL0     C78471   2.193   5.736   1.359  0.7218 -0.2511 -0.5007
  595MOL0     C78472   2.297   5.673   1.357  0.5765  0.0454 -0.1699
  595MOL0     C78473   1.443   5.992   1.057  0.1144 -0.4949  0.0246
  595MOL0     C78474   1.298   5.985   1.044  0.0162  0.5789 -0.7872
  595MOL0     H78475   0.808   5.930   0.942  0.0018  0.9926 -0.5242
  595MOL0     H78476   0.590   5.891   0.955  0.8431 -0.0359 -1.5779
  595MOL0     H78477   0.423   5.548   1.266  1.5264  0.2315  0.5574
  595MOL0     H78478   0.415   5.506   1.098 -1.4385  0.0662 -0.8689
  595MOL0     H78479   0.218   5.636   1.060  2.6781  0.8561 -0.8271
  595MOL0     H78480   0.245   5.709   1.225 -0.8277  2.0752 -2.3974
  595MOL0     H78481   0.214   5.500   1.329  0.3196 -2.8270  0.0152
  595MOL0     H78482   0.166   5.410   1.189 -3.1881 -1.9338  3.6240
  595MOL0     H78483   0.009   5.633   1.324  2.4773 -1.3499  1.3732
  595MOL0     H78484  -0.019   5.601   1.157 -3.3641 -1.2430 -0.2141
  595MOL0     H78485  -0.145   5.470   1.369  1.5870 -0.0953  0.7305
  595MOL0     H78486  -0.042   5.345   1.292  1.0557 -0.1466 -1.6393
  595MOL0     H78487  -0.098   5.421   1.074  0.3916  1.0849 -0.4040
  595MOL0     H78488  -0.245   5.495   1.131 -0.2673 -0.5284 -1.9952
  595MOL0     H78489  -0.178   5.189   1.173 -0.9666 -1.0050  1.4263
  595MOL0     H78490  -0.323   5.256   1.221  2.9371 -2.0127  3.1745
  595MOL0     H78491  -0.339   5.132   0.996  2.5048 -0.8981  0.3934
  595MOL0     H78492  -0.239   5.246   0.920 -0.9667  0.8199 -0.1971
  595MOL0     H78493  -0.327   5.525   0.937  0.5151 -1.4651  0.1502
  595MOL0     H78494  -0.508   5.699   0.842  0.2629 -1.7620 -2.4367
  595MOL0     H78495  -0.591   5.692   0.994  1.3761  0.2802 -0.0187
  595MOL0     H78496  -0.720   5.595   0.735  2.0077  0.8771 -1.0997
  595MOL0     H78497  -0.716   5.763   0.765 -2.2068 -1.0892 -2.7425
  595MOL0     H78498  -0.833   5.567   0.965  1.6910  0.5637  2.3523
  595MOL0     H78499  -0.830   5.741   0.985 -0.3387 -1.3964  2.1354
  595MOL0     H78500  -1.034   5.627   0.888 -2.1988  0.5519 -0.4756
  595MOL0     H78501  -0.949   5.616   0.731  0.0892  2.8256 -2.0152
  595MOL0     H78502  -1.182   5.620   0.728  0.6973 -0.0884  1.0214
  595MOL0     H78503  -1.411   5.668   0.615 -0.6712  0.3215  1.8220
  595MOL0     H78504  -1.731   5.615   0.511 -0.9628 -0.0061  0.9332
  595MOL0     H78505  -1.961   5.592   0.387 -1.2529 -1.3042  6.4988
  595MOL0     H78506  -2.200   5.616   0.369  0.5483  1.3281  0.4955
  595MOL0     H78507  -2.127   5.626   0.199  0.2026  3.0589 -2.6876
  595MOL0     H78508  -2.313   5.819   0.186  0.0317  1.2164  1.0421
  595MOL0     H78509  -2.382   5.728   0.318  0.4687 -1.6441 -0.2244
  595MOL0     H78510  -2.388   5.519   0.181 -1.9836  1.0002  0.6350
  595MOL0     H78511  -2.344   5.606   0.036 -0.8532 -2.6211  0.0424
  595MOL0     H78512  -2.585   5.655   0.217 -0.4401  0.3201 -0.7867
  595MOL0     H78513  -2.552   5.768   0.096 -0.0121  0.6760 -0.0967
  595MOL0     H78514  -2.580   5.466   0.043 -3.0639 -0.0433  1.2734
  595MOL0     H78515  -2.563   5.587  -0.080 -0.0610 -1.7984  0.0554
  595MOL0     H78516  -2.782   5.688  -0.046 -1.1807 -0.1947  0.8606
  595MOL0     H78517  -2.788   5.604   0.112 -0.6160 -0.7462  0.7487
  595MOL0     H78518  -2.769   5.472  -0.172  0.4656 -0.4161  0.6942
  595MOL0     H78519  -2.785   5.379  -0.016  2.4597  0.0661  0.0217
  595MOL0     H78520  -2.985   5.581  -0.122 -0.5975 -0.2829 -0.5928
  595MOL0     H78521  -3.005   5.469   0.010 -2.6883 -1.7588 -0.9144
  595MOL0     H78522  -1.969   6.014   0.325 -0.7775 -1.0072 -1.0095
  595MOL0     H78523  -1.765   6.036   0.448 -1.3977 -0.4266  0.9140
  595MOL0     H78524  -1.303   6.086   0.581 -2.5945 -0.3044  1.7664
  595MOL0     H78525  -1.080   6.039   0.669  0.7134 -1.4143  0.1968
  595MOL0     H78526   0.656   5.561   1.238 -2.2788 -1.1295 -2.4202
  595MOL0     H78527   0.884   5.609   1.217  1.4627  2.3661  0.7950
  595MOL0     H78528   1.241   5.678   1.170 -1.5867 -0.0526 -3.1828
  595MOL0     H78529   1.501   5.687   1.194  1.2336 -1.3498 -4.1926
  595MOL0     H78530   1.716   5.711   1.178 -1.5315 -0.5892  0.8638
  595MOL0     H78531   1.660   5.808   1.316 -0.5597 -0.0378 -0.4951
  595MOL0     H78532   1.894   5.907   1.160 -1.4624  3.1176  1.0668
  595MOL0     H78533   1.850   5.931   1.331 -1.7417  1.9529 -2.3218
  595MOL0     H78534   1.994   5.678   1.217  1.3455  1.6249 -0.9874
  595MOL0     H78535   1.894   5.693   1.368 -0.2138  3.8826  1.1148
  595MOL0     H78536   2.100   5.915   1.305  1.1961  0.4257  1.1507
  595MOL0     H78537   2.066   5.856   1.460  1.7650  0.2618  0.1424
  595MOL0     H78538   2.388   5.616   1.362  0.9061  0.5102 -0.6878
  595MOL0     H78539   1.487   6.085   1.022 -1.7763  0.0964 -0.9147
  595MOL0     H78540   1.249   6.071   1.000 -0.2216 -0.0300 -1.7526
  596MOL0     O78541   0.493  10.823   3.070  0.1998  0.1089  0.1459
  596MOL0     C78542   0.559  10.928   3.077  0.1143 -0.5476 -0.0185
  596MOL0     O78543   0.510  11.051   3.044 -0.1048  0.2808  0.3822
  596MOL0     C78544   0.377  11.060   3.021 -0.3593  0.2256 -0.2617
  596MOL0     C78545   0.277  11.018   3.108  0.2689  0.4000 -0.4670
  596MOL0     C78546   0.142  11.033   3.073 -0.7060  0.9864 -0.0318
  596MOL0     C78547   0.101  11.101   2.957  1.2347 -0.8052 -0.2717
  596MOL0     O78548  -0.025  11.121   2.914 -0.1234 -0.4860 -0.4055
  596MOL0     C78549  -0.122  11.013   2.920  0.2425  0.1837  0.1842
  596MOL0     C78550  -0.213  11.013   2.795  0.4796  0.0493  0.0949
  596MOL0     C78551  -0.309  11.124   2.814  1.0519 -0.1208 -0.1674
  596MOL0     C78552  -0.421  11.099   2.708 -0.2323 -0.7003 -0.7041
  596MOL0     C78553  -0.525  10.988   2.759 -0.7632  0.0468  0.6968
  596MOL0     C78554  -0.671  11.038   2.751  0.0314  0.5734 -0.0085
  596MOL0     C78555  -0.761  10.926   2.813 -0.3986  0.7500  0.0317
  596MOL0     C78556  -0.910  10.941   2.778 -0.8264  0.2476  0.1507
  596MOL0     N78557  -0.940  11.071   2.823 -0.1616 -0.2032 -0.4094
  596MOL0     C78558  -0.932  11.110   2.954  0.0158  0.2621 -0.3453
  596MOL0     C78559  -0.974  11.229   2.971 -0.0193 -0.6056  0.4423
  596MOL0     C78560  -0.948  11.301   3.103 -0.0345  0.0533  0.5878
  596MOL0     C78561  -1.074  11.273   3.181  0.2973  0.5966  0.3374
  596MOL0     C78562  -1.074  11.342   3.317  0.7780  0.5362  1.0628
  596MOL0     C78563  -1.201  11.321   3.397  0.1606  0.5690 -0.3659
  596MOL0     O78564  -1.313  11.362   3.309  0.7184 -0.9614  0.0220
  596MOL0     C78565  -1.441  11.369   3.366 -0.4487  1.3873  0.0402
  596MOL0     C78566  -1.543  11.401   3.284 -0.7557  0.2955 -0.3089
  596MOL0     C78567  -1.680  11.412   3.321 -0.5369 -0.1076  0.0659
  596MOL0     C78568  -1.706  11.397   3.454 -0.0774  1.1643 -0.0518
  596MOL0     C78569  -1.843  11.414   3.501  0.0722 -0.3612 -0.2896
  596MOL0     O78570  -1.931  11.462   3.408 -0.0188 -0.2746 -0.3566
  596MOL0     C78571  -2.058  11.506   3.437 -0.0803  0.0089 -0.5984
  596MOL0     C78572  -2.163  11.468   3.350  0.8776  0.1977  0.1416
  596MOL0     C78573  -2.292  11.504   3.381  0.8702  0.2369 -0.3065
  596MOL0     C78574  -2.330  11.584   3.491 -0.4650  0.9652 -0.6395
  596MOL0     O78575  -2.465  11.601   3.512  0.1906  0.3727 -0.8407
  596MOL0     C78576  -2.534  11.640   3.624  0.3053 -0.6569  0.4048
  596MOL0     C78577  -2.688  11.604   3.591 -0.4114  0.2968  0.0221
  596MOL0     C78578  -2.776  11.615   3.715  0.2987 -0.9118  0.1843
  596MOL0     C78579  -2.918  11.643   3.677 -0.3166  0.0406  0.8653
  596MOL0     C78580  -3.009  11.669   3.802 -0.4291 -0.2607  0.5417
  596MOL0     C78581  -3.042  11.537   3.873  0.2732  0.0838 -0.6067
  596MOL0     C78582  -3.109  11.571   4.004  0.0874 -0.0633 -1.0800
  596MOL0     C78583  -3.261  11.598   3.987 -0.2694 -0.1273  0.5607
  596MOL0    Cl78584  -3.343  11.464   3.903  0.4370  0.9163 -0.0438
  596MOL0     C78585  -2.227  11.629   3.579  0.4801  0.7846  0.1285
  596MOL0     C78586  -2.093  11.590   3.548 -0.5111 -0.2289  0.3574
  596MOL0     O78587  -1.873  11.386   3.627 -1.2489 -0.1088 -0.4536
  596MOL0     C78588  -1.603  11.355   3.542 -0.0671 -0.1459 -0.3719
  596MOL0     C78589  -1.466  11.332   3.494  0.6321 -0.0959 -0.7811
  596MOL0     N78590  -1.015  11.270   2.845  0.2940 -0.2806 -0.7258
  596MOL0     N78591  -1.007  11.169   2.761 -0.1487  0.6724 -0.2229
  596MOL0     C78592   0.200  11.146   2.873  0.1793 -0.4710  0.3191
  596MOL0     C78593   0.335  11.131   2.905  0.0199  0.3649  0.0172
  596MOL0     C78594   0.703  10.926   3.132 -0.1198  0.1185 -0.8925
  596MOL0     C78595   0.767  10.803   3.158  0.8847  0.7769 -0.0064
  596MOL0     C78596   0.888  10.797   3.218  0.1675  0.1857  0.4828
  596MOL0     C78597   0.964  10.918   3.229 -0.6199 -0.3932 -0.5619
  596MOL0     O78598   1.086  10.925   3.296  0.0811 -0.6760  0.1685
  596MOL0     C78599   1.160  10.805   3.300  0.0486 -0.8417 -0.4018
  596MOL0     C78600   1.306  10.837   3.271 -0.3223 -0.0682  0.2657
  596MOL0     C78601   1.379  10.709   3.319  0.6000 -0.5389 -0.0445
  596MOL0     C78602   1.515  10.716   3.250 -0.3223  0.0366 -0.0609
  596MOL0     C78603   1.597  10.610   3.301  0.0153  0.2816  0.3398
  596MOL0     C78604   1.678  10.532   3.337 -0.7300 -0.4836 -0.2447
  596MOL0     C78605   0.898  11.043   3.208  0.1140  0.7881  0.3239
  596MOL0     C78606   0.776  11.046   3.161  0.3010 -0.5106  0.1915
  596MOL0     H78607   0.283  10.967   3.204 -0.9085 -1.4849 -1.3307
  596MOL0     H78608   0.062  10.992   3.134  0.4949 -2.7896 -0.7622
  596MOL0     H78609  -0.186  11.009   3.008 -2.1596  0.2169 -1.4580
  596MOL0     H78610  -0.064  10.920   2.921 -0.5926 -0.3449  1.0698
  596MOL0     H78611  -0.255  10.913   2.785 -0.6743  0.6191 -1.0045
  596MOL0     H78612  -0.167  11.027   2.696  0.2217  0.0429 -0.0267
  596MOL0     H78613  -0.260  11.221   2.807  1.2250 -0.2999 -2.3091
  596MOL0     H78614  -0.363  11.116   2.908 -2.2111  1.9439 -1.6819
  596MOL0     H78615  -0.476  11.193   2.704  0.0623 -0.2186  2.9523
  596MOL0     H78616  -0.371  11.058   2.620  3.8421  1.6134  0.2710
  596MOL0     H78617  -0.516  10.967   2.866 -0.5824  1.3233  0.9453
  596MOL0     H78618  -0.511  10.897   2.699  1.1948  1.3740 -0.9968
  596MOL0     H78619  -0.701  11.050   2.646 -0.4027  0.1914  0.0674
  596MOL0     H78620  -0.666  11.131   2.808  0.6350  0.5390  0.0045
  596MOL0     H78621  -0.722  10.837   2.763 -2.1327  0.5816 -1.1248
  596MOL0     H78622  -0.745  10.925   2.921 -3.3615 -1.2457  0.5805
  596MOL0     H78623  -0.971  10.861   2.821 -0.0693 -1.6018 -1.9868
  596MOL0     H78624  -0.937  10.940   2.672 -2.5301  0.7606  0.5377
  596MOL0     H78625  -0.863  11.056   3.019 -2.4777 -3.9614 -0.8313
  596MOL0     H78626  -0.938  11.408   3.085  1.9272  0.1582  2.0029
  596MOL0     H78627  -0.859  11.258   3.150  0.5079 -2.5181 -2.3960
  596MOL0     H78628  -1.099  11.167   3.192 -1.3066  0.8093 -0.8462
  596MOL0     H78629  -1.162  11.312   3.129 -0.3855 -1.8313 -0.4609
  596MOL0     H78630  -0.992  11.308   3.381  2.9668  3.5744  0.1457
  596MOL0     H78631  -1.065  11.451   3.304  2.0960  0.1015 -2.7036
  596MOL0     H78632  -1.204  11.396   3.476 -0.1521  0.6784 -0.4820
  596MOL0     H78633  -1.203  11.222   3.443  0.1957  0.9963  0.5804
  596MOL0     H78634  -1.515  11.433   3.184 -0.2995 -0.1545 -0.3305
  596MOL0     H78635  -1.759  11.449   3.257 -0.6534  0.5317  0.5665
  596MOL0     H78636  -2.146  11.396   3.270  0.9819  0.2665  0.1018
  596MOL0     H78637  -2.366  11.475   3.307 -0.1298  2.9316 -0.4509
  596MOL0     H78638  -2.524  11.747   3.647  0.8475 -0.0756 -2.2362
  596MOL0     H78639  -2.491  11.585   3.708  0.1682 -0.2577  0.7395
  596MOL0     H78640  -2.700  11.504   3.547 -0.0057  0.3189 -0.1431
  596MOL0     H78641  -2.730  11.677   3.521 -1.3636 -0.5700 -0.3566
  596MOL0     H78642  -2.742  11.703   3.770  0.7647  2.6000 -4.9292
  596MOL0     H78643  -2.765  11.528   3.781 -2.4611 -0.1242  1.8036
  596MOL0     H78644  -2.921  11.742   3.633 -2.2046  1.1998  3.3919
  596MOL0     H78645  -2.955  11.572   3.602  2.3335  0.8248 -1.3601
  596MOL0     H78646  -3.097  11.727   3.773  0.6646  0.5948 -1.2295
  596MOL0     H78647  -2.952  11.735   3.868  0.9243 -1.0956  0.2635
  596MOL0     H78648  -2.954  11.477   3.899 -1.5552 -3.0147 -1.2100
  596MOL0     H78649  -3.104  11.474   3.809  0.1226 -1.4724  0.9930
  596MOL0     H78650  -3.087  11.486   4.070  0.1268 -0.3139 -1.4174
  596MOL0     H78651  -3.052  11.656   4.043  3.2784 -1.2333 -2.8695
  596MOL0     H78652  -3.263  11.686   3.922  0.0098  0.3481  1.1890
  596MOL0     H78653  -3.307  11.626   4.082 -1.6774  0.8947 -0.3906
  596MOL0     H78654  -2.257  11.687   3.665  0.3954 -0.5692  1.0419
  596MOL0     H78655  -2.013  11.619   3.615  2.2225 -0.0824 -2.6923
  596MOL0     H78656  -1.620  11.340   3.648 -1.0191  0.6502 -0.3978
  596MOL0     H78657  -1.386  11.290   3.554  1.5406 -2.0709 -3.1972
  596MOL0     H78658   0.171  11.199   2.783 -2.4822 -2.6199 -0.2113
  596MOL0     H78659   0.408  11.162   2.831 -0.3947  0.7404 -0.2407
  596MOL0     H78660   0.701  10.717   3.152 -0.1703  1.5238  0.5819
  596MOL0     H78661   0.923  10.705   3.263 -0.8092 -0.5715 -0.2480
  596MOL0     H78662   1.137  10.722   3.232  0.2322 -2.1381  1.0647
  596MOL0     H78663   1.146  10.770   3.402 -1.8680  2.4631  0.6047
  596MOL0     H78664   1.315  10.861   3.164 -1.4292  0.3835  0.2598
  596MOL0     H78665   1.337  10.923   3.330  1.7305 -2.2860  2.6200
  596MOL0     H78666   1.328  10.616   3.292 -1.2550 -0.1156  1.7427
  596MOL0     H78667   1.392  10.705   3.427  2.2176 -1.9437 -0.2623
  596MOL0     H78668   1.514  10.703   3.142 -2.4768  0.1894 -0.1108
  596MOL0     H78669   1.569  10.811   3.255  1.3843 -0.7651 -1.9162
  596MOL0     H78670   1.758  10.468   3.370  1.4695  0.0619 -3.8994
  596MOL0     H78671   0.944  11.139   3.228 -0.3342  1.0021  0.3369
  596MOL0     H78672   0.737  11.142   3.129  2.2934 -0.2497 -1.6992
  597MOL0     O78673   9.834   3.346   1.920 -0.5956  0.5058  0.2538
  597MOL0     C78674   9.894   3.450   1.898 -0.7782 -0.4213 -0.2495
  597MOL0     O78675   9.851   3.576   1.912  0.3145 -0.1040  0.3635
  597MOL0     C78676   9.718   3.601   1.880 -0.1959  0.8108 -0.6195
  597MOL0     C78677   9.640   3.665   1.978  0.2976  0.3961  0.9666
  597MOL0     C78678   9.519   3.709   1.946  0.4183  0.1374 -0.1638
  597MOL0     C78679   9.446   3.666   1.829 -0.5297  0.5971  0.1248
  597MOL0     O78680   9.332   3.730   1.794  0.3941  0.6479 -0.4256
  597MOL0     C78681   9.242   3.653   1.714 -0.4232 -0.1313  0.8941
  597MOL0     C78682   9.099   3.723   1.730  0.2125  0.1553 -0.5549
  597MOL0     C78683   8.994   3.625   1.678 -1.1587 -0.3773  1.2037
  597MOL0     C78684   8.849   3.684   1.676 -0.1563 -0.0613  0.8513
  597MOL0     C78685   8.761   3.569   1.640  0.0819 -0.1092 -0.6460
  597MOL0     C78686   8.634   3.619   1.575  0.3891  0.4658  0.2302
  597MOL0     C78687   8.526   3.515   1.550 -0.5808  0.0497 -0.7041
  597MOL0     C78688   8.393   3.580   1.503 -0.0444 -0.0696  0.5920
  597MOL0     N78689   8.301   3.473   1.466 -0.4247  0.0364  0.9654
  597MOL0     C78690   8.268   3.355   1.531  0.7927 -1.0212 -0.8576
  597MOL0     C78691   8.202   3.275   1.440 -0.2371 -0.6450  0.1720
  597MOL0     C78692   8.182   3.129   1.458 -0.1414 -0.0347 -0.4422
  597MOL0     C78693   8.042   3.083   1.453  0.6527  0.6338  0.7799
  597MOL0     C78694   7.992   3.062   1.305 -0.7972 -0.4154 -0.1634
  597MOL0     C78695   7.850   3.010   1.300 -0.7777 -0.0202 -0.1822
  597MOL0     O78696   7.852   2.877   1.358 -0.6924  0.4316 -0.4451
  597MOL0     C78697   7.724   2.826   1.374 -0.6616 -0.1056 -0.1246
  597MOL0     C78698   7.713   2.729   1.475 -0.3406 -0.1924  0.5431
  597MOL0     C78699   7.594   2.667   1.510 -0.2626  0.1833 -0.4884
  597MOL0     C78700   7.473   2.688   1.440  0.3406 -0.2805 -0.2762
  597MOL0     C78701   7.341   2.627   1.450  0.4922 -0.3191 -0.6762
  597MOL0     O78702   7.238   2.668   1.374 -0.7081  0.4149 -0.1697
  597MOL0     C78703   7.119   2.598   1.382  0.2719 -0.2459  0.2071
  597MOL0     C78704   7.005   2.675   1.402  0.0430 -0.3467  0.2070
  597MOL0     C78705   6.879   2.597   1.424  0.9995  0.9461  0.4676
  597MOL0     C78706   6.875   2.455   1.415  0.1147  0.1626  0.1183
  597MOL0     O78707   6.749   2.400   1.421 -0.5586  0.1310 -0.4793
  597MOL0     C78708   6.730   2.269   1.352 -0.6409 -0.9833  0.3042
  597MOL0     C78709   6.582   2.233   1.373 -0.2866 -0.4068  0.3200
  597MOL0     C78710   6.541   2.091   1.331  0.2414  0.3170 -0.3282
  597MOL0     C78711   6.403   2.062   1.380  0.7592  0.3861 -0.2543
  597MOL0     C78712   6.348   1.949   1.300 -0.4258 -0.3464  0.3485
  597MOL0     C78713   6.216   1.916   1.364 -0.0560 -0.3883  0.0626
  597MOL0     C78714   6.167   1.795   1.285  0.6193 -0.3237 -0.0919
  597MOL0     C78715   6.041   1.734   1.343  0.0246 -0.4058 -0.0073
  597MOL0    Cl78716   6.074   1.638   1.494 -0.0182  0.0797  0.4041
  597MOL0     C78717   6.994   2.389   1.377 -0.0317 -0.5224 -0.5005
  597MOL0     C78718   7.116   2.454   1.372  0.1573  0.2008  0.5669
  597MOL0     O78719   7.338   2.549   1.547  0.0803 -0.5037 -0.2327
  597MOL0     C78720   7.486   2.780   1.334  0.2464  0.4071 -0.0813
  597MOL0     C78721   7.604   2.859   1.306  0.1061 -1.0926 -1.3079
  597MOL0     N78722   8.187   3.356   1.325  0.1204  0.3277 -0.0387
  597MOL0     N78723   8.252   3.463   1.337 -0.3459  0.6523  0.3561
  597MOL0     C78724   9.522   3.576   1.741 -0.2723 -0.0950  0.4888
  597MOL0     C78725   9.654   3.552   1.766  0.1229  0.2223 -0.2232
  597MOL0     C78726  10.039   3.431   1.883  0.3579  0.0060 -0.8792
  597MOL0     C78727  10.112   3.542   1.837 -1.1501 -1.0007  0.1606
  597MOL0     C78728  10.247   3.548   1.854  0.2368 -0.8832 -0.8985
  597MOL0     C78729  10.310   3.445   1.919  0.5873  0.0182  0.2689
  597MOL0     O78730  10.445   3.466   1.918  0.1101  0.2047  0.0120
  597MOL0     C78731  10.535   3.365   1.974  0.0703  0.0651 -0.0162
  597MOL0     C78732  10.527   3.351   2.124 -0.4930 -0.0367 -1.3657
  597MOL0     C78733  10.532   3.479   2.210 -0.6798 -0.2159 -0.3162
  597MOL0     C78734  10.404   3.531   2.249 -0.2184 -0.1614 -0.1221
  597MOL0     C78735  10.375   3.464   2.379  0.0532  0.6839 -0.1011
  597MOL0     C78736  10.333   3.412   2.482 -0.4441 -0.3593  0.1682
  597MOL0     C78737  10.240   3.326   1.949 -0.8994  0.3639 -0.6032
  597MOL0     C78738  10.100   3.319   1.936 -0.9303  0.4207  0.5431
  597MOL0     H78739   9.698   3.694   2.065  2.6291 -0.8836 -0.0552
  597MOL0     H78740   9.467   3.772   2.018 -0.2257 -1.0843  0.4685
  597MOL0     H78741   9.250   3.552   1.757  1.6871 -0.0397  0.7885
  597MOL0     H78742   9.267   3.645   1.608  0.9816  0.0421  1.2046
  597MOL0     H78743   9.103   3.814   1.668  1.0627 -0.4512 -1.4254
  597MOL0     H78744   9.076   3.750   1.834 -1.6789  2.1694 -1.4106
  597MOL0     H78745   9.005   3.537   1.743 -0.1116  0.6573  2.5110
  597MOL0     H78746   9.017   3.606   1.573 -1.8425  0.5883  0.8655
  597MOL0     H78747   8.824   3.719   1.777 -5.2631  0.0973 -0.1950
  597MOL0     H78748   8.836   3.759   1.598 -4.2118 -1.1762  0.1924
  597MOL0     H78749   8.737   3.522   1.736  0.5357  0.3449 -0.2990
  597MOL0     H78750   8.820   3.504   1.575  0.3939 -1.3128  0.7707
  597MOL0     H78751   8.651   3.670   1.480 -2.0532  2.3517  0.7060
  597MOL0     H78752   8.598   3.697   1.643 -1.5179 -1.0120  1.0096
  597MOL0     H78753   8.561   3.444   1.475 -0.9885 -1.2499  0.3021
  597MOL0     H78754   8.502   3.470   1.647 -1.8373  1.4133 -0.3457
  597MOL0     H78755   8.403   3.647   1.416  0.5356  3.7841  3.3711
  597MOL0     H78756   8.347   3.641   1.581 -0.3216  2.0110 -1.1037
  597MOL0     H78757   8.301   3.316   1.627 -0.2711 -3.5558 -1.4435
  597MOL0     H78758   8.222   3.104   1.557 -2.3206 -1.8071  0.0620
  597MOL0     H78759   8.243   3.064   1.394  1.1168 -3.2249  3.5602
  597MOL0     H78760   7.967   3.145   1.503  1.3817  2.4349 -0.2376
  597MOL0     H78761   8.033   2.984   1.497 -0.8168  0.1705 -0.4810
  597MOL0     H78762   7.986   3.159   1.254 -1.7438 -0.8427 -0.8879
  597MOL0     H78763   8.055   2.999   1.241 -0.8979 -0.1528 -0.5270
  597MOL0     H78764   7.826   3.007   1.193  2.3638 -0.1066 -0.9819
  597MOL0     H78765   7.779   3.069   1.359 -3.6149 -1.5255 -1.8271
  597MOL0     H78766   7.802   2.688   1.522  2.0018  2.9874 -0.7002
  597MOL0     H78767   7.600   2.608   1.601  0.4341  2.0143  0.7063
  597MOL0     H78768   7.006   2.783   1.408 -0.1878 -0.1246 -2.5283
  597MOL0     H78769   6.789   2.652   1.448 -0.2803 -1.2175  0.9043
  597MOL0     H78770   6.798   2.198   1.400  0.0431 -1.5576 -1.4404
  597MOL0     H78771   6.755   2.282   1.246 -2.1153  0.2659  0.0762
  597MOL0     H78772   6.521   2.304   1.317 -1.2493 -0.2846  1.4811
  597MOL0     H78773   6.559   2.239   1.480 -1.6794 -1.0497  0.0818
  597MOL0     H78774   6.608   2.023   1.384 -3.3938 -2.4054  1.2061
  597MOL0     H78775   6.546   2.076   1.223  0.5219 -1.2796 -0.1185
  597MOL0     H78776   6.414   2.037   1.485 -0.9610  0.7228  0.0501
  597MOL0     H78777   6.337   2.149   1.372 -0.0148 -0.1451  0.2484
  597MOL0     H78778   6.425   1.871   1.301  1.5572  1.5141  2.0437
  597MOL0     H78779   6.340   1.975   1.195  0.4406 -2.6878 -0.3779
  597MOL0     H78780   6.140   1.994   1.356 -1.1729 -1.5859 -1.8531
  597MOL0     H78781   6.225   1.885   1.468 -0.3964 -2.0533 -0.3649
  597MOL0     H78782   6.128   1.819   1.186 -1.6320 -2.9718  0.0140
  597MOL0     H78783   6.245   1.720   1.271 -0.1138 -0.8763 -1.3724
  597MOL0     H78784   5.992   1.672   1.269  0.5612 -0.0092 -0.7099
  597MOL0     H78785   5.967   1.811   1.371  1.0611  0.6685 -0.1325
  597MOL0     H78786   7.003   2.281   1.367 -1.7003 -0.8454  0.8144
  597MOL0     H78787   7.204   2.392   1.360 -0.0437  0.3179 -1.9230
  597MOL0     H78788   7.399   2.820   1.282  0.5989  1.4459  0.0968
  597MOL0     H78789   7.609   2.948   1.245  0.0495 -0.5437 -0.5212
  597MOL0     H78790   9.481   3.520   1.658  1.6792  1.4296 -1.6494
  597MOL0     H78791   9.699   3.481   1.697 -1.5939  0.3975 -1.6077
  597MOL0     H78792  10.064   3.630   1.795  0.3279 -1.0543 -1.7905
  597MOL0     H78793  10.312   3.628   1.820 -1.0514  0.4566 -0.3328
  597MOL0     H78794  10.638   3.374   1.938  1.0603  2.2647  2.9137
  597MOL0     H78795  10.504   3.269   1.934 -5.1731  0.2854  2.7047
  597MOL0     H78796  10.442   3.295   2.165 -0.1511  1.3769  1.5567
  597MOL0     H78797  10.615   3.296   2.158 -1.9667  0.0881  3.4294
  597MOL0     H78798  10.574   3.562   2.153 -2.4265  1.5812  0.8957
  597MOL0     H78799  10.589   3.465   2.303 -1.3366  2.4525  0.5701
  597MOL0     H78800  10.407   3.638   2.269  0.1977 -0.4262  1.3305
  597MOL0     H78801  10.325   3.513   2.175  2.5150 -0.2778 -3.2581
  597MOL0     H78802  10.275   3.374   2.565 -3.0768  2.6437 -0.1005
  597MOL0     H78803  10.282   3.232   1.985 -1.6976 -0.2050 -1.1343
  597MOL0     H78804  10.052   3.236   1.987 -0.3844  0.7539  1.6148
  598MOL0     O78805  10.393   7.790   8.281 -0.0219 -0.3568 -0.8043
  598MOL0     C78806  10.370   7.754   8.165  0.0305  0.8394 -1.3371
  598MOL0     O78807  10.320   7.631   8.122  0.6776 -0.3879 -0.0988
  598MOL0     C78808  10.302   7.535   8.210  0.4093  0.9775 -0.7255
  598MOL0     C78809  10.203   7.533   8.309  0.3783 -0.3307 -0.0039
  598MOL0     C78810  10.201   7.427   8.397 -0.9046 -0.1414 -0.8468
  598MOL0     C78811  10.303   7.324   8.383 -0.2574 -0.0877 -0.5934
  598MOL0     O78812  10.314   7.213   8.458 -0.1927 -0.0647  0.3606
  598MOL0     C78813  10.215   7.198   8.558  0.6914  0.2611  0.2899
  598MOL0     C78814  10.206   7.056   8.607  0.2094 -0.5142  0.2604
  598MOL0     C78815  10.111   6.975   8.507  0.5931  0.2053 -0.0369
  598MOL0     C78816  10.151   6.828   8.520  0.1066  0.7033 -0.1716
  598MOL0     C78817  10.057   6.746   8.433  0.8003  0.2238  0.2382
  598MOL0     C78818   9.935   6.696   8.517 -0.3776 -0.1490 -0.4233
  598MOL0     C78819   9.815   6.658   8.437 -0.2874  0.3777 -0.3191
  598MOL0     C78820   9.692   6.660   8.522  0.3923  0.0298 -0.1722
  598MOL0     N78821   9.568   6.635   8.436 -0.5265 -0.0503  1.0758
  598MOL0     C78822   9.465   6.557   8.474  0.5152  0.4422  0.8981
  598MOL0     C78823   9.374   6.581   8.371 -0.5757  0.0953  0.1286
  598MOL0     C78824   9.235   6.520   8.370  0.0917 -0.2971  0.3190
  598MOL0     C78825   9.226   6.397   8.460 -0.0977  0.3086 -0.0115
  598MOL0     C78826   9.103   6.307   8.419 -0.7959  0.1801 -1.1609
  598MOL0     C78827   8.975   6.390   8.397 -0.2762  0.1602  0.0616
  598MOL0     O78828   8.924   6.457   8.521 -0.1598 -0.0410  0.2075
  598MOL0     C78829   8.803   6.526   8.510  0.1178  0.0005  0.1115
  598MOL0     C78830   8.727   6.542   8.386  0.2040  0.9138 -0.0745
  598MOL0     C78831   8.595   6.589   8.390 -0.5820  0.7100  0.1367
  598MOL0     C78832   8.530   6.619   8.509 -0.2861 -0.2006  0.4975
  598MOL0     C78833   8.385   6.677   8.508  0.0582  0.8430 -0.1998
  598MOL0     O78834   8.317   6.669   8.626 -0.6518 -0.5646  0.0394
  598MOL0     C78835   8.188   6.686   8.608 -0.3145 -0.4908  0.2342
  598MOL0     C78836   8.131   6.792   8.676 -0.1299 -0.8639 -0.8987
  598MOL0     C78837   7.991   6.793   8.701  0.5260  1.1648 -0.1860
  598MOL0     C78838   7.904   6.702   8.628 -1.3870 -0.6557 -0.5004
  598MOL0     O78839   7.767   6.697   8.641 -0.0789  0.1274 -0.0353
  598MOL0     C78840   7.700   6.800   8.718 -0.4572 -0.1792 -0.3568
  598MOL0     C78841   7.554   6.747   8.716  0.3671 -0.6522 -0.5929
  598MOL0     C78842   7.456   6.859   8.730 -1.0609 -0.5100  0.7974
  598MOL0     C78843   7.304   6.828   8.739 -0.0133  0.3288 -0.0688
  598MOL0     C78844   7.250   6.734   8.620  0.3517 -0.1504 -0.3073
  598MOL0     C78845   7.115   6.666   8.644 -0.4572 -0.3501 -0.3562
  598MOL0     C78846   7.011   6.757   8.709  0.2141 -0.9089  0.2319
  598MOL0     C78847   6.959   6.852   8.599  1.0998  0.6835  0.4776
  598MOL0    Cl78848   6.811   6.927   8.661 -0.4206 -0.2779  0.1991
  598MOL0     C78849   7.965   6.601   8.554 -0.3492 -0.3589  0.2559
  598MOL0     C78850   8.109   6.591   8.541  0.1218 -0.8074 -0.3384
  598MOL0     O78851   8.343   6.711   8.396  0.4704 -0.9988  0.3493
  598MOL0     C78852   8.604   6.593   8.624 -0.2043  0.5738  0.0560
  598MOL0     C78853   8.737   6.554   8.632 -0.2494  0.4963  0.1775
  598MOL0     N78854   9.431   6.650   8.268 -1.4507  1.0725 -0.6113
  598MOL0     N78855   9.547   6.682   8.309  0.2322 -0.3043 -0.6839
  598MOL0     C78856  10.390   7.314   8.273  0.5719 -0.2009  0.0184
  598MOL0     C78857  10.384   7.418   8.181  0.8361  0.1764 -0.3294
  598MOL0     C78858  10.415   7.847   8.063  0.8175  0.5344  1.7124
  598MOL0     C78859  10.386   7.811   7.929 -0.3343  0.1835  0.1941
  598MOL0     C78860  10.406   7.890   7.824  0.3980 -0.3820  0.4802
  598MOL0     C78861  10.475   8.009   7.842 -0.0174  0.4685 -0.8302
  598MOL0     O78862  10.514   8.073   7.736 -0.1097 -0.1245  0.5647
  598MOL0     C78863  10.656   8.101   7.733  0.5179  0.1121 -0.3993
  598MOL0     C78864  10.742   7.972   7.706  0.2197  0.0539 -0.4370
  598MOL0     C78865  10.882   7.997   7.644  0.7321 -0.8142  0.6843
  598MOL0     C78866  10.929   7.860   7.606 -0.2220 -0.4951 -0.6232
  598MOL0     C78867  11.058   7.866   7.537  0.1057 -0.1928  0.3637
  598MOL0     C78868  11.152   7.862   7.461  0.1365  1.0134  0.1414
  598MOL0     C78869  10.496   8.057   7.976 -0.2265  0.4843  0.3290
  598MOL0     C78870  10.477   7.972   8.085 -0.1766  0.3422 -0.7198
  598MOL0     H78871  10.120   7.602   8.319  0.7444 -0.1402  2.2504
  598MOL0     H78872  10.120   7.436   8.469  0.3769  3.9072  0.3460
  598MOL0     H78873  10.115   7.227   8.525  1.6217  0.0957 -2.9832
  598MOL0     H78874  10.237   7.263   8.644 -0.9590  0.2998  0.7083
  598MOL0     H78875  10.149   7.048   8.700 -2.2334  2.0035 -0.8977
  598MOL0     H78876  10.306   7.013   8.613 -0.8897 -3.4953 -0.7081
  598MOL0     H78877  10.135   7.008   8.406 -1.5657  0.5857 -0.4714
  598MOL0     H78878  10.007   6.990   8.536  1.0012  0.3850  1.4588
  598MOL0     H78879  10.250   6.815   8.475 -1.6091 -0.8362 -3.9168
  598MOL0     H78880  10.163   6.802   8.626  2.9351  0.4158 -0.4646
  598MOL0     H78881  10.108   6.660   8.388 -1.2395 -2.1937  2.2306
  598MOL0     H78882  10.018   6.820   8.362 -2.3413 -1.5228 -0.0664
  598MOL0     H78883   9.907   6.776   8.585  1.0648 -0.9600  1.1988
  598MOL0     H78884   9.974   6.607   8.568 -1.6199 -0.0187  0.8044
  598MOL0     H78885   9.788   6.731   8.361 -1.1462  1.6429  1.1532
  598MOL0     H78886   9.836   6.557   8.399  2.0689  0.8036 -0.3071
  598MOL0     H78887   9.680   6.747   8.587  0.4014 -0.4795  0.5243
  598MOL0     H78888   9.699   6.571   8.585 -1.5412 -0.2080 -0.2343
  598MOL0     H78889   9.455   6.487   8.556  1.1742 -0.0320  0.5830
  598MOL0     H78890   9.204   6.512   8.266 -1.9904 -1.2167  0.9484
  598MOL0     H78891   9.157   6.586   8.408  0.4843 -1.1744  2.9099
  598MOL0     H78892   9.233   6.435   8.563 -0.8192  0.6097 -0.0687
  598MOL0     H78893   9.314   6.336   8.438  0.9481  1.3966  0.9792
  598MOL0     H78894   9.123   6.261   8.322  2.5435 -1.2721  0.0614
  598MOL0     H78895   9.081   6.229   8.493 -0.3291  0.3240 -0.8653
  598MOL0     H78896   8.902   6.314   8.367  2.1754 -2.8591  1.2149
  598MOL0     H78897   8.986   6.456   8.310 -2.1209 -0.1050 -0.4119
  598MOL0     H78898   8.766   6.535   8.285 -0.9410  0.0138 -0.4697
  598MOL0     H78899   8.553   6.618   8.294  0.8383 -0.9381 -1.0348
  598MOL0     H78900   8.190   6.864   8.732  0.0521 -3.5661  2.7547
  598MOL0     H78901   7.950   6.875   8.758 -2.2072  0.9193 -1.6428
  598MOL0     H78902   7.684   6.893   8.663  0.5810  0.1934 -0.0454
  598MOL0     H78903   7.738   6.815   8.819 -0.6272  0.9598 -0.4515
  598MOL0     H78904   7.541   6.678   8.800 -4.1801  1.3339  0.6467
  598MOL0     H78905   7.537   6.684   8.628 -1.2439 -1.6592  0.3905
  598MOL0     H78906   7.478   6.913   8.637  0.9880  0.1196  1.5913
  598MOL0     H78907   7.485   6.911   8.821 -1.7428 -2.1343  2.0021
  598MOL0     H78908   7.279   6.794   8.839  0.3875 -1.1286 -0.4471
  598MOL0     H78909   7.250   6.923   8.731  0.8363  0.8428  0.1780
  598MOL0     H78910   7.321   6.654   8.596 -1.1046 -1.7506  0.4495
  598MOL0     H78911   7.237   6.803   8.536 -1.0485  0.6654  0.5345
  598MOL0     H78912   7.136   6.588   8.718  0.8044  1.2060  1.0127
  598MOL0     H78913   7.071   6.624   8.553 -5.2874 -1.0248  1.9830
  598MOL0     H78914   6.928   6.699   8.749  1.4151 -1.4434  2.0818
  598MOL0     H78915   7.044   6.815   8.796 -0.2458  0.2644 -0.3549
  598MOL0     H78916   6.938   6.794   8.509  0.2304  1.1043  0.3930
  598MOL0     H78917   7.031   6.931   8.579  0.6317  1.6184  2.2120
  598MOL0     H78918   7.901   6.537   8.495  1.0654 -0.1274 -1.6209
  598MOL0     H78919   8.145   6.506   8.483 -2.0803 -0.5198 -2.2888
  598MOL0     H78920   8.549   6.607   8.716  0.5059 -1.2883  0.8025
  598MOL0     H78921   8.780   6.538   8.730 -0.7502 -2.1762  0.0311
  598MOL0     H78922  10.457   7.231   8.254  0.7819 -0.0111 -0.0704
  598MOL0     H78923  10.435   7.388   8.090  0.9321 -4.0953  0.9091
  598MOL0     H78924  10.334   7.719   7.905  1.5737 -0.9840  0.3179
  598MOL0     H78925  10.376   7.869   7.722  1.4982 -2.5607  0.5555
  598MOL0     H78926  10.692   8.162   7.816 -0.0797  0.2120 -0.2114
  598MOL0     H78927  10.668   8.169   7.648  1.1716  0.1947 -0.2443
  598MOL0     H78928  10.762   7.935   7.807  1.2039 -0.0569 -0.6688
  598MOL0     H78929  10.685   7.899   7.648  0.0196  0.3621 -0.6264
  598MOL0     H78930  10.949   8.053   7.710 -1.3013  1.5129  0.8992
  598MOL0     H78931  10.867   8.051   7.550 -0.3780 -1.3663  0.5275
  598MOL0     H78932  10.942   7.806   7.701  1.1003  2.8784  1.2824
  598MOL0     H78933  10.867   7.801   7.538  1.3796 -2.8023 -0.2248
  598MOL0     H78934  11.226   7.859   7.383  0.2289  0.6395  0.2442
  598MOL0     H78935  10.547   8.151   7.994 -1.5438  1.5300 -1.1508
  598MOL0     H78936  10.500   8.006   8.186 -0.6799  0.1532 -0.5381
  599MOL0     O78937   2.663  10.828   2.952 -0.0670 -0.5692 -0.7609
  599MOL0     C78938   2.609  10.717   2.931  0.0754  0.4345 -0.2267
  599MOL0     O78939   2.659  10.588   2.961  0.1350  0.3067  0.0507
  599MOL0     C78940   2.768  10.590   3.042 -0.2263  0.7083 -0.5163
  599MOL0     C78941   2.774  10.569   3.182 -0.0191 -0.6238  0.2835
  599MOL0     C78942   2.896  10.558   3.247  0.0451  0.3900  0.4799
  599MOL0     C78943   3.013  10.575   3.179  0.0622 -0.7842  0.4299
  599MOL0     O78944   3.141  10.571   3.230  0.2724  0.0171 -1.0355
  599MOL0     C78945   3.155  10.524   3.364  0.1867 -0.1003 -0.2994
  599MOL0     C78946   3.304  10.505   3.391  0.2366  0.0887 -1.2318
  599MOL0     C78947   3.361  10.381   3.326 -0.4334  0.3262 -0.9386
  599MOL0     C78948   3.292  10.249   3.369  0.2762  0.3512  0.4381
  599MOL0     C78949   3.370  10.115   3.353  0.8181  0.3717 -0.9778
  599MOL0     C78950   3.367  10.082   3.206  0.0585 -0.1414 -0.0020
  599MOL0     C78951   3.416   9.935   3.174 -0.0729  0.9791 -0.6678
  599MOL0     C78952   3.419   9.913   3.022 -0.1482  0.8163 -0.1303
  599MOL0     N78953   3.284   9.897   2.973  0.0728 -1.0071 -0.5149
  599MOL0     C78954   3.205  10.001   2.948 -0.1064 -0.2979  0.0935
  599MOL0     C78955   3.084   9.949   2.919 -0.0366 -0.3027 -0.0707
  599MOL0     C78956   2.970  10.023   2.870  0.2347  0.4164 -0.7467
  599MOL0     C78957   2.870  10.038   2.983  1.0297  0.0597 -0.5441
  599MOL0     C78958   2.909  10.140   3.093  0.1805  0.5014  0.7279
  599MOL0     C78959   2.797  10.151   3.198  0.1914 -0.0197  0.2268
  599MOL0     O78960   2.679  10.209   3.135  0.6145  0.3635  0.5226
  599MOL0     C78961   2.576  10.114   3.138 -0.8663  0.2054  0.6493
  599MOL0     C78962   2.516  10.067   3.027 -0.6865 -0.5222 -0.6893
  599MOL0     C78963   2.401   9.989   3.025 -0.5229  0.3056  0.0434
  599MOL0     C78964   2.329   9.969   3.140  0.3543 -0.1358 -0.0631
  599MOL0     C78965   2.197   9.891   3.140  0.2883  0.0225 -0.2419
  599MOL0     O78966   2.141   9.870   3.012  1.3081  0.3862 -0.8953
  599MOL0     C78967   2.002   9.858   2.999  0.4606 -1.3947  1.1199
  599MOL0     C78968   1.949   9.779   2.890  0.6269 -0.0066  0.4988
  599MOL0     C78969   1.808   9.766   2.869  0.2469 -0.3782 -0.5230
  599MOL0     C78970   1.729   9.834   2.953 -0.5170  0.4603 -0.2190
  599MOL0     O78971   1.599   9.848   2.908 -1.0419  0.2099 -0.6045
  599MOL0     C78972   1.495   9.881   2.999  0.0986  0.8118  0.0369
  599MOL0     C78973   1.362   9.829   2.943 -0.1158 -0.3038 -0.5870
  599MOL0     C78974   1.250   9.875   3.040 -0.4925  0.0393 -0.1093
  599MOL0     C78975   1.121   9.874   2.967 -1.1267 -0.3797 -0.5327
  599MOL0     C78976   1.001   9.888   3.062  0.3657 -0.5197  0.3552
  599MOL0     C78977   0.967   9.754   3.143 -0.5357  0.8506 -0.7610
  599MOL0     C78978   0.837   9.765   3.221 -0.6736  0.1964 -0.3775
  599MOL0     C78979   0.844   9.845   3.343  0.1681 -0.5834  0.3680
  599MOL0    Cl78980   0.799  10.008   3.314 -0.1165 -0.2429  0.6249
  599MOL0     C78981   1.782   9.910   3.057 -0.1575  0.3106 -0.4739
  599MOL0     C78982   1.916   9.922   3.086  1.1733  0.0860  0.1555
  599MOL0     O78983   2.150   9.849   3.248  0.2805  0.4993 -0.6991
  599MOL0     C78984   2.384  10.019   3.262  0.5631 -0.8841 -0.2092
  599MOL0     C78985   2.511  10.083   3.264  0.2717  0.2966  0.6239
  599MOL0     N78986   3.099   9.808   2.919 -0.8653  0.5132  0.8362
  599MOL0     N78987   3.222   9.778   2.939  0.1269 -0.2088 -0.0158
  599MOL0     C78988   3.001  10.602   3.046  0.8183  0.7389  0.3584
  599MOL0     C78989   2.882  10.607   2.978 -0.0614 -0.5338  0.5678
  599MOL0     C78990   2.466  10.725   2.886 -0.3499 -0.3632  0.3485
  599MOL0     C78991   2.387  10.839   2.893 -0.3286 -0.1251 -0.2067
  599MOL0     C78992   2.262  10.838   2.840 -0.0073 -0.4909 -0.4302
  599MOL0     C78993   2.197  10.719   2.797  0.2644 -0.3850 -0.2852
  599MOL0     O78994   2.069  10.724   2.750 -0.7558  0.2653  0.8563
  599MOL0     C78995   2.018  10.615   2.674  0.3150  0.0440 -0.2742
  599MOL0     C78996   1.945  10.684   2.552 -1.0525 -1.0976 -0.1950
  599MOL0     C78997   1.817  10.614   2.513 -0.0788 -0.4045 -0.2856
  599MOL0     C78998   1.764  10.646   2.370  0.2708 -0.3154 -0.6691
  599MOL0     C78999   1.615  10.618   2.358 -0.1101 -0.7425 -0.0683
  599MOL0     C79000   1.498  10.589   2.341  0.3919  0.8179  0.2166
  599MOL0     C79001   2.270  10.606   2.803  0.0973  0.9513 -0.2580
  599MOL0     C79002   2.403  10.612   2.844 -0.3151  0.8898 -0.3520
  599MOL0     H79003   2.680  10.568   3.236 -1.4502 -1.8712 -2.0430
  599MOL0     H79004   2.905  10.550   3.355 -0.2855 -1.5731  0.3891
  599MOL0     H79005   3.106  10.427   3.379  0.6802 -0.4503 -0.8941
  599MOL0     H79006   3.115  10.603   3.428 -0.5121  1.5521 -2.6614
  599MOL0     H79007   3.313  10.489   3.499 -0.7977 -1.6787 -1.3714
  599MOL0     H79008   3.355  10.598   3.365  1.8605 -1.2688 -3.2689
  599MOL0     H79009   3.465  10.373   3.361 -0.6726 -2.3375 -0.6520
  599MOL0     H79010   3.344  10.400   3.219 -2.5308  0.7282 -0.5734
  599MOL0     H79011   3.282  10.264   3.477 -1.7706  0.6448  0.2524
  599MOL0     H79012   3.191  10.249   3.325  0.7571  1.6311 -0.7313
  599MOL0     H79013   3.325  10.035   3.412  1.2703 -0.0161 -1.1599
  599MOL0     H79014   3.472  10.135   3.385  0.8342 -2.0602  0.7504
  599MOL0     H79015   3.430  10.162   3.164 -0.5306  0.5323  0.3860
  599MOL0     H79016   3.263  10.096   3.176  0.9913 -0.8981 -4.4347
  599MOL0     H79017   3.518   9.930   3.213 -0.6794  0.1782  0.8982
  599MOL0     H79018   3.356   9.860   3.226  1.3994 -1.7575 -2.6684
  599MOL0     H79019   3.463   9.820   2.988 -0.6846  0.3387  0.4423
  599MOL0     H79020   3.480   9.992   2.977 -2.5436  1.2145 -2.9913
  599MOL0     H79021   3.223  10.108   2.942  1.4106 -0.5172  0.2871
  599MOL0     H79022   2.922   9.971   2.787  0.6211  0.5431 -1.0538
  599MOL0     H79023   2.997  10.125   2.841 -0.4694  1.2187  1.2643
  599MOL0     H79024   2.817   9.953   3.026 -3.0557  2.2969 -0.6731
  599MOL0     H79025   2.793  10.088   2.924 -0.4837 -3.2052 -1.5124
  599MOL0     H79026   2.992  10.092   3.144  1.3987 -0.0826 -1.6548
  599MOL0     H79027   2.944  10.233   3.046  3.1610 -1.3104 -0.9591
  599MOL0     H79028   2.830  10.229   3.267  2.8169 -1.4299  0.6742
  599MOL0     H79029   2.783  10.057   3.252 -0.3863  2.6820  5.5466
  599MOL0     H79030   2.565  10.082   2.932  3.3841 -1.2103  1.0812
  599MOL0     H79031   2.356   9.959   2.930 -0.7370  0.1581  0.1907
  599MOL0     H79032   2.015   9.739   2.813  2.0805  1.2871  1.0106
  599MOL0     H79033   1.767   9.710   2.786 -3.9786  0.5712  0.7052
  599MOL0     H79034   1.499   9.989   3.017 -0.5534  0.4554  2.7154
  599MOL0     H79035   1.510   9.836   3.098 -0.2219 -0.7914 -0.6141
  599MOL0     H79036   1.362   9.719   2.945 -0.0663 -0.2930  1.5038
  599MOL0     H79037   1.355   9.872   2.842  3.1457  0.9835 -0.4042
  599MOL0     H79038   1.270   9.972   3.085 -1.7102 -1.5673  4.5014
  599MOL0     H79039   1.249   9.806   3.124  1.1106 -0.7898 -0.7074
  599MOL0     H79040   1.125   9.954   2.892 -0.0993 -1.7628 -2.0264
  599MOL0     H79041   1.106   9.774   2.925 -3.3905 -0.2619 -0.1201
  599MOL0     H79042   0.905   9.892   3.009  0.6630  1.3782 -0.1135
  599MOL0     H79043   1.022   9.966   3.135 -0.3467  1.2419 -1.2362
  599MOL0     H79044   1.045   9.737   3.217 -0.2915  2.1585 -0.6823
  599MOL0     H79045   0.962   9.676   3.067 -3.0088  1.6100 -1.4773
  599MOL0     H79046   0.745   9.797   3.170 -3.0278 -1.4565  2.4638
  599MOL0     H79047   0.816   9.665   3.258 -1.5200  0.9940  1.4197
  599MOL0     H79048   0.943   9.846   3.389  0.0212  2.5073  0.8337
  599MOL0     H79049   0.765   9.813   3.411 -0.3807  0.8713  0.4545
  599MOL0     H79050   1.707   9.965   3.113  0.0249  0.1326 -0.0498
  599MOL0     H79051   1.944   9.997   3.160  3.3847  0.5267 -1.0558
  599MOL0     H79052   2.325  10.024   3.353  0.4409  0.7753 -0.3370
  599MOL0     H79053   2.547  10.119   3.360 -0.7200  0.5609  0.9070
  599MOL0     H79054   3.088  10.623   2.985  1.4349 -0.6131  0.7465
  599MOL0     H79055   2.883  10.630   2.872  1.7992  2.3264  1.1032
  599MOL0     H79056   2.436  10.929   2.929  0.3735  0.4580 -2.4898
  599MOL0     H79057   2.217  10.935   2.823  0.6131  0.5810  3.1042
  599MOL0     H79058   1.945  10.561   2.735  1.1300  0.6694  1.3050
  599MOL0     H79059   2.095  10.547   2.636  1.1191  0.7930 -0.0119
  599MOL0     H79060   1.928  10.786   2.588  0.6220 -0.6919 -0.4776
  599MOL0     H79061   2.009  10.693   2.464  0.1370 -0.8047  0.6632
  599MOL0     H79062   1.753  10.654   2.592  1.6977 -1.0207  1.5543
  599MOL0     H79063   1.833  10.508   2.533  3.0871  0.6536  4.7702
  599MOL0     H79064   1.780  10.750   2.340  0.8149 -0.1953 -0.0067
  599MOL0     H79065   1.819  10.591   2.293  0.8914  1.2073 -1.3564
  599MOL0     H79066   1.399  10.555   2.315  0.7183  0.0255 -0.0271
  599MOL0     H79067   2.236  10.504   2.787 -2.3388  1.5265  0.7105
  599MOL0     H79068   2.449  10.514   2.838  2.7495  2.1285  0.4932
  600MOL0     O79069   6.118   2.332   9.117 -0.5660 -0.0922  0.2928
  600MOL0     C79070   6.203   2.279   9.196 -0.3876  0.0431  0.2367
  600MOL0     O79071   6.175   2.187   9.294 -1.0242 -0.1172 -0.2608
  600MOL0     C79072   6.047   2.146   9.328  0.5225  1.0030  1.0247
  600MOL0     C79073   5.931   2.225   9.336 -0.1341  0.3811 -0.4316
  600MOL0     C79074   5.806   2.178   9.358 -0.6596  0.6943 -0.6923
  600MOL0     C79075   5.788   2.043   9.395 -1.4942 -0.4697 -0.3947
  600MOL0     O79076   5.676   1.987   9.451  0.0828 -0.7331  0.5740
  600MOL0     C79077   5.555   2.057   9.420 -0.3800  0.5771  0.7399
  600MOL0     C79078   5.504   2.159   9.526 -0.4103  0.1617  0.1587
  600MOL0     C79079   5.412   2.270   9.446 -0.1798  0.8730  0.3425
  600MOL0     C79080   5.390   2.396   9.531  0.1306  0.5937 -0.7980
  600MOL0     C79081   5.327   2.367   9.671  0.5458 -0.7050  0.1739
  600MOL0     C79082   5.330   2.494   9.761 -0.1570 -0.4828 -0.3502
  600MOL0     C79083   5.295   2.462   9.910 -0.4283  1.1509 -0.3072
  600MOL0     C79084   5.389   2.528   9.998 -1.0967 -0.0810 -0.1788
  600MOL0     N79085   5.533   2.489   9.979  0.0371  0.4071  0.3883
  600MOL0     C79086   5.586   2.361   9.983  0.7961 -0.0614 -0.6862
  600MOL0     C79087   5.710   2.372   9.934 -0.8282 -0.1660  0.3324
  600MOL0     C79088   5.806   2.261   9.935 -0.0531  0.3064 -0.5886
  600MOL0     C79089   5.810   2.187   9.808 -0.0207 -0.7153 -0.0950
  600MOL0     C79090   5.947   2.132   9.772 -0.7891  0.0646 -0.7308
  600MOL0     C79091   6.040   2.224   9.678 -0.5230  0.9595 -0.1645
  600MOL0     O79092   6.096   2.320   9.770 -0.1573 -0.3858 -0.3340
  600MOL0     C79093   6.226   2.373   9.761  0.6371  0.0692  0.0077
  600MOL0     C79094   6.238   2.474   9.854  0.6883  0.6802  1.0152
  600MOL0     C79095   6.354   2.548   9.868  0.9235  0.0446  0.7768
  600MOL0     C79096   6.468   2.505   9.782  0.2854 -0.1203 -0.4540
  600MOL0     C79097   6.601   2.557   9.811  0.0711 -0.6111 -0.7522
  600MOL0     O79098   6.701   2.495   9.752  0.9621  0.0259  0.6535
  600MOL0     C79099   6.824   2.548   9.763  1.2917 -0.0903 -0.1835
  600MOL0     C79100   6.900   2.552   9.647 -0.5194  0.1455  0.6700
  600MOL0     C79101   7.042   2.573   9.644  0.4744 -0.2780 -0.0343
  600MOL0     C79102   7.113   2.594   9.767  0.4536 -0.0719  0.1986
  600MOL0     O79103   7.249   2.607   9.778  0.2949 -0.8039 -0.6241
  600MOL0     C79104   7.306   2.711   9.696 -0.2039 -0.5557 -0.3559
  600MOL0     C79105   7.448   2.718   9.747 -0.6238 -0.0620  0.4577
  600MOL0     C79106   7.532   2.810   9.654  0.6429  0.8060 -0.2456
  600MOL0     C79107   7.669   2.824   9.709  0.0529  0.0780 -0.5530
  600MOL0     C79108   7.759   2.896   9.611  0.1030 -0.4347 -0.1210
  600MOL0     C79109   7.901   2.896   9.665  0.2936  0.7979  0.7483
  600MOL0     C79110   7.992   2.968   9.565  0.3867 -0.5689 -0.0434
  600MOL0     C79111   8.116   2.985   9.649  0.8631  0.3848  0.0332
  600MOL0    Cl79112   8.251   2.988   9.537 -0.3975  0.3351  0.1277
  600MOL0     C79113   7.029   2.600   9.880  0.4702 -0.5219  0.5630
  600MOL0     C79114   6.890   2.573   9.880 -0.1007 -0.3622 -0.4817
  600MOL0     O79115   6.609   2.668   9.870  0.0295  0.0731  0.0912
  600MOL0     C79116   6.455   2.397   9.694  0.3996  1.0597 -0.4939
  600MOL0     C79117   6.334   2.334   9.683  0.6731 -0.7373  0.0452
  600MOL0     N79118   5.738   2.505   9.906  0.0961 -0.1504  0.8321
  600MOL0     N79119   5.624   2.575   9.936 -0.0453 -0.9046 -0.3219
  600MOL0     C79120   5.895   1.959   9.393 -0.8735  0.3750 -0.1003
  600MOL0     C79121   6.026   2.007   9.366 -0.6070 -0.7713  0.0486
  600MOL0     C79122   6.343   2.325   9.186 -0.0624 -0.2686  0.9192
  600MOL0     C79123   6.430   2.332   9.288  0.1795 -0.2308 -0.2405
  600MOL0     C79124   6.566   2.372   9.269 -0.2528 -0.5327  0.8118
  600MOL0     C79125   6.620   2.395   9.141  1.2359 -0.0681  0.4447
  600MOL0     O79126   6.751   2.427   9.139 -1.0160 -0.3476 -0.2249
  600MOL0     C79127   6.825   2.430   9.014 -0.6003  0.6668 -0.4096
  600MOL0     C79128   6.921   2.305   8.990 -0.0252  0.6105  0.6985
  600MOL0     C79129   7.045   2.339   8.902  0.9589 -0.3992 -0.6516
  600MOL0     C79130   7.155   2.239   8.908 -0.4013  0.0807 -0.0953
  600MOL0     C79131   7.240   2.265   9.021  0.2724  0.0809  0.7822
  600MOL0     C79132   7.307   2.289   9.117  0.2943  0.3625  0.3671
  600MOL0     C79133   6.522   2.390   9.039 -0.4016  0.3289  1.1513
  600MOL0     C79134   6.387   2.348   9.053  0.0880 -0.3693 -0.4118
  600MOL0     H79135   5.952   2.330   9.315  1.6496  0.8310  2.7835
  600MOL0     H79136   5.723   2.246   9.372  1.2461  3.7819 -3.0406
  600MOL0     H79137   5.482   1.976   9.410  1.2782 -1.1013  1.6157
  600MOL0     H79138   5.564   2.094   9.318 -0.2334 -1.4683 -0.0427
  600MOL0     H79139   5.589   2.200   9.581  1.0510  1.2513 -2.6961
  600MOL0     H79140   5.437   2.112   9.598  0.2067 -1.8856 -0.5380
  600MOL0     H79141   5.315   2.225   9.424  0.7288 -2.1780  2.0052
  600MOL0     H79142   5.460   2.305   9.354 -2.1925 -1.7950 -1.8769
  600MOL0     H79143   5.489   2.435   9.557  0.0795 -0.1412  0.6633
  600MOL0     H79144   5.331   2.468   9.474  1.6440  2.5091 -0.0570
  600MOL0     H79145   5.398   2.297   9.716  2.8704  0.0745 -2.0102
  600MOL0     H79146   5.224   2.335   9.656  0.3467  0.5962 -1.5838
  600MOL0     H79147   5.266   2.574   9.723 -1.4471 -0.3199  2.0011
  600MOL0     H79148   5.434   2.529   9.758  0.8391 -2.8400  2.2390
  600MOL0     H79149   5.193   2.485   9.941  0.3338  3.7067  0.5437
  600MOL0     H79150   5.305   2.353   9.918  3.3259  1.0988 -3.0644
  600MOL0     H79151   5.362   2.515  10.103 -1.4216 -0.5138 -0.3148
  600MOL0     H79152   5.390   2.633   9.969 -1.3827  0.1402  0.5805
  600MOL0     H79153   5.535   2.269  10.010  0.3886  0.9450  2.4166
  600MOL0     H79154   5.793   2.201  10.025  1.5306  1.2314  0.3156
  600MOL0     H79155   5.904   2.309   9.946  1.6038 -2.9679  0.5262
  600MOL0     H79156   5.781   2.255   9.728 -0.3669  1.2518  1.6276
  600MOL0     H79157   5.736   2.106   9.806 -2.3652  1.2735 -3.3974
  600MOL0     H79158   6.009   2.104   9.858 -1.5346 -3.2591 -1.1362
  600MOL0     H79159   5.940   2.037   9.720  2.1221 -0.6221 -0.0486
  600MOL0     H79160   5.982   2.266   9.596  0.7142  0.0316 -1.5736
  600MOL0     H79161   6.116   2.154   9.640 -1.7907  0.1915 -1.3773
  600MOL0     H79162   6.162   2.500   9.928 -2.2071 -0.9500 -1.1949
  600MOL0     H79163   6.360   2.632   9.937 -1.2414  1.5734 -0.7618
  600MOL0     H79164   6.853   2.536   9.550  1.8350  3.7649 -1.3139
  600MOL0     H79165   7.096   2.574   9.550 -1.1591  2.5260 -1.0961
  600MOL0     H79166   7.258   2.809   9.696  1.9366  0.5738 -1.8759
  600MOL0     H79167   7.328   2.677   9.594  0.2946 -1.6021  0.0814
  600MOL0     H79168   7.501   2.623   9.751  1.7624  1.2461  2.0022
  600MOL0     H79169   7.433   2.758   9.848 -1.2226  1.0194 -0.0323
  600MOL0     H79170   7.499   2.914   9.644  2.4405  1.3975 -0.3797
  600MOL0     H79171   7.532   2.773   9.551  1.1287 -2.1469  0.7128
  600MOL0     H79172   7.663   2.882   9.801  0.4723 -0.4341 -0.2004
  600MOL0     H79173   7.705   2.726   9.742  1.4835 -0.0925 -2.4342
  600MOL0     H79174   7.731   3.002   9.609  1.0484 -0.1728 -2.7437
  600MOL0     H79175   7.748   2.848   9.514  1.4718 -2.0593  0.4936
  600MOL0     H79176   7.925   2.791   9.680  0.0955  0.3647 -1.6607
  600MOL0     H79177   7.899   2.943   9.764 -1.6406 -1.3612  1.8473
  600MOL0     H79178   7.991   2.925   9.465 -0.0079  0.2812 -0.4102
  600MOL0     H79179   7.947   3.065   9.544 -0.9566 -0.8071  1.4873
  600MOL0     H79180   8.130   2.904   9.721 -0.9328 -0.1864 -0.2060
  600MOL0     H79181   8.114   3.078   9.708 -2.6754  0.2695  0.3466
  600MOL0     H79182   7.075   2.647   9.966 -0.6848 -1.4843  1.7475
  600MOL0     H79183   6.837   2.564   9.975  1.1349 -0.1724  0.2466
  600MOL0     H79184   6.537   2.366   9.629  0.4312 -0.2117  0.1292
  600MOL0     H79185   6.316   2.258   9.607 -0.4357  1.6153 -2.1665
  600MOL0     H79186   5.884   1.856   9.424  1.2221  0.8071  2.4872
  600MOL0     H79187   6.118   1.951   9.360 -0.0205  0.0608  0.9717
  600MOL0     H79188   6.397   2.303   9.388  1.0791 -1.6559 -0.3176
  600MOL0     H79189   6.632   2.390   9.353 -0.3181  0.3651  0.6814
  600MOL0     H79190   6.877   2.526   9.003 -3.1917  1.9249 -3.0634
  600MOL0     H79191   6.755   2.429   8.930 -0.6759 -2.8405 -0.4342
  600MOL0     H79192   6.949   2.258   9.085  0.3727  0.6323  0.5942
  600MOL0     H79193   6.869   2.224   8.940 -0.6722 -0.3097  2.7561
  600MOL0     H79194   7.082   2.441   8.919 -3.3044  1.1292  1.0423
  600MOL0     H79195   7.016   2.345   8.796  3.2937 -2.5163 -1.4943
  600MOL0     H79196   7.127   2.133   8.907 -0.6062  0.1346 -0.2306
  600MOL0     H79197   7.217   2.240   8.817 -1.7159  1.0463 -1.0110
  600MOL0     H79198   7.359   2.321   9.205  2.2215  0.5039 -0.7794
  600MOL0     H79199   6.553   2.392   8.935  0.4741  2.3683  1.4146
  600MOL0     H79200   6.325   2.319   8.969 -1.3332  1.2238  0.0403
  601MOL0     O79201   2.031   1.235  10.704  0.1914 -0.6132  0.6096
  601MOL0     C79202   1.954   1.328  10.737 -0.3919 -0.4432  0.2139
  601MOL0     O79203   1.815   1.306  10.750  0.3489  0.0393 -0.1270
  601MOL0     C79204   1.772   1.178  10.775  0.3171 -1.0808  0.0273
  601MOL0     C79205   1.827   1.093  10.882  0.9121 -0.6725 -0.2737
  601MOL0     C79206   1.766   0.976  10.907 -0.3207  0.3412 -0.4176
  601MOL0     C79207   1.659   0.928  10.825 -0.5775  0.3972 -1.1589
  601MOL0     O79208   1.605   0.803  10.864 -0.2857 -0.0855  0.2309
  601MOL0     C79209   1.465   0.781  10.832 -0.0316 -0.2931  1.0386
  601MOL0     C79210   1.428   0.639  10.893 -0.5968 -0.2312 -0.3241
  601MOL0     C79211   1.307   0.576  10.831  0.5589  0.0925  1.0587
  601MOL0     C79212   1.184   0.673  10.850  0.2389 -0.1272  1.1400
  601MOL0     C79213   1.056   0.621  10.793  0.3279 -0.1779 -0.5573
  601MOL0     C79214   0.938   0.700  10.847  0.1039  0.0986 -0.0001
  601MOL0     C79215   0.803   0.666  10.778 -0.0284  0.2790  0.3097
  601MOL0     C79216   0.740   0.525  10.808 -1.0244  0.1884 -0.0900
  601MOL0     N79217   0.609   0.500  10.743  0.3371  0.6365 -0.5498
  601MOL0     C79218   0.490   0.510  10.815 -0.5198  0.1994 -0.3710
  601MOL0     C79219   0.396   0.474  10.722 -0.1703 -0.4552 -1.3970
  601MOL0     C79220   0.252   0.479  10.754  1.3620  0.7428 -0.2830
  601MOL0     C79221   0.157   0.391  10.670 -0.6501  0.4739  0.4127
  601MOL0     C79222   0.126   0.254  10.729 -0.0653 -0.9492  0.1710
  601MOL0     C79223   0.004   0.258  10.824  1.0792 -0.0083 -0.4459
  601MOL0     O79224   0.054   0.298  10.953  0.8136 -0.5240  0.3906
  601MOL0     C79225  -0.042   0.332  11.050  0.1840  0.2131 -0.2489
  601MOL0     C79226  -0.167   0.376  11.033 -0.6867 -0.1337 -0.8763
  601MOL0     C79227  -0.256   0.394  11.137 -1.0875  0.0579  0.4238
  601MOL0     C79228  -0.213   0.366  11.265 -0.7216 -0.0481 -0.1390
  601MOL0     C79229  -0.309   0.375  11.379 -0.0792  0.5145  0.5971
  601MOL0     O79230  -0.445   0.368  11.348  0.2385  1.0648  0.0072
  601MOL0     C79231  -0.537   0.413  11.437  0.5794 -0.4578 -0.6607
  601MOL0     C79232  -0.522   0.538  11.496  0.0925 -0.7501  0.0774
  601MOL0     C79233  -0.632   0.592  11.559  0.4986 -0.5534 -0.2748
  601MOL0     C79234  -0.753   0.523  11.576  0.2439  0.1232  0.2326
  601MOL0     O79235  -0.845   0.595  11.651 -0.2475  0.5719 -0.3594
  601MOL0     C79236  -0.979   0.536  11.650 -0.9943  0.0332  0.2898
  601MOL0     C79237  -1.072   0.618  11.741 -0.5444  0.1452 -0.2707
  601MOL0     C79238  -1.218   0.581  11.742  0.2880 -0.3792 -1.0509
  601MOL0     C79239  -1.236   0.437  11.794  0.3810 -0.2818  0.5943
  601MOL0     C79240  -1.387   0.419  11.826 -0.0991  0.0285  0.3108
  601MOL0     C79241  -1.418   0.290  11.907 -0.0244  0.2733  0.0630
  601MOL0     C79242  -1.554   0.231  11.869  0.0385  0.5425 -0.0501
  601MOL0     C79243  -1.684   0.304  11.917  1.1971  0.9088 -0.1157
  601MOL0    Cl79244  -1.694   0.267  12.084  0.3169 -0.3509  0.3994
  601MOL0     C79245  -0.770   0.400  11.515 -0.2651  0.3272  0.4677
  601MOL0     C79246  -0.664   0.339  11.450 -0.3491  0.2098 -0.2975
  601MOL0     O79247  -0.265   0.389  11.489 -0.1725  0.5273 -0.1137
  601MOL0     C79248  -0.083   0.321  11.287  0.4198  0.8062 -0.2045
  601MOL0     C79249  -0.002   0.293  11.181 -0.3389  1.3747 -0.0666
  601MOL0     N79250   0.455   0.436  10.604  0.7510 -0.3785 -0.3980
  601MOL0     N79251   0.578   0.451  10.618  0.1605 -0.8042 -0.0074
  601MOL0     C79252   1.614   1.009  10.727  0.4064  0.4332  0.2363
  601MOL0     C79253   1.665   1.137  10.696 -0.3746  0.2132  0.1104
  601MOL0     C79254   1.998   1.464  10.741 -0.0818 -0.8665 -0.6339
  601MOL0     C79255   2.127   1.501  10.786 -0.6137  0.2685 -0.9185
  601MOL0     C79256   2.166   1.631  10.783  0.2276  0.0285 -0.0505
  601MOL0     C79257   2.086   1.733  10.728  0.0533  0.5683  0.4823
  601MOL0     O79258   2.117   1.865  10.738  0.5928 -0.1736 -0.0704
  601MOL0     C79259   2.237   1.908  10.782  0.3942  1.0535  0.4678
  601MOL0     C79260   2.249   2.064  10.772  0.1721 -0.0758 -0.1586
  601MOL0     C79261   2.135   2.134  10.836 -0.1426  0.1487 -0.5925
  601MOL0     C79262   2.133   2.141  10.993 -0.3939 -0.8277  0.0935
  601MOL0     C79263   2.240   2.235  11.037  0.0712 -0.4437 -0.6130
  601MOL0     C79264   2.340   2.296  11.056 -0.8047  0.0951 -0.8378
  601MOL0     C79265   1.960   1.706  10.690 -0.6445 -0.3323 -0.2851
  601MOL0     C79266   1.916   1.566  10.688  0.3282 -0.7002  0.1641
  601MOL0     H79267   1.910   1.122  10.946  0.0393 -1.1132  1.1063
  601MOL0     H79268   1.809   0.918  10.988  0.1292  0.6827 -0.4070
  601MOL0     H79269   1.461   0.788  10.723  2.9608  1.1883  0.9249
  601MOL0     H79270   1.412   0.867  10.874  2.0032  1.5440  0.0522
  601MOL0     H79271   1.418   0.634  11.002 -0.4986 -3.1875 -0.3664
  601MOL0     H79272   1.509   0.567  10.880 -1.0602 -0.4729 -2.3547
  601MOL0     H79273   1.296   0.484  10.889  0.4739 -0.5897 -0.0229
  601MOL0     H79274   1.319   0.558  10.724 -0.5315  0.2267  0.9083
  601MOL0     H79275   1.164   0.693  10.955 -3.1183  2.9239  0.1096
  601MOL0     H79276   1.212   0.767  10.802  0.5347 -0.7633  0.0112
  601MOL0     H79277   1.042   0.517  10.823  0.7213 -0.3471 -0.9555
  601MOL0     H79278   1.058   0.621  10.684  3.6041 -0.6679 -0.6182
  601MOL0     H79279   0.957   0.807  10.842  2.1051 -0.1316  1.4764
  601MOL0     H79280   0.914   0.676  10.951  1.7074  3.1159  1.1847
  601MOL0     H79281   0.727   0.744  10.792  2.0035  2.9989 -2.4442
  601MOL0     H79282   0.812   0.666  10.669  0.6705  1.4149  0.3529
  601MOL0     H79283   0.720   0.531  10.915  0.1944 -0.1498  0.1653
  601MOL0     H79284   0.820   0.454  10.786  0.9631  2.2340  0.1491
  601MOL0     H79285   0.478   0.534  10.921 -0.2656  1.0861 -0.5319
  601MOL0     H79286   0.226   0.580  10.721  1.5648  0.2544 -2.0483
  601MOL0     H79287   0.223   0.464  10.859  0.9911 -1.5266 -0.6537
  601MOL0     H79288   0.198   0.362  10.573 -0.8016  1.9907 -0.1322
  601MOL0     H79289   0.057   0.433  10.658 -0.2784  1.9603  2.1456
  601MOL0     H79290   0.118   0.187  10.643  2.8938  0.2233 -1.1723
  601MOL0     H79291   0.220   0.230  10.779  1.4015  1.7366 -1.0584
  601MOL0     H79292  -0.037   0.159  10.844  1.4882 -0.2942 -0.9990
  601MOL0     H79293  -0.071   0.328  10.786  0.1230 -1.1453 -0.7382
  601MOL0     H79294  -0.214   0.411  10.941  1.1025 -0.1514 -1.8579
  601MOL0     H79295  -0.350   0.448  11.135 -0.9599  0.4396  2.7937
  601MOL0     H79296  -0.428   0.592  11.498 -0.3750  0.0665  1.2288
  601MOL0     H79297  -0.619   0.682  11.618  0.2782  1.1140 -2.6175
  601MOL0     H79298  -0.968   0.436  11.692  0.3431 -0.1928 -0.5492
  601MOL0     H79299  -1.018   0.526  11.549 -1.4931  1.9562  0.2381
  601MOL0     H79300  -1.047   0.723  11.723  1.6290  0.4419  3.5100
  601MOL0     H79301  -1.036   0.607  11.843  1.2640  3.7783 -0.3522
  601MOL0     H79302  -1.253   0.582  11.639  0.3896 -1.1779 -1.1042
  601MOL0     H79303  -1.264   0.658  11.804  0.7133 -0.5979 -0.4509
  601MOL0     H79304  -1.204   0.371  11.713  2.8128  1.7813 -0.2583
  601MOL0     H79305  -1.171   0.415  11.879  1.5840 -0.0086 -0.2331
  601MOL0     H79306  -1.440   0.406  11.731 -2.3334  0.4736  1.4368
  601MOL0     H79307  -1.436   0.509  11.865 -1.0950  0.1173 -1.0716
  601MOL0     H79308  -1.433   0.323  12.010 -1.9104  3.7863 -1.1539
  601MOL0     H79309  -1.344   0.210  11.899 -0.8273 -0.4561 -0.2823
  601MOL0     H79310  -1.551   0.212  11.762 -0.3273  0.6641 -0.0843
  601MOL0     H79311  -1.565   0.136  11.922 -0.5895  1.0391  0.7443
  601MOL0     H79312  -1.767   0.252  11.869  1.7773  0.9533 -1.1919
  601MOL0     H79313  -1.698   0.412  11.910 -1.3331  0.7035  0.5974
  601MOL0     H79314  -0.870   0.357  11.522 -0.4492  0.3311 -1.6041
  601MOL0     H79315  -0.663   0.237  11.413 -0.1266 -0.8253  2.3402
  601MOL0     H79316  -0.036   0.309  11.384  0.4796  4.4638  0.3682
  601MOL0     H79317   0.096   0.258  11.213 -1.0084  0.7858  1.4170
  601MOL0     H79318   1.531   0.982  10.663 -0.9368  2.6507  0.9293
  601MOL0     H79319   1.616   1.198  10.621 -0.8358 -1.8903 -1.3987
  601MOL0     H79320   2.196   1.432  10.833 -0.2431 -0.0888 -1.9671
  601MOL0     H79321   2.269   1.665  10.797  0.4369  0.4595 -2.1626
  601MOL0     H79322   2.317   1.856  10.728  1.2159  1.5863  1.1517
  601MOL0     H79323   2.248   1.884  10.888  1.3806 -0.6478  0.0223
  601MOL0     H79324   2.341   2.095  10.824  0.7155 -0.9995 -0.5296
  601MOL0     H79325   2.256   2.090  10.666 -0.5311 -1.2055 -0.5021
  601MOL0     H79326   2.043   2.085  10.802  0.3264 -0.5690 -0.8477
  601MOL0     H79327   2.130   2.237  10.801 -1.1770  0.3633  0.1284
  601MOL0     H79328   2.036   2.183  11.023  0.2778  0.3331  0.6822
  601MOL0     H79329   2.152   2.042  11.036  2.9148 -1.0886 -1.7108
  601MOL0     H79330   2.427   2.357  11.072 -2.4416  1.9689  1.5134
  601MOL0     H79331   1.889   1.783  10.662 -1.6985 -1.3965 -0.5804
  601MOL0     H79332   1.819   1.539  10.648  0.1018 -0.5014  0.5670
  602MOL0     O79333  10.420   2.000  11.226  0.4787  0.0497  1.0323
  602MOL0     C79334  10.358   1.891  11.247 -0.0486 -0.4295 -0.8072
  602MOL0     O79335  10.421   1.774  11.264 -0.3429 -0.5322 -0.7062
  602MOL0     C79336  10.554   1.768  11.244 -0.1956 -0.3716 -0.3583
  602MOL0     C79337  10.644   1.835  11.319  0.9109 -0.7202 -0.1518
  602MOL0     C79338  10.777   1.828  11.295 -0.6598  0.4717  0.5508
  602MOL0     C79339  10.824   1.741  11.196  0.0004  0.9916 -0.3607
  602MOL0     O79340  10.954   1.704  11.174 -0.5972 -0.4910 -0.2761
  602MOL0     C79341  11.064   1.769  11.246 -0.3289  0.9363  0.5215
  602MOL0     C79342  11.201   1.716  11.196  0.5356  0.7761 -0.5140
  602MOL0     C79343  11.240   1.784  11.060  0.0225 -0.1006  0.0035
  602MOL0     C79344  11.381   1.753  11.012  0.2008 -0.5508 -0.0780
  602MOL0     C79345  11.391   1.765  10.858  0.3308  0.4004 -0.1944
  602MOL0     C79346  11.534   1.823  10.811  1.4494  0.8843 -0.2486
  602MOL0     C79347  11.657   1.756  10.864 -0.3634  0.1075 -0.1248
  602MOL0     C79348  11.672   1.613  10.814 -0.2217 -0.4942  0.2663
  602MOL0     N79349  11.813   1.565  10.837 -0.1248 -0.2283 -0.1194
  602MOL0     C79350  11.883   1.476  10.759  0.1424  0.0225 -0.1728
  602MOL0     C79351  11.974   1.412  10.844  0.0700 -0.5000  0.8784
  602MOL0     C79352  12.083   1.309  10.805 -0.3713  0.3453 -0.6633
  602MOL0     C79353  12.026   1.188  10.719 -0.0785 -0.2620 -0.0993
  602MOL0     C79354  12.038   1.200  10.569  0.1296  0.3689  0.4379
  602MOL0     C79355  11.912   1.153  10.504 -0.2662  0.0239  0.1143
  602MOL0     O79356  11.904   1.010  10.516  0.0007  0.2567  0.0892
  602MOL0     C79357  11.787   0.946  10.481 -0.9279  0.1609 -1.2274
  602MOL0     C79358  11.780   0.806  10.507  0.3131  0.6048  0.7700
  602MOL0     C79359  11.660   0.734  10.470  0.2709  0.4377 -0.3153
  602MOL0     C79360  11.547   0.790  10.414  0.0514 -0.8249 -0.8975
  602MOL0     C79361  11.428   0.721  10.375 -0.6366  0.2558  0.7306
  602MOL0     O79362  11.308   0.788  10.368  0.1284 -0.1856  0.3355
  602MOL0     C79363  11.200   0.727  10.318 -0.3368  0.6134 -0.1286
  602MOL0     C79364  11.097   0.696  10.404 -0.6406 -0.1769  0.2102
  602MOL0     C79365  10.975   0.645  10.361 -0.4301  0.6096 -0.5333
  602MOL0     C79366  10.950   0.623  10.221 -0.3411  0.7810 -0.5833
  602MOL0     O79367  10.834   0.580  10.158  0.5569  0.0304  0.1653
  602MOL0     C79368  10.719   0.546  10.236  0.3817 -1.1597 -0.2322
  602MOL0     C79369  10.633   0.451  10.151  0.8027  0.9655 -0.2872
  602MOL0     C79370  10.515   0.425  10.232  0.0169  0.4737  0.6208
  602MOL0     C79371  10.436   0.315  10.156 -0.1628 -0.0772  0.0967
  602MOL0     C79372  10.343   0.361  10.044 -0.2414 -0.2286 -0.5644
  602MOL0     C79373  10.258   0.247   9.991  0.1588 -0.3818  0.8420
  602MOL0     C79374  10.139   0.223  10.086 -0.4919  0.6054 -0.4145
  602MOL0     C79375  10.043   0.128  10.017  0.5498  0.1351  0.4575
  602MOL0    Cl79376   9.978   0.202   9.877 -0.3415  0.0196  0.2988
  602MOL0     C79377  11.059   0.640  10.135  0.6605 -1.0944 -1.2206
  602MOL0     C79378  11.176   0.699  10.183  0.0645  1.1968  0.0608
  602MOL0     O79379  11.436   0.601  10.348  0.5212  0.4136 -0.0558
  602MOL0     C79380  11.548   0.931  10.408  0.8026  1.2590  0.9398
  602MOL0     C79381  11.662   1.004  10.449 -0.2234 -0.2206  0.6836
  602MOL0     N79382  11.955   1.472  10.967  1.0772 -0.0205  0.5968
  602MOL0     N79383  11.867   1.559  10.959 -0.3300 -0.6308 -0.6674
  602MOL0     C79384  10.735   1.666  11.123 -0.6226  0.6023  0.2390
  602MOL0     C79385  10.599   1.674  11.144  0.3226 -0.5738 -0.6517
  602MOL0     C79386  10.211   1.895  11.275 -1.0464  0.0137  1.3708
  602MOL0     C79387  10.152   1.784  11.340  0.0856 -0.6529 -0.2071
  602MOL0     C79388  10.011   1.779  11.360 -0.0819 -0.1519  0.6009
  602MOL0     C79389   9.932   1.871  11.304  0.3420 -0.0063 -0.0905
  602MOL0     O79390   9.795   1.863  11.297  0.2516  0.1535 -0.6454
  602MOL0     C79391   9.715   1.747  11.350 -0.1677  1.0104  0.0412
  602MOL0     C79392   9.724   1.732  11.499 -0.5208 -0.0608 -1.1485
  602MOL0     C79393   9.624   1.826  11.567  0.3347 -0.1354  0.0825
  602MOL0     C79394   9.477   1.771  11.562  0.3353  0.1521 -0.8618
  602MOL0     C79395   9.415   1.811  11.694  0.2965  0.0380 -0.2227
  602MOL0     C79396   9.374   1.844  11.802 -0.7637 -0.6750 -0.9285
  602MOL0     C79397   9.987   1.970  11.230  0.6657  0.2995 -0.1139
  602MOL0     C79398  10.127   1.973  11.206 -0.1481  0.6258  0.5046
  602MOL0     H79399  10.614   1.896  11.404 -0.3677 -1.9663  0.3315
  602MOL0     H79400  10.855   1.883  11.347 -0.1942  0.5560 -0.2108
  602MOL0     H79401  11.044   1.753  11.353  0.3813  0.5826  0.6106
  602MOL0     H79402  11.059   1.877  11.229 -1.6527  0.7136 -0.6581
  602MOL0     H79403  11.208   1.607  11.183  1.5666  0.5339  1.6191
  602MOL0     H79404  11.280   1.732  11.270  0.9040 -0.3753 -0.6263
  602MOL0     H79405  11.232   1.892  11.075 -0.6352 -0.2879  1.1503
  602MOL0     H79406  11.165   1.750  10.988 -0.9562 -0.1509  1.0108
  602MOL0     H79407  11.448   1.822  11.063  1.3774 -1.2093 -0.6794
  602MOL0     H79408  11.424   1.655  11.037 -0.1088 -0.4207  1.0158
  602MOL0     H79409  11.320   1.835  10.812  0.7613  0.1322 -1.2883
  602MOL0     H79410  11.384   1.667  10.810  1.2808  0.2273  0.0071
  602MOL0     H79411  11.534   1.927  10.845 -0.7062  0.5696  0.8993
  602MOL0     H79412  11.529   1.830  10.702 -1.9109 -0.5797 -0.2952
  602MOL0     H79413  11.743   1.817  10.835  1.2818 -1.4658  1.1771
  602MOL0     H79414  11.644   1.762  10.972  0.5472  1.0749 -0.0541
  602MOL0     H79415  11.659   1.615  10.705 -0.2976 -0.4761  0.2764
  602MOL0     H79416  11.603   1.546  10.867 -1.7075  1.2922  0.6729
  602MOL0     H79417  11.858   1.448  10.657  1.3460 -5.2074  0.6749
  602MOL0     H79418  12.141   1.265  10.886  0.1580 -1.4166 -1.9278
  602MOL0     H79419  12.148   1.357  10.731  1.9798  1.3299  1.8783
  602MOL0     H79420  11.925   1.163  10.753 -1.1958  1.5229 -1.8918
  602MOL0     H79421  12.081   1.103  10.761  0.1314  0.1972  0.5689
  602MOL0     H79422  12.045   1.306  10.542 -2.7055  0.4452 -0.2617
  602MOL0     H79423  12.117   1.143  10.518 -1.6674 -2.0514  0.1835
  602MOL0     H79424  11.926   1.168  10.396  0.9585 -0.5368  0.1731
  602MOL0     H79425  11.832   1.215  10.546  0.3134 -0.9139  2.8082
  602MOL0     H79426  11.863   0.748  10.544 -0.0794 -0.8473 -0.4831
  602MOL0     H79427  11.662   0.625  10.477  0.7513  0.5156  1.2313
  602MOL0     H79428  11.122   0.707  10.509  0.9873  1.4205 -0.2777
  602MOL0     H79429  10.898   0.629  10.436 -0.0220 -1.1216 -0.4421
  602MOL0     H79430  10.663   0.634  10.269  0.1097 -0.5016 -2.3095
  602MOL0     H79431  10.752   0.490  10.324  2.3040 -2.1157 -1.4712
  602MOL0     H79432  10.688   0.357  10.152 -1.0844 -0.1947  1.3955
  602MOL0     H79433  10.617   0.479  10.046  1.6569 -0.5497 -0.8573
  602MOL0     H79434  10.461   0.520  10.242 -1.6264 -0.4760  1.1049
  602MOL0     H79435  10.552   0.378  10.324  1.0343 -1.4049 -0.6802
  602MOL0     H79436  10.492   0.230  10.116 -0.1101 -0.7179  1.4677
  602MOL0     H79437  10.369   0.279  10.235  0.7080  3.6341  2.8324
  602MOL0     H79438  10.403   0.368   9.952 -0.1925 -4.7745 -1.1314
  602MOL0     H79439  10.281   0.448  10.067  1.2376  0.4248  1.1419
  602MOL0     H79440  10.322   0.161   9.967  1.8933 -0.0123  3.6528
  602MOL0     H79441  10.219   0.293   9.900  3.0084  1.2158  0.3057
  602MOL0     H79442  10.173   0.184  10.182  2.7812  1.6311 -1.0248
  602MOL0     H79443  10.077   0.311  10.107  0.5404  1.6478 -1.6027
  602MOL0     H79444   9.963   0.103  10.087  0.5207 -1.4318 -0.0890
  602MOL0     H79445  10.090   0.033   9.986 -2.9944 -1.1331 -1.6741
  602MOL0     H79446  11.055   0.616  10.029  1.8668 -1.7884 -1.1298
  602MOL0     H79447  11.253   0.726  10.111  0.0627 -1.7839 -1.2124
  602MOL0     H79448  11.466   0.986  10.362 -0.0328  1.0968  2.1916
  602MOL0     H79449  11.651   1.112  10.455  0.9989 -0.1479  2.4971
  602MOL0     H79450  10.770   1.591  11.053  0.0222  1.0317  0.0900
  602MOL0     H79451  10.525   1.618  11.087 -1.9465  0.8396  0.7776
  602MOL0     H79452  10.218   1.711  11.386  0.0629 -0.5575 -0.0217
  602MOL0     H79453   9.977   1.691  11.413 -2.2186  0.5665  0.5429
  602MOL0     H79454   9.766   1.658  11.313  1.7864  1.7033  0.9364
  602MOL0     H79455   9.606   1.748  11.338 -0.3690  1.3413  1.6546
  602MOL0     H79456   9.691   1.629  11.513  0.9586 -0.3401  0.8585
  602MOL0     H79457   9.823   1.730  11.547 -0.4042 -1.1185 -1.4044
  602MOL0     H79458   9.635   1.920  11.512  0.8474 -0.0035  0.4049
  602MOL0     H79459   9.651   1.847  11.671 -0.5865 -0.6538  0.4383
  602MOL0     H79460   9.423   1.808  11.474 -0.0413  2.7498  0.3767
  602MOL0     H79461   9.477   1.662  11.558  0.7822  0.0312  1.2760
  602MOL0     H79462   9.338   1.865  11.900 -3.0355  5.4354 -2.5989
  602MOL0     H79463   9.919   2.035  11.176 -1.9799 -0.6224  1.9187
  602MOL0     H79464  10.162   2.044  11.131 -1.1823  0.4721 -0.1503
  603MOL0     O79465   8.941   6.355   3.893  0.6658  0.3937  0.2013
  603MOL0     C79466   9.005   6.324   3.997 -0.2410 -0.3050  0.2214
  603MOL0     O79467   8.952   6.236   4.093 -0.2008  0.9991  0.5182
  603MOL0     C79468   8.820   6.221   4.089  1.9860  0.6414 -0.4109
  603MOL0     C79469   8.755   6.252   4.202 -0.4593  0.0869 -0.0007
  603MOL0     C79470   8.623   6.221   4.221  0.3918 -0.9628  0.0299
  603MOL0     C79471   8.535   6.166   4.117 -0.0957 -0.3683  0.2917
  603MOL0     O79472   8.405   6.151   4.138 -0.1294  0.1639 -0.1159
  603MOL0     C79473   8.307   6.122   4.036  0.4252  0.3753 -0.4126
  603MOL0     C79474   8.177   6.199   4.058  0.2235 -0.7701 -0.2158
  603MOL0     C79475   8.049   6.119   4.010 -1.0123 -1.0503  0.5360
  603MOL0     C79476   7.923   6.190   4.054  0.3943 -0.6964 -0.4294
  603MOL0     C79477   7.792   6.128   3.984 -0.7351 -1.2441 -0.6591
  603MOL0     C79478   7.746   6.005   4.065 -0.1793 -0.7932  0.5398
  603MOL0     C79479   7.610   5.953   4.007 -0.6902 -0.4186  0.7011
  603MOL0     C79480   7.595   5.802   4.006 -0.1026 -0.5381  0.5698
  603MOL0     N79481   7.467   5.781   3.941 -0.5569  0.1232 -0.9672
  603MOL0     C79482   7.347   5.784   4.005 -0.6988  0.0932 -0.5874
  603MOL0     C79483   7.267   5.757   3.896  0.7436  0.1602 -0.8081
  603MOL0     C79484   7.117   5.723   3.896  0.3655 -0.3361  0.4468
  603MOL0     C79485   7.050   5.852   3.946 -0.9092  0.3492 -0.8620
  603MOL0     C79486   6.899   5.830   3.977  0.1168  0.5753 -0.0877
  603MOL0     C79487   6.805   5.800   3.860 -0.6046  0.1384 -0.1886
  603MOL0     O79488   6.672   5.797   3.918 -0.3877  0.0737 -0.5730
  603MOL0     C79489   6.564   5.829   3.848  0.9461  0.3185  0.4212
  603MOL0     C79490   6.481   5.732   3.798  0.9571 -0.5160 -1.2667
  603MOL0     C79491   6.349   5.766   3.759 -0.2886  0.0175 -0.3766
  603MOL0     C79492   6.304   5.899   3.762 -0.2400  0.6700  0.2036
  603MOL0     C79493   6.168   5.925   3.709 -0.1819 -0.0344  0.1100
  603MOL0     O79494   6.069   5.829   3.707 -0.3146 -0.0780  0.7141
  603MOL0     C79495   5.938   5.865   3.676  0.6594 -0.8610  0.4701
  603MOL0     C79496   5.866   5.934   3.770 -0.5458 -0.1378 -0.0840
  603MOL0     C79497   5.735   5.975   3.750 -0.1051  0.1623  0.2549
  603MOL0     C79498   5.676   5.948   3.623  0.3166 -0.2962 -0.3472
  603MOL0     O79499   5.547   5.979   3.595  0.0958  0.0801  0.1617
  603MOL0     C79500   5.475   6.069   3.685 -0.6383 -1.0395  0.6397
  603MOL0     C79501   5.330   6.053   3.639  0.0258  0.5675 -0.5986
  603MOL0     C79502   5.248   6.140   3.732 -0.0593 -0.4283 -0.6566
  603MOL0     C79503   5.119   6.174   3.647  0.3246  0.8491 -1.0233
  603MOL0     C79504   5.031   6.065   3.602 -0.7177  0.3449  0.5009
  603MOL0     C79505   5.016   5.956   3.711 -0.3142  0.0299  0.8332
  603MOL0     C79506   4.898   5.860   3.689 -0.0032 -0.2555  0.1269
  603MOL0     C79507   4.888   5.769   3.565  0.9757 -0.4993  0.7118
  603MOL0    Cl79508   4.853   5.864   3.415  0.2347 -0.3103 -0.2444
  603MOL0     C79509   5.756   5.891   3.521 -0.7988 -0.8486 -0.9238
  603MOL0     C79510   5.887   5.841   3.546  0.1549  0.6036  0.6140
  603MOL0     O79511   6.148   6.033   3.674 -0.3995  0.3694  0.2980
  603MOL0     C79512   6.393   5.995   3.817 -0.0584 -0.5849  0.1311
  603MOL0     C79513   6.522   5.963   3.860 -0.6043 -0.1928 -0.1726
  603MOL0     N79514   7.331   5.742   3.774  1.2832 -0.1975 -0.2531
  603MOL0     N79515   7.454   5.763   3.807  0.9584  0.6586 -0.5319
  603MOL0     C79516   8.603   6.136   3.992 -0.2091 -0.0088  0.6453
  603MOL0     C79517   8.744   6.162   3.989  0.2273  0.1884  0.5220
  603MOL0     C79518   9.129   6.398   4.031  0.2932  0.3569 -0.1315
  603MOL0     C79519   9.163   6.510   3.948  0.1044 -0.5569  0.1371
  603MOL0     C79520   9.264   6.604   3.984 -0.7473 -0.2380  0.3880
  603MOL0     C79521   9.349   6.577   4.088  0.2038 -0.5910  0.0498
  603MOL0     O79522   9.433   6.680   4.126  1.0106 -0.2916 -0.1990
  603MOL0     C79523   9.562   6.635   4.175  0.7298 -0.2821  0.4135
  603MOL0     C79524   9.670   6.728   4.106 -0.2296  0.5230 -0.6468
  603MOL0     C79525   9.818   6.715   4.145  0.4115  0.5296 -1.7457
  603MOL0     C79526   9.903   6.833   4.115  0.6898 -0.3890  1.4609
  603MOL0     C79527  10.042   6.791   4.089  0.6865 -0.3433  1.1673
  603MOL0     C79528  10.153   6.753   4.057 -0.2711 -0.4703  0.6077
  603MOL0     C79529   9.332   6.452   4.158 -0.9801 -0.5601 -0.3413
  603MOL0     C79530   9.223   6.370   4.132  0.9518 -0.1387  0.8851
  603MOL0     H79531   8.811   6.304   4.280 -0.9248  0.0101  0.3873
  603MOL0     H79532   8.596   6.226   4.326  0.0939 -1.0339 -0.0426
  603MOL0     H79533   8.270   6.019   4.036 -0.9221  0.8287 -0.7459
  603MOL0     H79534   8.336   6.143   3.933 -2.1956  0.8744 -1.1296
  603MOL0     H79535   8.185   6.295   4.007  0.1761 -0.2242  0.7761
  603MOL0     H79536   8.171   6.223   4.165  1.2939 -0.8580 -0.1289
  603MOL0     H79537   8.049   6.017   4.050 -0.9084 -0.5850  1.8013
  603MOL0     H79538   8.052   6.111   3.901  1.2720  3.8624 -0.0787
  603MOL0     H79539   7.903   6.181   4.161 -0.0636  1.5727 -0.2716
  603MOL0     H79540   7.925   6.296   4.029  0.7995 -0.4410  0.6687
  603MOL0     H79541   7.823   6.101   3.883  0.0582  1.2632 -1.1672
  603MOL0     H79542   7.704   6.193   3.981  0.7245  0.8238 -0.6642
  603MOL0     H79543   7.731   6.027   4.171  1.8981  0.4063  0.6507
  603MOL0     H79544   7.834   5.940   4.071  0.6487  0.1287 -0.9846
  603MOL0     H79545   7.528   6.003   4.058  0.7032  0.7913  1.8553
  603MOL0     H79546   7.597   5.991   3.905 -1.2127  1.5523  1.4595
  603MOL0     H79547   7.598   5.756   4.105  1.1127  0.1480  0.8737
  603MOL0     H79548   7.677   5.749   3.957  1.9824 -0.0722  3.3476
  603MOL0     H79549   7.327   5.806   4.109  0.2668  3.1941 -0.9447
  603MOL0     H79550   7.102   5.636   3.960 -1.6987 -1.4645 -1.4009
  603MOL0     H79551   7.090   5.688   3.795 -1.0405 -0.8798  0.9824
  603MOL0     H79552   7.079   5.939   3.886  0.4919 -0.1137 -0.9032
  603MOL0     H79553   7.087   5.886   4.043 -0.6424 -0.5229 -0.6478
  603MOL0     H79554   6.894   5.747   4.049  1.9351 -0.1164 -0.7009
  603MOL0     H79555   6.867   5.921   4.029  0.3867  1.5063 -1.5019
  603MOL0     H79556   6.824   5.707   3.805 -1.9095  0.1160 -0.6367
  603MOL0     H79557   6.817   5.891   3.800  0.0230 -0.6903 -1.3783
  603MOL0     H79558   6.513   5.628   3.792 -0.0402 -0.9869  0.7874
  603MOL0     H79559   6.284   5.693   3.714  0.5060  1.2779 -3.8700
  603MOL0     H79560   5.920   5.957   3.861 -0.1031 -2.1274  0.1880
  603MOL0     H79561   5.698   6.020   3.841 -1.3108 -0.3514  0.0366
  603MOL0     H79562   5.515   6.170   3.671 -1.3748 -1.1246 -3.1640
  603MOL0     H79563   5.479   6.043   3.791  0.9751  0.5399  1.0257
  603MOL0     H79564   5.301   5.948   3.640 -0.7416  0.7429  1.5484
  603MOL0     H79565   5.327   6.078   3.533 -1.0459 -0.7386 -0.9002
  603MOL0     H79566   5.307   6.229   3.754  1.2197 -1.5412  0.5833
  603MOL0     H79567   5.230   6.091   3.828  1.3096  1.2281  0.5157
  603MOL0     H79568   5.060   6.234   3.716 -2.3961 -2.0707 -0.5873
  603MOL0     H79569   5.145   6.236   3.560 -1.5376  2.8890 -0.2077
  603MOL0     H79570   5.076   6.015   3.515  0.4861 -0.3128  1.4546
  603MOL0     H79571   4.930   6.101   3.580 -0.5223  1.3975  1.2828
  603MOL0     H79572   5.005   6.006   3.807  4.1607  1.2775  0.9003
  603MOL0     H79573   5.106   5.895   3.706 -1.3400 -1.4514 -1.6729
  603MOL0     H79574   4.886   5.795   3.776 -1.0213 -3.0335 -1.9220
  603MOL0     H79575   4.812   5.926   3.677  0.5995  0.6169  0.5288
  603MOL0     H79576   4.813   5.693   3.587  2.0128 -1.3658  1.3498
  603MOL0     H79577   4.973   5.701   3.552 -1.8890 -4.3942  0.6306
  603MOL0     H79578   5.715   5.889   3.420 -1.1329 -1.1591 -0.7849
  603MOL0     H79579   5.948   5.795   3.468  0.4677  0.6993  0.7986
  603MOL0     H79580   6.359   6.098   3.817  0.4546 -0.3366 -2.6730
  603MOL0     H79581   6.590   6.029   3.912 -3.0098  1.8392  0.5652
  603MOL0     H79582   8.558   6.085   3.908 -4.5005  0.2371  2.5539
  603MOL0     H79583   8.793   6.132   3.897 -0.5705  1.7118 -0.4499
  603MOL0     H79584   9.101   6.543   3.865 -0.5239  1.9097  1.4923
  603MOL0     H79585   9.277   6.697   3.930  1.8936 -0.4834  0.4947
  603MOL0     H79586   9.578   6.527   4.171 -4.4652 -1.4279  2.3396
  603MOL0     H79587   9.567   6.666   4.280 -0.2069  1.5498 -0.0415
  603MOL0     H79588   9.659   6.717   3.997 -4.3412  1.3579 -0.4979
  603MOL0     H79589   9.640   6.831   4.128 -1.7638 -0.0062 -0.1005
  603MOL0     H79590   9.851   6.630   4.084  0.6175  1.5913 -3.1456
  603MOL0     H79591   9.827   6.695   4.252 -3.1530  2.2438 -0.9757
  603MOL0     H79592   9.866   6.889   4.028  2.6768 -1.5543 -0.2327
  603MOL0     H79593   9.897   6.913   4.190 -2.2588  0.3456  0.5606
  603MOL0     H79594  10.252   6.720   4.034 -0.6354  0.0791 -2.0356
  603MOL0     H79595   9.404   6.436   4.238  0.5963  1.8400 -1.1566
  603MOL0     H79596   9.202   6.286   4.198  1.2851 -0.4178  0.6403
  604MOL0     O79597   9.967   3.856   0.262  0.0090  1.0840 -0.4877
  604MOL0     C79598   9.992   3.751   0.204  0.2696 -0.2278 -0.5316
  604MOL0     O79599   9.900   3.671   0.136  0.7067  0.3209  0.4186
  604MOL0     C79600   9.775   3.713   0.162 -0.0696 -0.0547  0.7665
  604MOL0     C79601   9.712   3.671   0.277  0.4094 -1.0700  0.3732
  604MOL0     C79602   9.581   3.717   0.305  0.5527  0.0987  0.5569
  604MOL0     C79603   9.508   3.806   0.218  0.3078 -0.2163 -0.1505
  604MOL0     O79604   9.386   3.858   0.244  0.0886  0.8548 -0.2553
  604MOL0     C79605   9.357   3.886   0.377 -0.2509 -0.1091 -0.2306
  604MOL0     C79606   9.232   3.976   0.384 -0.5987  0.0543  0.4470
  604MOL0     C79607   9.107   3.892   0.349  0.1070 -0.8206  0.8259
  604MOL0     C79608   8.985   3.988   0.341 -0.9597  0.1316 -0.7998
  604MOL0     C79609   8.844   3.918   0.355  0.1333  0.3046 -0.4528
  604MOL0     C79610   8.828   3.824   0.235 -0.0829  1.0818 -0.0909
  604MOL0     C79611   8.687   3.756   0.223 -0.4644 -0.3193  0.5892
  604MOL0     C79612   8.655   3.650   0.335 -0.8295  0.2563  0.8660
  604MOL0     N79613   8.526   3.588   0.319  0.0738 -0.2180 -0.2541
  604MOL0     C79614   8.405   3.652   0.291  0.2647  0.5120  0.2807
  604MOL0     C79615   8.316   3.552   0.323  0.4540  0.4407 -0.6105
  604MOL0     C79616   8.169   3.543   0.302  0.0722 -1.0815 -0.1692
  604MOL0     C79617   8.108   3.553   0.439  0.0604 -0.5347 -0.7363
  604MOL0     C79618   7.997   3.439   0.469 -0.9160 -0.4396 -0.1152
  604MOL0     C79619   7.855   3.472   0.402 -0.1110 -0.4837  0.2661
  604MOL0     O79620   7.738   3.426   0.469  0.6635 -0.1090 -0.1082
  604MOL0     C79621   7.625   3.400   0.399 -0.6892  0.2231  0.9754
  604MOL0     C79622   7.524   3.339   0.472 -0.1640 -0.4224 -0.0699
  604MOL0     C79623   7.401   3.299   0.407 -0.0832 -0.1384 -0.6283
  604MOL0     C79624   7.378   3.325   0.272  0.0167  0.7635 -0.9742
  604MOL0     C79625   7.252   3.288   0.209  0.1881  0.0847 -0.5527
  604MOL0     O79626   7.164   3.229   0.293 -0.0292  0.3090  0.3766
  604MOL0     C79627   7.055   3.162   0.239 -0.0347  0.4892 -0.4831
  604MOL0     C79628   6.936   3.182   0.303  0.6265 -0.2502 -0.6230
  604MOL0     C79629   6.820   3.113   0.269  0.8083 -0.9072  0.2501
  604MOL0     C79630   6.821   3.025   0.156 -0.3814  0.9403  0.8081
  604MOL0     O79631   6.715   2.953   0.106  0.0671 -0.6657  0.2866
  604MOL0     C79632   6.604   2.940   0.194  0.0073  0.0493 -0.0075
  604MOL0     C79633   6.491   2.868   0.124 -0.7170  0.0766 -1.5622
  604MOL0     C79634   6.516   2.725   0.078 -0.8302 -0.5213 -0.8924
  604MOL0     C79635   6.391   2.674  -0.001 -0.0478  0.4580 -0.4135
  604MOL0     C79636   6.380   2.523   0.012 -0.2025 -0.4714  0.7736
  604MOL0     C79637   6.269   2.481  -0.090 -0.0283  0.3600  0.4683
  604MOL0     C79638   6.249   2.335  -0.082 -0.3242  0.3665 -0.1005
  604MOL0     C79639   6.197   2.286  -0.219 -0.2601  0.5522  0.9685
  604MOL0    Cl79640   6.048   2.367  -0.276  0.0295  0.6754  0.2497
  604MOL0     C79641   6.941   3.002   0.095  0.2616 -0.6558 -0.3522
  604MOL0     C79642   7.055   3.074   0.135  0.4389  0.0920  0.0151
  604MOL0     O79643   7.227   3.323   0.094 -0.1604  0.3549  0.1896
  604MOL0     C79644   7.479   3.391   0.207 -0.6711  0.5895  0.1619
  604MOL0     C79645   7.603   3.432   0.265  0.6190 -0.2218 -0.6464
  604MOL0     N79646   8.382   3.440   0.372  0.5290  0.5291 -0.6820
  604MOL0     N79647   8.511   3.460   0.357 -0.3194  0.2200 -0.3718
  604MOL0     C79648   9.569   3.832   0.097 -0.2122  0.1258  0.0586
  604MOL0     C79649   9.701   3.785   0.066 -0.8300 -0.0268  0.1137
  604MOL0     C79650  10.129   3.711   0.211  0.3948 -0.2584  1.2506
  604MOL0     C79651  10.167   3.578   0.210  1.6524 -0.0062 -0.1832
  604MOL0     C79652  10.305   3.546   0.214 -0.2289  0.0046 -0.3255
  604MOL0     C79653  10.404   3.651   0.212 -0.1855  0.4550  0.0308
  604MOL0     O79654  10.531   3.597   0.211  0.6874 -0.7294 -0.2314
  604MOL0     C79655  10.649   3.683   0.219  0.0609 -0.2909  0.5507
  604MOL0     C79656  10.767   3.602   0.236  0.2491 -0.3994 -0.1632
  604MOL0     C79657  10.833   3.587   0.104 -0.8343 -0.2329 -0.7045
  604MOL0     C79658  10.746   3.504  -0.001 -0.1995  0.1610 -0.4930
  604MOL0     C79659  10.836   3.461  -0.107  0.1961 -0.9878 -0.2717
  604MOL0     C79660  10.930   3.436  -0.174  0.2008 -0.4991 -1.0503
  604MOL0     C79661  10.368   3.782   0.234 -0.0622  0.0495 -0.1488
  604MOL0     C79662  10.234   3.805   0.226 -1.0238 -0.1392 -0.6106
  604MOL0     H79663   9.768   3.612   0.348 -1.6770 -4.0301 -0.2699
  604MOL0     H79664   9.533   3.679   0.394  1.7068 -0.4439  0.9697
  604MOL0     H79665   9.438   3.923   0.442 -0.1415 -4.1693  2.3191
  604MOL0     H79666   9.333   3.794   0.430  0.8457  1.5802  3.6340
  604MOL0     H79667   9.247   4.058   0.313  0.4334  0.5936  1.2611
  604MOL0     H79668   9.231   4.007   0.490  2.1727 -3.2507  1.5939
  604MOL0     H79669   9.095   3.805   0.415 -1.2743 -3.1379 -2.2299
  604MOL0     H79670   9.127   3.845   0.252  2.0093  0.9118  0.3280
  604MOL0     H79671   8.980   4.055   0.427  0.1971 -2.7753  1.7208
  604MOL0     H79672   8.990   4.038   0.244  1.7443  1.3008 -0.1415
  604MOL0     H79673   8.771   4.000   0.356 -1.6566 -1.2112  0.0768
  604MOL0     H79674   8.830   3.864   0.449 -1.1181  0.3641 -0.5831
  604MOL0     H79675   8.889   3.734   0.243 -0.9640  0.3169 -1.5186
  604MOL0     H79676   8.842   3.887   0.146 -1.6602  2.1198  0.3402
  604MOL0     H79677   8.616   3.839   0.228  1.0459  1.0484  0.4193
  604MOL0     H79678   8.692   3.698   0.130 -1.9629 -1.3590  1.1256
  604MOL0     H79679   8.667   3.717   0.421  0.6393  2.7662 -1.1545
  604MOL0     H79680   8.732   3.572   0.337  0.7212  1.7200  1.2410
  604MOL0     H79681   8.391   3.750   0.246  0.0092 -0.8036 -2.7445
  604MOL0     H79682   8.136   3.455   0.247 -0.7176 -1.2923  0.6179
  604MOL0     H79683   8.137   3.629   0.242  0.4674 -2.9308 -3.2023
  604MOL0     H79684   8.056   3.649   0.450  4.0349  1.6622  1.0043
  604MOL0     H79685   8.181   3.564   0.519 -0.0508  3.7968 -1.0211
  604MOL0     H79686   8.036   3.345   0.427 -2.3865 -0.8017 -0.7229
  604MOL0     H79687   7.971   3.454   0.574 -2.0982  4.0656 -0.8785
  604MOL0     H79688   7.847   3.431   0.301  0.1367 -0.4497  0.2325
  604MOL0     H79689   7.843   3.581   0.391  0.5000 -0.5394 -1.1337
  604MOL0     H79690   7.545   3.305   0.573  1.9279 -1.6026 -0.8274
  604MOL0     H79691   7.323   3.257   0.470 -1.1320  1.5878 -0.7122
  604MOL0     H79692   6.926   3.249   0.387 -1.1934  0.5973 -1.4523
  604MOL0     H79693   6.726   3.129   0.320  0.0104 -3.7571 -0.1491
  604MOL0     H79694   6.565   3.035   0.233  0.2463 -1.1215  3.3935
  604MOL0     H79695   6.626   2.879   0.282 -1.3412  0.6924  0.8070
  604MOL0     H79696   6.464   2.932   0.039 -1.2768  0.8881 -0.7922
  604MOL0     H79697   6.400   2.877   0.185  0.1107  1.7809 -0.4988
  604MOL0     H79698   6.541   2.661   0.163  1.3458  0.9607 -0.3092
  604MOL0     H79699   6.605   2.714   0.016 -0.7733 -1.2771 -0.6874
  604MOL0     H79700   6.297   2.721   0.029 -1.0768 -0.7143 -1.7094
  604MOL0     H79701   6.409   2.713  -0.101  0.6535  0.2331 -0.3805
  604MOL0     H79702   6.356   2.483   0.111  2.2583  0.3682  1.7820
  604MOL0     H79703   6.477   2.475  -0.002 -0.5068 -1.3540  1.5992
  604MOL0     H79704   6.301   2.517  -0.188  0.8654  1.0198  0.9916
  604MOL0     H79705   6.176   2.534  -0.066 -0.1495  0.0511  0.6898
  604MOL0     H79706   6.345   2.287  -0.064  0.8762  2.5185 -0.4178
  604MOL0     H79707   6.175   2.318  -0.003 -0.0767 -0.7031 -0.0830
  604MOL0     H79708   6.164   2.182  -0.213 -2.2415  1.1873  3.5143
  604MOL0     H79709   6.271   2.292  -0.299 -1.6064 -1.1905 -0.4921
  604MOL0     H79710   6.949   2.928   0.016  0.8515 -1.2665  0.2662
  604MOL0     H79711   7.147   3.050   0.083  0.7264  1.1951 -0.0067
  604MOL0     H79712   7.470   3.401   0.099  1.3963  0.2559 -0.0976
  604MOL0     H79713   7.673   3.482   0.198  0.9632 -0.2565 -0.3171
  604MOL0     H79714   9.506   3.883   0.025 -1.6266  0.9697  1.8153
  604MOL0     H79715   9.741   3.809  -0.032  2.3060  1.5080  1.6065
  604MOL0     H79716  10.091   3.500   0.212  0.0815  1.4785  0.9780
  604MOL0     H79717  10.348   3.446   0.212 -1.1089 -0.4727 -4.7893
  604MOL0     H79718  10.631   3.755   0.299  0.4461  2.2426 -1.5275
  604MOL0     H79719  10.660   3.748   0.132 -1.1975  0.2248  0.7501
  604MOL0     H79720  10.839   3.666   0.288  0.5347  0.5907 -1.7144
  604MOL0     H79721  10.761   3.508   0.292 -0.3062  0.5731  1.4754
  604MOL0     H79722  10.924   3.530   0.125  0.2963  1.3370 -1.1090
  604MOL0     H79723  10.878   3.675   0.058  0.6413 -1.0904 -0.9703
  604MOL0     H79724  10.708   3.421   0.060  1.6875  0.2195  0.8564
  604MOL0     H79725  10.659   3.553  -0.047  2.1080  2.5009 -2.6703
  604MOL0     H79726  11.022   3.418  -0.227 -0.1040  2.0696 -2.6484
  604MOL0     H79727  10.437   3.863   0.253 -0.7002  0.4379  0.5562
  604MOL0     H79728  10.213   3.911   0.228  1.6183  0.4753 -1.9204
  605MOL0     O79729   0.078   5.593   5.517  0.7441  0.1022  0.1816
  605MOL0     C79730  -0.018   5.609   5.439  0.2552  0.9234 -0.7517
  605MOL0     O79731  -0.004   5.632   5.305  0.4489 -0.7100 -0.0687
  605MOL0     C79732   0.125   5.613   5.262 -0.4912 -0.1734 -0.0494
  605MOL0     C79733   0.171   5.497   5.211  0.0071  0.0909  0.1281
  605MOL0     C79734   0.300   5.490   5.148  0.0216 -0.2618 -0.1624
  605MOL0     C79735   0.390   5.610   5.142 -0.3867  0.9748 -0.3129
  605MOL0     O79736   0.521   5.592   5.094 -0.3253 -0.0419 -0.2935
  605MOL0     C79737   0.621   5.662   5.174 -0.2245 -0.4568  0.3407
  605MOL0     C79738   0.757   5.602   5.143  0.1659 -0.4426 -0.0076
  605MOL0     C79739   0.777   5.456   5.185 -0.7215 -0.8315  0.3002
  605MOL0     C79740   0.908   5.406   5.118 -0.4709 -0.2588 -0.0577
  605MOL0     C79741   0.948   5.257   5.155  0.0104 -0.0759 -0.6493
  605MOL0     C79742   1.064   5.212   5.062  0.5132 -0.2731 -0.3416
  605MOL0     C79743   1.111   5.070   5.092  0.0015  0.2097  0.5033
  605MOL0     C79744   1.017   4.958   5.009 -0.2308  0.0838  0.0115
  605MOL0     N79745   0.877   4.940   5.055 -0.6012  0.1656  0.0151
  605MOL0     C79746   0.850   4.926   5.185 -0.4036 -0.1414 -1.2108
  605MOL0     C79747   0.723   4.966   5.200  0.5310 -0.3134 -0.3203
  605MOL0     C79748   0.654   4.957   5.328 -0.7700  0.1444  0.4272
  605MOL0     C79749   0.580   4.820   5.347 -0.9857 -0.3860  0.5082
  605MOL0     C79750   0.486   4.787   5.228 -0.4785 -0.0944 -0.2172
  605MOL0     C79751   0.374   4.896   5.204  0.3511  0.9946  0.1129
  605MOL0     O79752   0.313   4.913   5.326  0.9304 -0.5634  0.4601
  605MOL0     C79753   0.207   4.995   5.321  0.4909  0.3927 -0.5674
  605MOL0     C79754   0.087   4.957   5.261 -0.1113 -0.0809  0.4904
  605MOL0     C79755  -0.033   5.029   5.269 -0.0661  0.4336  0.7781
  605MOL0     C79756  -0.034   5.152   5.336  0.4424 -0.2643  1.3861
  605MOL0     C79757  -0.160   5.231   5.354 -0.7295  0.1182  0.2286
  605MOL0     O79758  -0.272   5.186   5.290 -0.1696  0.3979 -0.3169
  605MOL0     C79759  -0.388   5.251   5.297  0.5553  0.3896 -0.2066
  605MOL0     C79760  -0.439   5.313   5.189 -0.6355  0.9096  0.7233
  605MOL0     C79761  -0.561   5.366   5.181  0.0704 -0.4570 -0.3524
  605MOL0     C79762  -0.630   5.386   5.306  0.5514  0.4996 -0.2613
  605MOL0     O79763  -0.752   5.455   5.298 -1.1001  0.0437 -0.0310
  605MOL0     C79764  -0.839   5.484   5.407  1.0908 -0.2776 -0.5010
  605MOL0     C79765  -0.976   5.533   5.351  0.7223 -1.1377 -0.3119
  605MOL0     C79766  -1.056   5.582   5.472 -0.1753 -1.1526  0.4225
  605MOL0     C79767  -1.183   5.662   5.428 -0.4041 -0.2876  0.5802
  605MOL0     C79768  -1.285   5.667   5.549 -0.9855 -0.1138  0.2725
  605MOL0     C79769  -1.402   5.759   5.507 -0.1504  0.5802  0.5774
  605MOL0     C79770  -1.521   5.762   5.605  0.6791 -0.0523 -0.0736
  605MOL0     C79771  -1.655   5.823   5.544 -0.5223  0.2589  0.1081
  605MOL0    Cl79772  -1.799   5.795   5.649  0.0367  0.0044  0.0527
  605MOL0     C79773  -0.574   5.332   5.426  0.2136  1.2279 -0.9591
  605MOL0     C79774  -0.451   5.269   5.423 -0.5668 -0.9328 -0.0591
  605MOL0     O79775  -0.161   5.334   5.424  0.8402 -0.1434  0.1040
  605MOL0     C79776   0.085   5.200   5.393 -0.0213 -0.5248  0.2139
  605MOL0     C79777   0.200   5.118   5.395 -0.2974 -0.2406 -0.0489
  605MOL0     N79778   0.673   5.009   5.081 -0.5136  0.2262 -0.1973
  605MOL0     N79779   0.766   4.998   4.993 -0.2163  0.2561  0.1482
  605MOL0     C79780   0.345   5.715   5.223 -0.3716 -0.1867  0.0460
  605MOL0     C79781   0.214   5.722   5.272  0.0231 -0.2500 -0.2649
  605MOL0     C79782  -0.155   5.634   5.497 -0.0653 -0.4309  0.7485
  605MOL0     C79783  -0.264   5.603   5.416 -1.5671  0.2313 -0.9726
  605MOL0     C79784  -0.391   5.659   5.446  0.2864  0.6117  0.2099
  605MOL0     C79785  -0.412   5.732   5.565 -0.0034 -0.4837 -0.0129
  605MOL0     O79786  -0.542   5.777   5.581  0.0925  0.6682  0.3529
  605MOL0     C79787  -0.581   5.837   5.698 -0.2358 -0.5519 -0.3307
  605MOL0     C79788  -0.734   5.810   5.724  0.0410 -0.8481  0.2755
  605MOL0     C79789  -0.764   5.835   5.872 -1.3334 -0.6288  0.6895
  605MOL0     C79790  -0.891   5.917   5.903  0.2352 -0.6160  0.0295
  605MOL0     C79791  -1.003   5.822   5.889  0.1012  0.0337  0.1659
  605MOL0     C79792  -1.092   5.744   5.866 -0.0361  0.2395 -0.4682
  605MOL0     C79793  -0.298   5.755   5.645  0.7186  0.5117 -1.2871
  605MOL0     C79794  -0.172   5.707   5.612 -0.9961  0.0362  0.3720
  605MOL0     H79795   0.113   5.406   5.213  1.7665 -1.4949 -5.0204
  605MOL0     H79796   0.341   5.396   5.113  1.6809 -0.2975  1.6650
  605MOL0     H79797   0.604   5.662   5.282 -0.1973  1.1330  0.3659
  605MOL0     H79798   0.614   5.767   5.146 -2.2805 -1.1503 -2.1158
  605MOL0     H79799   0.826   5.657   5.208 -0.1977 -0.8026  0.6995
  605MOL0     H79800   0.785   5.618   5.039 -0.3988 -3.2004 -0.6723
  605MOL0     H79801   0.688   5.395   5.164 -1.6774  0.5172  0.2930
  605MOL0     H79802   0.788   5.456   5.294  1.0815 -0.6311  0.1426
  605MOL0     H79803   0.894   5.407   5.010  0.1213  0.5499 -0.1297
  605MOL0     H79804   0.994   5.469   5.141  0.6696 -1.2305 -1.4736
  605MOL0     H79805   0.858   5.195   5.149 -0.5647  0.6834 -0.0663
  605MOL0     H79806   0.989   5.254   5.256 -1.4498  0.1731 -0.0197
  605MOL0     H79807   1.155   5.272   5.071 -1.6260  3.2607 -0.2788
  605MOL0     H79808   1.025   5.223   4.960  1.4503 -2.3895 -0.9727
  605MOL0     H79809   1.214   5.054   5.057 -0.2748 -0.3539 -0.0729
  605MOL0     H79810   1.100   5.062   5.200 -1.5850  1.6610  0.4852
  605MOL0     H79811   1.059   4.858   5.023 -1.2072 -0.3970 -0.4168
  605MOL0     H79812   1.019   4.979   4.901  0.4649  0.6701  0.1291
  605MOL0     H79813   0.905   4.884   5.268 -1.8478  3.2019  1.7033
  605MOL0     H79814   0.575   5.030   5.348  1.4358  3.2563 -1.3852
  605MOL0     H79815   0.731   4.977   5.403 -1.3184  3.0279  0.3436
  605MOL0     H79816   0.521   4.809   5.439  0.2036  0.0118  1.3377
  605MOL0     H79817   0.661   4.747   5.354 -1.3966 -1.0026 -0.8880
  605MOL0     H79818   0.541   4.767   5.135  2.5775 -1.1988  1.6869
  605MOL0     H79819   0.449   4.686   5.248 -0.9437 -1.0676 -4.8765
  605MOL0     H79820   0.304   4.849   5.134 -1.0818 -2.5300  3.5762
  605MOL0     H79821   0.413   4.987   5.156  2.3804  1.3316  2.2297
  605MOL0     H79822   0.089   4.861   5.210  2.2185 -0.7727  1.7211
  605MOL0     H79823  -0.118   4.975   5.228  1.0922 -2.3327  1.8026
  605MOL0     H79824  -0.385   5.292   5.097 -0.2248 -1.9281  1.5436
  605MOL0     H79825  -0.599   5.410   5.089 -0.8727  1.5887  0.9623
  605MOL0     H79826  -0.783   5.556   5.466  0.0200  0.3429 -0.2067
  605MOL0     H79827  -0.856   5.388   5.458 -2.2497  0.3348 -0.2247
  605MOL0     H79828  -1.045   5.458   5.312 -0.4726 -1.6218  2.5317
  605MOL0     H79829  -0.958   5.619   5.285 -0.1736  0.5160  1.4941
  605MOL0     H79830  -0.992   5.638   5.540 -1.6429  0.5975  0.4282
  605MOL0     H79831  -1.094   5.488   5.512 -0.0933 -2.3754 -2.1701
  605MOL0     H79832  -1.164   5.766   5.401 -0.2492 -0.1917  1.0419
  605MOL0     H79833  -1.242   5.623   5.345 -3.6746  3.9477  0.5479
  605MOL0     H79834  -1.243   5.716   5.637 -4.0779  1.4733  1.0045
  605MOL0     H79835  -1.316   5.566   5.577 -1.0852 -0.4807 -1.0708
  605MOL0     H79836  -1.426   5.734   5.403  0.9953 -0.4016  0.5212
  605MOL0     H79837  -1.358   5.859   5.501  0.4236  0.2530 -1.9028
  605MOL0     H79838  -1.551   5.659   5.623 -2.1990  0.5608 -0.9473
  605MOL0     H79839  -1.501   5.808   5.703 -1.4714 -1.1711  0.9591
  605MOL0     H79840  -1.686   5.774   5.452 -0.2872  1.2278 -0.5080
  605MOL0     H79841  -1.644   5.928   5.514 -2.3501  0.8409  1.2847
  605MOL0     H79842  -0.627   5.341   5.520  1.0371  1.3078 -0.4932
  605MOL0     H79843  -0.391   5.241   5.510 -1.7592  0.1124  1.1350
  605MOL0     H79844   0.082   5.291   5.453  0.1749  0.0568 -0.6480
  605MOL0     H79845   0.289   5.159   5.442 -0.5607  1.3093 -0.8411
  605MOL0     H79846   0.405   5.805   5.226  1.0243 -1.1171  0.4240
  605MOL0     H79847   0.186   5.814   5.322  1.2450 -1.8700  3.7951
  605MOL0     H79848  -0.244   5.529   5.340 -0.8698 -0.1786 -0.4044
  605MOL0     H79849  -0.477   5.638   5.383  0.2712  1.6086 -0.1186
  605MOL0     H79850  -0.550   5.941   5.684 -0.3555 -0.4168  0.3347
  605MOL0     H79851  -0.528   5.793   5.784  2.9174  1.3980 -1.1011
  605MOL0     H79852  -0.796   5.878   5.665  3.0611  0.3407 -1.7689
  605MOL0     H79853  -0.767   5.706   5.712  0.8901 -0.9504 -1.4288
  605MOL0     H79854  -0.677   5.884   5.917 -1.5249  1.2088 -0.7952
  605MOL0     H79855  -0.769   5.735   5.917 -0.3162 -1.7579 -1.5156
  605MOL0     H79856  -0.874   5.950   6.006 -0.6995 -2.3217  0.7648
  605MOL0     H79857  -0.904   6.004   5.838 -0.8273  0.6320  1.8342
  605MOL0     H79858  -1.181   5.686   5.856 -2.1499  2.7418  2.2993
  605MOL0     H79859  -0.308   5.804   5.742 -3.0969 -4.5303  1.3475
  605MOL0     H79860  -0.081   5.720   5.669  0.3955 -0.5058 -1.6176
  606MOL0     O79861   7.424   1.540   0.978  0.1897  0.0738  0.1486
  606MOL0     C79862   7.392   1.658   0.979  0.1213  0.1546 -0.1591
  606MOL0     O79863   7.272   1.701   1.014 -0.2214  0.3377 -0.0942
  606MOL0     C79864   7.187   1.614   1.079 -0.0528  0.4134 -0.2287
  606MOL0     C79865   7.062   1.585   1.017  0.4885 -0.1754  0.3547
  606MOL0     C79866   6.978   1.492   1.068 -0.3908 -0.5251 -0.7091
  606MOL0     C79867   7.013   1.418   1.180  0.3511  0.9278 -0.2487
  606MOL0     O79868   6.942   1.312   1.235 -0.2336  0.6431  0.4421
  606MOL0     C79869   6.826   1.258   1.170  0.8312 -0.1195  0.6243
  606MOL0     C79870   6.872   1.118   1.128 -0.1862 -0.6441 -0.2372
  606MOL0     C79871   6.761   1.037   1.053  0.2171 -0.1827  0.8977
  606MOL0     C79872   6.647   0.981   1.150  0.4073 -0.5928 -0.4480
  606MOL0     C79873   6.560   0.877   1.070 -0.6111  0.1534 -0.4464
  606MOL0     C79874   6.495   0.769   1.155  0.1302 -0.5508 -0.2736
  606MOL0     C79875   6.437   0.652   1.083  0.0080 -0.2329 -0.4125
  606MOL0     C79876   6.362   0.688   0.956  0.1946 -0.8636  0.7429
  606MOL0     N79877   6.223   0.723   0.993 -0.4961  0.2100  0.1166
  606MOL0     C79878   6.159   0.834   0.951 -0.2748 -0.7740  0.1695
  606MOL0     C79879   6.052   0.854   1.036 -0.9695  0.4533 -0.0272
  606MOL0     C79880   5.957   0.967   1.026 -0.0452  0.0282 -0.5783
  606MOL0     C79881   5.812   0.914   1.017  1.1730  0.3306  0.2086
  606MOL0     C79882   5.702   1.032   1.010  0.6033 -0.4997 -0.1939
  606MOL0     C79883   5.553   0.980   1.005 -0.6946  0.7795 -0.5874
  606MOL0     O79884   5.467   1.098   1.006  0.3453  0.4622 -1.1993
  606MOL0     C79885   5.328   1.087   1.011  0.1878 -0.1599  0.3707
  606MOL0     C79886   5.262   0.967   1.011 -0.1599  0.1898  0.3743
  606MOL0     C79887   5.124   0.960   1.009  0.5311  0.6007  0.5602
  606MOL0     C79888   5.046   1.077   1.006  0.0514  0.1118  0.1720
  606MOL0     C79889   4.896   1.067   1.017 -0.2450 -0.5805 -0.4688
  606MOL0     O79890   4.846   0.931   1.025 -0.4032  0.0911 -0.3022
  606MOL0     C79891   4.711   0.927   1.022  0.1384  0.7628 -0.9623
  606MOL0     C79892   4.627   0.982   0.918 -0.2936 -0.5119  0.1501
  606MOL0     C79893   4.490   0.998   0.927 -0.7537  0.6483 -0.2836
  606MOL0     C79894   4.422   0.930   1.036 -0.4334 -0.8398  0.0280
  606MOL0     O79895   4.295   0.896   1.039  1.4355  0.0499 -0.5051
  606MOL0     C79896   4.198   0.930   0.940  0.2301 -0.8223  0.3282
  606MOL0     C79897   4.065   0.879   0.983  0.8322  1.1848  0.7641
  606MOL0     C79898   3.955   0.986   0.972 -0.6855 -0.1752 -0.1918
  606MOL0     C79899   3.815   0.915   1.007 -0.3868 -0.4039  0.5766
  606MOL0     C79900   3.711   1.019   1.036  0.0779  0.5084  0.0002
  606MOL0     C79901   3.575   0.944   1.050  0.1508  0.3352  0.2339
  606MOL0     C79902   3.522   0.874   0.913 -0.1524 -0.1342 -0.5003
  606MOL0     C79903   3.479   0.980   0.810 -0.0849  0.5937  0.6831
  606MOL0    Cl79904   3.344   0.930   0.678  0.2058 -0.2952 -0.2229
  606MOL0     C79905   4.503   0.877   1.140  0.1141 -0.5363 -0.0637
  606MOL0     C79906   4.645   0.877   1.134 -0.2914  0.3614 -0.7227
  606MOL0     O79907   4.830   1.168   1.033 -0.1996 -0.3795 -0.4355
  606MOL0     C79908   5.113   1.204   0.997  0.8049  0.2989 -0.6422
  606MOL0     C79909   5.253   1.206   1.008  0.5653  0.7743 -0.3809
  606MOL0     N79910   6.055   0.748   1.128 -1.0727  0.1870 -0.2307
  606MOL0     N79911   6.143   0.664   1.084  0.0168  0.1635  0.0694
  606MOL0     C79912   7.136   1.442   1.243  0.3208  0.0479 -0.0157
  606MOL0     C79913   7.220   1.545   1.194 -0.0539 -1.0730 -0.0252
  606MOL0     C79914   7.498   1.751   0.958 -0.5535  0.4280 -0.3211
  606MOL0     C79915   7.626   1.703   0.955 -0.1213  0.6157  0.6758
  606MOL0     C79916   7.730   1.792   0.968  0.1940  0.5464 -0.0808
  606MOL0     C79917   7.710   1.929   0.988 -0.6821 -0.2797 -0.4604
  606MOL0     O79918   7.817   2.024   1.023 -0.1450  0.3038 -0.2924
  606MOL0     C79919   7.894   1.981   1.133 -0.1025 -0.9020 -0.0545
  606MOL0     C79920   8.033   2.031   1.136 -1.2408 -0.7510 -0.2987
  606MOL0     C79921   8.100   1.994   1.004 -0.9150 -0.2044 -0.6448
  606MOL0     C79922   8.253   2.028   1.013  0.1176  0.0635  0.4966
  606MOL0     C79923   8.272   2.174   1.031  0.0392  1.0156 -0.4712
  606MOL0     C79924   8.277   2.291   1.053  0.3781 -0.0183 -0.1398
  606MOL0     C79925   7.585   1.978   0.972 -0.2149 -0.3240  0.0565
  606MOL0     C79926   7.482   1.890   0.965  0.7548 -0.2037 -1.0645
  606MOL0     H79927   7.032   1.640   0.929 -0.6457 -3.5062 -1.5148
  606MOL0     H79928   6.879   1.488   1.023 -0.9689  1.1789  0.3005
  606MOL0     H79929   6.802   1.303   1.073 -1.3542  1.0673  1.6522
  606MOL0     H79930   6.736   1.262   1.232 -1.0872  0.4285 -1.9853
  606MOL0     H79931   6.898   1.064   1.219 -0.7729  1.7361  1.4543
  606MOL0     H79932   6.958   1.126   1.060  2.7281 -0.2959  3.2124
  606MOL0     H79933   6.809   0.947   1.015 -1.0491 -0.9496  1.0660
  606MOL0     H79934   6.708   1.083   0.969  0.0558 -1.9871 -0.0274
  606MOL0     H79935   6.681   0.932   1.242 -2.0791  1.3627  1.6688
  606MOL0     H79936   6.581   1.065   1.171  1.9651  1.0786 -1.9013
  606MOL0     H79937   6.629   0.827   1.001  1.7669  1.9031  0.5280
  606MOL0     H79938   6.483   0.924   1.009 -3.2242 -0.6917  1.9497
  606MOL0     H79939   6.423   0.809   1.227  1.0576  2.1777 -0.7552
  606MOL0     H79940   6.581   0.735   1.215  1.4192 -0.4690 -2.0022
  606MOL0     H79941   6.515   0.580   1.059 -0.1065  0.0534 -1.7168
  606MOL0     H79942   6.374   0.601   1.156  0.3145  1.6206  1.2536
  606MOL0     H79943   6.364   0.592   0.902  2.7046 -1.0081  0.9643
  606MOL0     H79944   6.399   0.770   0.894  0.2932 -0.5370  1.2320
  606MOL0     H79945   6.190   0.901   0.871 -1.2402  2.2641  2.1506
  606MOL0     H79946   5.986   1.040   0.950 -1.6443  0.1271 -1.1148
  606MOL0     H79947   5.974   1.014   1.123 -0.4691 -0.1147 -0.4318
  606MOL0     H79948   5.782   0.862   1.109 -3.2182  3.1270  0.6820
  606MOL0     H79949   5.810   0.844   0.933  1.2465 -0.5446  0.9161
  606MOL0     H79950   5.727   1.092   1.098  3.0643 -3.5990  1.4171
  606MOL0     H79951   5.718   1.095   0.922  1.7900 -0.8715 -0.2662
  606MOL0     H79952   5.537   0.925   1.098 -0.2711 -0.2132 -1.0961
  606MOL0     H79953   5.545   0.914   0.918 -0.7225  0.6315 -0.4724
  606MOL0     H79954   5.324   0.879   1.025  0.2746 -0.0244 -2.4008
  606MOL0     H79955   5.072   0.867   0.989  0.0578  0.7637  0.9908
  606MOL0     H79956   4.665   1.031   0.828 -1.6309  0.7562  0.2380
  606MOL0     H79957   4.432   1.044   0.848 -1.4912 -1.1212 -0.8298
  606MOL0     H79958   4.210   0.885   0.841 -1.9431  0.3133 -0.5146
  606MOL0     H79959   4.203   1.038   0.925  2.6202 -0.5897  2.1133
  606MOL0     H79960   4.077   0.856   1.090  1.5410  2.2155  0.9227
  606MOL0     H79961   4.037   0.793   0.922  0.4881  2.1301 -0.4528
  606MOL0     H79962   3.947   1.024   0.870  3.0200 -0.5154 -0.7608
  606MOL0     H79963   3.975   1.072   1.037 -2.1865  1.3418 -1.6367
  606MOL0     H79964   3.799   0.854   0.917 -0.5443 -0.5954  0.7331
  606MOL0     H79965   3.815   0.849   1.094 -2.3119 -1.2064  0.0383
  606MOL0     H79966   3.707   1.094   0.956 -0.8612  0.9299  0.4220
  606MOL0     H79967   3.747   1.080   1.119  1.0451 -0.5927  0.4066
  606MOL0     H79968   3.499   1.017   1.080 -2.3658 -1.7496 -0.6213
  606MOL0     H79969   3.576   0.873   1.132  0.3071  0.2535  0.1626
  606MOL0     H79970   3.590   0.800   0.870 -2.7282 -2.3494 -0.9868
  606MOL0     H79971   3.439   0.811   0.947  0.9417 -2.4549 -1.8906
  606MOL0     H79972   3.561   1.020   0.749 -0.8004  0.9348 -0.0856
  606MOL0     H79973   3.433   1.059   0.870 -1.4295 -1.2527  2.2031
  606MOL0     H79974   4.455   0.828   1.224  0.1840 -2.0762 -0.8746
  606MOL0     H79975   4.698   0.837   1.220 -0.0847  5.2961  1.7937
  606MOL0     H79976   5.053   1.294   1.004 -0.4966 -0.5603 -0.4997
  606MOL0     H79977   5.303   1.302   1.006 -0.5184  1.3726  0.2257
  606MOL0     H79978   7.173   1.375   1.320  2.0346 -2.1490 -2.5685
  606MOL0     H79979   7.311   1.556   1.253  0.8814 -0.3489 -1.5681
  606MOL0     H79980   7.647   1.597   0.964 -3.6958 -0.4995 -1.7875
  606MOL0     H79981   7.830   1.751   0.981  0.3922  0.7701 -0.8804
  606MOL0     H79982   7.913   1.874   1.127  2.0936 -0.5263 -0.9365
  606MOL0     H79983   7.845   1.997   1.230 -0.4484 -2.5781  0.0814
  606MOL0     H79984   8.031   2.139   1.155 -2.3974 -0.6988 -0.6861
  606MOL0     H79985   8.084   1.982   1.220  1.1962  4.3111  1.6147
  606MOL0     H79986   8.054   2.062   0.933 -1.1240  2.2480  1.6769
  606MOL0     H79987   8.090   1.886   0.985  0.7806 -0.2859 -1.2580
  606MOL0     H79988   8.297   1.967   1.092 -3.0262 -2.8144  0.2777
  606MOL0     H79989   8.297   1.999   0.917 -0.2478 -0.1772  0.3992
  606MOL0     H79990   8.288   2.395   1.079 -1.5919 -0.4190  2.6776
  606MOL0     H79991   7.567   2.080   1.003  0.1574 -0.9108  2.4321
  606MOL0     H79992   7.388   1.945   0.973  1.2853  0.8959 -2.0152
  607MOL0     O79993   2.890  10.900   1.504 -0.8052  0.3077  0.5117
  607MOL0     C79994   2.972  10.878   1.414  0.0304 -0.8401  0.3740
  607MOL0     O79995   2.944  10.885   1.276  0.3234 -0.6962  0.7376
  607MOL0     C79996   2.811  10.908   1.243  0.8878 -0.7745  0.0892
  607MOL0     C79997   2.714  10.807   1.266  0.5992 -0.0982  0.5930
  607MOL0     C79998   2.579  10.826   1.238  0.0755 -0.1989 -1.0071
  607MOL0     C79999   2.535  10.954   1.197 -0.6063 -0.7695 -0.0152
  607MOL0     O80000   2.404  10.996   1.175 -0.0759 -0.5141  0.2054
  607MOL0     C80001   2.306  10.897   1.173 -0.9973  0.3900 -0.2955
  607MOL0     C80002   2.173  10.977   1.143  0.3439  0.9847  0.2887
  607MOL0     C80003   2.050  10.884   1.125 -0.2147 -0.1160 -0.4360
  607MOL0     C80004   1.915  10.969   1.134 -0.5296  0.3866 -0.1769
  607MOL0     C80005   1.786  10.898   1.089  0.0041 -0.2379  0.5530
  607MOL0     C80006   1.657  10.987   1.068 -0.6232  0.1509 -0.1621
  607MOL0     C80007   1.596  11.032   1.203  0.2883 -0.7733 -0.3638
  607MOL0     C80008   1.446  11.075   1.184  0.0500 -1.4047  0.1130
  607MOL0     N80009   1.378  11.094   1.303  0.1067  0.7201 -0.0151
  607MOL0     C80010   1.367  11.009   1.414  0.4038 -0.3762  0.9816
  607MOL0     C80011   1.277  11.076   1.492 -0.3743  0.2349 -0.6558
  607MOL0     C80012   1.222  11.037   1.629 -0.6205 -0.0830 -0.4974
  607MOL0     C80013   1.137  10.904   1.637 -0.3111  0.2224 -0.1728
  607MOL0     C80014   1.060  10.899   1.776  0.8672 -0.7985  0.1869
  607MOL0     C80015   0.904  10.882   1.762  0.2112  0.3564  0.7258
  607MOL0     O80016   0.866  10.756   1.712 -0.5340 -0.0273 -0.3616
  607MOL0     C80017   0.731  10.745   1.705  1.0439 -0.5234 -0.8499
  607MOL0     C80018   0.643  10.689   1.804  0.3517 -0.1438  0.2510
  607MOL0     C80019   0.511  10.662   1.775 -0.3937  0.7737 -0.1082
  607MOL0     C80020   0.467  10.672   1.643  0.2741 -0.4372  0.0675
  607MOL0     C80021   0.330  10.626   1.607 -0.3428 -0.1282  0.3428
  607MOL0     O80022   0.244  10.621   1.706  0.3551  0.8030  0.0017
  607MOL0     C80023   0.119  10.588   1.700 -0.8932  0.0344 -0.3974
  607MOL0     C80024   0.067  10.569   1.825  0.0021  0.1762 -0.6984
  607MOL0     C80025  -0.063  10.543   1.845  0.4102 -1.1830  0.2434
  607MOL0     C80026  -0.155  10.534   1.736 -0.4590 -0.4140 -0.4869
  607MOL0     O80027  -0.287  10.504   1.734  0.2174  0.8828 -0.3641
  607MOL0     C80028  -0.346  10.420   1.832 -0.3638  0.4610  0.7136
  607MOL0     C80029  -0.494  10.421   1.803 -0.5264 -0.2901 -0.8152
  607MOL0     C80030  -0.565  10.523   1.880  0.3891 -0.1163  0.6089
  607MOL0     C80031  -0.716  10.488   1.891  0.2143 -0.0931  0.5547
  607MOL0     C80032  -0.795  10.501   1.766 -0.3506  0.3306 -0.2067
  607MOL0     C80033  -0.932  10.441   1.780  0.4439 -0.1406  0.1245
  607MOL0     C80034  -1.022  10.455   1.654 -0.0296 -0.2884 -0.8605
  607MOL0     C80035  -1.157  10.402   1.704  0.1867 -0.2058  0.7725
  607MOL0    Cl80036  -1.151  10.221   1.741 -0.2680  0.2610 -0.1100
  607MOL0     C80037  -0.104  10.554   1.607  0.4414  0.9760  0.1875
  607MOL0     C80038   0.035  10.583   1.587 -0.4066 -0.9640  0.3698
  607MOL0     O80039   0.304  10.611   1.482 -0.0535 -0.4585  0.1454
  607MOL0     C80040   0.544  10.740   1.548 -0.5115 -0.0900  0.4454
  607MOL0     C80041   0.673  10.767   1.583 -1.0955 -0.7302  0.4039
  607MOL0     N80042   1.234  11.189   1.435 -0.3827  0.2136  0.4963
  607MOL0     N80043   1.300  11.203   1.329 -0.0679  0.9812  0.4569
  607MOL0     C80044   2.632  11.051   1.184 -0.8412  0.2639 -0.4712
  607MOL0     C80045   2.771  11.034   1.212  0.3092 -0.0114  0.3260
  607MOL0     C80046   3.101  10.812   1.442 -0.3493 -0.0186  0.5379
  607MOL0     C80047   3.123  10.767   1.572  0.3396  0.0301  0.4857
  607MOL0     C80048   3.247  10.724   1.615 -0.3162 -1.0104 -0.2225
  607MOL0     C80049   3.346  10.691   1.516 -1.1370 -0.0512  0.6866
  607MOL0     O80050   3.461  10.624   1.549  0.3546 -0.8712 -0.5368
  607MOL0     C80051   3.542  10.675   1.656  1.0867  0.6625 -0.0405
  607MOL0     C80052   3.620  10.801   1.624  0.6971 -0.3268 -0.5860
  607MOL0     C80053   3.737  10.778   1.521  0.0923  0.2597 -0.3703
  607MOL0     C80054   3.814  10.906   1.488 -0.4195 -0.3647  1.0015
  607MOL0     C80055   3.931  10.933   1.581  0.1168 -0.3116  0.1550
  607MOL0     C80056   4.022  10.935   1.664 -0.2386 -0.2172  0.6024
  607MOL0     C80057   3.332  10.732   1.379  0.8582  0.3556 -0.5677
  607MOL0     C80058   3.210  10.791   1.349  0.5127 -0.9558  1.3387
  607MOL0     H80059   2.749  10.711   1.303 -0.1388  0.1116  1.9011
  607MOL0     H80060   2.506  10.747   1.247  0.4267 -0.7338 -2.5479
  607MOL0     H80061   2.303  10.828   1.258  1.6445 -0.5802 -0.8734
  607MOL0     H80062   2.322  10.838   1.082 -2.3946 -0.9967  0.3063
  607MOL0     H80063   2.181  11.050   1.061 -0.8421  1.1826  0.3206
  607MOL0     H80064   2.150  11.043   1.227 -0.6210 -0.4675  1.2066
  607MOL0     H80065   2.046  10.812   1.207 -1.0677  0.7873  0.3484
  607MOL0     H80066   2.056  10.832   1.029  2.5905  2.6139 -1.8972
  607MOL0     H80067   1.900  10.995   1.240  1.7365  2.0300 -0.1814
  607MOL0     H80068   1.931  11.055   1.068  0.5821  1.1997  1.0899
  607MOL0     H80069   1.760  10.819   1.161  0.2949 -1.6944 -0.8784
  607MOL0     H80070   1.817  10.852   0.995  1.6201  3.0419 -0.6398
  607MOL0     H80071   1.585  10.928   1.010  0.6810  1.9082 -3.8999
  607MOL0     H80072   1.690  11.070   1.004 -0.7003  0.9938  0.8636
  607MOL0     H80073   1.602  10.956   1.281 -1.7318  0.7993  1.4423
  607MOL0     H80074   1.648  11.122   1.239 -2.0354 -0.1558  1.7081
  607MOL0     H80075   1.389  11.004   1.123  1.8400 -0.9394 -2.2458
  607MOL0     H80076   1.442  11.167   1.124  3.2603 -0.5865  0.9338
  607MOL0     H80077   1.418  10.918   1.445 -0.0591 -0.3232  1.9397
  607MOL0     H80078   1.166  11.120   1.674 -0.2076 -1.4174  2.6713
  607MOL0     H80079   1.305  11.037   1.699 -0.3841 -0.5764 -0.7726
  607MOL0     H80080   1.201  10.816   1.630 -2.5191 -1.6095  1.1909
  607MOL0     H80081   1.074  10.892   1.548 -0.9097 -1.9373  0.4894
  607MOL0     H80082   1.102  10.817   1.835  2.2072 -1.7672 -2.0140
  607MOL0     H80083   1.087  10.980   1.844 -2.3562 -1.3899  2.3791
  607MOL0     H80084   0.868  10.960   1.694  0.8340 -0.4916 -0.6188
  607MOL0     H80085   0.869  10.893   1.865  1.7127 -1.4242  1.4846
  607MOL0     H80086   0.676  10.647   1.899  1.3539  0.3146  0.1090
  607MOL0     H80087   0.453  10.603   1.845 -1.0806  0.0837 -1.2234
  607MOL0     H80088   0.130  10.582   1.912 -0.7686 -2.1273  0.2879
  607MOL0     H80089  -0.103  10.541   1.946  1.1716 -0.3443  0.5746
  607MOL0     H80090  -0.334  10.441   1.938 -0.1987  3.5667  0.1672
  607MOL0     H80091  -0.303  10.321   1.815 -0.3455  0.9216 -2.7893
  607MOL0     H80092  -0.527  10.319   1.825 -2.0575  0.2261 -0.6571
  607MOL0     H80093  -0.507  10.436   1.695  3.0084  1.9492 -1.1098
  607MOL0     H80094  -0.542  10.627   1.854  1.5501  0.1819  2.6277
  607MOL0     H80095  -0.524  10.516   1.981 -1.4367 -0.4409  1.3572
  607MOL0     H80096  -0.731  10.386   1.927  0.7428 -0.2713  0.3011
  607MOL0     H80097  -0.759  10.556   1.965  0.3631  0.3108  0.2746
  607MOL0     H80098  -0.736  10.439   1.698  0.6112 -1.0703  1.8056
  607MOL0     H80099  -0.796  10.603   1.726 -1.2392  0.0617 -0.8982
  607MOL0     H80100  -0.991  10.476   1.866  0.6425 -1.2863  0.7392
  607MOL0     H80101  -0.926  10.336   1.808 -2.9054 -0.4623  0.0289
  607MOL0     H80102  -1.037  10.562   1.638 -1.3636 -0.3036  0.1172
  607MOL0     H80103  -0.983  10.393   1.573  1.1093  0.4267 -0.8768
  607MOL0     H80104  -1.237  10.435   1.637  1.9208  2.4103 -0.1701
  607MOL0     H80105  -1.189  10.458   1.792  2.1125  1.3160  0.5828
  607MOL0     H80106  -0.172  10.539   1.523  3.2875 -0.1809 -2.0918
  607MOL0     H80107   0.068  10.613   1.488 -0.0779  3.4010  1.6324
  607MOL0     H80108   0.505  10.755   1.447 -0.2341 -2.0768  0.0048
  607MOL0     H80109   0.739  10.813   1.510 -0.5467 -0.6335  0.9547
  607MOL0     H80110   2.594  11.150   1.159  1.7824  2.5677  3.5255
  607MOL0     H80111   2.840  11.118   1.206  0.6330 -0.3944 -3.1750
  607MOL0     H80112   3.051  10.777   1.652 -0.2590  3.3045 -0.3307
  607MOL0     H80113   3.264  10.679   1.712 -0.4625 -2.8451 -0.9949
  607MOL0     H80114   3.618  10.601   1.682  1.4175  0.4504 -1.4754
  607MOL0     H80115   3.485  10.700   1.745  0.1923 -2.9078  0.5139
  607MOL0     H80116   3.548  10.878   1.594  1.3754  1.2267  1.5554
  607MOL0     H80117   3.665  10.837   1.717 -2.8517  2.8030  0.1905
  607MOL0     H80118   3.685  10.737   1.433 -2.7592 -1.1054  1.7750
  607MOL0     H80119   3.814  10.704   1.545  0.4888  1.6843  3.4523
  607MOL0     H80120   3.859  10.892   1.389  1.0629  2.8936  1.0608
  607MOL0     H80121   3.743  10.989   1.482 -3.4698 -2.7843  1.2383
  607MOL0     H80122   4.088  10.923   1.747  0.9728 -0.2582 -0.3482
  607MOL0     H80123   3.408  10.698   1.309  0.5299 -1.9140  0.0762
  607MOL0     H80124   3.196  10.813   1.244  0.9746 -1.1676  1.2314
  608MOL0     O80125   8.153   2.235   7.954 -0.1264 -0.4331 -0.2702
  608MOL0     C80126   8.181   2.266   8.067  0.5833 -0.7388  0.1642
  608MOL0     O80127   8.308   2.272   8.109  0.8396  0.6486  0.3169
  608MOL0     C80128   8.402   2.278   8.012  0.4129 -1.3409 -0.8590
  608MOL0     C80129   8.455   2.160   7.961  0.0316  0.0142  0.0743
  608MOL0     C80130   8.561   2.166   7.871 -0.5661  0.2576  0.4801
  608MOL0     C80131   8.622   2.286   7.839  0.2221 -0.1109  0.8554
  608MOL0     O80132   8.725   2.286   7.758 -0.0686 -1.0956 -0.1144
  608MOL0     C80133   8.854   2.241   7.807  0.5777 -0.8203 -0.8364
  608MOL0     C80134   8.923   2.372   7.845  0.2646 -0.8175  0.1641
  608MOL0     C80135   9.046   2.347   7.926  0.3489 -0.0893 -0.6450
  608MOL0     C80136   9.101   2.490   7.965 -0.5814  0.5682 -0.3231
  608MOL0     C80137   9.153   2.571   7.841 -0.3125  0.7593  0.0671
  608MOL0     C80138   9.215   2.710   7.883 -0.1525 -1.2714 -0.4402
  608MOL0     C80139   9.307   2.771   7.764  0.6573  0.1384  0.2049
  608MOL0     C80140   9.339   2.914   7.785 -0.2797  0.5694  0.5263
  608MOL0     N80141   9.388   2.966   7.658 -0.3961  0.3515 -0.1382
  608MOL0     C80142   9.515   2.984   7.623 -0.7654  0.7482  0.0453
  608MOL0     C80143   9.509   3.067   7.515  0.2159  0.7258 -0.3985
  608MOL0     C80144   9.631   3.133   7.440 -0.3668  0.3960 -0.1192
  608MOL0     C80145   9.624   3.117   7.284 -0.1166  0.2517 -0.3037
  608MOL0     C80146   9.636   2.967   7.248  0.5871 -0.3044 -0.7511
  608MOL0     C80147   9.648   2.957   7.098 -0.2525  0.7370 -0.6988
  608MOL0     O80148   9.713   2.837   7.062  0.2957  0.3935 -0.1287
  608MOL0     C80149   9.814   2.855   6.972  0.2323  0.2830 -0.1858
  608MOL0     C80150   9.932   2.798   7.023  0.0431 -0.8552 -0.0545
  608MOL0     C80151  10.051   2.834   6.968  0.1011  0.1925 -0.8324
  608MOL0     C80152  10.060   2.900   6.846 -0.0200  0.1579 -0.3116
  608MOL0     C80153  10.192   2.931   6.778 -1.4328  0.8145  1.1030
  608MOL0     O80154  10.306   2.869   6.835  0.6208 -0.0761  0.3118
  608MOL0     C80155  10.434   2.884   6.793  0.3655  0.2384  0.3173
  608MOL0     C80156  10.535   2.843   6.881  0.5211 -0.2061  0.1028
  608MOL0     C80157  10.671   2.848   6.850 -0.0146 -0.7617 -0.4213
  608MOL0     C80158  10.709   2.884   6.722 -0.6499  1.0070  0.2964
  608MOL0     O80159  10.842   2.868   6.676  0.3027 -0.0962 -0.0408
  608MOL0     C80160  10.934   2.806   6.762 -0.1650  0.6214 -0.0782
  608MOL0     C80161  11.079   2.810   6.708 -0.0717  0.2297 -0.3269
  608MOL0     C80162  11.176   2.859   6.815  0.0778 -0.4621 -0.4381
  608MOL0     C80163  11.319   2.809   6.792  0.5330 -0.1041  0.1394
  608MOL0     C80164  11.421   2.915   6.852  0.3545 -0.1434  0.4197
  608MOL0     C80165  11.432   2.905   7.002 -0.7606  0.0805 -0.6237
  608MOL0     C80166  11.541   3.004   7.052  0.2325  0.2594  0.4303
  608MOL0     C80167  11.589   2.981   7.198  0.8669 -0.8116 -0.3787
  608MOL0    Cl80168  11.712   3.109   7.253  0.5582  0.3064  0.5326
  608MOL0     C80169  10.612   2.917   6.630  1.0625  0.2919  0.6199
  608MOL0     C80170  10.479   2.923   6.661 -0.5905  0.2570  0.7529
  608MOL0     O80171  10.194   3.008   6.682 -0.1311  0.4644 -0.0895
  608MOL0     C80172   9.939   2.940   6.790 -0.0938  0.2127  0.0398
  608MOL0     C80173   9.816   2.924   6.850  0.1348 -0.7801 -0.8329
  608MOL0     N80174   9.382   3.109   7.492 -0.0311 -0.6527  1.3340
  608MOL0     N80175   9.311   3.039   7.579  0.9224  0.6570  0.0008
  608MOL0     C80176   8.566   2.407   7.884 -0.6940  1.0274  0.2749
  608MOL0     C80177   8.457   2.401   7.969 -0.2088 -0.1726 -0.8738
  608MOL0     C80178   8.071   2.306   8.153 -0.0076 -0.2738 -0.0127
  608MOL0     C80179   7.939   2.291   8.120  1.5493  0.0031 -0.4053
  608MOL0     C80180   7.832   2.300   8.209 -0.0255 -0.0523 -0.9130
  608MOL0     C80181   7.865   2.325   8.350  0.7327 -0.5870  0.1704
  608MOL0     O80182   7.755   2.322   8.433  0.5248 -0.0199 -0.0637
  608MOL0     C80183   7.764   2.405   8.553 -0.5962  0.7252  0.0939
  608MOL0     C80184   7.639   2.402   8.636  0.2927  0.1522 -0.1432
  608MOL0     C80185   7.637   2.497   8.758 -0.9877 -0.1906  0.0217
  608MOL0     C80186   7.508   2.473   8.849 -0.3417 -0.2226  0.2645
  608MOL0     C80187   7.383   2.514   8.787 -0.0648 -0.5162  0.0302
  608MOL0     C80188   7.284   2.547   8.720 -0.9776  0.5886 -0.2466
  608MOL0     C80189   7.997   2.345   8.391  0.6308  1.7545 -0.2265
  608MOL0     C80190   8.096   2.338   8.287  1.1218  0.1064 -0.1494
  608MOL0     H80191   8.405   2.068   7.991 -2.9406  1.7058  0.7451
  608MOL0     H80192   8.608   2.073   7.839  2.8417  1.0438  2.6414
  608MOL0     H80193   8.906   2.186   7.728 -0.4833 -0.0434 -2.1346
  608MOL0     H80194   8.841   2.176   7.894 -2.5648  0.6422 -0.0869
  608MOL0     H80195   8.864   2.438   7.908  1.3758  1.4783 -1.0754
  608MOL0     H80196   8.940   2.430   7.754  0.7476  0.4577  1.0446
  608MOL0     H80197   9.118   2.287   7.870  1.1737 -1.2125  1.4710
  608MOL0     H80198   9.016   2.302   8.022 -1.0764 -3.0908 -2.3636
  608MOL0     H80199   9.021   2.548   8.012 -0.5908  1.0226 -0.8886
  608MOL0     H80200   9.187   2.491   8.032 -0.8736 -1.6099  0.1598
  608MOL0     H80201   9.075   2.598   7.770 -1.2690  3.0262  1.8383
  608MOL0     H80202   9.219   2.498   7.793 -2.4224 -1.3874  0.2295
  608MOL0     H80203   9.281   2.692   7.969 -0.6592 -1.5465 -0.1052
  608MOL0     H80204   9.137   2.782   7.910  2.7024  1.1065  2.1401
  608MOL0     H80205   9.392   2.702   7.765  0.0770 -0.5980  0.7347
  608MOL0     H80206   9.260   2.761   7.666  0.2175 -2.7144  0.6026
  608MOL0     H80207   9.398   2.920   7.877  0.8909  1.7300 -0.2445
  608MOL0     H80208   9.247   2.971   7.796 -0.3585  0.4130  0.6842
  608MOL0     H80209   9.597   2.928   7.668  0.4237  2.5862  0.2741
  608MOL0     H80210   9.729   3.099   7.475  1.2699  2.7547 -2.1390
  608MOL0     H80211   9.623   3.237   7.474 -0.6202  1.0724 -2.1174
  608MOL0     H80212   9.717   3.167   7.255  0.9947 -0.3164  2.0469
  608MOL0     H80213   9.533   3.150   7.233 -1.0717 -4.9818 -2.7335
  608MOL0     H80214   9.724   2.929   7.301 -0.9928 -2.5098  0.4550
  608MOL0     H80215   9.549   2.913   7.285  0.0620  2.0148  1.7388
  608MOL0     H80216   9.705   3.046   7.072 -0.8810  1.2679 -0.3046
  608MOL0     H80217   9.548   2.968   7.055 -1.6814  1.6137  2.5480
  608MOL0     H80218   9.928   2.748   7.119 -1.5891  1.7736  1.3678
  608MOL0     H80219  10.144   2.803   7.015  0.2918  1.2164 -0.5110
  608MOL0     H80220  10.521   2.800   6.980  1.3359 -2.1692 -0.5891
  608MOL0     H80221  10.746   2.821   6.924 -0.9785  1.1567  1.3802
  608MOL0     H80222  10.901   2.708   6.796  0.9836 -0.0058 -0.7023
  608MOL0     H80223  10.941   2.879   6.844  1.8838  1.2497 -0.7526
  608MOL0     H80224  11.079   2.877   6.623 -1.2111  0.4109 -0.1948
  608MOL0     H80225  11.119   2.711   6.684 -1.0467  0.1140 -1.5127
  608MOL0     H80226  11.146   2.810   6.908 -1.7229  1.0369 -0.1677
  608MOL0     H80227  11.178   2.968   6.828 -0.9552 -0.6887  2.2982
  608MOL0     H80228  11.329   2.713   6.844 -0.6232  0.2176  0.9924
  608MOL0     H80229  11.350   2.804   6.687  2.4160 -1.0431  0.7068
  608MOL0     H80230  11.386   3.012   6.816 -2.8504 -1.9191 -1.7191
  608MOL0     H80231  11.520   2.911   6.806  2.2732 -1.9743  4.2275
  608MOL0     H80232  11.460   2.805   7.037  0.8532  1.2016  1.5922
  608MOL0     H80233  11.336   2.930   7.046 -0.1228  1.3272  0.1085
  608MOL0     H80234  11.629   3.017   6.990  0.8075  0.0601  1.1896
  608MOL0     H80235  11.481   3.095   7.059  0.4952  0.3702  1.3342
  608MOL0     H80236  11.636   2.882   7.197 -0.9670 -1.7607 -2.9621
  608MOL0     H80237  11.510   2.979   7.274  1.4764  3.4794  0.5951
  608MOL0     H80238  10.634   2.933   6.525  0.7532  1.3582  0.7066
  608MOL0     H80239  10.405   2.956   6.589 -1.4180  3.8032  2.9553
  608MOL0     H80240   9.949   2.990   6.694  2.0470 -1.7376 -0.8296
  608MOL0     H80241   9.725   2.961   6.804  0.3026  0.4345 -0.2004
  608MOL0     H80242   8.618   2.494   7.846  0.2218  0.4084  0.0723
  608MOL0     H80243   8.413   2.495   8.000 -0.9410 -0.8498  0.1858
  608MOL0     H80244   7.906   2.265   8.020  0.6319  0.8697 -0.3401
  608MOL0     H80245   7.734   2.300   8.163  0.0797  3.1704 -1.3727
  608MOL0     H80246   7.792   2.506   8.522  1.8337  0.3583  0.9080
  608MOL0     H80247   7.832   2.355   8.622 -1.6766 -0.7254  0.1657
  608MOL0     H80248   7.566   2.443   8.566  3.2195  1.3248 -2.7490
  608MOL0     H80249   7.615   2.301   8.670 -2.7287  0.7940 -0.1068
  608MOL0     H80250   7.656   2.599   8.724  6.0552 -2.0134 -3.4580
  608MOL0     H80251   7.729   2.475   8.814  0.0335  1.6893 -0.8301
  608MOL0     H80252   7.506   2.364   8.854 -0.3622 -0.2843 -0.8023
  608MOL0     H80253   7.521   2.528   8.943  0.5591  2.9967 -1.5670
  608MOL0     H80254   7.198   2.580   8.665 -2.4142 -0.6630  1.1311
  608MOL0     H80255   8.032   2.360   8.493  0.9175  1.6053 -0.3039
  608MOL0     H80256   8.193   2.355   8.331  0.8115 -1.4375  1.2270
  609MOL0     O80257   8.815  10.261   6.026 -0.0207  0.4206 -0.3243
  609MOL0     C80258   8.815  10.257   5.905  0.2985 -0.2702 -0.1074
  609MOL0     O80259   8.718  10.200   5.813 -0.9313  0.5102 -0.3654
  609MOL0     C80260   8.612  10.143   5.877 -0.4824 -0.2554  0.5048
  609MOL0     C80261   8.615  10.012   5.921 -0.3258 -0.1406 -0.0421
  609MOL0     C80262   8.510   9.972   6.011 -0.1359  0.1899 -0.2442
  609MOL0     C80263   8.415  10.056   6.057 -0.2819 -0.5839  0.2195
  609MOL0     O80264   8.322  10.006   6.147  0.2040 -0.9469  0.0278
  609MOL0     C80265   8.232  10.100   6.219 -0.3933  0.0191 -0.0688
  609MOL0     C80266   8.124  10.030   6.306  0.0406 -0.0983 -0.1240
  609MOL0     C80267   8.048  10.144   6.381 -0.4224  0.2703 -0.0958
  609MOL0     C80268   7.952  10.086   6.495 -1.2338 -0.2412 -0.1307
  609MOL0     C80269   7.827  10.027   6.441  0.6311 -0.1067  0.2229
  609MOL0     C80270   7.743  10.114   6.353  0.2334 -0.1903 -0.2671
  609MOL0     C80271   7.678  10.232   6.430 -0.0975  1.3466 -0.7303
  609MOL0     C80272   7.617  10.200   6.571 -0.1203  0.4720 -0.4327
  609MOL0     N80273   7.502  10.126   6.566  0.2675 -0.7065  0.0781
  609MOL0     C80274   7.386  10.145   6.493 -0.2285  0.0774  0.4127
  609MOL0     C80275   7.301  10.050   6.549  0.4668  0.8626 -0.0736
  609MOL0     C80276   7.154  10.034   6.511 -0.0191 -0.1720  0.1583
  609MOL0     C80277   7.071  10.120   6.609  0.4244  0.0142 -0.4484
  609MOL0     C80278   6.919  10.112   6.568  0.5173 -0.5260 -1.1032
  609MOL0     C80279   6.845  10.185   6.678 -0.0525  1.0687 -0.9284
  609MOL0     O80280   6.705  10.184   6.634 -0.0431 -0.3420  0.3117
  609MOL0     C80281   6.606  10.218   6.722 -0.1857  0.3620 -0.3794
  609MOL0     C80282   6.476  10.237   6.677  0.3968  0.6534  1.2298
  609MOL0     C80283   6.372  10.287   6.763 -0.1638 -1.6077  0.7341
  609MOL0     C80284   6.401  10.352   6.887  0.1613  0.2011  0.5783
  609MOL0     C80285   6.304  10.429   6.964 -0.1219 -1.3380  0.0964
  609MOL0     O80286   6.175  10.435   6.931 -0.0302  0.7451 -0.0246
  609MOL0     C80287   6.067  10.477   7.004 -1.8244 -0.5154  0.2835
  609MOL0     C80288   6.055  10.508   7.141 -0.0448  0.1334 -0.0150
  609MOL0     C80289   5.933  10.553   7.195  0.4448 -0.9778  0.2945
  609MOL0     C80290   5.822  10.563   7.123 -0.1806 -0.3872  0.0072
  609MOL0     O80291   5.703  10.623   7.167  0.3040 -0.5048 -0.1357
  609MOL0     C80292   5.710  10.720   7.278 -0.1972  0.1786  0.3579
  609MOL0     C80293   5.572  10.765   7.314 -0.1491  0.1887 -0.3199
  609MOL0     C80294   5.575  10.873   7.428  0.3910  0.4114  0.2809
  609MOL0     C80295   5.441  10.935   7.465  0.0069 -0.3883  0.0744
  609MOL0     C80296   5.464  11.032   7.581  0.1181  0.4469 -0.2278
  609MOL0     C80297   5.338  11.095   7.643  0.4172 -0.5892  0.4944
  609MOL0     C80298   5.209  11.009   7.641  0.1014 -0.2595 -0.1719
  609MOL0     C80299   5.107  11.067   7.741 -0.8013 -0.2247 -0.3058
  609MOL0    Cl80300   5.053  11.214   7.675 -0.0562 -0.2286  0.6179
  609MOL0     C80301   5.821  10.516   6.992 -0.0607  0.1180 -0.7709
  609MOL0     C80302   5.945  10.482   6.936  0.1719  1.0171  0.6130
  609MOL0     O80303   6.353  10.484   7.062 -0.1281 -0.0697  0.6907
  609MOL0     C80304   6.536  10.336   6.928 -0.5249  0.0129  0.2168
  609MOL0     C80305   6.631  10.264   6.855  0.2526 -0.0373 -0.7277
  609MOL0     N80306   7.366   9.978   6.647  0.4669  0.1705 -1.3493
  609MOL0     N80307   7.486  10.014   6.655  0.2259 -0.9080  0.7715
  609MOL0     C80308   8.417  10.187   5.995 -0.1667  0.6037  0.4827
  609MOL0     C80309   8.511  10.234   5.910 -0.7826  0.4718 -0.0599
  609MOL0     C80310   8.937  10.318   5.842  0.5608  0.9620  0.3432
  609MOL0     C80311   9.026  10.393   5.909  0.3274  0.1818 -0.5367
  609MOL0     C80312   9.137  10.455   5.843 -0.7461  0.2440  0.1103
  609MOL0     C80313   9.151  10.448   5.705  0.1526  0.6665  0.5194
  609MOL0     O80314   9.254  10.498   5.624 -0.2094 -0.2662  0.0731
  609MOL0     C80315   9.376  10.535   5.688 -1.7518 -0.1031 -1.0184
  609MOL0     C80316   9.472  10.600   5.603 -0.3336  0.1979  0.2263
  609MOL0     C80317   9.506  10.524   5.477  0.3421  0.2421 -0.3462
  609MOL0     C80318   9.610  10.600   5.404 -0.5442 -0.4972  0.0960
  609MOL0     C80319   9.729  10.538   5.465 -0.7811 -0.9024 -0.3645
  609MOL0     C80320   9.828  10.501   5.529  1.2729 -0.2531 -0.5982
  609MOL0     C80321   9.056  10.371   5.635 -0.4625 -0.3241 -0.4770
  609MOL0     C80322   8.949  10.313   5.701  0.1258 -0.5062  1.1730
  609MOL0     H80323   8.702   9.951   5.902 -1.0677 -0.4103 -3.0747
  609MOL0     H80324   8.513   9.869   6.047 -0.1966 -1.0270 -3.4190
  609MOL0     H80325   8.183  10.161   6.142 -0.0676  1.5236  0.8709
  609MOL0     H80326   8.296  10.155   6.288 -2.2552 -0.3561  2.0924
  609MOL0     H80327   8.168   9.956   6.373 -0.4636 -1.6500 -1.4551
  609MOL0     H80328   8.057   9.988   6.231 -1.0109  3.6865 -1.5697
  609MOL0     H80329   7.997  10.207   6.308 -0.1093 -0.4800 -0.9789
  609MOL0     H80330   8.125  10.206   6.429 -0.7797 -0.4119  1.4392
  609MOL0     H80331   8.003  10.011   6.557 -1.9950 -0.1799  0.5854
  609MOL0     H80332   7.929  10.167   6.565  3.9127  1.5715 -0.0835
  609MOL0     H80333   7.771   9.992   6.529  2.4939  1.7913  2.2916
  609MOL0     H80334   7.855   9.942   6.379 -1.2909 -0.7462  0.1439
  609MOL0     H80335   7.662  10.048   6.320 -1.6506  1.5154  0.6868
  609MOL0     H80336   7.785  10.146   6.257 -2.6735 -0.4870 -1.7374
  609MOL0     H80337   7.755  10.302   6.462  2.2242 -2.1117  2.0345
  609MOL0     H80338   7.600  10.278   6.368 -1.6711 -0.0597  0.1110
  609MOL0     H80339   7.588  10.294   6.619 -0.6124  0.0894  0.0425
  609MOL0     H80340   7.695  10.149   6.629  1.5588 -0.1919 -3.1285
  609MOL0     H80341   7.387  10.223   6.418 -2.1123 -1.6656 -1.5167
  609MOL0     H80342   7.136   9.927   6.524  0.8472 -0.3498 -0.0735
  609MOL0     H80343   7.137  10.064   6.407  1.6891  0.4417  0.0209
  609MOL0     H80344   7.106  10.223   6.607 -0.8409  0.6134  2.5073
  609MOL0     H80345   7.080  10.093   6.715 -1.2352  0.9862 -0.0300
  609MOL0     H80346   6.908  10.171   6.476  0.1131 -0.2207 -0.8657
  609MOL0     H80347   6.877  10.011   6.567  1.6808 -1.0255 -1.0392
  609MOL0     H80348   6.869  10.289   6.698 -1.5326  0.9983  1.7077
  609MOL0     H80349   6.854  10.131   6.772 -0.1022 -2.8374 -2.9436
  609MOL0     H80350   6.458  10.195   6.578  1.1511 -1.0834  1.7790
  609MOL0     H80351   6.271  10.298   6.724 -0.0038 -1.4591  0.3625
  609MOL0     H80352   6.134  10.513   7.215 -1.7091 -0.3059  1.8604
  609MOL0     H80353   5.927  10.593   7.295 -0.0193  0.0395 -0.1208
  609MOL0     H80354   5.768  10.801   7.233 -0.7158 -0.1171 -0.8877
  609MOL0     H80355   5.759  10.682   7.368 -0.8270 -0.2721  0.5223
  609MOL0     H80356   5.521  10.675   7.351 -0.8153  0.7362  0.1103
  609MOL0     H80357   5.520  10.801   7.225 -2.3438 -1.9101 -0.0028
  609MOL0     H80358   5.642  10.950   7.388  0.4719 -0.5677 -1.6009
  609MOL0     H80359   5.614  10.818   7.514 -0.1297 -1.1504 -0.4321
  609MOL0     H80360   5.405  10.990   7.378 -4.5278  1.5761  2.8104
  609MOL0     H80361   5.364  10.863   7.496 -0.8782  2.0256  4.3723
  609MOL0     H80362   5.529  11.113   7.548  1.1686  1.5735  3.9265
  609MOL0     H80363   5.523  10.973   7.652 -0.3376 -0.8405 -0.8679
  609MOL0     H80364   5.316  11.192   7.599 -0.9577 -0.4149  1.4928
  609MOL0     H80365   5.363  11.119   7.747  1.2102 -0.3243  0.2516
  609MOL0     H80366   5.169  11.005   7.539 -0.7806 -1.2914  0.2026
  609MOL0     H80367   5.220  10.904   7.670 -1.5060  0.5575  4.1405
  609MOL0     H80368   5.163  11.071   7.834  0.8047  0.5674 -1.2677
  609MOL0     H80369   5.027  10.992   7.749 -0.5518 -0.5753 -0.9759
  609MOL0     H80370   5.720  10.509   6.954 -0.5180 -3.3602  0.7115
  609MOL0     H80371   5.950  10.453   6.832 -0.8181 -0.1706  0.8683
  609MOL0     H80372   6.573  10.382   7.020 -0.2913 -0.9865  0.6376
  609MOL0     H80373   6.727  10.243   6.901 -0.0148  0.8118  0.2810
  609MOL0     H80374   8.327  10.246   6.012  0.2877  1.4147  0.1314
  609MOL0     H80375   8.500  10.337   5.878 -0.8671  0.5623  0.2552
  609MOL0     H80376   9.035  10.402   6.017  2.6831  0.4272 -0.6870
  609MOL0     H80377   9.212  10.505   5.903 -0.5253 -0.1727  0.1848
  609MOL0     H80378   9.422  10.438   5.709  0.2851  0.3152 -3.2223
  609MOL0     H80379   9.357  10.603   5.772 -0.8855  0.8519 -1.5737
  609MOL0     H80380   9.419  10.692   5.576 -0.7709  0.4010  1.7244
  609MOL0     H80381   9.562  10.619   5.661  2.6850 -1.5986 -3.4117
  609MOL0     H80382   9.416  10.507   5.417 -0.4781 -2.0555  1.3655
  609MOL0     H80383   9.528  10.417   5.490  0.2179  0.1775 -0.6594
  609MOL0     H80384   9.605  10.585   5.295 -0.8398 -0.6496  0.1303
  609MOL0     H80385   9.609  10.705   5.433 -1.6927 -1.4575  4.0992
  609MOL0     H80386   9.908  10.472   5.594  0.1726 -0.3959  0.7418
  609MOL0     H80387   9.060  10.377   5.526  0.5465  5.0311 -0.4141
  609MOL0     H80388   8.870  10.262   5.646  0.3852 -2.0235  2.1558
  610MOL0     O80389   9.486  10.503   6.904 -0.5013  0.2536 -0.7456
  610MOL0     C80390   9.405  10.490   6.810  0.2111  0.1487  0.0157
  610MOL0     O80391   9.408  10.564   6.689  0.3073 -0.0419  1.1770
  610MOL0     C80392   9.496  10.668   6.674  0.5809 -0.7101  0.0397
  610MOL0     C80393   9.636  10.675   6.697 -0.0180 -0.6181  0.0671
  610MOL0     C80394   9.707  10.792   6.655 -0.7073  0.6544 -0.3137
  610MOL0     C80395   9.644  10.907   6.606 -0.7249  0.8274 -0.5027
  610MOL0     O80396   9.727  11.018   6.576  0.3220  0.0710 -0.4524
  610MOL0     C80397   9.690  11.142   6.520  0.6064 -0.1912  0.2548
  610MOL0     C80398   9.811  11.228   6.499 -0.3529 -1.3569 -0.0963
  610MOL0     C80399   9.775  11.368   6.446 -0.7669  0.7096 -0.2568
  610MOL0     C80400   9.879  11.470   6.470  0.2517  0.6067  0.9419
  610MOL0     C80401   9.844  11.594   6.381  0.4445 -0.3334 -0.4210
  610MOL0     C80402   9.717  11.654   6.444 -0.8440  0.7275 -0.5828
  610MOL0     C80403   9.698  11.797   6.396 -0.9062 -0.1221 -0.2808
  610MOL0     C80404   9.550  11.844   6.446 -0.2396  0.4012  0.5458
  610MOL0     N80405   9.517  11.811   6.588  0.5774 -0.4366  0.0422
  610MOL0     C80406   9.526  11.898   6.694 -0.3847 -0.1543 -0.5872
  610MOL0     C80407   9.440  11.855   6.788  0.0066  0.2799  0.3752
  610MOL0     C80408   9.435  11.932   6.918  0.5715  0.4058  0.9377
  610MOL0     C80409   9.397  12.076   6.914  0.5790 -0.2473  0.2179
  610MOL0     C80410   9.251  12.099   6.856  0.5726 -0.3382 -0.0483
  610MOL0     C80411   9.143  12.068   6.961  0.0526  0.5230  0.9027
  610MOL0     O80412   9.007  12.085   6.923  0.3618  1.3076 -0.3273
  610MOL0     C80413   8.936  11.974   6.878 -1.0598 -0.7228  1.0810
  610MOL0     C80414   8.999  11.861   6.822 -0.6536 -0.1756 -0.1950
  610MOL0     C80415   8.922  11.745   6.814  1.0923  0.0707  0.1569
  610MOL0     C80416   8.787  11.740   6.842 -0.3840 -0.7516  0.3464
  610MOL0     C80417   8.711  11.619   6.809 -0.4333 -0.3435 -0.8303
  610MOL0     O80418   8.584  11.648   6.771  0.2263 -0.6568 -0.1339
  610MOL0     C80419   8.518  11.557   6.694  0.5991 -1.0312 -0.0029
  610MOL0     C80420   8.445  11.597   6.583  0.5421 -0.0533  0.7815
  610MOL0     C80421   8.365  11.514   6.511 -0.5612  0.2235  0.2163
  610MOL0     C80422   8.361  11.377   6.541 -0.1198 -0.1715  0.3647
  610MOL0     O80423   8.272  11.298   6.473  0.2132  0.4272  0.0255
  610MOL0     C80424   8.323  11.230   6.357  1.0354 -0.2382  0.1088
  610MOL0     C80425   8.230  11.134   6.278 -0.2004  0.1475  0.3717
  610MOL0     C80426   8.085  11.140   6.308 -0.2441  0.2920 -0.2370
  610MOL0     C80427   7.994  11.038   6.234 -0.2288  0.1107 -0.3099
  610MOL0     C80428   7.979  11.069   6.085 -0.3045  0.9043  0.6182
  610MOL0     C80429   7.853  11.006   6.022 -0.0537 -0.0123 -0.2475
  610MOL0     C80430   7.878  10.981   5.870  0.3695 -0.6590 -0.4016
  610MOL0     C80431   7.748  10.971   5.792  1.0271 -0.6378 -0.2191
  610MOL0    Cl80432   7.616  10.887   5.880  0.0553 -0.3961  0.3709
  610MOL0     C80433   8.429  11.331   6.649  0.2814  0.3448  0.6208
  610MOL0     C80434   8.505  11.418   6.738  0.2991  0.7551 -0.3665
  610MOL0     O80435   8.765  11.509   6.806 -0.0180 -1.0321 -0.1366
  610MOL0     C80436   8.724  11.853   6.881 -0.4522 -0.8541 -0.1902
  610MOL0     C80437   8.801  11.970   6.907  0.6305 -0.6696 -1.0659
  610MOL0     N80438   9.382  11.736   6.741  0.3691 -1.2144  0.2355
  610MOL0     N80439   9.433  11.710   6.632  0.1878  0.1742  0.9323
  610MOL0     C80440   9.505  10.896   6.581  0.0257  0.1745 -0.0999
  610MOL0     C80441   9.425  10.787   6.633  0.8684 -0.3067  0.2683
  610MOL0     C80442   9.290  10.399   6.818  0.2734 -0.0546 -0.0875
  610MOL0     C80443   9.284  10.299   6.920  0.5001  0.6662  0.0042
  610MOL0     C80444   9.181  10.200   6.919 -0.0566  0.0046 -1.2601
  610MOL0     C80445   9.074  10.210   6.830  0.4066 -0.3881  0.3739
  610MOL0     O80446   8.957  10.141   6.829 -0.0898 -0.0499  0.4644
  610MOL0     C80447   8.920  10.064   6.948 -0.5019 -0.7400  0.2547
  610MOL0     C80448   8.793   9.986   6.918  0.0289 -0.2756  0.0763
  610MOL0     C80449   8.829   9.859   6.822  0.4835  0.0139 -0.9360
  610MOL0     C80450   8.726   9.765   6.770  0.4392 -0.6879  0.6171
  610MOL0     C80451   8.769   9.652   6.694  0.0347  0.6653  0.0473
  610MOL0     C80452   8.811   9.559   6.639 -0.8445 -0.0328  1.2948
  610MOL0     C80453   9.077  10.309   6.728  0.0888  0.7331 -0.7240
  610MOL0     C80454   9.184  10.397   6.720 -1.2092 -0.1463 -0.1731
  610MOL0     H80455   9.684  10.588   6.741 -1.3380 -1.6142 -0.4103
  610MOL0     H80456   9.814  10.786   6.665 -0.5737  3.2305  0.7665
  610MOL0     H80457   9.630  11.198   6.592 -0.2071  0.3957 -0.8507
  610MOL0     H80458   9.635  11.116   6.429  1.6191 -0.5773 -0.2640
  610MOL0     H80459   9.884  11.184   6.431  1.7128  0.0354  1.1208
  610MOL0     H80460   9.872  11.226   6.590  3.9707 -1.1032 -2.7172
  610MOL0     H80461   9.685  11.407   6.495  0.7518  1.9977  1.6282
  610MOL0     H80462   9.749  11.358   6.340  2.3463 -0.5949 -1.0070
  610MOL0     H80463   9.887  11.488   6.578  1.3552  1.2010  0.7791
  610MOL0     H80464   9.978  11.427   6.453  0.9291  1.9981  1.1764
  610MOL0     H80465   9.818  11.562   6.280 -0.0604  0.3142 -0.5006
  610MOL0     H80466   9.921  11.672   6.387 -1.7873  2.3651 -3.3397
  610MOL0     H80467   9.723  11.657   6.553  0.7138  0.5203 -0.6427
  610MOL0     H80468   9.626  11.601   6.412  1.0071 -1.2500 -3.0162
  610MOL0     H80469   9.771  11.856   6.453  0.0076  1.2362 -2.6820
  610MOL0     H80470   9.717  11.818   6.290  1.1619 -1.5909 -0.2703
  610MOL0     H80471   9.472  11.803   6.382 -0.5417  1.4697  0.2055
  610MOL0     H80472   9.544  11.952   6.431  1.6018  0.6325  1.2508
  610MOL0     H80473   9.578  11.993   6.696 -2.8025  1.3426 -2.8198
  610MOL0     H80474   9.531  11.925   6.970  1.6314  0.3478 -0.9258
  610MOL0     H80475   9.361  11.876   6.976  0.6480 -0.0819  0.5717
  610MOL0     H80476   9.473  12.133   6.861  0.2496  0.3537  0.3789
  610MOL0     H80477   9.390  12.121   7.013 -2.5668  1.0546 -0.4804
  610MOL0     H80478   9.252  12.207   6.838  0.9938 -0.3338 -0.0131
  610MOL0     H80479   9.227  12.051   6.761  1.1884 -0.5615 -0.0984
  610MOL0     H80480   9.146  12.139   7.044  0.8161 -0.1679  1.4854
  610MOL0     H80481   9.158  11.967   7.001  0.9524  0.7742  1.2249
  610MOL0     H80482   9.104  11.855   6.798  0.0118  1.7326  1.9498
  610MOL0     H80483   8.968  11.654   6.777  2.2306  1.4122 -1.9291
  610MOL0     H80484   8.450  11.705   6.569  1.6940  0.0461  1.7842
  610MOL0     H80485   8.309  11.559   6.429  0.1382  0.3308 -0.2175
  610MOL0     H80486   8.413  11.181   6.394  1.0160 -0.4141 -0.0677
  610MOL0     H80487   8.349  11.298   6.275  0.2388  0.4189  0.3896
  610MOL0     H80488   8.262  11.031   6.291 -0.3784 -0.5731 -3.6325
  610MOL0     H80489   8.248  11.159   6.173  3.1536 -0.7354  0.6327
  610MOL0     H80490   8.042  11.231   6.263 -4.5812 -2.5547 -2.5981
  610MOL0     H80491   8.056  11.143   6.413  0.1788  1.3206 -0.1340
  610MOL0     H80492   8.020  10.932   6.247 -2.1165 -0.3085  0.4109
  610MOL0     H80493   7.897  11.037   6.284 -0.8096 -1.5281 -1.3793
  610MOL0     H80494   8.069  11.043   6.030 -1.5440 -0.5310 -0.8433
  610MOL0     H80495   7.978  11.178   6.077  2.5559  0.8479 -3.0464
  610MOL0     H80496   7.761  11.059   6.048  0.6884 -0.0381  2.9310
  610MOL0     H80497   7.845  10.904   6.060  3.3224 -0.1587  0.4250
  610MOL0     H80498   7.938  11.064   5.832 -0.5443  0.2981  0.1807
  610MOL0     H80499   7.935  10.888   5.864 -0.8193 -1.5106  0.8339
  610MOL0     H80500   7.755  10.917   5.697 -0.1186 -2.2410  0.5629
  610MOL0     H80501   7.723  11.074   5.765 -1.5337 -1.2559 -0.4443
  610MOL0     H80502   8.429  11.223   6.655  0.3716  0.2608 -0.5850
  610MOL0     H80503   8.548  11.371   6.825 -2.2036  1.5756  1.4347
  610MOL0     H80504   8.618  11.860   6.905 -1.1189 -1.0985 -2.7239
  610MOL0     H80505   8.754  12.054   6.959 -0.4462 -0.8532 -1.7032
  610MOL0     H80506   9.447  10.980   6.543  0.5163  0.2908 -0.6132
  610MOL0     H80507   9.317  10.783   6.642  0.8621 -0.4616  0.1268
  610MOL0     H80508   9.362  10.300   6.995 -0.8152  0.9418  1.4228
  610MOL0     H80509   9.185  10.133   7.005  2.2095  3.5142  1.6236
  610MOL0     H80510   8.900  10.126   7.035 -3.3526  0.5690 -1.1915
  610MOL0     H80511   8.999   9.995   6.976  2.0629  1.5045 -0.9458
  610MOL0     H80512   8.746   9.952   7.011 -0.8351  1.8898  0.4783
  610MOL0     H80513   8.729  10.054   6.861 -1.1193 -3.6517 -3.0739
  610MOL0     H80514   8.901   9.803   6.882  0.5144 -2.1582 -2.8680
  610MOL0     H80515   8.882   9.904   6.738  2.1892  0.2518  0.2335
  610MOL0     H80516   8.671   9.736   6.861 -1.5606  2.5266  0.5848
  610MOL0     H80517   8.651   9.821   6.713  1.0375 -1.1529 -0.6631
  610MOL0     H80518   8.854   9.475   6.588 -1.3796 -0.3898  1.4288
  610MOL0     H80519   9.005  10.313   6.647 -0.1358  0.1295 -0.5513
  610MOL0     H80520   9.197  10.471   6.642  3.3188 -0.3465  0.0871
  611MOL0     O80521   7.592   3.104   6.789  0.0821 -0.3458 -0.5468
  611MOL0     C80522   7.661   3.077   6.694 -1.4952  0.9145 -0.4524
  611MOL0     O80523   7.635   2.972   6.606 -0.2598  0.2917 -0.0649
  611MOL0     C80524   7.517   2.898   6.592  0.9143 -0.5791 -0.2989
  611MOL0     C80525   7.529   2.784   6.506 -1.4972 -0.5619 -0.6998
  611MOL0     C80526   7.422   2.699   6.482  0.5718 -0.2813 -0.2501
  611MOL0     C80527   7.291   2.740   6.532  0.5149  0.6495  0.1169
  611MOL0     O80528   7.185   2.655   6.487 -0.0339  0.0823  0.1383
  611MOL0     C80529   7.049   2.709   6.501  0.1866  0.4458 -0.7997
  611MOL0     C80530   6.965   2.647   6.388 -0.2981  0.1692 -0.8407
  611MOL0     C80531   6.819   2.689   6.381  0.8272  1.1177 -0.9262
  611MOL0     C80532   6.738   2.661   6.503  0.2843 -0.0729  0.1127
  611MOL0     C80533   6.738   2.510   6.547  0.9280 -0.5923 -0.6890
  611MOL0     C80534   6.672   2.413   6.451  0.1780  0.8898 -0.0713
  611MOL0     C80535   6.539   2.453   6.396 -0.3244 -0.1853 -0.3566
  611MOL0     C80536   6.453   2.331   6.377  0.4974  0.2495  0.2503
  611MOL0     N80537   6.315   2.377   6.339  0.2291  0.7043  0.3436
  611MOL0     C80538   6.282   2.436   6.224 -0.2943  0.4227  1.6544
  611MOL0     C80539   6.152   2.479   6.241 -0.6777 -0.2513 -0.8865
  611MOL0     C80540   6.066   2.557   6.150 -0.3796  0.1078 -0.0447
  611MOL0     C80541   5.920   2.509   6.145  1.0074 -0.8932 -0.2580
  611MOL0     C80542   5.893   2.383   6.064  1.1900  0.0783 -0.2719
  611MOL0     C80543   5.747   2.332   6.057 -0.3830 -0.0499  0.0843
  611MOL0     O80544   5.661   2.347   6.171 -0.0895 -0.3732  0.0001
  611MOL0     C80545   5.529   2.322   6.156  0.3091 -0.3232  0.8228
  611MOL0     C80546   5.474   2.198   6.190  0.5713  0.5952  1.3869
  611MOL0     C80547   5.337   2.177   6.162  0.3803  0.4509  0.1782
  611MOL0     C80548   5.260   2.261   6.083  0.0337 -0.2485 -0.0821
  611MOL0     C80549   5.127   2.227   6.032  0.2575  0.8615  0.4972
  611MOL0     O80550   5.068   2.120   6.087 -0.0388  0.1102 -0.0149
  611MOL0     C80551   4.939   2.092   6.041  0.7740  0.4760  0.0316
  611MOL0     C80552   4.905   1.966   5.988 -0.0915 -0.2328  0.5184
  611MOL0     C80553   4.769   1.944   5.962 -0.1435  0.0809  0.4669
  611MOL0     C80554   4.673   2.044   5.989  0.4283  0.3458  0.7228
  611MOL0     O80555   4.538   2.034   5.957 -0.2210  0.1874  0.0319
  611MOL0     C80556   4.490   1.895   5.919  0.6093  0.0911  0.2987
  611MOL0     C80557   4.364   1.850   5.989  0.0741  0.6370 -0.3041
  611MOL0     C80558   4.341   1.698   5.984  0.1433 -0.9848 -0.0990
  611MOL0     C80559   4.222   1.668   6.079  0.3860  0.5548  1.1368
  611MOL0     C80560   4.150   1.535   6.067  0.2631  0.5795 -0.5166
  611MOL0     C80561   4.240   1.410   6.046 -0.1319  0.3690  0.0136
  611MOL0     C80562   4.169   1.291   6.108  0.8353 -0.8559 -0.5948
  611MOL0     C80563   4.256   1.169   6.076 -0.0054 -0.3552  0.5144
  611MOL0    Cl80564   4.208   1.025   6.178  0.0111 -0.3114 -0.1532
  611MOL0     C80565   4.707   2.164   6.053  0.3789  0.2154  0.3248
  611MOL0     C80566   4.835   2.187   6.075 -0.8439 -0.2836 -0.0344
  611MOL0     O80567   5.071   2.311   5.956 -0.5790 -0.4306 -0.0922
  611MOL0     C80568   5.314   2.388   6.058 -0.1691 -0.0014  0.1236
  611MOL0     C80569   5.446   2.426   6.101 -0.0558  0.8889  0.4345
  611MOL0     N80570   6.105   2.424   6.360  0.2133  0.2594  0.1853
  611MOL0     N80571   6.206   2.379   6.420 -0.3541 -0.1565  0.1968
  611MOL0     C80572   7.283   2.840   6.632  0.1682 -0.1261  0.1633
  611MOL0     C80573   7.385   2.929   6.651  0.2460  0.1485  0.0736
  611MOL0     C80574   7.767   3.169   6.668  0.3190  0.0636  0.3123
  611MOL0     C80575   7.784   3.216   6.536  0.6875 -0.4130  0.8893
  611MOL0     C80576   7.866   3.323   6.508 -0.3901  0.0410 -0.0088
  611MOL0     C80577   7.951   3.388   6.601  0.8302  0.3265  0.0881
  611MOL0     O80578   8.028   3.492   6.558  0.0783  0.3012  0.0655
  611MOL0     C80579   8.114   3.563   6.647 -0.1096  0.1734 -0.0467
  611MOL0     C80580   8.250   3.497   6.629 -0.7611  0.9664 -0.1027
  611MOL0     C80581   8.359   3.547   6.731 -0.3290  0.4860 -0.3363
  611MOL0     C80582   8.492   3.465   6.730  0.3501 -0.1240 -0.2842
  611MOL0     C80583   8.470   3.316   6.726 -0.2554 -0.4766  0.1512
  611MOL0     C80584   8.447   3.202   6.721 -0.2290  0.3149 -0.5489
  611MOL0     C80585   7.918   3.357   6.734 -0.5841 -0.0958  0.6283
  611MOL0     C80586   7.833   3.248   6.767 -0.5467  0.6915  1.2355
  611MOL0     H80587   7.629   2.747   6.487  0.2475  1.6770  2.9354
  611MOL0     H80588   7.435   2.612   6.419 -1.2927  0.5826 -1.9252
  611MOL0     H80589   7.041   2.818   6.497 -0.6355  0.8839  4.7331
  611MOL0     H80590   7.008   2.675   6.597  0.1226 -0.3881 -1.1135
  611MOL0     H80591   6.970   2.538   6.397 -1.1306  0.1600 -0.3019
  611MOL0     H80592   7.015   2.676   6.295  6.0429  1.4654  2.4175
  611MOL0     H80593   6.774   2.634   6.298  2.3812 -0.7049 -0.6467
  611MOL0     H80594   6.819   2.797   6.366 -0.9473  1.2342 -0.2319
  611MOL0     H80595   6.781   2.713   6.589  0.6456  1.5155 -1.0000
  611MOL0     H80596   6.638   2.701   6.485 -0.4915 -2.8272 -2.6004
  611MOL0     H80597   6.676   2.502   6.637  0.6246 -1.3100 -0.9512
  611MOL0     H80598   6.839   2.471   6.562  0.8086 -1.2948 -1.6093
  611MOL0     H80599   6.671   2.321   6.510 -1.8718  0.0752 -1.2956
  611MOL0     H80600   6.735   2.399   6.363 -0.0470 -0.0562 -0.0841
  611MOL0     H80601   6.484   2.516   6.467  1.1963  1.6479 -0.7313
  611MOL0     H80602   6.540   2.513   6.305 -1.5043 -1.2655 -1.1140
  611MOL0     H80603   6.456   2.264   6.463  1.8898 -0.7558 -0.5342
  611MOL0     H80604   6.489   2.276   6.289  0.4541 -0.3146  0.5750
  611MOL0     H80605   6.333   2.443   6.129 -4.1274 -0.9183 -0.7520
  611MOL0     H80606   6.095   2.547   6.046  0.8340  2.8232 -0.0481
  611MOL0     H80607   6.076   2.663   6.175  3.2485  0.3021 -1.7502
  611MOL0     H80608   5.859   2.587   6.098  0.2047 -0.2654  1.7501
  611MOL0     H80609   5.883   2.502   6.247  0.2258 -0.5521 -0.5097
  611MOL0     H80610   5.924   2.404   5.961 -1.0728  2.7104 -0.5376
  611MOL0     H80611   5.956   2.306   6.110 -0.5243 -0.2237  1.7336
  611MOL0     H80612   5.756   2.224   6.039  1.7653  0.2996 -1.3568
  611MOL0     H80613   5.696   2.380   5.973  2.5434  1.5008 -0.9232
  611MOL0     H80614   5.534   2.123   6.241 -1.1035 -0.1763  2.3059
  611MOL0     H80615   5.287   2.090   6.202  2.2980  0.1023  1.9887
  611MOL0     H80616   4.972   1.888   5.955 -0.8195 -0.9124  0.6008
  611MOL0     H80617   4.748   1.849   5.912  0.5273  1.2401 -2.1995
  611MOL0     H80618   4.558   1.811   5.937 -0.2911 -0.2764  2.2323
  611MOL0     H80619   4.471   1.893   5.811 -5.1859  1.7396  0.9686
  611MOL0     H80620   4.281   1.911   5.953 -0.9306 -1.0593 -0.9835
  611MOL0     H80621   4.383   1.873   6.094  1.9924  0.8537 -0.6703
  611MOL0     H80622   4.426   1.644   6.027  0.5580  1.8640  3.1474
  611MOL0     H80623   4.317   1.673   5.881  2.3171 -2.0585 -0.3993
  611MOL0     H80624   4.263   1.688   6.178  0.1302  0.0564  1.3477
  611MOL0     H80625   4.149   1.748   6.062 -0.5757 -0.5242 -0.0438
  611MOL0     H80626   4.081   1.547   5.983 -1.0323  0.4999  0.5021
  611MOL0     H80627   4.096   1.530   6.162  3.5717 -1.4179  1.4506
  611MOL0     H80628   4.328   1.436   6.106  0.1457  0.9610 -0.6391
  611MOL0     H80629   4.265   1.390   5.942  0.2260 -0.6014  0.2769
  611MOL0     H80630   4.162   1.301   6.217 -1.4718 -0.1932 -0.7442
  611MOL0     H80631   4.071   1.281   6.061  0.2233 -1.1613  0.6893
  611MOL0     H80632   4.363   1.191   6.080 -0.6218  3.3263  0.2619
  611MOL0     H80633   4.228   1.144   5.974 -3.2869  2.8871  0.4087
  611MOL0     H80634   4.637   2.235   6.095  0.6963  0.7367 -0.0115
  611MOL0     H80635   4.875   2.282   6.108 -0.4792 -0.6378  0.5690
  611MOL0     H80636   5.261   2.462   6.000 -1.4458  2.3117  3.9354
  611MOL0     H80637   5.493   2.521   6.080  0.8165  0.2174 -0.7682
  611MOL0     H80638   7.188   2.866   6.677  0.4648  3.8444 -1.1207
  611MOL0     H80639   7.377   3.016   6.715  0.2488  0.5735 -0.4926
  611MOL0     H80640   7.733   3.159   6.459 -0.4839  0.1639  1.2108
  611MOL0     H80641   7.876   3.356   6.405  1.0443  2.3642  0.8039
  611MOL0     H80642   8.096   3.547   6.754 -0.0604  0.9327  0.0835
  611MOL0     H80643   8.123   3.671   6.632  0.8811  0.4735  2.2825
  611MOL0     H80644   8.238   3.388   6.633 -2.5461  0.9641 -2.6952
  611MOL0     H80645   8.291   3.514   6.529 -0.5126 -3.8426 -1.0594
  611MOL0     H80646   8.320   3.534   6.832  2.0833  1.9670  0.8588
  611MOL0     H80647   8.396   3.650   6.724 -0.8748  0.6056 -2.2308
  611MOL0     H80648   8.551   3.486   6.641  1.0807  3.1422  0.8567
  611MOL0     H80649   8.555   3.500   6.812  1.9068  2.1306 -2.3112
  611MOL0     H80650   8.418   3.099   6.734 -0.2806  0.5795  1.8877
  611MOL0     H80651   7.959   3.420   6.812  0.1112  2.0659 -1.3453
  611MOL0     H80652   7.836   3.224   6.873  0.9433 -0.2056  1.0185
  612MOL0     O80653   4.948   7.665   6.241 -0.1502 -0.6579 -0.4064
  612MOL0     C80654   4.901   7.585   6.325 -0.2034 -0.7241 -0.6985
  612MOL0     O80655   4.974   7.513   6.417 -0.2789 -0.6063 -0.2766
  612MOL0     C80656   5.105   7.490   6.409 -0.2634 -0.0864  1.0186
  612MOL0     C80657   5.181   7.510   6.288  0.6076  0.2262  0.5357
  612MOL0     C80658   5.315   7.484   6.285 -1.1758  0.8039  0.7406
  612MOL0     C80659   5.381   7.430   6.394  0.0913  0.2646  0.5626
  612MOL0     O80660   5.517   7.408   6.383  0.0140 -0.0562  0.0353
  612MOL0     C80661   5.597   7.353   6.487  0.4790 -0.2899 -0.4436
  612MOL0     C80662   5.749   7.329   6.439  0.3914  0.9084  0.5171
  612MOL0     C80663   5.863   7.267   6.528 -0.4773  0.5601  1.0403
  612MOL0     C80664   5.936   7.370   6.613 -0.8280 -0.6200  0.2913
  612MOL0     C80665   6.070   7.337   6.679  0.2712  0.4080  0.2100
  612MOL0     C80666   6.177   7.314   6.568  0.5250 -0.2036 -0.0794
  612MOL0     C80667   6.320   7.326   6.620  0.3724  0.5266  0.2048
  612MOL0     C80668   6.360   7.208   6.715 -0.5990 -0.7161  0.3551
  612MOL0     N80669   6.338   7.074   6.661  0.2107 -0.2399  0.3028
  612MOL0     C80670   6.237   6.996   6.708 -0.0359  0.1376  0.3047
  612MOL0     C80671   6.195   6.919   6.603 -0.1944 -0.0542 -0.5182
  612MOL0     C80672   6.092   6.814   6.600  0.2695  0.0497 -0.8147
  612MOL0     C80673   5.965   6.863   6.518  0.8078  0.0426  0.5809
  612MOL0     C80674   5.847   6.773   6.553 -0.0994 -0.7266 -0.4601
  612MOL0     C80675   5.711   6.811   6.491  0.2272 -0.5459  0.2469
  612MOL0     O80676   5.612   6.812   6.591 -0.2980 -0.0600  0.2821
  612MOL0     C80677   5.486   6.866   6.557 -0.5280 -0.0936 -0.3189
  612MOL0     C80678   5.381   6.834   6.645  0.5859  0.2558 -0.1028
  612MOL0     C80679   5.244   6.878   6.624 -0.4543 -0.2063 -0.3379
  612MOL0     C80680   5.227   6.965   6.522  0.7098 -0.2010  0.8555
  612MOL0     C80681   5.094   7.027   6.495  0.6224 -0.8397  0.0773
  612MOL0     O80682   4.988   6.963   6.555 -0.5059 -0.2409  0.1747
  612MOL0     C80683   4.860   7.006   6.556 -0.4090  0.8456  1.0004
  612MOL0     C80684   4.796   7.065   6.444 -0.1566 -0.3741  0.0771
  612MOL0     C80685   4.658   7.097   6.458 -0.8558 -0.6071  0.1740
  612MOL0     C80686   4.586   7.056   6.571  0.1008  0.5286 -0.3429
  612MOL0     O80687   4.447   7.070   6.566 -0.5035  0.3317 -0.3762
  612MOL0     C80688   4.366   7.025   6.679 -0.6301 -0.5882 -0.1607
  612MOL0     C80689   4.226   7.006   6.633 -0.0428 -0.0635  0.8025
  612MOL0     C80690   4.143   6.985   6.758 -0.2015  0.0399  0.1787
  612MOL0     C80691   4.004   6.938   6.714  0.8865 -0.6374 -0.0009
  612MOL0     C80692   3.902   6.945   6.830 -0.2280  0.2973  0.0262
  612MOL0     C80693   3.757   6.918   6.786  0.3380 -0.3968 -0.6068
  612MOL0     C80694   3.665   6.901   6.904  0.7218  0.4227  0.0904
  612MOL0     C80695   3.626   7.024   6.982  0.7642 -0.0966 -0.4324
  612MOL0    Cl80696   3.589   7.167   6.874  0.0338  0.2354 -0.2158
  612MOL0     C80697   4.656   7.013   6.690 -0.2483  0.9724  0.7706
  612MOL0     C80698   4.794   6.990   6.676 -0.0309 -0.0625 -0.3857
  612MOL0     O80699   5.084   7.133   6.427 -0.1495  0.2638 -0.5090
  612MOL0     C80700   5.327   6.997   6.433 -0.0856 -0.5647 -0.8649
  612MOL0     C80701   5.459   6.951   6.450  0.1162 -0.1526 -0.1261
  612MOL0     N80702   6.268   6.952   6.489  0.1189  0.1869 -0.0278
  612MOL0     N80703   6.353   7.046   6.528  0.1049  0.3415  0.7940
  612MOL0     C80704   5.315   7.409   6.512 -0.4617  0.4149  0.5148
  612MOL0     C80705   5.171   7.441   6.518 -0.6961  0.2265  0.2379
  612MOL0     C80706   4.749   7.575   6.331  0.7131 -0.3923 -0.4063
  612MOL0     C80707   4.675   7.476   6.401  0.2697 -0.0470  0.1059
  612MOL0     C80708   4.539   7.480   6.412  0.1572  0.1633  0.9748
  612MOL0     C80709   4.460   7.573   6.345  0.1206  0.7987  0.6274
  612MOL0     O80710   4.329   7.557   6.351  0.0591  0.1446 -0.1209
  612MOL0     C80711   4.229   7.656   6.314 -0.6421 -1.2248  0.3737
  612MOL0     C80712   4.087   7.645   6.374  0.0983  0.0700  0.3484
  612MOL0     C80713   4.004   7.774   6.350 -0.2727 -0.6755  0.2283
  612MOL0     C80714   3.973   7.798   6.202  0.2324  0.0215 -0.9303
  612MOL0     C80715   4.086   7.856   6.128 -0.5152  0.4849 -1.0437
  612MOL0     C80716   4.193   7.898   6.080 -0.1234  0.7642  0.4536
  612MOL0     C80717   4.526   7.671   6.276 -0.5024 -0.1364 -0.4444
  612MOL0     C80718   4.666   7.676   6.271 -0.0077  0.1121 -0.2134
  612MOL0     H80719   5.140   7.543   6.193 -0.2353  3.1689  1.8249
  612MOL0     H80720   5.367   7.499   6.191  0.8301 -0.1753  1.6290
  612MOL0     H80721   5.563   7.261   6.537 -0.7269 -0.2524 -1.1637
  612MOL0     H80722   5.598   7.435   6.559  0.5990  0.4193 -1.2388
  612MOL0     H80723   5.789   7.422   6.397  1.9176  0.4420  0.8793
  612MOL0     H80724   5.747   7.256   6.358  0.1789  1.5432 -0.0620
  612MOL0     H80725   5.930   7.219   6.456 -0.4913 -0.5877  1.7738
  612MOL0     H80726   5.824   7.185   6.589 -0.3088 -0.1264  0.2433
  612MOL0     H80727   5.965   7.450   6.545 -1.4309  0.3219  1.1115
  612MOL0     H80728   5.871   7.417   6.688 -2.1276 -0.4212 -0.9296
  612MOL0     H80729   6.055   7.248   6.741 -0.1555 -1.0168 -1.8181
  612MOL0     H80730   6.092   7.431   6.730  2.0510  1.9685 -3.1125
  612MOL0     H80731   6.151   7.388   6.493 -3.4390  0.0893  1.3840
  612MOL0     H80732   6.178   7.214   6.523  4.5349 -0.0068 -0.8656
  612MOL0     H80733   6.394   7.336   6.539  1.2178  1.8046  1.0960
  612MOL0     H80734   6.329   7.422   6.672  0.9213  0.6757 -0.1546
  612MOL0     H80735   6.309   7.224   6.811 -0.5716  0.8112  0.1529
  612MOL0     H80736   6.466   7.203   6.738 -0.2170  0.4031 -0.9893
  612MOL0     H80737   6.197   7.012   6.808  2.2887 -0.2793  1.3577
  612MOL0     H80738   6.072   6.791   6.705  1.3982  1.0927 -0.3466
  612MOL0     H80739   6.128   6.722   6.553  1.6840 -0.6107  1.4200
  612MOL0     H80740   5.973   6.855   6.409 -0.1391  2.0182  0.3143
  612MOL0     H80741   5.942   6.970   6.529  2.3855  0.7422 -2.0232
  612MOL0     H80742   5.865   6.673   6.511 -3.1796 -1.2726 -0.7573
  612MOL0     H80743   5.828   6.778   6.661  0.0420 -0.3919 -0.4502
  612MOL0     H80744   5.697   6.750   6.402 -2.3575  0.7760 -0.3604
  612MOL0     H80745   5.726   6.914   6.456  3.3261 -0.5283  1.3301
  612MOL0     H80746   5.412   6.760   6.718 -0.0618  0.5111  0.4412
  612MOL0     H80747   5.166   6.857   6.696  1.1750 -0.6639  1.3980
  612MOL0     H80748   4.848   7.061   6.350 -3.0504 -0.3847 -1.6565
  612MOL0     H80749   4.607   7.145   6.376 -0.4991 -2.3171 -1.0909
  612MOL0     H80750   4.376   7.100   6.758  0.4686 -0.8635 -0.0235
  612MOL0     H80751   4.388   6.929   6.727 -4.9770 -2.1354 -0.8076
  612MOL0     H80752   4.223   6.920   6.565  0.4606  0.7515 -0.2846
  612MOL0     H80753   4.182   7.087   6.574 -1.1883 -2.2901 -1.6254
  612MOL0     H80754   4.134   7.086   6.797  0.7882  0.3806 -0.4592
  612MOL0     H80755   4.185   6.917   6.833 -2.9331 -1.6802  0.3087
  612MOL0     H80756   3.974   7.002   6.631  1.1860  0.6222  0.8397
  612MOL0     H80757   4.003   6.834   6.678 -1.7058 -1.4130  1.9242
  612MOL0     H80758   3.903   7.047   6.869 -0.6743  0.2907  0.0546
  612MOL0     H80759   3.923   6.862   6.899 -2.2551 -0.0652  0.2555
  612MOL0     H80760   3.762   6.824   6.730  1.8590 -1.5069  1.2458
  612MOL0     H80761   3.725   7.001   6.723 -0.6629 -1.0305 -0.9504
  612MOL0     H80762   3.569   6.866   6.865  0.5474 -0.9515  1.6157
  612MOL0     H80763   3.699   6.820   6.970  0.3283  0.1849  0.0078
  612MOL0     H80764   3.699   7.067   7.051 -0.3628  1.8626 -0.3798
  612MOL0     H80765   3.537   7.003   7.042  1.3600 -0.6653  0.2650
  612MOL0     H80766   4.597   6.996   6.779 -2.6218 -0.5156 -0.9694
  612MOL0     H80767   4.846   6.952   6.763 -0.2110  2.7664  1.0856
  612MOL0     H80768   5.305   7.068   6.353  1.2457 -1.0289 -1.6821
  612MOL0     H80769   5.524   6.978   6.367 -3.8925  3.3262 -2.5701
  612MOL0     H80770   5.363   7.359   6.596 -0.1181 -1.4368 -0.7345
  612MOL0     H80771   5.110   7.410   6.602 -1.1696  1.2278  0.2673
  612MOL0     H80772   4.735   7.395   6.440  0.7708  0.0866 -0.3739
  612MOL0     H80773   4.477   7.403   6.457 -1.5366 -0.0929 -1.5834
  612MOL0     H80774   4.223   7.656   6.204 -0.4336  1.5259  0.3118
  612MOL0     H80775   4.271   7.755   6.330 -1.0030 -1.1473  0.8431
  612MOL0     H80776   4.037   7.558   6.331  1.2683  0.5563 -2.1910
  612MOL0     H80777   4.104   7.641   6.482 -0.0981  0.4171  0.3924
  612MOL0     H80778   4.057   7.858   6.395  0.5638 -0.9996 -0.1249
  612MOL0     H80779   3.905   7.768   6.397 -1.9648  2.6151 -2.3805
  612MOL0     H80780   3.941   7.702   6.160 -1.0319 -1.6603  3.2886
  612MOL0     H80781   3.882   7.858   6.197  0.7889  1.6179  3.6480
  612MOL0     H80782   4.284   7.916   6.027  1.3481 -5.3523  0.1934
  612MOL0     H80783   4.470   7.718   6.196 -0.8095 -1.1190 -0.8191
  612MOL0     H80784   4.709   7.762   6.220  0.4484 -0.9243 -1.6418
  613MOL0     O80785   1.192  11.118   9.986  0.4586 -0.3040  0.5399
  613MOL0     C80786   1.152  11.154  10.096  0.5969 -0.7910 -0.3672
  613MOL0     O80787   1.041  11.216  10.125  0.5058 -0.3055 -0.3006
  613MOL0     C80788   0.946  11.239  10.029 -0.2616 -0.9435  0.8822
  613MOL0     C80789   0.817  11.221  10.064  0.4842  0.3312  0.0078
  613MOL0     C80790   0.714  11.242   9.971  0.2180 -0.0052  0.3871
  613MOL0     C80791   0.737  11.295   9.847 -0.2389  0.2215  0.1561
  613MOL0     O80792   0.637  11.327   9.762 -0.4226 -0.0928  0.6585
  613MOL0     C80793   0.547  11.227   9.716 -0.1494 -0.9465 -0.4978
  613MOL0     C80794   0.409  11.276   9.752  0.2773 -0.6771 -0.5171
  613MOL0     C80795   0.295  11.179   9.692  0.1476 -0.1343  0.1162
  613MOL0     C80796   0.151  11.235   9.709 -0.3114 -0.0417 -1.0766
  613MOL0     C80797   0.045  11.130   9.671 -0.2635 -0.2836  1.2164
  613MOL0     C80798  -0.111  11.151   9.671 -1.3428  0.1401  0.5324
  613MOL0     C80799  -0.176  11.256   9.574 -0.9612 -0.0792 -0.0513
  613MOL0     C80800  -0.325  11.236   9.594 -0.4961  0.0316  0.4753
  613MOL0     N80801  -0.412  11.334   9.534 -0.0042  0.3390  0.4459
  613MOL0     C80802  -0.391  11.470   9.518 -0.4340 -0.4208  0.1259
  613MOL0     C80803  -0.513  11.519   9.468  0.1547 -1.0304  0.2873
  613MOL0     C80804  -0.546  11.662   9.430  0.1435  0.0207 -0.2503
  613MOL0     C80805  -0.615  11.736   9.538  0.3047 -0.5875 -0.4679
  613MOL0     C80806  -0.674  11.878   9.497  1.4881 -0.1726 -0.1672
  613MOL0     C80807  -0.731  11.949   9.623  0.4484  0.7743  0.9084
  613MOL0     O80808  -0.848  11.880   9.671 -0.0735  0.2270 -0.1873
  613MOL0     C80809  -0.976  11.872   9.623 -0.0661 -0.1147  0.2529
  613MOL0     C80810  -1.080  11.827   9.701  0.4061 -0.5292 -0.8023
  613MOL0     C80811  -1.206  11.817   9.641  0.6740 -0.3419 -0.7928
  613MOL0     C80812  -1.230  11.852   9.514 -0.8410  0.2480  1.0310
  613MOL0     C80813  -1.359  11.826   9.452 -0.2785 -0.3564  0.6191
  613MOL0     O80814  -1.391  11.897   9.339  0.3668  0.3453  0.2688
  613MOL0     C80815  -1.518  11.879   9.284  0.4508  0.1430  0.6053
  613MOL0     C80816  -1.616  11.979   9.296 -0.3012  0.7605 -0.0230
  613MOL0     C80817  -1.737  11.962   9.231 -0.4007 -0.0518 -0.2277
  613MOL0     C80818  -1.776  11.841   9.171  0.6954 -0.2944  0.9684
  613MOL0     O80819  -1.906  11.801   9.126  0.5069 -0.2100  0.3660
  613MOL0     C80820  -1.916  11.750   8.989 -0.9719  0.4110  0.2104
  613MOL0     C80821  -1.946  11.860   8.884  0.2952 -1.3252  0.1125
  613MOL0     C80822  -1.910  11.813   8.756 -0.1790  0.1576  0.9644
  613MOL0     C80823  -1.762  11.780   8.725  0.3056 -0.0683 -0.1125
  613MOL0     C80824  -1.673  11.891   8.792 -0.1823 -0.8485 -0.9579
  613MOL0     C80825  -1.535  11.893   8.739  0.9001  0.1541 -0.5727
  613MOL0     C80826  -1.463  11.762   8.789  0.2110  0.2069  0.0059
  613MOL0     C80827  -1.311  11.787   8.807 -0.4557 -0.9567  0.3592
  613MOL0    Cl80828  -1.270  11.846   8.970  0.0403  0.4302 -0.0384
  613MOL0     C80829  -1.680  11.738   9.183  0.1414 -0.0454 -0.5573
  613MOL0     C80830  -1.551  11.756   9.231  0.2449  1.5925 -0.0003
  613MOL0     O80831  -1.436  11.748   9.509  0.2409  0.2195 -0.5121
  613MOL0     C80832  -1.127  11.915   9.443 -1.1960 -0.1754 -0.5912
  613MOL0     C80833  -1.001  11.923   9.499  0.9013  0.3554  0.2918
  613MOL0     N80834  -0.590  11.413   9.457  0.2549 -0.1470  0.0265
  613MOL0     N80835  -0.536  11.306   9.501  0.0332 -0.2666  0.4536
  613MOL0     C80836   0.871  11.326   9.809 -0.2371  0.0808 -0.2987
  613MOL0     C80837   0.975  11.302   9.907  0.6660 -0.4819  0.4100
  613MOL0     C80838   1.245  11.134  10.210  0.3227  0.0647  0.4590
  613MOL0     C80839   1.348  11.037  10.193  0.3620  0.2609  0.0351
  613MOL0     C80840   1.447  11.023  10.290 -0.4558 -0.1679 -0.9618
  613MOL0     C80841   1.452  11.106  10.403  0.3393 -0.2761  0.8043
  613MOL0     O80842   1.546  11.098  10.500 -0.9142 -0.3717  0.3130
  613MOL0     C80843   1.671  11.042  10.453  0.2415 -0.2767  0.2346
  613MOL0     C80844   1.704  10.904  10.516 -0.2142  0.5280  0.0550
  613MOL0     C80845   1.832  10.843  10.441  0.3116  0.0710 -0.2906
  613MOL0     C80846   1.871  10.715  10.512 -0.0432 -0.5050  0.3107
  613MOL0     C80847   1.759  10.610  10.495 -0.0623  0.2762  0.1399
  613MOL0     C80848   1.669  10.537  10.453  0.6226  0.3548 -0.5858
  613MOL0     C80849   1.349  11.202  10.419  0.6837 -0.5138 -0.1136
  613MOL0     C80850   1.246  11.223  10.323  0.0417 -0.5423 -0.2061
  613MOL0     H80851   0.803  11.194  10.168  1.4012 -1.5698 -0.3177
  613MOL0     H80852   0.613  11.219  10.002 -0.4430  0.2533 -1.4255
  613MOL0     H80853   0.573  11.130   9.761  0.4061  0.0702  1.4728
  613MOL0     H80854   0.555  11.211   9.608 -1.2893  3.0761 -1.3505
  613MOL0     H80855   0.395  11.375   9.709 -3.5524  0.2213  2.2340
  613MOL0     H80856   0.379  11.286   9.857 -1.4911  0.7773 -1.1090
  613MOL0     H80857   0.311  11.084   9.745  1.4806  0.7315  1.3407
  613MOL0     H80858   0.309  11.159   9.586 -1.8038  0.0386 -0.2120
  613MOL0     H80859   0.146  11.256   9.816 -1.4913 -1.3151 -0.8465
  613MOL0     H80860   0.133  11.327   9.652 -1.5632 -2.6875 -5.4723
  613MOL0     H80861   0.079  11.040   9.722  0.8426 -2.3892 -2.7506
  613MOL0     H80862   0.068  11.099   9.568  1.3506  0.4069  1.3322
  613MOL0     H80863  -0.124  11.176   9.777 -0.6204 -0.7953  0.8505
  613MOL0     H80864  -0.140  11.049   9.648 -0.3399 -0.1278  0.3844
  613MOL0     H80865  -0.139  11.358   9.584  1.5148 -1.0406  1.7608
  613MOL0     H80866  -0.154  11.218   9.474 -2.0932  0.1321 -0.4046
  613MOL0     H80867  -0.344  11.230   9.701  1.2904 -0.9395  0.7757
  613MOL0     H80868  -0.357  11.137   9.561  1.2657 -0.2718 -0.4271
  613MOL0     H80869  -0.296  11.522   9.521 -0.4388 -0.1593 -2.2735
  613MOL0     H80870  -0.612  11.662   9.343 -0.5168  0.3651  0.2351
  613MOL0     H80871  -0.466  11.722   9.387 -2.5176  2.2937 -2.4573
  613MOL0     H80872  -0.542  11.754   9.618  0.2460 -1.9449 -0.0805
  613MOL0     H80873  -0.704  11.690   9.580 -1.0358  2.3546  0.1855
  613MOL0     H80874  -0.607  11.952   9.453  1.7697  1.0380  2.1437
  613MOL0     H80875  -0.757  11.861   9.428  0.5937 -0.8510  1.0369
  613MOL0     H80876  -0.751  12.053   9.598 -0.2059  0.7613  1.3469
  613MOL0     H80877  -0.656  11.934   9.701 -0.2225 -2.0064  1.1411
  613MOL0     H80878  -1.075  11.805   9.807  0.9722  1.5871 -0.3390
  613MOL0     H80879  -1.287  11.773   9.699  0.1249 -0.5497 -1.6959
  613MOL0     H80880  -1.594  12.067   9.355 -2.9176  0.0489  2.2133
  613MOL0     H80881  -1.796  12.053   9.225  1.6843  1.2813 -3.1169
  613MOL0     H80882  -2.004  11.685   8.979 -2.2353  2.1494 -0.4268
  613MOL0     H80883  -1.830  11.688   8.964 -0.0744  1.7360 -0.0585
  613MOL0     H80884  -1.911  11.962   8.904 -1.2622 -0.6761 -0.3388
  613MOL0     H80885  -2.053  11.880   8.874  0.0460 -2.9755 -0.8963
  613MOL0     H80886  -1.941  11.890   8.685  1.7413 -0.7578 -1.0207
  613MOL0     H80887  -1.964  11.722   8.728  2.0251 -0.8268 -0.4890
  613MOL0     H80888  -1.736  11.682   8.767  1.4341 -0.8036 -2.3228
  613MOL0     H80889  -1.744  11.770   8.618  0.2891  0.6264 -0.1826
  613MOL0     H80890  -1.681  11.890   8.901 -2.6498  4.9823 -0.7491
  613MOL0     H80891  -1.719  11.983   8.754 -1.3887 -0.5920  0.9637
  613MOL0     H80892  -1.486  11.973   8.795  1.5520 -2.1049  2.3291
  613MOL0     H80893  -1.531  11.904   8.630 -0.0654  0.0292 -0.6299
  613MOL0     H80894  -1.499  11.725   8.885  1.1271  0.5494  0.4905
  613MOL0     H80895  -1.475  11.683   8.713 -0.8992  2.6165 -2.4934
  613MOL0     H80896  -1.262  11.867   8.750  1.6073 -0.3297  2.7719
  613MOL0     H80897  -1.260  11.693   8.784  1.1557 -0.2586  0.8886
  613MOL0     H80898  -1.705  11.639   9.145 -0.4219 -0.9257  1.8728
  613MOL0     H80899  -1.482  11.672   9.230 -1.4366 -0.2607  5.0179
  613MOL0     H80900  -1.136  11.948   9.340  1.2301  1.0006 -0.4890
  613MOL0     H80901  -0.931  11.974   9.433 -0.8164 -0.1629 -2.0608
  613MOL0     H80902   0.891  11.375   9.714 -5.6351 -1.0167 -2.3509
  613MOL0     H80903   1.078  11.317   9.875 -0.0504 -0.6117 -2.2536
  613MOL0     H80904   1.350  10.980  10.101 -2.8336  1.5572 -0.9689
  613MOL0     H80905   1.507  10.934  10.277  1.3917  0.7012  1.0005
  613MOL0     H80906   1.753  11.105  10.486  0.2621  0.1157 -0.5371
  613MOL0     H80907   1.685  11.040  10.344  1.6223  2.8641  0.2615
  613MOL0     H80908   1.717  10.909  10.624  2.0548 -1.1389 -0.0810
  613MOL0     H80909   1.620  10.835  10.499  0.6439 -1.1446  2.1063
  613MOL0     H80910   1.913  10.917  10.452  3.0871 -2.9931  2.1200
  613MOL0     H80911   1.793  10.814  10.344 -1.5885 -1.5410  0.8858
  613MOL0     H80912   1.960  10.682  10.459 -0.7725 -0.1534 -1.1887
  613MOL0     H80913   1.899  10.731  10.617  0.8332 -3.0443  0.5327
  613MOL0     H80914   1.608  10.457  10.418  1.5882  0.6155 -3.0795
  613MOL0     H80915   1.357  11.268  10.505  1.1027  1.5570 -1.6695
  613MOL0     H80916   1.175  11.304  10.333 -0.2020 -1.0242  3.0298
  614MOL0     O80917  10.979   9.921   7.443 -0.1525  0.3304  0.1495
  614MOL0     C80918  10.912   9.814   7.423  0.2207 -0.9189  0.5106
  614MOL0     O80919  10.966   9.691   7.429 -0.8159 -0.7290 -0.1592
  614MOL0     C80920  11.098   9.665   7.442  0.0705 -0.9028  0.6304
  614MOL0     C80921  11.205   9.760   7.422 -0.1565 -0.2614 -0.0634
  614MOL0     C80922  11.335   9.722   7.462  0.6619 -0.4995 -0.4273
  614MOL0     C80923  11.363   9.592   7.503 -0.4110  0.5000  0.8062
  614MOL0     O80924  11.488   9.554   7.535  0.1095 -0.6196 -0.0173
  614MOL0     C80925  11.597   9.640   7.491 -0.0168  0.2262 -0.8932
  614MOL0     C80926  11.723   9.566   7.542 -1.4395  0.3929  0.2567
  614MOL0     C80927  11.771   9.446   7.454  0.0799 -0.1013  0.1946
  614MOL0     C80928  11.881   9.363   7.522  0.5131 -0.3625 -0.6923
  614MOL0     C80929  12.013   9.439   7.512  0.6678  0.1935  0.5869
  614MOL0     C80930  12.138   9.346   7.508 -0.3538 -0.9029 -0.3305
  614MOL0     C80931  12.153   9.265   7.644 -0.7836 -0.4569  0.1181
  614MOL0     C80932  12.285   9.174   7.652 -1.2891  0.2037  0.4807
  614MOL0     N80933  12.409   9.241   7.615  0.8162 -0.0115  0.0560
  614MOL0     C80934  12.457   9.264   7.485 -0.1477 -0.6055  0.4155
  614MOL0     C80935  12.550   9.353   7.494 -0.5113  0.0226  0.7537
  614MOL0     C80936  12.647   9.418   7.393  0.0880  0.1978  0.5206
  614MOL0     C80937  12.775   9.329   7.352 -0.8168  0.3610 -0.0659
  614MOL0     C80938  12.712   9.196   7.306  0.0254 -0.6372  0.6739
  614MOL0     C80939  12.810   9.104   7.240  0.2108 -0.1430  0.0143
  614MOL0     O80940  12.922   9.080   7.326  0.4455  0.4110  0.4192
  614MOL0     C80941  13.039   9.032   7.263  1.3709 -0.1793  0.3213
  614MOL0     C80942  13.148   9.000   7.351 -0.4864  0.6444  0.7541
  614MOL0     C80943  13.266   8.941   7.299  0.0840  0.3590 -0.7548
  614MOL0     C80944  13.280   8.915   7.159  0.2593 -0.3555  0.5066
  614MOL0     C80945  13.409   8.860   7.106 -0.0962 -0.1797  0.1596
  614MOL0     O80946  13.510   8.872   7.191  0.6249  0.5977 -0.0247
  614MOL0     C80947  13.634   8.822   7.163  0.8635 -0.0741  0.3486
  614MOL0     C80948  13.712   8.823   7.275 -0.3305  0.7136 -0.6379
  614MOL0     C80949  13.841   8.770   7.265 -0.0817 -0.5853 -0.6007
  614MOL0     C80950  13.894   8.727   7.147 -0.1986 -1.0073  0.2467
  614MOL0     O80951  14.021   8.677   7.149  0.0690  0.1736  0.2166
  614MOL0     C80952  14.089   8.658   7.023  0.2087  0.7170  0.3820
  614MOL0     C80953  14.241   8.629   7.038 -0.7225 -0.9726  0.9908
  614MOL0     C80954  14.306   8.642   6.897 -0.0235  0.2802  0.1748
  614MOL0     C80955  14.446   8.572   6.884  1.0310 -1.0833 -0.5022
  614MOL0     C80956  14.533   8.633   6.778 -0.3074  1.0638  0.2510
  614MOL0     C80957  14.686   8.586   6.782  0.0832 -0.0833 -0.3613
  614MOL0     C80958  14.777   8.673   6.696 -0.4894  0.7740 -0.5682
  614MOL0     C80959  14.923   8.627   6.720 -0.4481  0.8020 -0.0200
  614MOL0    Cl80960  14.964   8.655   6.892  0.0333 -0.6019  0.1796
  614MOL0     C80961  13.814   8.734   7.026 -0.3966  1.3109 -0.1571
  614MOL0     C80962  13.683   8.784   7.037 -0.5363 -1.1461  0.2585
  614MOL0     O80963  13.406   8.814   6.993 -0.0873  0.0953  0.1423
  614MOL0     C80964  13.167   8.941   7.080 -0.0013 -0.4970  0.2606
  614MOL0     C80965  13.046   8.989   7.131  0.1796 -0.8184  0.3899
  614MOL0     N80966  12.567   9.371   7.628  0.1044  0.6196 -0.0769
  614MOL0     N80967  12.499   9.297   7.699  0.1811 -0.3238  0.4365
  614MOL0     C80968  11.261   9.506   7.525  1.1441  0.1774  1.3229
  614MOL0     C80969  11.130   9.544   7.500  0.2861 -1.5995 -0.0271
  614MOL0     C80970  10.766   9.812   7.417  0.6183 -0.4438  0.9697
  614MOL0     C80971  10.704   9.936   7.398 -0.1503 -0.4973 -0.3965
  614MOL0     C80972  10.568   9.945   7.374 -0.8277  0.1263  0.3856
  614MOL0     C80973  10.488   9.830   7.382 -0.5179  0.2032 -0.1262
  614MOL0     O80974  10.350   9.826   7.373 -0.3998  0.0849 -0.0599
  614MOL0     C80975  10.280   9.947   7.394  0.6549  0.2412  0.4660
  614MOL0     C80976  10.208   9.986   7.257 -0.5912  0.0015 -1.1000
  614MOL0     C80977  10.205  10.142   7.241  0.4557 -0.6933 -0.0285
  614MOL0     C80978  10.068  10.204   7.232  0.5196 -0.4422  0.3342
  614MOL0     C80979  10.023  10.208   7.093 -0.7592  0.3269 -1.2588
  614MOL0     C80980   9.999  10.207   6.973 -0.1920  0.1711  0.5373
  614MOL0     C80981  10.547   9.709   7.406  0.2929  0.5774 -0.5779
  614MOL0     C80982  10.686   9.703   7.420 -0.2288 -0.2926 -0.5180
  614MOL0     H80983  11.200   9.865   7.395 -0.7856  0.0591  1.2012
  614MOL0     H80984  11.414   9.791   7.436  2.3894 -2.4830 -0.6666
  614MOL0     H80985  11.603   9.729   7.555  1.1140 -0.9752  0.7767
  614MOL0     H80986  11.600   9.655   7.383 -1.6122  1.3808 -0.7967
  614MOL0     H80987  11.705   9.522   7.640  1.0582 -1.6666 -0.1169
  614MOL0     H80988  11.796   9.648   7.546  1.1619 -1.6053 -2.3813
  614MOL0     H80989  11.795   9.483   7.353 -0.3593  3.3541  1.2233
  614MOL0     H80990  11.685   9.381   7.439  1.1957 -1.6884  0.3394
  614MOL0     H80991  11.857   9.333   7.625  0.2150  0.3335 -0.5565
  614MOL0     H80992  11.897   9.270   7.467  0.8709 -1.4303  1.1345
  614MOL0     H80993  12.023   9.510   7.595 -2.5936  1.7399 -0.1963
  614MOL0     H80994  12.007   9.489   7.415  3.7893  0.7204  0.5517
  614MOL0     H80995  12.218   9.422   7.509 -4.0578  3.5857  3.5658
  614MOL0     H80996  12.135   9.276   7.424 -1.5684 -2.4453  0.9466
  614MOL0     H80997  12.167   9.337   7.725  0.9801 -0.6603  0.0341
  614MOL0     H80998  12.071   9.196   7.665 -0.7877 -0.0414  1.5860
  614MOL0     H80999  12.265   9.080   7.599  1.1198 -0.0221 -0.1396
  614MOL0     H81000  12.301   9.146   7.757 -1.0093 -2.0413 -0.1095
  614MOL0     H81001  12.421   9.236   7.386  3.0279 -1.7100 -0.5430
  614MOL0     H81002  12.679   9.515   7.430 -0.1893  0.9818 -1.1915
  614MOL0     H81003  12.586   9.448   7.307 -1.3966 -1.2874  0.9863
  614MOL0     H81004  12.830   9.326   7.446  0.4358  4.3756 -0.4757
  614MOL0     H81005  12.831   9.384   7.276  3.8551 -1.1992  1.9075
  614MOL0     H81006  12.678   9.139   7.392 -2.4423  1.4881  1.2268
  614MOL0     H81007  12.628   9.208   7.237 -1.2822  0.3641  2.3804
  614MOL0     H81008  12.846   9.161   7.154  0.7723 -2.0430 -1.0608
  614MOL0     H81009  12.774   9.008   7.201 -1.4306  0.1873  0.6136
  614MOL0     H81010  13.132   9.015   7.457  0.5431 -1.2753  1.2243
  614MOL0     H81011  13.345   8.927   7.372 -0.0188  2.4404 -0.1813
  614MOL0     H81012  13.698   8.875   7.369  1.5620  3.4202 -1.6971
  614MOL0     H81013  13.899   8.787   7.355 -2.3200  0.7697  0.6729
  614MOL0     H81014  14.073   8.749   6.963 -1.9542  1.1555  1.5241
  614MOL0     H81015  14.037   8.577   6.972 -4.2603  1.8634  2.6344
  614MOL0     H81016  14.261   8.525   7.064  1.5741 -1.1959 -1.2690
  614MOL0     H81017  14.288   8.699   7.107 -1.8274 -2.0454  2.9105
  614MOL0     H81018  14.315   8.748   6.872 -0.6393  0.8723  2.2675
  614MOL0     H81019  14.243   8.597   6.820 -0.8536  2.2669 -0.3623
  614MOL0     H81020  14.500   8.575   6.980  1.7822 -1.7681 -0.8889
  614MOL0     H81021  14.422   8.467   6.866  0.7850 -1.0177 -0.5622
  614MOL0     H81022  14.525   8.740   6.795 -0.2351  1.1451 -0.2043
  614MOL0     H81023  14.489   8.614   6.680 -0.5937  4.0907 -0.2815
  614MOL0     H81024  14.693   8.479   6.757 -1.2249 -0.2700 -0.0409
  614MOL0     H81025  14.719   8.596   6.886 -1.7063  0.3233  0.2056
  614MOL0     H81026  14.748   8.671   6.591  0.8844 -2.8571 -1.0260
  614MOL0     H81027  14.759   8.773   6.737 -1.4684 -0.8340  3.4035
  614MOL0     H81028  14.999   8.687   6.668  1.3144 -0.9398  0.4139
  614MOL0     H81029  14.940   8.529   6.673 -2.3817 -0.1098  1.0566
  614MOL0     H81030  13.841   8.711   6.923 -0.9262 -2.6631  0.4012
  614MOL0     H81031  13.625   8.796   6.946 -3.2374  0.1095  2.0067
  614MOL0     H81032  13.178   8.908   6.977 -0.4679  0.6273 -0.1665
  614MOL0     H81033  12.967   9.006   7.058  0.2358  1.8041  0.8344
  614MOL0     H81034  11.284   9.403   7.550  0.4389  0.4295  3.1420
  614MOL0     H81035  11.048   9.477   7.526  0.0550 -1.4278 -0.3060
  614MOL0     H81036  10.763  10.028   7.398 -1.6523  0.5199 -1.6479
  614MOL0     H81037  10.518  10.041   7.366 -0.6424  0.4453  2.5580
  614MOL0     H81038  10.343  10.028   7.431  1.1843  1.4733 -2.7902
  614MOL0     H81039  10.206   9.937   7.473  2.0747  0.7342  1.9109
  614MOL0     H81040  10.276   9.947   7.182  1.2728  1.9168 -0.4916
  614MOL0     H81041  10.110   9.937   7.253  0.1290 -1.5183 -0.7304
  614MOL0     H81042  10.269  10.161   7.154 -2.2415  0.5997 -1.8639
  614MOL0     H81043  10.254  10.189   7.326 -0.1491  2.4415 -1.2981
  614MOL0     H81044   9.994  10.150   7.292 -2.6752  2.4749 -0.6557
  614MOL0     H81045  10.077  10.311   7.252  0.3513 -0.0265 -1.6470
  614MOL0     H81046   9.996  10.184   6.869  0.1920 -0.7250  0.7103
  614MOL0     H81047  10.477   9.627   7.400  1.4254 -0.4713  0.0485
  614MOL0     H81048  10.738   9.607   7.414  2.2783  1.0433 -1.8920
  615MOL0     O81049   5.038   4.507   2.324  1.0309 -0.4569 -1.1288
  615MOL0     C81050   5.076   4.430   2.237 -0.6040  0.8512  0.2024
  615MOL0     O81051   5.034   4.425   2.108 -0.3706 -0.0472  0.0049
  615MOL0     C81052   4.921   4.496   2.084  0.5108 -0.1267 -1.7618
  615MOL0     C81053   4.924   4.605   2.000 -1.0920  0.4019  0.3176
  615MOL0     C81054   4.810   4.661   1.960  0.2415 -0.0349  0.1667
  615MOL0     C81055   4.684   4.624   2.014 -0.0440 -0.0332 -0.5470
  615MOL0     O81056   4.562   4.673   1.979  0.3459  0.3350 -0.1477
  615MOL0     C81057   4.562   4.785   1.885 -0.5108 -0.2024 -0.5016
  615MOL0     C81058   4.417   4.845   1.880 -0.6439 -0.3913  0.6307
  615MOL0     C81059   4.353   4.824   1.739 -0.3006  0.2013 -0.8983
  615MOL0     C81060   4.222   4.900   1.727  1.1344  0.2579 -0.6653
  615MOL0     C81061   4.152   4.862   1.599  0.7807 -0.1023  0.1167
  615MOL0     C81062   4.079   4.726   1.609  0.6993  0.1052  0.0956
  615MOL0     C81063   3.984   4.728   1.494 -0.6617 -0.3578  0.2647
  615MOL0     C81064   3.910   4.600   1.500  0.2028 -0.6895  0.3006
  615MOL0     N81065   3.803   4.597   1.391 -0.3943  0.1202  0.1172
  615MOL0     C81066   3.822   4.613   1.253  0.5972 -0.6629  0.1922
  615MOL0     C81067   3.695   4.620   1.193  0.5396  0.6983 -0.9157
  615MOL0     C81068   3.652   4.658   1.054  0.2393  0.7240  0.0979
  615MOL0     C81069   3.732   4.589   0.949 -0.3656 -0.0410 -0.1589
  615MOL0     C81070   3.684   4.634   0.813 -0.8614 -0.1028 -0.7563
  615MOL0     C81071   3.757   4.557   0.703  0.3482  0.0870  0.1202
  615MOL0     O81072   3.728   4.646   0.590 -0.1765 -0.3931  0.7043
  615MOL0     C81073   3.594   4.663   0.555  0.1836 -0.3816 -0.0927
  615MOL0     C81074   3.494   4.561   0.563 -0.0180  0.4971  0.6283
  615MOL0     C81075   3.370   4.580   0.510  0.3221 -0.2714  0.3501
  615MOL0     C81076   3.332   4.704   0.447  0.5421  0.1645 -0.7060
  615MOL0     C81077   3.207   4.719   0.372 -0.0034 -0.8748 -0.1568
  615MOL0     O81078   3.118   4.620   0.394  0.2622  0.8823  0.3413
  615MOL0     C81079   2.988   4.630   0.348  0.1480  0.8492 -1.1170
  615MOL0     C81080   2.963   4.622   0.217 -0.6788 -0.4618  0.3471
  615MOL0     C81081   2.836   4.643   0.164  0.2566  0.3357 -0.2510
  615MOL0     C81082   2.727   4.673   0.250 -1.1643  0.0198  0.6050
  615MOL0     O81083   2.606   4.671   0.204  0.2906  0.2930  0.5799
  615MOL0     C81084   2.546   4.543   0.195 -0.5107 -0.2426 -0.6908
  615MOL0     C81085   2.424   4.528   0.287 -0.0294  0.0553 -0.2667
  615MOL0     C81086   2.380   4.385   0.319 -0.0862  0.1629 -0.2369
  615MOL0     C81087   2.343   4.298   0.199  0.4398  0.0416 -0.4261
  615MOL0     C81088   2.191   4.313   0.154 -0.3490  0.5850  0.2052
  615MOL0     C81089   2.081   4.315   0.265  0.8080  0.1175  0.3856
  615MOL0     C81090   2.089   4.190   0.361 -0.3022  0.6550  0.4605
  615MOL0     C81091   2.021   4.063   0.312  0.2086 -0.2623 -0.1566
  615MOL0    Cl81092   1.849   4.098   0.299  0.0409  0.4902 -0.2228
  615MOL0     C81093   2.761   4.685   0.388 -0.3481  0.0917  0.2612
  615MOL0     C81094   2.890   4.679   0.435  0.2834  0.1408 -1.3033
  615MOL0     O81095   3.180   4.829   0.321 -0.0010  0.3050  0.2666
  615MOL0     C81096   3.425   4.812   0.454 -0.5819  0.0379 -0.4255
  615MOL0     C81097   3.552   4.785   0.504  0.9642 -0.1336 -0.0612
  615MOL0     N81098   3.605   4.599   1.297  0.3308 -0.0736 -0.8474
  615MOL0     N81099   3.669   4.575   1.407 -0.3409 -0.4547 -0.3327
  615MOL0     C81100   4.683   4.526   2.115 -0.5722  0.6975  1.3142
  615MOL0     C81101   4.799   4.457   2.140  0.6726 -0.1654  0.3306
  615MOL0     C81102   5.171   4.326   2.284  0.6539 -0.6186  0.1676
  615MOL0     C81103   5.224   4.229   2.199 -0.7482 -0.5904  0.5802
  615MOL0     C81104   5.320   4.135   2.238  0.4201  0.1332 -0.6625
  615MOL0     C81105   5.376   4.149   2.359  0.3098  0.0386 -0.5176
  615MOL0     O81106   5.466   4.057   2.392 -0.4005 -0.0447 -0.2165
  615MOL0     C81107   5.586   4.102   2.464  0.9334  1.1591 -0.4493
  615MOL0     C81108   5.690   3.991   2.488  0.7071  0.2129 -0.3495
  615MOL0     C81109   5.720   3.907   2.375  0.4646 -0.2503  0.1318
  615MOL0     C81110   5.858   3.839   2.389  0.2230 -0.0021  0.5780
  615MOL0     C81111   5.975   3.929   2.357 -0.3588  1.0959  0.4782
  615MOL0     C81112   6.063   4.008   2.333  0.6176 -0.7700  0.6789
  615MOL0     C81113   5.321   4.239   2.456  0.9374  0.8097  0.1730
  615MOL0     C81114   5.212   4.324   2.421  0.3537  0.3967 -0.0953
  615MOL0     H81115   5.021   4.639   1.964 -1.3218  1.2601  0.4837
  615MOL0     H81116   4.824   4.732   1.880  3.5302 -0.1392  0.5274
  615MOL0     H81117   4.603   4.757   1.788  1.4757  0.0739  0.2024
  615MOL0     H81118   4.640   4.859   1.907 -0.7817  0.8182 -2.7579
  615MOL0     H81119   4.421   4.952   1.903  1.0345 -0.3465  0.3082
  615MOL0     H81120   4.351   4.800   1.954 -1.5167  0.3324  0.3024
  615MOL0     H81121   4.334   4.716   1.740  1.6834 -0.2245  1.6060
  615MOL0     H81122   4.428   4.854   1.666 -0.4975  1.1477 -0.7296
  615MOL0     H81123   4.157   4.871   1.811  1.9376 -2.0367 -0.7586
  615MOL0     H81124   4.249   5.005   1.740 -1.7590  0.7954  2.8211
  615MOL0     H81125   4.223   4.850   1.517  1.7591 -0.7106  1.0292
  615MOL0     H81126   4.082   4.941   1.568  2.7056  1.5981 -0.1394
  615MOL0     H81127   4.035   4.727   1.710  1.3714  1.8551  0.4000
  615MOL0     H81128   4.149   4.644   1.592 -1.6372 -2.0754  0.3095
  615MOL0     H81129   3.914   4.811   1.504  0.6078  0.7668  0.1803
  615MOL0     H81130   4.026   4.732   1.393 -1.8378 -0.2074 -0.2387
  615MOL0     H81131   3.869   4.583   1.600 -0.6848  2.4187  0.5601
  615MOL0     H81132   3.983   4.521   1.480 -0.3285 -1.4356  1.2036
  615MOL0     H81133   3.915   4.635   1.200 -0.7547 -1.1594 -2.5952
  615MOL0     H81134   3.648   4.767   1.045  0.3483  0.7709  0.6346
  615MOL0     H81135   3.550   4.623   1.036  0.1688  0.8255  0.2968
  615MOL0     H81136   3.711   4.483   0.962 -1.4795  0.2989  1.0725
  615MOL0     H81137   3.835   4.622   0.963 -0.1183 -0.9096  0.0966
  615MOL0     H81138   3.576   4.618   0.814 -1.0441  0.9330  1.2606
  615MOL0     H81139   3.709   4.739   0.797  0.6454 -0.6887 -2.6207
  615MOL0     H81140   3.716   4.456   0.701  0.2347  0.0940  1.2563
  615MOL0     H81141   3.865   4.547   0.719  0.5811  4.1212  2.5638
  615MOL0     H81142   3.513   4.463   0.607  0.0931 -1.2416 -2.9982
  615MOL0     H81143   3.298   4.499   0.508 -1.9718  1.6504 -2.0054
  615MOL0     H81144   3.051   4.596   0.158 -0.5867  1.3422 -0.3665
  615MOL0     H81145   2.816   4.625   0.059  0.3302 -0.2006 -0.1746
  615MOL0     H81146   2.616   4.463   0.222  3.2541  3.8935  3.6080
  615MOL0     H81147   2.514   4.529   0.091  1.5844 -1.3603 -1.2454
  615MOL0     H81148   2.345   4.587   0.241  0.3078 -1.0589 -2.3885
  615MOL0     H81149   2.449   4.575   0.383 -0.0857 -0.5202  0.0402
  615MOL0     H81150   2.296   4.392   0.388 -1.2990 -0.7666 -1.5422
  615MOL0     H81151   2.453   4.335   0.383  0.1745  1.0375  0.1653
  615MOL0     H81152   2.420   4.307   0.122 -1.2210 -3.3372 -2.7317
  615MOL0     H81153   2.353   4.195   0.236 -1.3445  0.2712  0.8200
  615MOL0     H81154   2.172   4.229   0.087 -0.0594 -0.8118  1.7999
  615MOL0     H81155   2.175   4.398   0.087  0.4498 -0.3850 -1.2718
  615MOL0     H81156   1.979   4.314   0.225  1.7429 -0.2965 -2.1859
  615MOL0     H81157   2.091   4.404   0.327 -1.6016  1.2525 -0.7215
  615MOL0     H81158   2.192   4.163   0.385 -0.0017  1.3343 -0.0450
  615MOL0     H81159   2.042   4.209   0.457 -0.9125  0.7022  0.1554
  615MOL0     H81160   2.033   3.984   0.387  0.3888 -0.1568 -0.0732
  615MOL0     H81161   2.063   4.024   0.219  2.6668 -0.0614  0.7935
  615MOL0     H81162   2.672   4.692   0.450 -0.8567  0.2571 -0.4654
  615MOL0     H81163   2.919   4.686   0.539  0.2051 -0.0688 -1.2681
  615MOL0     H81164   3.415   4.910   0.410  2.6068  1.2066  1.2001
  615MOL0     H81165   3.630   4.859   0.490  1.5991 -1.1009 -2.0695
  615MOL0     H81166   4.590   4.494   2.160 -0.5980  0.3090  0.9955
  615MOL0     H81167   4.793   4.373   2.209  4.0798  0.5614  1.7229
  615MOL0     H81168   5.197   4.230   2.094  1.0448 -3.2223 -0.0170
  615MOL0     H81169   5.353   4.057   2.169 -0.4567 -2.5989  1.7641
  615MOL0     H81170   5.565   4.142   2.564 -0.8925  1.1676 -0.7919
  615MOL0     H81171   5.631   4.176   2.397  0.2882  1.4304 -0.5917
  615MOL0     H81172   5.779   4.039   2.530  1.7813 -0.8902 -1.2981
  615MOL0     H81173   5.658   3.924   2.568 -1.7692 -1.3578 -2.4861
  615MOL0     H81174   5.712   3.970   2.285  2.6477  0.2414  0.2190
  615MOL0     H81175   5.642   3.831   2.362 -1.2111  1.1408  1.6744
  615MOL0     H81176   5.874   3.808   2.492 -0.7807  0.1024  0.7692
  615MOL0     H81177   5.863   3.757   2.317  0.9756 -1.4820  2.2528
  615MOL0     H81178   6.129   4.089   2.311  0.8779 -0.4007  2.6036
  615MOL0     H81179   5.357   4.251   2.558  1.8111  1.4836 -0.2000
  615MOL0     H81180   5.154   4.387   2.488 -2.8608  2.0021 -4.0187
  616MOL0     O81181   2.687   9.492   3.160 -0.1398 -0.5219 -0.5867
  616MOL0     C81182   2.601   9.570   3.116  0.0973 -0.6434  0.6843
  616MOL0     O81183   2.596   9.713   3.138 -0.3359  0.3755 -0.1260
  616MOL0     C81184   2.672   9.754   3.236  0.5542  0.4842  0.5176
  616MOL0     C81185   2.816   9.753   3.232 -0.2371  0.3169  0.1654
  616MOL0     C81186   2.887   9.794   3.351  0.1327 -0.2112  0.3821
  616MOL0     C81187   2.819   9.836   3.466 -0.1853 -1.0784 -0.1184
  616MOL0     O81188   2.895   9.896   3.568 -0.7021 -0.0934  0.5644
  616MOL0     C81189   2.852   9.853   3.700 -0.8047 -0.0209  0.1739
  616MOL0     C81190   2.945   9.895   3.814  0.1385  0.2654  0.1023
  616MOL0     C81191   3.100   9.847   3.799  0.0104  0.4222  1.2005
  616MOL0     C81192   3.214   9.953   3.807  0.5662 -1.3539 -0.6417
  616MOL0     C81193   3.345   9.889   3.746 -0.4515  0.9085  0.5838
  616MOL0     C81194   3.451   9.995   3.739 -0.9393  0.2709  0.2167
  616MOL0     C81195   3.591   9.940   3.710 -1.1558  0.5266  0.3037
  616MOL0     C81196   3.694  10.045   3.685 -0.1403 -0.5941  0.6941
  616MOL0     N81197   3.681  10.107   3.553 -0.7190  0.3189  0.0277
  616MOL0     C81198   3.754  10.062   3.440  0.8643 -0.0085 -0.0336
  616MOL0     C81199   3.760  10.166   3.349 -1.0815 -0.2960 -0.5312
  616MOL0     C81200   3.780  10.141   3.205  0.1107 -0.2456  0.1108
  616MOL0     C81201   3.805  10.253   3.111  0.3448 -0.8269 -0.1610
  616MOL0     C81202   3.826  10.192   2.973 -0.4275  0.2815 -0.9593
  616MOL0     C81203   3.704  10.141   2.910  0.6028  0.8462 -0.0532
  616MOL0     O81204   3.585  10.218   2.943 -0.3601 -0.2043  0.4512
  616MOL0     C81205   3.484  10.229   2.850  0.1360  0.0238 -0.0835
  616MOL0     C81206   3.457  10.160   2.729  0.1687 -0.7259 -0.7618
  616MOL0     C81207   3.344  10.187   2.647 -0.3972  0.2693 -0.2119
  616MOL0     C81208   3.244  10.276   2.696  0.7228 -0.4980  0.1429
  616MOL0     C81209   3.112  10.296   2.630 -1.1978  0.6279  0.0377
  616MOL0     O81210   3.020  10.336   2.710  0.0791 -0.0781 -0.0234
  616MOL0     C81211   2.891  10.348   2.663 -0.0135  0.4545 -0.0249
  616MOL0     C81212   2.854  10.375   2.527  0.1910 -0.2595 -0.0928
  616MOL0     C81213   2.721  10.406   2.499 -0.4673  0.1568 -0.3444
  616MOL0     C81214   2.618  10.377   2.584  0.2544 -1.2409  0.4430
  616MOL0     O81215   2.480  10.375   2.547 -0.2226  0.0701 -1.3014
  616MOL0     C81216   2.445  10.458   2.442 -0.0107 -0.0387 -0.4439
  616MOL0     C81217   2.415  10.376   2.315  0.0207  0.5863 -0.0076
  616MOL0     C81218   2.296  10.274   2.324 -0.7601  0.3170 -0.8269
  616MOL0     C81219   2.155  10.333   2.317  0.1760  1.4696 -0.6503
  616MOL0     C81220   2.046  10.228   2.316  0.4068  0.0090 -0.3825
  616MOL0     C81221   1.908  10.289   2.292  0.3591 -0.1484  0.3771
  616MOL0     C81222   1.803  10.183   2.305  0.2354  0.2896 -0.0354
  616MOL0     C81223   1.661  10.243   2.315  0.5682  0.4077 -0.0005
  616MOL0    Cl81224   1.542  10.125   2.343 -0.1594  0.2387 -0.0149
  616MOL0     C81225   2.652  10.334   2.717 -0.3104 -0.6505  0.2481
  616MOL0     C81226   2.784  10.330   2.758 -0.5308 -0.3734  0.4168
  616MOL0     O81227   3.094  10.251   2.519 -0.7450  0.4469  0.6545
  616MOL0     C81228   3.273  10.337   2.817 -0.1217 -0.7870  0.4199
  616MOL0     C81229   3.393  10.319   2.885  1.0992 -0.4963 -0.7975
  616MOL0     N81230   3.713  10.282   3.413  1.1413 -0.1018 -1.0847
  616MOL0     N81231   3.674  10.240   3.528 -1.4600 -0.2534  0.0207
  616MOL0     C81232   2.677   9.832   3.466  0.5581  0.5796  0.0722
  616MOL0     C81233   2.609   9.792   3.350  0.0293  1.0833 -0.0945
  616MOL0     C81234   2.488   9.518   3.031 -0.2116  0.5036 -0.5882
  616MOL0     C81235   2.504   9.441   2.911 -0.9139  0.3240 -0.4521
  616MOL0     C81236   2.384   9.404   2.852 -0.9189 -0.8390 -0.3814
  616MOL0     C81237   2.264   9.418   2.900  0.2364  0.8580  0.0015
  616MOL0     O81238   2.160   9.370   2.830 -0.1549  0.1943  0.5383
  616MOL0     C81239   2.025   9.383   2.875 -0.9582 -0.0336  0.7179
  616MOL0     C81240   1.920   9.346   2.759 -0.0276  0.0187  0.0590
  616MOL0     C81241   1.782   9.365   2.826 -0.1968  0.4786  0.6584
  616MOL0     C81242   1.674   9.331   2.722  0.4060  0.2707 -0.5968
  616MOL0     C81243   1.545   9.377   2.778  0.4616  0.2122 -0.7586
  616MOL0     C81244   1.439   9.423   2.821  1.1361 -0.6524 -0.4394
  616MOL0     C81245   2.244   9.503   3.009 -0.5152  1.2621 -0.2537
  616MOL0     C81246   2.358   9.557   3.067 -0.1105  0.3814 -0.2231
  616MOL0     H81247   2.869   9.717   3.145 -0.7134 -1.0619  0.4186
  616MOL0     H81248   2.995   9.805   3.340 -0.1131  2.5301 -0.1427
  616MOL0     H81249   2.851   9.744   3.694  4.3301 -0.2964 -1.3775
  616MOL0     H81250   2.754   9.895   3.720 -0.1446  0.6134  2.3487
  616MOL0     H81251   2.901   9.875   3.912 -2.1403 -0.6859 -1.0507
  616MOL0     H81252   2.959  10.002   3.795  4.2909 -0.2012 -0.4826
  616MOL0     H81253   3.105   9.802   3.699 -1.5387  2.7626 -0.0114
  616MOL0     H81254   3.116   9.757   3.860 -0.4607 -0.1579  0.4885
  616MOL0     H81255   3.187  10.042   3.750  0.6293 -0.7663  0.2410
  616MOL0     H81256   3.211   9.986   3.911 -4.6693  4.5270 -2.0321
  616MOL0     H81257   3.318   9.847   3.649  0.9672 -2.9574  1.6846
  616MOL0     H81258   3.382   9.804   3.803  0.2415  2.4341  2.5376
  616MOL0     H81259   3.454  10.048   3.835 -2.3882 -0.9826  1.0059
  616MOL0     H81260   3.439  10.075   3.666  1.7190 -0.0419 -0.6700
  616MOL0     H81261   3.627   9.888   3.800  0.1605 -0.9661 -1.0298
  616MOL0     H81262   3.593   9.873   3.624  1.8335  0.6736  0.1651
  616MOL0     H81263   3.796  10.005   3.693 -0.2604 -2.5754 -3.8953
  616MOL0     H81264   3.685  10.129   3.754  1.6065 -0.6659  1.0526
  616MOL0     H81265   3.781   9.960   3.415 -0.3597 -0.4653  0.4147
  616MOL0     H81266   3.689  10.088   3.174 -1.3602  0.6893  2.4937
  616MOL0     H81267   3.865  10.073   3.200  1.0265  0.8811 -0.3985
  616MOL0     H81268   3.891  10.306   3.152  0.2577 -2.0408  1.7540
  616MOL0     H81269   3.728  10.328   3.129  0.5729 -0.3203 -1.2201
  616MOL0     H81270   3.861  10.273   2.908  0.0037  1.0694  0.2129
  616MOL0     H81271   3.905  10.117   2.973 -0.1380  0.5395  0.9182
  616MOL0     H81272   3.688  10.044   2.960 -0.5317  0.5139 -1.0238
  616MOL0     H81273   3.714  10.133   2.802  2.5788 -0.8349  0.1860
  616MOL0     H81274   3.524  10.079   2.705 -0.4603 -1.2550 -0.7542
  616MOL0     H81275   3.321  10.129   2.558 -3.6061  2.3613 -0.9240
  616MOL0     H81276   2.919  10.391   2.441 -0.4595 -1.1718 -0.7758
  616MOL0     H81277   2.696  10.439   2.399  0.5399  0.8218 -0.3964
  616MOL0     H81278   2.526  10.528   2.418  0.2456  0.1890  1.0163
  616MOL0     H81279   2.350  10.508   2.463 -1.6819 -2.5260 -1.6005
  616MOL0     H81280   2.510  10.324   2.301 -0.1531  0.5751 -1.2182
  616MOL0     H81281   2.407  10.445   2.231  1.5222 -0.6888 -1.2699
  616MOL0     H81282   2.306  10.224   2.420 -0.4733  1.4571 -0.2375
  616MOL0     H81283   2.304  10.203   2.241  0.1794 -1.5428  0.8017
  616MOL0     H81284   2.140  10.405   2.398 -1.5442  2.8375 -2.0918
  616MOL0     H81285   2.156  10.385   2.221  2.6227 -1.5150 -2.4257
  616MOL0     H81286   2.039  10.182   2.415 -1.6805  0.4744 -0.2776
  616MOL0     H81287   2.074  10.154   2.240  2.2589  1.7246 -1.4623
  616MOL0     H81288   1.901  10.343   2.197 -0.8288 -1.6117 -0.4078
  616MOL0     H81289   1.889  10.372   2.361 -1.8264  0.4412 -0.8390
  616MOL0     H81290   1.812  10.115   2.219  3.2039 -1.6767  1.6376
  616MOL0     H81291   1.815  10.124   2.396  2.2438  1.1812  0.3323
  616MOL0     H81292   1.643  10.301   2.224  3.4004  0.7905 -0.4192
  616MOL0     H81293   1.649  10.309   2.401 -0.9929  2.1705 -1.4774
  616MOL0     H81294   2.571  10.306   2.783  1.0842 -3.3533  0.9625
  616MOL0     H81295   2.801  10.309   2.863 -3.7111 -0.8921  0.9440
  616MOL0     H81296   3.194  10.397   2.862  2.0978  1.1027  2.0059
  616MOL0     H81297   3.407  10.375   2.977 -0.2892 -2.0035  0.3942
  616MOL0     H81298   2.619   9.870   3.549  1.3550 -0.0433  0.9268
  616MOL0     H81299   2.500   9.796   3.355  0.0513  0.9524  4.5303
  616MOL0     H81300   2.597   9.429   2.857 -1.4405 -1.4491 -1.0525
  616MOL0     H81301   2.390   9.367   2.750 -1.2318 -3.9850  0.6166
  616MOL0     H81302   2.017   9.492   2.884 -2.4328 -0.1180  0.7677
  616MOL0     H81303   2.011   9.314   2.958 -2.1918 -0.3903  0.2319
  616MOL0     H81304   1.929   9.418   2.677  1.5191 -0.9864 -0.6869
  616MOL0     H81305   1.938   9.248   2.713  2.8711  0.5764 -0.1941
  616MOL0     H81306   1.773   9.470   2.854  1.8037  1.6340 -2.5365
  616MOL0     H81307   1.765   9.301   2.913 -0.2084  0.4854  0.6608
  616MOL0     H81308   1.686   9.379   2.625  0.6473  1.8650  0.1759
  616MOL0     H81309   1.677   9.222   2.711  2.7385  0.3129 -0.8244
  616MOL0     H81310   1.355   9.476   2.861  1.7625 -0.8130  1.1348
  616MOL0     H81311   2.149   9.538   3.049 -1.1479  0.3270 -0.9092
  616MOL0     H81312   2.342   9.613   3.158 -0.3800 -2.4786  1.6035
  617MOL0     O81313   9.582   6.378   2.215  0.2098 -0.0806  0.0031
  617MOL0     C81314   9.559   6.366   2.332 -0.6951 -0.2905  0.5137
  617MOL0     O81315   9.432   6.369   2.387  0.5625 -0.5416 -0.0175
  617MOL0     C81316   9.321   6.353   2.302 -0.1185  0.0946 -0.3266
  617MOL0     C81317   9.312   6.269   2.179  0.4729 -0.6154 -0.5336
  617MOL0     C81318   9.195   6.252   2.115 -0.3231  0.0364  0.9155
  617MOL0     C81319   9.078   6.305   2.159 -0.9231 -0.7668 -0.4107
  617MOL0     O81320   8.971   6.268   2.083 -0.0942  0.6156 -0.3670
  617MOL0     C81321   8.842   6.333   2.104  0.1356  1.3702  0.2560
  617MOL0     C81322   8.767   6.268   2.216  0.0159  0.2664 -1.1123
  617MOL0     C81323   8.739   6.119   2.205  0.1788  0.9400 -0.6308
  617MOL0     C81324   8.675   6.087   2.069 -1.2499  0.4667 -0.2033
  617MOL0     C81325   8.636   5.943   2.035  1.0716  0.1187 -0.6821
  617MOL0     C81326   8.761   5.850   2.042  0.4966 -0.8454 -0.3708
  617MOL0     C81327   8.715   5.710   1.989  0.3243 -0.7107 -0.5852
  617MOL0     C81328   8.600   5.642   2.063  0.2884  0.3001 -0.9270
  617MOL0     N81329   8.626   5.625   2.208  0.3579  0.4371  0.1468
  617MOL0     C81330   8.740   5.582   2.266  0.8852  0.7231  0.1759
  617MOL0     C81331   8.707   5.573   2.401  0.4138  0.0007  0.8292
  617MOL0     C81332   8.785   5.528   2.515  0.4655  1.3387  0.5740
  617MOL0     C81333   8.909   5.612   2.550 -1.0011  0.2840 -0.5864
  617MOL0     C81334   8.997   5.635   2.424 -0.1921 -0.5007  0.9166
  617MOL0     C81335   9.139   5.681   2.469  0.4986  0.1017 -0.1122
  617MOL0     O81336   9.216   5.571   2.529 -0.3852 -0.3340  0.6893
  617MOL0     C81337   9.351   5.600   2.531 -0.3976  0.8575 -0.2756
  617MOL0     C81338   9.402   5.637   2.654  0.5078 -0.8417 -0.3633
  617MOL0     C81339   9.537   5.665   2.675 -0.7292 -0.5013  0.2014
  617MOL0     C81340   9.627   5.643   2.560  0.2127  0.7173  1.1751
  617MOL0     C81341   9.771   5.671   2.579  0.2548 -0.2215  0.7268
  617MOL0     O81342   9.821   5.678   2.705 -0.3872 -0.1174 -0.2289
  617MOL0     C81343   9.942   5.723   2.731 -1.2582  0.8671 -0.3568
  617MOL0     C81344  10.010   5.692   2.848  0.1289 -0.8414 -0.0140
  617MOL0     C81345  10.142   5.756   2.879 -0.2312 -0.3742  0.0461
  617MOL0     C81346  10.203   5.845   2.795 -0.4252  1.0050  0.5420
  617MOL0     O81347  10.334   5.880   2.818  0.2122  0.2677 -0.9442
  617MOL0     C81348  10.389   5.983   2.735  0.3830  0.4767 -0.1272
  617MOL0     C81349  10.517   6.040   2.798 -0.9346  0.2952 -0.3058
  617MOL0     C81350  10.586   6.140   2.717 -0.7140 -0.1257  0.3682
  617MOL0     C81351  10.733   6.175   2.753  0.7276 -0.6651 -0.1891
  617MOL0     C81352  10.736   6.289   2.857  0.8421  0.3466  0.2970
  617MOL0     C81353  10.872   6.316   2.921 -0.8128 -0.2892  0.0581
  617MOL0     C81354  10.981   6.289   2.818 -0.0120  1.1898  0.0524
  617MOL0     C81355  11.114   6.305   2.872 -0.3513  1.6134  0.3098
  617MOL0    Cl81356  11.132   6.473   2.916 -0.4776 -0.4065  0.0471
  617MOL0     C81357  10.132   5.880   2.681 -0.1266  0.0062 -0.0261
  617MOL0     C81358  10.001   5.824   2.654 -0.6011 -0.2570  0.4378
  617MOL0     O81359   9.842   5.666   2.483  0.2624  0.3619  0.4088
  617MOL0     C81360   9.576   5.593   2.437 -0.5321  0.2546  0.4530
  617MOL0     C81361   9.444   5.563   2.432  0.9596 -0.1661 -0.1465
  617MOL0     N81362   8.573   5.605   2.417  0.0293 -0.1478 -0.1077
  617MOL0     N81363   8.531   5.633   2.300 -0.1531  0.3447 -0.4885
  617MOL0     C81364   9.080   6.391   2.272 -0.2687  0.1484  0.3425
  617MOL0     C81365   9.200   6.408   2.346  0.4546  0.1878  0.0233
  617MOL0     C81366   9.684   6.340   2.419  0.4767 -0.1629 -0.1413
  617MOL0     C81367   9.811   6.359   2.371 -0.2884 -0.9773  0.0406
  617MOL0     C81368   9.916   6.345   2.459  0.6097 -0.5969 -0.0491
  617MOL0     C81369   9.902   6.295   2.591 -0.3492  0.0084 -0.1985
  617MOL0     O81370   9.997   6.250   2.681 -0.8050 -1.3341  0.1623
  617MOL0     C81371  10.108   6.336   2.693 -0.5572  0.2450  0.8335
  617MOL0     C81372  10.152   6.304   2.828  0.7430 -0.2471 -0.6316
  617MOL0     C81373  10.271   6.394   2.855 -0.9399 -0.5246 -0.1676
  617MOL0     C81374  10.333   6.383   2.996 -0.0138  0.8505 -0.4140
  617MOL0     C81375  10.403   6.508   3.022 -0.0964  0.0525  0.6093
  617MOL0     C81376  10.460   6.617   3.026  0.2735  0.0569  0.1562
  617MOL0     C81377   9.773   6.274   2.638 -0.5334 -0.4941 -0.3014
  617MOL0     C81378   9.660   6.300   2.555 -0.6009 -0.0222  0.1032
  617MOL0     H81379   9.403   6.221   2.144  2.0997 -0.3486  2.9406
  617MOL0     H81380   9.203   6.190   2.026  0.1596  0.2528  0.8022
  617MOL0     H81381   8.785   6.316   2.012 -0.0755 -0.5367  0.6974
  617MOL0     H81382   8.862   6.440   2.118  3.1645  1.0703 -1.0515
  617MOL0     H81383   8.665   6.306   2.201 -0.0349 -0.5768 -3.2597
  617MOL0     H81384   8.814   6.285   2.313  2.9617 -1.5606 -2.0835
  617MOL0     H81385   8.678   6.095   2.293  2.2196  1.9673  1.1532
  617MOL0     H81386   8.830   6.062   2.220 -0.7610 -0.1156  1.4877
  617MOL0     H81387   8.583   6.145   2.059 -1.4607 -0.0259 -1.1634
  617MOL0     H81388   8.754   6.102   1.994 -0.6336 -2.9256 -0.3563
  617MOL0     H81389   8.584   5.950   1.939 -0.1407  2.9539  0.0662
  617MOL0     H81390   8.558   5.902   2.100  0.1384 -1.2952 -2.5968
  617MOL0     H81391   8.793   5.852   2.147 -3.1645 -0.8514  0.8876
  617MOL0     H81392   8.842   5.895   1.984 -0.1269  0.7025 -0.0675
  617MOL0     H81393   8.693   5.701   1.882  1.0155 -0.8278 -0.7261
  617MOL0     H81394   8.800   5.642   1.991  0.7175 -0.2110  0.2253
  617MOL0     H81395   8.597   5.542   2.019  2.7139 -0.8500  1.2694
  617MOL0     H81396   8.508   5.701   2.061  0.5550  0.7145 -0.9159
  617MOL0     H81397   8.831   5.556   2.213  0.0382 -3.9097  0.6218
  617MOL0     H81398   8.823   5.430   2.486 -1.0064  0.2233  2.2439
  617MOL0     H81399   8.726   5.518   2.606  2.2999  3.5814  2.1557
  617MOL0     H81400   8.965   5.552   2.622 -1.9694 -0.1635 -0.1752
  617MOL0     H81401   8.879   5.701   2.606  0.9885  0.2085  0.6687
  617MOL0     H81402   9.004   5.543   2.365  0.2294  0.7178 -1.0372
  617MOL0     H81403   8.958   5.726   2.378  1.6598 -0.4188 -0.6455
  617MOL0     H81404   9.119   5.766   2.535 -3.6342  1.4122 -2.6101
  617MOL0     H81405   9.193   5.723   2.384 -0.1525  0.0598 -0.5526
  617MOL0     H81406   9.335   5.641   2.739 -0.2819 -3.0366 -0.8025
  617MOL0     H81407   9.573   5.702   2.771  0.3072 -0.9840  0.0008
  617MOL0     H81408   9.963   5.612   2.904  0.4873 -0.9739  0.1001
  617MOL0     H81409  10.193   5.711   2.963 -1.5356 -1.4125  0.3231
  617MOL0     H81410  10.318   6.065   2.723 -2.2230 -1.5550  0.5967
  617MOL0     H81411  10.406   5.946   2.633 -2.1361  0.7708 -0.7238
  617MOL0     H81412  10.578   5.951   2.813 -0.2441  0.5033 -1.6905
  617MOL0     H81413  10.495   6.090   2.893 -0.4593  0.5585 -0.3326
  617MOL0     H81414  10.532   6.234   2.712  0.1324  0.3235 -3.7000
  617MOL0     H81415  10.586   6.102   2.615  0.1427  2.0509 -0.5023
  617MOL0     H81416  10.787   6.088   2.792 -1.0296 -0.5286  2.8017
  617MOL0     H81417  10.782   6.213   2.663  0.7571 -0.0704  0.0740
  617MOL0     H81418  10.660   6.271   2.934 -2.9153  2.4760 -2.5420
  617MOL0     H81419  10.701   6.378   2.804 -0.3218 -1.5251 -2.2778
  617MOL0     H81420  10.883   6.250   3.008 -1.4669 -0.6382 -0.1212
  617MOL0     H81421  10.872   6.417   2.963  3.3553 -0.5195  1.1101
  617MOL0     H81422  10.978   6.184   2.788  1.3697  0.5381  1.9744
  617MOL0     H81423  10.964   6.353   2.731  1.4961  3.3010  1.2111
  617MOL0     H81424  11.182   6.282   2.789  0.6472 -0.7539  1.6884
  617MOL0     H81425  11.135   6.242   2.958 -1.1023  1.2540  0.2349
  617MOL0     H81426  10.170   5.935   2.596 -5.3632  2.4583 -1.1569
  617MOL0     H81427   9.958   5.874   2.567 -1.4062 -0.9024  0.4593
  617MOL0     H81428   9.630   5.582   2.344  2.1283 -0.2663  1.9565
  617MOL0     H81429   9.420   5.507   2.342 -1.4531  0.0612  0.2905
  617MOL0     H81430   8.989   6.436   2.311  0.2681  2.1744 -0.5895
  617MOL0     H81431   9.179   6.459   2.440 -1.4301 -0.6483  0.1092
  617MOL0     H81432   9.826   6.370   2.264 -2.6815  1.1654 -0.1844
  617MOL0     H81433  10.015   6.360   2.418  1.3732  0.8113  2.0892
  617MOL0     H81434  10.080   6.441   2.680  2.6634  0.8119 -3.4116
  617MOL0     H81435  10.194   6.327   2.627 -0.1224 -1.8583  1.5916
  617MOL0     H81436  10.076   6.340   2.899  1.9559  2.6966 -0.6956
  617MOL0     H81437  10.172   6.197   2.840  0.3651 -0.5524 -2.4749
  617MOL0     H81438  10.215   6.487   2.839 -0.0880  0.2048  0.8884
  617MOL0     H81439  10.352   6.383   2.783 -2.5190 -1.7470 -1.8568
  617MOL0     H81440  10.257   6.371   3.073  0.9854  0.1931  0.5123
  617MOL0     H81441  10.399   6.297   3.014  1.5534  1.7655 -1.4616
  617MOL0     H81442  10.518   6.707   3.026  3.3459 -1.7834  1.5139
  617MOL0     H81443   9.762   6.233   2.738  1.3841 -2.5396 -0.8542
  617MOL0     H81444   9.560   6.288   2.594 -0.5907 -0.0886  0.1078
  618MOL0     O81445   2.773   2.365   6.894 -0.3513 -0.2440  0.0334
  618MOL0     C81446   2.782   2.320   6.778 -0.5971  0.3157  0.2859
  618MOL0     O81447   2.724   2.198   6.735 -0.0666  0.1669 -0.4655
  618MOL0     C81448   2.672   2.114   6.830 -0.6018  0.5725 -0.5795
  618MOL0     C81449   2.543   2.071   6.815  0.3706  0.0690 -0.5049
  618MOL0     C81450   2.500   1.979   6.916 -0.3177  1.0006  1.3183
  618MOL0     C81451   2.583   1.921   7.009 -0.5077  0.4095  0.3454
  618MOL0     O81452   2.547   1.819   7.090 -0.1521 -0.3901  0.1035
  618MOL0     C81453   2.430   1.746   7.069 -0.0430  0.7769 -0.1636
  618MOL0     C81454   2.434   1.646   7.183 -0.7665 -0.5578  0.1515
  618MOL0     C81455   2.290   1.605   7.233  0.2896 -0.3050  0.3849
  618MOL0     C81456   2.187   1.574   7.118 -0.4913 -0.2815 -0.3530
  618MOL0     C81457   2.053   1.524   7.175 -0.6900  0.1812  0.8951
  618MOL0     C81458   2.063   1.389   7.243  0.2877 -0.8817  1.0829
  618MOL0     C81459   1.936   1.344   7.300 -1.3797 -0.3731  0.4266
  618MOL0     C81460   1.826   1.323   7.201  0.2857  0.0437  0.6073
  618MOL0     N81461   1.692   1.308   7.256  0.4639 -0.1298 -0.0487
  618MOL0     C81462   1.649   1.235   7.366 -0.0757  0.3422 -0.2937
  618MOL0     C81463   1.515   1.257   7.368 -0.0146 -0.3391 -0.0856
  618MOL0     C81464   1.416   1.175   7.438  0.9745  1.5973  0.4047
  618MOL0     C81465   1.303   1.130   7.335 -0.4462 -0.1770 -0.0141
  618MOL0     C81466   1.196   1.045   7.403  0.6982  0.0267  0.0660
  618MOL0     C81467   1.147   0.921   7.308 -0.2597 -0.7876 -0.4119
  618MOL0     O81468   1.131   0.814   7.400 -0.1474  0.3015 -0.0277
  618MOL0     C81469   1.067   0.700   7.352 -0.1916  0.0774  0.1636
  618MOL0     C81470   1.027   0.680   7.210  0.1268 -0.4032 -0.4906
  618MOL0     C81471   0.968   0.565   7.174 -0.7954 -0.9520  0.6824
  618MOL0     C81472   0.958   0.460   7.265  0.6443 -0.9245 -0.2522
  618MOL0     C81473   0.916   0.324   7.225 -0.6396 -0.3782  0.4716
  618MOL0     O81474   0.851   0.260   7.324 -0.1455  0.7810 -0.0366
  618MOL0     C81475   0.801   0.131   7.316 -0.9046  0.1635  0.3566
  618MOL0     C81476   0.689   0.113   7.388 -0.2719 -0.0907 -0.8645
  618MOL0     C81477   0.627  -0.013   7.402  0.7774  0.1688  0.0681
  618MOL0     C81478   0.691  -0.123   7.334  0.1498 -0.1868  0.2055
  618MOL0     O81479   0.653  -0.253   7.353 -0.9809  0.7209  0.2848
  618MOL0     C81480   0.517  -0.287   7.357 -0.1381 -0.8249 -0.4221
  618MOL0     C81481   0.504  -0.415   7.279  0.8129  0.6375 -0.4053
  618MOL0     C81482   0.357  -0.464   7.284 -0.0983 -0.2804 -0.1010
  618MOL0     C81483   0.309  -0.535   7.157  0.8165  0.3750  0.4855
  618MOL0     C81484   0.168  -0.492   7.134  0.0495  0.4929 -0.1217
  618MOL0     C81485   0.119  -0.567   7.011 -0.0359 -1.8872  0.5925
  618MOL0     C81486  -0.031  -0.530   6.996 -0.8514  1.1242 -0.2479
  618MOL0     C81487  -0.084  -0.595   6.867 -1.0452 -0.1850  0.1468
  618MOL0    Cl81488  -0.254  -0.556   6.829 -0.3295 -0.7747 -0.2002
  618MOL0     C81489   0.809  -0.098   7.257  0.8994 -0.1942 -0.0216
  618MOL0     C81490   0.861   0.030   7.241  0.4711 -0.4656 -0.1041
  618MOL0     O81491   0.939   0.279   7.116  0.7653 -0.3793  0.3070
  618MOL0     C81492   0.991   0.478   7.403 -0.3404  0.1450  0.6579
  618MOL0     C81493   1.050   0.598   7.444  0.3627  0.0916 -0.9108
  618MOL0     N81494   1.475   1.359   7.275  0.0569  0.3168 -0.2477
  618MOL0     N81495   1.585   1.389   7.208 -0.6774 -0.2260  0.0783
  618MOL0     C81496   2.715   1.965   7.018 -0.1400 -0.5934 -0.2693
  618MOL0     C81497   2.765   2.060   6.926  0.0709 -0.4975 -0.3454
  618MOL0     C81498   2.868   2.398   6.686 -0.1023  0.1285  0.0282
  618MOL0     C81499   2.938   2.516   6.737 -0.3138 -0.0968 -0.2678
  618MOL0     C81500   3.026   2.590   6.656 -0.3066 -0.4951  0.5307
  618MOL0     C81501   3.044   2.542   6.524 -0.2862  0.0268  0.1086
  618MOL0     O81502   3.145   2.591   6.442  0.2990 -0.3313  0.6982
  618MOL0     C81503   3.199   2.724   6.453  0.3024  0.3494  0.3183
  618MOL0     C81504   3.320   2.743   6.365 -0.0119 -0.3076 -1.1029
  618MOL0     C81505   3.433   2.636   6.382  0.5711  0.3116  0.0886
  618MOL0     C81506   3.500   2.622   6.516 -0.0399  0.4288 -1.2396
  618MOL0     C81507   3.627   2.563   6.491  0.0011  0.1739  0.3854
  618MOL0     C81508   3.732   2.508   6.460 -0.2675  0.1694 -0.0169
  618MOL0     C81509   2.978   2.431   6.471  0.2787 -0.4440  0.3696
  618MOL0     C81510   2.886   2.365   6.548 -0.7568  0.3183 -0.5427
  618MOL0     H81511   2.469   2.109   6.746 -1.0598 -3.1508 -0.9233
  618MOL0     H81512   2.398   1.943   6.905  0.9838 -2.4694 -1.1588
  618MOL0     H81513   2.416   1.705   6.969 -1.6919 -0.3081  0.4736
  618MOL0     H81514   2.349   1.816   7.091  1.8367  2.7836  0.8186
  618MOL0     H81515   2.483   1.686   7.273  0.0382 -2.2690  0.5160
  618MOL0     H81516   2.481   1.556   7.142 -0.3958  0.4063 -1.6111
  618MOL0     H81517   2.244   1.683   7.295  0.4922 -1.3974  1.9852
  618MOL0     H81518   2.314   1.517   7.294  0.7364 -1.1521 -0.9726
  618MOL0     H81519   2.176   1.661   7.053 -2.4641  0.0130  0.3159
  618MOL0     H81520   2.231   1.499   7.051 -1.4277 -1.6913  0.5469
  618MOL0     H81521   1.980   1.525   7.094  0.6517  1.8333 -0.3669
  618MOL0     H81522   2.027   1.599   7.250  0.5826  2.0833 -0.4801
  618MOL0     H81523   2.138   1.402   7.321  0.3069 -0.4268  0.9924
  618MOL0     H81524   2.099   1.309   7.177  0.5518  0.2980 -0.2767
  618MOL0     H81525   1.955   1.251   7.353 -1.2447 -0.1929  0.6968
  618MOL0     H81526   1.905   1.423   7.369 -2.5975  1.2283 -1.8066
  618MOL0     H81527   1.848   1.240   7.134 -0.1819  0.6550 -0.3149
  618MOL0     H81528   1.832   1.408   7.132 -1.5343 -2.5112 -2.9952
  618MOL0     H81529   1.707   1.172   7.433  0.6099  0.7285 -0.5168
  618MOL0     H81530   1.377   1.237   7.520  1.2397 -0.5059  2.2196
  618MOL0     H81531   1.470   1.090   7.481 -0.3764  0.6242  0.2240
  618MOL0     H81532   1.346   1.063   7.260  0.6829 -0.2634  0.6928
  618MOL0     H81533   1.261   1.221   7.291  2.3398  0.1516 -2.3030
  618MOL0     H81534   1.237   0.996   7.493  0.3428 -0.3267  0.0371
  618MOL0     H81535   1.105   1.098   7.430 -0.0688 -0.9661 -0.5161
  618MOL0     H81536   1.219   0.899   7.230 -0.3256  0.1663 -0.7548
  618MOL0     H81537   1.051   0.948   7.262  0.6157 -1.1457 -2.5376
  618MOL0     H81538   1.035   0.763   7.141  2.0369  1.3594  1.6918
  618MOL0     H81539   0.931   0.561   7.072  2.1519 -0.1632 -0.5097
  618MOL0     H81540   0.645   0.196   7.441  1.2991  0.9846 -1.1527
  618MOL0     H81541   0.537  -0.027   7.461 -1.7965  1.8361 -3.1049
  618MOL0     H81542   0.465  -0.203   7.311  1.1177  0.0876 -0.2151
  618MOL0     H81543   0.483  -0.291   7.461 -2.2164  1.8509 -0.8853
  618MOL0     H81544   0.570  -0.493   7.319 -1.7208 -3.2961 -3.2172
  618MOL0     H81545   0.541  -0.404   7.177 -2.2216  1.9603 -1.4871
  618MOL0     H81546   0.300  -0.376   7.316  1.5473  0.4028  1.1277
  618MOL0     H81547   0.347  -0.531   7.370  0.3492 -1.9436 -1.2942
  618MOL0     H81548   0.382  -0.509   7.080 -0.3699  1.8160 -0.2115
  618MOL0     H81549   0.321  -0.643   7.149  2.7294  0.6911 -2.4559
  618MOL0     H81550   0.159  -0.384   7.122 -1.5482  0.1527 -3.2532
  618MOL0     H81551   0.120  -0.540   7.220  1.1232  0.7971  0.6626
  618MOL0     H81552   0.130  -0.676   7.014 -0.0995 -1.9565 -0.8463
  618MOL0     H81553   0.167  -0.531   6.919 -2.6303  0.9237  0.1888
  618MOL0     H81554  -0.086  -0.582   7.074  0.0371 -1.5909 -1.3275
  618MOL0     H81555  -0.045  -0.422   6.986 -3.8300  0.8644  0.2647
  618MOL0     H81556  -0.070  -0.703   6.878 -1.1653 -0.3554 -1.1554
  618MOL0     H81557  -0.032  -0.554   6.780  0.7649 -0.5918  0.9934
  618MOL0     H81558   0.853  -0.184   7.207  1.9421  1.4238 -2.0483
  618MOL0     H81559   0.953   0.047   7.187  1.6751 -0.5409  1.8584
  618MOL0     H81560   0.985   0.395   7.472 -1.1366 -1.5589 -1.3519
  618MOL0     H81561   1.079   0.620   7.547  0.0386  3.5254 -1.4525
  618MOL0     H81562   2.792   1.909   7.070 -1.6538 -1.0069  1.6400
  618MOL0     H81563   2.868   2.091   6.912  0.0956  0.0642  0.9813
  618MOL0     H81564   2.908   2.540   6.838  0.0921  0.2178 -0.2195
  618MOL0     H81565   3.075   2.683   6.681  0.0832 -0.4758 -0.2659
  618MOL0     H81566   3.229   2.744   6.556  1.8631 -1.8540  0.3681
  618MOL0     H81567   3.122   2.800   6.436  1.5414  1.2943 -1.3394
  618MOL0     H81568   3.282   2.738   6.263 -2.1029 -1.1165 -0.3590
  618MOL0     H81569   3.376   2.836   6.375 -0.1680 -0.4604  2.4475
  618MOL0     H81570   3.507   2.662   6.305  1.2186 -1.3247  0.1041
  618MOL0     H81571   3.399   2.536   6.353 -0.2239  0.6134 -0.0386
  618MOL0     H81572   3.522   2.714   6.570 -0.2683  0.0009 -0.3938
  618MOL0     H81573   3.439   2.561   6.584 -1.4552  1.6944 -1.3292
  618MOL0     H81574   3.820   2.464   6.418  0.2477  1.2889 -0.1472
  618MOL0     H81575   2.992   2.400   6.368 -0.0521  0.0405  0.1819
  618MOL0     H81576   2.825   2.288   6.502  2.2804 -3.0299  0.5795
  619MOL0     O81577   0.515   4.783   1.974  0.3223 -0.0280  0.3834
  619MOL0     C81578   0.527   4.858   2.068 -0.4910  0.0122  0.8532
  619MOL0     O81579   0.453   4.868   2.180 -0.7553  0.0835 -0.3728
  619MOL0     C81580   0.365   4.770   2.213 -0.7802  0.2505  0.1030
  619MOL0     C81581   0.266   4.817   2.292 -0.0519 -0.2236  0.0871
  619MOL0     C81582   0.165   4.731   2.340 -0.0287 -0.4442 -0.0724
  619MOL0     C81583   0.172   4.599   2.308 -0.1729  0.4455 -0.2251
  619MOL0     O81584   0.071   4.510   2.352 -0.0764 -0.0358  0.6218
  619MOL0     C81585  -0.067   4.520   2.298  0.3129  0.4409  0.0466
  619MOL0     C81586  -0.150   4.652   2.320  0.3718 -0.1761  1.6206
  619MOL0     C81587  -0.213   4.663   2.459 -0.8330 -0.9174  0.5251
  619MOL0     C81588  -0.290   4.803   2.473  0.0975  0.5345 -0.8417
  619MOL0     C81589  -0.381   4.812   2.596  0.4152 -0.1705  0.0834
  619MOL0     C81590  -0.496   4.710   2.590 -0.8077 -0.8377 -0.5997
  619MOL0     C81591  -0.594   4.752   2.704  1.3038 -0.5682 -0.0548
  619MOL0     C81592  -0.534   4.784   2.847 -0.7889  1.0473  0.3073
  619MOL0     N81593  -0.632   4.816   2.942  0.5174 -0.2444  0.0617
  619MOL0     C81594  -0.696   4.941   2.943  0.2333 -0.4556  0.1145
  619MOL0     C81595  -0.788   4.940   3.039 -0.4527 -0.3481 -0.2559
  619MOL0     C81596  -0.899   5.037   3.065  0.6693 -0.6433 -0.9274
  619MOL0     C81597  -1.029   5.009   3.006 -0.2887  0.2376  0.2300
  619MOL0     C81598  -1.012   4.967   2.862  0.2328  0.7476  0.4653
  619MOL0     C81599  -1.157   4.959   2.801  0.0476  0.2043  0.8153
  619MOL0     O81600  -1.240   4.853   2.874 -0.3526 -0.0079  0.5632
  619MOL0     C81601  -1.330   4.791   2.800  0.1026 -1.0982 -0.0090
  619MOL0     C81602  -1.323   4.653   2.782  0.1288 -0.1612  0.6019
  619MOL0     C81603  -1.422   4.577   2.716 -0.6253  0.2531 -0.0798
  619MOL0     C81604  -1.529   4.650   2.662 -0.6448 -0.1751 -0.2073
  619MOL0     C81605  -1.635   4.579   2.588  0.0206  1.1250  0.2193
  619MOL0     O81606  -1.707   4.634   2.483  0.5615 -0.5622 -0.7740
  619MOL0     C81607  -1.826   4.579   2.435  0.7343 -0.6292 -0.3687
  619MOL0     C81608  -1.917   4.495   2.493  0.4777  0.2180  0.6040
  619MOL0     C81609  -2.039   4.448   2.430 -0.8550 -0.2961 -0.4537
  619MOL0     C81610  -2.069   4.499   2.303  0.3914 -0.7473  0.8386
  619MOL0     O81611  -2.182   4.446   2.246 -0.1486  0.3256  0.2068
  619MOL0     C81612  -2.243   4.530   2.146 -0.9415  0.0422  0.2388
  619MOL0     C81613  -2.367   4.463   2.081 -0.4114 -0.2768  0.0433
  619MOL0     C81614  -2.479   4.457   2.195  0.0832  0.5718 -0.0759
  619MOL0     C81615  -2.612   4.421   2.124 -0.8062  0.8905  0.2458
  619MOL0     C81616  -2.660   4.277   2.163 -0.9003  0.3200 -0.7157
  619MOL0     C81617  -2.804   4.245   2.139  0.2270  0.5355  1.0750
  619MOL0     C81618  -2.837   4.095   2.175  0.4302 -0.3235  0.4469
  619MOL0     C81619  -2.978   4.047   2.125  0.6102 -0.5767 -0.4111
  619MOL0    Cl81620  -3.096   4.165   2.195 -0.1240 -0.0017 -0.1172
  619MOL0     C81621  -1.988   4.604   2.249 -0.0957 -0.0405 -0.3656
  619MOL0     C81622  -1.869   4.637   2.313 -0.2147 -0.2645 -0.1923
  619MOL0     O81623  -1.662   4.465   2.633  0.4410 -0.0662  0.9283
  619MOL0     C81624  -1.535   4.789   2.678 -0.4095 -0.2184  0.3664
  619MOL0     C81625  -1.442   4.860   2.756  0.8125  0.0979  0.5766
  619MOL0     N81626  -0.777   4.816   3.108 -0.6997 -1.1031  0.3021
  619MOL0     N81627  -0.688   4.749   3.040  0.2725 -0.1440 -0.7237
  619MOL0     C81628   0.279   4.546   2.243  0.4362  0.5413 -0.9099
  619MOL0     C81629   0.383   4.629   2.199 -0.5736  0.0208  1.0740
  619MOL0     C81630   0.647   4.960   2.068 -0.1282 -0.6940 -0.1403
  619MOL0     C81631   0.753   4.939   1.969  0.1217  0.4773 -0.5195
  619MOL0     C81632   0.868   5.017   1.976 -0.3495  0.0748  0.4693
  619MOL0     C81633   0.872   5.132   2.056  0.3050  0.2803  0.5365
  619MOL0     O81634   0.973   5.229   2.050 -0.0578  0.5193 -0.2873
  619MOL0     C81635   1.108   5.174   2.059  0.4225 -0.2591 -0.4224
  619MOL0     C81636   1.201   5.286   2.104  0.8510  0.1920 -0.2366
  619MOL0     C81637   1.344   5.243   2.128  0.2877  0.3742 -0.1079
  619MOL0     C81638   1.437   5.363   2.139 -0.0572  0.8331  0.0971
  619MOL0     C81639   1.575   5.332   2.150  0.3730 -0.2818  0.1522
  619MOL0     C81640   1.690   5.301   2.160 -0.8097  0.7743 -0.3106
  619MOL0     C81641   0.767   5.165   2.139 -0.1835  0.3096  0.3066
  619MOL0     C81642   0.663   5.076   2.151  0.0145 -0.8135  0.1152
  619MOL0     H81643   0.268   4.923   2.315  0.5186 -0.9337  4.0246
  619MOL0     H81644   0.083   4.774   2.396 -0.5645  0.7338 -1.6489
  619MOL0     H81645  -0.133   4.438   2.327 -1.6774  2.3695  1.2276
  619MOL0     H81646  -0.043   4.501   2.193  1.3713 -1.6579  0.6167
  619MOL0     H81647  -0.230   4.653   2.246  0.9013  2.9826  0.9524
  619MOL0     H81648  -0.093   4.744   2.303 -0.8661  0.3707  0.2573
  619MOL0     H81649  -0.123   4.672   2.522 -2.1367  1.0667  2.2421
  619MOL0     H81650  -0.266   4.575   2.495 -1.2356 -0.6355  0.6260
  619MOL0     H81651  -0.214   4.882   2.478 -1.5744  2.2678 -1.4006
  619MOL0     H81652  -0.360   4.818   2.391 -0.5134 -0.3825 -0.5095
  619MOL0     H81653  -0.421   4.913   2.607  0.6283  0.1306 -1.5112
  619MOL0     H81654  -0.320   4.809   2.687 -1.9567 -1.0616  1.7322
  619MOL0     H81655  -0.460   4.607   2.601  1.8208  0.1283  0.4532
  619MOL0     H81656  -0.556   4.713   2.498 -0.5362 -0.8067 -0.7781
  619MOL0     H81657  -0.644   4.839   2.660 -3.3183 -1.7027  2.3180
  619MOL0     H81658  -0.672   4.675   2.706  0.0399  0.5689 -1.6546
  619MOL0     H81659  -0.453   4.857   2.835 -1.6735  1.7129 -2.3188
  619MOL0     H81660  -0.489   4.687   2.871  3.1414  2.5694 -0.1166
  619MOL0     H81661  -0.697   5.019   2.867 -1.9814 -0.3646  0.1776
  619MOL0     H81662  -0.872   5.140   3.042  0.3777 -0.2176  0.5150
  619MOL0     H81663  -0.913   5.042   3.174  1.0577  0.8952 -0.9285
  619MOL0     H81664  -1.086   5.103   3.004 -0.0757  0.3913 -2.0378
  619MOL0     H81665  -1.076   4.930   3.066  1.5670 -1.8181 -0.8717
  619MOL0     H81666  -0.951   5.036   2.803  0.3157  0.6850  0.4777
  619MOL0     H81667  -0.963   4.869   2.859 -0.9504  0.0665  1.8432
  619MOL0     H81668  -1.145   4.921   2.699 -1.2431  2.3728 -0.2172
  619MOL0     H81669  -1.207   5.056   2.804  0.1360  0.2388  1.6923
  619MOL0     H81670  -1.240   4.596   2.822  0.6363  0.0599 -0.1072
  619MOL0     H81671  -1.420   4.469   2.718 -0.0754  0.2620 -0.0116
  619MOL0     H81672  -1.891   4.457   2.591 -0.6491 -1.4009  0.3247
  619MOL0     H81673  -2.108   4.380   2.478  1.4041 -3.6389 -1.6119
  619MOL0     H81674  -2.171   4.535   2.064 -2.0981 -0.5339 -0.8645
  619MOL0     H81675  -2.271   4.628   2.186  1.2496 -0.3435  3.0260
  619MOL0     H81676  -2.346   4.370   2.027 -0.0872  1.5795 -3.2421
  619MOL0     H81677  -2.403   4.535   2.008  0.8613 -0.1649 -0.4987
  619MOL0     H81678  -2.478   4.553   2.247  0.9888  0.1897  0.6451
  619MOL0     H81679  -2.459   4.380   2.269 -0.0291 -0.7912 -1.4133
  619MOL0     H81680  -2.685   4.489   2.170  0.6356  0.9188  2.6716
  619MOL0     H81681  -2.609   4.425   2.015  0.5189 -5.1922 -0.3440
  619MOL0     H81682  -2.653   4.282   2.272 -2.3138  0.6309 -0.6126
  619MOL0     H81683  -2.598   4.197   2.122 -0.3254  1.0496 -1.2985
  619MOL0     H81684  -2.839   4.274   2.039  0.4363 -0.2243  0.7811
  619MOL0     H81685  -2.860   4.302   2.214 -0.8495  0.4056  0.3869
  619MOL0     H81686  -2.764   4.030   2.126 -2.9584 -2.5347 -2.1323
  619MOL0     H81687  -2.817   4.070   2.279  2.0041 -2.0621 -0.2151
  619MOL0     H81688  -3.001   3.954   2.177  1.8488  0.1556  1.5340
  619MOL0     H81689  -2.982   4.041   2.016  1.8129  3.3686 -0.8544
  619MOL0     H81690  -1.998   4.637   2.146  1.3249  1.6309 -0.0148
  619MOL0     H81691  -1.799   4.699   2.257  0.1957 -0.6553 -0.1161
  619MOL0     H81692  -1.629   4.838   2.653  0.0927  1.1134  0.9678
  619MOL0     H81693  -1.481   4.959   2.777  2.2984  0.2633  2.9251
  619MOL0     H81694   0.281   4.438   2.228  0.3801  0.8755 -3.8785
  619MOL0     H81695   0.469   4.593   2.144 -1.0751 -0.1794  0.4136
  619MOL0     H81696   0.739   4.858   1.898 -0.5301  2.9657 -3.4465
  619MOL0     H81697   0.955   4.998   1.914 -1.0996 -2.0277 -0.0110
  619MOL0     H81698   1.140   5.128   1.964  1.2796  0.2790 -0.4116
  619MOL0     H81699   1.116   5.109   2.146 -0.4098 -0.3048 -0.3800
  619MOL0     H81700   1.199   5.356   2.019  0.5429 -0.2765 -0.6225
  619MOL0     H81701   1.166   5.339   2.193  1.9905 -1.4657  1.2700
  619MOL0     H81702   1.386   5.188   2.044 -1.9011 -2.3145  0.4023
  619MOL0     H81703   1.354   5.186   2.220 -0.3294  1.4657  0.6697
  619MOL0     H81704   1.417   5.428   2.054 -1.6725  0.6273  0.2901
  619MOL0     H81705   1.409   5.427   2.223 -0.8407  0.4562  0.1307
  619MOL0     H81706   1.794   5.274   2.168 -1.0234 -0.7039 -1.8418
  619MOL0     H81707   0.768   5.256   2.199 -1.8968  0.0117  0.8471
  619MOL0     H81708   0.582   5.100   2.219 -0.3805 -2.4519  0.2616
  620MOL0     O81709   4.190   3.476   3.471  0.0866 -0.8496  0.2596
  620MOL0     C81710   4.207   3.400   3.563 -0.0729  0.0520 -0.2594
  620MOL0     O81711   4.102   3.326   3.620  0.0037  0.3907  0.6053
  620MOL0     C81712   3.983   3.353   3.558 -0.4106 -0.6099 -0.1736
  620MOL0     C81713   3.904   3.455   3.605  0.7096  0.1602  0.1188
  620MOL0     C81714   3.783   3.486   3.539 -0.4965  0.5415  0.5958
  620MOL0     C81715   3.733   3.389   3.443 -0.2535 -0.6671 -0.1213
  620MOL0     O81716   3.612   3.400   3.374  0.0084 -0.8012 -0.7858
  620MOL0     C81717   3.551   3.530   3.369 -0.4141 -0.6518 -0.8871
  620MOL0     C81718   3.440   3.530   3.263 -0.6645  0.4938  0.1221
  620MOL0     C81719   3.375   3.665   3.253 -0.2285 -0.0374  0.1565
  620MOL0     C81720   3.294   3.691   3.118  0.3668  0.4966 -0.2049
  620MOL0     C81721   3.204   3.582   3.067 -0.6620 -0.0572  0.1693
  620MOL0     C81722   3.103   3.548   3.173  0.1332 -0.1699  0.5022
  620MOL0     C81723   2.988   3.452   3.132  0.1868  0.1020 -0.2116
  620MOL0     C81724   2.880   3.522   3.052  0.3543  0.1611 -0.2082
  620MOL0     N81725   2.783   3.596   3.135 -0.1798  0.1447  0.3458
  620MOL0     C81726   2.675   3.540   3.187  0.4714  0.3741  0.6487
  620MOL0     C81727   2.603   3.647   3.232 -1.0737 -0.0908  0.3144
  620MOL0     C81728   2.452   3.635   3.287 -0.1334 -0.2794 -0.7048
  620MOL0     C81729   2.449   3.602   3.438  0.4775 -0.8550  0.4080
  620MOL0     C81730   2.519   3.719   3.519  0.6268 -0.0574  0.3110
  620MOL0     C81731   2.507   3.690   3.667 -0.0333 -0.2146 -0.1766
  620MOL0     O81732   2.379   3.641   3.701 -0.4724 -1.0501  0.0468
  620MOL0     C81733   2.282   3.729   3.732  0.0375  0.2011  0.1086
  620MOL0     C81734   2.310   3.859   3.778 -0.3471 -0.6982  0.0416
  620MOL0     C81735   2.197   3.940   3.802 -0.5065 -0.2054 -0.3340
  620MOL0     C81736   2.064   3.891   3.794  0.4589 -0.1521 -0.0793
  620MOL0     C81737   1.955   3.988   3.803  0.2415 -0.3998 -0.4213
  620MOL0     O81738   1.821   3.940   3.822 -0.4823  0.3301  0.8270
  620MOL0     C81739   1.724   4.024   3.856  1.0549 -0.1157  0.5047
  620MOL0     C81740   1.595   3.959   3.847 -0.1827  0.1325  0.0792
  620MOL0     C81741   1.486   4.015   3.909  0.5784 -0.1831 -1.4116
  620MOL0     C81742   1.484   4.140   3.959 -0.4038  0.0530 -0.4818
  620MOL0     O81743   1.376   4.187   4.023  0.2904  0.7696 -0.0717
  620MOL0     C81744   1.277   4.235   3.935  0.4607  0.2636  0.1981
  620MOL0     C81745   1.156   4.248   4.023 -0.1010 -0.3915  0.2985
  620MOL0     C81746   1.111   4.108   4.057 -0.0083 -0.3122 -0.8961
  620MOL0     C81747   1.011   4.100   4.177 -0.4662  0.2019 -0.3073
  620MOL0     C81748   0.879   4.168   4.125 -0.4804 -0.7212  0.4324
  620MOL0     C81749   0.772   4.185   4.233 -0.0667  0.2625 -1.4972
  620MOL0     C81750   0.638   4.232   4.170  1.2724 -0.3567  0.3948
  620MOL0     C81751   0.561   4.107   4.117 -0.1066 -0.5042  0.2862
  620MOL0    Cl81752   0.507   3.999   4.244 -0.0889 -0.9123 -0.0688
  620MOL0     C81753   1.605   4.208   3.965  0.0518  0.7856 -0.1858
  620MOL0     C81754   1.721   4.162   3.907  0.2403  0.7779 -0.2189
  620MOL0     O81755   1.990   4.107   3.794  0.0438  0.0636 -0.1595
  620MOL0     C81756   2.042   3.752   3.773 -0.0652  0.4865  0.0694
  620MOL0     C81757   2.151   3.676   3.736  0.3169  0.0861  0.0186
  620MOL0     N81758   2.673   3.765   3.199  0.5326 -0.2008  0.2776
  620MOL0     N81759   2.779   3.728   3.144 -0.8243 -0.7936 -0.0896
  620MOL0     C81760   3.809   3.290   3.407 -0.1242  0.0146 -0.8119
  620MOL0     C81761   3.935   3.273   3.462 -0.8353  0.2956  1.0671
  620MOL0     C81762   4.333   3.387   3.621 -0.4153 -0.7786 -0.7653
  620MOL0     C81763   4.435   3.478   3.592 -0.2599  0.8330  1.1416
  620MOL0     C81764   4.563   3.465   3.648  0.4609 -0.3390  0.7055
  620MOL0     C81765   4.599   3.366   3.734  0.6976  0.9534 -0.2533
  620MOL0     O81766   4.723   3.350   3.788 -0.0364 -0.7364  0.3217
  620MOL0     C81767   4.816   3.293   3.696  0.1275 -1.0052 -0.2600
  620MOL0     C81768   4.793   3.148   3.638 -1.3279  0.7463 -0.2471
  620MOL0     C81769   4.820   3.044   3.742 -0.1483 -0.0736 -0.2615
  620MOL0     C81770   4.856   2.897   3.703  0.4858  0.0738 -0.0020
  620MOL0     C81771   4.731   2.821   3.670 -1.7045  0.5947 -0.7818
  620MOL0     C81772   4.623   2.765   3.663  0.4063  0.0098  0.0481
  620MOL0     C81773   4.497   3.259   3.747 -0.0737 -0.1482  0.4478
  620MOL0     C81774   4.363   3.275   3.698 -1.4612 -0.6801  0.1707
  620MOL0     H81775   3.943   3.513   3.688 -1.0587  0.4984  0.7583
  620MOL0     H81776   3.713   3.561   3.574 -3.7099 -1.6575 -0.6548
  620MOL0     H81777   3.625   3.609   3.353  2.0198 -1.8516  3.0313
  620MOL0     H81778   3.499   3.553   3.463 -1.1289  2.9351 -1.9920
  620MOL0     H81779   3.370   3.446   3.268 -0.3094  0.1482 -0.6485
  620MOL0     H81780   3.498   3.511   3.173 -1.1216 -0.6062  0.0481
  620MOL0     H81781   3.443   3.751   3.243  0.2946 -0.6152 -1.6944
  620MOL0     H81782   3.308   3.683   3.337 -1.6526  0.5940 -1.0679
  620MOL0     H81783   3.230   3.779   3.132 -1.7056 -0.8114 -0.9597
  620MOL0     H81784   3.365   3.714   3.037  0.0974  1.3738 -0.2022
  620MOL0     H81785   3.257   3.489   3.043  1.6488  0.9753  0.8949
  620MOL0     H81786   3.163   3.617   2.971  2.5994 -2.3486 -2.2852
  620MOL0     H81787   3.051   3.641   3.198  1.0812  0.9122 -1.3328
  620MOL0     H81788   3.158   3.509   3.259  2.5738 -1.8464 -1.6432
  620MOL0     H81789   3.017   3.369   3.067 -0.1235  1.3606 -2.0335
  620MOL0     H81790   2.951   3.418   3.229  3.0429  1.3895  1.4574
  620MOL0     H81791   2.817   3.451   2.999 -0.7506 -0.4038  1.7509
  620MOL0     H81792   2.912   3.596   2.978  0.4001 -0.0584 -0.4095
  620MOL0     H81793   2.643   3.436   3.191  1.7009  0.0076  1.4942
  620MOL0     H81794   2.395   3.554   3.241 -3.8723  1.3459  0.6088
  620MOL0     H81795   2.393   3.726   3.271 -0.0378 -0.0604  0.1273
  620MOL0     H81796   2.507   3.510   3.453  0.3527 -1.1234 -0.6800
  620MOL0     H81797   2.347   3.579   3.468  0.7828 -1.1537  1.2619
  620MOL0     H81798   2.623   3.726   3.486  0.6093  0.6635  0.3856
  620MOL0     H81799   2.465   3.813   3.501 -0.0672 -0.2013  1.4787
  620MOL0     H81800   2.546   3.759   3.743  1.9207  2.0189 -3.0118
  620MOL0     H81801   2.565   3.598   3.682 -0.0528  0.0371  1.6508
  620MOL0     H81802   2.410   3.892   3.803 -0.6015 -0.4368  0.7418
  620MOL0     H81803   2.211   4.043   3.834  1.5080 -0.2540 -0.9237
  620MOL0     H81804   1.599   3.859   3.805 -0.4014  1.9641 -4.9805
  620MOL0     H81805   1.398   3.953   3.898  1.3937 -1.8656  0.7746
  620MOL0     H81806   1.263   4.164   3.853  1.8331 -1.0939  1.0961
  620MOL0     H81807   1.314   4.331   3.897  1.5757 -0.0915  0.3641
  620MOL0     H81808   1.079   4.300   3.965 -1.1656 -0.2410  1.8078
  620MOL0     H81809   1.187   4.301   4.114  1.8552  0.7602 -0.9530
  620MOL0     H81810   1.198   4.047   4.086  2.9569  2.5678 -2.9672
  620MOL0     H81811   1.074   4.067   3.963 -2.5401  1.8123 -0.9472
  620MOL0     H81812   0.986   4.000   4.216  1.2579  0.8941  2.9330
  620MOL0     H81813   1.052   4.155   4.262  2.7399 -1.7076 -0.4657
  620MOL0     H81814   0.845   4.116   4.035 -1.9517  2.1471 -0.8161
  620MOL0     H81815   0.901   4.269   4.088  0.8539 -1.0746  0.1889
  620MOL0     H81816   0.811   4.248   4.314  0.8881 -0.8791 -1.0494
  620MOL0     H81817   0.758   4.086   4.275 -1.2245  0.5476 -1.1662
  620MOL0     H81818   0.577   4.276   4.249  0.0608 -0.7295 -0.3037
  620MOL0     H81819   0.655   4.306   4.092 -0.1644  1.2853  1.5807
  620MOL0     H81820   0.604   4.049   4.034 -1.3307 -0.9465 -0.0509
  620MOL0     H81821   0.473   4.141   4.061 -0.4482  2.3058  2.2982
  620MOL0     H81822   1.616   4.295   4.029  2.5666  1.2112 -1.1097
  620MOL0     H81823   1.802   4.233   3.920  1.5819 -0.7919  0.2628
  620MOL0     H81824   1.946   3.703   3.785  0.3026  0.1872  2.1418
  620MOL0     H81825   2.149   3.572   3.706  0.4209 -0.7259  2.5700
  620MOL0     H81826   3.759   3.220   3.340  0.7835 -0.9323 -0.5076
  620MOL0     H81827   3.990   3.183   3.436 -2.4091 -0.7506  1.2673
  620MOL0     H81828   4.407   3.559   3.525  0.9618  3.2964  3.4569
  620MOL0     H81829   4.631   3.548   3.634  0.7642 -0.4935  1.2232
  620MOL0     H81830   4.911   3.292   3.750 -2.5827 -1.9810  5.2178
  620MOL0     H81831   4.824   3.354   3.606 -7.0681  1.0744 -0.1148
  620MOL0     H81832   4.699   3.139   3.582 -0.8665  2.0755 -1.2955
  620MOL0     H81833   4.873   3.133   3.565 -1.7609 -2.9942 -0.1459
  620MOL0     H81834   4.729   3.044   3.803  0.2131  3.0543  0.4414
  620MOL0     H81835   4.897   3.080   3.811 -0.1791 -0.5759  0.0423
  620MOL0     H81836   4.905   2.903   3.605 -2.4877  2.0270 -1.5014
  620MOL0     H81837   4.933   2.840   3.756  0.2495 -1.2730 -1.0386
  620MOL0     H81838   4.526   2.723   3.646 -0.1111 -0.9525  4.2097
  620MOL0     H81839   4.496   3.174   3.814  0.1943 -3.7219 -3.6486
  620MOL0     H81840   4.290   3.198   3.718 -0.9992 -0.9980  0.6779
  621MOL0     O81841   6.460  10.221  10.794 -0.5235  0.0265 -0.4078
  621MOL0     C81842   6.497  10.318  10.866 -0.9905  0.0703 -0.8578
  621MOL0     O81843   6.422  10.420  10.914  0.6862 -0.0235  0.5116
  621MOL0     C81844   6.292  10.415  10.881  0.1097  0.2723  0.8208
  621MOL0     C81845   6.199  10.357  10.973  0.1311  0.5094  0.2040
  621MOL0     C81846   6.057  10.361  10.948 -0.5771 -0.2545 -0.0906
  621MOL0     C81847   6.010  10.418  10.824  1.0104  1.3885 -0.7685
  621MOL0     O81848   5.882  10.399  10.793 -0.1605  0.1052 -0.0702
  621MOL0     C81849   5.840  10.464  10.683  0.3542 -0.3677  0.4113
  621MOL0     C81850   5.701  10.405  10.631 -0.0009 -0.0946 -0.0859
  621MOL0     C81851   5.592  10.402  10.737 -0.2184  0.1974 -0.0216
  621MOL0     C81852   5.549  10.543  10.774  0.7572  0.2609  0.2931
  621MOL0     C81853   5.463  10.533  10.907 -0.2800 -0.1654 -0.2871
  621MOL0     C81854   5.523  10.505  11.042  0.0510  0.3699 -0.7779
  621MOL0     C81855   5.643  10.592  11.085  0.4613  0.9891 -0.7258
  621MOL0     C81856   5.666  10.571  11.245  1.1187 -0.8302  0.1698
  621MOL0     N81857   5.738  10.447  11.287 -0.4535 -0.8427 -0.0601
  621MOL0     C81858   5.879  10.447  11.314 -0.4452 -0.6123 -0.1357
  621MOL0     C81859   5.924  10.324  11.347 -1.1281 -0.9492 -0.6928
  621MOL0     C81860   6.065  10.276  11.387 -0.0214  0.6943  0.1000
  621MOL0     C81861   6.072  10.127  11.360  0.2520  0.7329  0.0290
  621MOL0     C81862   6.209  10.056  11.406 -0.9397 -0.2643  1.0469
  621MOL0     C81863   6.308  10.060  11.297 -0.4712 -0.7902  0.3448
  621MOL0     O81864   6.359  10.188  11.269  0.0610 -0.2042 -0.3457
  621MOL0     C81865   6.495  10.193  11.290 -0.4539 -1.1753 -0.0080
  621MOL0     C81866   6.585  10.147  11.185  1.1270 -0.4460  0.1953
  621MOL0     C81867   6.724  10.160  11.208  0.2378  0.5972  0.2533
  621MOL0     C81868   6.770  10.201  11.334 -0.6577  0.2334 -0.7612
  621MOL0     C81869   6.912  10.197  11.367 -0.5752 -0.1347  0.2968
  621MOL0     O81870   6.955  10.268  11.470  0.1608  1.0465  0.3740
  621MOL0     C81871   7.086  10.245  11.503 -0.1723 -0.5106 -0.8645
  621MOL0     C81872   7.186  10.335  11.483 -0.6479  0.1556  0.2802
  621MOL0     C81873   7.318  10.325  11.531 -0.2621 -0.1799  0.5269
  621MOL0     C81874   7.350  10.210  11.603 -0.2298  0.1225  0.7639
  621MOL0     O81875   7.479  10.203  11.642 -0.3153  0.1171 -0.7259
  621MOL0     C81876   7.554  10.081  11.610  0.1443 -0.5263 -0.4321
  621MOL0     C81877   7.673  10.109  11.519  0.0671 -0.9413 -1.1380
  621MOL0     C81878   7.764   9.989  11.506  0.4016 -0.5466  0.8411
  621MOL0     C81879   7.866  10.008  11.391  0.1994 -0.2243  0.2135
  621MOL0     C81880   8.004   9.957  11.437  0.2235 -0.0165 -0.2908
  621MOL0     C81881   7.991   9.803  11.460  0.5138  0.1179  0.5306
  621MOL0     C81882   8.119   9.756  11.522  0.7385  0.5897 -0.2390
  621MOL0     C81883   8.120   9.607  11.531  0.1578  0.4557  0.1963
  621MOL0    Cl81884   8.013   9.548  11.659 -0.2091  0.0542  0.1267
  621MOL0     C81885   7.251  10.108  11.633  0.1047 -0.4255 -0.3293
  621MOL0     C81886   7.124  10.125  11.569 -0.0773  0.3413  0.0283
  621MOL0     O81887   6.987  10.133  11.294  0.4170 -0.8831 -0.0226
  621MOL0     C81888   6.683  10.253  11.425  0.8393  0.9916  0.5988
  621MOL0     C81889   6.547  10.255  11.405  0.1817 -0.1397  0.2482
  621MOL0     N81890   5.806  10.242  11.345  0.1890 -0.1711 -0.6142
  621MOL0     N81891   5.695  10.316  11.306 -0.4481 -0.8372  0.7069
  621MOL0     C81892   6.108  10.480  10.743  0.4144  0.7016  0.3736
  621MOL0     C81893   6.236  10.484  10.775 -1.0499 -0.4300 -0.1697
  621MOL0     C81894   6.645  10.326  10.905  0.1876 -0.6971 -0.0801
  621MOL0     C81895   6.709  10.437  10.964  0.4614 -0.7835  0.5940
  621MOL0     C81896   6.843  10.444  10.982  0.7446 -0.5880 -1.1037
  621MOL0     C81897   6.924  10.341  10.926 -0.8093  0.1838 -0.6954
  621MOL0     O81898   7.059  10.340  10.932 -1.0181 -0.1844 -0.0215
  621MOL0     C81899   7.127  10.460  10.988 -0.8478  1.3168 -0.2460
  621MOL0     C81900   7.270  10.424  10.994 -0.8145 -0.4417 -1.3554
  621MOL0     C81901   7.283  10.297  11.086 -0.2230  0.9087 -0.7450
  621MOL0     C81902   7.422  10.245  11.083 -0.2372 -0.0957 -1.0846
  621MOL0     C81903   7.508  10.304  11.186 -0.5474 -0.0233  1.0724
  621MOL0     C81904   7.580  10.350  11.274 -0.0532 -0.8301  1.2173
  621MOL0     C81905   6.865  10.234  10.857 -0.0312  0.1603  0.0760
  621MOL0     C81906   6.728  10.224  10.851  0.7174  0.5176  0.0363
  621MOL0     H81907   6.240  10.306  11.059 -0.3369 -0.5322 -0.1713
  621MOL0     H81908   5.987  10.312  11.014  1.0742 -4.1685 -0.9903
  621MOL0     H81909   5.903  10.457  10.594  1.6012  0.5108  1.1895
  621MOL0     H81910   5.834  10.570  10.711  0.1166 -0.2427 -0.0972
  621MOL0     H81911   5.705  10.297  10.610 -0.5618 -0.8491  3.0299
  621MOL0     H81912   5.668  10.457  10.541 -0.5347 -2.8452 -1.5889
  621MOL0     H81913   5.624  10.342  10.822 -0.0667 -1.9567 -1.5239
  621MOL0     H81914   5.505  10.348  10.699  0.0632 -2.6427  2.9794
  621MOL0     H81915   5.644  10.596  10.786  1.5368 -0.6168 -1.6027
  621MOL0     H81916   5.487  10.585  10.695 -1.6285  1.1076  2.4702
  621MOL0     H81917   5.389  10.453  10.898 -0.6665  0.1360  0.1682
  621MOL0     H81918   5.412  10.629  10.916  1.8819  0.8870  1.9704
  621MOL0     H81919   5.565  10.405  11.058  0.6271  0.9237  1.4894
  621MOL0     H81920   5.443  10.522  11.115  0.7257  2.9044 -0.5408
  621MOL0     H81921   5.732  10.576  11.024 -0.4749  3.2155 -2.8402
  621MOL0     H81922   5.607  10.695  11.072 -2.8902 -0.1894 -1.7919
  621MOL0     H81923   5.564  10.567  11.285  0.2276 -2.7946 -2.0878
  621MOL0     H81924   5.702  10.661  11.297  0.6908 -0.2471 -0.5347
  621MOL0     H81925   5.946  10.532  11.305  2.4896 -2.7651 -0.0922
  621MOL0     H81926   6.089  10.285  11.493  1.4870  2.6962 -0.3450
  621MOL0     H81927   6.136  10.332  11.325  2.8624 -1.1155  1.5715
  621MOL0     H81928   6.056  10.099  11.255  0.0469 -0.6859  0.4215
  621MOL0     H81929   5.992  10.078  11.417  2.3716  0.2726  2.8099
  621MOL0     H81930   6.259  10.092  11.497 -0.1155 -0.0893  0.5338
  621MOL0     H81931   6.190   9.949  11.417  2.7365 -1.3460 -1.3698
  621MOL0     H81932   6.267  10.018  11.204  2.1910 -1.7495 -0.4843
  621MOL0     H81933   6.385   9.991  11.331  0.2302 -0.3727 -0.3507
  621MOL0     H81934   6.542  10.100  11.097  0.1854  0.5855  0.0809
  621MOL0     H81935   6.791  10.126  11.129  1.0281  5.2508 -1.3623
  621MOL0     H81936   7.179  10.425  11.423  0.1764 -0.2421 -0.4247
  621MOL0     H81937   7.390  10.405  11.514 -2.0838  1.4075  0.0029
  621MOL0     H81938   7.491  10.011  11.554  0.4579  1.2749 -3.1771
  621MOL0     H81939   7.589  10.036  11.704 -2.0633  2.1038  1.8563
  621MOL0     H81940   7.742  10.188  11.550  0.0365 -1.4276  0.1989
  621MOL0     H81941   7.632  10.139  11.421  2.1488 -3.0516 -2.7689
  621MOL0     H81942   7.711   9.896  11.483  1.7292 -1.0521 -0.2829
  621MOL0     H81943   7.824   9.971  11.596  2.4257 -2.7868 -0.8246
  621MOL0     H81944   7.831   9.961  11.298  3.5270 -1.4480 -0.5390
  621MOL0     H81945   7.873  10.115  11.369  0.1497 -0.5510 -1.5621
  621MOL0     H81946   8.040  10.019  11.519 -1.3318  2.2041 -1.2054
  621MOL0     H81947   8.074   9.985  11.358  0.1166 -0.0321 -0.3922
  621MOL0     H81948   7.966   9.749  11.369  0.1315 -0.9728  1.2676
  621MOL0     H81949   7.907   9.783  11.527  0.5820 -0.3889  0.4651
  621MOL0     H81950   8.207   9.775  11.459  1.0933  0.5403  0.2350
  621MOL0     H81951   8.141   9.815  11.611  2.2222 -0.7575  0.3407
  621MOL0     H81952   8.224   9.577  11.547  0.1358  0.9210  1.3176
  621MOL0     H81953   8.084   9.564  11.437 -0.7251 -0.1150  0.7831
  621MOL0     H81954   7.274  10.025  11.700 -2.8356 -0.2829  1.0600
  621MOL0     H81955   7.043  10.054  11.584  0.4387 -0.8829 -2.4322
  621MOL0     H81956   6.710  10.294  11.522  0.1003 -0.0785  1.2834
  621MOL0     H81957   6.486  10.313  11.473 -0.2039  0.9827 -1.0179
  621MOL0     H81958   6.076  10.538  10.657  1.3557 -1.0356 -1.2432
  621MOL0     H81959   6.310  10.534  10.713  0.3778 -1.5619  0.5743
  621MOL0     H81960   6.643  10.519  10.993  1.1307 -0.1634  0.3953
  621MOL0     H81961   6.875  10.533  11.035 -1.0828 -0.3216 -0.3846
  621MOL0     H81962   7.085  10.484  11.087  0.3168 -1.1926  0.9585
  621MOL0     H81963   7.110  10.542  10.918  0.5149  1.9179  0.0976
  621MOL0     H81964   7.304  10.403  10.892  1.6537 -0.8703 -0.5073
  621MOL0     H81965   7.326  10.509  11.034 -2.8613  0.1191  0.5158
  621MOL0     H81966   7.222  10.215  11.047 -1.8781  0.9088  1.5909
  621MOL0     H81967   7.248  10.321  11.187  2.6091 -0.7013  0.7628
  621MOL0     H81968   7.422  10.138  11.109 -0.8119  0.6419  2.4425
  621MOL0     H81969   7.460  10.255  10.981  0.0120  3.7225 -0.7501
  621MOL0     H81970   7.639  10.395  11.351 -0.6407 -3.1390  3.0881
  621MOL0     H81971   6.924  10.153  10.816 -0.8233 -0.2376 -0.2971
  621MOL0     H81972   6.691  10.133  10.805  2.0072 -1.6403  2.9513
  622MOL0     O81973   5.211   1.004   4.688 -0.1769 -0.0812  0.3024
  622MOL0     C81974   5.191   1.115   4.638 -0.7539  0.2549  0.5990
  622MOL0     O81975   5.070   1.179   4.626 -1.1214 -0.4678  0.3863
  622MOL0     C81976   4.958   1.113   4.667 -0.4132 -0.1928 -0.5248
  622MOL0     C81977   4.907   1.006   4.602 -0.1207  0.3619  0.0208
  622MOL0     C81978   4.778   0.950   4.639 -0.9125  0.9386  0.1279
  622MOL0     C81979   4.713   0.990   4.760 -0.3318 -0.2181 -0.5600
  622MOL0     O81980   4.585   0.956   4.805 -1.0800 -0.1939 -0.2748
  622MOL0     C81981   4.490   0.902   4.706 -0.0771  0.0423 -0.1829
  622MOL0     C81982   4.359   0.890   4.783 -0.2397 -0.2004 -0.0762
  622MOL0     C81983   4.361   0.783   4.895  0.5384  0.4462  0.2367
  622MOL0     C81984   4.215   0.765   4.959  1.1184 -0.4208  0.1437
  622MOL0     C81985   4.224   0.677   5.088  0.3236  0.7547 -0.6666
  622MOL0     C81986   4.304   0.549   5.078  0.2958  0.1227  0.9140
  622MOL0     C81987   4.261   0.453   4.964 -1.1194  1.0802 -0.2635
  622MOL0     C81988   4.282   0.308   5.016 -0.5509 -0.2094  0.0977
  622MOL0     N81989   4.244   0.194   4.920  0.3242 -0.4885  0.2123
  622MOL0     C81990   4.132   0.178   4.845 -0.2505 -0.7919 -0.3981
  622MOL0     C81991   4.165   0.098   4.744  0.4915 -0.4022  0.1084
  622MOL0     C81992   4.092   0.057   4.619 -0.4005 -0.0565 -0.2273
  622MOL0     C81993   3.987  -0.051   4.630 -0.3819  0.2084  1.2557
  622MOL0     C81994   3.918  -0.067   4.761 -0.9725 -0.7896  0.4512
  622MOL0     C81995   3.804  -0.172   4.762 -0.8140  0.1086 -0.4284
  622MOL0     O81996   3.675  -0.113   4.727 -0.5563 -0.1484  0.1488
  622MOL0     C81997   3.557  -0.182   4.742 -0.2741  0.9767  0.2428
  622MOL0     C81998   3.530  -0.297   4.821 -0.7212  0.4381 -1.1461
  622MOL0     C81999   3.399  -0.341   4.842  0.9678  0.6148  0.5397
  622MOL0     C82000   3.281  -0.281   4.784 -0.6682 -0.0259  1.1044
  622MOL0     C82001   3.149  -0.336   4.800  0.6968 -0.1407  0.2026
  622MOL0     O82002   3.057  -0.317   4.703 -0.4047 -0.3908 -0.8841
  622MOL0     C82003   2.948  -0.401   4.705  1.1449 -0.0197  0.1247
  622MOL0     C82004   2.966  -0.541   4.690 -0.6920  0.7732  0.5320
  622MOL0     C82005   2.853  -0.623   4.678 -0.3052 -0.6728  0.7095
  622MOL0     C82006   2.720  -0.570   4.692  0.0747  0.3622  0.4341
  622MOL0     O82007   2.608  -0.640   4.692  0.4878  0.3186  0.3424
  622MOL0     C82008   2.611  -0.765   4.757 -0.0281  0.0626 -0.1346
  622MOL0     C82009   2.481  -0.801   4.837  0.1090 -0.7821 -0.7061
  622MOL0     C82010   2.349  -0.749   4.779  0.1312 -0.2554 -0.5547
  622MOL0     C82011   2.217  -0.820   4.818 -0.2108  0.0051 -0.9546
  622MOL0     C82012   2.092  -0.759   4.744  0.0436  0.4042 -0.2612
  622MOL0     C82013   1.957  -0.820   4.770  0.6793 -0.0139 -0.0954
  622MOL0     C82014   1.925  -0.922   4.665 -0.4538  0.2393 -0.1474
  622MOL0     C82015   1.780  -0.942   4.632 -0.2359 -1.2012  0.3553
  622MOL0    Cl82016   1.703  -1.031   4.773 -0.1881 -0.2760  0.1922
  622MOL0     C82017   2.700  -0.436   4.708  0.8723 -0.5400  0.4048
  622MOL0     C82018   2.815  -0.354   4.718  0.6192 -0.2045 -1.5578
  622MOL0     O82019   3.129  -0.399   4.906  0.3380  0.5916  0.6048
  622MOL0     C82020   3.317  -0.169   4.709  0.4179  0.2410  0.0511
  622MOL0     C82021   3.449  -0.119   4.695  0.1278 -0.5019 -0.0150
  622MOL0     N82022   4.297   0.060   4.755  1.3354 -0.6919  0.0662
  622MOL0     N82023   4.343   0.127   4.858 -0.1366 -0.0026 -0.1695
  622MOL0     C82024   4.784   1.084   4.839  1.0203 -0.7988  0.2075
  622MOL0     C82025   4.896   1.156   4.792 -0.2226 -0.7475 -0.5887
  622MOL0     C82026   5.316   1.184   4.582  1.1198 -0.1871  0.8770
  622MOL0     C82027   5.445   1.156   4.634  0.0996  0.5314 -0.3743
  622MOL0     C82028   5.557   1.208   4.577  0.1569 -0.4587 -0.1625
  622MOL0     C82029   5.552   1.306   4.477  0.5628 -0.4984 -0.1881
  622MOL0     O82030   5.663   1.380   4.443  0.8553 -0.2782 -0.1087
  622MOL0     C82031   5.784   1.349   4.522 -0.3683  0.9137 -0.1357
  622MOL0     C82032   5.872   1.463   4.473 -0.3653  0.8667  0.9127
  622MOL0     C82033   5.829   1.603   4.507  0.3078  0.8480  0.2188
  622MOL0     C82034   5.939   1.698   4.440  0.2626 -0.0861 -0.8101
  622MOL0     C82035   5.883   1.840   4.438 -0.0338 -0.3854  0.3115
  622MOL0     C82036   5.838   1.950   4.430  0.0292  0.6834  0.1113
  622MOL0     C82037   5.427   1.346   4.430 -1.1200  0.3537 -0.3320
  622MOL0     C82038   5.312   1.286   4.484  0.5643 -0.0259  0.4681
  622MOL0     H82039   4.963   0.949   4.528  2.8450  1.8083  0.9950
  622MOL0     H82040   4.749   0.865   4.579  3.8533 -0.1432 -1.0742
  622MOL0     H82041   4.526   0.803   4.677  0.8158 -0.6409  2.9624
  622MOL0     H82042   4.481   0.972   4.622 -1.2530  0.9898  0.7021
  622MOL0     H82043   4.282   0.863   4.710  0.7613 -2.0092 -0.5333
  622MOL0     H82044   4.332   0.983   4.834 -0.2202 -1.0749  1.5762
  622MOL0     H82045   4.431   0.812   4.974  1.6293 -1.9718  0.2601
  622MOL0     H82046   4.387   0.687   4.850  1.5386  1.6049 -1.8126
  622MOL0     H82047   4.176   0.861   4.994 -0.0123 -0.2022 -1.5593
  622MOL0     H82048   4.142   0.732   4.884  0.8895 -1.4427  0.8042
  622MOL0     H82049   4.124   0.644   5.117  0.4088  0.2451 -0.9333
  622MOL0     H82050   4.263   0.727   5.177 -0.4542 -1.2335  0.8610
  622MOL0     H82051   4.314   0.497   5.174 -0.1426 -0.9562  0.3936
  622MOL0     H82052   4.405   0.565   5.041  0.5724 -1.9708  0.6571
  622MOL0     H82053   4.154   0.460   4.945 -1.0403  2.0877 -0.4050
  622MOL0     H82054   4.322   0.462   4.874  1.7728 -2.0932  1.1640
  622MOL0     H82055   4.224   0.294   5.108 -1.7338 -1.5342 -0.8245
  622MOL0     H82056   4.387   0.279   5.030  0.0593  2.0298  0.7105
  622MOL0     H82057   4.038   0.230   4.862  0.7668  1.9222 -2.3799
  622MOL0     H82058   4.168   0.017   4.551  0.1607 -1.4053  1.0991
  622MOL0     H82059   4.039   0.146   4.585  0.1415  0.3090 -0.1318
  622MOL0     H82060   4.033  -0.148   4.607 -1.5839 -0.0967  0.0084
  622MOL0     H82061   3.911  -0.028   4.555 -1.6697 -2.1050  1.7516
  622MOL0     H82062   3.993  -0.073   4.840  0.3503 -0.8289 -0.7745
  622MOL0     H82063   3.874   0.027   4.795 -0.6297 -0.8777  1.1669
  622MOL0     H82064   3.799  -0.200   4.868  3.4086 -1.6006 -0.4698
  622MOL0     H82065   3.816  -0.264   4.705 -0.0651 -1.5111  2.1536
  622MOL0     H82066   3.610  -0.363   4.856 -0.4131  0.1835 -2.2968
  622MOL0     H82067   3.382  -0.435   4.892  1.6387 -0.2209 -0.7353
  622MOL0     H82068   3.064  -0.586   4.683 -1.7650 -1.4151 -3.2820
  622MOL0     H82069   2.867  -0.724   4.642  0.2044  0.7698 -3.8449
  622MOL0     H82070   2.706  -0.781   4.809  0.7603 -4.1811 -2.4571
  622MOL0     H82071   2.607  -0.840   4.678  1.0479  0.9539 -1.0625
  622MOL0     H82072   2.496  -0.748   4.931  1.4523  1.2448 -1.9839
  622MOL0     H82073   2.470  -0.910   4.841 -2.2240 -0.5746 -0.3954
  622MOL0     H82074   2.360  -0.766   4.672 -2.0192 -1.6236 -0.6109
  622MOL0     H82075   2.341  -0.646   4.814  1.8391 -0.1212 -0.4448
  622MOL0     H82076   2.222  -0.928   4.797  1.5938 -0.4846  1.5039
  622MOL0     H82077   2.197  -0.811   4.925 -0.1247 -0.5555 -0.8875
  622MOL0     H82078   2.119  -0.765   4.638 -0.1735  0.7682 -0.3371
  622MOL0     H82079   2.089  -0.657   4.785 -0.6225 -0.7710  2.9444
  622MOL0     H82080   1.879  -0.744   4.768 -0.9591 -1.5504  1.5551
  622MOL0     H82081   1.954  -0.855   4.874  0.6972  0.5966  0.1152
  622MOL0     H82082   1.976  -0.906   4.570 -0.2053 -2.5125 -0.5456
  622MOL0     H82083   1.967  -1.012   4.711 -0.7594 -0.4045 -1.1192
  622MOL0     H82084   1.769  -1.002   4.541 -1.4623 -0.6393  0.1061
  622MOL0     H82085   1.727  -0.847   4.616  0.0518 -0.7437  1.9580
  622MOL0     H82086   2.593  -0.421   4.711  0.8519 -0.7647  1.3890
  622MOL0     H82087   2.799  -0.247   4.720 -0.7677 -0.3939 -1.0133
  622MOL0     H82088   3.248  -0.121   4.640  2.0012  1.4961 -0.7288
  622MOL0     H82089   3.469  -0.022   4.650  5.3241 -2.2737 -2.2767
  622MOL0     H82090   4.743   1.124   4.931  0.7011  1.1022 -0.7104
  622MOL0     H82091   4.942   1.232   4.853 -0.3883 -1.5469  0.5750
  622MOL0     H82092   5.450   1.085   4.716 -0.4748  0.2967 -0.5295
  622MOL0     H82093   5.649   1.160   4.610  0.0650 -0.8616 -0.4826
  622MOL0     H82094   5.834   1.254   4.503  0.8721  1.6214 -0.5814
  622MOL0     H82095   5.773   1.351   4.630 -2.0440  0.9172 -0.2889
  622MOL0     H82096   5.975   1.450   4.507  0.1926 -2.1082 -1.4444
  622MOL0     H82097   5.882   1.451   4.364  1.8668  0.2249  1.1425
  622MOL0     H82098   5.824   1.610   4.616  1.6711  2.5024  0.2283
  622MOL0     H82099   5.733   1.623   4.460  0.8647 -1.1292 -1.9782
  622MOL0     H82100   6.026   1.679   4.504 -0.2706 -2.9693 -0.7618
  622MOL0     H82101   5.972   1.661   4.342  2.0635  0.1524 -0.3322
  622MOL0     H82102   5.788   2.044   4.419  1.3298  1.6055  1.7500
  622MOL0     H82103   5.421   1.424   4.354  1.8529 -1.3944 -2.5832
  622MOL0     H82104   5.211   1.317   4.457  1.5452  3.8085  0.5275
  623MOL0     O82105   5.777   1.874  10.836 -0.3204  0.0226 -0.1254
  623MOL0     C82106   5.828   1.982  10.852 -0.4338  1.3473 -0.2797
  623MOL0     O82107   5.783   2.076  10.940  0.0375  0.5639 -0.2618
  623MOL0     C82108   5.661   2.071  10.997  0.2396  0.0538 -0.2894
  623MOL0     C82109   5.657   2.131  11.124  1.1399 -0.6618 -0.2686
  623MOL0     C82110   5.537   2.159  11.192  0.7051 -1.3865  0.1506
  623MOL0     C82111   5.418   2.112  11.132 -0.3600  0.4570  0.0996
  623MOL0     O82112   5.293   2.137  11.196  0.1012  0.3902 -0.4642
  623MOL0     C82113   5.271   2.047  11.304 -0.3017 -0.4031  0.6884
  623MOL0     C82114   5.153   2.103  11.374  0.9363 -0.3313 -0.6877
  623MOL0     C82115   5.192   2.238  11.450 -0.4289  0.5529 -0.1998
  623MOL0     C82116   5.113   2.273  11.576 -0.1718 -0.4014 -0.7943
  623MOL0     C82117   5.162   2.401  11.645  0.0894  0.2762 -0.8522
  623MOL0     C82118   5.061   2.475  11.740 -0.5742 -0.2686  0.3048
  623MOL0     C82119   5.033   2.394  11.871 -0.2349 -0.8285 -0.4263
  623MOL0     C82120   4.906   2.310  11.882  0.3689  0.1516  0.6117
  623MOL0     N82121   4.787   2.392  11.866 -0.5290  0.5376  0.3383
  623MOL0     C82122   4.714   2.438  11.974  0.3190 -0.2567  0.8625
  623MOL0     C82123   4.605   2.496  11.916 -0.1972  0.5082 -0.5979
  623MOL0     C82124   4.510   2.569  12.001  0.3632 -0.0650  0.4463
  623MOL0     C82125   4.360   2.527  11.973 -0.0681  0.0831  0.0032
  623MOL0     C82126   4.260   2.564  12.086 -0.0129  0.1627  0.3360
  623MOL0     C82127   4.237   2.717  12.083 -0.0444  0.1564  0.2550
  623MOL0     O82128   4.129   2.759  12.168 -0.2582  0.0922  0.1640
  623MOL0     C82129   4.001   2.725  12.133 -0.9157 -0.0589 -0.6747
  623MOL0     C82130   3.945   2.701  12.006  0.7789 -0.5882  0.1570
  623MOL0     C82131   3.803   2.673  11.991 -1.3771  0.6742 -0.2472
  623MOL0     C82132   3.713   2.664  12.107 -0.0301  0.3105 -0.0084
  623MOL0     C82133   3.579   2.626  12.087 -0.0730 -0.1678 -0.2864
  623MOL0     O82134   3.532   2.618  11.962 -0.5173 -0.4937 -0.2440
  623MOL0     C82135   3.404   2.571  11.942  0.0142 -0.5113  0.5208
  623MOL0     C82136   3.282   2.636  11.984 -0.3678 -0.4141  0.7633
  623MOL0     C82137   3.157   2.590  11.946  0.8765  0.7481 -0.0732
  623MOL0     C82138   3.138   2.484  11.857  0.0513 -1.1124  0.0262
  623MOL0     O82139   3.014   2.455  11.823 -0.0132 -0.0735  0.0565
  623MOL0     C82140   2.975   2.325  11.779  0.5398 -0.8112 -0.2186
  623MOL0     C82141   2.820   2.308  11.787  0.0353 -0.4573 -0.2447
  623MOL0     C82142   2.770   2.168  11.748 -0.2228 -0.4692 -0.2290
  623MOL0     C82143   2.840   2.055  11.831  0.3515  0.5437  0.4590
  623MOL0     C82144   2.762   1.918  11.807  0.3072  0.1631  0.0995
  623MOL0     C82145   2.834   1.812  11.887 -0.0993 -0.2064  0.0975
  623MOL0     C82146   2.985   1.805  11.898 -0.0197 -0.3483 -0.2884
  623MOL0     C82147   3.035   1.727  12.021 -0.3236  0.3674  0.1631
  623MOL0    Cl82148   3.208   1.736  12.043 -0.4215  0.1172 -0.0177
  623MOL0     C82149   3.256   2.425  11.813  0.2305 -0.2763 -0.8559
  623MOL0     C82150   3.388   2.468  11.848  0.0034 -0.4584  0.0465
  623MOL0     O82151   3.507   2.602  12.189 -1.0069 -0.0890  0.9027
  623MOL0     C82152   3.770   2.697  12.231 -0.4508 -0.7074 -0.1717
  623MOL0     C82153   3.908   2.722  12.241  0.6278 -0.3845 -0.2296
  623MOL0     N82154   4.604   2.480  11.776 -0.2711  0.6613 -0.7285
  623MOL0     N82155   4.722   2.422  11.751  0.0278 -1.1558 -0.1579
  623MOL0     C82156   5.420   2.047  11.012  0.4687  0.0828 -0.2570
  623MOL0     C82157   5.539   2.023  10.941  0.2156 -0.1593 -0.4414
  623MOL0     C82158   5.954   2.009  10.777 -0.0921 -0.4980  0.1493
  623MOL0     C82159   6.000   2.141  10.781 -0.3624  0.0443 -0.0935
  623MOL0     C82160   6.116   2.173  10.712  0.3828  0.0983  0.6592
  623MOL0     C82161   6.181   2.073  10.630  0.9567 -0.1278  0.2815
  623MOL0     O82162   6.296   2.112  10.565  0.5279  0.6500  0.1829
  623MOL0     C82163   6.421   2.051  10.599 -0.5574 -0.0736 -0.3629
  623MOL0     C82164   6.458   2.105  10.743  0.6092  0.5912 -0.1450
  623MOL0     C82165   6.595   2.048  10.778 -0.5047 -0.2610 -0.0284
  623MOL0     C82166   6.635   2.083  10.922  0.9100 -0.3125 -0.7511
  623MOL0     C82167   6.774   2.072  10.954  0.1036  0.0912  0.3242
  623MOL0     C82168   6.895   2.060  10.978 -0.5130 -0.7656  0.0670
  623MOL0     C82169   6.122   1.941  10.613 -0.1126  0.1403 -0.0885
  623MOL0     C82170   6.006   1.912  10.686  1.2324  0.9322  0.5445
  623MOL0     H82171   5.744   2.179  11.168  0.1502  1.3248 -0.3876
  623MOL0     H82172   5.534   2.219  11.282  1.3978  0.8147 -1.2198
  623MOL0     H82173   5.347   2.039  11.383  0.2168 -2.6485  0.0547
  623MOL0     H82174   5.252   1.945  11.269  2.3543 -0.8728  0.4073
  623MOL0     H82175   5.125   2.034  11.454 -0.3468 -0.0829 -0.8940
  623MOL0     H82176   5.071   2.109  11.302 -2.2586  2.4940  2.7099
  623MOL0     H82177   5.178   2.320  11.378 -0.0172  1.9596  1.2630
  623MOL0     H82178   5.296   2.233  11.484 -1.5871 -0.3451  3.6163
  623MOL0     H82179   5.008   2.273  11.543  0.1521  2.0399 -2.0276
  623MOL0     H82180   5.126   2.197  11.653  2.6912 -0.5993 -1.3593
  623MOL0     H82181   5.194   2.476  11.571  1.4234 -0.2121 -0.7951
  623MOL0     H82182   5.255   2.376  11.697 -0.2915 -0.7107 -0.6185
  623MOL0     H82183   4.965   2.494  11.691 -1.0155  0.0657  1.2744
  623MOL0     H82184   5.092   2.579  11.751 -2.5383  0.1696  2.5139
  623MOL0     H82185   5.113   2.321  11.888  3.3628  2.3220 -2.2108
  623MOL0     H82186   5.047   2.464  11.954  0.7538 -0.1055 -1.1736
  623MOL0     H82187   4.904   2.249  11.973 -2.7652  1.1263  1.3321
  623MOL0     H82188   4.903   2.242  11.797  0.7391  1.2891 -0.3422
  623MOL0     H82189   4.741   2.451  12.078  0.0207 -1.9694  1.1825
  623MOL0     H82190   4.531   2.671  11.968  1.4064  1.1707  4.3208
  623MOL0     H82191   4.536   2.569  12.108  2.0776  2.5835  0.1386
  623MOL0     H82192   4.356   2.417  11.971 -2.1228  0.0590  1.6512
  623MOL0     H82193   4.314   2.575  11.887 -1.2981 -0.3530  0.3799
  623MOL0     H82194   4.174   2.502  12.061 -0.6853  1.4333 -0.5674
  623MOL0     H82195   4.312   2.538  12.179  1.9315  0.7526 -0.5261
  623MOL0     H82196   4.222   2.764  11.985  0.2912  0.9255  0.5662
  623MOL0     H82197   4.328   2.765  12.118  0.8975 -0.5556 -1.1259
  623MOL0     H82198   4.020   2.712  11.928 -0.6615  1.6606 -1.0358
  623MOL0     H82199   3.765   2.651  11.892 -0.2232 -2.1761 -0.1709
  623MOL0     H82200   3.275   2.716  12.056 -3.6117 -0.0898  0.2601
  623MOL0     H82201   3.067   2.642  11.977  0.3429  0.2945 -0.8199
  623MOL0     H82202   3.017   2.249  11.845 -2.5064 -3.1820 -0.7865
  623MOL0     H82203   3.024   2.304  11.683 -0.2814  2.0684 -1.3622
  623MOL0     H82204   2.785   2.389  11.722  3.4470 -1.1010 -3.1606
  623MOL0     H82205   2.787   2.325  11.890  0.1697  0.5607 -0.3551
  623MOL0     H82206   2.790   2.156  11.641  0.0692  3.3970 -0.7647
  623MOL0     H82207   2.662   2.154  11.743 -0.4379  1.1325 -0.9832
  623MOL0     H82208   2.945   2.056  11.798  0.0020  1.0340 -0.6723
  623MOL0     H82209   2.840   2.086  11.936  0.0688 -0.0132  0.6285
  623MOL0     H82210   2.762   1.877  11.706  4.2454 -1.0366  0.4113
  623MOL0     H82211   2.662   1.928  11.852 -1.0555 -6.0738 -0.5952
  623MOL0     H82212   2.806   1.708  11.869 -0.5511 -0.3899  1.7483
  623MOL0     H82213   2.799   1.816  11.990  1.3122  0.2822  0.5854
  623MOL0     H82214   3.029   1.764  11.806 -1.0586  1.0162 -1.4305
  623MOL0     H82215   3.036   1.900  11.913 -0.1794 -0.0583 -1.5049
  623MOL0     H82216   3.021   1.620  12.006  0.7782  0.2445 -0.0738
  623MOL0     H82217   2.980   1.767  12.106  1.3458  1.3076  0.8401
  623MOL0     H82218   3.248   2.343  11.742  0.1179 -1.5728  0.6068
  623MOL0     H82219   3.477   2.426  11.801  0.4392 -1.1903  1.4922
  623MOL0     H82220   3.718   2.680  12.325  0.8902 -0.5176  0.6266
  623MOL0     H82221   3.948   2.760  12.334  1.8646 -0.7115 -0.6101
  623MOL0     H82222   5.323   2.011  10.981 -0.3853  1.1895  1.0197
  623MOL0     H82223   5.536   1.993  10.836  0.8036  1.6221 -1.0024
  623MOL0     H82224   5.960   2.217  10.848  0.6917  1.1206 -0.6561
  623MOL0     H82225   6.158   2.271  10.731 -0.0577  0.2140  1.0758
  623MOL0     H82226   6.497   2.068  10.521  0.0855 -3.0686 -0.5113
  623MOL0     H82227   6.413   1.943  10.615 -0.4101 -0.3705 -2.0314
  623MOL0     H82228   6.460   2.215  10.747 -3.5905  0.8843 -1.4006
  623MOL0     H82229   6.388   2.073  10.821  0.4589 -0.8472 -0.8492
  623MOL0     H82230   6.671   2.076  10.705  0.2422  0.5870  1.0428
  623MOL0     H82231   6.606   1.941  10.763  2.9256 -0.4455  2.5236
  623MOL0     H82232   6.594   2.181  10.947 -0.7864 -0.2379 -3.4261
  623MOL0     H82233   6.577   2.015  10.986 -1.5666  2.2325 -0.1210
  623MOL0     H82234   6.999   2.046  10.994 -1.1182 -1.1303  5.3127
  623MOL0     H82235   6.170   1.876  10.541  2.1473  1.8515 -0.2262
  623MOL0     H82236   5.964   1.813  10.669  2.4492  0.6794 -1.3558
  624MOL0     O82237   0.639   2.398  10.400 -0.4005  0.3027 -0.1064
  624MOL0     C82238   0.696   2.351  10.501  0.6777 -0.3778  0.2336
  624MOL0     O82239   0.800   2.266  10.499  0.1595 -0.2031  0.0861
  624MOL0     C82240   0.854   2.234  10.382  0.4750  1.0981  0.3265
  624MOL0     C82241   0.875   2.095  10.356 -0.5848 -0.0306 -0.1344
  624MOL0     C82242   0.952   2.062  10.240  1.2451  0.6951 -0.3362
  624MOL0     C82243   0.992   2.150  10.145 -0.4124 -0.3678 -1.2621
  624MOL0     O82244   1.085   2.111  10.046  0.6592 -0.0530 -0.4916
  624MOL0     C82245   1.212   2.127  10.100 -0.2769  0.7436  0.0371
  624MOL0     C82246   1.324   2.066  10.027 -0.1610 -0.3141 -0.1654
  624MOL0     C82247   1.310   2.103   9.877 -0.2478  0.3990  0.2348
  624MOL0     C82248   1.225   2.008   9.793 -0.3029 -0.8764 -0.4311
  624MOL0     C82249   1.195   2.062   9.662  0.6581  0.3647 -0.4212
  624MOL0     C82250   1.165   1.955   9.555  0.2346 -0.0390 -0.3443
  624MOL0     C82251   1.292   1.875   9.519  0.8167 -0.5417 -0.6533
  624MOL0     C82252   1.292   1.782   9.392  0.2817  1.2196  0.4218
  624MOL0     N82253   1.236   1.842   9.269  0.2446 -0.4605  0.1628
  624MOL0     C82254   1.157   1.783   9.169  0.3893  0.8277 -0.6611
  624MOL0     C82255   1.122   1.890   9.082 -0.1080  0.0829 -0.8091
  624MOL0     C82256   1.027   1.897   8.967  0.6565 -0.0097 -0.6150
  624MOL0     C82257   0.887   1.848   9.013 -0.5296  0.1915  0.4129
  624MOL0     C82258   0.801   1.847   8.883 -0.0413  0.4979  0.4242
  624MOL0     C82259   0.676   1.770   8.903  0.0516 -0.4816 -0.0181
  624MOL0     O82260   0.592   1.869   8.966 -0.5583 -0.0630 -0.5781
  624MOL0     C82261   0.452   1.868   8.952  0.0362  1.6415 -0.2490
  624MOL0     C82262   0.381   1.980   8.989 -0.2247 -0.2032  0.5431
  624MOL0     C82263   0.240   1.985   8.986 -0.3351  0.1854 -0.0279
  624MOL0     C82264   0.164   1.866   8.971 -0.0408 -0.0649  0.1791
  624MOL0     C82265   0.016   1.861   8.988 -0.5356 -0.6937 -0.2626
  624MOL0     O82266  -0.038   1.987   8.999 -0.4869  0.6233  0.1921
  624MOL0     C82267  -0.169   2.012   9.007 -0.2555 -0.7496  0.1662
  624MOL0     C82268  -0.253   1.929   9.090  0.8242 -0.5906 -1.1602
  624MOL0     C82269  -0.378   1.973   9.136 -0.9764  0.5513  0.3960
  624MOL0     C82270  -0.420   2.101   9.095  1.0915 -0.0548  0.7094
  624MOL0     O82271  -0.546   2.149   9.126  0.0345 -0.8230 -0.1151
  624MOL0     C82272  -0.647   2.057   9.166  0.6091  0.3147  0.0878
  624MOL0     C82273  -0.724   2.007   9.049  0.2530 -0.1071 -0.3342
  624MOL0     C82274  -0.847   2.097   9.018  0.2799  0.1179 -0.2308
  624MOL0     C82275  -0.954   2.100   9.131 -0.0577  0.3883 -0.1562
  624MOL0     C82276  -1.081   2.156   9.079 -0.7116  0.3774  0.5246
  624MOL0     C82277  -1.195   2.163   9.170 -0.5918  0.5884 -0.2323
  624MOL0     C82278  -1.317   2.239   9.119  0.0102  0.1042 -0.1088
  624MOL0     C82279  -1.433   2.232   9.219 -0.1146 -0.1956 -0.3628
  624MOL0    Cl82280  -1.380   2.341   9.359  0.0263  0.0288  0.3254
  624MOL0     C82281  -0.342   2.185   9.027 -0.9649  0.1966  0.2759
  624MOL0     C82282  -0.217   2.141   8.982 -0.0349  0.1545 -0.3868
  624MOL0     O82283  -0.042   1.753   8.992 -0.0318  0.1957  0.1950
  624MOL0     C82284   0.244   1.751   8.931  0.4149 -0.9045  0.5606
  624MOL0     C82285   0.377   1.759   8.910  0.4296  0.6254 -0.7651
  624MOL0     N82286   1.194   1.999   9.126 -0.6177 -0.3341 -0.1491
  624MOL0     N82287   1.257   1.973   9.236  0.5367 -0.0326  0.3129
  624MOL0     C82288   0.966   2.289  10.171 -0.0687  0.1524  0.1554
  624MOL0     C82289   0.905   2.333  10.295 -0.1977 -0.1489 -0.3277
  624MOL0     C82290   0.635   2.385  10.630 -0.0981 -0.1769 -0.7917
  624MOL0     C82291   0.702   2.364  10.752 -0.4438  0.8082 -0.1469
  624MOL0     C82292   0.651   2.393  10.881 -0.0414 -0.4716 -0.5354
  624MOL0     C82293   0.518   2.445  10.884  0.1254  0.2110  0.0011
  624MOL0     O82294   0.444   2.482  10.991 -0.4032  0.3858  0.1345
  624MOL0     C82295   0.506   2.492  11.123 -0.2297  0.6058 -0.4399
  624MOL0     C82296   0.397   2.533  11.231 -1.4816 -0.3171 -0.2068
  624MOL0     C82297   0.280   2.423  11.254 -0.1219 -0.3793 -0.7280
  624MOL0     C82298   0.171   2.449  11.160 -0.9849  0.3288  0.6279
  624MOL0     C82299   0.071   2.347  11.170  0.2411 -0.0882 -0.0624
  624MOL0     C82300   0.009   2.243  11.171  0.8220  0.2246 -0.0815
  624MOL0     C82301   0.455   2.474  10.767 -0.6491 -0.3173 -0.1540
  624MOL0     C82302   0.503   2.437  10.640 -1.1006  0.5053 -0.5600
  624MOL0     H82303   0.838   2.015  10.419 -3.1323  0.0142 -1.4452
  624MOL0     H82304   0.968   1.956  10.226 -1.5566 -0.0027  0.9267
  624MOL0     H82305   1.219   2.090  10.203 -0.4993 -3.7065 -1.3371
  624MOL0     H82306   1.233   2.235  10.094  2.1187  0.2731 -1.9978
  624MOL0     H82307   1.345   1.959  10.033 -1.1129 -0.5156 -0.2047
  624MOL0     H82308   1.416   2.117  10.056 -0.0234  0.9963 -2.6732
  624MOL0     H82309   1.406   2.118   9.827 -0.5513  1.9335  0.0580
  624MOL0     H82310   1.261   2.200   9.872 -0.5162  0.3197  1.1065
  624MOL0     H82311   1.266   1.906   9.791  1.0833 -0.3378 -2.2321
  624MOL0     H82312   1.123   1.995   9.831  0.2816  0.9636  2.0202
  624MOL0     H82313   1.277   2.118   9.617 -1.0338  1.0926 -2.7954
  624MOL0     H82314   1.111   2.133   9.661  2.7508  3.0085  0.3434
  624MOL0     H82315   1.135   2.001   9.461 -0.2715 -2.7286 -1.6100
  624MOL0     H82316   1.084   1.889   9.588 -0.3889 -0.5162 -2.6365
  624MOL0     H82317   1.373   1.948   9.513  0.0688  0.4063  0.3124
  624MOL0     H82318   1.322   1.814   9.605 -1.2814  0.4105  0.8414
  624MOL0     H82319   1.243   1.690   9.426 -2.0183  3.3018  3.2469
  624MOL0     H82320   1.392   1.749   9.363  0.5990  4.0333 -2.2931
  624MOL0     H82321   1.107   1.687   9.169  0.1998  0.6937  4.0551
  624MOL0     H82322   1.065   1.839   8.883  1.1058 -1.0492  0.2778
  624MOL0     H82323   1.033   1.998   8.926 -0.8847  1.5637  2.5915
  624MOL0     H82324   0.862   1.920   9.092 -0.4803  0.6734 -0.0063
  624MOL0     H82325   0.902   1.749   9.058  3.2166  1.2404  1.8354
  624MOL0     H82326   0.777   1.950   8.854 -2.5904  0.2714  1.4070
  624MOL0     H82327   0.863   1.814   8.800  3.2072 -0.3211  2.9463
  624MOL0     H82328   0.685   1.675   8.956  0.8557 -2.1889 -2.9515
  624MOL0     H82329   0.638   1.752   8.801  0.0889 -2.6806  0.3163
  624MOL0     H82330   0.431   2.069   9.026 -0.4408  0.2708 -0.2881
  624MOL0     H82331   0.199   2.084   9.005 -0.8679 -0.5699  3.3464
  624MOL0     H82332  -0.212   1.846   9.146 -0.3456  1.2048  2.6732
  624MOL0     H82333  -0.420   1.910   9.214  1.1118  0.3194  1.3914
  624MOL0     H82334  -0.718   2.096   9.238  0.6715 -1.2440  1.0370
  624MOL0     H82335  -0.602   1.974   9.221  2.2486  1.5627  0.7318
  624MOL0     H82336  -0.761   1.906   9.074  0.4557  0.1689  1.1483
  624MOL0     H82337  -0.654   1.998   8.965  2.5245 -0.4474  1.5084
  624MOL0     H82338  -0.895   2.057   8.929  1.6152 -0.2136 -0.8207
  624MOL0     H82339  -0.807   2.196   8.992  0.0394  0.2723 -0.0258
  624MOL0     H82340  -0.971   2.005   9.183  3.6328 -0.1380  0.3927
  624MOL0     H82341  -0.914   2.168   9.207 -1.4692  2.1306 -0.9082
  624MOL0     H82342  -1.104   2.094   8.991  1.2278  0.2118  0.0748
  624MOL0     H82343  -1.056   2.258   9.048 -2.0370  0.3688 -0.6537
  624MOL0     H82344  -1.162   2.216   9.260  1.8254 -0.2745 -0.5630
  624MOL0     H82345  -1.229   2.065   9.204 -0.2015  0.1558 -1.0682
  624MOL0     H82346  -1.288   2.336   9.079  0.3986  0.4071  0.8837
  624MOL0     H82347  -1.364   2.187   9.034 -1.9660 -0.1612  1.0861
  624MOL0     H82348  -1.456   2.131   9.255 -0.9544 -0.4315 -1.4751
  624MOL0     H82349  -1.524   2.277   9.177 -0.2991  0.4091  0.6529
  624MOL0     H82350  -0.392   2.279   9.010  0.0543  0.5530 -0.8466
  624MOL0     H82351  -0.146   2.212   8.940  0.3098  0.1190  0.1318
  624MOL0     H82352   0.196   1.657   8.907 -1.0889 -0.7657  2.7314
  624MOL0     H82353   0.430   1.667   8.888  0.6863  0.1515  1.5437
  624MOL0     H82354   1.018   2.353  10.100 -0.3577  1.3554  1.0029
  624MOL0     H82355   0.880   2.438  10.308  1.1953 -0.0915  2.6349
  624MOL0     H82356   0.806   2.332  10.753 -0.6378  0.1553  0.2752
  624MOL0     H82357   0.708   2.383  10.973  0.7322 -1.6214 -1.1143
  624MOL0     H82358   0.593   2.559  11.122 -1.0442  1.6939 -0.0496
  624MOL0     H82359   0.557   2.401  11.156  0.9832  1.1950 -0.6251
  624MOL0     H82360   0.441   2.544  11.330 -1.6425  0.6757 -0.2380
  624MOL0     H82361   0.354   2.625  11.191  3.0294  2.1291 -0.0714
  624MOL0     H82362   0.257   2.442  11.360  1.6513 -1.2854 -0.1302
  624MOL0     H82363   0.315   2.319  11.248 -2.7761 -1.2680 -2.1323
  624MOL0     H82364   0.128   2.542  11.198  2.6153  1.3764  2.4959
  624MOL0     H82365   0.223   2.472  11.066  2.6146  0.7547  2.5532
  624MOL0     H82366  -0.028   2.142  11.175  2.0049 -0.1983  3.0725
  624MOL0     H82367   0.365   2.534  10.765 -0.0326  0.8254  2.3368
  624MOL0     H82368   0.449   2.446  10.546 -3.4838 -1.1633  0.5477
  625MOL0     O82369   1.323   6.043   6.196  0.0837  0.5896 -0.0377
  625MOL0     C82370   1.280   5.928   6.227 -0.2848 -1.5494 -0.5251
  625MOL0     O82371   1.146   5.889   6.216 -0.6180  0.1508  0.2830
  625MOL0     C82372   1.065   5.983   6.169  0.8245  0.9330  0.4983
  625MOL0     C82373   1.022   6.087   6.244  0.1194 -0.0550  0.5524
  625MOL0     C82374   0.933   6.180   6.192 -0.5553 -0.5561  0.9332
  625MOL0     C82375   0.886   6.165   6.062  0.4156 -0.6221 -0.2218
  625MOL0     O82376   0.818   6.279   6.008 -0.9303  0.0638 -0.0204
  625MOL0     C82377   0.830   6.314   5.872 -0.4183 -0.2281 -1.4246
  625MOL0     C82378   0.765   6.448   5.854  0.1555 -0.5400 -0.0637
  625MOL0     C82379   0.617   6.441   5.845  0.0472 -0.4456  0.0898
  625MOL0     C82380   0.540   6.451   5.980 -0.4431 -0.4974 -0.0266
  625MOL0     C82381   0.396   6.407   5.966  0.1632  0.1692 -0.0853
  625MOL0     C82382   0.314   6.427   6.092  0.9830  0.3094 -0.5505
  625MOL0     C82383   0.170   6.383   6.070  0.1920  1.4740 -0.7923
  625MOL0     C82384   0.070   6.450   6.169  0.5313 -0.8938  0.1165
  625MOL0     N82385   0.064   6.386   6.306 -0.6431 -0.2905 -0.3112
  625MOL0     C82386  -0.018   6.418   6.414 -0.7840 -0.0239 -0.5200
  625MOL0     C82387   0.022   6.333   6.519 -0.8322 -0.0511  0.2369
  625MOL0     C82388  -0.042   6.301   6.646  0.0061 -1.4664  0.9543
  625MOL0     C82389  -0.179   6.361   6.666 -0.1799 -0.8290 -0.1443
  625MOL0     C82390  -0.230   6.337   6.800 -0.5959 -0.2172 -0.3053
  625MOL0     C82391  -0.371   6.387   6.829 -0.5866 -0.3699  0.7926
  625MOL0     O82392  -0.460   6.322   6.741 -0.1308 -0.4712 -0.1967
  625MOL0     C82393  -0.588   6.324   6.775 -0.3748  0.9847  0.4197
  625MOL0     C82394  -0.648   6.423   6.854  0.2951  0.0777  1.0776
  625MOL0     C82395  -0.784   6.414   6.882 -0.3654  0.4762 -0.7981
  625MOL0     C82396  -0.868   6.308   6.850 -0.8464  0.7971  0.3892
  625MOL0     C82397  -1.000   6.280   6.907 -0.0393 -0.4662  0.8172
  625MOL0     O82398  -1.036   6.343   7.021  0.0565 -0.2437  0.1893
  625MOL0     C82399  -1.150   6.310   7.096 -0.6516  0.5055  0.0976
  625MOL0     C82400  -1.225   6.190   7.089 -0.2709  0.2795 -0.5544
  625MOL0     C82401  -1.341   6.167   7.162 -0.4810  0.2878 -0.5430
  625MOL0     C82402  -1.379   6.259   7.257 -0.8884 -0.4050  0.2098
  625MOL0     O82403  -1.493   6.260   7.322  0.3720  0.0998  0.3829
  625MOL0     C82404  -1.609   6.199   7.261 -0.2324  0.3673  0.3822
  625MOL0     C82405  -1.741   6.265   7.295  0.2514 -0.0155 -0.2793
  625MOL0     C82406  -1.861   6.196   7.212  0.2263 -0.5307  0.3504
  625MOL0     C82407  -1.992   6.260   7.239 -0.2578 -0.8045 -0.4402
  625MOL0     C82408  -2.112   6.206   7.169 -0.0147  0.3147  0.4780
  625MOL0     C82409  -2.111   6.224   7.010 -0.8218  0.8726  0.9654
  625MOL0     C82410  -2.229   6.136   6.949 -0.2510  0.7053  0.3566
  625MOL0     C82411  -2.275   6.194   6.821 -0.1334 -0.0933  0.0800
  625MOL0    Cl82412  -2.135   6.203   6.696  0.2731  0.1244  0.4893
  625MOL0     C82413  -1.291   6.368   7.278 -0.5033  0.2745 -0.7241
  625MOL0     C82414  -1.185   6.401   7.196 -0.4637  0.5753 -0.3858
  625MOL0     O82415  -1.062   6.194   6.853  0.5083  0.5402 -0.5956
  625MOL0     C82416  -0.807   6.217   6.758 -0.8413 -0.3355 -0.0024
  625MOL0     C82417  -0.667   6.221   6.729 -0.6471  0.1626 -0.5130
  625MOL0     N82418   0.126   6.258   6.477  0.1624 -0.3009  0.2684
  625MOL0     N82419   0.152   6.293   6.355  0.3155  0.0572  0.4401
  625MOL0     C82420   0.923   6.057   5.982  0.0139 -0.1514 -0.1443
  625MOL0     C82421   1.016   5.971   6.044  0.5472  0.8606 -0.1688
  625MOL0     C82422   1.375   5.839   6.297  0.1086 -1.0079 -0.5764
  625MOL0     C82423   1.506   5.890   6.310  0.1755  0.2772  0.8865
  625MOL0     C82424   1.593   5.814   6.385  0.1315  0.3121  0.5449
  625MOL0     C82425   1.557   5.702   6.457  0.6525 -0.6882  0.4094
  625MOL0     O82426   1.643   5.632   6.542  0.1975  0.6599  0.3893
  625MOL0     C82427   1.784   5.663   6.524  0.4648 -0.0825 -0.7184
  625MOL0     C82428   1.829   5.788   6.607  0.3531  0.0695  0.6202
  625MOL0     C82429   1.791   5.755   6.749  0.3147  0.6513 -0.2683
  625MOL0     C82430   1.839   5.865   6.841  0.3463 -0.1806  0.3445
  625MOL0     C82431   1.983   5.851   6.893  0.8253  1.5566  1.0612
  625MOL0     C82432   2.090   5.843   6.948 -0.5217 -0.0465  0.3248
  625MOL0     C82433   1.422   5.659   6.449 -0.6776 -0.0885 -0.3303
  625MOL0     C82434   1.333   5.719   6.365 -0.5286  0.7988 -0.0538
  625MOL0     H82435   1.049   6.104   6.347 -0.3617  4.4000  0.1395
  625MOL0     H82436   0.895   6.265   6.248 -0.7595 -0.3390  0.4732
  625MOL0     H82437   0.779   6.243   5.807 -3.3994  1.0829 -0.7176
  625MOL0     H82438   0.938   6.320   5.858 -0.3476 -0.5745 -1.0400
  625MOL0     H82439   0.802   6.490   5.760  2.1807  1.9215  1.6879
  625MOL0     H82440   0.803   6.521   5.926  0.6476 -0.2039 -0.6569
  625MOL0     H82441   0.581   6.349   5.799 -0.6926 -0.1208  0.0161
  625MOL0     H82442   0.578   6.515   5.774 -1.2415 -2.9533 -1.9494
  625MOL0     H82443   0.599   6.402   6.058  0.5088  4.2205  2.5619
  625MOL0     H82444   0.533   6.556   6.009 -0.7166 -0.7523  0.8674
  625MOL0     H82445   0.401   6.304   5.929  0.1399  0.8371 -2.0488
  625MOL0     H82446   0.352   6.470   5.888 -0.7146  0.0421  0.3009
  625MOL0     H82447   0.320   6.533   6.119  1.0966  0.1799 -0.0473
  625MOL0     H82448   0.361   6.379   6.179 -0.3474  0.9617  0.5798
  625MOL0     H82449   0.136   6.421   5.973  0.5774  1.3171 -0.9896
  625MOL0     H82450   0.174   6.273   6.071  1.6594  1.4878 -1.8537
  625MOL0     H82451  -0.031   6.456   6.129  1.0791  1.6558 -1.1165
  625MOL0     H82452   0.095   6.556   6.181 -1.2907 -0.4277  0.0887
  625MOL0     H82453  -0.104   6.482   6.403 -1.0730 -0.5059 -1.1254
  625MOL0     H82454   0.034   6.333   6.717  0.4821 -3.2324  1.3034
  625MOL0     H82455  -0.055   6.192   6.646  0.6977 -1.5820 -0.5734
  625MOL0     H82456  -0.249   6.309   6.600 -1.1432 -0.7104  0.7706
  625MOL0     H82457  -0.172   6.469   6.652 -0.6888 -0.3089  3.0037
  625MOL0     H82458  -0.212   6.233   6.829 -1.0309  0.2309  1.6958
  625MOL0     H82459  -0.159   6.390   6.864  0.1020  0.5747 -1.6940
  625MOL0     H82460  -0.384   6.492   6.803 -1.4831 -0.6498  0.0301
  625MOL0     H82461  -0.408   6.382   6.932 -1.9366  4.7494  0.8123
  625MOL0     H82462  -0.594   6.509   6.893 -2.4941  1.8125  1.4167
  625MOL0     H82463  -0.825   6.503   6.928 -0.7020  0.8934 -1.8792
  625MOL0     H82464  -1.183   6.117   7.021  0.6306  2.8457 -2.9095
  625MOL0     H82465  -1.396   6.075   7.145 -0.4300  0.4983 -1.9835
  625MOL0     H82466  -1.616   6.099   7.305 -2.2109  1.1556  2.0229
  625MOL0     H82467  -1.597   6.188   7.152 -1.2226  0.6444  0.2346
  625MOL0     H82468  -1.747   6.370   7.266 -1.8907  0.1856  0.6899
  625MOL0     H82469  -1.755   6.269   7.403 -1.5346 -1.7323 -0.3813
  625MOL0     H82470  -1.860   6.090   7.237 -3.0085  0.1187  4.2981
  625MOL0     H82471  -1.844   6.204   7.104  0.8315  3.1661  0.5832
  625MOL0     H82472  -2.014   6.244   7.344 -1.2655  1.3620 -0.2715
  625MOL0     H82473  -1.974   6.365   7.213  2.3597 -1.0525  0.1007
  625MOL0     H82474  -2.202   6.259   7.203  0.0296  0.7984 -0.1245
  625MOL0     H82475  -2.127   6.104   7.205  0.3956 -0.2813 -0.9811
  625MOL0     H82476  -2.021   6.177   6.967 -1.5067 -0.1996  0.6688
  625MOL0     H82477  -2.109   6.330   6.985  1.1023  1.2253  2.3016
  625MOL0     H82478  -2.194   6.034   6.931  1.4779  1.2514  0.5014
  625MOL0     H82479  -2.317   6.123   7.013 -0.9963  0.7973 -0.6162
  625MOL0     H82480  -2.320   6.294   6.829 -4.3303 -1.6198 -1.5905
  625MOL0     H82481  -2.356   6.132   6.781 -2.3430  1.8913  1.1923
  625MOL0     H82482  -1.314   6.437   7.359  1.1920 -0.4206  0.4117
  625MOL0     H82483  -1.131   6.491   7.221 -0.9577  1.6905 -3.0465
  625MOL0     H82484  -0.861   6.131   6.720  0.6223 -1.2620 -0.0259
  625MOL0     H82485  -0.620   6.149   6.663 -1.3957 -2.0810  1.2446
  625MOL0     H82486   0.889   6.035   5.881 -1.3025  4.6199 -0.9924
  625MOL0     H82487   1.050   5.900   5.968 -1.1400  1.3611 -1.4457
  625MOL0     H82488   1.539   5.984   6.266  0.6537 -0.0586  0.5151
  625MOL0     H82489   1.691   5.861   6.373 -0.1051  0.3840 -1.4116
  625MOL0     H82490   1.800   5.683   6.417  1.3771  0.2238 -0.5337
  625MOL0     H82491   1.844   5.573   6.543  0.3986  0.1204  0.5251
  625MOL0     H82492   1.936   5.795   6.586  0.3197  2.3414  0.9287
  625MOL0     H82493   1.771   5.878   6.583 -1.1827 -0.4437  2.2071
  625MOL0     H82494   1.845   5.661   6.762 -0.0763  0.3291 -0.9743
  625MOL0     H82495   1.684   5.741   6.762  0.5145 -0.6332  0.0966
  625MOL0     H82496   1.831   5.958   6.784 -0.5589 -1.1989 -1.2592
  625MOL0     H82497   1.770   5.877   6.925 -1.6660 -0.5949 -1.1842
  625MOL0     H82498   2.172   5.828   7.016  0.1510 -3.3951 -1.0285
  625MOL0     H82499   1.396   5.570   6.506  0.5130 -1.4850 -1.8370
  625MOL0     H82500   1.229   5.687   6.365 -0.6122  0.8979 -2.5666
  626MOL0     O82501   1.626   3.991   7.508 -0.2541 -0.2707  0.4063
  626MOL0     C82502   1.692   4.090   7.555 -0.6240 -0.2044  0.4495
  626MOL0     O82503   1.630   4.199   7.611  0.4323  0.2900  0.2668
  626MOL0     C82504   1.495   4.194   7.634  0.5105  0.4578 -0.7982
  626MOL0     C82505   1.411   4.296   7.575 -1.5478  0.3137 -0.1097
  626MOL0     C82506   1.279   4.293   7.597  0.6626 -0.6959  0.4022
  626MOL0     C82507   1.216   4.192   7.663  0.3527 -0.2313  0.0153
  626MOL0     O82508   1.081   4.202   7.678 -0.1981 -0.0541  0.8330
  626MOL0     C82509   1.002   4.091   7.699 -0.2083 -0.1001  0.1836
  626MOL0     C82510   0.938   4.082   7.840  0.9067  0.6255  0.1700
  626MOL0     C82511   0.844   4.205   7.874 -0.1208 -0.2178  0.4807
  626MOL0     C82512   0.788   4.180   8.020  0.4594 -0.2040 -0.2505
  626MOL0     C82513   0.656   4.259   8.064 -0.0222 -0.2512  0.5856
  626MOL0     C82514   0.660   4.405   8.031  0.1246  0.0494  0.3235
  626MOL0     C82515   0.554   4.489   8.090 -0.4947 -0.5469 -0.4869
  626MOL0     C82516   0.535   4.625   8.007 -0.6213  0.4070  0.3863
  626MOL0     N82517   0.664   4.690   7.987  0.3383 -0.6036 -0.0891
  626MOL0     C82518   0.756   4.729   8.083 -0.0354 -0.2143  0.3921
  626MOL0     C82519   0.866   4.739   8.007  0.0841 -0.3314 -0.3736
  626MOL0     C82520   1.004   4.733   8.062 -0.5027 -0.4969 -0.1683
  626MOL0     C82521   1.049   4.595   8.111 -0.0430 -0.2921  0.3180
  626MOL0     C82522   1.094   4.504   7.995 -0.3788 -0.1744 -0.0152
  626MOL0     C82523   1.179   4.388   8.036  0.7167 -0.4937  0.1768
  626MOL0     O82524   1.289   4.426   8.116  0.2591  0.6975 -0.1830
  626MOL0     C82525   1.414   4.442   8.059 -0.3916  0.5570 -0.0335
  626MOL0     C82526   1.503   4.510   8.140 -0.1317 -0.4021 -0.2810
  626MOL0     C82527   1.635   4.519   8.105 -0.5543 -0.7073 -0.1035
  626MOL0     C82528   1.680   4.473   7.977  0.0055  0.6084 -0.5789
  626MOL0     C82529   1.821   4.482   7.937  0.0501 -0.6575 -0.3203
  626MOL0     O82530   1.904   4.548   8.020 -0.4442 -0.2604 -0.7420
  626MOL0     C82531   2.039   4.559   7.981 -0.5647 -0.0976  0.5924
  626MOL0     C82532   2.081   4.587   7.848  0.1740 -0.4380 -0.1423
  626MOL0     C82533   2.212   4.616   7.818 -0.3580  0.6757  0.5248
  626MOL0     C82534   2.315   4.622   7.906  0.4760  0.2478 -0.9693
  626MOL0     O82535   2.449   4.652   7.881 -0.3006  0.1216  0.7004
  626MOL0     C82536   2.491   4.595   7.760 -0.9958 -0.7210  0.5890
  626MOL0     C82537   2.638   4.582   7.763  0.0808  0.6673 -0.2396
  626MOL0     C82538   2.710   4.709   7.765 -0.7660  0.6123  0.0002
  626MOL0     C82539   2.863   4.693   7.756  0.1871 -0.0462 -0.3609
  626MOL0     C82540   2.924   4.650   7.620 -0.2715  1.2432  0.1640
  626MOL0     C82541   3.076   4.612   7.635  0.9694  0.7331  1.2466
  626MOL0     C82542   3.099   4.463   7.693  0.1189 -0.9708  1.0066
  626MOL0     C82543   3.230   4.407   7.622  0.5513  1.0031  0.7815
  626MOL0    Cl82544   3.195   4.339   7.461  0.1791  0.1075 -0.1979
  626MOL0     C82545   2.289   4.583   8.039  0.7002 -0.7615 -0.7283
  626MOL0     C82546   2.150   4.551   8.071  0.0227 -0.4003  0.6492
  626MOL0     O82547   1.852   4.425   7.832  0.1693 -0.2868  0.3395
  626MOL0     C82548   1.589   4.408   7.896 -0.3445 -0.6701 -0.8710
  626MOL0     C82549   1.460   4.390   7.937 -0.1339  0.0761  0.1399
  626MOL0     N82550   0.836   4.732   7.867  0.0407 -0.2868  0.3555
  626MOL0     N82551   0.713   4.703   7.867  0.4810  0.5846  0.1141
  626MOL0     C82552   1.289   4.096   7.728 -1.4930  0.2265 -0.2516
  626MOL0     C82553   1.429   4.096   7.709 -0.0752 -0.6723  0.1315
  626MOL0     C82554   1.841   4.076   7.571  0.1038  0.1553 -0.5344
  626MOL0     C82555   1.909   3.953   7.528  0.5316  0.0790 -0.4367
  626MOL0     C82556   2.049   3.952   7.527 -0.0196  0.5196 -0.7660
  626MOL0     C82557   2.131   4.055   7.561  0.6841  0.3470 -0.2934
  626MOL0     O82558   2.269   4.042   7.548 -0.3719 -0.1831 -0.0587
  626MOL0     C82559   2.335   3.924   7.592 -0.1797 -0.7675  0.1575
  626MOL0     C82560   2.473   3.973   7.642  0.6879 -0.1330  1.4620
  626MOL0     C82561   2.536   4.051   7.525  0.0199  0.1002  0.2039
  626MOL0     C82562   2.680   4.081   7.561 -0.6478 -0.0026  0.5182
  626MOL0     C82563   2.737   4.174   7.463 -0.3168 -0.9136 -0.6688
  626MOL0     C82564   2.785   4.255   7.382 -0.6891 -0.1876 -1.5935
  626MOL0     C82565   2.067   4.173   7.608 -0.4725 -0.1972 -0.1049
  626MOL0     C82566   1.921   4.186   7.614 -0.5008  0.2119  0.8354
  626MOL0     H82567   1.456   4.379   7.521 -0.3866 -0.0884  0.2119
  626MOL0     H82568   1.230   4.374   7.544 -0.4051 -0.4628  1.7101
  626MOL0     H82569   1.064   4.002   7.688  1.4494  0.7789  1.8755
  626MOL0     H82570   0.923   4.093   7.623 -1.7573  2.1090  1.7216
  626MOL0     H82571   1.007   4.078   7.925 -1.5265 -0.4581  2.2166
  626MOL0     H82572   0.881   3.988   7.841  0.1645  1.0169 -1.4923
  626MOL0     H82573   0.762   4.213   7.803  2.1529  3.1796 -2.1095
  626MOL0     H82574   0.905   4.295   7.860 -0.2263 -0.3287 -0.8415
  626MOL0     H82575   0.754   4.078   8.037 -0.0879 -0.6095 -3.3309
  626MOL0     H82576   0.862   4.202   8.099 -0.6508  1.6785  0.3318
  626MOL0     H82577   0.644   4.234   8.170  0.9640 -0.3950  0.6764
  626MOL0     H82578   0.568   4.220   8.013 -1.0666  3.9363 -1.2220
  626MOL0     H82579   0.663   4.430   7.925 -5.9187 -2.1553 -0.7673
  626MOL0     H82580   0.760   4.431   8.066  1.0223 -2.4970 -0.1484
  626MOL0     H82581   0.463   4.429   8.083 -0.0847 -1.2993  0.4245
  626MOL0     H82582   0.583   4.513   8.193  1.5751 -1.7730 -0.7342
  626MOL0     H82583   0.462   4.694   8.049 -0.4425  1.0599 -0.3525
  626MOL0     H82584   0.502   4.602   7.905 -1.6904 -1.3797  1.0826
  626MOL0     H82585   0.744   4.716   8.190 -0.0203  0.4050  0.4707
  626MOL0     H82586   1.011   4.800   8.148  2.1568  1.0663 -1.4820
  626MOL0     H82587   1.063   4.784   7.985 -1.6694  0.7890 -0.2485
  626MOL0     H82588   0.964   4.550   8.164  0.6236 -0.3370  1.3898
  626MOL0     H82589   1.133   4.613   8.179  2.3632 -1.2918 -2.1993
  626MOL0     H82590   1.012   4.476   7.928  0.3896 -1.8391 -0.3087
  626MOL0     H82591   1.152   4.569   7.929 -0.1924  1.8362  1.9765
  626MOL0     H82592   1.213   4.342   7.943 -0.5831 -0.5355 -0.2998
  626MOL0     H82593   1.119   4.312   8.087 -1.7163  0.4300 -1.1264
  626MOL0     H82594   1.485   4.537   8.243  3.0621  0.5768  0.1149
  626MOL0     H82595   1.702   4.564   8.177 -0.0963 -0.9758 -0.3558
  626MOL0     H82596   2.003   4.607   7.775 -1.1719 -1.6291  0.9132
  626MOL0     H82597   2.227   4.654   7.717  0.1369  0.7398  0.6157
  626MOL0     H82598   2.458   4.671   7.688 -0.7588 -0.7396  0.4574
  626MOL0     H82599   2.433   4.505   7.739  1.0206 -1.7452 -1.0730
  626MOL0     H82600   2.655   4.534   7.666  1.5176  0.3986  0.1189
  626MOL0     H82601   2.684   4.517   7.838  2.7562  0.0842 -2.2310
  626MOL0     H82602   2.686   4.768   7.854  0.8798 -0.2083  1.0342
  626MOL0     H82603   2.679   4.772   7.681 -1.0879 -2.0924 -2.0542
  626MOL0     H82604   2.906   4.788   7.791  0.2861  0.3057 -1.4114
  626MOL0     H82605   2.888   4.606   7.817  0.8968 -0.1266 -0.7653
  626MOL0     H82606   2.898   4.722   7.541  0.7158  1.9495  0.4647
  626MOL0     H82607   2.872   4.560   7.588  2.4043 -0.3039 -0.0782
  626MOL0     H82608   3.123   4.681   7.706 -0.0716 -1.6390  4.5057
  626MOL0     H82609   3.131   4.613   7.541 -0.6124 -1.5956  0.1963
  626MOL0     H82610   3.119   4.479   7.799  1.3653 -1.3568  0.8458
  626MOL0     H82611   3.018   4.392   7.674 -0.3308  0.1820 -1.8239
  626MOL0     H82612   3.263   4.325   7.687 -0.9579 -0.6424 -0.4182
  626MOL0     H82613   3.315   4.475   7.627  0.2040  1.8582 -2.6387
  626MOL0     H82614   2.367   4.579   8.114 -0.6846 -3.3715  0.7260
  626MOL0     H82615   2.122   4.534   8.174 -0.1830 -2.3785  0.3096
  626MOL0     H82616   1.608   4.367   7.797 -2.4395  1.7956 -2.4477
  626MOL0     H82617   1.402   4.320   7.877 -1.1547 -0.6728  1.9290
  626MOL0     H82618   1.245   4.026   7.799 -1.0157  0.0654 -0.1082
  626MOL0     H82619   1.484   4.012   7.751  0.2689 -0.2327  0.5847
  626MOL0     H82620   1.856   3.860   7.513  0.2494 -0.4428  3.0465
  626MOL0     H82621   2.095   3.854   7.523 -0.0041  0.5166 -0.5226
  626MOL0     H82622   2.357   3.856   7.509  0.1893 -2.6645  1.7141
  626MOL0     H82623   2.280   3.865   7.666  0.6919 -0.7289  0.8507
  626MOL0     H82624   2.462   4.050   7.719 -1.8276  1.1097  0.0241
  626MOL0     H82625   2.538   3.893   7.677  1.3569  0.7948  2.3961
  626MOL0     H82626   2.483   4.144   7.504  1.0347  0.8995  1.0503
  626MOL0     H82627   2.515   3.980   7.444 -1.0048 -0.4788  0.9595
  626MOL0     H82628   2.691   4.126   7.660 -2.5966  4.8665 -1.1508
  626MOL0     H82629   2.732   3.987   7.581 -0.7816 -0.2322 -0.1969
  626MOL0     H82630   2.831   4.326   7.316  3.2018 -1.1018 -0.1295
  626MOL0     H82631   2.136   4.249   7.642  0.7358 -1.6316  0.8007
  626MOL0     H82632   1.866   4.278   7.637 -1.5224 -0.6937  2.1891
  627MOL0     O82633   7.156   9.397   5.896  0.0703 -0.0098  0.8515
  627MOL0     C82634   7.251   9.455   5.949  0.6181 -0.1810 -0.5773
  627MOL0     O82635   7.240   9.567   6.033 -0.5943  0.3434 -0.2974
  627MOL0     C82636   7.121   9.630   6.055  0.6275 -0.4481  0.6367
  627MOL0     C82637   6.992   9.598   6.002 -0.7409 -0.1352 -0.7033
  627MOL0     C82638   6.871   9.659   6.047  0.8626 -0.3110 -0.2630
  627MOL0     C82639   6.876   9.748   6.153  0.2714  0.4881  0.5614
  627MOL0     O82640   6.752   9.785   6.203  0.0172  0.5367 -0.4975
  627MOL0     C82641   6.757   9.890   6.304  0.0885 -0.6974  0.0522
  627MOL0     C82642   6.628   9.945   6.329 -0.3983  0.2713  0.6119
  627MOL0     C82643   6.535   9.855   6.413  0.0804 -0.3513  0.1983
  627MOL0     C82644   6.438   9.926   6.500 -0.5675  0.3290  0.1995
  627MOL0     C82645   6.306   9.840   6.510 -0.0415  0.6738 -0.7280
  627MOL0     C82646   6.214   9.917   6.596  0.0850  0.5057  0.0322
  627MOL0     C82647   6.069   9.866   6.582  0.9773  0.5942  0.4790
  627MOL0     C82648   5.968   9.941   6.665  0.0446  0.1114 -0.1093
  627MOL0     N82649   5.945  10.078   6.638  0.9444 -0.7470  0.5732
  627MOL0     C82650   5.832  10.137   6.577 -0.0099  0.1525  0.6919
  627MOL0     C82651   5.866  10.262   6.533 -0.5425 -0.3285 -0.0622
  627MOL0     C82652   5.788  10.362   6.450 -0.0702 -0.7509 -0.0059
  627MOL0     C82653   5.639  10.373   6.481 -0.5880 -0.1910 -0.3319
  627MOL0     C82654   5.631  10.461   6.611  0.1927  0.0355 -0.1715
  627MOL0     C82655   5.494  10.453   6.675  0.4513  0.5530  0.3537
  627MOL0     O82656   5.503  10.474   6.813 -0.2753  0.0244  0.2979
  627MOL0     C82657   5.390  10.473   6.889  0.2919 -0.5661 -0.5032
  627MOL0     C82658   5.264  10.476   6.839  0.1086 -0.0932  0.4496
  627MOL0     C82659   5.158  10.458   6.919  0.5700  0.8406  0.1032
  627MOL0     C82660   5.173  10.448   7.061 -0.2089  0.1187  0.3878
  627MOL0     C82661   5.049  10.421   7.133 -0.7849  0.6093  0.3287
  627MOL0     O82662   5.047  10.467   7.260  0.1133 -0.6017 -0.3307
  627MOL0     C82663   4.926  10.460   7.324  0.4140 -0.8255 -0.3138
  627MOL0     C82664   4.904  10.366   7.430 -0.4185  0.6326  0.2841
  627MOL0     C82665   4.794  10.382   7.515  0.1481  0.3119 -0.9506
  627MOL0     C82666   4.686  10.473   7.478  0.3721 -0.2121 -0.6376
  627MOL0     O82667   4.565  10.486   7.545  0.1316  0.4195 -0.0088
  627MOL0     C82668   4.544  10.432   7.677  0.9590 -1.2229 -0.1923
  627MOL0     C82669   4.420  10.500   7.730  0.2391 -0.4200 -0.1935
  627MOL0     C82670   4.301  10.516   7.628  0.3588  0.5236  0.0058
  627MOL0     C82671   4.194  10.603   7.703 -1.4514  0.1385 -0.3444
  627MOL0     C82672   4.074  10.639   7.624  0.5839 -0.1565  0.1019
  627MOL0     C82673   3.966  10.700   7.720 -0.8419 -0.6596  0.2066
  627MOL0     C82674   3.830  10.714   7.646  0.2899 -0.2103  0.0619
  627MOL0     C82675   3.724  10.625   7.708 -0.4228 -0.5638  0.6238
  627MOL0    Cl82676   3.772  10.452   7.735 -0.3294  0.3804  0.3529
  627MOL0     C82677   4.703  10.562   7.374 -0.0234 -0.7628 -0.4615
  627MOL0     C82678   4.830  10.564   7.309 -0.4240 -0.7525  0.2385
  627MOL0     O82679   4.954  10.365   7.075 -0.4054 -1.7404 -0.1362
  627MOL0     C82680   5.305  10.459   7.119  0.6861 -0.0874 -0.0412
  627MOL0     C82681   5.410  10.466   7.027  0.5231  0.4244 -0.2615
  627MOL0     N82682   5.998  10.281   6.572 -0.6373  0.5315  0.1335
  627MOL0     N82683   6.038  10.175   6.643  1.5558  0.2736  0.1590
  627MOL0     C82684   7.004   9.789   6.208  0.5620 -0.8959 -0.3883
  627MOL0     C82685   7.120   9.731   6.154  0.0933 -0.2978  0.1692
  627MOL0     C82686   7.386   9.402   5.921  1.0066  0.0320  0.4106
  627MOL0     C82687   7.498   9.480   5.957 -0.2309 -0.1899  0.6154
  627MOL0     C82688   7.627   9.431   5.940 -0.0454 -0.2057 -0.0102
  627MOL0     C82689   7.652   9.305   5.877 -0.7345 -0.4990 -0.6390
  627MOL0     O82690   7.779   9.290   5.829  0.4638  0.0116  0.0229
  627MOL0     C82691   7.794   9.169   5.746 -0.6367 -0.6103 -0.5712
  627MOL0     C82692   7.933   9.172   5.692 -0.2233 -0.6800 -0.2110
  627MOL0     C82693   8.032   9.195   5.804 -0.5277 -0.1579 -0.1168
  627MOL0     C82694   8.173   9.156   5.760  0.5195 -0.4768 -0.4890
  627MOL0     C82695   8.212   9.225   5.634 -0.1008  0.5070 -0.1687
  627MOL0     C82696   8.229   9.276   5.531  0.7985 -0.4160 -0.0993
  627MOL0     C82697   7.539   9.224   5.843  0.5656 -0.1635  0.5413
  627MOL0     C82698   7.407   9.275   5.862  0.6553 -0.9866  0.9007
  627MOL0     H82699   6.977   9.529   5.920  1.6358  2.0643 -3.2037
  627MOL0     H82700   6.773   9.632   6.009 -0.0581  0.4418  1.4677
  627MOL0     H82701   6.820   9.972   6.268 -0.9124  0.7151  1.4054
  627MOL0     H82702   6.796   9.860   6.401  0.9929  2.8871  0.9313
  627MOL0     H82703   6.585   9.960   6.230  2.0043  3.4234 -0.1394
  627MOL0     H82704   6.640  10.037   6.387 -2.7578 -0.1906  1.9433
  627MOL0     H82705   6.579   9.781   6.481  1.0051 -0.6905 -0.7506
  627MOL0     H82706   6.486   9.798   6.333  1.0623 -0.0480 -0.6379
  627MOL0     H82707   6.482   9.949   6.598 -2.0275  2.8179  0.3394
  627MOL0     H82708   6.406  10.021   6.457 -0.9520  0.3991  0.6317
  627MOL0     H82709   6.333   9.745   6.557 -3.3401  0.1598  0.4274
  627MOL0     H82710   6.262   9.833   6.410  0.1155  0.6616 -0.7971
  627MOL0     H82711   6.215  10.022   6.565  0.0275  0.2525 -0.8789
  627MOL0     H82712   6.245   9.927   6.700  4.2238 -0.2745 -0.9350
  627MOL0     H82713   6.051   9.884   6.476  2.1518 -1.1641 -0.0691
  627MOL0     H82714   6.072   9.759   6.604  5.6761  0.4536  0.3191
  627MOL0     H82715   5.991   9.918   6.770 -1.0032  0.5502  0.2367
  627MOL0     H82716   5.868   9.901   6.644  0.2557  0.1581 -1.2506
  627MOL0     H82717   5.736  10.089   6.559 -0.7100  1.6810  0.1142
  627MOL0     H82718   5.797  10.326   6.347 -0.7989 -0.0616 -0.3184
  627MOL0     H82719   5.836  10.460   6.453 -0.6794 -0.4606  0.3427
  627MOL0     H82720   5.590  10.275   6.490 -2.6439  0.8274  0.2533
  627MOL0     H82721   5.591  10.436   6.406  2.0553  0.5060 -1.5503
  627MOL0     H82722   5.705  10.440   6.689  1.0223  1.6073 -0.4886
  627MOL0     H82723   5.655  10.563   6.580  1.1115  0.2325  1.0954
  627MOL0     H82724   5.442  10.360   6.651 -0.6666  1.3758 -0.5149
  627MOL0     H82725   5.430  10.526   6.624 -0.7502 -1.3752 -1.0783
  627MOL0     H82726   5.232  10.496   6.737 -0.1732  2.4857  0.9772
  627MOL0     H82727   5.062  10.462   6.868 -1.1786  0.4906  3.1169
  627MOL0     H82728   4.974  10.287   7.456 -0.1309  0.6219 -0.5009
  627MOL0     H82729   4.774  10.310   7.594  0.6217  0.1371 -0.9931
  627MOL0     H82730   4.621  10.466   7.747 -0.1669 -0.8967  0.9283
  627MOL0     H82731   4.538  10.323   7.678  0.8630 -1.2385 -1.3289
  627MOL0     H82732   4.460  10.592   7.773  1.8113 -1.2496  0.2261
  627MOL0     H82733   4.396  10.443   7.821 -0.8748  1.1379  0.5313
  627MOL0     H82734   4.261  10.418   7.602 -0.5594  1.6361 -3.2596
  627MOL0     H82735   4.335  10.562   7.535  2.2363  0.8578  0.7967
  627MOL0     H82736   4.173  10.558   7.801 -0.5186 -0.6253 -0.4925
  627MOL0     H82737   4.247  10.695   7.730  0.0304 -0.7613 -0.1271
  627MOL0     H82738   4.035  10.559   7.561 -2.2379 -1.3359  3.0659
  627MOL0     H82739   4.122  10.722   7.571  1.4514 -0.2378  0.7380
  627MOL0     H82740   4.004  10.799   7.747 -0.2309 -1.6707  3.4560
  627MOL0     H82741   3.961  10.645   7.814  0.4554 -0.0159  0.6811
  627MOL0     H82742   3.798  10.819   7.638  1.1790 -0.0155 -1.3361
  627MOL0     H82743   3.841  10.664   7.549 -1.2213 -0.7190  0.1322
  627MOL0     H82744   3.638  10.608   7.642 -0.2169 -0.0533  0.2251
  627MOL0     H82745   3.691  10.673   7.801 -0.8992  0.3750 -0.0170
  627MOL0     H82746   4.623  10.631   7.346 -0.3667 -0.8944  0.1827
  627MOL0     H82747   4.848  10.631   7.225  1.8378 -2.3286 -0.6234
  627MOL0     H82748   5.322  10.440   7.224  1.0656 -3.3631 -0.5886
  627MOL0     H82749   5.506  10.446   7.075  0.0467 -2.5522 -0.3836
  627MOL0     H82750   7.031   9.842   6.299  0.0214 -0.9208 -0.2095
  627MOL0     H82751   7.209   9.747   6.215 -1.5799  0.5373  2.5397
  627MOL0     H82752   7.494   9.580   5.998  0.1588  1.1547 -2.3892
  627MOL0     H82753   7.708   9.494   5.976 -2.8304  2.8940  1.3260
  627MOL0     H82754   7.717   9.157   5.669 -2.3510 -0.5311  1.0604
  627MOL0     H82755   7.791   9.094   5.825  0.7329  3.8651  4.2778
  627MOL0     H82756   7.952   9.071   5.653 -1.3506 -2.2414  2.9629
  627MOL0     H82757   7.944   9.241   5.607 -3.4531  0.1237 -0.1190
  627MOL0     H82758   8.015   9.123   5.884  2.0859  0.5046  1.1488
  627MOL0     H82759   8.041   9.296   5.845 -1.0614 -0.3798  0.5545
  627MOL0     H82760   8.239   9.185   5.842  1.0905 -1.3363 -0.6250
  627MOL0     H82761   8.190   9.049   5.744  2.6955  0.3308 -4.9917
  627MOL0     H82762   8.257   9.332   5.445 -3.3921 -2.0714 -2.8664
  627MOL0     H82763   7.540   9.120   5.812  0.6820  0.5997 -2.3577
  627MOL0     H82764   7.325   9.208   5.839 -1.8860  2.2913 -0.3539
  628MOL0     O82765   9.939   8.218   8.548 -0.4748  0.3561 -1.0646
  628MOL0     C82766  10.012   8.303   8.595  0.9384  0.7132 -0.0552
  628MOL0     O82767   9.964   8.400   8.681 -0.8157  0.5499  0.2440
  628MOL0     C82768   9.829   8.399   8.715  0.5213  0.9607  0.3828
  628MOL0     C82769   9.747   8.515   8.705  0.3953  0.0820 -0.7910
  628MOL0     C82770   9.612   8.517   8.759 -0.0474  0.2024 -0.3488
  628MOL0     C82771   9.557   8.393   8.800  0.5490  0.3581 -0.1818
  628MOL0     O82772   9.430   8.382   8.855  0.2924  0.0846 -0.0868
  628MOL0     C82773   9.356   8.260   8.820  0.1693  0.6314 -0.4064
  628MOL0     C82774   9.199   8.302   8.830 -0.0490 -0.6652 -0.2467
  628MOL0     C82775   9.103   8.184   8.852  0.4007 -0.5201 -0.3916
  628MOL0     C82776   8.955   8.227   8.869  0.1366 -0.0704  0.1320
  628MOL0     C82777   8.863   8.106   8.869 -0.7489 -0.4251 -0.9169
  628MOL0     C82778   8.726   8.151   8.887 -0.3004 -0.6474 -0.3877
  628MOL0     C82779   8.627   8.042   8.906  0.4313  0.4299  0.5579
  628MOL0     C82780   8.500   8.101   8.947  0.5468 -0.1710 -0.3726
  628MOL0     N82781   8.389   8.013   8.967 -0.1535  0.1299  0.0609
  628MOL0     C82782   8.355   7.957   9.085  0.6135 -0.0733  0.0578
  628MOL0     C82783   8.232   7.904   9.061 -0.9805  0.0638 -0.1299
  628MOL0     C82784   8.159   7.827   9.162  0.7665  1.1589 -0.6855
  628MOL0     C82785   8.009   7.865   9.172  0.4816  0.7264 -0.1982
  628MOL0     C82786   7.946   7.825   9.307 -0.2771  0.3288  0.0889
  628MOL0     C82787   7.787   7.822   9.280 -0.6515 -0.3341 -1.1744
  628MOL0     O82788   7.743   7.719   9.191  0.4394 -0.4397  0.4116
  628MOL0     C82789   7.610   7.679   9.201 -0.1586  0.3426  1.1479
  628MOL0     C82790   7.508   7.773   9.232 -0.5616  0.7994 -0.7141
  628MOL0     C82791   7.382   7.734   9.210  0.8729 -0.1174 -0.0781
  628MOL0     C82792   7.347   7.607   9.162 -0.4406 -0.2851  0.7237
  628MOL0     C82793   7.198   7.576   9.143 -0.5799  0.4925  0.0166
  628MOL0     O82794   7.109   7.677   9.176  0.6642 -0.5915  0.1560
  628MOL0     C82795   6.978   7.644   9.162  0.5284  0.2657 -0.5050
  628MOL0     C82796   6.904   7.659   9.042  0.0808  0.1337  0.4543
  628MOL0     C82797   6.785   7.593   9.023 -0.6002 -0.2194  0.2477
  628MOL0     C82798   6.719   7.539   9.131 -0.5787  0.8541 -0.1879
  628MOL0     O82799   6.601   7.472   9.133 -0.2683 -0.0486  0.5342
  628MOL0     C82800   6.495   7.523   9.047 -0.1724  0.6807  0.6269
  628MOL0     C82801   6.397   7.416   9.040  0.3117 -0.2142 -0.2390
  628MOL0     C82802   6.434   7.292   8.961  0.2256  0.5933  0.2321
  628MOL0     C82803   6.324   7.188   8.974 -0.4561  0.7063  0.2072
  628MOL0     C82804   6.344   7.062   8.877 -0.6216 -0.8975  0.0112
  628MOL0     C82805   6.307   7.092   8.732  0.4249 -0.7160  0.0082
  628MOL0     C82806   6.351   6.981   8.624  0.3261 -1.0576 -0.4601
  628MOL0     C82807   6.277   7.000   8.482 -0.4524  0.0463 -0.4702
  628MOL0    Cl82808   6.301   6.839   8.399  0.0557  0.0951 -0.0318
  628MOL0     C82809   6.782   7.535   9.255 -0.0017  0.0343 -0.5332
  628MOL0     C82810   6.908   7.584   9.274  0.1320  0.0683 -0.4920
  628MOL0     O82811   7.168   7.462   9.114  0.1355 -0.4562  0.4494
  628MOL0     C82812   7.441   7.520   9.128 -0.5093  1.3897  0.4329
  628MOL0     C82813   7.575   7.556   9.145 -0.0519 -0.5864 -0.0510
  628MOL0     N82814   8.195   7.920   8.927 -0.0747 -0.0740 -0.1939
  628MOL0     N82815   8.290   7.991   8.874 -0.7623 -0.1175 -0.4383
  628MOL0     C82816   9.640   8.280   8.820  0.1539 -0.0842  0.6746
  628MOL0     C82817   9.782   8.287   8.793  0.9061  0.3673 -0.1755
  628MOL0     C82818  10.147   8.309   8.547 -0.1778 -0.4859 -0.1933
  628MOL0     C82819  10.239   8.412   8.592 -0.3760  1.0923 -1.1870
  628MOL0     C82820  10.369   8.419   8.544 -0.3702  1.2465 -0.2996
  628MOL0     C82821  10.414   8.317   8.467  0.1526  0.2431  0.4516
  628MOL0     O82822  10.546   8.325   8.443  0.6154 -0.4802  0.0301
  628MOL0     C82823  10.621   8.251   8.346  0.3620 -0.3705  0.1203
  628MOL0     C82824  10.736   8.326   8.290  0.5526 -0.3738  0.8854
  628MOL0     C82825  10.696   8.461   8.235  0.1041  0.1691 -0.3659
  628MOL0     C82826  10.614   8.459   8.105  0.6923 -0.0507  0.6389
  628MOL0     C82827  10.481   8.408   8.122 -0.6334  1.1815 -0.1476
  628MOL0     C82828  10.364   8.384   8.151 -1.0518 -0.0154  1.0995
  628MOL0     C82829  10.327   8.214   8.430 -0.6661 -0.3072 -0.1173
  628MOL0     C82830  10.202   8.218   8.462 -0.2821  0.1965  0.0649
  628MOL0     H82831   9.801   8.604   8.675  3.9477 -0.9604  1.8400
  628MOL0     H82832   9.567   8.615   8.769  1.0124  1.2942 -4.2848
  628MOL0     H82833   9.378   8.175   8.885 -0.3232 -0.7395 -1.9712
  628MOL0     H82834   9.361   8.231   8.715 -1.0121  0.1292 -0.3420
  628MOL0     H82835   9.181   8.358   8.738 -2.8120 -1.9348 -0.5448
  628MOL0     H82836   9.200   8.379   8.909 -0.2904  0.4979 -1.3484
  628MOL0     H82837   9.121   8.128   8.944  0.1279 -2.6507 -1.5622
  628MOL0     H82838   9.123   8.121   8.764 -1.2519 -1.2480 -0.2937
  628MOL0     H82839   8.942   8.286   8.960 -2.1571 -2.2412  1.3342
  628MOL0     H82840   8.926   8.280   8.777 -1.2895 -2.6199 -0.9874
  628MOL0     H82841   8.887   8.043   8.956 -2.3400  3.4309  2.6421
  628MOL0     H82842   8.877   8.049   8.777  0.1132  2.9484 -3.0482
  628MOL0     H82843   8.708   8.225   8.809  2.2923  0.4793 -0.0119
  628MOL0     H82844   8.723   8.204   8.983 -1.0963 -3.9046  1.5729
  628MOL0     H82845   8.613   7.987   8.812 -3.9152  0.3061  1.0689
  628MOL0     H82846   8.661   7.971   8.982 -0.7017 -0.5487  0.1807
  628MOL0     H82847   8.473   8.184   8.880  1.3788 -0.3122 -0.8954
  628MOL0     H82848   8.506   8.153   9.043 -4.1311  2.1101 -1.0408
  628MOL0     H82849   8.400   7.965   9.184 -1.2766 -2.3783  1.1930
  628MOL0     H82850   8.211   7.839   9.257 -0.0402 -0.1112 -0.0679
  628MOL0     H82851   8.173   7.725   9.126  0.9213  1.4536 -1.4938
  628MOL0     H82852   7.951   7.818   9.092  1.6984 -2.6150  0.7216
  628MOL0     H82853   8.005   7.975   9.166 -1.8796  0.8184  1.7218
  628MOL0     H82854   7.971   7.724   9.341  0.4733  0.7825  0.9194
  628MOL0     H82855   7.965   7.901   9.383  0.2050 -0.0815  0.3888
  628MOL0     H82856   7.752   7.918   9.242 -2.8401 -1.0421 -1.1077
  628MOL0     H82857   7.739   7.814   9.378 -1.8284 -0.5845 -1.7465
  628MOL0     H82858   7.526   7.866   9.285  2.3562 -0.2263  0.2878
  628MOL0     H82859   7.300   7.797   9.243  2.2069  0.8671  1.5062
  628MOL0     H82860   6.951   7.702   8.954 -0.1993 -0.1253  0.1771
  628MOL0     H82861   6.739   7.596   8.924 -0.2665 -1.9036  0.0005
  628MOL0     H82862   6.523   7.548   8.945 -1.2806 -2.5522 -0.5817
  628MOL0     H82863   6.454   7.611   9.099  3.0735  1.8293  1.4950
  628MOL0     H82864   6.305   7.456   8.994  0.6100  0.6495 -0.1046
  628MOL0     H82865   6.366   7.387   9.140  0.6035 -1.2725 -0.4493
  628MOL0     H82866   6.529   7.255   8.999  1.5926  2.0842 -1.5482
  628MOL0     H82867   6.453   7.322   8.857 -2.0686  2.7152  0.3292
  628MOL0     H82868   6.333   7.150   9.076  0.3740  3.2456  1.1512
  628MOL0     H82869   6.228   7.236   8.954 -0.2245  0.9434 -0.3674
  628MOL0     H82870   6.273   6.985   8.908  0.3682 -2.7103 -1.9306
  628MOL0     H82871   6.445   7.021   8.893  0.9803  3.4044  2.5407
  628MOL0     H82872   6.346   7.190   8.702 -1.2070  0.9481  2.8824
  628MOL0     H82873   6.198   7.097   8.733  0.4562  0.9395  1.5798
  628MOL0     H82874   6.457   6.985   8.600  0.3590  0.5346 -0.1806
  628MOL0     H82875   6.321   6.882   8.660 -0.4931 -0.1062  1.6893
  628MOL0     H82876   6.335   7.076   8.431  1.9075 -1.6990 -0.5552
  628MOL0     H82877   6.168   7.013   8.487 -0.1990  1.8297  1.4890
  628MOL0     H82878   6.722   7.524   9.345  2.7221  1.9424  1.7027
  628MOL0     H82879   6.963   7.569   9.366 -0.9821 -0.4702  0.1181
  628MOL0     H82880   7.405   7.421   9.102 -2.5468  2.7651 -2.7392
  628MOL0     H82881   7.649   7.479   9.122 -0.3557 -1.1127  0.7113
  628MOL0     H82882   9.605   8.193   8.874  0.8833 -0.6661  0.2339
  628MOL0     H82883   9.837   8.195   8.807  2.6389  1.0464 -2.1289
  628MOL0     H82884  10.189   8.475   8.664  0.5825 -0.5724  1.0714
  628MOL0     H82885  10.429   8.505   8.575  0.2780  0.4712  0.6658
  628MOL0     H82886  10.567   8.203   8.264  0.2778  0.0330 -0.0611
  628MOL0     H82887  10.642   8.161   8.405  1.3236 -0.4730 -0.3602
  628MOL0     H82888  10.813   8.351   8.363  1.2071  0.8567 -0.1939
  628MOL0     H82889  10.774   8.269   8.205 -0.5242  0.6168 -0.3153
  628MOL0     H82890  10.783   8.522   8.210  0.3510 -0.3303 -0.7584
  628MOL0     H82891  10.633   8.512   8.308 -1.9955 -2.4083 -0.1983
  628MOL0     H82892  10.603   8.558   8.061 -0.3487 -0.0924  0.7767
  628MOL0     H82893  10.662   8.392   8.033 -1.2773 -0.7989 -0.0349
  628MOL0     H82894  10.268   8.370   8.197 -1.1559 -1.9500  0.3864
  628MOL0     H82895  10.360   8.129   8.372  0.4228 -0.9291  1.3595
  628MOL0     H82896  10.141   8.134   8.430  2.8454 -2.0485 -0.3753
  629MOL0     O82897   8.985   1.141   0.429 -0.0715  0.4199  0.3027
  629MOL0     C82898   8.961   1.029   0.383  0.2121 -0.0037 -0.2995
  629MOL0     O82899   8.844   0.967   0.394 -0.3150 -0.5550  0.2158
  629MOL0     C82900   8.732   1.020   0.448  0.4204  0.3783  0.6597
  629MOL0     C82901   8.627   0.934   0.434 -0.5773  0.6688 -0.6825
  629MOL0     C82902   8.506   0.970   0.485  0.1294 -0.1293 -0.2171
  629MOL0     C82903   8.476   1.096   0.542  0.0112 -0.0572  0.3553
  629MOL0     O82904   8.348   1.115   0.580 -0.4385  0.5027 -0.3262
  629MOL0     C82905   8.288   1.246   0.581 -0.2443  0.3841 -0.3907
  629MOL0     C82906   8.276   1.287   0.436  0.2099  0.5356 -0.0110
  629MOL0     C82907   8.190   1.188   0.348 -0.0719 -0.6896 -0.3252
  629MOL0     C82908   8.035   1.164   0.391 -1.1629  0.1266 -0.0160
  629MOL0     C82909   7.963   1.136   0.258  0.3797  0.6318 -0.0132
  629MOL0     C82910   8.009   0.999   0.201 -0.3006  0.3096 -1.2923
  629MOL0     C82911   7.948   0.966   0.058 -0.5129 -0.2209 -0.2028
  629MOL0     C82912   7.965   0.815   0.024 -0.0293  1.4364 -0.0853
  629MOL0     N82913   7.833   0.760   0.046 -0.2542 -0.1310  0.2991
  629MOL0     C82914   7.717   0.786  -0.026 -0.3878 -0.0369  1.2520
  629MOL0     C82915   7.630   0.706   0.035  1.2598 -0.6293  0.5099
  629MOL0     C82916   7.491   0.685  -0.014  0.1179  0.0876  0.1074
  629MOL0     C82917   7.462   0.567  -0.109 -1.0219 -0.6704  0.2470
  629MOL0     C82918   7.462   0.431  -0.036  0.0088 -0.4966  0.3155
  629MOL0     C82919   7.382   0.324  -0.112  0.9219  0.4042  0.1867
  629MOL0     O82920   7.328   0.222  -0.022 -0.3797 -0.2741 -0.0007
  629MOL0     C82921   7.184   0.234  -0.010 -0.5360 -0.0730  0.2110
  629MOL0     C82922   7.141   0.336   0.075 -0.4299 -0.5525 -0.3595
  629MOL0     C82923   7.006   0.377   0.072 -0.0646 -0.0186  0.3544
  629MOL0     C82924   6.922   0.318  -0.028 -0.1935  0.8454 -0.0183
  629MOL0     C82925   6.775   0.335  -0.028  1.2322  0.1712  0.8989
  629MOL0     O82926   6.699   0.234  -0.092 -1.3416  0.4539 -0.1911
  629MOL0     C82927   6.563   0.231  -0.090  0.3889 -0.5464 -0.7355
  629MOL0     C82928   6.508   0.137  -0.172  0.9266 -0.5905  0.0903
  629MOL0     C82929   6.367   0.127  -0.191 -0.2576  0.2036 -0.2017
  629MOL0     C82930   6.275   0.196  -0.112  0.4029 -0.2614  0.8463
  629MOL0     O82931   6.141   0.202  -0.136  0.3656 -0.3476 -0.5622
  629MOL0     C82932   6.096   0.142  -0.256  0.0779 -0.5042  0.3672
  629MOL0     C82933   5.952   0.163  -0.269 -0.1505 -0.3705 -0.7023
  629MOL0     C82934   5.856   0.085  -0.182 -0.2350  0.5706 -0.4510
  629MOL0     C82935   5.711   0.121  -0.225 -0.4529 -0.7351  0.3612
  629MOL0     C82936   5.605   0.059  -0.135  0.2457 -1.0158 -0.2711
  629MOL0     C82937   5.570  -0.080  -0.185  0.1082  0.1807 -0.1429
  629MOL0     C82938   5.485  -0.155  -0.092 -0.5570  0.0042  0.0798
  629MOL0     C82939   5.473  -0.306  -0.131  0.2622 -0.5043  0.2379
  629MOL0    Cl82940   5.628  -0.383  -0.109  0.4475  0.0036  0.1796
  629MOL0     C82941   6.334   0.290  -0.027  0.3624  0.8185  0.1109
  629MOL0     C82942   6.475   0.298  -0.011 -0.5043 -0.4646 -0.3828
  629MOL0     O82943   6.734   0.435   0.022  0.0167 -0.3409 -0.3778
  629MOL0     C82944   6.976   0.222  -0.112  0.7202 -0.0665  0.4481
  629MOL0     C82945   7.100   0.169  -0.101 -0.3748  1.5992 -0.4361
  629MOL0     N82946   7.677   0.638   0.143 -0.1911 -0.4722  0.2050
  629MOL0     N82947   7.801   0.673   0.149 -0.4635 -0.0332  0.2149
  629MOL0     C82948   8.581   1.190   0.566 -0.4083 -0.1398  0.1202
  629MOL0     C82949   8.707   1.147   0.514  0.0085 -1.1803 -0.9432
  629MOL0     C82950   9.071   0.958   0.319  0.3552  0.7607  0.1489
  629MOL0     C82951   9.065   0.826   0.287  0.2746 -0.6851  0.3093
  629MOL0     C82952   9.162   0.750   0.227 -0.6967  0.2535 -0.9271
  629MOL0     C82953   9.287   0.810   0.203  1.1853 -0.0530  0.5264
  629MOL0     O82954   9.401   0.754   0.157  0.7460 -0.2426 -0.2155
  629MOL0     C82955   9.411   0.607   0.164 -0.0636 -0.6038 -0.4178
  629MOL0     C82956   9.526   0.574   0.252 -0.2186 -0.5076  0.3891
  629MOL0     C82957   9.517   0.623   0.401  0.2940  0.6464 -0.1205
  629MOL0     C82958   9.653   0.676   0.439  1.3806  0.3287 -0.7588
  629MOL0     C82959   9.655   0.726   0.578  0.5408  0.6858  0.2052
  629MOL0     C82960   9.650   0.782   0.686 -0.1333 -0.0084  0.3671
  629MOL0     C82961   9.295   0.948   0.234 -0.3325  0.2857 -0.4140
  629MOL0     C82962   9.186   1.021   0.281 -0.0664  0.0032 -0.0561
  629MOL0     H82963   8.656   0.841   0.387 -2.1571  0.8266 -2.0815
  629MOL0     H82964   8.424   0.902   0.469  1.9484 -2.0040 -2.2345
  629MOL0     H82965   8.344   1.320   0.640  2.2882 -0.2433 -1.8623
  629MOL0     H82966   8.192   1.231   0.631  0.5377  0.0277  1.0384
  629MOL0     H82967   8.373   1.290   0.386  0.0645 -2.8288 -0.6731
  629MOL0     H82968   8.230   1.387   0.434  2.2325  1.5061 -2.0219
  629MOL0     H82969   8.237   1.090   0.343  2.8807  0.6085 -0.1723
  629MOL0     H82970   8.181   1.230   0.247 -2.1519  1.1347  0.5261
  629MOL0     H82971   8.045   1.084   0.465  2.5826  0.5031  0.1050
  629MOL0     H82972   7.993   1.248   0.447 -1.8952 -1.2894  1.6561
  629MOL0     H82973   7.982   1.218   0.188  0.7094  0.0391 -0.6253
  629MOL0     H82974   7.854   1.126   0.269  0.1755 -0.4107 -2.4827
  629MOL0     H82975   7.982   0.926   0.278  0.1927 -1.2287 -2.5209
  629MOL0     H82976   8.117   0.989   0.186  0.3622  0.2180  2.5030
  629MOL0     H82977   7.844   0.997   0.073  0.3044  1.4898  2.9083
  629MOL0     H82978   8.002   1.026  -0.016 -1.4207  1.9088  0.7852
  629MOL0     H82979   8.043   0.759   0.077 -0.0255 -0.9080 -2.3282
  629MOL0     H82980   7.994   0.805  -0.081 -0.8747  2.5597 -0.4346
  629MOL0     H82981   7.706   0.844  -0.117 -1.0331 -0.7734  0.8403
  629MOL0     H82982   7.464   0.778  -0.065  0.2870 -0.8963 -1.8660
  629MOL0     H82983   7.423   0.692   0.071  2.9719  0.1586  2.5584
  629MOL0     H82984   7.539   0.578  -0.186 -1.7329 -0.0817 -0.4022
  629MOL0     H82985   7.365   0.590  -0.154 -0.8331  1.3806  0.7889
  629MOL0     H82986   7.565   0.394  -0.025 -0.8548 -2.7216  1.5888
  629MOL0     H82987   7.421   0.431   0.065  1.1042 -0.1662  0.7794
  629MOL0     H82988   7.447   0.268  -0.181 -2.9261 -1.2302 -2.4771
  629MOL0     H82989   7.306   0.365  -0.179 -0.8531  1.0636  2.4859
  629MOL0     H82990   7.206   0.384   0.148 -1.1958  0.0727 -0.0761
  629MOL0     H82991   6.968   0.442   0.150  1.1176 -0.4823  1.3405
  629MOL0     H82992   6.574   0.070  -0.226 -0.7314 -2.4950  0.3299
  629MOL0     H82993   6.341   0.058  -0.270 -1.1359 -0.7333  0.8720
  629MOL0     H82994   6.110   0.034  -0.266  1.3137 -0.1938 -1.6186
  629MOL0     H82995   6.142   0.186  -0.345  2.3455 -1.3099  1.0796
  629MOL0     H82996   5.919   0.127  -0.367 -0.9908  0.7728 -0.8612
  629MOL0     H82997   5.922   0.268  -0.272 -1.6917 -0.6511  1.7336
  629MOL0     H82998   5.861   0.116  -0.077 -0.9968  1.2044 -0.5901
  629MOL0     H82999   5.871  -0.023  -0.180 -2.3020  0.2449 -0.6230
  629MOL0     H83000   5.696   0.229  -0.215  0.5752 -0.6342  0.9962
  629MOL0     H83001   5.694   0.090  -0.328 -1.5375 -0.0508  0.3246
  629MOL0     H83002   5.520   0.127  -0.124  0.4150 -1.1793  2.7355
  629MOL0     H83003   5.642   0.039  -0.034  0.7595  3.4660  0.6427
  629MOL0     H83004   5.668  -0.128  -0.195  0.1705  0.5505 -1.4987
  629MOL0     H83005   5.518  -0.074  -0.282 -0.9515 -4.0549 -0.0108
  629MOL0     H83006   5.510  -0.151   0.015 -0.1749 -1.7706  0.0940
  629MOL0     H83007   5.385  -0.113  -0.104 -0.8661 -0.7309  0.0662
  629MOL0     H83008   5.435  -0.325  -0.233 -0.8900 -2.3463  0.9447
  629MOL0     H83009   5.407  -0.360  -0.062  1.8431 -1.3693  1.1395
  629MOL0     H83010   6.264   0.348   0.031 -0.8406 -0.8237  0.3756
  629MOL0     H83011   6.525   0.368   0.055  0.2701 -2.0495  0.7659
  629MOL0     H83012   6.917   0.176  -0.191 -3.9355  0.2017  3.4475
  629MOL0     H83013   7.138   0.080  -0.151 -0.4594  0.0852  2.0311
  629MOL0     H83014   8.553   1.285   0.610 -4.0754  0.9173 -3.8193
  629MOL0     H83015   8.785   1.223   0.517  0.5770 -1.6924 -2.1457
  629MOL0     H83016   8.975   0.768   0.306  0.6055 -1.6231 -0.8912
  629MOL0     H83017   9.130   0.651   0.194 -2.8975  0.0275  1.5485
  629MOL0     H83018   9.429   0.558   0.067  1.1268 -1.6637  0.3053
  629MOL0     H83019   9.318   0.564   0.203 -0.4065 -0.5399 -1.1426
  629MOL0     H83020   9.537   0.465   0.256 -2.7509 -0.8595 -0.6540
  629MOL0     H83021   9.613   0.615   0.199  0.1102  1.2743  2.1817
  629MOL0     H83022   9.489   0.546   0.473  3.8950  1.7163  2.7090
  629MOL0     H83023   9.441   0.700   0.414 -1.1698 -0.7635 -0.0223
  629MOL0     H83024   9.728   0.601   0.413  0.2741 -0.9673 -0.3015
  629MOL0     H83025   9.671   0.766   0.379  3.9942  0.1838 -0.3243
  629MOL0     H83026   9.646   0.830   0.782 -0.8708  0.1261  0.2686
  629MOL0     H83027   9.390   1.001   0.235  1.4165 -2.5505  2.4241
  629MOL0     H83028   9.193   1.129   0.290 -1.4654  0.1160 -0.0568
  630MOL0     O83029   4.950   8.294   0.876 -0.2910 -0.2627  0.4423
  630MOL0     C83030   5.043   8.292   0.957  0.1176  1.3133  0.0462
  630MOL0     O83031   5.034   8.228   1.082 -0.8864 -0.0252 -0.0380
  630MOL0     C83032   4.905   8.204   1.113 -0.1669  0.0058  0.3687
  630MOL0     C83033   4.840   8.299   1.190  0.1212 -1.2288 -0.8394
  630MOL0     C83034   4.709   8.281   1.209  0.3688  0.6732  0.4038
  630MOL0     C83035   4.638   8.165   1.164 -0.2049  0.1084 -0.0208
  630MOL0     O83036   4.511   8.129   1.184 -0.7397 -0.7204  0.3478
  630MOL0     C83037   4.451   8.195   1.293 -0.3434  0.9569  0.1853
  630MOL0     C83038   4.315   8.129   1.300  1.4272  0.8216 -0.9557
  630MOL0     C83039   4.213   8.202   1.393  0.6596 -0.3800  0.2709
  630MOL0     C83040   4.072   8.138   1.362  0.1591  1.0143 -0.3104
  630MOL0     C83041   3.963   8.183   1.463 -0.6973 -0.8452  0.2037
  630MOL0     C83042   3.824   8.142   1.407 -0.7808  0.1495  0.3178
  630MOL0     C83043   3.715   8.163   1.512 -0.1741 -0.1895  0.5511
  630MOL0     C83044   3.577   8.169   1.456 -0.0065 -0.4865  0.3722
  630MOL0     N83045   3.482   8.188   1.568 -0.0867 -0.7040 -0.1249
  630MOL0     C83046   3.430   8.312   1.599  0.3887 -0.1188  0.1741
  630MOL0     C83047   3.350   8.287   1.708  0.2901 -0.3793  0.2542
  630MOL0     C83048   3.277   8.389   1.778  0.6289  0.1541  0.1137
  630MOL0     C83049   3.171   8.442   1.669 -0.3591  0.4054 -0.6682
  630MOL0     C83050   3.050   8.514   1.715  0.4383  0.7759  0.4282
  630MOL0     C83051   3.071   8.589   1.848 -0.0307  0.9895  0.4124
  630MOL0     O83052   2.968   8.688   1.866 -0.1332  0.6112 -0.1360
  630MOL0     C83053   2.841   8.653   1.899  0.0557 -1.4848 -0.3090
  630MOL0     C83054   2.787   8.534   1.926  0.7058  0.1406 -0.5170
  630MOL0     C83055   2.659   8.522   1.980  0.4210 -0.1573  0.5521
  630MOL0     C83056   2.571   8.631   1.993  0.2709 -0.1139  0.1659
  630MOL0     C83057   2.438   8.617   2.062 -0.2075  0.0013  0.7210
  630MOL0     O83058   2.407   8.491   2.116 -0.1631  0.0860  0.5557
  630MOL0     C83059   2.286   8.482   2.171  0.0911 -1.0525  0.3056
  630MOL0     C83060   2.174   8.489   2.091  0.2142  0.1501  0.1291
  630MOL0     C83061   2.040   8.459   2.146 -0.2417 -0.8049  0.4149
  630MOL0     C83062   2.022   8.414   2.276 -0.1038  1.0246 -0.1321
  630MOL0     O83063   1.891   8.394   2.315 -0.3161  0.2282 -0.0801
  630MOL0     C83064   1.864   8.340   2.449 -0.1165 -0.2242  1.1342
  630MOL0     C83065   1.719   8.285   2.443 -0.2425 -0.3438  0.1603
  630MOL0     C83066   1.625   8.407   2.461 -0.3630  0.0476 -0.1122
  630MOL0     C83067   1.476   8.358   2.459  0.0591  1.2972  0.7823
  630MOL0     C83068   1.366   8.461   2.438  0.4582  0.7490  0.7077
  630MOL0     C83069   1.363   8.566   2.551  0.3620 -0.3524  0.4310
  630MOL0     C83070   1.257   8.530   2.657  0.5950 -0.4385  0.6652
  630MOL0     C83071   1.228   8.644   2.753 -0.2030 -0.0680 -0.2962
  630MOL0    Cl83072   1.112   8.755   2.690  0.2999 -0.2214 -0.1024
  630MOL0     C83073   2.138   8.412   2.359  0.2654 -0.4999 -0.6631
  630MOL0     C83074   2.263   8.434   2.306  0.4228  0.4907  0.4022
  630MOL0     O83075   2.370   8.718   2.065 -0.4401 -0.1250  0.2153
  630MOL0     C83076   2.620   8.756   1.951 -0.6526 -0.5798  0.3068
  630MOL0     C83077   2.757   8.765   1.910 -0.5334 -0.2129 -0.1136
  630MOL0     N83078   3.361   8.150   1.740  0.6858  0.1180  0.0667
  630MOL0     N83079   3.424   8.089   1.642 -0.5444  0.0649  1.0090
  630MOL0     C83080   4.713   8.068   1.100  0.5250 -0.0642  0.4185
  630MOL0     C83081   4.846   8.085   1.062 -0.4050  0.1875 -1.0242
  630MOL0     C83082   5.170   8.357   0.908 -0.3531 -0.2634 -0.0277
  630MOL0     C83083   5.276   8.381   0.991 -0.0901  0.4851 -1.1289
  630MOL0     C83084   5.399   8.443   0.955 -0.3420 -0.4218  0.4006
  630MOL0     C83085   5.411   8.486   0.823 -0.4236  0.8595 -1.2876
  630MOL0     O83086   5.534   8.545   0.801 -0.5047 -0.4870  0.3303
  630MOL0     C83087   5.543   8.620   0.681 -0.0821 -0.4846  0.5293
  630MOL0     C83088   5.669   8.720   0.673 -0.0327 -0.1494 -0.5058
  630MOL0     C83089   5.677   8.789   0.545 -0.6738 -0.8846 -0.1251
  630MOL0     C83090   5.801   8.881   0.549  0.3768 -0.1717 -1.0788
  630MOL0     C83091   5.774   9.004   0.618 -0.4004 -0.6789 -0.9033
  630MOL0     C83092   5.758   9.116   0.667 -0.4066  0.2601 -1.1144
  630MOL0     C83093   5.309   8.469   0.728 -0.5221  0.7633  1.0522
  630MOL0     C83094   5.184   8.413   0.771  0.1516  0.3972 -1.5906
  630MOL0     H83095   4.898   8.381   1.231 -0.0339 -1.1225 -0.8312
  630MOL0     H83096   4.658   8.360   1.264 -1.6830  0.7942 -1.5333
  630MOL0     H83097   4.427   8.299   1.271 -1.5271  0.1156 -3.0643
  630MOL0     H83098   4.507   8.179   1.386 -0.3642 -0.8836 -0.0728
  630MOL0     H83099   4.309   8.025   1.331 -1.7329  1.4591  1.0101
  630MOL0     H83100   4.275   8.141   1.199 -2.2118  2.7505  0.5506
  630MOL0     H83101   4.213   8.311   1.378 -0.6832 -0.1859  1.4595
  630MOL0     H83102   4.247   8.188   1.496 -0.1286 -3.5649  0.1716
  630MOL0     H83103   4.032   8.159   1.262 -1.7473 -1.2524 -0.1300
  630MOL0     H83104   4.076   8.030   1.382 -0.0789  0.6257 -2.1754
  630MOL0     H83105   3.973   8.291   1.477  0.7153 -0.7150 -1.5519
  630MOL0     H83106   3.974   8.135   1.561  0.5840 -1.7100 -0.3328
  630MOL0     H83107   3.836   8.039   1.372 -0.8869  0.0498  0.5755
  630MOL0     H83108   3.803   8.199   1.316  0.6788  2.1005  1.1114
  630MOL0     H83109   3.726   8.078   1.580  0.9133  0.0302  0.6797
  630MOL0     H83110   3.729   8.258   1.565  1.9250  0.0550 -0.3074
  630MOL0     H83111   3.562   8.081   1.392 -0.4017 -0.4661  0.4339
  630MOL0     H83112   3.566   8.257   1.393 -0.7030  2.6636  4.4959
  630MOL0     H83113   3.456   8.406   1.553  2.2104 -0.8203 -0.3174
  630MOL0     H83114   3.344   8.466   1.817  0.4776  0.0047  0.6686
  630MOL0     H83115   3.221   8.348   1.862 -0.1282  3.3291  1.3087
  630MOL0     H83116   3.138   8.350   1.619 -0.0551 -3.7324  5.5487
  630MOL0     H83117   3.222   8.515   1.606  1.9996 -0.6571 -0.1074
  630MOL0     H83118   3.021   8.576   1.630  2.1985  0.4379 -0.4791
  630MOL0     H83119   2.971   8.439   1.714  1.0325  0.1441 -0.0424
  630MOL0     H83120   3.172   8.632   1.849  0.1134  0.8052 -1.9769
  630MOL0     H83121   3.071   8.505   1.918 -1.6102  0.2318 -0.4568
  630MOL0     H83122   2.843   8.445   1.899 -0.2849 -0.4465 -0.6891
  630MOL0     H83123   2.633   8.421   2.010  1.7424 -1.5983 -2.6634
  630MOL0     H83124   2.188   8.508   1.985  0.1733  0.4510  0.1753
  630MOL0     H83125   1.957   8.472   2.078 -0.1698 -2.9198 -0.1318
  630MOL0     H83126   1.873   8.410   2.533  1.2877 -1.3161  1.9481
  630MOL0     H83127   1.932   8.257   2.473 -1.0367 -1.3983 -0.1861
  630MOL0     H83128   1.714   8.218   2.530 -0.3551 -3.1399 -1.8430
  630MOL0     H83129   1.702   8.224   2.354 -2.4149  0.5879 -0.1283
  630MOL0     H83130   1.637   8.487   2.387 -0.0247  0.1694  0.0710
  630MOL0     H83131   1.637   8.451   2.560  4.2437 -0.2612 -0.3300
  630MOL0     H83132   1.466   8.285   2.379 -1.0221  2.2049  0.0601
  630MOL0     H83133   1.450   8.306   2.552 -0.2129  3.5115  2.0310
  630MOL0     H83134   1.279   8.395   2.431 -0.0728  1.0107  3.5223
  630MOL0     H83135   1.378   8.508   2.340  0.4306 -0.0542  0.3109
  630MOL0     H83136   1.340   8.663   2.508 -0.2289 -1.2232 -1.2974
  630MOL0     H83137   1.454   8.585   2.610 -0.3438  1.0026  1.1327
  630MOL0     H83138   1.160   8.515   2.609  1.3207 -0.7946 -0.7336
  630MOL0     H83139   1.294   8.441   2.709  2.4858  0.0185  0.1871
  630MOL0     H83140   1.312   8.711   2.773  0.0770 -0.1773 -1.0796
  630MOL0     H83141   1.185   8.605   2.846  1.7352  1.3993  1.3040
  630MOL0     H83142   2.127   8.374   2.460 -1.1367  0.0887 -0.5778
  630MOL0     H83143   2.351   8.412   2.367  0.6229 -1.1216 -0.4122
  630MOL0     H83144   2.564   8.848   1.958 -0.2764 -0.2962 -0.2664
  630MOL0     H83145   2.789   8.860   1.868 -0.0086 -0.9328 -1.4114
  630MOL0     H83146   4.660   7.977   1.071 -0.3058  0.2938  0.7754
  630MOL0     H83147   4.904   8.015   1.003 -1.5318 -0.3719 -1.4836
  630MOL0     H83148   5.277   8.352   1.095  1.5997 -0.0288 -1.2640
  630MOL0     H83149   5.468   8.465   1.036 -1.6808  2.2417  0.9116
  630MOL0     H83150   5.452   8.681   0.681 -0.5761 -1.0783 -2.1703
  630MOL0     H83151   5.530   8.560   0.591 -2.8919  1.3383 -0.4420
  630MOL0     H83152   5.658   8.798   0.748  0.1229 -1.0366  0.4706
  630MOL0     H83153   5.762   8.667   0.696 -0.4965 -1.7361 -2.0682
  630MOL0     H83154   5.584   8.840   0.522  0.7460  3.0903  2.0813
  630MOL0     H83155   5.691   8.708   0.472  1.9372 -0.3823 -0.3134
  630MOL0     H83156   5.883   8.828   0.597 -0.5691  0.3333  1.2094
  630MOL0     H83157   5.831   8.910   0.448 -0.5326  1.8435 -0.8119
  630MOL0     H83158   5.731   9.207   0.716 -2.8916 -1.3776  0.8326
  630MOL0     H83159   5.315   8.503   0.625  0.0705  0.0414  0.8473
  630MOL0     H83160   5.105   8.377   0.706  1.3275 -0.0114 -2.8550
  631MOL0     O83161   2.301   8.513  11.125  0.6983  0.1867 -0.5350
  631MOL0     C83162   2.342   8.492  11.010  0.1132  0.5805  0.3919
  631MOL0     O83163   2.415   8.378  10.966  1.0182 -0.3291  0.4673
  631MOL0     C83164   2.459   8.290  11.066 -0.1876  0.3538  1.1591
  631MOL0     C83165   2.393   8.166  11.075  0.1586 -0.2791  0.2588
  631MOL0     C83166   2.434   8.063  11.167 -0.4397 -0.2591 -0.6583
  631MOL0     C83167   2.543   8.084  11.247 -1.0067 -0.6515 -1.3689
  631MOL0     O83168   2.575   7.994  11.353  0.9831 -0.0018  0.8447
  631MOL0     C83169   2.598   7.862  11.311  0.6374 -0.4821  0.7083
  631MOL0     C83170   2.682   7.788  11.408 -0.8892  1.2010  0.6682
  631MOL0     C83171   2.811   7.848  11.449 -0.1225 -0.4649 -0.1539
  631MOL0     C83172   2.868   7.779  11.573  0.1019  0.1684 -0.1471
  631MOL0     C83173   3.017   7.795  11.593 -0.8433  0.5266  0.2787
  631MOL0     C83174   3.069   7.733  11.719  0.1633  0.5038  0.2645
  631MOL0     C83175   3.210   7.786  11.751  0.4703  0.0338  0.4737
  631MOL0     C83176   3.315   7.758  11.644  0.3394  0.1816  0.3340
  631MOL0     N83177   3.448   7.782  11.694  0.5574 -0.7248  0.3065
  631MOL0     C83178   3.493   7.899  11.747  1.1873 -0.0424 -0.3494
  631MOL0     C83179   3.613   7.867  11.799 -0.1687  0.6474  0.3161
  631MOL0     C83180   3.717   7.936  11.875  0.2181 -1.0150 -0.1342
  631MOL0     C83181   3.832   7.961  11.783 -0.3222 -0.5055 -0.0974
  631MOL0     C83182   3.797   8.029  11.645 -0.6431  0.2680  0.4558
  631MOL0     C83183   3.919   8.062  11.549 -0.0440 -0.6941  0.1050
  631MOL0     O83184   3.983   7.939  11.518 -0.6778 -0.0061  0.4800
  631MOL0     C83185   4.093   7.939  11.431  0.2352  0.7553  0.6239
  631MOL0     C83186   4.131   7.807  11.389 -0.0706 -0.4461 -0.0322
  631MOL0     C83187   4.236   7.797  11.290  0.2476 -0.1222  0.3829
  631MOL0     C83188   4.304   7.907  11.244  1.1477 -0.7174  0.8069
  631MOL0     C83189   4.411   7.888  11.144  0.9323  0.2381 -0.5773
  631MOL0     O83190   4.507   7.985  11.130  0.7370  0.2539 -0.1224
  631MOL0     C83191   4.614   7.966  11.042  0.9266  0.4160 -0.6952
  631MOL0     C83192   4.641   8.064  10.942  0.0870  0.2401  0.4831
  631MOL0     C83193   4.756   8.051  10.864 -0.6655 -0.5507 -0.1072
  631MOL0     C83194   4.844   7.952  10.877 -0.5883 -0.0131 -0.0671
  631MOL0     O83195   4.960   7.963  10.798  0.0119  0.1995  0.2591
  631MOL0     C83196   5.010   7.834  10.753  0.8948  0.2970  0.6165
  631MOL0     C83197   5.159   7.821  10.778  0.2772 -1.1805  0.2146
  631MOL0     C83198   5.205   7.836  10.918 -0.5957  0.2552 -0.3583
  631MOL0     C83199   5.346   7.765  10.917  0.0359  0.0638  0.0268
  631MOL0     C83200   5.448   7.796  10.806  0.4461  0.2701  0.5702
  631MOL0     C83201   5.585   7.730  10.837  0.0340 -0.3150  0.4197
  631MOL0     C83202   5.687   7.823  10.761  0.4208 -0.4195 -0.0810
  631MOL0     C83203   5.817   7.745  10.730 -0.6145 -0.6737  0.0450
  631MOL0    Cl83204   5.907   7.685  10.875 -0.1657  0.0045  0.3887
  631MOL0     C83205   4.816   7.849  10.973  0.5121  0.9275 -1.0473
  631MOL0     C83206   4.703   7.862  11.060  0.5693  0.8444 -0.0444
  631MOL0     O83207   4.401   7.785  11.072 -0.3915  0.0059 -0.3699
  631MOL0     C83208   4.261   8.035  11.292 -0.5472  0.2491 -0.0925
  631MOL0     C83209   4.154   8.055  11.374 -0.0634 -1.0820 -1.2815
  631MOL0     N83210   3.639   7.730  11.765 -0.8837 -0.1297 -0.1329
  631MOL0     N83211   3.534   7.680  11.728 -0.2168 -0.3411  0.4080
  631MOL0     C83212   2.605   8.216  11.242  0.2404  0.2027  0.7730
  631MOL0     C83213   2.571   8.305  11.139  1.1672 -0.4393  0.4193
  631MOL0     C83214   2.294   8.581  10.908 -0.3905  0.0328 -0.0846
  631MOL0     C83215   2.217   8.689  10.930  0.1512 -0.3177  0.0391
  631MOL0     C83216   2.174   8.772  10.828  0.5869 -0.4388  0.5405
  631MOL0     C83217   2.213   8.746  10.695  1.4033 -0.0920  0.2586
  631MOL0     O83218   2.150   8.837  10.612  0.0505 -0.3170 -0.2559
  631MOL0     C83219   2.175   8.814  10.472 -0.0846 -0.2538  0.6306
  631MOL0     C83220   2.321   8.838  10.428 -0.0784 -0.1633 -0.5492
  631MOL0     C83221   2.351   8.763  10.299 -0.0643 -0.7152 -0.0648
  631MOL0     C83222   2.491   8.792  10.246 -0.1597 -0.5988 -0.0760
  631MOL0     C83223   2.604   8.715  10.296  1.0087  0.3084 -0.0335
  631MOL0     C83224   2.692   8.666  10.356 -0.2800  0.2990 -0.6093
  631MOL0     C83225   2.293   8.633  10.670 -0.1455 -0.4078 -0.6931
  631MOL0     C83226   2.344   8.564  10.778 -0.9726 -0.0810  0.8875
  631MOL0     H83227   2.315   8.140  11.004  2.3145 -1.3403 -1.8486
  631MOL0     H83228   2.379   7.971  11.178 -1.3766  0.4222  0.5185
  631MOL0     H83229   2.661   7.864  11.221  0.3834  1.3121  0.5347
  631MOL0     H83230   2.507   7.810  11.281 -0.2094  1.6503 -0.6453
  631MOL0     H83231   2.698   7.689  11.365 -4.4252 -0.0495  1.8003
  631MOL0     H83232   2.618   7.761  11.493 -2.6122  0.4684 -0.7835
  631MOL0     H83233   2.780   7.947  11.485 -0.5485  0.3153 -2.5011
  631MOL0     H83234   2.877   7.858  11.362 -0.6713 -2.0238 -0.7790
  631MOL0     H83235   2.819   7.834  11.654  0.0098 -0.0711 -0.0408
  631MOL0     H83236   2.843   7.673  11.576  0.3868 -0.0496 -2.7650
  631MOL0     H83237   3.018   7.904  11.609 -4.3056  0.8099 -0.5901
  631MOL0     H83238   3.076   7.778  11.503  2.0932  2.8365  1.6158
  631MOL0     H83239   3.059   7.625  11.704 -1.9845  0.8965 -1.8388
  631MOL0     H83240   3.015   7.765  11.808  0.9356  1.6695  0.3400
  631MOL0     H83241   3.192   7.892  11.774  1.6363 -0.4267  4.1281
  631MOL0     H83242   3.248   7.744  11.845 -1.2167 -0.8124  0.8109
  631MOL0     H83243   3.296   7.815  11.552 -0.2435  2.5912  1.8426
  631MOL0     H83244   3.318   7.653  11.614  1.2820  0.2467  0.1617
  631MOL0     H83245   3.439   7.993  11.752  1.7660  0.2491  0.9004
  631MOL0     H83246   3.757   7.878  11.959  0.4449 -0.8707 -0.1406
  631MOL0     H83247   3.680   8.034  11.909  1.0782 -0.9634  0.6967
  631MOL0     H83248   3.873   7.863  11.756 -0.6352 -0.9859  1.0732
  631MOL0     H83249   3.915   8.018  11.827 -0.8993  0.5397 -0.3395
  631MOL0     H83250   3.734   7.966  11.582  0.9032  0.1407 -1.0459
  631MOL0     H83251   3.765   8.132  11.661 -0.0274  0.3533  1.1898
  631MOL0     H83252   3.982   8.139  11.595 -0.9232  0.2104 -0.1739
  631MOL0     H83253   3.877   8.104  11.457 -3.0748 -1.3081  1.0866
  631MOL0     H83254   4.086   7.726  11.446  0.6894 -1.0351 -0.2417
  631MOL0     H83255   4.275   7.698  11.269  2.3532  1.0080 -1.4445
  631MOL0     H83256   4.584   8.155  10.926  0.3262  0.3128  0.0318
  631MOL0     H83257   4.785   8.133  10.799  0.9041 -0.9798  0.0215
  631MOL0     H83258   4.983   7.823  10.648 -1.6383 -4.1052  1.4560
  631MOL0     H83259   4.950   7.752  10.795 -2.0236  2.5317  1.1223
  631MOL0     H83260   5.207   7.898  10.717 -5.0841  2.7666  0.1759
  631MOL0     H83261   5.189   7.722  10.743  2.5364 -0.5243  0.1414
  631MOL0     H83262   5.148   7.791  11.000  0.7724 -0.4627  0.2340
  631MOL0     H83263   5.219   7.942  10.944 -1.9043  0.6493 -1.1498
  631MOL0     H83264   5.399   7.784  11.010 -0.1463 -3.1216  0.9113
  631MOL0     H83265   5.329   7.657  10.926 -0.1736  0.1125  0.2393
  631MOL0     H83266   5.460   7.904  10.804  0.3533  0.2737 -1.4723
  631MOL0     H83267   5.404   7.762  10.712 -0.6443  0.0732  1.1277
  631MOL0     H83268   5.597   7.632  10.789 -0.3666 -1.0837  1.8258
  631MOL0     H83269   5.605   7.725  10.945 -0.1628  2.7287  0.6929
  631MOL0     H83270   5.647   7.851  10.664  1.1311 -1.6627 -0.7609
  631MOL0     H83271   5.701   7.915  10.819  0.4312  0.8447 -2.0061
  631MOL0     H83272   5.891   7.804  10.676 -1.5425  0.2071 -0.2914
  631MOL0     H83273   5.790   7.656  10.673 -2.9224 -0.1163  0.1831
  631MOL0     H83274   4.889   7.772  10.992 -0.0581  0.7707  0.6588
  631MOL0     H83275   4.673   7.791  11.137 -3.8022  1.9072 -0.5020
  631MOL0     H83276   4.327   8.115  11.259 -0.5723 -0.8184 -3.1004
  631MOL0     H83277   4.135   8.160  11.394 -1.1659 -1.7814  1.9126
  631MOL0     H83278   2.686   8.226  11.314 -0.9566 -4.0397  3.0291
  631MOL0     H83279   2.633   8.391  11.116  1.0455 -0.3980  0.2419
  631MOL0     H83280   2.186   8.693  11.034 -1.7894 -0.5397 -0.5005
  631MOL0     H83281   2.115   8.861  10.847 -0.3830 -0.1604 -2.9645
  631MOL0     H83282   2.110   8.884  10.419  1.2049  0.7427  0.3013
  631MOL0     H83283   2.135   8.722  10.429  1.0928  0.0163 -1.1314
  631MOL0     H83284   2.328   8.947  10.424  1.8526 -0.1382  1.3640
  631MOL0     H83285   2.395   8.812  10.504 -1.6679 -1.6650  0.5668
  631MOL0     H83286   2.280   8.786  10.219  2.0009  0.4744 -1.6495
  631MOL0     H83287   2.352   8.656  10.318 -1.3253 -0.6691  0.3875
  631MOL0     H83288   2.475   8.770  10.140  0.8368  1.0290 -0.5953
  631MOL0     H83289   2.520   8.897  10.259  2.5395 -1.2830 -0.0375
  631MOL0     H83290   2.770   8.645  10.426  0.9180  3.1004 -0.9930
  631MOL0     H83291   2.331   8.608  10.571  0.9357  0.3114 -0.4771
  631MOL0     H83292   2.406   8.479  10.752  0.7002  1.6670 -1.1903
  632MOL0     O83293   3.537   8.778   1.216 -0.0334  0.7244  0.0087
  632MOL0     C83294   3.585   8.665   1.232 -0.2103 -0.5748 -0.0013
  632MOL0     O83295   3.513   8.557   1.258 -0.0892 -0.3284 -0.1991
  632MOL0     C83296   3.371   8.569   1.263 -0.4897 -0.2886 -0.3265
  632MOL0     C83297   3.277   8.531   1.167  0.1091 -0.1290 -0.1103
  632MOL0     C83298   3.149   8.541   1.197 -0.5926  0.0466 -0.1580
  632MOL0     C83299   3.090   8.598   1.309 -1.1189  0.3278  0.4557
  632MOL0     O83300   2.961   8.615   1.314  0.6363  0.0852 -0.5472
  632MOL0     C83301   2.928   8.753   1.339  0.9603  1.5839  0.7856
  632MOL0     C83302   2.773   8.767   1.332 -0.8825 -0.6426 -0.5022
  632MOL0     C83303   2.703   8.710   1.456  0.0166  0.2387 -0.5644
  632MOL0     C83304   2.552   8.709   1.444 -0.6520  0.4703 -0.1927
  632MOL0     C83305   2.477   8.667   1.562 -0.1979 -0.3079 -0.0186
  632MOL0     C83306   2.342   8.637   1.518  0.1037 -0.9665  1.1102
  632MOL0     C83307   2.249   8.588   1.638  0.2208  0.4526  0.2182
  632MOL0     C83308   2.095   8.546   1.598  0.4438 -1.0776 -0.4765
  632MOL0     N83309   2.009   8.498   1.712 -0.2830 -0.9971 -0.5648
  632MOL0     C83310   1.886   8.538   1.731  1.3681 -0.5630  0.9294
  632MOL0     C83311   1.832   8.442   1.811  0.0886  0.2166  0.9551
  632MOL0     C83312   1.705   8.444   1.886  0.7716 -0.4691  0.1405
  632MOL0     C83313   1.629   8.580   1.870 -0.6757 -0.3686 -0.7877
  632MOL0     C83314   1.529   8.588   1.981  0.6158  0.0279 -0.2116
  632MOL0     C83315   1.582   8.610   2.125  0.1163 -0.3353  0.1594
  632MOL0     O83316   1.673   8.724   2.111  0.2105  0.0065 -0.5755
  632MOL0     C83317   1.765   8.751   2.216 -0.2060  0.0355  0.4298
  632MOL0     C83318   1.898   8.785   2.179 -0.0874 -0.9407  0.2368
  632MOL0     C83319   1.995   8.804   2.279  0.3013 -0.2079 -0.9622
  632MOL0     C83320   1.966   8.787   2.416  0.3388  0.0730 -1.1107
  632MOL0     C83321   2.068   8.801   2.516 -0.1254 -0.5288  0.1507
  632MOL0     O83322   2.188   8.846   2.469 -0.8223  0.1709  0.8576
  632MOL0     C83323   2.299   8.866   2.533  0.2917  0.2335 -0.9193
  632MOL0     C83324   2.423   8.835   2.465 -0.2070 -1.2149 -1.0975
  632MOL0     C83325   2.547   8.866   2.525 -0.9492  0.1834 -0.5984
  632MOL0     C83326   2.556   8.936   2.644  0.1497 -0.4143  0.1650
  632MOL0     O83327   2.684   8.965   2.695 -0.0492 -0.1323  0.3596
  632MOL0     C83328   2.690   9.065   2.790 -1.0908  0.0938  0.1103
  632MOL0     C83329   2.828   9.112   2.826 -0.2108 -0.3867  0.2782
  632MOL0     C83330   2.837   9.212   2.942 -0.6656 -0.8139 -0.3136
  632MOL0     C83331   2.981   9.246   2.979 -1.0218 -0.3209 -0.4673
  632MOL0     C83332   2.994   9.360   3.082  0.7423  0.7072  0.4218
  632MOL0     C83333   3.137   9.377   3.137 -0.1608  0.1656 -0.3520
  632MOL0     C83334   3.142   9.484   3.255 -0.4822  1.1180  0.2791
  632MOL0     C83335   3.283   9.538   3.298 -0.0052 -0.3573  0.3035
  632MOL0    Cl83336   3.275   9.641   3.438 -0.1537 -0.0348 -0.0691
  632MOL0     C83337   2.435   8.975   2.697  0.5288  0.8021 -0.5834
  632MOL0     C83338   2.303   8.934   2.658 -0.5148  0.1766 -0.2348
  632MOL0     O83339   2.042   8.778   2.634  0.1193  0.5784  0.5228
  632MOL0     C83340   1.831   8.759   2.449 -0.8564  0.8565 -0.1064
  632MOL0     C83341   1.741   8.734   2.349 -0.0166  0.2676 -0.2929
  632MOL0     N83342   1.927   8.348   1.816  0.2135  0.0259 -0.0943
  632MOL0     N83343   2.035   8.371   1.753 -0.2579  0.0084 -1.0063
  632MOL0     C83344   3.185   8.642   1.402 -0.7896 -0.4527 -0.0519
  632MOL0     C83345   3.321   8.625   1.379  1.7886 -0.0337 -0.7349
  632MOL0     C83346   3.725   8.647   1.204  1.3209  0.5400  0.2811
  632MOL0     C83347   3.810   8.760   1.204 -0.7418 -0.2877 -0.3935
  632MOL0     C83348   3.954   8.743   1.196 -0.4560 -0.5765 -0.3516
  632MOL0     C83349   4.006   8.611   1.176 -0.1118  0.6832 -0.1176
  632MOL0     O83350   4.139   8.576   1.172 -0.2725  0.2818  0.1667
  632MOL0     C83351   4.227   8.681   1.145 -0.2640  0.5106 -0.0136
  632MOL0     C83352   4.355   8.624   1.085 -0.7747  0.7738  0.1691
  632MOL0     C83353   4.446   8.733   1.030  0.4395  0.3360 -0.6614
  632MOL0     C83354   4.502   8.818   1.144 -0.5595 -0.3002  0.6649
  632MOL0     C83355   4.594   8.741   1.229  0.3217  0.4940  0.1179
  632MOL0     C83356   4.684   8.671   1.274 -0.6003 -1.1606  0.9079
  632MOL0     C83357   3.916   8.503   1.186  0.0645 -0.1619  0.3924
  632MOL0     C83358   3.782   8.514   1.196  0.8233  0.6019  0.1613
  632MOL0     H83359   3.309   8.490   1.071  1.1719  0.4774 -0.0407
  632MOL0     H83360   3.081   8.494   1.127 -0.7196  0.9327 -0.6487
  632MOL0     H83361   2.982   8.821   1.273  0.9335  0.2454 -0.6877
  632MOL0     H83362   2.956   8.764   1.444  0.2064  1.3162  1.0195
  632MOL0     H83363   2.744   8.725   1.235  0.5523 -0.0979 -1.2085
  632MOL0     H83364   2.749   8.874   1.322  0.1384 -0.1280  1.8959
  632MOL0     H83365   2.729   8.769   1.544 -1.5525 -1.5025  1.1806
  632MOL0     H83366   2.736   8.608   1.478  0.0848  0.7754  2.2875
  632MOL0     H83367   2.531   8.814   1.423  0.5417  0.9541  0.8659
  632MOL0     H83368   2.527   8.649   1.356  0.8422 -0.1219 -0.2539
  632MOL0     H83369   2.474   8.761   1.619  2.3090  1.9684 -3.2490
  632MOL0     H83370   2.514   8.584   1.623 -1.1622 -0.3699  0.5165
  632MOL0     H83371   2.339   8.547   1.457 -0.8909 -0.8466  0.9609
  632MOL0     H83372   2.292   8.719   1.466  0.2149 -0.0498  2.3846
  632MOL0     H83373   2.297   8.507   1.694  0.7098 -0.0649 -0.9119
  632MOL0     H83374   2.245   8.671   1.709 -0.3303 -0.4956  1.3210
  632MOL0     H83375   2.095   8.464   1.525 -0.4802 -1.4575 -0.0639
  632MOL0     H83376   2.046   8.630   1.547  0.7320  1.0942  2.5704
  632MOL0     H83377   1.847   8.634   1.699  2.8119  0.4682  2.0953
  632MOL0     H83378   1.734   8.429   1.991 -1.3627 -4.7041  0.3303
  632MOL0     H83379   1.649   8.357   1.851  0.5977 -0.4461  0.3561
  632MOL0     H83380   1.583   8.586   1.771  0.9658 -3.5295 -1.8946
  632MOL0     H83381   1.707   8.657   1.868  1.2062 -2.1943 -1.3016
  632MOL0     H83382   1.465   8.671   1.950 -1.3123 -1.4367 -0.2946
  632MOL0     H83383   1.458   8.506   1.970 -0.2350  0.9127 -1.6186
  632MOL0     H83384   1.632   8.520   2.163  1.5025 -1.1527 -3.2339
  632MOL0     H83385   1.508   8.646   2.198  2.0076  1.2690  1.3773
  632MOL0     H83386   1.926   8.797   2.075 -3.1485  1.1174 -0.4920
  632MOL0     H83387   2.097   8.832   2.254  0.1076  0.8432 -0.5881
  632MOL0     H83388   2.418   8.774   2.376  1.0979 -2.4519 -0.3862
  632MOL0     H83389   2.642   8.839   2.480 -0.1156  0.3927  0.9537
  632MOL0     H83390   2.660   9.014   2.882  0.1170 -0.1070  0.4140
  632MOL0     H83391   2.638   9.160   2.772  0.9919  1.2494 -0.1368
  632MOL0     H83392   2.870   9.167   2.741  0.0156 -0.2022  0.5074
  632MOL0     H83393   2.889   9.028   2.861  0.3449 -0.5346 -0.9759
  632MOL0     H83394   2.787   9.158   3.023 -1.1127 -2.7626 -1.8046
  632MOL0     H83395   2.794   9.311   2.926  1.3187  0.3806  1.1857
  632MOL0     H83396   3.026   9.161   3.032 -1.4561  0.1901  0.7485
  632MOL0     H83397   3.048   9.253   2.892  0.4793 -1.5535  0.5369
  632MOL0     H83398   2.916   9.345   3.158 -1.2616  0.2712 -1.6279
  632MOL0     H83399   2.955   9.448   3.031 -1.3530 -0.7565 -0.6457
  632MOL0     H83400   3.203   9.400   3.054 -0.4187 -0.6233 -0.7911
  632MOL0     H83401   3.171   9.284   3.185 -2.2955 -0.6218 -0.2206
  632MOL0     H83402   3.078   9.561   3.210  0.0967  1.8330  0.6672
  632MOL0     H83403   3.085   9.457   3.345 -0.5271 -0.1152 -0.0954
  632MOL0     H83404   3.306   9.604   3.214 -0.3034 -0.8376 -0.1547
  632MOL0     H83405   3.349   9.454   3.316  0.2760  0.1369  1.7098
  632MOL0     H83406   2.444   9.027   2.792 -4.1586  1.1835 -0.1351
  632MOL0     H83407   2.219   8.968   2.718 -0.3291  1.6362 -0.7498
  632MOL0     H83408   1.796   8.740   2.551 -0.4850  0.5097 -0.0382
  632MOL0     H83409   1.638   8.701   2.364 -0.5722  2.1966  0.4382
  632MOL0     H83410   3.155   8.696   1.491  0.2702  1.4466 -0.7887
  632MOL0     H83411   3.387   8.671   1.452 -1.9878 -0.7869  3.5972
  632MOL0     H83412   3.768   8.859   1.208 -0.2107  0.0958 -2.7546
  632MOL0     H83413   4.014   8.833   1.194 -0.1083 -0.8023 -2.1870
  632MOL0     H83414   4.249   8.725   1.243  1.2912  2.4961 -1.1770
  632MOL0     H83415   4.195   8.759   1.075  1.2283  1.0557 -0.1300
  632MOL0     H83416   4.396   8.558   1.162 -1.6781  0.5228  0.4462
  632MOL0     H83417   4.328   8.557   1.002 -1.3450  0.4073  0.6441
  632MOL0     H83418   4.382   8.793   0.965 -0.8759 -0.0973  0.1944
  632MOL0     H83419   4.522   8.675   0.978 -1.2602 -4.3385  1.5443
  632MOL0     H83420   4.552   8.903   1.098  0.1278 -1.8318 -1.6121
  632MOL0     H83421   4.420   8.847   1.210  0.7075 -0.3328  2.2892
  632MOL0     H83422   4.770   8.619   1.310 -0.2073 -0.8685  0.3905
  632MOL0     H83423   3.957   8.403   1.179  0.3391 -0.0419  0.2886
  632MOL0     H83424   3.724   8.422   1.193 -0.6855  1.4209  2.0376
  633MOL0     O83425   6.354   5.478   6.726 -0.1569  0.7225  0.5443
  633MOL0     C83426   6.385   5.581   6.668  1.0677  0.0801 -0.0391
  633MOL0     O83427   6.289   5.677   6.628  1.0543  0.5732  0.3264
  633MOL0     C83428   6.160   5.674   6.676  0.5932  0.2672  0.9111
  633MOL0     C83429   6.061   5.701   6.586 -0.3252 -0.2232  0.0552
  633MOL0     C83430   5.928   5.692   6.623  0.2058 -0.1174  0.8245
  633MOL0     C83431   5.893   5.665   6.761  0.6566  0.1004  0.0621
  633MOL0     O83432   5.757   5.646   6.798  0.5117  0.5648 -0.2642
  633MOL0     C83433   5.728   5.662   6.932 -0.3048 -0.9921 -0.3451
  633MOL0     C83434   5.578   5.657   6.966  0.2993  0.8611 -0.6346
  633MOL0     C83435   5.486   5.719   6.864  0.1788 -0.5615 -0.1320
  633MOL0     C83436   5.345   5.724   6.916  0.5996  0.5561 -0.3484
  633MOL0     C83437   5.254   5.807   6.832  0.1495 -0.2482  0.3895
  633MOL0     C83438   5.113   5.793   6.880  0.9395 -0.5329 -0.1519
  633MOL0     C83439   5.012   5.880   6.801 -0.0778 -0.4434  0.2045
  633MOL0     C83440   4.881   5.876   6.866  0.6192 -0.1944 -0.3581
  633MOL0     N83441   4.771   5.915   6.777  0.0095 -0.4856  0.7122
  633MOL0     C83442   4.727   5.850   6.660  0.5188 -0.1809  0.1393
  633MOL0     C83443   4.644   5.933   6.598  0.3553 -0.3563  0.3553
  633MOL0     C83444   4.607   5.905   6.461  0.4761 -0.2082  0.6015
  633MOL0     C83445   4.457   5.865   6.447 -0.9906  0.0558 -0.8264
  633MOL0     C83446   4.422   5.719   6.507  0.1038  0.4248  0.8323
  633MOL0     C83447   4.278   5.692   6.542 -1.0100 -0.7498  0.1380
  633MOL0     O83448   4.221   5.795   6.627  0.7267  0.8642 -0.0216
  633MOL0     C83449   4.085   5.786   6.651 -1.0524 -0.3220  0.4523
  633MOL0     C83450   4.027   5.880   6.741  0.0866 -0.4587 -0.9840
  633MOL0     C83451   3.894   5.867   6.778  0.2008 -0.1057  0.0370
  633MOL0     C83452   3.811   5.762   6.722 -0.3451  0.1420 -0.9349
  633MOL0     C83453   3.671   5.733   6.768  0.4697  0.2287  0.3549
  633MOL0     O83454   3.588   5.676   6.676  0.1053 -0.3098 -0.8675
  633MOL0     C83455   3.477   5.599   6.720  0.5441  0.0491  0.7055
  633MOL0     C83456   3.455   5.533   6.841  0.7113  0.9886  0.6443
  633MOL0     C83457   3.340   5.458   6.856 -0.2486 -0.7706  0.4316
  633MOL0     C83458   3.239   5.450   6.757 -0.2069  0.1865 -0.4234
  633MOL0     O83459   3.120   5.380   6.759  0.5855  0.2433 -0.8033
  633MOL0     C83460   3.108   5.278   6.858 -0.1531 -0.2393  0.7424
  633MOL0     C83461   2.984   5.188   6.815  0.1901 -0.8138 -0.1762
  633MOL0     C83462   2.859   5.257   6.758 -1.1370 -0.3325  0.0963
  633MOL0     C83463   2.800   5.360   6.857 -0.1210  1.1272 -0.6976
  633MOL0     C83464   2.671   5.419   6.790  0.2639  0.4318 -0.4013
  633MOL0     C83465   2.704   5.549   6.712  0.7203  0.2464  0.8552
  633MOL0     C83466   2.616   5.555   6.578 -0.1935 -0.7718 -0.4769
  633MOL0     C83467   2.668   5.657   6.473 -1.1043  0.6627 -0.9529
  633MOL0    Cl83468   2.541   5.663   6.348  0.2560  0.3512 -0.2136
  633MOL0     C83469   3.260   5.531   6.643  0.4701  0.2790 -0.1314
  633MOL0     C83470   3.381   5.601   6.617  0.4046  0.0988  0.2949
  633MOL0     O83471   3.639   5.769   6.886  0.4947  0.7264  0.2686
  633MOL0     C83472   3.870   5.666   6.640  1.0807 -0.4165 -0.1151
  633MOL0     C83473   4.001   5.684   6.597  0.5417  0.3276 -0.3635
  633MOL0     N83474   4.640   6.057   6.667 -0.3173 -0.5254  0.5477
  633MOL0     N83475   4.728   6.043   6.769  0.2658 -0.4744  0.8371
  633MOL0     C83476   5.998   5.639   6.849 -0.7460  0.1851  0.0303
  633MOL0     C83477   6.130   5.639   6.808 -0.1206  0.1795  0.2243
  633MOL0     C83478   6.527   5.600   6.620  0.0347 -0.1405 -0.3436
  633MOL0     C83479   6.624   5.516   6.683 -0.0853  0.5921  0.9260
  633MOL0     C83480   6.759   5.549   6.671  0.7234  1.2229  0.0534
  633MOL0     C83481   6.804   5.649   6.580  0.5050 -0.2972  0.4612
  633MOL0     O83482   6.933   5.683   6.573  0.5104  0.3675 -0.6050
  633MOL0     C83483   7.018   5.664   6.688  0.1818  0.6668 -0.1067
  633MOL0     C83484   7.141   5.758   6.664 -0.4313  0.0727 -0.0596
  633MOL0     C83485   7.132   5.904   6.707 -0.6800 -0.6139  0.4710
  633MOL0     C83486   7.242   5.994   6.634 -0.3011 -0.2851  0.1752
  633MOL0     C83487   7.382   5.957   6.680  0.5078 -0.0285  1.0514
  633MOL0     C83488   7.501   5.931   6.701  0.2606 -0.2723 -0.7504
  633MOL0     C83489   6.714   5.716   6.498  0.3551 -0.1474  0.1223
  633MOL0     C83490   6.573   5.704   6.536  0.1858 -0.0192 -0.0938
  633MOL0     H83491   6.089   5.728   6.485  0.5256  1.1686  0.6273
  633MOL0     H83492   5.852   5.714   6.548 -0.4400 -1.7146  0.9728
  633MOL0     H83493   5.751   5.763   6.967 -3.6840 -0.7355  1.5578
  633MOL0     H83494   5.789   5.595   6.994  4.2699  2.6331 -0.3821
  633MOL0     H83495   5.554   5.682   7.070  0.0795  0.4511 -0.5821
  633MOL0     H83496   5.555   5.550   6.971  0.1551  0.8902 -0.6580
  633MOL0     H83497   5.483   5.657   6.774 -1.9663 -1.1888  0.2907
  633MOL0     H83498   5.536   5.813   6.844  3.4216 -1.4409  2.8257
  633MOL0     H83499   5.305   5.623   6.925  0.3033  0.8233  1.9664
  633MOL0     H83500   5.336   5.768   7.016  0.6103 -1.2245  0.4825
  633MOL0     H83501   5.254   5.763   6.732  1.3595 -1.7745  1.0131
  633MOL0     H83502   5.291   5.910   6.832 -0.0167 -0.1558  2.3091
  633MOL0     H83503   5.117   5.819   6.986 -1.4399  0.4657 -0.2442
  633MOL0     H83504   5.068   5.693   6.876  1.4643 -0.7740 -0.2158
  633MOL0     H83505   5.040   5.986   6.795  2.3038 -1.0908 -1.8842
  633MOL0     H83506   5.017   5.847   6.697  2.7262  2.8269 -0.8675
  633MOL0     H83507   4.891   5.946   6.949  1.2683  0.0494 -0.6366
  633MOL0     H83508   4.857   5.775   6.903  0.4590 -0.6872 -1.7453
  633MOL0     H83509   4.779   5.770   6.610 -1.1892 -0.3133 -1.5444
  633MOL0     H83510   4.680   5.835   6.419  0.2615  1.0969 -2.1708
  633MOL0     H83511   4.631   5.994   6.403  1.1705 -0.4191  0.5643
  633MOL0     H83512   4.418   5.885   6.347 -0.6223 -0.2165 -1.0286
  633MOL0     H83513   4.414   5.940   6.515 -0.0830  1.5771 -1.8785
  633MOL0     H83514   4.448   5.651   6.426 -0.5513 -0.7919  1.6117
  633MOL0     H83515   4.483   5.682   6.591  4.4352  2.2203 -1.2106
  633MOL0     H83516   4.277   5.592   6.585 -0.7229 -0.3676  1.0783
  633MOL0     H83517   4.235   5.691   6.442  3.6208  0.4239 -2.1273
  633MOL0     H83518   4.087   5.953   6.793 -2.4585  0.1208  1.2833
  633MOL0     H83519   3.837   5.931   6.845 -2.3627  0.4494 -2.4659
  633MOL0     H83520   3.531   5.540   6.919 -0.2337  3.2079  1.4478
  633MOL0     H83521   3.317   5.411   6.952  1.2987 -1.9320  0.2693
  633MOL0     H83522   3.107   5.325   6.956  3.2694  0.8605  0.3898
  633MOL0     H83523   3.190   5.205   6.866 -1.9797 -2.3162  1.3240
  633MOL0     H83524   2.953   5.132   6.904  1.6922  0.3287  1.1187
  633MOL0     H83525   3.014   5.110   6.745 -2.4968 -4.5256  2.4375
  633MOL0     H83526   2.784   5.182   6.730 -0.3835 -1.0386 -0.0384
  633MOL0     H83527   2.883   5.318   6.671  0.6710  0.4335  1.0845
  633MOL0     H83528   2.762   5.304   6.943  0.3374  0.7307 -0.7481
  633MOL0     H83529   2.873   5.436   6.884 -2.3955  3.0221  0.5351
  633MOL0     H83530   2.594   5.452   6.861 -2.5039  0.4576 -3.2061
  633MOL0     H83531   2.620   5.348   6.725  0.9915  0.8349 -1.4374
  633MOL0     H83532   2.809   5.553   6.679  0.4297 -1.2201 -0.3557
  633MOL0     H83533   2.682   5.642   6.766  0.2473  0.8737 -0.3746
  633MOL0     H83534   2.616   5.458   6.527 -0.1552 -0.9545 -0.1282
  633MOL0     H83535   2.515   5.575   6.612  1.1177  0.5620  3.0567
  633MOL0     H83536   2.751   5.613   6.418 -2.0071 -1.0532 -1.0359
  633MOL0     H83537   2.689   5.751   6.524  3.3515 -1.2236  1.2764
  633MOL0     H83538   3.170   5.541   6.584  2.4489 -1.1195 -3.6915
  633MOL0     H83539   3.398   5.653   6.523 -1.5074  0.3118  0.0346
  633MOL0     H83540   3.809   5.589   6.594  0.0790  0.8343 -0.9759
  633MOL0     H83541   4.046   5.599   6.546  2.8638  2.3689 -1.9126
  633MOL0     H83542   5.981   5.611   6.953  2.9064  0.2935  0.8037
  633MOL0     H83543   6.211   5.614   6.875  0.0807 -1.7244 -0.6947
  633MOL0     H83544   6.595   5.420   6.725  0.5036 -0.8345 -1.7417
  633MOL0     H83545   6.837   5.508   6.734 -0.1684  0.8352  0.9313
  633MOL0     H83546   7.055   5.561   6.694 -0.3012  0.4710 -0.4602
  633MOL0     H83547   6.971   5.681   6.785  1.7573  1.0073  0.6388
  633MOL0     H83548   7.226   5.715   6.717  2.5605  3.2958 -1.8273
  633MOL0     H83549   7.177   5.734   6.563 -2.2901 -0.9930 -0.5271
  633MOL0     H83550   7.132   5.912   6.817  1.3669  1.9344  0.3772
  633MOL0     H83551   7.035   5.944   6.678 -0.5985 -0.2359  0.7028
  633MOL0     H83552   7.227   5.971   6.528  3.2445  0.6087 -0.6483
  633MOL0     H83553   7.217   6.099   6.652 -1.9977 -0.5954 -0.1902
  633MOL0     H83554   7.601   5.916   6.735 -1.2822 -3.7674  3.0551
  633MOL0     H83555   6.753   5.784   6.424  1.3752  1.4035  1.9939
  633MOL0     H83556   6.503   5.760   6.475 -0.8178  0.2530  1.2680
  634MOL0     O83557   6.889  10.084   1.954  0.0444  0.4203  0.5229
  634MOL0     C83558   6.878  10.002   1.865  0.7565 -0.5647  0.4707
  634MOL0     O83559   6.980   9.945   1.805 -0.3928 -0.8183 -0.0903
  634MOL0     C83560   7.109   9.965   1.858  0.7407 -0.0708 -0.4630
  634MOL0     C83561   7.214   9.978   1.768  0.8641 -0.4327 -0.7888
  634MOL0     C83562   7.350   9.990   1.807 -0.7049  0.2355 -0.1564
  634MOL0     C83563   7.384   9.964   1.940 -0.2674  0.0668  0.1868
  634MOL0     O83564   7.518   9.971   1.965  0.4621  0.3361  0.7828
  634MOL0     C83565   7.561   9.945   2.099  0.7873  0.1340 -0.4382
  634MOL0     C83566   7.721   9.956   2.112  0.6406  0.0693 -0.2139
  634MOL0     C83567   7.783   9.880   1.993 -1.0168 -0.0085  0.2196
  634MOL0     C83568   7.823   9.980   1.877  0.5088  0.3622 -0.7386
  634MOL0     C83569   7.835   9.901   1.751 -0.5949  0.5043 -0.3805
  634MOL0     C83570   7.880   9.983   1.638  0.4523  0.6394 -0.3536
  634MOL0     C83571   8.021  10.046   1.635  0.2499  1.1865 -0.2096
  634MOL0     C83572   8.036  10.173   1.549 -0.2873  0.8156 -0.5848
  634MOL0     N83573   8.176  10.209   1.513 -1.0750 -0.5794 -0.3539
  634MOL0     C83574   8.258  10.136   1.428 -0.5045 -0.9881 -0.0044
  634MOL0     C83575   8.375  10.213   1.423  0.5140  0.6981 -1.2456
  634MOL0     C83576   8.480  10.173   1.324 -0.1408 -0.2744 -1.2018
  634MOL0     C83577   8.621  10.239   1.362 -0.4388  0.0727  0.2864
  634MOL0     C83578   8.663  10.189   1.513  0.3634  0.0135  0.6732
  634MOL0     C83579   8.805  10.221   1.547  0.0202  0.6612 -0.2757
  634MOL0     O83580   8.882  10.146   1.453  0.5327  0.3340 -0.2329
  634MOL0     C83581   9.016  10.144   1.487  0.3624  0.8346 -0.2421
  634MOL0     C83582   9.081  10.228   1.571 -0.6439  0.2740 -0.5480
  634MOL0     C83583   9.221  10.203   1.592 -0.5566 -0.2782  0.7746
  634MOL0     C83584   9.282  10.097   1.528 -0.0186 -0.5438 -0.8913
  634MOL0     C83585   9.431  10.057   1.560  0.8121 -0.2743  0.3432
  634MOL0     O83586   9.486   9.957   1.489 -0.6715 -0.5701 -0.3407
  634MOL0     C83587   9.623   9.946   1.486  0.0619 -0.3116  0.2339
  634MOL0     C83588   9.682   9.957   1.357 -0.0967  0.5695 -1.0097
  634MOL0     C83589   9.820   9.930   1.347 -0.4620  0.0079  0.7636
  634MOL0     C83590   9.902   9.913   1.457  0.0527  1.0189  0.2707
  634MOL0     O83591  10.031   9.897   1.430 -0.1336 -0.1164 -0.4125
  634MOL0     C83592  10.132   9.956   1.513  0.2299  0.2688 -0.1219
  634MOL0     C83593  10.238   9.857   1.539  0.6092  0.3999  0.1896
  634MOL0     C83594  10.378   9.874   1.485 -0.3026  0.4878  0.1383
  634MOL0     C83595  10.460   9.763   1.538 -0.6634 -0.2028  0.4009
  634MOL0     C83596  10.578   9.714   1.459  0.0112  0.5544  0.1116
  634MOL0     C83597  10.673   9.824   1.437 -0.0366  0.5152 -0.7446
  634MOL0     C83598  10.811   9.789   1.383 -0.9071 -0.0108 -0.4542
  634MOL0     C83599  10.816   9.714   1.248 -0.0445 -0.5786  0.3173
  634MOL0    Cl83600  10.758   9.818   1.110  0.2707  0.2729 -0.0081
  634MOL0     C83601   9.842   9.915   1.581  0.6698  0.5396 -0.0848
  634MOL0     C83602   9.706   9.931   1.602 -0.1180  0.4054 -0.2000
  634MOL0     O83603   9.489  10.128   1.649  0.1816  0.0748 -0.2731
  634MOL0     C83604   9.208  10.021   1.437  0.9638  0.2398  0.0264
  634MOL0     C83605   9.081  10.043   1.431  0.1927 -0.3105  0.4925
  634MOL0     N83606   8.353  10.329   1.496 -0.4253 -0.0964  0.2902
  634MOL0     N83607   8.247  10.315   1.565  0.6618 -0.0218 -0.4969
  634MOL0     C83608   7.281   9.938   2.031 -0.2998  0.5993  0.2855
  634MOL0     C83609   7.145   9.929   1.989 -0.7198 -0.8331 -0.4798
  634MOL0     C83610   6.738   9.948   1.831  0.4545  0.6779 -0.2688
  634MOL0     C83611   6.722   9.843   1.738  0.0678 -0.1021  0.0126
  634MOL0     C83612   6.597   9.800   1.702  0.2140  0.0324 -0.1350
  634MOL0     C83613   6.482   9.864   1.751  0.8678  0.9387  0.1079
  634MOL0     O83614   6.368   9.800   1.706 -0.4399 -0.3471 -0.0970
  634MOL0     C83615   6.240   9.852   1.742 -0.9015 -0.5777 -0.4644
  634MOL0     C83616   6.131   9.812   1.641 -0.6013  0.7946 -0.4255
  634MOL0     C83617   5.997   9.886   1.686 -0.8650  0.3821 -0.4128
  634MOL0     C83618   5.879   9.858   1.585 -0.3510 -0.3445 -0.3271
  634MOL0     C83619   5.838   9.718   1.578 -0.4368 -0.7795 -0.0265
  634MOL0     C83620   5.791   9.614   1.560  0.7306  1.0613 -0.1572
  634MOL0     C83621   6.495   9.959   1.848  0.5536 -0.3201  0.7085
  634MOL0     C83622   6.627  10.009   1.880 -0.3801  0.1384 -0.8041
  634MOL0     H83623   7.171   9.987   1.669 -1.5270 -1.8380  0.0420
  634MOL0     H83624   7.421  10.010   1.728 -0.1752 -2.7206 -0.5496
  634MOL0     H83625   7.532   9.842   2.124  4.1389 -0.8875 -0.2451
  634MOL0     H83626   7.510  10.007   2.173  0.5750 -2.0431  1.3421
  634MOL0     H83627   7.744   9.912   2.209 -3.6049  2.2160  2.0216
  634MOL0     H83628   7.756  10.059   2.117 -0.5512  0.4079  3.8595
  634MOL0     H83629   7.719   9.803   1.949  0.4387  0.6837 -3.4009
  634MOL0     H83630   7.874   9.823   2.015  0.1982  0.4987 -3.0676
  634MOL0     H83631   7.735  10.046   1.879 -0.7031 -1.0942  2.5534
  634MOL0     H83632   7.917  10.027   1.907 -1.1823  3.1898  0.6854
  634MOL0     H83633   7.745   9.844   1.724 -0.1615 -0.8724  0.9146
  634MOL0     H83634   7.913   9.824   1.754 -0.1487  0.7199 -3.0836
  634MOL0     H83635   7.810  10.064   1.615 -0.0127  0.5100  0.5522
  634MOL0     H83636   7.863   9.915   1.554 -1.6471 -2.0769  2.0451
  634MOL0     H83637   8.053  10.076   1.735  1.5605 -1.7344  0.3501
  634MOL0     H83638   8.100   9.979   1.597  1.4583  3.3522 -1.7092
  634MOL0     H83639   7.989  10.259   1.597 -0.3585  2.6970 -3.7615
  634MOL0     H83640   7.986  10.164   1.452  0.5561  0.4427 -0.9965
  634MOL0     H83641   8.248  10.041   1.378 -2.6481  0.3667 -2.4109
  634MOL0     H83642   8.442  10.208   1.227  1.0711  1.0314 -1.2455
  634MOL0     H83643   8.493  10.065   1.315 -0.0082 -0.4730  0.8722
  634MOL0     H83644   8.607  10.348   1.366 -2.2472  0.0406 -2.5844
  634MOL0     H83645   8.688  10.210   1.281 -1.0726  1.7347 -0.8927
  634MOL0     H83646   8.590  10.223   1.587  2.2365  0.2153  2.5047
  634MOL0     H83647   8.661  10.081   1.501  0.4126  0.1733 -1.1461
  634MOL0     H83648   8.822  10.203   1.654 -0.2780 -1.9437 -0.5947
  634MOL0     H83649   8.821  10.329   1.543  0.1791  0.9747  4.1232
  634MOL0     H83650   9.032  10.318   1.607  0.3673 -0.0228  1.7424
  634MOL0     H83651   9.276  10.263   1.664 -2.1727  1.9708  0.2525
  634MOL0     H83652   9.609   9.969   1.278  0.0373  1.4013 -1.0179
  634MOL0     H83653   9.864   9.921   1.248 -0.6089 -0.1273  0.7094
  634MOL0     H83654  10.100   9.983   1.614 -0.6541 -1.9213  0.2268
  634MOL0     H83655  10.183  10.036   1.459  2.0615 -3.3538 -4.3947
  634MOL0     H83656  10.204   9.757   1.510  0.8896  0.0209  1.1155
  634MOL0     H83657  10.244   9.849   1.648  0.9418  0.4103  0.1755
  634MOL0     H83658  10.419   9.968   1.523  0.3338 -0.0096  0.7039
  634MOL0     H83659  10.375   9.875   1.376  3.1244 -0.8912 -0.0926
  634MOL0     H83660  10.494   9.794   1.637 -1.0137 -2.8616  1.4401
  634MOL0     H83661  10.396   9.676   1.557 -1.0857  0.1960  0.8045
  634MOL0     H83662  10.543   9.673   1.364 -2.3187  0.1592  1.0787
  634MOL0     H83663  10.633   9.636   1.512  0.1194  0.2692 -0.4117
  634MOL0     H83664  10.695   9.859   1.538 -4.7708  0.7908  0.4262
  634MOL0     H83665  10.648   9.907   1.371 -0.7691  0.7463 -0.1827
  634MOL0     H83666  10.865   9.883   1.375  1.3561 -1.2423 -0.5842
  634MOL0     H83667  10.865   9.734   1.460 -0.6694 -0.8019 -1.1690
  634MOL0     H83668  10.759   9.622   1.257 -0.5372 -0.4008 -0.8664
  634MOL0     H83669  10.917   9.673   1.239  0.2050 -0.2006  1.2424
  634MOL0     H83670   9.910   9.900   1.665 -0.4120  2.0586  1.1228
  634MOL0     H83671   9.669   9.916   1.703  0.9327 -2.3852 -0.1538
  634MOL0     H83672   9.258   9.936   1.393  1.5814  0.4396  0.3156
  634MOL0     H83673   9.035   9.970   1.365 -2.2805  3.0557 -1.8767
  634MOL0     H83674   7.313   9.897   2.127  1.1357 -1.4782 -1.0026
  634MOL0     H83675   7.063   9.903   2.055 -1.4374  1.2135 -0.5221
  634MOL0     H83676   6.809   9.792   1.698 -1.3458  0.2284 -3.9038
  634MOL0     H83677   6.584   9.721   1.629 -2.2200 -0.5619  0.8206
  634MOL0     H83678   6.234   9.961   1.735 -3.2557 -0.6106  0.1559
  634MOL0     H83679   6.217   9.819   1.844 -0.6554  0.7946  0.0685
  634MOL0     H83680   6.168   9.836   1.540 -1.9221 -0.1551 -1.1670
  634MOL0     H83681   6.120   9.704   1.649 -1.3285  0.7639 -1.5269
  634MOL0     H83682   6.016   9.994   1.685  1.1287  0.1043 -2.7534
  634MOL0     H83683   5.968   9.861   1.788 -3.8688 -0.0752 -1.2795
  634MOL0     H83684   5.794   9.924   1.603  0.9083  1.0228  0.8631
  634MOL0     H83685   5.919   9.880   1.486  0.6782 -0.4905  0.0435
  634MOL0     H83686   5.733   9.524   1.552  1.7072  0.2947  0.9399
  634MOL0     H83687   6.420  10.012   1.907  0.4878  2.4588 -1.6659
  634MOL0     H83688   6.625  10.089   1.954 -1.1136 -1.7105  1.2943
  635MOL0     O83689   3.266   2.670   2.787  0.2244  0.2942 -0.2973
  635MOL0     C83690   3.292   2.589   2.694 -0.2574  0.0193  0.4253
  635MOL0     O83691   3.197   2.527   2.621  0.0525 -0.0309  0.1716
  635MOL0     C83692   3.071   2.568   2.607  0.6416  0.2527  0.1129
  635MOL0     C83693   3.019   2.523   2.478 -0.6041 -0.0291 -0.1001
  635MOL0     C83694   2.909   2.581   2.423  1.1045 -0.0024 -0.3481
  635MOL0     C83695   2.841   2.665   2.501  0.3144 -0.5191  1.5544
  635MOL0     O83696   2.711   2.710   2.460 -0.8026 -0.4235  0.7503
  635MOL0     C83697   2.620   2.607   2.427  0.2389 -0.0301 -0.5698
  635MOL0     C83698   2.556   2.563   2.556 -0.4218 -0.3200 -0.6212
  635MOL0     C83699   2.454   2.450   2.518  0.6019 -0.2688 -0.4347
  635MOL0     C83700   2.326   2.514   2.461 -0.4624  0.3933  0.5907
  635MOL0     C83701   2.201   2.417   2.482 -0.3563  0.3125  1.1046
  635MOL0     C83702   2.072   2.485   2.444  0.6619  0.3927  0.7880
  635MOL0     C83703   1.961   2.482   2.551 -0.0984 -0.0550  0.1859
  635MOL0     C83704   1.865   2.599   2.536 -0.0473 -0.7933  0.0497
  635MOL0     N83705   1.762   2.619   2.642 -0.0979 -0.1237 -0.3778
  635MOL0     C83706   1.780   2.625   2.775 -0.0435 -0.5095  0.6137
  635MOL0     C83707   1.657   2.635   2.826  0.9859  0.5170  0.1235
  635MOL0     C83708   1.619   2.642   2.973 -0.1555 -0.3467 -0.6056
  635MOL0     C83709   1.491   2.715   2.996  0.1585 -0.1802  0.5107
  635MOL0     C83710   1.434   2.709   3.142  0.3762 -0.1738 -0.0089
  635MOL0     C83711   1.310   2.778   3.192  0.2307  0.5783  0.0569
  635MOL0     O83712   1.258   2.710   3.305 -0.0860  0.4883 -0.9943
  635MOL0     C83713   1.150   2.753   3.383  0.5167 -0.5651  0.3618
  635MOL0     C83714   1.092   2.682   3.491 -0.6224  0.6360 -0.3053
  635MOL0     C83715   0.994   2.735   3.576 -0.2891 -0.1151 -0.1369
  635MOL0     C83716   0.943   2.859   3.551  0.8730  0.1351 -0.3266
  635MOL0     C83717   0.846   2.911   3.659  0.1368 -0.1644  0.0115
  635MOL0     O83718   0.798   2.820   3.747  0.1457 -0.1287  0.3496
  635MOL0     C83719   0.700   2.854   3.830 -0.0013 -0.2383  0.5415
  635MOL0     C83720   0.580   2.923   3.787 -0.5724 -0.1201  0.2598
  635MOL0     C83721   0.476   2.934   3.880 -0.0371 -0.1779 -0.4259
  635MOL0     C83722   0.488   2.888   4.011  0.4190  0.1876 -0.5620
  635MOL0     O83723   0.383   2.902   4.101  0.2516 -0.3941  0.2607
  635MOL0     C83724   0.405   2.927   4.240  0.9202 -0.8111 -0.0883
  635MOL0     C83725   0.286   3.003   4.313  0.0123 -0.3151 -0.6492
  635MOL0     C83726   0.151   2.956   4.260 -0.2724  0.9596  0.0217
  635MOL0     C83727   0.042   3.036   4.326 -0.8339 -0.0352 -0.6487
  635MOL0     C83728  -0.093   2.967   4.299  0.0307  0.0283 -0.8340
  635MOL0     C83729  -0.205   3.028   4.372 -0.6802 -0.2689 -0.0985
  635MOL0     C83730  -0.326   2.955   4.328  0.4273  0.1620  0.2518
  635MOL0     C83731  -0.443   3.052   4.376 -0.0208 -0.4644 -0.0805
  635MOL0    Cl83732  -0.451   3.185   4.258  0.2794 -0.0462  0.1679
  635MOL0     C83733   0.594   2.803   4.048 -0.3795 -0.2181  0.0409
  635MOL0     C83734   0.702   2.794   3.954  0.6209  0.1310 -0.4041
  635MOL0     O83735   0.821   3.032   3.655  0.2213  1.0184  0.3229
  635MOL0     C83736   0.994   2.938   3.438 -0.4195  0.2516 -0.9805
  635MOL0     C83737   1.087   2.881   3.351 -0.2695  0.2927  0.0051
  635MOL0     N83738   1.571   2.649   2.720  0.1000 -0.1779 -0.1967
  635MOL0     N83739   1.637   2.636   2.604  0.6392  0.4898  0.3710
  635MOL0     C83740   2.876   2.703   2.630  0.4895  0.6683  0.2692
  635MOL0     C83741   2.993   2.651   2.689  0.1643  0.1725  0.8221
  635MOL0     C83742   3.437   2.552   2.674  0.3903 -0.7547  0.8845
  635MOL0     C83743   3.528   2.586   2.769  0.7504  0.9725 -0.0291
  635MOL0     C83744   3.656   2.554   2.744  0.0109 -0.7375  0.0880
  635MOL0     C83745   3.705   2.482   2.633 -0.5469  0.2396  0.0451
  635MOL0     O83746   3.833   2.441   2.619 -0.4860  0.2476 -0.0708
  635MOL0     C83747   3.935   2.516   2.670 -0.4003 -0.6248 -0.2794
  635MOL0     C83748   4.072   2.482   2.615  0.1192 -0.3572 -0.2285
  635MOL0     C83749   4.178   2.584   2.662 -0.0736  1.0176 -0.1525
  635MOL0     C83750   4.324   2.552   2.622 -0.5454  1.1117  0.0112
  635MOL0     C83751   4.386   2.440   2.695  0.2730 -0.1053 -0.2735
  635MOL0     C83752   4.433   2.337   2.740  0.6200  0.0230  0.3768
  635MOL0     C83753   3.604   2.440   2.547 -0.4664 -0.4672  0.9529
  635MOL0     C83754   3.467   2.462   2.569 -0.0588  0.0395 -0.1235
  635MOL0     H83755   3.067   2.445   2.419  0.2264  0.0007  0.5158
  635MOL0     H83756   2.860   2.541   2.335  1.0455 -1.0849  0.1520
  635MOL0     H83757   2.650   2.521   2.368 -3.8619 -1.5377 -0.7764
  635MOL0     H83758   2.541   2.658   2.372 -0.4730  0.5214  0.9023
  635MOL0     H83759   2.518   2.646   2.616  1.5728 -0.1171  0.4269
  635MOL0     H83760   2.637   2.521   2.616 -2.0770 -3.6041 -0.4321
  635MOL0     H83761   2.423   2.397   2.609  0.3635 -0.1182 -0.4253
  635MOL0     H83762   2.501   2.379   2.450  2.6473  1.4951 -0.9524
  635MOL0     H83763   2.306   2.604   2.520 -0.1453  0.6952  0.2450
  635MOL0     H83764   2.343   2.548   2.358 -2.2191  0.4051  0.2617
  635MOL0     H83765   2.195   2.393   2.589 -1.9525 -0.8050  0.7991
  635MOL0     H83766   2.201   2.327   2.420  1.3853  1.7208 -1.0907
  635MOL0     H83767   2.032   2.446   2.349  1.0557  0.4014  0.6160
  635MOL0     H83768   2.102   2.588   2.418 -0.5591  0.7172  0.5896
  635MOL0     H83769   1.897   2.393   2.549  2.0748 -1.6984 -0.0645
  635MOL0     H83770   2.001   2.504   2.651  2.4329  0.1562 -0.7840
  635MOL0     H83771   1.804   2.582   2.447  0.8225 -2.5723 -0.2610
  635MOL0     H83772   1.925   2.689   2.520 -0.4229  0.0242  2.7173
  635MOL0     H83773   1.870   2.614   2.834  1.2728  2.1244 -0.7062
  635MOL0     H83774   1.704   2.689   3.022 -0.8536 -1.3015  1.6660
  635MOL0     H83775   1.600   2.546   3.023 -4.2652  0.4362 -0.3001
  635MOL0     H83776   1.418   2.671   2.928 -0.4703  1.9929 -0.3017
  635MOL0     H83777   1.509   2.820   2.969  0.8112 -0.7986 -1.6466
  635MOL0     H83778   1.432   2.601   3.163  1.4967 -0.4319 -1.0977
  635MOL0     H83779   1.510   2.747   3.210 -0.0203  0.0233  0.3255
  635MOL0     H83780   1.237   2.776   3.110  1.5203 -0.1189 -1.1045
  635MOL0     H83781   1.340   2.883   3.202 -1.1870  1.0326 -0.1840
  635MOL0     H83782   1.137   2.584   3.499  1.9771  1.8387  1.2768
  635MOL0     H83783   0.960   2.673   3.658  2.5736 -0.6757  0.7192
  635MOL0     H83784   0.569   2.960   3.686 -1.0002 -0.5610  0.1419
  635MOL0     H83785   0.380   2.979   3.855 -0.1296  0.2189  0.5877
  635MOL0     H83786   0.491   2.995   4.240 -0.1688  0.6522  1.0893
  635MOL0     H83787   0.429   2.833   4.291  1.3770  0.0890  1.4255
  635MOL0     H83788   0.293   3.112   4.314  0.8776 -0.3191 -2.6838
  635MOL0     H83789   0.283   2.971   4.418  0.2082 -3.7625 -1.5901
  635MOL0     H83790   0.139   2.850   4.286 -1.7771  1.0159 -0.3519
  635MOL0     H83791   0.150   2.968   4.152  1.5334 -0.0548 -0.1446
  635MOL0     H83792   0.057   3.044   4.434 -2.5559  1.2521 -0.4572
  635MOL0     H83793   0.039   3.136   4.281  1.4650  1.4716  2.2368
  635MOL0     H83794  -0.097   2.866   4.340 -3.6634 -0.5143 -2.1739
  635MOL0     H83795  -0.112   2.962   4.192  1.7505 -1.2336 -1.1224
  635MOL0     H83796  -0.209   3.132   4.336 -0.8193 -0.6119 -1.1126
  635MOL0     H83797  -0.172   3.023   4.475  2.7939  0.1328 -1.0735
  635MOL0     H83798  -0.332   2.933   4.221 -0.0252  0.4222  0.2189
  635MOL0     H83799  -0.320   2.860   4.383  1.1813 -0.3923 -0.7694
  635MOL0     H83800  -0.428   3.086   4.479 -1.0614  1.6477 -0.5663
  635MOL0     H83801  -0.535   2.993   4.368 -0.6075  0.4984 -0.7539
  635MOL0     H83802   0.601   2.756   4.145 -1.5210  0.8907  0.6802
  635MOL0     H83803   0.786   2.736   3.989 -1.2396 -2.5322 -0.0286
  635MOL0     H83804   0.948   3.036   3.425 -2.3734 -0.7281 -1.9947
  635MOL0     H83805   1.127   2.933   3.265 -1.3708  1.4111  0.1334
  635MOL0     H83806   2.818   2.773   2.691  1.2925 -0.8085  2.8863
  635MOL0     H83807   3.024   2.686   2.787  0.6244  2.8912 -0.1965
  635MOL0     H83808   3.513   2.645   2.858  1.4331  0.2153  0.6064
  635MOL0     H83809   3.723   2.585   2.824 -1.9648 -0.1666  1.5903
  635MOL0     H83810   3.939   2.507   2.779 -3.3102  1.1353  0.0538
  635MOL0     H83811   3.903   2.615   2.639 -1.0486 -1.4008 -2.2335
  635MOL0     H83812   4.091   2.380   2.648 -0.6703 -1.1414 -2.0453
  635MOL0     H83813   4.071   2.466   2.507 -0.9040  0.7212 -0.4056
  635MOL0     H83814   4.173   2.588   2.772  0.8340 -2.1926  0.0986
  635MOL0     H83815   4.165   2.685   2.624 -0.4473  1.4740  1.1183
  635MOL0     H83816   4.308   2.512   2.522  0.3407  0.1925  0.2212
  635MOL0     H83817   4.387   2.641   2.616  0.7694  0.3533  1.6385
  635MOL0     H83818   4.479   2.245   2.768 -0.8325 -0.6184  0.7843
  635MOL0     H83819   3.637   2.369   2.472 -1.2777 -1.5007  1.5298
  635MOL0     H83820   3.390   2.426   2.501  0.5528 -2.6331  0.4834
  636MOL0     O83821   0.406   9.533   2.273 -0.0147  0.6073 -0.9556
  636MOL0     C83822   0.490   9.571   2.362 -0.0019  0.7775  0.1945
  636MOL0     O83823   0.461   9.615   2.488  0.1441  0.3792  0.1325
  636MOL0     C83824   0.339   9.620   2.547 -0.3552 -0.0875  0.1952
  636MOL0     C83825   0.332   9.659   2.678  0.0188 -1.5223 -0.2234
  636MOL0     C83826   0.206   9.694   2.735  0.4420 -0.2958  0.0580
  636MOL0     C83827   0.083   9.674   2.668 -0.3309 -0.3699 -0.2934
  636MOL0     O83828  -0.042   9.704   2.729 -0.4040  0.5902  0.2228
  636MOL0     C83829  -0.044   9.729   2.862 -0.9199 -0.4815  0.0841
  636MOL0     C83830  -0.178   9.685   2.910 -0.0178  0.4670  0.2722
  636MOL0     C83831  -0.279   9.799   2.888  0.4888  0.9741 -0.7766
  636MOL0     C83832  -0.406   9.766   2.966 -0.3651 -0.3724  0.7412
  636MOL0     C83833  -0.512   9.879   2.957 -0.2043  0.1723 -0.5665
  636MOL0     C83834  -0.648   9.857   3.030 -0.4403  0.0290  0.1174
  636MOL0     C83835  -0.765   9.880   2.933  0.2953 -0.8547 -0.4089
  636MOL0     C83836  -0.786   9.784   2.818  0.2667  0.3324  0.8545
  636MOL0     N83837  -0.909   9.808   2.745 -0.1616  0.3042  0.2016
  636MOL0     C83838  -0.917   9.915   2.655 -1.7554 -0.4338  0.1928
  636MOL0     C83839  -1.043   9.929   2.615  0.0150 -0.0296 -0.1188
  636MOL0     C83840  -1.109  10.023   2.530 -0.0892 -0.7645  0.0063
  636MOL0     C83841  -1.116  10.168   2.579 -0.8839 -0.1238  0.5294
  636MOL0     C83842  -1.189  10.278   2.493 -0.4982  0.6461 -0.3461
  636MOL0     C83843  -1.331  10.246   2.462  0.1316 -0.2622 -0.2881
  636MOL0     O83844  -1.414  10.282   2.576 -0.5187 -0.2761  0.2703
  636MOL0     C83845  -1.550  10.285   2.578 -0.3730  0.3789  0.2811
  636MOL0     C83846  -1.631  10.280   2.467 -0.8435  0.0888 -0.0278
  636MOL0     C83847  -1.767  10.301   2.477  0.1857  0.2098  0.1419
  636MOL0     C83848  -1.823  10.335   2.601 -0.6657 -0.6823 -0.2277
  636MOL0     C83849  -1.957  10.373   2.599 -0.2756 -0.4105  0.4590
  636MOL0     O83850  -2.024  10.375   2.478  0.0601  0.6625  0.2247
  636MOL0     C83851  -2.149  10.421   2.461  1.2183 -0.1183 -0.1559
  636MOL0     C83852  -2.271  10.395   2.532  1.1397  0.3378 -0.4517
  636MOL0     C83853  -2.394  10.451   2.493 -0.8919 -0.1095 -0.3976
  636MOL0     C83854  -2.408  10.532   2.381  0.4410  0.3271  0.1633
  636MOL0     O83855  -2.539  10.588   2.363 -0.4057  0.5175 -0.0448
  636MOL0     C83856  -2.540  10.721   2.316  0.9320  0.6437  0.0660
  636MOL0     C83857  -2.671  10.760   2.245  0.7698  0.0625  0.9039
  636MOL0     C83858  -2.797  10.736   2.324  0.0361 -0.2979  0.1056
  636MOL0     C83859  -2.918  10.783   2.248 -0.1882  0.4617 -0.3378
  636MOL0     C83860  -3.044  10.757   2.333  0.1931  0.0118  0.0780
  636MOL0     C83861  -3.160  10.818   2.257 -0.0740  0.5361 -0.2286
  636MOL0     C83862  -3.290  10.808   2.329 -0.3503  0.5209 -0.8302
  636MOL0     C83863  -3.410  10.832   2.239 -0.9857  0.6639 -1.4351
  636MOL0    Cl83864  -3.416  11.009   2.229 -0.0423  0.2609  0.0850
  636MOL0     C83865  -2.294  10.556   2.309 -0.6802 -0.3028 -0.4593
  636MOL0     C83866  -2.169  10.504   2.348 -0.5831  0.2491 -0.5069
  636MOL0     O83867  -2.016  10.406   2.705  0.1091  0.0009  0.7067
  636MOL0     C83868  -1.742  10.338   2.713 -0.8749  0.7775  1.1722
  636MOL0     C83869  -1.600  10.313   2.698  0.1690  0.1765  0.4110
  636MOL0     N83870  -1.105   9.822   2.666  0.7210  1.5521  0.1425
  636MOL0     N83871  -1.029   9.750   2.742  0.8357 -0.7138 -0.3760
  636MOL0     C83872   0.096   9.621   2.540  0.3223  0.5368  0.4993
  636MOL0     C83873   0.218   9.585   2.481  0.0818 -0.3270 -0.3869
  636MOL0     C83874   0.636   9.560   2.331 -0.7051 -0.3120  0.0580
  636MOL0     C83875   0.737   9.634   2.398 -0.0805 -0.0018  0.5622
  636MOL0     C83876   0.872   9.631   2.349  0.5950  0.6687 -0.2123
  636MOL0     C83877   0.908   9.544   2.247 -1.4325  0.4568  0.0923
  636MOL0     O83878   1.043   9.525   2.226 -0.5227 -0.4663  1.1933
  636MOL0     C83879   1.103   9.627   2.143  0.6870  0.8066 -0.8463
  636MOL0     C83880   1.241   9.666   2.165 -0.3876  0.5951  0.0583
  636MOL0     C83881   1.334   9.544   2.156 -0.5796  0.2126 -0.1035
  636MOL0     C83882   1.462   9.567   2.080 -0.4221  0.2854 -0.6077
  636MOL0     C83883   1.442   9.626   1.943 -0.4888 -0.0526  0.3023
  636MOL0     C83884   1.432   9.696   1.842  0.2804  0.0235 -0.4901
  636MOL0     C83885   0.808   9.466   2.186 -0.0245  0.1372  0.8946
  636MOL0     C83886   0.670   9.477   2.220 -0.5102 -0.2699  0.4854
  636MOL0     H83887   0.422   9.677   2.735  0.1678 -2.9944  0.0333
  636MOL0     H83888   0.208   9.747   2.830 -0.0223  1.2783 -0.7731
  636MOL0     H83889  -0.018   9.832   2.885 -3.0964  0.4297 -1.2612
  636MOL0     H83890   0.019   9.657   2.916  1.3332  0.4622 -1.1624
  636MOL0     H83891  -0.172   9.646   3.012  1.5252 -1.1837 -0.4066
  636MOL0     H83892  -0.212   9.598   2.854 -0.4518 -1.0312  2.7143
  636MOL0     H83893  -0.299   9.805   2.780 -0.5629 -1.9940 -0.8519
  636MOL0     H83894  -0.239   9.893   2.926 -0.1339  0.8660  0.1936
  636MOL0     H83895  -0.450   9.671   2.935 -1.0700  0.1864 -0.0214
  636MOL0     H83896  -0.374   9.746   3.068 -0.3311 -1.6292  0.4996
  636MOL0     H83897  -0.534   9.901   2.853  2.4353  0.2033 -1.1858
  636MOL0     H83898  -0.472   9.970   3.003  0.2107  1.0436 -2.5648
  636MOL0     H83899  -0.647   9.933   3.109  2.8808 -0.4425  0.6791
  636MOL0     H83900  -0.651   9.759   3.079 -1.9687 -1.8701 -3.3686
  636MOL0     H83901  -0.854   9.882   2.996  1.0722 -0.6054  0.7120
  636MOL0     H83902  -0.756   9.983   2.898  3.6484 -0.2809  1.6936
  636MOL0     H83903  -0.777   9.682   2.857 -0.2122 -0.2661 -0.5546
  636MOL0     H83904  -0.710   9.801   2.742 -0.6784  0.9195  0.0214
  636MOL0     H83905  -0.831   9.976   2.626 -0.4468 -2.5795 -0.7153
  636MOL0     H83906  -1.207   9.977   2.513  0.3521 -1.8993  0.4095
  636MOL0     H83907  -1.064  10.020   2.430 -2.4800 -3.3632 -1.1480
  636MOL0     H83908  -1.010  10.196   2.581 -0.5195 -1.2852 -0.7252
  636MOL0     H83909  -1.162  10.175   2.678  2.1647 -1.1674  2.1651
  636MOL0     H83910  -1.191  10.376   2.544  0.1135  0.1914  0.5845
  636MOL0     H83911  -1.136  10.283   2.398  2.9029 -1.9827  1.2128
  636MOL0     H83912  -1.328  10.138   2.441 -1.4867 -0.0836 -1.6984
  636MOL0     H83913  -1.353  10.289   2.363  1.7390 -0.4980 -0.7789
  636MOL0     H83914  -1.591  10.242   2.374  0.2971  1.1625 -0.0070
  636MOL0     H83915  -1.828  10.267   2.394  0.1857 -4.8377  1.8565
  636MOL0     H83916  -2.276  10.320   2.611  0.5806  0.1825 -0.6271
  636MOL0     H83917  -2.482  10.424   2.550  0.1204  1.3622  2.0654
  636MOL0     H83918  -2.461  10.739   2.243  0.1751  2.4046 -0.3841
  636MOL0     H83919  -2.516  10.778   2.407 -3.5437 -0.4936  2.2456
  636MOL0     H83920  -2.672  10.699   2.154 -4.4698  1.1342 -0.0788
  636MOL0     H83921  -2.661  10.860   2.202  1.0746 -0.3836 -0.0863
  636MOL0     H83922  -2.784  10.783   2.422 -1.2700  0.1797  0.0696
  636MOL0     H83923  -2.810  10.629   2.344  1.7597 -0.7461 -0.9782
  636MOL0     H83924  -2.900  10.889   2.229 -0.9865  0.3106 -2.0892
  636MOL0     H83925  -2.941  10.729   2.156  0.9514 -0.9757  0.1957
  636MOL0     H83926  -3.030  10.810   2.428 -0.1022  2.8191 -1.3408
  636MOL0     H83927  -3.060  10.649   2.338  0.6634 -0.2299 -2.2964
  636MOL0     H83928  -3.162  10.776   2.156  0.1102  2.9964 -1.3415
  636MOL0     H83929  -3.136  10.925   2.248 -1.3221  1.0384  1.7159
  636MOL0     H83930  -3.308  10.704   2.355  4.1618 -0.2441  0.0306
  636MOL0     H83931  -3.308  10.873   2.415 -1.2478 -1.5311  0.6078
  636MOL0     H83932  -3.503  10.794   2.282  0.8083 -2.8343 -0.3247
  636MOL0     H83933  -3.399  10.776   2.145  1.2046  1.0057 -1.4399
  636MOL0     H83934  -2.291  10.616   2.218  0.5159  0.6356  0.1592
  636MOL0     H83935  -2.090  10.524   2.276  0.1976  0.1828  0.2973
  636MOL0     H83936  -1.779  10.350   2.815 -1.4586 -1.3565  1.2749
  636MOL0     H83937  -1.532  10.323   2.783 -2.4448 -2.6530  3.0811
  636MOL0     H83938   0.005   9.615   2.482  0.6601  0.4041 -0.0221
  636MOL0     H83939   0.204   9.539   2.384 -0.0549 -0.5251 -0.2731
  636MOL0     H83940   0.704   9.704   2.474 -2.9713  0.8871 -1.3317
  636MOL0     H83941   0.955   9.684   2.396  0.0132  1.0111  0.4602
  636MOL0     H83942   1.048   9.721   2.143 -0.5679  0.0865 -0.8764
  636MOL0     H83943   1.103   9.586   2.042  3.6100 -0.3668 -0.4676
  636MOL0     H83944   1.267   9.728   2.079  1.2107  0.5363  0.4623
  636MOL0     H83945   1.260   9.724   2.256 -4.4534 -0.5913  1.8860
  636MOL0     H83946   1.293   9.454   2.111 -0.4195  0.8344 -1.5613
  636MOL0     H83947   1.357   9.533   2.262  1.6861  2.5463 -0.2483
  636MOL0     H83948   1.517   9.641   2.140  0.7243  1.8804 -3.4078
  636MOL0     H83949   1.533   9.485   2.066  2.1599  2.3010 -0.1417
  636MOL0     H83950   1.433   9.756   1.753 -1.7803  2.6819  1.1068
  636MOL0     H83951   0.833   9.399   2.104  0.8801 -1.4859  2.4299
  636MOL0     H83952   0.598   9.430   2.154 -0.7922  0.7879  0.0313
  637MOL0     O83953   4.175   6.718   3.239  0.0791 -0.1792  0.2333
  637MOL0     C83954   4.210   6.779   3.339 -0.8507 -0.4692  0.6526
  637MOL0     O83955   4.167   6.749   3.456  0.3818 -0.6885  0.3779
  637MOL0     C83956   4.059   6.669   3.465  0.8093  0.7305 -0.1775
  637MOL0     C83957   3.933   6.728   3.499 -0.8166 -0.7197  0.3610
  637MOL0     C83958   3.826   6.648   3.522  0.2779  1.6892 -0.0118
  637MOL0     C83959   3.829   6.504   3.514  0.2276 -0.5876  0.5143
  637MOL0     O83960   3.706   6.447   3.540 -0.5055 -0.3167  0.0785
  637MOL0     C83961   3.686   6.309   3.511 -0.2932 -0.2858 -1.7667
  637MOL0     C83962   3.678   6.240   3.647 -0.2571  0.0302 -0.4521
  637MOL0     C83963   3.617   6.101   3.644  0.1751 -0.1013 -0.2946
  637MOL0     C83964   3.485   6.101   3.710 -0.1622  0.0778  0.4325
  637MOL0     C83965   3.422   5.964   3.711  0.4130  0.3352 -0.3251
  637MOL0     C83966   3.280   5.960   3.764 -0.1063 -0.3100 -0.1916
  637MOL0     C83967   3.228   5.818   3.782  0.8697  0.1218 -0.2583
  637MOL0     C83968   3.077   5.829   3.784  0.6798  0.7983  1.1454
  637MOL0     N83969   3.017   5.850   3.916  0.3161 -0.2385  0.1809
  637MOL0     C83970   2.958   5.975   3.949 -0.3633 -0.7904  0.7970
  637MOL0     C83971   2.907   5.956   4.075  0.1820 -0.7198  0.6581
  637MOL0     C83972   2.820   6.043   4.150  0.1828 -0.0746 -0.5012
  637MOL0     C83973   2.669   6.002   4.186 -0.1227  0.5542  0.8238
  637MOL0     C83974   2.600   5.971   4.058 -0.9532 -0.3298  0.0298
  637MOL0     C83975   2.458   5.951   4.096 -0.3602  0.5260  0.5771
  637MOL0     O83976   2.420   5.822   4.045  0.1240 -0.0899 -0.3879
  637MOL0     C83977   2.281   5.789   4.057  0.2377  0.2640  0.7968
  637MOL0     C83978   2.250   5.667   3.998  0.9651  0.1494  0.1452
  637MOL0     C83979   2.123   5.623   3.990  0.1658 -0.5924 -0.2846
  637MOL0     C83980   2.016   5.688   4.053  0.3392 -0.0369 -0.2523
  637MOL0     C83981   1.878   5.639   4.066  0.7551 -0.2736  0.2815
  637MOL0     O83982   1.776   5.728   4.092 -0.3608 -0.3908  1.0561
  637MOL0     C83983   1.646   5.690   4.112  0.9421  0.6980  0.1155
  637MOL0     C83984   1.563   5.641   4.014  0.0787  0.0605  0.4259
  637MOL0     C83985   1.422   5.626   4.021 -0.3510  0.3926 -0.1225
  637MOL0     C83986   1.362   5.649   4.149  0.2127  0.7919 -0.9134
  637MOL0     O83987   1.232   5.625   4.181  0.4608  0.5765  0.8664
  637MOL0     C83988   1.137   5.607   4.072  0.3953  0.3157  0.0692
  637MOL0     C83989   1.012   5.556   4.141 -0.0527  0.2941  0.0116
  637MOL0     C83990   0.965   5.650   4.246  0.2839 -0.5220  0.1599
  637MOL0     C83991   0.815   5.648   4.279 -0.6551 -0.7385 -0.2950
  637MOL0     C83992   0.763   5.726   4.397 -0.1982 -0.1941 -0.2670
  637MOL0     C83993   0.780   5.876   4.376 -0.4413 -0.4483 -0.4050
  637MOL0     C83994   0.748   5.959   4.499 -0.0259 -0.0225 -0.2943
  637MOL0     C83995   0.615   5.937   4.578 -0.2487  0.0699  0.6453
  637MOL0    Cl83996   0.480   6.027   4.488  0.2265  0.0390 -0.2749
  637MOL0     C83997   1.443   5.695   4.260  0.1564 -0.6620 -0.7849
  637MOL0     C83998   1.583   5.709   4.238 -0.9091 -0.4735  0.5850
  637MOL0     O83999   1.858   5.516   4.035 -0.0018 -0.3290  0.5347
  637MOL0     C84000   2.051   5.802   4.127  0.4770  0.3119 -0.1277
  637MOL0     C84001   2.179   5.854   4.124  0.0877 -1.1213  0.0428
  637MOL0     N84002   2.947   5.828   4.104 -0.0241 -0.1784  0.4369
  637MOL0     N84003   2.994   5.758   4.008 -0.3829 -0.9001  0.1794
  637MOL0     C84004   3.951   6.443   3.490  0.0657  0.1802 -0.1707
  637MOL0     C84005   4.063   6.530   3.466 -0.8709 -0.2077  0.5896
  637MOL0     C84006   4.317   6.873   3.323  0.0288 -0.5027  0.1115
  637MOL0     C84007   4.384   6.896   3.196 -0.8708 -0.4558 -0.5268
  637MOL0     C84008   4.487   6.986   3.195  0.0988 -0.4177 -0.4621
  637MOL0     C84009   4.525   7.059   3.309  0.2859  0.1111 -0.2308
  637MOL0     O84010   4.635   7.123   3.294 -0.1980 -0.0782  0.2275
  637MOL0     C84011   4.669   7.217   3.393 -0.4205 -0.7358 -1.5638
  637MOL0     C84012   4.782   7.171   3.483  0.1520 -0.0941 -0.6543
  637MOL0     C84013   4.736   7.074   3.593 -0.1464 -0.1929 -0.4995
  637MOL0     C84014   4.856   7.032   3.674 -0.2257  0.1098  0.4039
  637MOL0     C84015   4.825   6.919   3.764 -0.2260 -0.1739  0.4139
  637MOL0     C84016   4.799   6.830   3.848  0.4310 -0.3458  0.3429
  637MOL0     C84017   4.458   7.032   3.429  0.5770  0.6553 -0.6101
  637MOL0     C84018   4.353   6.948   3.440 -0.1117  1.0057  1.0330
  637MOL0     H84019   3.924   6.835   3.513 -0.7726 -0.7574  0.6738
  637MOL0     H84020   3.725   6.682   3.544  0.0151  0.6826  0.4350
  637MOL0     H84021   3.765   6.277   3.442 -0.1058  0.3414 -1.8447
  637MOL0     H84022   3.591   6.288   3.460 -0.2580  0.1678 -2.0173
  637MOL0     H84023   3.617   6.304   3.712 -0.6481  1.1859 -1.9004
  637MOL0     H84024   3.785   6.247   3.668  0.7377  1.1389 -4.7922
  637MOL0     H84025   3.676   6.030   3.703  1.4211 -1.0082 -2.4793
  637MOL0     H84026   3.616   6.067   3.540  1.3963 -1.4826  0.0889
  637MOL0     H84027   3.512   6.138   3.809 -0.3891 -2.6115  1.5589
  637MOL0     H84028   3.423   6.171   3.652  0.9456  1.4486  0.8418
  637MOL0     H84029   3.491   5.891   3.755 -0.8910 -0.2098  0.9024
  637MOL0     H84030   3.406   5.925   3.610 -0.8084 -0.0457 -0.0022
  637MOL0     H84031   3.226   6.017   3.688 -1.2464 -1.1170 -0.0190
  637MOL0     H84032   3.274   6.018   3.856 -0.4527  1.2041 -1.1291
  637MOL0     H84033   3.278   5.766   3.699  2.8306  3.3221 -1.2668
  637MOL0     H84034   3.258   5.768   3.874  0.6180  1.0881  0.3595
  637MOL0     H84035   3.035   5.734   3.750 -1.7436  1.9918  0.5765
  637MOL0     H84036   3.048   5.909   3.715  1.6164  0.8280  0.7577
  637MOL0     H84037   2.963   6.065   3.889 -0.2135 -0.1618  1.7342
  637MOL0     H84038   2.821   6.140   4.100  0.9100 -0.2880 -0.9057
  637MOL0     H84039   2.869   6.068   4.245 -0.8138  1.9356 -0.4516
  637MOL0     H84040   2.605   6.072   4.240 -0.6224 -0.0221  0.9882
  637MOL0     H84041   2.674   5.905   4.236 -0.5852 -0.5956 -1.2444
  637MOL0     H84042   2.600   6.059   3.992 -1.0149  1.5269  2.3459
  637MOL0     H84043   2.643   5.887   4.003  1.6394  2.2381 -2.1823
  637MOL0     H84044   2.391   6.030   4.063 -3.4660 -1.5909  1.3572
  637MOL0     H84045   2.447   5.948   4.205  0.4389 -0.7172  0.6443
  637MOL0     H84046   2.330   5.617   3.944  1.0635  0.2177  0.2296
  637MOL0     H84047   2.102   5.527   3.944 -1.1851 -0.5554  0.2035
  637MOL0     H84048   1.606   5.619   3.916 -0.3703 -0.4457  0.3352
  637MOL0     H84049   1.359   5.589   3.941  0.9003  1.1506 -1.4880
  637MOL0     H84050   1.171   5.528   4.004  1.6636  2.1012 -1.4421
  637MOL0     H84051   1.131   5.699   4.014 -3.7436  0.7844  0.9384
  637MOL0     H84052   1.028   5.460   4.191 -2.5568 -0.9055 -1.3051
  637MOL0     H84053   0.933   5.529   4.071 -1.5244 -2.8865  2.6403
  637MOL0     H84054   0.983   5.749   4.201 -3.1322 -1.9624 -5.5038
  637MOL0     H84055   1.025   5.637   4.336 -1.2993  3.2117  1.9681
  637MOL0     H84056   0.761   5.671   4.187 -0.2444  0.1484 -0.3141
  637MOL0     H84057   0.799   5.540   4.293  0.3812 -0.6469  2.0546
  637MOL0     H84058   0.814   5.692   4.487 -0.4241  0.1767  0.0025
  637MOL0     H84059   0.656   5.706   4.409 -0.6700  2.0478 -0.2850
  637MOL0     H84060   0.718   5.897   4.289 -2.1751 -0.8624  0.6841
  637MOL0     H84061   0.886   5.898   4.358 -0.3059 -0.2333  0.5911
  637MOL0     H84062   0.826   5.930   4.570  1.6857 -2.1727 -2.8379
  637MOL0     H84063   0.751   6.067   4.479  0.5649  0.3029  1.4165
  637MOL0     H84064   0.632   5.984   4.676 -0.5126 -0.3583  0.8996
  637MOL0     H84065   0.585   5.832   4.587 -0.0800 -0.1322 -0.8892
  637MOL0     H84066   1.397   5.680   4.358  0.4594  0.3682 -0.4699
  637MOL0     H84067   1.647   5.747   4.317  2.2312  0.3452 -2.1610
  637MOL0     H84068   1.968   5.849   4.179 -1.6191 -0.6820 -2.3290
  637MOL0     H84069   2.195   5.942   4.186 -2.8731 -0.3659 -0.1385
  637MOL0     H84070   3.955   6.335   3.495 -1.2344  0.1105 -0.2547
  637MOL0     H84071   4.160   6.481   3.459 -1.3784 -1.1034 -0.3503
  637MOL0     H84072   4.357   6.838   3.109 -1.3948  0.9759 -1.3502
  637MOL0     H84073   4.555   6.993   3.110 -1.1972  2.4729 -1.3812
  637MOL0     H84074   4.590   7.252   3.460  2.5396 -0.1453  1.9308
  637MOL0     H84075   4.697   7.311   3.345 -1.3874 -0.1808 -1.0716
  637MOL0     H84076   4.859   7.129   3.417 -0.4272 -0.2115 -1.2663
  637MOL0     H84077   4.825   7.255   3.537 -1.0113 -1.9213  3.4958
  637MOL0     H84078   4.700   6.991   3.532 -1.1122  2.3476 -3.6477
  637MOL0     H84079   4.651   7.112   3.652  0.6858 -0.2346  0.7668
  637MOL0     H84080   4.944   7.012   3.611 -0.4961  0.7722 -0.1938
  637MOL0     H84081   4.894   7.115   3.735  1.7080 -1.0469  0.8843
  637MOL0     H84082   4.773   6.745   3.908 -0.2997  0.6749  1.5099
  637MOL0     H84083   4.487   7.086   3.518 -1.3286  0.8187 -0.0454
  637MOL0     H84084   4.308   6.931   3.537 -1.3315  1.6287  0.5950
  638MOL0     O84085   7.188   4.086   3.122 -0.8869  0.2004 -0.4554
  638MOL0     C84086   7.126   4.152   3.199 -0.2649  0.3208 -0.0776
  638MOL0     O84087   7.180   4.211   3.308 -0.9673  0.3445  0.2182
  638MOL0     C84088   7.319   4.221   3.320 -0.4829  0.5274 -0.1505
  638MOL0     C84089   7.379   4.213   3.445  0.1176  0.0436  0.3725
  638MOL0     C84090   7.506   4.258   3.475  0.6150  0.4316  0.6550
  638MOL0     C84091   7.587   4.309   3.369 -0.5396 -0.1749 -0.4540
  638MOL0     O84092   7.716   4.359   3.377 -0.3865 -0.1367  0.2186
  638MOL0     C84093   7.794   4.342   3.505 -0.1931 -0.0671 -0.7318
  638MOL0     C84094   7.832   4.191   3.521 -0.0464 -0.2444  0.2081
  638MOL0     C84095   7.931   4.180   3.637 -0.1339  0.7318  0.7739
  638MOL0     C84096   8.007   4.032   3.642  0.7838  0.3080 -0.0440
  638MOL0     C84097   8.114   4.021   3.533  0.2619  0.4001 -0.8596
  638MOL0     C84098   8.209   3.907   3.571 -0.3019 -0.2300 -0.0743
  638MOL0     C84099   8.325   3.884   3.473  0.5523 -0.3065 -0.2113
  638MOL0     C84100   8.417   3.768   3.506  0.0181 -0.7514 -0.1878
  638MOL0     N84101   8.364   3.644   3.542  0.6612  0.0948  0.1517
  638MOL0     C84102   8.324   3.621   3.668  0.2614  0.5520  0.1931
  638MOL0     C84103   8.247   3.513   3.664 -0.0198 -0.2461 -0.2420
  638MOL0     C84104   8.173   3.431   3.772  0.2167  0.3516  0.6698
  638MOL0     C84105   8.035   3.379   3.716  0.0138  0.2359  0.4689
  638MOL0     C84106   7.932   3.484   3.697 -0.9356  0.4338 -0.4572
  638MOL0     C84107   7.783   3.426   3.681 -0.6481 -0.5156  0.3395
  638MOL0     O84108   7.759   3.387   3.545  0.2415  0.7108  0.4087
  638MOL0     C84109   7.655   3.300   3.520 -0.6351 -0.1145  0.0991
  638MOL0     C84110   7.562   3.251   3.615 -0.4392 -0.0156  0.7173
  638MOL0     C84111   7.466   3.154   3.589  0.9486 -0.5114 -0.7369
  638MOL0     C84112   7.429   3.125   3.458  0.2446 -0.8399  0.7512
  638MOL0     C84113   7.314   3.050   3.412  0.0740 -0.3805  0.0580
  638MOL0     O84114   7.269   3.074   3.287 -0.8033 -0.0911  0.2449
  638MOL0     C84115   7.142   3.042   3.254 -0.0600 -0.8701 -0.8788
  638MOL0     C84116   7.089   2.921   3.209 -0.1866  0.2813  0.6964
  638MOL0     C84117   6.955   2.897   3.176  0.5129  0.8719 -0.6404
  638MOL0     C84118   6.864   2.993   3.213  0.7029  0.2209 -0.5775
  638MOL0     O84119   6.723   2.959   3.204 -0.2560 -0.4650  0.0652
  638MOL0     C84120   6.637   3.020   3.302  0.7934 -0.3811 -1.0041
  638MOL0     C84121   6.493   2.979   3.263  0.6868  0.8172 -0.3215
  638MOL0     C84122   6.439   2.852   3.350 -0.3555 -0.2705  0.5777
  638MOL0     C84123   6.300   2.821   3.287  0.1257  0.1829  0.1129
  638MOL0     C84124   6.199   2.748   3.375 -0.2463  0.3745 -0.5365
  638MOL0     C84125   6.090   2.679   3.285  0.1998  0.7748 -1.5897
  638MOL0     C84126   5.995   2.591   3.359 -0.2676  0.1385 -0.7154
  638MOL0     C84127   5.881   2.646   3.435 -0.2577  0.6479 -0.4233
  638MOL0    Cl84128   5.759   2.723   3.321  0.0822 -0.0545  0.5690
  638MOL0     C84129   6.905   3.107   3.270 -0.4535 -0.2740  0.4836
  638MOL0     C84130   7.043   3.139   3.281 -0.4494 -0.1683 -0.7259
  638MOL0     O84131   7.251   2.975   3.493 -0.0455 -1.0231  0.1944
  638MOL0     C84132   7.515   3.185   3.361 -0.1304  0.3922 -0.0375
  638MOL0     C84133   7.623   3.270   3.385 -0.1389  0.5077 -0.5853
  638MOL0     N84134   8.230   3.482   3.536  0.1200  0.7219 -0.0822
  638MOL0     N84135   8.302   3.559   3.461  0.4783 -0.2865  0.9847
  638MOL0     C84136   7.524   4.311   3.241 -0.6620 -1.3854 -0.2561
  638MOL0     C84137   7.396   4.268   3.221  0.0591  0.3015  0.5432
  638MOL0     C84138   6.974   4.139   3.184 -0.2329  0.7151 -0.2556
  638MOL0     C84139   6.913   4.039   3.109 -0.7507  0.0968 -0.3577
  638MOL0     C84140   6.773   4.016   3.104  0.4832 -0.3383 -0.5746
  638MOL0     C84141   6.691   4.104   3.178 -0.2182  1.1600  0.1613
  638MOL0     O84142   6.551   4.109   3.177  0.2354  0.1515 -0.6279
  638MOL0     C84143   6.480   3.995   3.132  0.7865  0.4962  0.4731
  638MOL0     C84144   6.348   4.050   3.088 -0.0862 -0.5061 -0.2311
  638MOL0     C84145   6.256   3.969   3.002 -0.4846  1.1949  1.0391
  638MOL0     C84146   6.111   4.011   3.027 -0.1179 -0.8911  1.2110
  638MOL0     C84147   6.017   3.964   2.919 -0.0230  0.4559 -0.3813
  638MOL0     C84148   5.955   3.941   2.819 -0.1252  0.3602 -0.2822
  638MOL0     C84149   6.753   4.211   3.254  0.0102  0.7562  0.6434
  638MOL0     C84150   6.889   4.232   3.256 -0.4436  0.6910  0.3968
  638MOL0     H84151   7.322   4.175   3.529  0.5906 -3.2501 -0.6870
  638MOL0     H84152   7.536   4.272   3.578 -0.6108  0.7360  0.9924
  638MOL0     H84153   7.737   4.374   3.592  0.4528 -0.3034 -0.2077
  638MOL0     H84154   7.877   4.414   3.503 -0.6256  0.4318 -0.8502
  638MOL0     H84155   7.882   4.150   3.433 -0.7068  1.0455 -0.7909
  638MOL0     H84156   7.745   4.130   3.547  0.7273 -0.5604  2.3135
  638MOL0     H84157   7.876   4.186   3.732 -0.7327  0.2602  0.4605
  638MOL0     H84158   8.009   4.257   3.633  1.3810 -0.7546  0.7532
  638MOL0     H84159   8.050   4.016   3.741  0.8715  0.2798 -0.0860
  638MOL0     H84160   7.931   3.954   3.640 -0.9986  1.8216  2.6764
  638MOL0     H84161   8.170   4.114   3.519  0.2158  0.3559 -1.3655
  638MOL0     H84162   8.074   4.004   3.433 -0.7309 -2.7939 -0.0346
  638MOL0     H84163   8.154   3.813   3.558 -0.7040 -0.0752  0.4666
  638MOL0     H84164   8.252   3.915   3.672 -1.2574 -0.1521  0.3430
  638MOL0     H84165   8.277   3.858   3.378  1.6211 -2.7625 -0.1520
  638MOL0     H84166   8.390   3.971   3.456  2.2331 -1.0598  1.9727
  638MOL0     H84167   8.471   3.808   3.592 -2.0020  3.6605 -0.6365
  638MOL0     H84168   8.480   3.746   3.420  1.3637 -2.6244  1.2205
  638MOL0     H84169   8.345   3.684   3.754 -0.8744 -3.1186  3.4236
  638MOL0     H84170   8.152   3.496   3.857 -0.3686 -1.9046  2.3681
  638MOL0     H84171   8.240   3.354   3.812  1.4493  1.0270 -0.0468
  638MOL0     H84172   7.987   3.296   3.768 -0.0498 -0.9745 -1.4020
  638MOL0     H84173   8.059   3.334   3.619  3.3161 -2.2000  2.2274
  638MOL0     H84174   7.948   3.558   3.776  0.3871  0.5991 -0.8576
  638MOL0     H84175   7.947   3.533   3.600  2.1053  2.7586  1.0229
  638MOL0     H84176   7.712   3.505   3.706  1.9017  2.4544 -1.1029
  638MOL0     H84177   7.772   3.339   3.747  3.9359  0.5804  3.0453
  638MOL0     H84178   7.552   3.280   3.719 -2.8305 -2.2231  1.1984
  638MOL0     H84179   7.406   3.117   3.671  0.6595  1.4242 -0.0242
  638MOL0     H84180   7.159   2.843   3.181  0.4716  0.3928  1.9499
  638MOL0     H84181   6.923   2.799   3.144 -0.7350 -1.0052  5.1017
  638MOL0     H84182   6.638   3.128   3.320 -1.1775 -0.7742  2.3411
  638MOL0     H84183   6.671   2.972   3.394  0.5247 -1.0644 -1.2615
  638MOL0     H84184   6.497   2.948   3.159  0.9877  0.6906 -0.2722
  638MOL0     H84185   6.422   3.062   3.270  0.7215  0.8017  0.3134
  638MOL0     H84186   6.419   2.867   3.456 -1.6888  2.3159  0.0577
  638MOL0     H84187   6.502   2.763   3.337  0.9975  0.6216  0.7674
  638MOL0     H84188   6.264   2.919   3.254 -0.9066  0.4671  1.9569
  638MOL0     H84189   6.311   2.763   3.195  3.1144  0.1153  0.4355
  638MOL0     H84190   6.155   2.810   3.454  1.3736 -0.5306  1.1332
  638MOL0     H84191   6.252   2.663   3.420 -1.6862 -0.4773 -0.3898
  638MOL0     H84192   6.143   2.614   3.215  2.8742 -0.8170  1.6469
  638MOL0     H84193   6.042   2.753   3.219  0.7721  1.4740 -1.2302
  638MOL0     H84194   5.952   2.527   3.281  0.2745  0.3089 -1.1603
  638MOL0     H84195   6.056   2.542   3.435 -0.5728  0.4798 -0.2382
  638MOL0     H84196   5.919   2.713   3.513 -1.1905  2.7173 -1.6500
  638MOL0     H84197   5.836   2.560   3.485 -1.4331  1.7192  0.4431
  638MOL0     H84198   6.835   3.186   3.293  0.6061  1.0077 -0.5526
  638MOL0     H84199   7.065   3.245   3.294  1.4319 -0.4163 -1.5578
  638MOL0     H84200   7.494   3.167   3.256 -0.4055 -0.2660  0.1202
  638MOL0     H84201   7.687   3.305   3.304  1.3974 -2.4994 -0.7916
  638MOL0     H84202   7.588   4.348   3.162  0.1451  0.7205  1.2998
  638MOL0     H84203   7.354   4.273   3.120 -1.8392  1.4026  1.3313
  638MOL0     H84204   6.976   3.960   3.069 -2.2979 -0.3165 -2.1200
  638MOL0     H84205   6.732   3.936   3.044  0.6353 -2.5083  2.0112
  638MOL0     H84206   6.465   3.938   3.224 -0.4919  1.0416  0.6232
  638MOL0     H84207   6.522   3.934   3.052  1.5099  0.6524  0.7248
  638MOL0     H84208   6.294   4.079   3.178 -0.1747  0.7026 -0.6523
  638MOL0     H84209   6.360   4.148   3.040 -0.5851 -1.0419 -1.5103
  638MOL0     H84210   6.263   3.862   3.025 -0.5567  0.9900  0.1398
  638MOL0     H84211   6.295   3.983   2.901  2.5250 -3.9159  1.1558
  638MOL0     H84212   6.069   3.961   3.115 -0.8672  0.6218  1.7514
  638MOL0     H84213   6.098   4.119   3.039 -2.7898 -1.2371  2.0910
  638MOL0     H84214   5.896   3.902   2.738  0.0164  0.6004 -0.5034
  638MOL0     H84215   6.687   4.281   3.304  1.8649  0.9447  3.0137
  638MOL0     H84216   6.945   4.305   3.314 -0.9381  1.6199 -0.2640
  639MOL0     O84217   2.763   4.556   2.133 -0.8423 -0.1462  0.1683
  639MOL0     C84218   2.833   4.481   2.061  0.1277 -0.2946 -0.3712
  639MOL0     O84219   2.785   4.378   1.979  0.3344 -0.5295 -0.1093
  639MOL0     C84220   2.653   4.342   2.000 -0.9163  0.2359  1.1635
  639MOL0     C84221   2.620   4.213   2.055 -0.6727 -0.1616  0.5472
  639MOL0     C84222   2.490   4.173   2.071  1.0531 -0.8246 -0.5720
  639MOL0     C84223   2.380   4.263   2.051  0.4216 -0.0601  0.9384
  639MOL0     O84224   2.248   4.222   2.050  1.1180 -0.2959 -0.4232
  639MOL0     C84225   2.174   4.272   2.163  0.4649 -0.0350  0.6881
  639MOL0     C84226   2.029   4.309   2.116  0.8777 -0.5083  0.6584
  639MOL0     C84227   1.946   4.337   2.241 -0.3194 -0.4609  0.6472
  639MOL0     C84228   1.797   4.329   2.210 -0.5376 -0.0810 -0.1614
  639MOL0     C84229   1.730   4.413   2.315  0.1806 -0.9013 -0.1280
  639MOL0     C84230   1.580   4.395   2.314  1.3753 -0.3385  0.5590
  639MOL0     C84231   1.523   4.485   2.423  0.1760 -0.0550 -0.5841
  639MOL0     C84232   1.362   4.470   2.401 -0.4792 -0.1148  0.0067
  639MOL0     N84233   1.270   4.539   2.500 -0.8261  0.7040 -0.2463
  639MOL0     C84234   1.189   4.462   2.572 -0.6635 -0.6207 -0.2958
  639MOL0     C84235   1.159   4.540   2.680 -0.1637  0.5111 -0.0556
  639MOL0     C84236   1.060   4.478   2.777  0.1350  0.5744 -0.1156
  639MOL0     C84237   0.930   4.552   2.781 -0.5650 -0.6123  0.2180
  639MOL0     C84238   0.848   4.521   2.906  0.3064 -0.2333 -0.3692
  639MOL0     C84239   0.790   4.378   2.920 -0.4814 -0.0952 -0.4037
  639MOL0     O84240   0.678   4.353   2.840 -0.0685  0.7694  0.2325
  639MOL0     C84241   0.565   4.317   2.908  0.5488  0.4488  0.1782
  639MOL0     C84242   0.471   4.417   2.938 -0.1296  0.6023  0.7827
  639MOL0     C84243   0.364   4.373   3.015  0.5009  0.3383 -0.3874
  639MOL0     C84244   0.339   4.241   3.061  0.3894  0.1775 -0.8744
  639MOL0     C84245   0.228   4.198   3.148 -0.6921 -0.6423  0.4733
  639MOL0     O84246   0.172   4.299   3.221 -0.3515 -0.9692 -0.8776
  639MOL0     C84247   0.036   4.309   3.242 -0.2131  0.1405 -0.0361
  639MOL0     C84248  -0.055   4.243   3.165  0.0843  0.8400  1.0806
  639MOL0     C84249  -0.192   4.251   3.196 -1.0800 -0.2422 -0.0713
  639MOL0     C84250  -0.232   4.339   3.297 -0.4642  0.4640 -0.2023
  639MOL0     O84251  -0.365   4.349   3.328  0.4475  0.1186  0.2266
  639MOL0     C84252  -0.454   4.381   3.213 -0.1478 -0.2226 -0.0912
  639MOL0     C84253  -0.545   4.263   3.191 -0.4453 -0.4404  0.8434
  639MOL0     C84254  -0.665   4.272   3.287 -0.0189  0.4091  0.3453
  639MOL0     C84255  -0.771   4.381   3.238  0.1422  0.0338  0.4253
  639MOL0     C84256  -0.893   4.314   3.184  0.0973 -0.5025 -0.2419
  639MOL0     C84257  -0.993   4.404   3.114 -0.5101  0.3783 -0.9330
  639MOL0     C84258  -1.019   4.542   3.184  0.1286  0.5950 -0.3447
  639MOL0     C84259  -1.133   4.620   3.126  0.3714  0.6154  0.4368
  639MOL0    Cl84260  -1.291   4.544   3.134 -0.7654  0.3911  0.6101
  639MOL0     C84261  -0.142   4.410   3.365  0.1209  0.2465 -0.3111
  639MOL0     C84262  -0.008   4.388   3.341 -0.1946 -0.8301 -0.7359
  639MOL0     O84263   0.196   4.085   3.152 -0.1286 -0.5066 -0.0512
  639MOL0     C84264   0.432   4.141   3.021  0.3898 -0.2146  0.2230
  639MOL0     C84265   0.542   4.185   2.940 -0.0806 -0.6115 -0.0156
  639MOL0     N84266   1.228   4.659   2.676  0.4028  0.0514 -0.5080
  639MOL0     N84267   1.296   4.657   2.573 -0.4660 -0.2366  0.7206
  639MOL0     C84268   2.407   4.387   1.996 -0.5849 -0.3837 -0.2134
  639MOL0     C84269   2.537   4.428   1.966 -0.2082 -0.1596  0.6271
  639MOL0     C84270   2.980   4.516   2.064  0.4300  0.3570 -0.0800
  639MOL0     C84271   3.074   4.455   1.978 -0.1438  0.1798 -0.2067
  639MOL0     C84272   3.205   4.497   1.979 -0.4677 -0.1143  0.0933
  639MOL0     C84273   3.255   4.592   2.063 -0.4342  0.0330 -0.5398
  639MOL0     O84274   3.393   4.628   2.049 -0.3115  0.0729 -0.0207
  639MOL0     C84275   3.436   4.740   2.123  0.4314 -0.3803 -1.0874
  639MOL0     C84276   3.589   4.759   2.087  0.6144  0.3551 -0.6846
  639MOL0     C84277   3.623   4.760   1.941  0.5921  0.4044  1.1609
  639MOL0     C84278   3.668   4.622   1.872 -0.1099 -0.8217 -0.9571
  639MOL0     C84279   3.777   4.562   1.945  0.4027  0.6780  0.3278
  639MOL0     C84280   3.878   4.500   1.992  0.2214  0.1188  0.8642
  639MOL0     C84281   3.164   4.652   2.146 -0.2900  0.7333 -0.1689
  639MOL0     C84282   3.031   4.615   2.146  0.1480 -0.3266 -0.3188
  639MOL0     H84283   2.700   4.144   2.083  0.9716  1.8041  0.8726
  639MOL0     H84284   2.479   4.069   2.102  2.0327 -0.9577 -0.6320
  639MOL0     H84285   2.220   4.354   2.221  0.0785  0.5312  0.2056
  639MOL0     H84286   2.170   4.189   2.235 -0.5876 -0.6267 -0.0303
  639MOL0     H84287   1.990   4.216   2.075 -1.7310  0.6823  0.1871
  639MOL0     H84288   2.023   4.398   2.053  1.7240 -0.7747  0.1939
  639MOL0     H84289   1.985   4.435   2.269  0.3071  0.4145 -2.7919
  639MOL0     H84290   1.974   4.266   2.319  3.2842 -0.9428 -0.9098
  639MOL0     H84291   1.767   4.370   2.113  0.7751 -1.6376 -1.2773
  639MOL0     H84292   1.769   4.223   2.205 -0.7945  0.0161 -0.9396
  639MOL0     H84293   1.748   4.519   2.297 -1.8093 -0.4069  0.5311
  639MOL0     H84294   1.772   4.386   2.412  0.9122  0.5052 -0.0338
  639MOL0     H84295   1.556   4.289   2.329 -0.0065  0.2475  2.9068
  639MOL0     H84296   1.546   4.412   2.211 -2.0827 -1.8855  1.2847
  639MOL0     H84297   1.552   4.431   2.513 -1.3127  1.1650  0.6766
  639MOL0     H84298   1.555   4.588   2.435  2.8049 -0.9926  1.3723
  639MOL0     H84299   1.342   4.363   2.395 -0.8219 -0.1726  1.6899
  639MOL0     H84300   1.343   4.505   2.299  2.0753 -0.5289 -0.6689
  639MOL0     H84301   1.167   4.358   2.549  0.2820 -0.2695 -3.1651
  639MOL0     H84302   1.119   4.483   2.869  4.5936  1.5313 -2.6878
  639MOL0     H84303   1.043   4.372   2.752 -1.2389  1.3410 -2.9135
  639MOL0     H84304   0.875   4.521   2.692  0.7473 -2.0506 -0.1434
  639MOL0     H84305   0.954   4.658   2.773 -2.6511 -0.1340 -0.3416
  639MOL0     H84306   0.889   4.548   3.004 -0.3772  0.8292 -0.3600
  639MOL0     H84307   0.758   4.583   2.904 -2.1846 -3.5058 -2.9144
  639MOL0     H84308   0.768   4.355   3.025 -0.6074 -4.8554 -1.2684
  639MOL0     H84309   0.873   4.313   2.892  1.3170  1.7120  0.5434
  639MOL0     H84310   0.488   4.520   2.911  1.8660  0.7774  2.4524
  639MOL0     H84311   0.291   4.445   3.052 -2.1680 -2.9003  1.3056
  639MOL0     H84312  -0.030   4.196   3.070  0.2118  1.8054  0.6162
  639MOL0     H84313  -0.259   4.194   3.132  0.0494 -2.5662  0.6919
  639MOL0     H84314  -0.395   4.409   3.125  0.1248  0.7378  0.3826
  639MOL0     H84315  -0.515   4.471   3.225 -2.1318 -1.1144 -2.5609
  639MOL0     H84316  -0.492   4.167   3.189  1.1238  0.2422 -3.9910
  639MOL0     H84317  -0.586   4.275   3.090 -0.6485  1.8351  1.1569
  639MOL0     H84318  -0.639   4.288   3.392 -1.0201 -0.2007  0.6971
  639MOL0     H84319  -0.718   4.177   3.299 -1.4850  1.1715  0.1787
  639MOL0     H84320  -0.795   4.444   3.325  0.0023 -1.7946  1.7643
  639MOL0     H84321  -0.730   4.439   3.154 -0.9644  1.8729  1.0943
  639MOL0     H84322  -0.943   4.270   3.270  0.1513  4.0770  2.4514
  639MOL0     H84323  -0.863   4.233   3.117  0.2123  0.2041 -1.0728
  639MOL0     H84324  -1.080   4.339   3.102 -0.6205 -0.5565  3.4902
  639MOL0     H84325  -0.956   4.441   3.018  0.9085  2.5028  0.3556
  639MOL0     H84326  -1.022   4.526   3.293  0.6391 -0.9009 -0.5300
  639MOL0     H84327  -0.933   4.608   3.175 -0.9713  1.7772 -3.4663
  639MOL0     H84328  -1.119   4.629   3.018 -1.5860 -0.9002 -0.0174
  639MOL0     H84329  -1.140   4.717   3.176 -2.7114 -0.0119  1.4791
  639MOL0     H84330  -0.166   4.489   3.436 -0.4264 -1.5070  1.5827
  639MOL0     H84331   0.069   4.452   3.382 -0.9287 -0.9427  0.8806
  639MOL0     H84332   0.419   4.037   3.051 -2.1997  0.1338  0.5004
  639MOL0     H84333   0.607   4.102   2.915 -0.3887 -0.7760 -0.2889
  639MOL0     H84334   2.312   4.433   1.971 -1.3433 -1.8463 -0.1102
  639MOL0     H84335   2.561   4.526   1.924  0.4760 -0.3566  0.5521
  639MOL0     H84336   3.045   4.395   1.893 -2.4485 -0.3534  0.8530
  639MOL0     H84337   3.271   4.466   1.899 -0.7949  1.6153 -0.8924
  639MOL0     H84338   3.422   4.736   2.231  1.8005  2.1519 -0.7438
  639MOL0     H84339   3.396   4.837   2.094 -0.8429 -0.2121  1.0576
  639MOL0     H84340   3.618   4.854   2.133 -0.7176  0.7778 -0.6646
  639MOL0     H84341   3.655   4.685   2.132  1.1720  0.4155 -1.3926
  639MOL0     H84342   3.701   4.836   1.927 -0.6315  1.3015 -1.3703
  639MOL0     H84343   3.541   4.803   1.883  0.5523  0.7160  1.4465
  639MOL0     H84344   3.586   4.552   1.861 -1.1893  0.3754 -0.8027
  639MOL0     H84345   3.707   4.641   1.772 -0.0501 -1.3402 -1.0333
  639MOL0     H84346   3.950   4.427   2.023  0.8424 -0.8783 -2.5611
  639MOL0     H84347   3.192   4.729   2.217 -3.8337 -0.1830  2.4995
  639MOL0     H84348   2.965   4.675   2.207  2.1480  0.7485  0.8621
  640MOL0     O84349   4.650   3.656   1.663  0.3746  0.4875 -0.6766
  640MOL0     C84350   4.658   3.605   1.551  1.0519 -0.2551  0.4110
  640MOL0     O84351   4.566   3.548   1.481  0.2390  0.2136  0.1567
  640MOL0     C84352   4.450   3.500   1.542  0.7579  0.8184  0.1292
  640MOL0     C84353   4.437   3.465   1.675 -0.1844 -0.5770 -0.1914
  640MOL0     C84354   4.314   3.422   1.721 -0.0801  1.1208  0.1235
  640MOL0     C84355   4.197   3.424   1.645 -0.4844  0.2617 -0.2878
  640MOL0     O84356   4.071   3.400   1.680  0.9789 -0.5438  0.7009
  640MOL0     C84357   4.033   3.402   1.821 -0.9865 -0.0362  0.9267
  640MOL0     C84358   3.981   3.269   1.860 -0.5010  0.5371  0.6241
  640MOL0     C84359   3.896   3.271   1.981  0.1268 -0.0372  0.2525
  640MOL0     C84360   3.975   3.317   2.099  0.1804 -0.0267 -1.1250
  640MOL0     C84361   4.108   3.243   2.123 -0.1462  0.2650  0.0059
  640MOL0     C84362   4.204   3.323   2.202 -0.9473 -0.3486 -0.8908
  640MOL0     C84363   4.344   3.246   2.212  0.1733 -0.3378 -1.0675
  640MOL0     C84364   4.437   3.297   2.096  1.1818  0.8371 -0.5856
  640MOL0     N84365   4.499   3.423   2.135 -0.6150  0.4137  0.8894
  640MOL0     C84366   4.632   3.426   2.200  0.5383  0.9427  0.7923
  640MOL0     C84367   4.656   3.552   2.229 -0.2060  0.1986 -0.2459
  640MOL0     C84368   4.772   3.607   2.310  0.2141  0.3676  0.1523
  640MOL0     C84369   4.899   3.621   2.227 -0.1730  0.3970  0.3272
  640MOL0     C84370   5.011   3.715   2.294  0.0791 -0.0849  0.2862
  640MOL0     C84371   5.084   3.642   2.406 -0.3107 -0.0126  0.4080
  640MOL0     O84372   5.204   3.712   2.452  0.2420  0.4703  0.8498
  640MOL0     C84373   5.191   3.817   2.539 -0.3389 -0.1293 -0.1681
  640MOL0     C84374   5.064   3.883   2.564 -0.2377 -0.2209  0.9615
  640MOL0     C84375   5.060   3.993   2.644  0.3280 -0.0991 -0.9196
  640MOL0     C84376   5.180   4.046   2.701 -0.1904 -0.9135  0.3283
  640MOL0     C84377   5.171   4.159   2.806 -0.0432 -0.2987  0.3812
  640MOL0     O84378   5.274   4.174   2.889  0.0081 -0.5571  0.1690
  640MOL0     C84379   5.289   4.284   2.966  0.6211 -0.3883  0.8344
  640MOL0     C84380   5.197   4.320   3.063 -0.1241  0.0583  0.5131
  640MOL0     C84381   5.223   4.430   3.144  0.2307  0.8384 -0.0843
  640MOL0     C84382   5.337   4.498   3.145  0.1593 -0.0925  0.6731
  640MOL0     O84383   5.368   4.594   3.234 -0.0829  0.0097 -0.0169
  640MOL0     C84384   5.490   4.678   3.211 -0.2174 -0.1578  0.0592
  640MOL0     C84385   5.491   4.797   3.316  0.4212  0.4066 -0.4881
  640MOL0     C84386   5.603   4.891   3.288  0.3398 -0.5512 -0.6958
  640MOL0     C84387   5.598   5.011   3.382 -0.3379  0.5231 -0.1155
  640MOL0     C84388   5.472   5.095   3.399 -0.4824  0.2384  0.5801
  640MOL0     C84389   5.453   5.193   3.278  0.1442  0.0635 -0.3372
  640MOL0     C84390   5.325   5.276   3.304  0.2338 -0.3431 -1.0798
  640MOL0     C84391   5.327   5.397   3.213  0.5777 -0.2936 -0.1034
  640MOL0    Cl84392   5.281   5.348   3.050  0.3244 -0.0318  0.3438
  640MOL0     C84393   5.430   4.473   3.039  0.1845 -0.1309  0.0853
  640MOL0     C84394   5.405   4.363   2.953  0.1084  0.5587  0.3263
  640MOL0     O84395   5.068   4.230   2.801 -0.0103  0.5020 -0.1716
  640MOL0     C84396   5.302   3.972   2.683  0.5286  0.7551 -0.9615
  640MOL0     C84397   5.306   3.861   2.599 -0.3866 -0.5150 -1.9334
  640MOL0     N84398   4.565   3.633   2.171 -0.0037 -0.7750  0.1585
  640MOL0     N84399   4.477   3.558   2.117  0.6629  0.0047 -0.7010
  640MOL0     C84400   4.213   3.462   1.512  0.0713 -0.6215 -0.4141
  640MOL0     C84401   4.335   3.500   1.465 -0.3259  0.1666  0.3835
  640MOL0     C84402   4.788   3.622   1.473 -0.4148 -0.8040 -0.0876
  640MOL0     C84403   4.815   3.534   1.363  0.3732  0.8858  0.4364
  640MOL0     C84404   4.939   3.538   1.297  0.0409  0.3909  1.0264
  640MOL0     C84405   5.034   3.634   1.326  0.1888 -0.1821  0.1762
  640MOL0     O84406   5.158   3.645   1.265 -0.2711  0.4847 -0.6751
  640MOL0     C84407   5.201   3.524   1.205  0.2195 -0.2527 -0.2494
  640MOL0     C84408   5.358   3.564   1.179  0.0069 -0.0540 -0.4965
  640MOL0     C84409   5.425   3.433   1.112 -0.5614  0.3393 -0.0766
  640MOL0     C84410   5.580   3.436   1.122 -0.7095  0.4961  1.1768
  640MOL0     C84411   5.635   3.354   1.006 -0.4126  1.4273 -0.3441
  640MOL0     C84412   5.694   3.291   0.919 -0.8705 -0.1769  0.4349
  640MOL0     C84413   4.997   3.726   1.425  1.2889  0.5188 -0.2779
  640MOL0     C84414   4.882   3.721   1.497  0.4963 -0.0774  0.5120
  640MOL0     H84415   4.519   3.455   1.746 -1.6761 -1.2666  1.4976
  640MOL0     H84416   4.317   3.421   1.830 -0.0562  1.8282  0.1348
  640MOL0     H84417   3.955   3.478   1.833  0.4352  1.8499 -0.9891
  640MOL0     H84418   4.111   3.426   1.894 -3.4033 -1.6495  4.3150
  640MOL0     H84419   4.060   3.194   1.869  0.5552  0.8569 -3.6427
  640MOL0     H84420   3.927   3.235   1.771 -0.8992  2.5651  0.0196
  640MOL0     H84421   3.861   3.169   2.001 -0.8999  0.4463  0.9810
  640MOL0     H84422   3.811   3.339   1.971  0.7652  0.8992  1.0620
  640MOL0     H84423   3.984   3.425   2.084 -0.9767  0.2096 -0.3130
  640MOL0     H84424   3.917   3.301   2.191  1.7290  1.9353  0.2812
  640MOL0     H84425   4.159   3.219   2.029 -2.4524 -2.9472 -0.5655
  640MOL0     H84426   4.098   3.152   2.183  0.1246 -0.6315 -1.2619
  640MOL0     H84427   4.174   3.328   2.307  0.8527  2.7439 -0.3722
  640MOL0     H84428   4.210   3.425   2.163 -1.7487 -0.0664 -0.2932
  640MOL0     H84429   4.390   3.266   2.309  0.0157  1.1063 -1.2597
  640MOL0     H84430   4.317   3.141   2.198 -2.2957  0.1239 -0.3089
  640MOL0     H84431   4.379   3.315   2.006  0.7766 -0.1976 -0.5446
  640MOL0     H84432   4.518   3.225   2.082  2.5132  1.4223  2.8442
  640MOL0     H84433   4.680   3.338   2.241  0.6806  1.3948  1.6153
  640MOL0     H84434   4.798   3.536   2.389  0.8834  1.3901  0.8877
  640MOL0     H84435   4.733   3.696   2.360 -1.5107 -1.1223  1.5639
  640MOL0     H84436   4.870   3.673   2.135 -0.3121  1.2432  0.8399
  640MOL0     H84437   4.937   3.519   2.215 -0.5500  0.2335  0.5122
  640MOL0     H84438   5.089   3.743   2.223 -2.4641  2.3381 -1.7707
  640MOL0     H84439   4.957   3.808   2.314  0.4200  0.5780 -1.6585
  640MOL0     H84440   5.105   3.540   2.371 -1.8818  0.0852 -0.9809
  640MOL0     H84441   5.019   3.627   2.492 -2.3753 -1.5918 -1.3046
  640MOL0     H84442   4.976   3.848   2.511  2.6132 -2.3990 -2.8692
  640MOL0     H84443   4.964   4.041   2.658 -0.6615 -2.1119 -0.3305
  640MOL0     H84444   5.105   4.264   3.070  0.4346 -1.3898 -2.3546
  640MOL0     H84445   5.149   4.456   3.220 -0.1629  3.2584 -1.2150
  640MOL0     H84446   5.499   4.721   3.110  3.3069  3.3112  1.5640
  640MOL0     H84447   5.580   4.621   3.236 -1.2773 -1.0127  2.2029
  640MOL0     H84448   5.490   4.758   3.419 -3.7513 -1.4158 -1.0044
  640MOL0     H84449   5.388   4.834   3.314 -0.2693 -1.0513  2.2334
  640MOL0     H84450   5.595   4.934   3.188 -0.1462  1.8437  0.2837
  640MOL0     H84451   5.691   4.826   3.294 -1.2871 -2.7527  3.1401
  640MOL0     H84452   5.614   4.973   3.483 -0.6447  3.0169  0.9498
  640MOL0     H84453   5.679   5.083   3.370 -0.4246  0.8186  1.0097
  640MOL0     H84454   5.472   5.147   3.495 -2.1806  2.4644 -0.5255
  640MOL0     H84455   5.388   5.025   3.405 -2.9504  2.9464 -0.0557
  640MOL0     H84456   5.440   5.134   3.187 -0.7841 -1.6994  0.8815
  640MOL0     H84457   5.539   5.260   3.287 -0.4815  0.6029  2.5296
  640MOL0     H84458   5.234   5.216   3.289 -0.4848  0.9649 -2.2458
  640MOL0     H84459   5.315   5.325   3.400  0.0096  1.9701 -2.2267
  640MOL0     H84460   5.429   5.436   3.200  0.3660  0.5284  0.6100
  640MOL0     H84461   5.265   5.478   3.251  2.9425  1.1870  0.8251
  640MOL0     H84462   5.509   4.540   3.008  1.0685 -2.2989 -2.6505
  640MOL0     H84463   5.484   4.337   2.883  2.0075  2.3976  1.6862
  640MOL0     H84464   5.392   3.997   2.739  0.4300 -0.4590 -0.2402
  640MOL0     H84465   5.395   3.805   2.571  0.0860 -0.9128  0.2421
  640MOL0     H84466   4.128   3.460   1.444  0.0551 -5.5094 -0.6024
  640MOL0     H84467   4.349   3.528   1.361 -0.2245 -0.3132  0.2675
  640MOL0     H84468   4.748   3.455   1.331  0.8352 -1.0800  3.7656
  640MOL0     H84469   4.957   3.462   1.221  1.5070  0.6798  1.0533
  640MOL0     H84470   5.150   3.508   1.110 -3.3309  0.5255  1.3865
  640MOL0     H84471   5.195   3.438   1.273 -0.3303  0.0919  0.1446
  640MOL0     H84472   5.375   3.651   1.114  0.9812 -2.1240 -3.2251
  640MOL0     H84473   5.408   3.583   1.275 -0.4093 -1.0584 -0.0726
  640MOL0     H84474   5.383   3.417   1.012 -2.2853 -2.0485  0.9473
  640MOL0     H84475   5.394   3.348   1.174  3.2143  0.7940  2.8331
  640MOL0     H84476   5.613   3.540   1.118  1.2647 -0.1439 -0.5183
  640MOL0     H84477   5.614   3.399   1.219 -1.9997  2.6219  2.5322
  640MOL0     H84478   5.745   3.235   0.843 -1.6863  0.3412 -0.5227
  640MOL0     H84479   5.070   3.792   1.470  0.9066  0.2849  0.7054
  640MOL0     H84480   4.866   3.777   1.588 -2.0242 -0.2923  0.2528
  641MOL0     O84481   2.184   9.631   8.309 -0.3158 -0.3916 -0.2975
  641MOL0     C84482   2.201   9.537   8.228 -0.3450  0.6251 -0.1092
  641MOL0     O84483   2.105   9.483   8.145 -0.5245 -1.1974 -0.2017
  641MOL0     C84484   1.988   9.555   8.146  0.6632  0.5656 -0.0974
  641MOL0     C84485   1.921   9.579   8.260 -0.4124  1.0413 -0.2630
  641MOL0     C84486   1.802   9.645   8.269 -0.0102 -1.0676 -0.0420
  641MOL0     C84487   1.744   9.688   8.150 -0.4188 -0.4423 -0.2909
  641MOL0     O84488   1.614   9.739   8.136 -0.2765  0.1179  0.4824
  641MOL0     C84489   1.509   9.646   8.168 -0.6881  0.4654  0.0435
  641MOL0     C84490   1.405   9.630   8.055 -0.8510 -0.2122  0.6570
  641MOL0     C84491   1.284   9.553   8.105 -0.3281 -0.2616  0.3938
  641MOL0     C84492   1.147   9.576   8.029  0.4459 -0.1918 -0.1057
  641MOL0     C84493   1.034   9.476   8.075 -0.6715 -0.2681  0.3743
  641MOL0     C84494   0.919   9.485   7.977  0.1193  0.1474  0.2325
  641MOL0     C84495   0.825   9.593   8.003  0.3520 -1.0192  0.2329
  641MOL0     C84496   0.709   9.574   7.902 -1.1279 -0.3826  0.1773
  641MOL0     N84497   0.578   9.628   7.947 -0.2521 -0.7044  0.2359
  641MOL0     C84498   0.560   9.754   7.998 -0.1738  0.3590 -0.1603
  641MOL0     C84499   0.427   9.770   8.022  0.0651  0.0846  0.5678
  641MOL0     C84500   0.375   9.903   8.060 -0.2792  0.7285  0.3512
  641MOL0     C84501   0.348   9.926   8.207 -0.8978 -0.2219  0.0868
  641MOL0     C84502   0.317  10.068   8.225  0.0181 -0.5362  0.0191
  641MOL0     C84503   0.173  10.105   8.182  0.3108 -0.2551  0.6960
  641MOL0     O84504   0.160  10.243   8.226 -1.2064  0.2847 -0.4558
  641MOL0     C84505   0.032  10.290   8.261 -0.0803 -0.8232 -0.1038
  641MOL0     C84506  -0.072  10.257   8.169  0.4977 -0.4727  0.1968
  641MOL0     C84507  -0.202  10.317   8.164 -0.5660  0.3412 -1.5279
  641MOL0     C84508  -0.232  10.417   8.266  1.1683  0.3980  0.9700
  641MOL0     C84509  -0.368  10.457   8.299  0.2264 -0.4975  0.7824
  641MOL0     O84510  -0.464  10.393   8.232 -0.0178  0.3135  0.3786
  641MOL0     C84511  -0.591  10.428   8.262 -0.1385  0.3990  0.2113
  641MOL0     C84512  -0.662  10.346   8.350 -0.5716  0.7428 -0.2588
  641MOL0     C84513  -0.798  10.368   8.355 -0.1217  1.3186 -0.4466
  641MOL0     C84514  -0.862  10.479   8.293  0.7387 -0.1506  0.1906
  641MOL0     O84515  -0.993  10.515   8.324  0.4156  0.6964 -0.1434
  641MOL0     C84516  -1.091  10.401   8.330 -0.1128 -0.0245  1.1177
  641MOL0     C84517  -1.232  10.459   8.293  0.4032  1.5284 -0.2628
  641MOL0     C84518  -1.339  10.352   8.301  0.1176  0.0281 -0.2496
  641MOL0     C84519  -1.479  10.417   8.264 -0.1284 -0.4594  0.0638
  641MOL0     C84520  -1.583  10.317   8.311  0.1142  0.0623  0.0006
  641MOL0     C84521  -1.683  10.298   8.190 -0.7729  0.0060 -1.2590
  641MOL0     C84522  -1.802  10.208   8.227  0.2374  0.2251 -0.0255
  641MOL0     C84523  -1.891  10.196   8.103  0.0319  0.2713 -0.6423
  641MOL0    Cl84524  -1.828  10.090   7.974 -0.1258 -0.3490  0.1319
  641MOL0     C84525  -0.782  10.566   8.227 -0.5450 -0.2906 -0.0691
  641MOL0     C84526  -0.652  10.537   8.199 -0.5756 -0.3353 -0.9699
  641MOL0     O84527  -0.386  10.557   8.368 -1.2429  0.2181 -0.2924
  641MOL0     C84528  -0.127  10.454   8.354 -1.1268 -0.4827 -0.5027
  641MOL0     C84529   0.002  10.402   8.343 -1.1178  0.0085  0.1340
  641MOL0     N84530   0.366   9.649   7.989  0.2850  0.1893  0.0106
  641MOL0     N84531   0.461   9.567   7.945 -0.3776  0.2855 -0.1966
  641MOL0     C84532   1.814   9.665   8.028  0.9096 -0.8472  0.7597
  641MOL0     C84533   1.937   9.609   8.025  0.4250 -0.0978 -0.0724
  641MOL0     C84534   2.340   9.479   8.219 -0.6870  0.3785 -0.1857
  641MOL0     C84535   2.385   9.392   8.116  0.2174 -0.2044 -0.1636
  641MOL0     C84536   2.525   9.351   8.112 -0.1447 -0.6623 -0.3267
  641MOL0     C84537   2.614   9.389   8.211  0.1799 -0.7302 -0.0815
  641MOL0     O84538   2.742   9.337   8.196  0.3712  0.4707 -0.1516
  641MOL0     C84539   2.855   9.394   8.265 -0.4199 -0.5847  0.3143
  641MOL0     C84540   2.986   9.328   8.217 -0.6406  0.2118 -0.1328
  641MOL0     C84541   3.117   9.400   8.269  0.0225 -1.0466  0.5759
  641MOL0     C84542   3.206   9.454   8.152 -0.0239 -0.6846  0.0405
  641MOL0     C84543   3.328   9.510   8.205  0.6843 -1.4306 -0.3026
  641MOL0     C84544   3.425   9.560   8.252 -0.0205 -0.5703  0.4890
  641MOL0     C84545   2.571   9.480   8.310  0.7431 -0.6985 -0.3651
  641MOL0     C84546   2.436   9.509   8.316  0.8398  0.4216  0.1532
  641MOL0     H84547   1.964   9.526   8.344 -3.1050 -0.2203  0.4478
  641MOL0     H84548   1.756   9.667   8.365  1.3809  2.3842 -0.0271
  641MOL0     H84549   1.463   9.685   8.259  1.7265  0.3356  1.3768
  641MOL0     H84550   1.549   9.548   8.193  2.1531  1.1002 -1.5269
  641MOL0     H84551   1.456   9.582   7.971  3.1376  0.1871  2.5647
  641MOL0     H84552   1.367   9.727   8.022  1.6360  0.6778  0.1258
  641MOL0     H84553   1.271   9.591   8.207 -0.8758  1.7907 -0.3798
  641MOL0     H84554   1.289   9.444   8.102 -2.1856 -0.3576 -2.1919
  641MOL0     H84555   1.109   9.669   8.073  0.0224  0.4044 -1.6578
  641MOL0     H84556   1.151   9.592   7.921  0.3498 -0.9396 -0.2206
  641MOL0     H84557   0.999   9.510   8.173 -0.9123 -1.5965  0.7714
  641MOL0     H84558   1.068   9.373   8.088  1.8381  0.4784  0.3468
  641MOL0     H84559   0.864   9.390   7.986  2.6729 -1.4192  0.4840
  641MOL0     H84560   0.967   9.485   7.879 -0.8848 -0.1619 -0.2786
  641MOL0     H84561   0.789   9.591   8.106  4.8114 -1.1372  2.0071
  641MOL0     H84562   0.868   9.693   7.995 -2.6205  0.2273 -1.8242
  641MOL0     H84563   0.702   9.468   7.876  2.9618 -0.1828 -2.6095
  641MOL0     H84564   0.748   9.621   7.811  4.5651 -2.7263  0.9891
  641MOL0     H84565   0.625   9.841   7.996 -0.6550  0.7292  0.2215
  641MOL0     H84566   0.274   9.916   8.019 -1.0704  1.1176  2.2631
  641MOL0     H84567   0.447   9.977   8.024  0.5848  0.7395  2.0129
  641MOL0     H84568   0.440   9.904   8.262 -1.2925 -1.4129  0.3150
  641MOL0     H84569   0.263   9.869   8.247  0.2747 -0.2189  2.7951
  641MOL0     H84570   0.332  10.089   8.331  4.7698 -0.3750 -0.5032
  641MOL0     H84571   0.381  10.141   8.175 -1.8085  0.7898 -0.4860
  641MOL0     H84572   0.096  10.035   8.216 -2.3989  3.0627  2.0711
  641MOL0     H84573   0.165  10.104   8.073 -2.7790  0.4186  0.8180
  641MOL0     H84574  -0.056  10.184   8.090 -0.6598 -4.3097  3.2057
  641MOL0     H84575  -0.271  10.283   8.088 -3.9263  2.3810  0.3565
  641MOL0     H84576  -0.614  10.268   8.409 -0.8671  2.1558  1.9510
  641MOL0     H84577  -0.853  10.311   8.429  0.8207  0.4713 -0.3768
  641MOL0     H84578  -1.088  10.350   8.427  2.0701 -1.3943  0.4058
  641MOL0     H84579  -1.066  10.316   8.265  2.2689  0.7368  0.9337
  641MOL0     H84580  -1.237  10.487   8.187  2.5330 -0.5866 -1.0169
  641MOL0     H84581  -1.263  10.544   8.355  0.8628  0.7637  1.0594
  641MOL0     H84582  -1.333  10.305   8.400  3.1621  0.7356 -0.0125
  641MOL0     H84583  -1.315  10.280   8.222  0.8010  1.3035 -1.2397
  641MOL0     H84584  -1.498  10.505   8.326  1.1296 -0.2563  0.1939
  641MOL0     H84585  -1.490  10.444   8.159  1.1748  1.2154  0.3017
  641MOL0     H84586  -1.627  10.359   8.402  2.5517 -1.3893  1.9598
  641MOL0     H84587  -1.549  10.214   8.326 -2.5840 -0.8252  0.6152
  641MOL0     H84588  -1.627  10.249   8.110 -0.6308 -1.9492 -0.0245
  641MOL0     H84589  -1.721  10.390   8.143 -1.1469  1.1333  1.0954
  641MOL0     H84590  -1.775  10.110   8.268 -3.4634 -1.1627 -0.5148
  641MOL0     H84591  -1.851  10.251   8.314  0.3550  0.1835  0.0624
  641MOL0     H84592  -1.906  10.297   8.066 -1.9085  1.8917  3.8042
  641MOL0     H84593  -1.993  10.169   8.133 -0.8673  0.6174 -3.1987
  641MOL0     H84594  -0.825  10.659   8.190 -1.0077  0.1997  1.6531
  641MOL0     H84595  -0.591  10.597   8.131 -1.1414 -0.8184 -1.9246
  641MOL0     H84596  -0.148  10.523   8.435  0.6665 -0.7653  0.2729
  641MOL0     H84597   0.075  10.441   8.413 -2.8714 -1.6398  3.0795
  641MOL0     H84598   1.773   9.694   7.932  1.1535  2.3460  1.5199
  641MOL0     H84599   1.984   9.599   7.928 -2.6800 -0.9132 -1.6387
  641MOL0     H84600   2.313   9.364   8.040  1.2421 -4.2683  0.1465
  641MOL0     H84601   2.562   9.282   8.037 -0.3574  0.6734 -1.7147
  641MOL0     H84602   2.849   9.390   8.374  0.6772  0.0083  0.4147
  641MOL0     H84603   2.853   9.503   8.252  2.5445 -0.2755  1.6715
  641MOL0     H84604   2.991   9.229   8.265 -1.2286 -0.7570 -1.9678
  641MOL0     H84605   2.989   9.309   8.109 -1.1722 -2.6133  0.2511
  641MOL0     H84606   3.162   9.326   8.336 -2.4522 -3.0755  0.1340
  641MOL0     H84607   3.091   9.484   8.335  2.0531 -0.4520  0.6757
  641MOL0     H84608   3.245   9.371   8.091  1.4062  1.4563 -2.1772
  641MOL0     H84609   3.151   9.523   8.087  0.0581 -0.2890  0.3927
  641MOL0     H84610   3.517   9.594   8.294  1.1743 -1.9874 -0.8588
  641MOL0     H84611   2.630   9.509   8.396  0.9529  0.1271 -0.7754
  641MOL0     H84612   2.399   9.584   8.386 -0.4692  0.8436 -0.9308
  642MOL0     O84613   5.021   4.542   5.767  0.2951 -0.0505 -0.0766
  642MOL0     C84614   5.049   4.620   5.680 -0.2758  0.0389  0.1173
  642MOL0     O84615   4.968   4.658   5.589 -0.1139  0.0647 -0.3261
  642MOL0     C84616   4.831   4.641   5.599  0.0700 -0.4247 -0.6639
  642MOL0     C84617   4.744   4.631   5.715 -0.1169 -0.9724 -0.7832
  642MOL0     C84618   4.605   4.606   5.697  0.1391 -0.8396  0.2724
  642MOL0     C84619   4.548   4.621   5.570 -0.1900  0.8352 -0.6219
  642MOL0     O84620   4.410   4.615   5.564 -0.8507 -0.6123 -0.0891
  642MOL0     C84621   4.348   4.659   5.446  0.4759  0.0578  0.6607
  642MOL0     C84622   4.199   4.654   5.456  0.1429  0.3721  0.4988
  642MOL0     C84623   4.120   4.742   5.366  0.0156 -0.0107 -0.2701
  642MOL0     C84624   4.126   4.705   5.222  0.0492  0.0150 -0.7188
  642MOL0     C84625   4.021   4.788   5.137  0.4045 -0.3529  0.4244
  642MOL0     C84626   3.891   4.724   5.102 -0.5732 -0.5740 -0.2079
  642MOL0     C84627   3.801   4.813   5.019  0.2535 -0.3911  1.3981
  642MOL0     C84628   3.691   4.889   5.112  0.5066  0.1556  0.5459
  642MOL0     N84629   3.605   4.990   5.051  1.4472 -1.3627 -0.3675
  642MOL0     C84630   3.566   5.105   5.114 -1.2949  0.5878  0.2391
  642MOL0     C84631   3.469   5.159   5.037 -0.1760 -0.4763  0.7000
  642MOL0     C84632   3.427   5.301   5.050 -0.3497 -0.3408  0.1230
  642MOL0     C84633   3.291   5.295   5.131 -0.2974  0.0375  0.3415
  642MOL0     C84634   3.179   5.288   5.030 -0.3162  0.1078  0.5290
  642MOL0     C84635   3.044   5.313   5.092  0.1979  0.3161  0.3027
  642MOL0     O84636   2.985   5.186   5.130  0.0744  0.1844 -0.0292
  642MOL0     C84637   2.851   5.185   5.143 -1.0667  0.8243 -0.3946
  642MOL0     C84638   2.760   5.275   5.093  0.5074 -0.3142 -0.1756
  642MOL0     C84639   2.624   5.260   5.128 -0.0771 -0.3680 -1.1957
  642MOL0     C84640   2.578   5.158   5.212  1.1832 -0.9829 -0.2619
  642MOL0     C84641   2.432   5.145   5.244  0.2384  0.6814  0.2312
  642MOL0     O84642   2.406   5.084   5.357 -1.2749 -0.0560  0.1679
  642MOL0     C84643   2.290   5.108   5.427  0.1316 -0.5333  0.4377
  642MOL0     C84644   2.215   5.007   5.472 -0.3862 -0.2769 -0.3868
  642MOL0     C84645   2.089   5.032   5.534 -0.4189  0.4968  0.0447
  642MOL0     C84646   2.034   5.158   5.546 -0.3960  0.0453  0.7495
  642MOL0     O84647   1.916   5.192   5.604  0.1413 -0.7048  0.5356
  642MOL0     C84648   1.827   5.084   5.650 -0.2401 -0.0799 -0.1981
  642MOL0     C84649   1.690   5.138   5.676  0.0153  0.5205 -0.0624
  642MOL0     C84650   1.679   5.223   5.803 -0.3870  0.4365 -0.2421
  642MOL0     C84651   1.539   5.283   5.816 -0.2909 -0.0588 -0.1439
  642MOL0     C84652   1.510   5.339   5.952 -0.8327  0.5467 -0.1906
  642MOL0     C84653   1.377   5.407   5.939 -0.2573 -0.4361  0.0239
  642MOL0     C84654   1.338   5.452   6.076 -0.2814 -0.2483  0.0134
  642MOL0     C84655   1.202   5.513   6.101  0.1998 -0.4421 -0.3273
  642MOL0    Cl84656   1.178   5.635   5.967  0.3963 -0.2015 -0.0205
  642MOL0     C84657   2.122   5.266   5.510 -0.3093  0.5362 -0.5382
  642MOL0     C84658   2.240   5.235   5.447 -0.0195 -0.9614 -0.3282
  642MOL0     O84659   2.349   5.185   5.167  0.2081  0.6631 -0.0043
  642MOL0     C84660   2.668   5.068   5.252 -0.1014  0.0967 -0.6141
  642MOL0     C84661   2.801   5.074   5.211  0.0316  0.1000 -0.3824
  642MOL0     N84662   3.452   5.082   4.922 -0.3713 -0.2601 -0.0886
  642MOL0     N84663   3.532   4.982   4.932 -0.0609  0.9632 -0.1178
  642MOL0     C84664   4.636   4.646   5.467 -1.0324  0.0621  0.2903
  642MOL0     C84665   4.772   4.641   5.477  0.4107 -0.2873  1.2456
  642MOL0     C84666   5.196   4.651   5.660  0.3926 -0.1349 -0.4617
  642MOL0     C84667   5.290   4.587   5.744 -0.5276 -1.1241 -0.8162
  642MOL0     C84668   5.423   4.617   5.737 -0.3580 -0.8770  1.0099
  642MOL0     C84669   5.468   4.711   5.644 -0.4935  0.4223 -0.8839
  642MOL0     O84670   5.604   4.748   5.634  0.3751 -0.1138  0.7852
  642MOL0     C84671   5.677   4.719   5.510  1.2502 -0.2264 -0.0341
  642MOL0     C84672   5.765   4.598   5.499  0.0291  0.5511 -0.0698
  642MOL0     C84673   5.881   4.606   5.404  0.7509 -0.2785 -0.0297
  642MOL0     C84674   5.997   4.697   5.449 -0.9021 -0.1823  0.3151
  642MOL0     C84675   6.075   4.637   5.559  0.9661  0.6313  0.8379
  642MOL0     C84676   6.130   4.591   5.661 -0.5692 -1.0585  0.4973
  642MOL0     C84677   5.377   4.771   5.560 -0.0836  0.5285 -0.0417
  642MOL0     C84678   5.243   4.750   5.575 -0.5451 -0.1416 -0.7380
  642MOL0     H84679   4.790   4.631   5.813 -0.6262  0.6492 -0.5168
  642MOL0     H84680   4.543   4.580   5.783  0.2424  0.8172  0.9014
  642MOL0     H84681   4.401   4.594   5.375  0.3844  0.8001 -0.0967
  642MOL0     H84682   4.379   4.758   5.413 -0.3869 -0.2607 -1.2482
  642MOL0     H84683   4.181   4.686   5.560  0.2102 -0.1681  0.6770
  642MOL0     H84684   4.159   4.553   5.455 -2.1423  1.2200 -0.7352
  642MOL0     H84685   4.144   4.847   5.384  1.5841 -0.6637  1.8228
  642MOL0     H84686   4.014   4.731   5.391 -0.8289  0.4793 -3.2193
  642MOL0     H84687   4.228   4.699   5.182 -0.2216 -2.0354 -1.2278
  642MOL0     H84688   4.096   4.601   5.208 -0.5706  0.2496 -1.1841
  642MOL0     H84689   4.066   4.806   5.039 -1.8079 -0.9365 -0.7670
  642MOL0     H84690   3.998   4.888   5.176 -1.2628 -1.1094  1.4610
  642MOL0     H84691   3.842   4.696   5.195  2.4877  3.2567  2.9406
  642MOL0     H84692   3.913   4.628   5.054  0.1110 -1.3764  1.6210
  642MOL0     H84693   3.872   4.880   4.969  0.5240 -0.2950  1.9158
  642MOL0     H84694   3.758   4.762   4.932  3.2878 -0.0056 -0.4830
  642MOL0     H84695   3.735   4.943   5.197 -1.1388 -1.7909  2.7677
  642MOL0     H84696   3.618   4.820   5.154 -1.5131  0.8553 -1.5917
  642MOL0     H84697   3.610   5.146   5.204  0.2639 -2.8523  1.2254
  642MOL0     H84698   3.409   5.366   4.964 -0.6633  2.5658  2.2143
  642MOL0     H84699   3.516   5.352   5.090  0.4956 -2.0384  0.4972
  642MOL0     H84700   3.278   5.374   5.206  1.4277  3.4938 -2.6829
  642MOL0     H84701   3.293   5.203   5.190  0.9844 -0.4326 -0.3796
  642MOL0     H84702   3.193   5.355   4.944 -0.5794 -0.6383 -0.0985
  642MOL0     H84703   3.179   5.187   4.990 -1.3464  0.9831 -1.8315
  642MOL0     H84704   2.987   5.368   5.016  1.3135 -2.5370 -2.8279
  642MOL0     H84705   3.057   5.372   5.184  1.0113  1.8703 -0.7602
  642MOL0     H84706   2.784   5.361   5.032 -1.5725 -0.0507 -0.6970
  642MOL0     H84707   2.545   5.333   5.115 -3.4359 -3.4743  0.1348
  642MOL0     H84708   2.246   4.904   5.462 -0.7655 -0.1724 -4.7504
  642MOL0     H84709   2.039   4.946   5.575  2.3825 -0.4819  1.6883
  642MOL0     H84710   1.865   5.037   5.741  0.2324  1.5919  0.5191
  642MOL0     H84711   1.830   5.006   5.574  3.2234  1.1811 -1.5607
  642MOL0     H84712   1.629   5.047   5.684  0.8233  0.1222  2.3492
  642MOL0     H84713   1.665   5.204   5.592  0.8572 -2.0618 -2.4922
  642MOL0     H84714   1.754   5.302   5.787  0.0415  0.1295  0.2104
  642MOL0     H84715   1.699   5.169   5.896 -1.9536  2.2424  1.2148
  642MOL0     H84716   1.524   5.360   5.740 -2.9698 -0.9084 -0.5940
  642MOL0     H84717   1.461   5.208   5.800 -1.1445  0.6319  0.6796
  642MOL0     H84718   1.585   5.409   5.990 -1.0545 -0.9286  3.3936
  642MOL0     H84719   1.513   5.256   6.023  1.6095  0.4364 -0.3383
  642MOL0     H84720   1.302   5.341   5.894 -1.8356 -0.7657  2.8794
  642MOL0     H84721   1.380   5.499   5.880 -2.5892  0.0918  0.6367
  642MOL0     H84722   1.342   5.362   6.138  0.1875 -0.5287 -0.4153
  642MOL0     H84723   1.412   5.519   6.122  0.0396  0.3357 -1.2986
  642MOL0     H84724   1.198   5.555   6.201  1.1652  0.1752 -0.5347
  642MOL0     H84725   1.127   5.434   6.094 -1.6628  1.2504 -0.1289
  642MOL0     H84726   2.095   5.369   5.534 -0.3522 -0.0712  2.3268
  642MOL0     H84727   2.296   5.320   5.410 -3.0673  1.6795  0.6497
  642MOL0     H84728   2.651   4.984   5.318 -1.8060  1.2739  0.5396
  642MOL0     H84729   2.867   4.992   5.236 -3.9471 -3.8855 -1.6877
  642MOL0     H84730   4.591   4.688   5.377  1.7544  3.4018  0.2315
  642MOL0     H84731   4.835   4.659   5.390 -0.4473  0.6199  0.7880
  642MOL0     H84732   5.260   4.522   5.826 -1.4555 -1.5436 -1.4659
  642MOL0     H84733   5.487   4.560   5.803 -1.5526 -1.2201  1.9227
  642MOL0     H84734   5.726   4.816   5.493 -0.6335  0.8220  0.2231
  642MOL0     H84735   5.603   4.705   5.430  0.2700 -0.0156  0.8242
  642MOL0     H84736   5.805   4.572   5.598  0.6833 -2.5320 -1.0408
  642MOL0     H84737   5.703   4.509   5.482 -0.1690  1.2147 -3.3800
  642MOL0     H84738   5.849   4.652   5.310  1.1120 -0.7490 -0.3874
  642MOL0     H84739   5.921   4.506   5.384 -0.5692 -0.8105 -0.0943
  642MOL0     H84740   6.059   4.707   5.360  0.7960  0.8732  1.5500
  642MOL0     H84741   5.974   4.802   5.473  1.4583 -0.1751  3.1577
  642MOL0     H84742   6.196   4.571   5.742  3.8633 -0.4227 -2.5732
  642MOL0     H84743   5.408   4.843   5.485  0.1841  1.6332  1.0962
  642MOL0     H84744   5.182   4.814   5.511 -0.5002  1.3569  0.6484
  643MOL0     O84745   6.389   4.679   4.547 -0.0244  0.1358 -0.7332
  643MOL0     C84746   6.473   4.596   4.519  0.2864  0.0478  0.7626
  643MOL0     O84747   6.454   4.514   4.411  0.3123 -0.4958  0.0594
  643MOL0     C84748   6.339   4.521   4.331 -0.2689  0.0703  0.7342
  643MOL0     C84749   6.340   4.617   4.228 -0.6340 -0.7505  0.5733
  643MOL0     C84750   6.228   4.630   4.137  0.1012 -0.0657  0.2348
  643MOL0     C84751   6.125   4.530   4.140  0.3843 -0.7584 -0.5868
  643MOL0     O84752   6.029   4.521   4.038 -0.1269 -0.2137  0.0397
  643MOL0     C84753   6.098   4.520   3.906 -0.5867  0.4132 -0.8463
  643MOL0     C84754   5.990   4.465   3.807  0.2865 -0.0230 -0.8955
  643MOL0     C84755   5.870   4.561   3.781 -0.5581  0.7776 -0.3487
  643MOL0     C84756   5.913   4.682   3.696  0.3041 -0.0095 -0.0226
  643MOL0     C84757   5.811   4.771   3.631  0.4272  0.5571 -0.4277
  643MOL0     C84758   5.722   4.848   3.731 -0.4053  0.5525  0.4879
  643MOL0     C84759   5.792   4.972   3.789 -0.0513 -0.3131 -0.1478
  643MOL0     C84760   5.851   4.944   3.923  0.0288 -0.6242 -0.8936
  643MOL0     N84761   5.756   4.877   4.018 -0.4860 -0.2593  0.5784
  643MOL0     C84762   5.805   4.774   4.088 -0.3791  0.3947 -0.1634
  643MOL0     C84763   5.698   4.744   4.170  0.1032 -0.5571 -0.3583
  643MOL0     C84764   5.686   4.637   4.265 -1.0226  0.2440  1.0568
  643MOL0     C84765   5.688   4.666   4.407  0.4370 -0.5819  0.3081
  643MOL0     C84766   5.657   4.536   4.483  0.5608 -1.6336 -0.5204
  643MOL0     C84767   5.775   4.437   4.498  0.4106 -0.0824  0.6377
  643MOL0     O84768   5.882   4.502   4.567  0.2653 -0.4377  0.0391
  643MOL0     C84769   5.985   4.432   4.609 -0.2790 -0.1812  1.5567
  643MOL0     C84770   6.105   4.502   4.638  0.2585  0.3721 -0.1185
  643MOL0     C84771   6.227   4.440   4.669 -0.5405  0.7588  0.8378
  643MOL0     C84772   6.231   4.302   4.683 -0.7199  0.9928  0.0948
  643MOL0     C84773   6.358   4.244   4.749  0.0725  0.1392  0.7203
  643MOL0     O84774   6.446   4.327   4.803  0.1751 -0.7554 -0.5704
  643MOL0     C84775   6.558   4.266   4.851 -0.4976  0.4612  0.8017
  643MOL0     C84776   6.573   4.243   4.989  0.5315  0.2548  0.5368
  643MOL0     C84777   6.692   4.187   5.043  0.4392 -1.0611 -0.3965
  643MOL0     C84778   6.815   4.188   4.956 -1.0814 -0.2328 -0.4579
  643MOL0     O84779   6.940   4.144   5.006 -0.1021 -0.1283  0.2058
  643MOL0     C84780   6.973   4.206   5.129 -0.3594 -0.4400 -0.8973
  643MOL0     C84781   7.125   4.189   5.151  0.0078 -0.0991  0.0409
  643MOL0     C84782   7.168   4.274   5.273  0.1940 -0.2578 -0.4930
  643MOL0     C84783   7.292   4.211   5.343 -0.3997 -0.6525  1.0274
  643MOL0     C84784   7.312   4.256   5.487 -0.3670  0.2842  0.4731
  643MOL0     C84785   7.450   4.213   5.535  0.0640  0.6508  0.1191
  643MOL0     C84786   7.482   4.257   5.676  0.1293 -0.1687  0.3544
  643MOL0     C84787   7.628   4.236   5.727  0.0398  0.7708 -0.3177
  643MOL0    Cl84788   7.745   4.328   5.634 -0.1452  0.2306  0.0536
  643MOL0     C84789   6.799   4.228   4.822 -0.6807  0.7293 -0.2568
  643MOL0     C84790   6.672   4.260   4.768  0.4542 -0.4475 -0.5971
  643MOL0     O84791   6.377   4.121   4.727  0.0363 -0.7605 -0.4248
  643MOL0     C84792   6.107   4.226   4.653 -0.3945 -0.0256 -0.0812
  643MOL0     C84793   5.989   4.296   4.610 -0.0331  0.6281 -1.1466
  643MOL0     N84794   5.592   4.838   4.147  0.0306  0.2280  0.3419
  643MOL0     N84795   5.635   4.923   4.057 -0.2744 -0.1572 -0.1404
  643MOL0     C84796   6.131   4.438   4.242  0.1805 -0.4190  0.4088
  643MOL0     C84797   6.226   4.439   4.343  0.1940 -0.1531 -0.2971
  643MOL0     C84798   6.602   4.597   4.593 -0.4180 -0.7776 -0.2567
  643MOL0     C84799   6.621   4.664   4.711 -0.3849  0.3172 -0.1058
  643MOL0     C84800   6.748   4.660   4.776  0.5836 -0.4867 -0.9539
  643MOL0     C84801   6.854   4.583   4.720  0.1355  0.2812  0.8201
  643MOL0     O84802   6.976   4.572   4.773  0.8529 -0.7188  0.8226
  643MOL0     C84803   6.991   4.554   4.912  0.6323 -0.1637  0.2658
  643MOL0     C84804   7.133   4.545   4.953  0.8413 -0.3588  0.2836
  643MOL0     C84805   7.231   4.640   4.876  0.3599  0.6889 -0.1845
  643MOL0     C84806   7.377   4.616   4.937  0.6988 -0.5470 -0.0654
  643MOL0     C84807   7.459   4.724   4.890 -0.1611  0.1889  0.6624
  643MOL0     C84808   7.533   4.817   4.862  0.1511  0.3053 -0.1017
  643MOL0     C84809   6.833   4.520   4.598 -0.4440 -0.1138  0.9343
  643MOL0     C84810   6.714   4.536   4.536 -0.3896  0.9108  0.6722
  643MOL0     H84811   6.415   4.695   4.225  0.3953 -1.7134  0.5735
  643MOL0     H84812   6.227   4.714   4.068  0.4019 -0.7230 -0.5937
  643MOL0     H84813   6.185   4.454   3.908 -1.5974 -0.9904 -1.1559
  643MOL0     H84814   6.122   4.621   3.872  4.7282 -1.1636 -2.8532
  643MOL0     H84815   5.959   4.377   3.863  2.8659 -0.8734 -0.6760
  643MOL0     H84816   6.025   4.433   3.708 -0.2149  0.7196 -1.3231
  643MOL0     H84817   5.833   4.581   3.882 -3.2040  2.3062 -1.4970
  643MOL0     H84818   5.795   4.503   3.726 -1.4911  2.2567 -0.7230
  643MOL0     H84819   5.968   4.755   3.757 -1.8520  1.6304  0.0916
  643MOL0     H84820   5.972   4.643   3.613  2.0328  1.2813  0.5272
  643MOL0     H84821   5.747   4.699   3.579 -1.0292 -0.0020  1.9898
  643MOL0     H84822   5.846   4.847   3.562 -0.9196  1.0348 -0.6141
  643MOL0     H84823   5.685   4.780   3.809 -0.0843  0.1774  0.3104
  643MOL0     H84824   5.632   4.889   3.684  0.8663  1.9704 -0.7887
  643MOL0     H84825   5.878   5.010   3.733 -0.4041  1.2448  0.3127
  643MOL0     H84826   5.721   5.055   3.801 -0.6309 -0.9051  0.6982
  643MOL0     H84827   5.883   5.040   3.964 -0.4153 -0.4686 -0.9076
  643MOL0     H84828   5.944   4.887   3.914  2.9676  3.2838  1.5214
  643MOL0     H84829   5.892   4.710   4.075 -2.3858 -2.1219 -2.1249
  643MOL0     H84830   5.774   4.578   4.234 -0.3306  2.0178 -0.5613
  643MOL0     H84831   5.597   4.582   4.232 -0.4103 -1.5720  2.2569
  643MOL0     H84832   5.616   4.742   4.436  1.3086 -1.1064  4.4002
  643MOL0     H84833   5.782   4.709   4.443  0.2777 -1.7437  2.2567
  643MOL0     H84834   5.627   4.571   4.582 -1.8921 -0.0330 -1.7482
  643MOL0     H84835   5.568   4.488   4.441 -2.2580  1.6610  1.2582
  643MOL0     H84836   5.809   4.397   4.402 -3.0669  2.0668 -1.7027
  643MOL0     H84837   5.727   4.375   4.575  0.3988  0.7856  1.3547
  643MOL0     H84838   6.096   4.607   4.614 -1.2787 -0.0709 -1.7093
  643MOL0     H84839   6.308   4.499   4.712  0.8654 -0.8510  0.4882
  643MOL0     H84840   6.480   4.262   5.041  1.2599  2.0098  1.2779
  643MOL0     H84841   6.708   4.157   5.146  2.2329 -1.5655 -0.7791
  643MOL0     H84842   6.932   4.160   5.219  0.2230 -0.4444 -0.6289
  643MOL0     H84843   6.953   4.314   5.130  0.9903 -0.1716 -0.7260
  643MOL0     H84844   7.173   4.224   5.059 -2.4028  0.2507 -1.1434
  643MOL0     H84845   7.142   4.083   5.170 -0.8383 -0.2519 -0.0238
  643MOL0     H84846   7.091   4.296   5.348 -0.4185  1.4139 -1.5436
  643MOL0     H84847   7.192   4.376   5.240 -2.2067 -0.1911 -2.3746
  643MOL0     H84848   7.280   4.103   5.355  1.5487 -0.6142  5.2887
  643MOL0     H84849   7.376   4.242   5.279 -0.8947 -1.1932  0.1129
  643MOL0     H84850   7.228   4.219   5.546 -2.4413 -1.2699 -3.1189
  643MOL0     H84851   7.313   4.366   5.483 -1.1881  0.3646  1.8365
  643MOL0     H84852   7.521   4.261   5.467  0.4707  0.3755  0.3394
  643MOL0     H84853   7.462   4.105   5.528 -0.0501  0.7009 -1.0934
  643MOL0     H84854   7.451   4.361   5.686 -1.0676 -0.6033  1.5616
  643MOL0     H84855   7.422   4.194   5.743 -2.3733  0.8729 -0.8046
  643MOL0     H84856   7.661   4.132   5.720 -3.6128 -0.4176 -2.5496
  643MOL0     H84857   7.627   4.257   5.835  0.0552  0.3588 -0.2368
  643MOL0     H84858   6.887   4.223   4.758 -0.8523 -0.1650 -0.4390
  643MOL0     H84859   6.663   4.288   4.664  1.6162  0.2343 -0.5355
  643MOL0     H84860   6.106   4.119   4.670 -0.9646  0.1567  1.1258
  643MOL0     H84861   5.898   4.240   4.592 -0.3657  1.0736 -0.8846
  643MOL0     H84862   6.052   4.364   4.241 -2.1526  1.9315  0.7282
  643MOL0     H84863   6.211   4.364   4.420 -0.4540  0.2921  0.0140
  643MOL0     H84864   6.540   4.721   4.755  0.1077  0.8167  0.1719
  643MOL0     H84865   6.774   4.706   4.871  1.6860 -3.1637  0.1389
  643MOL0     H84866   6.927   4.472   4.945 -0.9642  2.0752  3.1675
  643MOL0     H84867   6.953   4.646   4.957  2.0321 -0.3554  1.9316
  643MOL0     H84868   7.137   4.554   5.062  0.7832  0.0259  0.2553
  643MOL0     H84869   7.160   4.439   4.939 -1.2292 -1.0993  1.4678
  643MOL0     H84870   7.187   4.737   4.902 -1.7404 -0.4655  0.8152
  643MOL0     H84871   7.233   4.613   4.770 -0.3961  0.7522 -0.2168
  643MOL0     H84872   7.378   4.624   5.046 -0.8115 -2.0594  0.1118
  643MOL0     H84873   7.420   4.522   4.899 -0.5663 -1.1246 -0.1548
  643MOL0     H84874   7.593   4.899   4.829 -2.3287  2.0064 -0.7264
  643MOL0     H84875   6.915   4.467   4.550 -2.4011 -1.1084 -1.5300
  643MOL0     H84876   6.708   4.470   4.450  3.5524  1.3729 -0.1096
  644MOL0     O84877   3.755   8.021   6.404  0.0380  0.0341 -0.2853
  644MOL0     C84878   3.708   8.111   6.478 -0.6565 -0.2479  0.2965
  644MOL0     O84879   3.579   8.137   6.491  0.6754 -1.0193 -0.2816
  644MOL0     C84880   3.481   8.074   6.427 -0.0059  0.0348  0.3185
  644MOL0     C84881   3.366   8.038   6.504 -0.2780 -0.0505 -0.4834
  644MOL0     C84882   3.256   7.990   6.439  0.1904 -0.2604 -0.2106
  644MOL0     C84883   3.252   7.959   6.305  0.4536 -0.2892 -0.1376
  644MOL0     O84884   3.150   7.896   6.235  0.5328  0.1611  0.3554
  644MOL0     C84885   3.018   7.864   6.295  0.0275  0.9084  0.5000
  644MOL0     C84886   2.902   7.834   6.196 -0.4015  0.9923 -0.1821
  644MOL0     C84887   2.828   7.952   6.130 -0.4456  1.0285 -0.9268
  644MOL0     C84888   2.708   7.891   6.061 -0.3121 -0.3447  0.5903
  644MOL0     C84889   2.630   8.003   5.981  0.5738  1.4624  0.3981
  644MOL0     C84890   2.477   7.982   5.983 -0.3548 -0.8762 -0.1927
  644MOL0     C84891   2.406   8.101   5.924  0.8695  0.0536 -1.0258
  644MOL0     C84892   2.267   8.058   5.861 -0.1324 -0.4486 -0.5618
  644MOL0     N84893   2.287   7.994   5.736  0.4942  0.8649  0.1230
  644MOL0     C84894   2.194   7.905   5.681 -0.8403 -0.6717  0.2083
  644MOL0     C84895   2.254   7.878   5.561 -1.0233 -0.5890  0.3886
  644MOL0     C84896   2.189   7.786   5.459 -0.0694 -0.5203 -0.1866
  644MOL0     C84897   2.123   7.864   5.346 -0.1822  0.9465 -0.1259
  644MOL0     C84898   2.047   7.995   5.377 -0.7350  0.3823 -0.4282
  644MOL0     C84899   1.971   8.042   5.253  0.0501  0.4959  0.1664
  644MOL0     O84900   1.889   8.154   5.305 -0.7328 -0.6686  0.1021
  644MOL0     C84901   1.755   8.161   5.265  0.6411  0.1048  0.2494
  644MOL0     C84902   1.667   8.061   5.226  1.1427 -0.0312 -0.4923
  644MOL0     C84903   1.530   8.095   5.197 -0.8462 -0.0514  0.0441
  644MOL0     C84904   1.483   8.230   5.193 -1.2546 -0.7397 -0.4786
  644MOL0     C84905   1.345   8.278   5.155  0.0220  0.7891  0.9719
  644MOL0     O84906   1.268   8.192   5.080  0.0586 -0.2624  0.3128
  644MOL0     C84907   1.152   8.247   5.035  0.1010 -0.9814  0.6097
  644MOL0     C84908   1.028   8.194   5.077 -0.6787  0.3885 -0.1264
  644MOL0     C84909   0.907   8.240   5.024  0.8703  1.3835  0.1246
  644MOL0     C84910   0.911   8.339   4.931 -0.0476  0.1068 -0.3567
  644MOL0     O84911   0.790   8.373   4.883  0.1981 -0.1511  0.5151
  644MOL0     C84912   0.799   8.357   4.736  0.2174  0.0791 -0.9776
  644MOL0     C84913   0.664   8.313   4.688 -0.2462 -0.2677  0.0357
  644MOL0     C84914   0.605   8.191   4.751 -1.0013  0.3553  0.0660
  644MOL0     C84915   0.469   8.149   4.687 -0.3615 -0.6014 -0.0089
  644MOL0     C84916   0.384   8.078   4.788  1.1311 -0.4088  0.3185
  644MOL0     C84917   0.313   8.170   4.885  0.2840 -0.6066  0.6931
  644MOL0     C84918   0.192   8.086   4.941 -0.3871  0.7960 -0.1244
  644MOL0     C84919   0.119   8.141   5.069 -0.0611 -0.2036 -0.0558
  644MOL0    Cl84920  -0.039   8.043   5.116 -0.2308 -0.6626  0.0576
  644MOL0     C84921   1.029   8.391   4.890 -0.5589 -0.1246 -0.9448
  644MOL0     C84922   1.152   8.353   4.941  0.1178  0.1699  0.2893
  644MOL0     O84923   1.307   8.389   5.198 -0.3305 -0.4455 -0.2466
  644MOL0     C84924   1.579   8.327   5.218  0.6442  0.0593 -0.0921
  644MOL0     C84925   1.713   8.295   5.253  0.1733 -0.1440  0.4878
  644MOL0     N84926   2.383   7.938   5.552  0.4440  0.1522  0.4128
  644MOL0     N84927   2.401   8.004   5.660  0.2726 -0.9985 -0.2141
  644MOL0     C84928   3.372   7.993   6.227 -0.9356  0.0099  0.2557
  644MOL0     C84929   3.479   8.054   6.288 -0.1068 -0.2331 -0.4978
  644MOL0     C84930   3.806   8.180   6.572  0.1170  0.3056 -0.6454
  644MOL0     C84931   3.940   8.147   6.558 -0.1422  0.2972 -0.1592
  644MOL0     C84932   4.041   8.194   6.649  0.4692 -1.2002 -0.4499
  644MOL0     C84933   4.009   8.291   6.744  0.2843  0.3684  0.2879
  644MOL0     O84934   4.111   8.345   6.821  0.1994  0.9622  0.0966
  644MOL0     C84935   4.087   8.426   6.933 -0.0838 -0.5733 -0.8732
  644MOL0     C84936   4.203   8.512   6.987  0.5802 -0.0418  0.2864
  644MOL0     C84937   4.289   8.567   6.880 -0.2441  0.1076 -0.0729
  644MOL0     C84938   4.245   8.696   6.806 -0.1430 -0.0483 -0.2553
  644MOL0     C84939   4.142   8.656   6.715 -0.3847 -0.7187  0.1572
  644MOL0     C84940   4.061   8.634   6.638  0.6288 -0.5355  0.9291
  644MOL0     C84941   3.873   8.319   6.758 -0.2846  0.2379 -0.4497
  644MOL0     C84942   3.772   8.265   6.682  0.4001  0.3589  0.3572
  644MOL0     H84943   3.365   8.051   6.612  1.5453 -0.0404 -0.4230
  644MOL0     H84944   3.168   7.979   6.502 -0.8794 -0.6578 -1.7196
  644MOL0     H84945   2.984   7.941   6.365 -3.6883  0.1625 -0.2888
  644MOL0     H84946   3.047   7.788   6.368 -0.6129  0.0639 -0.1070
  644MOL0     H84947   2.839   7.768   6.256 -0.2374  0.7316 -0.2938
  644MOL0     H84948   2.935   7.762   6.120  3.3864  1.1402  1.1343
  644MOL0     H84949   2.899   8.003   6.064  0.9180  0.7742  0.2825
  644MOL0     H84950   2.798   8.025   6.206  2.0837  2.8679 -1.5684
  644MOL0     H84951   2.727   7.814   5.986 -0.9978  1.2071 -1.2695
  644MOL0     H84952   2.644   7.850   6.139  1.5528 -1.7677  1.4599
  644MOL0     H84953   2.664   8.010   5.877  0.5086 -1.0801  0.1476
  644MOL0     H84954   2.653   8.089   6.043  0.4815  0.9121  1.2065
  644MOL0     H84955   2.429   7.962   6.079  1.7332 -0.3459  1.0298
  644MOL0     H84956   2.463   7.895   5.919  0.1790 -1.9050  1.0554
  644MOL0     H84957   2.376   8.158   6.013 -0.0338 -3.1106  0.8557
  644MOL0     H84958   2.458   8.173   5.860 -0.7768  1.5423 -0.7602
  644MOL0     H84959   2.221   8.154   5.836  0.3372  0.2011  0.9504
  644MOL0     H84960   2.213   8.004   5.939  0.8146  1.2984  1.4372
  644MOL0     H84961   2.093   7.880   5.711 -0.9194 -0.5308  0.0611
  644MOL0     H84962   2.105   7.740   5.510  1.7183 -1.0518  2.5120
  644MOL0     H84963   2.257   7.709   5.422  0.3190 -0.8285  1.1235
  644MOL0     H84964   2.047   7.789   5.321  2.5397 -2.5985  1.4461
  644MOL0     H84965   2.197   7.876   5.266  0.9531  1.2929  0.9519
  644MOL0     H84966   1.974   7.975   5.455 -2.1941  2.2203 -1.2374
  644MOL0     H84967   2.120   8.073   5.402 -0.6156  0.5615 -1.3160
  644MOL0     H84968   1.912   7.956   5.221 -0.3222  0.6601  0.4067
  644MOL0     H84969   2.046   8.059   5.175 -0.0042 -4.4106 -1.3160
  644MOL0     H84970   1.694   7.956   5.226 -0.8039 -0.5852 -1.6115
  644MOL0     H84971   1.451   8.021   5.186 -1.5087  0.5725  0.5387
  644MOL0     H84972   1.033   8.115   5.151  1.9599  0.9091  0.3613
  644MOL0     H84973   0.808   8.200   5.042  0.7992  0.3196 -2.2387
  644MOL0     H84974   0.867   8.277   4.704  1.9762  0.3778  1.6621
  644MOL0     H84975   0.827   8.451   4.687  2.2324 -0.3378 -0.7176
  644MOL0     H84976   0.671   8.301   4.579 -0.1579  1.5702 -0.2047
  644MOL0     H84977   0.589   8.389   4.714 -0.2495 -1.1783  3.1161
  644MOL0     H84978   0.595   8.196   4.860  2.3492  0.5462  0.4517
  644MOL0     H84979   0.674   8.107   4.737 -0.0452  1.6333 -4.2080
  644MOL0     H84980   0.409   8.229   4.642 -2.3779 -1.6283  0.7178
  644MOL0     H84981   0.485   8.074   4.608  0.5067 -0.3346 -0.0987
  644MOL0     H84982   0.446   8.013   4.850  4.5000 -1.0018 -3.2653
  644MOL0     H84983   0.323   8.026   4.714  1.0290  3.7212 -2.9332
  644MOL0     H84984   0.269   8.258   4.837  0.2724 -0.9059  0.1457
  644MOL0     H84985   0.378   8.199   4.968 -1.3421  1.1847  1.4197
  644MOL0     H84986   0.120   8.064   4.862  1.4277 -3.2498 -0.9351
  644MOL0     H84987   0.222   7.982   4.962 -3.8528 -0.0460  1.3453
  644MOL0     H84988   0.102   8.248   5.051 -1.2079 -0.1777  1.0347
  644MOL0     H84989   0.194   8.133   5.148  0.3201 -1.3799 -0.5107
  644MOL0     H84990   1.022   8.476   4.823 -2.7474  0.3201 -0.2628
  644MOL0     H84991   1.247   8.391   4.903  0.4483 -0.4548  0.4838
  644MOL0     H84992   1.547   8.431   5.219  1.1749  0.2240 -0.0958
  644MOL0     H84993   1.779   8.378   5.277  0.4575 -0.7619  1.9659
  644MOL0     H84994   3.370   7.985   6.119 -2.6695  2.6643 -0.0209
  644MOL0     H84995   3.564   8.090   6.230 -1.5326 -0.0700 -2.5964
  644MOL0     H84996   3.974   8.081   6.479 -2.7510 -3.2175  1.3659
  644MOL0     H84997   4.146   8.172   6.632  0.2749 -0.9646 -2.1944
  644MOL0     H84998   4.060   8.359   7.014  3.1700 -1.2514 -0.1983
  644MOL0     H84999   4.016   8.508   6.917  1.3514  1.5030  2.3643
  644MOL0     H85000   4.158   8.585   7.055 -0.7704 -3.2882  3.1785
  644MOL0     H85001   4.260   8.454   7.060  1.1915 -0.5419 -0.5656
  644MOL0     H85002   4.311   8.487   6.809  0.3220 -1.0266  1.3324
  644MOL0     H85003   4.388   8.591   6.919 -0.5404  1.3101 -0.0041
  644MOL0     H85004   4.198   8.767   6.875 -1.0920  0.9455 -1.8864
  644MOL0     H85005   4.325   8.750   6.756 -2.6842  3.1036 -1.2241
  644MOL0     H85006   3.983   8.612   6.567  1.6799  1.3476 -0.9443
  644MOL0     H85007   3.839   8.384   6.838 -0.5125 -0.9690  0.4674
  644MOL0     H85008   3.677   8.314   6.702  0.9819  1.0771  1.4476
  645MOL0     O85009   0.980   3.500  10.283  0.4524 -0.8706 -0.3024
  645MOL0     C85010   1.047   3.532  10.384  0.3357  0.0856 -0.3769
  645MOL0     O85011   0.991   3.574  10.505  0.2628 -0.3200 -0.4204
  645MOL0     C85012   0.855   3.600  10.515  0.3161  0.0424  0.1908
  645MOL0     C85013   0.780   3.684  10.429 -0.3959  0.2117 -0.5040
  645MOL0     C85014   0.654   3.735  10.477  0.3873  0.0304  0.1664
  645MOL0     C85015   0.596   3.691  10.594 -1.0688  0.3705 -0.0825
  645MOL0     O85016   0.485   3.751  10.627 -0.3177 -0.4386 -0.1650
  645MOL0     C85017   0.411   3.691  10.738  0.5346 -0.7419 -0.6649
  645MOL0     C85018   0.277   3.769  10.765 -0.5371  0.6531 -0.3944
  645MOL0     C85019   0.219   3.739  10.902 -0.0382  0.3481  0.3454
  645MOL0     C85020   0.080   3.806  10.937  0.1968 -0.4053  0.3988
  645MOL0     C85021   0.091   3.964  10.958 -0.1417 -0.8574 -0.4858
  645MOL0     C85022  -0.049   4.015  10.976 -0.3322  0.1828 -1.0113
  645MOL0     C85023  -0.077   4.162  10.982  0.3532 -0.5980  0.8051
  645MOL0     C85024  -0.225   4.182  10.960 -0.2643 -0.7380 -0.8556
  645MOL0     N85025  -0.263   4.326  10.962 -0.3854 -0.3177 -0.2734
  645MOL0     C85026  -0.384   4.372  11.010 -0.6577  0.3241  0.2524
  645MOL0     C85027  -0.409   4.487  10.954 -0.1534 -0.1147 -0.6982
  645MOL0     C85028  -0.541   4.555  10.959 -0.6240  0.0453  0.0663
  645MOL0     C85029  -0.513   4.702  10.985  0.1533  0.4758  0.1814
  645MOL0     C85030  -0.631   4.777  11.030  0.4837  0.6438  0.2673
  645MOL0     C85031  -0.606   4.928  11.020  0.9225 -0.4527 -0.0118
  645MOL0     O85032  -0.729   4.995  11.048  0.5993 -0.8898  0.5223
  645MOL0     C85033  -0.798   5.058  10.946  0.8834  0.6020 -0.7970
  645MOL0     C85034  -0.909   5.129  10.988 -0.4307  0.6146 -0.3623
  645MOL0     C85035  -1.001   5.167  10.886  0.7194 -1.1914 -0.0236
  645MOL0     C85036  -0.967   5.175  10.751 -0.8557 -0.2824 -0.6249
  645MOL0     C85037  -1.045   5.245  10.648 -0.1675 -0.0650  1.3635
  645MOL0     O85038  -1.169   5.270  10.688 -0.1219 -0.1622  0.9055
  645MOL0     C85039  -1.257   5.329  10.603  0.9507  0.1540  0.7642
  645MOL0     C85040  -1.384   5.364  10.673 -1.3412 -0.3902  0.7282
  645MOL0     C85041  -1.479   5.446  10.616 -0.6703  0.5803  0.1997
  645MOL0     C85042  -1.453   5.496  10.485 -0.5795  1.5158 -0.0208
  645MOL0     O85043  -1.534   5.585  10.427  0.2307  0.7271  0.2408
  645MOL0     C85044  -1.552   5.708  10.503 -0.0532  0.1924  0.0632
  645MOL0     C85045  -1.688   5.761  10.466 -0.0254 -0.3551  0.2207
  645MOL0     C85046  -1.809   5.671  10.508  0.8262  0.1785  1.3001
  645MOL0     C85047  -1.944   5.741  10.492  0.3023 -0.6173 -0.0270
  645MOL0     C85048  -2.050   5.631  10.511 -0.1331  0.8975  0.3961
  645MOL0     C85049  -2.194   5.680  10.533  0.2314  0.4637  0.2129
  645MOL0     C85050  -2.250   5.741  10.409 -0.2559  0.9445 -0.8925
  645MOL0     C85051  -2.397   5.762  10.415 -0.3543 -0.1341  0.2555
  645MOL0    Cl85052  -2.447   5.905  10.308 -0.2779 -0.6077  0.4096
  645MOL0     C85053  -1.331   5.475  10.421  0.3283  0.6645  0.0157
  645MOL0     C85054  -1.235   5.396  10.478 -0.3065 -0.1471  0.3114
  645MOL0     O85055  -0.993   5.281  10.538 -0.6082  0.1134 -1.1537
  645MOL0     C85056  -0.839   5.118  10.711  0.4611 -0.4558  0.6496
  645MOL0     C85057  -0.768   5.051  10.804  0.1788 -0.2310  0.4187
  645MOL0     N85058  -0.309   4.517  10.862  0.2835  0.0617  0.5289
  645MOL0     N85059  -0.223   4.424  10.871  0.0601 -0.0722 -0.4902
  645MOL0     C85060   0.668   3.597  10.670 -0.9562 -0.8572 -0.0362
  645MOL0     C85061   0.792   3.549  10.628  1.3552 -0.6131 -0.0394
  645MOL0     C85062   1.196   3.522  10.371 -0.0829  0.3725 -0.0475
  645MOL0     C85063   1.257   3.508  10.252 -0.6435  0.2267  0.0062
  645MOL0     C85064   1.397   3.508  10.239  0.0252  0.1907  0.6250
  645MOL0     C85065   1.478   3.528  10.353  0.2040  0.0317  0.2002
  645MOL0     O85066   1.615   3.544  10.343 -0.1219 -0.4999  0.1816
  645MOL0     C85067   1.708   3.535  10.448  0.1276  1.1123 -0.0457
  645MOL0     C85068   1.715   3.403  10.514 -0.0375  0.0902  0.0045
  645MOL0     C85069   1.817   3.389  10.624  0.5626 -0.4920 -0.3063
  645MOL0     C85070   1.959   3.378  10.572 -0.1907  0.1988 -0.2803
  645MOL0     C85071   2.000   3.241  10.546  0.1764 -0.5533 -0.6525
  645MOL0     C85072   2.037   3.132  10.532 -0.5240  0.2494 -0.9265
  645MOL0     C85073   1.411   3.549  10.470 -0.1442  0.1860 -0.4577
  645MOL0     C85074   1.270   3.551  10.481 -1.0483 -0.3303 -0.0695
  645MOL0     H85075   0.823   3.721  10.336 -0.8839  2.3477  0.0512
  645MOL0     H85076   0.596   3.803  10.416 -0.3809 -1.2477 -0.5645
  645MOL0     H85077   0.472   3.704  10.828 -3.4814 -0.7020  2.3379
  645MOL0     H85078   0.393   3.584  10.722 -0.4757 -0.3780 -2.2076
  645MOL0     H85079   0.204   3.727  10.695 -2.0685  3.3821 -0.5444
  645MOL0     H85080   0.278   3.874  10.736 -4.5237  0.3978 -2.1258
  645MOL0     H85081   0.289   3.780  10.974 -1.3026  1.5406  0.9384
  645MOL0     H85082   0.221   3.630  10.897 -1.1701  0.3689 -2.2538
  645MOL0     H85083   0.008   3.786  10.857 -0.1018  3.5438 -0.4910
  645MOL0     H85084   0.033   3.753  11.021 -2.0457  0.6003 -0.1554
  645MOL0     H85085   0.140   4.013  10.873  0.7322 -0.1637  0.3999
  645MOL0     H85086   0.150   3.995  11.044  0.6784  0.1917 -1.3906
  645MOL0     H85087  -0.092   3.973  11.067 -2.0489  2.8351 -0.4745
  645MOL0     H85088  -0.100   3.970  10.890 -0.4090  1.5943 -1.7327
  645MOL0     H85089  -0.039   4.198  11.078 -0.6863 -0.9814  1.3741
  645MOL0     H85090  -0.019   4.216  10.906 -2.2090  0.9983 -0.1507
  645MOL0     H85091  -0.275   4.120  11.034  0.7235  1.0423  1.4398
  645MOL0     H85092  -0.251   4.152  10.858 -2.9163 -2.5893  0.2500
  645MOL0     H85093  -0.452   4.316  11.074 -0.1447 -0.0712  0.4626
  645MOL0     H85094  -0.603   4.515  11.040 -0.2249  1.5792  1.1825
  645MOL0     H85095  -0.601   4.528  10.872 -0.1376  1.8199 -0.8809
  645MOL0     H85096  -0.475   4.750  10.894 -0.6777 -0.4519 -0.6787
  645MOL0     H85097  -0.438   4.716  11.063 -0.3277 -0.6025  0.8684
  645MOL0     H85098  -0.712   4.752  10.960 -0.3740 -1.2844  1.8319
  645MOL0     H85099  -0.648   4.756  11.136  2.3909 -1.1023  0.2880
  645MOL0     H85100  -0.566   4.958  10.922 -2.0379  0.1680 -1.1151
  645MOL0     H85101  -0.541   4.951  11.105 -0.8926  0.5148  1.1584
  645MOL0     H85102  -0.925   5.145  11.094 -2.1134  2.7640 -0.8816
  645MOL0     H85103  -1.093   5.214  10.919 -0.2219 -1.9782 -1.4390
  645MOL0     H85104  -1.400   5.319  10.770 -0.8825  0.6482  1.2974
  645MOL0     H85105  -1.571   5.483  10.660 -0.7998 -0.7207  1.0603
  645MOL0     H85106  -1.469   5.764  10.460  1.5281 -1.9372  0.1957
  645MOL0     H85107  -1.549   5.700  10.612  1.9240  0.5091  0.0728
  645MOL0     H85108  -1.690   5.784  10.359 -1.6300  1.3915  0.5661
  645MOL0     H85109  -1.705   5.857  10.516 -0.7151  0.0881 -0.8362
  645MOL0     H85110  -1.796   5.646  10.614  1.1418 -1.2806  0.9449
  645MOL0     H85111  -1.805   5.587  10.437  2.3303  1.8783 -0.7613
  645MOL0     H85112  -1.961   5.821  10.565  0.5148  0.4155 -1.0741
  645MOL0     H85113  -1.948   5.781  10.390  2.2277 -0.2077  0.0200
  645MOL0     H85114  -2.021   5.585  10.606 -1.8920  2.0910  1.5853
  645MOL0     H85115  -2.040   5.561  10.427  0.6634  0.7996  0.5712
  645MOL0     H85116  -2.195   5.754  10.614  0.3107  0.2177  0.4384
  645MOL0     H85117  -2.247   5.592  10.571 -1.9461  0.2664 -2.9191
  645MOL0     H85118  -2.195   5.829  10.375 -0.1845 -0.0767 -3.7472
  645MOL0     H85119  -2.223   5.681  10.322 -0.7972  0.7089 -0.9059
  645MOL0     H85120  -2.440   5.782  10.514 -1.8901 -0.6180 -0.2844
  645MOL0     H85121  -2.446   5.669  10.386 -3.3901  2.2625 -3.2619
  645MOL0     H85122  -1.316   5.529  10.328  0.9101  1.1611  0.3891
  645MOL0     H85123  -1.145   5.386  10.419  3.1219 -2.7336  5.2226
  645MOL0     H85124  -0.815   5.115  10.605 -2.2503  0.1323 -0.0765
  645MOL0     H85125  -0.679   5.014  10.754  1.1223  1.1753  0.9990
  645MOL0     H85126   0.630   3.564  10.766  2.9175  0.1302  2.0400
  645MOL0     H85127   0.835   3.483  10.703 -0.1161  0.0248  1.4295
  645MOL0     H85128   1.183   3.498  10.174 -1.0561  2.0952  0.1225
  645MOL0     H85129   1.464   3.492  10.155  0.3757  1.7610  0.5746
  645MOL0     H85130   1.685   3.610  10.524  2.3097  0.7933  1.0205
  645MOL0     H85131   1.809   3.566  10.418  0.7980  0.4355  1.3606
  645MOL0     H85132   1.615   3.384  10.554  0.5756 -0.3225  1.4396
  645MOL0     H85133   1.734   3.327  10.438  0.4590 -0.0772  0.2871
  645MOL0     H85134   1.797   3.305  10.690  2.2058 -0.5992  0.0837
  645MOL0     H85135   1.802   3.476  10.688 -0.2478  1.3583 -2.8244
  645MOL0     H85136   1.980   3.445  10.488  3.6284  1.7601  1.6649
  645MOL0     H85137   2.016   3.423  10.654 -4.2752 -0.7926  3.4783
  645MOL0     H85138   2.083   3.042  10.496  1.3344 -0.8317  3.4871
  645MOL0     H85139   1.469   3.550  10.562 -1.6042  0.3330  0.5020
  645MOL0     H85140   1.229   3.573  10.580 -3.4196 -1.5287 -0.7125
  646MOL0     O85141   5.550   3.478   0.008 -0.0771 -0.5414  0.8133
  646MOL0     C85142   5.639   3.515  -0.065  0.1003 -0.0507 -1.2902
  646MOL0     O85143   5.652   3.468  -0.193 -0.7534 -0.6755  0.5370
  646MOL0     C85144   5.555   3.385  -0.238  0.2867  0.1292  0.5244
  646MOL0     C85145   5.419   3.422  -0.261 -0.0979  0.2956 -0.3469
  646MOL0     C85146   5.320   3.333  -0.301  0.0537  0.4726 -1.0595
  646MOL0     C85147   5.351   3.191  -0.301  0.7969 -0.2867 -1.0007
  646MOL0     O85148   5.254   3.099  -0.338  0.1604 -0.1562  0.0723
  646MOL0     C85149   5.294   3.039  -0.468  0.3327  0.8300 -0.3139
  646MOL0     C85150   5.196   3.095  -0.566  0.8406 -0.1767  0.4939
  646MOL0     C85151   5.039   3.093  -0.542  0.0826  0.3251 -0.7471
  646MOL0     C85152   4.980   3.145  -0.674 -0.3235  0.3947 -0.2801
  646MOL0     C85153   4.832   3.145  -0.656  0.9043 -0.2689 -0.0062
  646MOL0     C85154   4.745   3.203  -0.772 -0.0650 -0.3185  0.1467
  646MOL0     C85155   4.603   3.130  -0.765 -0.4915  1.1490  0.2762
  646MOL0     C85156   4.512   3.186  -0.650  0.0126 -0.5447 -0.9281
  646MOL0     N85157   4.376   3.133  -0.655 -0.5401 -0.1927 -0.4223
  646MOL0     C85158   4.258   3.209  -0.661 -0.8587 -0.0100  0.5600
  646MOL0     C85159   4.161   3.121  -0.652  0.2883  0.3961  0.4580
  646MOL0     C85160   4.008   3.154  -0.629  0.1117 -0.5798 -0.6403
  646MOL0     C85161   3.919   3.168  -0.753 -0.1006 -0.7151 -0.2862
  646MOL0     C85162   3.960   3.270  -0.860  0.1078 -0.1390  0.0232
  646MOL0     C85163   3.840   3.340  -0.924 -0.5050  0.1530  0.2617
  646MOL0     O85164   3.777   3.405  -0.814  0.3574 -0.0393 -0.0153
  646MOL0     C85165   3.649   3.466  -0.835 -0.8129  0.1279 -0.1806
  646MOL0     C85166   3.586   3.528  -0.734 -1.3204 -0.1229  0.5720
  646MOL0     C85167   3.462   3.591  -0.742 -0.2777 -0.4907 -0.0922
  646MOL0     C85168   3.395   3.581  -0.868  0.7416  0.2584  0.2124
  646MOL0     C85169   3.282   3.663  -0.892  0.3944  0.2337  0.3474
  646MOL0     O85170   3.229   3.671  -1.026  0.2218  0.4236 -0.1382
  646MOL0     C85171   3.111   3.732  -1.055  0.0970 -0.4493  0.1623
  646MOL0     C85172   3.005   3.713  -0.960 -0.2351 -0.8231  0.4708
  646MOL0     C85173   2.884   3.770  -0.983 -0.2806 -0.4732 -1.0084
  646MOL0     C85174   2.856   3.850  -1.096  0.8708  0.5795 -0.0579
  646MOL0     O85175   2.727   3.911  -1.129  0.2685 -0.4193 -0.3334
  646MOL0     C85176   2.631   3.899  -1.032  0.3546 -0.2784  0.6643
  646MOL0     C85177   2.496   3.965  -1.073 -0.5989 -0.0281 -0.0863
  646MOL0     C85178   2.508   4.117  -1.095  0.3307 -0.3068 -0.4438
  646MOL0     C85179   2.380   4.182  -1.152  0.3625  1.2930 -0.2308
  646MOL0     C85180   2.377   4.334  -1.138  0.1147  0.2589 -0.6105
  646MOL0     C85181   2.261   4.393  -1.212  0.0659  0.3107  0.9793
  646MOL0     C85182   2.122   4.359  -1.163  0.0353  0.7782 -0.0999
  646MOL0     C85183   2.048   4.260  -1.256  0.1165  0.6189  0.5408
  646MOL0    Cl85184   1.955   4.337  -1.391 -0.1717  0.7384  0.0003
  646MOL0     C85185   2.959   3.863  -1.196  1.1205  0.4256  0.3100
  646MOL0     C85186   3.080   3.794  -1.175 -0.1212 -0.8361  0.6177
  646MOL0     O85187   3.237   3.725  -0.794 -0.1148 -0.6155  0.3376
  646MOL0     C85188   3.456   3.523  -0.973 -0.1017 -0.2354 -0.7136
  646MOL0     C85189   3.585   3.470  -0.960 -0.4159  0.0348 -1.1437
  646MOL0     N85190   4.220   2.994  -0.642 -0.4363 -0.2938  0.0954
  646MOL0     N85191   4.345   3.005  -0.638 -0.0297  0.2820 -0.1664
  646MOL0     C85192   5.480   3.154  -0.272 -0.5029  0.8454  0.7382
  646MOL0     C85193   5.586   3.249  -0.244  0.5045 -0.3860 -0.1283
  646MOL0     C85194   5.758   3.592  -0.010 -0.7562 -1.2484 -0.0914
  646MOL0     C85195   5.742   3.642   0.116 -0.4492 -0.0635  0.3063
  646MOL0     C85196   5.857   3.706   0.181  0.4778 -0.1932 -0.1908
  646MOL0     C85197   5.982   3.712   0.113 -0.4705  0.0655 -0.1855
  646MOL0     O85198   6.092   3.784   0.159  0.1425 -0.3692  0.3526
  646MOL0     C85199   6.189   3.703   0.219  0.7697 -0.2792  0.0635
  646MOL0     C85200   6.315   3.789   0.238 -0.9221 -0.5986 -0.3717
  646MOL0     C85201   6.363   3.846   0.104  0.6005  0.1394 -0.0961
  646MOL0     C85202   6.448   3.971   0.134  0.5809  0.4529  0.1024
  646MOL0     C85203   6.565   3.939   0.217  0.0107 -0.0904 -0.1985
  646MOL0     C85204   6.670   3.918   0.278  0.1419  0.5529  0.6234
  646MOL0     C85205   5.988   3.657  -0.014 -0.8596  0.7070 -0.5219
  646MOL0     C85206   5.886   3.590  -0.071 -0.9406 -0.1949 -0.5106
  646MOL0     H85207   5.405   3.528  -0.247 -0.6838 -0.1183  3.3508
  646MOL0     H85208   5.222   3.363  -0.338 -0.5810 -0.4947 -0.1997
  646MOL0     H85209   5.290   2.930  -0.458 -0.8357  0.9202  0.2799
  646MOL0     H85210   5.402   3.051  -0.484  1.7955 -1.2915  5.5772
  646MOL0     H85211   5.206   3.035  -0.656 -0.8421  1.1628 -0.6368
  646MOL0     H85212   5.226   3.198  -0.588 -2.9947  0.7491 -1.2746
  646MOL0     H85213   5.016   3.156  -0.455 -0.1068  0.6751 -1.0507
  646MOL0     H85214   5.005   2.989  -0.529  2.5769 -0.5264 -0.5805
  646MOL0     H85215   5.017   3.242  -0.708 -0.1861  0.0092 -1.2452
  646MOL0     H85216   5.009   3.069  -0.747 -1.4627 -0.0394 -0.3039
  646MOL0     H85217   4.808   3.200  -0.564  0.3537 -1.4215  0.5691
  646MOL0     H85218   4.796   3.044  -0.634 -3.5980  1.4377  1.5270
  646MOL0     H85219   4.780   3.168  -0.869 -0.5043 -2.4586  0.6981
  646MOL0     H85220   4.738   3.312  -0.780  0.7263 -0.4266 -3.5696
  646MOL0     H85221   4.552   3.147  -0.860  1.5772  2.0734 -0.7250
  646MOL0     H85222   4.618   3.022  -0.752  1.9523  1.6097  1.9727
  646MOL0     H85223   4.513   3.295  -0.663 -2.7650 -0.2114  0.8677
  646MOL0     H85224   4.556   3.159  -0.554  1.1716  3.3191 -0.1599
  646MOL0     H85225   4.243   3.316  -0.651 -0.0218  0.1695 -0.0014
  646MOL0     H85226   4.001   3.248  -0.574 -1.4545 -0.8971 -0.2433
  646MOL0     H85227   3.978   3.076  -0.558 -2.7125  2.5275  1.8919
  646MOL0     H85228   3.820   3.196  -0.715 -0.4389  1.5063 -2.5814
  646MOL0     H85229   3.902   3.072  -0.804  1.0372  0.1081 -2.3328
  646MOL0     H85230   4.020   3.348  -0.811  0.9214 -1.2852  0.9354
  646MOL0     H85231   4.029   3.203  -0.912  1.5754 -0.9466  2.7576
  646MOL0     H85232   3.768   3.270  -0.968  0.0582  0.9321 -2.0458
  646MOL0     H85233   3.871   3.411  -1.001 -1.8858  0.6678  0.1595
  646MOL0     H85234   3.637   3.529  -0.638  5.2520 -0.6088 -2.3509
  646MOL0     H85235   3.430   3.644  -0.653  1.0666 -1.3549  0.9192
  646MOL0     H85236   3.023   3.649  -0.873  2.5305 -0.6631  0.1173
  646MOL0     H85237   2.814   3.745  -0.904  1.2879 -0.8878  0.2899
  646MOL0     H85238   2.656   3.941  -0.934 -1.2693  1.4893  0.3682
  646MOL0     H85239   2.609   3.792  -1.021  1.6967 -0.5240  1.2910
  646MOL0     H85240   2.424   3.942  -0.994  0.2328  0.3698  0.8049
  646MOL0     H85241   2.444   3.913  -1.154 -2.4011 -1.3461  1.8100
  646MOL0     H85242   2.601   4.127  -1.152 -1.0473  2.1769 -2.4358
  646MOL0     H85243   2.525   4.170  -1.001 -0.7953 -0.2632 -0.2531
  646MOL0     H85244   2.371   4.160  -1.259  2.8461  0.7671 -0.3805
  646MOL0     H85245   2.294   4.142  -1.097  0.8082 -1.8921 -1.6340
  646MOL0     H85246   2.472   4.369  -1.181  0.4950 -1.0226 -0.8424
  646MOL0     H85247   2.381   4.363  -1.032  0.7553 -0.6604 -0.3668
  646MOL0     H85248   2.265   4.375  -1.320  0.3731 -1.4921  1.2466
  646MOL0     H85249   2.270   4.501  -1.199  2.2636  0.4538 -0.9789
  646MOL0     H85250   2.141   4.312  -1.066 -3.0618 -0.5840 -0.0225
  646MOL0     H85251   2.067   4.454  -1.159 -0.1457  0.6678  0.0458
  646MOL0     H85252   1.975   4.202  -1.199  1.3312 -0.2961  1.2127
  646MOL0     H85253   2.127   4.194  -1.294  1.9891  1.8595  2.1109
  646MOL0     H85254   2.937   3.916  -1.288  0.6483  0.7865  0.6217
  646MOL0     H85255   3.158   3.806  -1.250 -1.5674 -0.7019 -0.9194
  646MOL0     H85256   3.414   3.535  -1.073  3.5066 -2.9308 -2.7760
  646MOL0     H85257   3.636   3.443  -1.051  0.8714  0.6592 -0.6217
  646MOL0     H85258   5.515   3.052  -0.287  0.5891  1.5437 -2.3002
  646MOL0     H85259   5.685   3.216  -0.213  0.7515  1.8040  1.7421
  646MOL0     H85260   5.652   3.618   0.171 -0.4002  0.0105  0.4185
  646MOL0     H85261   5.844   3.767   0.270 -1.6618  1.6078 -1.6038
  646MOL0     H85262   6.212   3.618   0.154 -0.7130 -0.0475 -0.8342
  646MOL0     H85263   6.155   3.674   0.319 -1.2828  2.0527  0.1338
  646MOL0     H85264   6.286   3.868   0.308 -1.6510 -1.0547 -0.1420
  646MOL0     H85265   6.392   3.733   0.290  0.0996  2.3047  1.4812
  646MOL0     H85266   6.278   3.868   0.039  0.6264 -4.4482 -2.0920
  646MOL0     H85267   6.412   3.770   0.043 -0.0744 -1.4164  1.1955
  646MOL0     H85268   6.476   4.001   0.033 -0.9196  1.3754 -0.0625
  646MOL0     H85269   6.382   4.043   0.182  0.6386 -1.1134  2.7306
  646MOL0     H85270   6.763   3.923   0.329  0.4296 -1.5246  0.3943
  646MOL0     H85271   6.086   3.658  -0.062  0.4286 -0.2655  1.8787
  646MOL0     H85272   5.914   3.556  -0.170  0.4125 -0.0653 -0.1933
  647MOL0     O85273   8.063   1.014   4.412 -0.6708  0.0636 -1.0306
  647MOL0     C85274   8.065   1.123   4.357 -0.1972 -0.0540 -0.7741
  647MOL0     O85275   7.972   1.224   4.374 -0.2437  0.0704 -0.6237
  647MOL0     C85276   7.877   1.203   4.475 -0.7424  0.2929 -0.3504
  647MOL0     C85277   7.909   1.215   4.604 -0.0998 -0.1923  0.1553
  647MOL0     C85278   7.809   1.229   4.691 -0.5641 -0.1056 -0.0787
  647MOL0     C85279   7.671   1.209   4.651 -0.6772 -1.1563  0.2820
  647MOL0     O85280   7.565   1.217   4.739 -0.9781 -0.3797  0.5634
  647MOL0     C85281   7.585   1.184   4.877  0.8567  0.1490 -0.2764
  647MOL0     C85282   7.457   1.170   4.958 -0.9868  0.2856 -0.1559
  647MOL0     C85283   7.373   1.289   4.988 -0.1207 -0.4096 -0.5145
  647MOL0     C85284   7.447   1.404   5.063 -0.3190 -0.6352 -0.6109
  647MOL0     C85285   7.351   1.530   5.079 -0.5500  0.2833 -0.2579
  647MOL0     C85286   7.414   1.642   5.179  0.0318 -0.2299  0.6896
  647MOL0     C85287   7.414   1.596   5.312  0.2209  0.1856  0.6294
  647MOL0     C85288   7.280   1.631   5.377 -0.0834  0.3176  0.5744
  647MOL0     N85289   7.290   1.623   5.527  0.2033 -0.2419 -0.0553
  647MOL0     C85290   7.308   1.501   5.591  0.5070 -0.1708  0.3900
  647MOL0     C85291   7.317   1.529   5.728 -0.7858 -1.3792  0.3199
  647MOL0     C85292   7.321   1.443   5.848 -0.5042  0.1633 -0.8259
  647MOL0     C85293   7.186   1.384   5.887 -0.3419  1.1137  0.0299
  647MOL0     C85294   7.193   1.336   6.035 -0.8106 -0.3949 -0.8448
  647MOL0     C85295   7.058   1.369   6.103 -0.9205  0.0782  0.5598
  647MOL0     O85296   6.952   1.320   6.024  0.4087 -0.1047 -0.6876
  647MOL0     C85297   6.828   1.357   6.063  0.5881  0.2255  1.0122
  647MOL0     C85298   6.721   1.275   6.034  0.2707  0.8044  0.2831
  647MOL0     C85299   6.595   1.301   6.067  0.2952  0.0750 -0.4005
  647MOL0     C85300   6.567   1.416   6.138  0.7920 -0.4668 -0.1661
  647MOL0     C85301   6.425   1.447   6.182 -1.2784  0.2062  0.0697
  647MOL0     O85302   6.341   1.364   6.125  0.1254 -0.0608  0.7720
  647MOL0     C85303   6.207   1.369   6.159 -0.5754  0.5058  0.6766
  647MOL0     C85304   6.126   1.292   6.069 -0.1286  0.0333  0.0384
  647MOL0     C85305   5.987   1.295   6.069 -0.4087  0.3185 -0.0121
  647MOL0     C85306   5.922   1.366   6.178 -0.4871 -0.4133 -0.0722
  647MOL0     O85307   5.782   1.379   6.183 -0.5649 -0.6002 -0.5113
  647MOL0     C85308   5.703   1.331   6.076 -0.5628  0.0139  0.9094
  647MOL0     C85309   5.561   1.348   6.113  0.5887 -0.3048  0.3486
  647MOL0     C85310   5.444   1.319   6.012 -0.1167  0.5985 -0.2707
  647MOL0     C85311   5.446   1.416   5.895  0.1078  0.5363 -0.3404
  647MOL0     C85312   5.334   1.376   5.796  0.5684 -0.2795 -0.0317
  647MOL0     C85313   5.309   1.471   5.675 -0.2780  0.8947 -0.7655
  647MOL0     C85314   5.434   1.488   5.576 -0.6674  1.1626  0.1431
  647MOL0     C85315   5.383   1.561   5.448  0.1126 -0.6561 -0.1106
  647MOL0    Cl85316   5.292   1.465   5.337 -0.1938  0.1912 -0.1334
  647MOL0     C85317   6.000   1.424   6.271  0.5691 -0.0069 -0.0588
  647MOL0     C85318   6.138   1.429   6.263 -0.0455 -0.2012 -0.0838
  647MOL0     O85319   6.405   1.543   6.255  0.4080  0.5032 -0.7940
  647MOL0     C85320   6.663   1.514   6.140  0.0705 -0.2422 -0.6450
  647MOL0     C85321   6.796   1.479   6.110 -0.0440  0.2799 -0.6594
  647MOL0     N85322   7.307   1.662   5.749  0.6583 -0.6687  0.6147
  647MOL0     N85323   7.306   1.724   5.627 -1.3797 -0.5209  0.0186
  647MOL0     C85324   7.648   1.186   4.508 -0.1927 -0.2587 -0.3163
  647MOL0     C85325   7.752   1.179   4.423  0.5302 -0.3848  0.0878
  647MOL0     C85326   8.174   1.132   4.262 -1.0841  0.1265  0.3307
  647MOL0     C85327   8.212   1.252   4.208  0.0075  0.7018 -0.2386
  647MOL0     C85328   8.321   1.256   4.127  0.4399  0.1521 -0.4645
  647MOL0     C85329   8.394   1.142   4.093 -0.3369 -0.1549 -0.5750
  647MOL0     O85330   8.477   1.153   3.983  0.5555  0.7020  0.1685
  647MOL0     C85331   8.617   1.125   3.992  1.1671 -0.1210  0.0217
  647MOL0     C85332   8.704   1.247   4.008 -0.6208  0.2090 -1.1027
  647MOL0     C85333   8.706   1.306   4.151 -0.6189 -1.2230 -1.0566
  647MOL0     C85334   8.828   1.409   4.168  0.5974  0.2482  0.3383
  647MOL0     C85335   8.958   1.347   4.183 -0.0185  0.8242 -0.0071
  647MOL0     C85336   9.073   1.300   4.186  0.7281 -0.5929  1.0799
  647MOL0     C85337   8.356   1.018   4.143  0.9239  0.1049 -0.6479
  647MOL0     C85338   8.244   1.015   4.230  0.7013 -0.3581  0.3721
  647MOL0     H85339   8.006   1.241   4.645  0.5678  0.5924 -1.7988
  647MOL0     H85340   7.845   1.255   4.790 -0.1930 -0.2266 -0.1829
  647MOL0     H85341   7.653   1.257   4.922 -0.4026  0.7754  0.6507
  647MOL0     H85342   7.643   1.091   4.883 -0.8554 -0.8751  1.8275
  647MOL0     H85343   7.495   1.113   5.042 -0.1181 -0.8342 -1.2666
  647MOL0     H85344   7.400   1.091   4.908  0.5817 -1.3971  0.6034
  647MOL0     H85345   7.286   1.252   5.042  1.9512 -0.4171  3.1333
  647MOL0     H85346   7.337   1.325   4.891  1.5600 -1.3590 -1.5560
  647MOL0     H85347   7.486   1.368   5.159 -3.4280 -2.6998  0.0160
  647MOL0     H85348   7.536   1.437   5.008  0.2031 -0.9150  0.0435
  647MOL0     H85349   7.265   1.485   5.129 -0.4457 -0.6205 -0.8682
  647MOL0     H85350   7.326   1.582   4.986 -1.9703 -0.5154 -0.3444
  647MOL0     H85351   7.367   1.739   5.163  0.8979  0.0225 -0.4406
  647MOL0     H85352   7.520   1.642   5.153 -0.2890 -0.4033 -0.6963
  647MOL0     H85353   7.417   1.486   5.310 -1.3260  0.1215 -1.2188
  647MOL0     H85354   7.494   1.640   5.371 -1.2664  0.7032  2.3615
  647MOL0     H85355   7.205   1.565   5.332 -0.6795  1.4994 -0.2481
  647MOL0     H85356   7.250   1.734   5.352 -0.1362 -0.0540 -0.9851
  647MOL0     H85357   7.314   1.404   5.541  0.2696 -0.7790  1.5051
  647MOL0     H85358   7.362   1.502   5.930 -2.7149  1.0147 -0.2638
  647MOL0     H85359   7.392   1.362   5.826 -1.8405 -0.5488 -2.8590
  647MOL0     H85360   7.172   1.291   5.831  0.8351  0.3759  0.9186
  647MOL0     H85361   7.093   1.438   5.866 -1.4094 -0.4032  0.6568
  647MOL0     H85362   7.210   1.228   6.035  0.4851 -0.2266  0.5240
  647MOL0     H85363   7.277   1.373   6.096 -2.4480 -0.0921  1.3478
  647MOL0     H85364   7.047   1.478   6.100 -3.8471 -0.1133 -3.9711
  647MOL0     H85365   7.060   1.326   6.204  0.4709 -1.7786 -0.2128
  647MOL0     H85366   6.738   1.181   5.981 -1.2829 -0.9230  2.6470
  647MOL0     H85367   6.523   1.223   6.042  0.7285 -0.5801  0.3703
  647MOL0     H85368   6.174   1.221   6.002 -2.1434 -0.2549 -1.2134
  647MOL0     H85369   5.928   1.229   6.007  0.1042  0.2147 -0.3984
  647MOL0     H85370   5.717   1.223   6.060 -3.7275 -0.2991 -0.3772
  647MOL0     H85371   5.728   1.387   5.986 -1.1895  0.7057  1.1591
  647MOL0     H85372   5.545   1.452   6.142  2.1776 -0.1015  0.5999
  647MOL0     H85373   5.540   1.293   6.205 -1.3826 -0.8512 -0.3741
  647MOL0     H85374   5.355   1.342   6.071  1.0233  0.4074  1.6164
  647MOL0     H85375   5.432   1.213   5.989 -1.0917  0.4590  0.7755
  647MOL0     H85376   5.456   1.520   5.927 -0.0324 -0.0226  1.6678
  647MOL0     H85377   5.538   1.388   5.843 -0.9471 -1.0102 -1.4296
  647MOL0     H85378   5.239   1.369   5.849  0.0441 -0.8923 -1.0468
  647MOL0     H85379   5.354   1.275   5.759  2.1174  0.2779 -0.8240
  647MOL0     H85380   5.281   1.571   5.711 -1.4778 -0.0762  1.1443
  647MOL0     H85381   5.222   1.425   5.628 -0.9022  0.6454  0.5766
  647MOL0     H85382   5.512   1.543   5.630 -1.5207 -0.1702  2.9493
  647MOL0     H85383   5.477   1.392   5.547 -0.8545  0.7602  1.1604
  647MOL0     H85384   5.471   1.607   5.402 -0.8647  1.9914  0.4898
  647MOL0     H85385   5.322   1.650   5.463  0.8202 -0.1213 -0.3480
  647MOL0     H85386   5.961   1.477   6.358  3.9469 -0.3554  1.8636
  647MOL0     H85387   6.186   1.487   6.341 -1.5985  0.4543  0.4291
  647MOL0     H85388   6.649   1.611   6.187  0.1499 -0.8375  0.6463
  647MOL0     H85389   6.872   1.555   6.125  0.7861 -0.3621 -1.5011
  647MOL0     H85390   7.545   1.165   4.481 -0.0509  0.4679 -1.5128
  647MOL0     H85391   7.751   1.166   4.315  0.7386  0.0619  0.0291
  647MOL0     H85392   8.158   1.344   4.228 -0.5663  0.7299 -1.8000
  647MOL0     H85393   8.342   1.352   4.080 -1.2563  2.7673  3.5431
  647MOL0     H85394   8.643   1.069   3.902 -0.6836 -0.9922 -0.0257
  647MOL0     H85395   8.631   1.058   4.077  1.3826 -0.4067 -0.2383
  647MOL0     H85396   8.809   1.226   3.989 -0.2598 -0.3280  1.2156
  647MOL0     H85397   8.687   1.328   3.936  1.3207  1.7447  0.0525
  647MOL0     H85398   8.707   1.230   4.229  0.9793  0.7352  0.9817
  647MOL0     H85399   8.616   1.364   4.168 -0.0507 -1.0002  1.5495
  647MOL0     H85400   8.837   1.470   4.077  0.5535  0.4892  0.4959
  647MOL0     H85401   8.828   1.473   4.256  3.0247  2.1370 -0.9214
  647MOL0     H85402   9.166   1.247   4.187 -0.0764 -2.0433  1.4763
  647MOL0     H85403   8.400   0.927   4.105 -1.3052 -1.4614  0.3057
  647MOL0     H85404   8.215   0.918   4.270  1.0670  0.2197  2.1136
  648MOL0     O85405   4.456   1.612   5.633 -0.7496  0.5107  0.2199
  648MOL0     C85406   4.470   1.557   5.528  0.4597 -0.5479  1.3658
  648MOL0     O85407   4.403   1.450   5.483  0.2133 -0.7178 -0.3003
  648MOL0     C85408   4.303   1.392   5.555  0.4260  0.0102 -0.5141
  648MOL0     C85409   4.212   1.462   5.634 -0.1714  0.8773 -0.1707
  648MOL0     C85410   4.121   1.393   5.713 -0.0460  0.1193 -0.5571
  648MOL0     C85411   4.125   1.250   5.706  0.6794  0.0173  1.3697
  648MOL0     O85412   4.059   1.161   5.788 -0.1981 -0.1449  0.1331
  648MOL0     C85413   3.985   1.042   5.747 -0.0077  0.5090  0.3869
  648MOL0     C85414   3.839   1.045   5.800 -0.4565 -0.4036  1.0304
  648MOL0     C85415   3.815   1.024   5.952 -0.6470  0.5496  0.1131
  648MOL0     C85416   3.668   1.001   5.982 -0.4377  0.0178  0.3071
  648MOL0     C85417   3.650   0.949   6.128 -0.2509 -0.3633  0.7834
  648MOL0     C85418   3.511   0.892   6.172 -0.6342 -0.1077 -0.2706
  648MOL0     C85419   3.468   0.790   6.068 -0.4708 -0.1433 -1.0685
  648MOL0     C85420   3.326   0.743   6.105  0.7519  0.5738 -0.6332
  648MOL0     N85421   3.249   0.703   5.987  0.4064  0.5090  0.0660
  648MOL0     C85422   3.190   0.785   5.898 -0.5227 -0.4750  0.0147
  648MOL0     C85423   3.127   0.710   5.806 -0.1145  0.1648  1.1738
  648MOL0     C85424   3.057   0.759   5.679  0.2102  0.5182 -0.1905
  648MOL0     C85425   2.922   0.689   5.653 -0.3608  0.0846 -0.1658
  648MOL0     C85426   2.872   0.719   5.506 -0.1007 -0.1317  0.4638
  648MOL0     C85427   2.735   0.650   5.483  0.3979 -0.5715  0.3122
  648MOL0     O85428   2.674   0.690   5.348  0.3867 -0.6222 -0.8158
  648MOL0     C85429   2.537   0.708   5.338 -0.2301  0.2763  1.1675
  648MOL0     C85430   2.444   0.621   5.402 -0.2380 -0.1608 -0.0711
  648MOL0     C85431   2.313   0.607   5.348 -0.2473  0.5690 -0.3974
  648MOL0     C85432   2.272   0.694   5.249 -0.3522 -0.4993 -0.6874
  648MOL0     C85433   2.135   0.698   5.189  0.4096  0.2971  1.0576
  648MOL0     O85434   2.065   0.584   5.221 -1.0577  0.9512  0.1530
  648MOL0     C85435   1.942   0.573   5.164 -0.6608  1.1520  0.3542
  648MOL0     C85436   1.828   0.576   5.247 -0.9745  0.3501  0.2796
  648MOL0     C85437   1.701   0.557   5.198  0.7484  0.2358  0.0475
  648MOL0     C85438   1.681   0.531   5.061  0.1642  0.2281 -0.8335
  648MOL0     O85439   1.554   0.498   5.015 -0.1283  0.2808 -0.3433
  648MOL0     C85440   1.521   0.366   5.001  0.6525  0.1411  0.0030
  648MOL0     C85441   1.399   0.354   5.095 -0.0084 -0.1949  1.2216
  648MOL0     C85442   1.270   0.426   5.046  1.8296 -1.1029  0.5903
  648MOL0     C85443   1.143   0.389   5.118 -0.4290 -0.0082 -0.5169
  648MOL0     C85444   1.013   0.448   5.043  0.3246  0.5943 -0.8186
  648MOL0     C85445   0.891   0.403   5.118  0.1725 -0.0907  0.2411
  648MOL0     C85446   0.762   0.450   5.040  0.2199  0.8868 -0.0598
  648MOL0     C85447   0.748   0.595   5.009  0.5258 -0.2562  1.2612
  648MOL0    Cl85448   0.585   0.651   4.967 -0.0897 -0.3559 -0.0266
  648MOL0     C85449   1.787   0.525   4.977 -0.2190 -0.8551 -0.1484
  648MOL0     C85450   1.921   0.543   5.024  0.0857 -0.3534 -0.0778
  648MOL0     O85451   2.094   0.791   5.119  0.3895 -0.2971 -0.4681
  648MOL0     C85452   2.366   0.777   5.192 -0.0458  0.4450 -0.5082
  648MOL0     C85453   2.496   0.780   5.228 -0.2546  0.4823  0.3162
  648MOL0     N85454   3.150   0.579   5.846 -0.2214  0.0881  0.6269
  648MOL0     N85455   3.224   0.572   5.945  0.0927  0.1324  0.0034
  648MOL0     C85456   4.215   1.184   5.617  1.1201 -0.3826  0.1066
  648MOL0     C85457   4.312   1.259   5.552 -0.0477  0.7213  0.6515
  648MOL0     C85458   4.558   1.629   5.425 -0.1514  0.0938 -0.0484
  648MOL0     C85459   4.587   1.577   5.299  0.7063  0.0037  0.5687
  648MOL0     C85460   4.663   1.643   5.202  0.4645  0.2025  0.5371
  648MOL0     C85461   4.714   1.779   5.236  0.4554 -0.2130  0.9707
  648MOL0     O85462   4.789   1.861   5.155  0.3396  0.2498  0.9576
  648MOL0     C85463   4.779   1.826   5.019  0.2343 -0.0761  0.8126
  648MOL0     C85464   4.786   1.957   4.935 -0.5869 -0.2025 -0.5379
  648MOL0     C85465   4.697   1.943   4.806  0.7411  0.5378 -0.1670
  648MOL0     C85466   4.787   1.918   4.690  0.0321 -0.8540  0.3332
  648MOL0     C85467   4.717   1.936   4.562 -0.6670 -0.0647 -0.1757
  648MOL0     C85468   4.676   1.962   4.454  0.7482 -1.1861 -0.3834
  648MOL0     C85469   4.694   1.829   5.364 -2.0006 -0.5639  1.0546
  648MOL0     C85470   4.608   1.762   5.450  0.3081 -0.5339 -0.1183
  648MOL0     H85471   4.212   1.570   5.626 -4.4509  0.9333 -2.0619
  648MOL0     H85472   4.049   1.446   5.775 -1.4964  1.0761 -2.9091
  648MOL0     H85473   4.037   0.949   5.769 -0.0316  0.7040  1.3494
  648MOL0     H85474   3.970   1.047   5.639 -0.0689  3.7820  0.4196
  648MOL0     H85475   3.783   0.972   5.741 -1.0897 -0.3655  1.5736
  648MOL0     H85476   3.792   1.139   5.772  0.8209 -0.6545 -2.4174
  648MOL0     H85477   3.856   1.114   5.999  0.2803  0.1416  0.1114
  648MOL0     H85478   3.883   0.944   5.984  0.4587  1.9249  1.3811
  648MOL0     H85479   3.609   1.090   5.959 -0.9221 -0.4159 -0.1611
  648MOL0     H85480   3.634   0.922   5.915 -4.4376  2.0108 -0.3712
  648MOL0     H85481   3.687   1.027   6.194 -0.9878 -0.7795  1.7304
  648MOL0     H85482   3.718   0.864   6.125 -1.3761 -1.2798 -0.1684
  648MOL0     H85483   3.433   0.968   6.177  0.4042  1.0765 -1.4209
  648MOL0     H85484   3.531   0.842   6.268  1.1039 -0.7578 -0.9282
  648MOL0     H85485   3.460   0.832   5.967 -4.7013 -2.2721 -1.8920
  648MOL0     H85486   3.536   0.705   6.058 -0.0626  0.2107 -1.3405
  648MOL0     H85487   3.268   0.821   6.153 -1.5295  0.9659 -3.7678
  648MOL0     H85488   3.333   0.660   6.177  0.8544  2.2775  1.4000
  648MOL0     H85489   3.193   0.894   5.894 -0.9034 -0.2790  2.8104
  648MOL0     H85490   3.121   0.735   5.593  0.6276  0.4053  0.1502
  648MOL0     H85491   3.049   0.868   5.685 -1.3210  0.4420 -0.5108
  648MOL0     H85492   2.856   0.720   5.735 -1.4644 -3.7799  0.6154
  648MOL0     H85493   2.936   0.582   5.664  0.4785  0.2547  0.4640
  648MOL0     H85494   2.857   0.827   5.496 -0.7237 -0.4390 -3.8518
  648MOL0     H85495   2.948   0.690   5.433  0.5228  0.8437  0.7049
  648MOL0     H85496   2.657   0.656   5.559 -0.8295 -1.7617 -0.8072
  648MOL0     H85497   2.753   0.543   5.472 -1.6789 -0.6653 -4.6257
  648MOL0     H85498   2.470   0.551   5.481  0.0130 -0.0145 -0.0212
  648MOL0     H85499   2.244   0.534   5.390 -1.0335  1.3996 -0.2042
  648MOL0     H85500   1.850   0.574   5.353 -0.2566 -1.2341  0.1324
  648MOL0     H85501   1.617   0.551   5.266  0.1553 -2.3756 -0.8208
  648MOL0     H85502   1.602   0.302   5.037  1.7876  1.8659  0.6509
  648MOL0     H85503   1.496   0.338   4.898 -0.7816 -0.9859  0.6200
  648MOL0     H85504   1.423   0.386   5.196  1.6528  2.2554  0.1441
  648MOL0     H85505   1.380   0.247   5.081  2.7631 -0.5747 -0.2715
  648MOL0     H85506   1.258   0.409   4.939 -2.5398 -2.2619  1.0669
  648MOL0     H85507   1.278   0.536   5.048 -1.9959 -0.6920  2.2182
  648MOL0     H85508   1.144   0.281   5.131  1.4664 -0.1820 -1.7560
  648MOL0     H85509   1.159   0.439   5.215 -0.0406  1.7944 -1.4696
  648MOL0     H85510   1.010   0.392   4.949 -2.4746 -0.8309 -0.0090
  648MOL0     H85511   1.030   0.556   5.039  2.6232  0.3021 -0.1679
  648MOL0     H85512   0.870   0.455   5.212 -3.2261  2.8014 -1.8596
  648MOL0     H85513   0.894   0.294   5.127  1.9089 -0.1682 -0.9663
  648MOL0     H85514   0.762   0.396   4.944  0.8143  0.6652  0.0593
  648MOL0     H85515   0.673   0.425   5.098 -0.9340 -0.1367 -2.1515
  648MOL0     H85516   0.819   0.590   4.925  0.7342  0.3360  1.4017
  648MOL0     H85517   0.779   0.660   5.091  2.5973 -2.6459  2.5063
  648MOL0     H85518   1.773   0.483   4.879 -2.2450 -1.5455  0.3955
  648MOL0     H85519   2.008   0.540   4.959  1.5821 -0.6094  1.8316
  648MOL0     H85520   2.332   0.834   5.107 -1.9474  0.2165  0.0612
  648MOL0     H85521   2.570   0.842   5.179 -1.6236  1.0094 -1.1566
  648MOL0     H85522   4.217   1.075   5.621 -2.3190 -0.7005 -2.5553
  648MOL0     H85523   4.388   1.212   5.490 -0.3869  0.9904  0.0178
  648MOL0     H85524   4.552   1.477   5.278 -0.1212  0.3857  0.0622
  648MOL0     H85525   4.679   1.592   5.107 -0.1448  2.7440 -1.0353
  648MOL0     H85526   4.693   1.766   4.990  0.6948 -0.6465  0.6103
  648MOL0     H85527   4.859   1.759   4.985  0.2200  0.8340 -1.1446
  648MOL0     H85528   4.754   2.045   4.991 -1.0908 -2.2391  2.6211
  648MOL0     H85529   4.894   1.963   4.916 -0.2922  0.4387  1.1314
  648MOL0     H85530   4.633   2.030   4.793 -1.5233 -0.9928  0.1209
  648MOL0     H85531   4.619   1.867   4.812 -0.5641  1.9096  1.2337
  648MOL0     H85532   4.877   1.980   4.695  2.3953 -3.9132 -0.9825
  648MOL0     H85533   4.845   1.824   4.693 -2.5123 -2.5364 -0.1354
  648MOL0     H85534   4.644   1.981   4.353  0.0798  2.7334  0.4042
  648MOL0     H85535   4.739   1.923   5.393 -2.1331 -0.5737  1.2927
  648MOL0     H85536   4.576   1.818   5.537  0.8511  0.3258 -0.4649
  649MOL0     O85537   3.668   0.966   3.780  0.1877  0.2000  0.1683
  649MOL0     C85538   3.605   1.050   3.841 -0.7847 -1.0072 -0.0126
  649MOL0     O85539   3.480   1.083   3.822 -0.1967 -0.2705  0.5094
  649MOL0     C85540   3.391   1.000   3.752  0.1226  0.5198  0.2743
  649MOL0     C85541   3.264   0.975   3.805  0.1823 -0.4536 -0.7689
  649MOL0     C85542   3.173   0.896   3.735  0.7771  0.8893 -0.4720
  649MOL0     C85543   3.198   0.839   3.604  0.2640  0.2061 -0.6400
  649MOL0     O85544   3.114   0.754   3.542  0.5391 -0.3575 -0.6173
  649MOL0     C85545   3.058   0.799   3.413 -0.4687  0.3367  0.6065
  649MOL0     C85546   2.917   0.732   3.388 -0.5741  0.2587 -0.1756
  649MOL0     C85547   2.928   0.593   3.313 -0.1925 -0.3161  0.9880
  649MOL0     C85548   2.789   0.530   3.298  0.5004 -0.9019 -0.9717
  649MOL0     C85549   2.781   0.400   3.228  0.6691  0.2095 -0.4909
  649MOL0     C85550   2.831   0.390   3.083 -0.3517 -0.9237  0.7452
  649MOL0     C85551   2.789   0.269   3.008 -0.9844 -0.0975 -0.7798
  649MOL0     C85552   2.787   0.303   2.853  0.1663  0.3352  0.1997
  649MOL0     N85553   2.784   0.184   2.772 -0.4781  0.1848  0.6654
  649MOL0     C85554   2.882   0.095   2.739  0.9491 -0.1268 -0.0486
  649MOL0     C85555   2.819   0.002   2.661 -0.4457 -0.7849 -0.4112
  649MOL0     C85556   2.884  -0.117   2.597 -0.1059  0.1662 -0.4125
  649MOL0     C85557   2.907  -0.099   2.441 -0.1395 -0.3619  1.1082
  649MOL0     C85558   2.956  -0.222   2.355 -0.9905 -0.7019 -0.7417
  649MOL0     C85559   3.076  -0.300   2.401 -0.5680  0.2743  0.1753
  649MOL0     O85560   3.184  -0.205   2.373 -0.6206 -0.1089 -0.0587
  649MOL0     C85561   3.314  -0.246   2.403  0.1622 -0.1898  0.0677
  649MOL0     C85562   3.417  -0.165   2.366 -0.4137  0.1846  0.4143
  649MOL0     C85563   3.547  -0.200   2.400 -0.1158 -0.3926 -0.1244
  649MOL0     C85564   3.578  -0.308   2.478  0.2123 -0.0370  0.1482
  649MOL0     C85565   3.713  -0.356   2.517  0.7998  0.3762  0.3278
  649MOL0     O85566   3.816  -0.286   2.460 -0.6645  0.7827 -0.5745
  649MOL0     C85567   3.935  -0.300   2.532 -1.0853  0.5656  0.1180
  649MOL0     C85568   4.006  -0.423   2.526  0.5322 -0.1966 -0.6330
  649MOL0     C85569   4.129  -0.444   2.587 -0.5205  0.0285 -0.3227
  649MOL0     C85570   4.199  -0.336   2.630 -0.1119  0.2564  1.2595
  649MOL0     O85571   4.332  -0.363   2.656 -0.6020  0.0955 -0.1619
  649MOL0     C85572   4.367  -0.399   2.792 -0.4181 -0.2384  0.6281
  649MOL0     C85573   4.511  -0.360   2.822  0.0378  0.6968 -0.6773
  649MOL0     C85574   4.522  -0.205   2.823 -0.5956 -0.1532 -0.3548
  649MOL0     C85575   4.669  -0.170   2.826  0.7172  0.3928 -0.0126
  649MOL0     C85576   4.736  -0.197   2.964  0.4105  0.5234 -0.6841
  649MOL0     C85577   4.885  -0.177   2.964 -0.9868  0.1257 -0.4402
  649MOL0     C85578   4.938  -0.167   3.112  0.1921  0.4404 -0.1448
  649MOL0     C85579   5.097  -0.172   3.106 -0.6283 -0.6915 -0.6739
  649MOL0    Cl85580   5.188  -0.209   3.262  0.1730 -0.1935 -0.1417
  649MOL0     C85581   4.143  -0.204   2.641  0.6461  0.7694 -0.0263
  649MOL0     C85582   4.001  -0.195   2.596  0.1244  0.2225  0.1791
  649MOL0     O85583   3.720  -0.448   2.600 -0.6511  0.8695 -0.8530
  649MOL0     C85584   3.471  -0.393   2.516  0.0633  0.0418  0.4047
  649MOL0     C85585   3.342  -0.358   2.486  0.1771  0.6597  0.0932
  649MOL0     N85586   2.686   0.039   2.641  0.2148 -0.4066 -0.2692
  649MOL0     N85587   2.670   0.157   2.704  1.1416 -0.4106 -0.6825
  649MOL0     C85588   3.329   0.865   3.550  0.0584 -0.1368  0.3153
  649MOL0     C85589   3.417   0.951   3.624  0.0345  0.3508 -0.4882
  649MOL0     C85590   3.661   1.107   3.963 -0.4452 -0.2790  0.1171
  649MOL0     C85591   3.794   1.083   3.995 -0.3633  0.4414  0.0279
  649MOL0     C85592   3.861   1.162   4.095  0.0431  0.1892  0.1907
  649MOL0     C85593   3.782   1.245   4.175  0.3569  0.2306  0.2317
  649MOL0     O85594   3.834   1.339   4.267  0.1015 -0.1362 -0.1671
  649MOL0     C85595   3.977   1.334   4.304  0.2776 -0.1588 -0.2390
  649MOL0     C85596   4.069   1.444   4.235  1.1770 -0.1646 -0.6938
  649MOL0     C85597   4.063   1.428   4.075  1.0864 -0.4428 -0.7421
  649MOL0     C85598   4.135   1.526   3.984 -0.6382 -0.1853  0.6092
  649MOL0     C85599   4.280   1.505   3.992  0.1514 -0.7216  0.5608
  649MOL0     C85600   4.402   1.491   3.990  0.7762  0.6951  0.0788
  649MOL0     C85601   3.638   1.253   4.150 -0.7645  0.8438 -1.0606
  649MOL0     C85602   3.578   1.183   4.051  0.5216  0.7422  0.4431
  649MOL0     H85603   3.230   1.013   3.901  0.1433  2.1357 -1.7136
  649MOL0     H85604   3.079   0.866   3.782  0.4062  0.1592 -1.6273
  649MOL0     H85605   3.128   0.766   3.335 -0.2826  1.1816  0.4029
  649MOL0     H85606   3.050   0.906   3.392  0.0169 -0.1044 -2.1926
  649MOL0     H85607   2.860   0.806   3.331  0.9113  2.4922  1.0659
  649MOL0     H85608   2.854   0.723   3.477 -2.6790  0.2893 -1.5850
  649MOL0     H85609   2.990   0.527   3.375  1.2539  0.7631  0.7551
  649MOL0     H85610   2.979   0.614   3.218  0.7456  0.1373  1.5714
  649MOL0     H85611   2.757   0.525   3.402 -2.3708  2.9116 -1.4490
  649MOL0     H85612   2.723   0.611   3.266 -0.9695  0.2713  4.1972
  649MOL0     H85613   2.680   0.360   3.238  0.9428 -0.6205 -0.9375
  649MOL0     H85614   2.830   0.320   3.285 -2.3106 -0.6658  1.0345
  649MOL0     H85615   2.940   0.401   3.085 -0.3695  0.8957 -2.1933
  649MOL0     H85616   2.784   0.469   3.024  1.2811 -0.8877 -0.5799
  649MOL0     H85617   2.860   0.195   3.045  0.9082  2.4021  0.9713
  649MOL0     H85618   2.689   0.240   3.044  0.2009 -2.7478  0.6798
  649MOL0     H85619   2.880   0.358   2.833  1.1580 -1.4518 -0.3170
  649MOL0     H85620   2.700   0.365   2.829  0.9329  1.0326 -0.9347
  649MOL0     H85621   2.985   0.100   2.772  0.2437  0.6219  2.2264
  649MOL0     H85622   2.829  -0.209   2.620 -0.6922  0.7155  0.4367
  649MOL0     H85623   2.980  -0.139   2.645  1.2346  1.0194 -2.5774
  649MOL0     H85624   2.981  -0.022   2.418  2.8347 -3.2609  0.1567
  649MOL0     H85625   2.808  -0.078   2.399  0.7243  1.1826 -0.2588
  649MOL0     H85626   2.878  -0.299   2.348 -0.2295 -1.3966 -1.8117
  649MOL0     H85627   2.967  -0.174   2.258 -1.1908  3.6342  1.1463
  649MOL0     H85628   3.076  -0.388   2.335  3.9848  0.7236 -0.7155
  649MOL0     H85629   3.074  -0.342   2.502  2.3565  1.1335  0.6707
  649MOL0     H85630   3.392  -0.077   2.308 -0.3705  1.3214  2.0394
  649MOL0     H85631   3.623  -0.133   2.359 -1.9110  0.0611 -2.9980
  649MOL0     H85632   3.960  -0.500   2.465 -1.1135  1.0923 -1.0893
  649MOL0     H85633   4.169  -0.544   2.569 -0.0430  0.2857 -0.7258
  649MOL0     H85634   4.359  -0.508   2.795  2.1438 -0.4579  2.5339
  649MOL0     H85635   4.293  -0.351   2.857 -0.5747  0.9816 -0.3928
  649MOL0     H85636   4.571  -0.408   2.745 -0.0571  1.5226 -1.2822
  649MOL0     H85637   4.547  -0.392   2.921  0.0647  1.8719 -0.2794
  649MOL0     H85638   4.480  -0.159   2.914  0.0760 -3.8285  2.0220
  649MOL0     H85639   4.486  -0.165   2.728 -0.5700 -0.6073 -0.5598
  649MOL0     H85640   4.722  -0.212   2.741  2.3513  3.1466 -0.4858
  649MOL0     H85641   4.666  -0.061   2.812 -1.6265  0.6421  1.8450
  649MOL0     H85642   4.721  -0.303   2.985 -1.0789  1.1026  1.5412
  649MOL0     H85643   4.689  -0.141   3.046 -1.7545 -0.7564 -0.9673
  649MOL0     H85644   4.915  -0.086   2.911  2.9933 -2.1883 -2.6720
  649MOL0     H85645   4.942  -0.255   2.914  0.7580  1.1921 -0.2262
  649MOL0     H85646   4.910  -0.078   3.168 -0.3706 -0.2101  0.6253
  649MOL0     H85647   4.890  -0.249   3.167 -1.5784  0.7358 -1.1894
  649MOL0     H85648   5.138  -0.076   3.070  4.4275 -1.2032  2.6397
  649MOL0     H85649   5.131  -0.235   3.024  1.1548 -2.3981  1.2513
  649MOL0     H85650   4.197  -0.119   2.680  0.9190  0.0059  1.3481
  649MOL0     H85651   3.932  -0.111   2.598 -1.5377 -0.9026 -2.7963
  649MOL0     H85652   3.488  -0.480   2.578  0.4848 -1.3176 -1.5325
  649MOL0     H85653   3.269  -0.423   2.532 -1.1753  2.2837  0.3278
  649MOL0     H85654   3.355   0.818   3.456  1.4297  1.0138  0.0960
  649MOL0     H85655   3.511   0.964   3.573 -0.0222 -1.0909 -1.0220
  649MOL0     H85656   3.853   1.013   3.937 -1.2332 -0.6388  0.4088
  649MOL0     H85657   3.967   1.140   4.106 -0.0225 -0.4248 -0.3675
  649MOL0     H85658   4.010   1.233   4.278  2.0007  0.0793  0.8357
  649MOL0     H85659   3.984   1.347   4.412  2.4211  0.8883 -0.4360
  649MOL0     H85660   4.027   1.541   4.261  0.2750  0.0031 -2.6663
  649MOL0     H85661   4.173   1.447   4.269  0.4238  1.6755  1.7949
  649MOL0     H85662   3.956   1.430   4.051  0.8298 -0.8724  0.2871
  649MOL0     H85663   4.096   1.327   4.050  0.0675 -0.2700 -2.9882
  649MOL0     H85664   4.106   1.496   3.882  0.0126 -0.2369  0.4358
  649MOL0     H85665   4.112   1.630   4.005 -1.1387  0.1947 -1.5153
  649MOL0     H85666   4.508   1.479   3.987  0.6443 -0.6100 -2.6990
  649MOL0     H85667   3.584   1.329   4.205  3.1468  2.2740  1.2628
  649MOL0     H85668   3.473   1.194   4.028 -0.9302 -4.6513  3.0174
  650MOL0     O85669  11.022   5.958   2.632  0.3925 -0.2927 -0.4864
  650MOL0     C85670  11.121   5.936   2.699  0.5807 -0.2782 -0.6481
  650MOL0     O85671  11.119   5.923   2.833 -0.5921  0.4758 -0.4926
  650MOL0     C85672  11.002   5.897   2.903  1.3274  0.1344  0.3088
  650MOL0     C85673  10.961   5.980   3.008 -0.2457  0.0398 -0.1436
  650MOL0     C85674  10.845   5.955   3.080  0.2957 -0.3115 -0.6639
  650MOL0     C85675  10.767   5.837   3.048  0.6453 -0.7325  0.2195
  650MOL0     O85676  10.663   5.816   3.126  0.4313 -0.2972  0.3286
  650MOL0     C85677  10.547   5.744   3.097 -0.0231  0.5155 -0.2061
  650MOL0     C85678  10.583   5.597   3.140 -0.4096  0.9179 -0.6237
  650MOL0     C85679  10.458   5.524   3.171  0.1452  0.1691  0.4392
  650MOL0     C85680  10.384   5.477   3.047 -0.2918 -0.1584 -0.1098
  650MOL0     C85681  10.247   5.416   3.087 -0.4226 -0.2437 -0.5788
  650MOL0     C85682  10.167   5.379   2.962 -0.2926  0.0938 -0.4356
  650MOL0     C85683  10.015   5.356   3.002  0.1979  0.0026 -1.6704
  650MOL0     C85684   9.934   5.329   2.878  0.6101  0.3335  0.2804
  650MOL0     N85685   9.791   5.344   2.910 -0.4285 -0.2996 -0.1293
  650MOL0     C85686   9.698   5.247   2.945 -0.4323 -1.1251  0.3462
  650MOL0     C85687   9.584   5.318   2.943 -0.5227 -0.7316 -0.5643
  650MOL0     C85688   9.447   5.274   2.973 -0.2286 -0.1052  0.1355
  650MOL0     C85689   9.340   5.335   2.876  0.3491 -0.2342  0.2348
  650MOL0     C85690   9.195   5.280   2.899 -0.1482  1.2368  0.3374
  650MOL0     C85691   9.111   5.310   2.765 -0.0804 -0.6880  1.3426
  650MOL0     O85692   8.978   5.293   2.798  0.1557  0.2369 -0.7983
  650MOL0     C85693   8.870   5.238   2.719 -0.2925  0.2939 -0.2142
  650MOL0     C85694   8.889   5.139   2.619 -0.4905  0.0999  0.1440
  650MOL0     C85695   8.775   5.074   2.552  0.7477 -1.0535  0.1938
  650MOL0     C85696   8.641   5.123   2.579 -0.4834  0.2206 -0.4795
  650MOL0     C85697   8.518   5.077   2.511  0.9931  0.8315  0.3566
  650MOL0     O85698   8.402   5.146   2.526 -0.0857 -0.4845  0.0111
  650MOL0     C85699   8.297   5.115   2.439 -0.1528 -1.1619  0.4738
  650MOL0     C85700   8.233   5.212   2.370 -0.4562  0.6018 -0.3645
  650MOL0     C85701   8.100   5.188   2.313  0.6286 -0.0103  0.0481
  650MOL0     C85702   8.051   5.066   2.288  1.0094 -0.4095 -0.0713
  650MOL0     O85703   7.927   5.059   2.223  0.1827 -0.6113  0.5315
  650MOL0     C85704   7.907   4.935   2.158  0.4930  0.2087 -0.6796
  650MOL0     C85705   7.781   4.971   2.074 -0.3145  0.1113  0.2961
  650MOL0     C85706   7.742   4.867   1.961 -0.2146  0.1443  0.0106
  650MOL0     C85707   7.702   4.726   2.007  0.8231  0.5040  0.4184
  650MOL0     C85708   7.674   4.627   1.886 -0.7563 -0.1987 -0.3368
  650MOL0     C85709   7.553   4.668   1.796 -0.1987  0.2616  0.0753
  650MOL0     C85710   7.514   4.564   1.684  0.9167 -0.1382  0.2496
  650MOL0     C85711   7.440   4.647   1.567  1.2984 -0.5284  0.2458
  650MOL0    Cl85712   7.283   4.690   1.635 -0.2320 -0.2647 -0.1569
  650MOL0     C85713   8.126   4.952   2.339 -0.9523 -0.0416  0.4339
  650MOL0     C85714   8.240   4.984   2.425 -0.7203 -0.0044  0.4682
  650MOL0     O85715   8.539   4.985   2.431 -0.3967 -0.6768  0.2210
  650MOL0     C85716   8.639   5.223   2.675  0.4710  0.0078  0.1438
  650MOL0     C85717   8.740   5.272   2.746 -0.0571  0.0123  0.2985
  650MOL0     N85718   9.609   5.448   2.914  0.5814  0.5955  0.4543
  650MOL0     N85719   9.731   5.465   2.920 -0.4860  0.3041 -0.4108
  650MOL0     C85720  10.810   5.749   2.942 -0.3271  0.2170  0.4146
  650MOL0     C85721  10.929   5.781   2.874  1.0746  0.4724  0.6641
  650MOL0     C85722  11.257   5.943   2.626  0.0656  0.0089  0.0996
  650MOL0     C85723  11.261   5.928   2.484 -0.4131 -0.3323 -0.5644
  650MOL0     C85724  11.379   5.954   2.419 -0.1865 -0.1036 -0.0296
  650MOL0     C85725  11.496   5.993   2.488  0.1262  0.3143 -0.1415
  650MOL0     O85726  11.593   6.025   2.400  0.3372 -0.6500 -0.5209
  650MOL0     C85727  11.726   6.052   2.447  0.2785 -0.1594 -1.4523
  650MOL0     C85728  11.819   6.045   2.323  0.4028 -0.3437 -1.5511
  650MOL0     C85729  11.801   5.905   2.258 -0.1849 -0.1309  0.5124
  650MOL0     C85730  11.901   5.901   2.137  0.3954 -0.3195  0.5612
  650MOL0     C85731  12.040   5.901   2.179  0.2192 -0.9236 -0.1403
  650MOL0     C85732  12.153   5.911   2.222  0.4135 -0.4934  0.6085
  650MOL0     C85733  11.494   6.001   2.626 -1.0286  0.6813 -1.4783
  650MOL0     C85734  11.375   5.964   2.695 -1.1707  0.7284  0.5172
  650MOL0     H85735  11.031   6.060   3.029  2.4990 -2.7293  2.3510
  650MOL0     H85736  10.824   6.023   3.161 -1.5040  0.8135 -1.9898
  650MOL0     H85737  10.512   5.763   2.995 -0.0311  4.1389  0.3497
  650MOL0     H85738  10.471   5.784   3.164 -0.4654  1.2780 -1.1297
  650MOL0     H85739  10.653   5.605   3.224 -0.3525 -1.5412 -0.3718
  650MOL0     H85740  10.623   5.537   3.058 -2.1509 -2.2790  0.6440
  650MOL0     H85741  10.388   5.581   3.233 -0.7307  1.3829 -1.5707
  650MOL0     H85742  10.480   5.433   3.227 -2.8293  0.5155  2.4044
  650MOL0     H85743  10.368   5.565   2.984  1.2568  1.4233  1.5662
  650MOL0     H85744  10.427   5.388   3.001 -0.1213 -0.2173  0.1590
  650MOL0     H85745  10.197   5.494   3.145 -0.2845  2.1160 -3.3905
  650MOL0     H85746  10.271   5.322   3.136  1.3803  0.4068 -0.1329
  650MOL0     H85747  10.201   5.290   2.908 -0.9438 -0.2984 -0.2132
  650MOL0     H85748  10.168   5.463   2.891 -0.0059  2.1256  1.8511
  650MOL0     H85749   9.999   5.265   3.060  2.4410  1.3069  1.2494
  650MOL0     H85750   9.973   5.437   3.061 -0.6260 -2.9868  2.2503
  650MOL0     H85751   9.951   5.227   2.841  1.7762  1.0535 -1.2961
  650MOL0     H85752   9.967   5.400   2.802  0.6943 -0.6761 -0.6591
  650MOL0     H85753   9.707   5.139   2.950  3.0576 -0.9637 -0.2401
  650MOL0     H85754   9.424   5.309   3.074  0.6863  0.3847  0.1905
  650MOL0     H85755   9.447   5.165   2.967 -1.8524 -0.1556  0.4876
  650MOL0     H85756   9.367   5.310   2.773  1.0256 -1.5892  0.7138
  650MOL0     H85757   9.337   5.443   2.888 -2.8639  0.0008 -1.4752
  650MOL0     H85758   9.192   5.175   2.929  0.2554  1.3651  0.8431
  650MOL0     H85759   9.147   5.337   2.979 -0.6930  1.1559  0.0677
  650MOL0     H85760   9.149   5.248   2.683  0.2424 -1.2150  1.8780
  650MOL0     H85761   9.112   5.417   2.742 -0.8310 -0.9981 -0.2704
  650MOL0     H85762   8.990   5.118   2.586 -0.1226  3.1642 -0.9640
  650MOL0     H85763   8.783   4.992   2.480  2.3457 -0.7424 -0.0152
  650MOL0     H85764   8.277   5.311   2.372  2.8296 -0.7447 -0.3902
  650MOL0     H85765   8.054   5.273   2.264  4.8078  0.5470 -3.6244
  650MOL0     H85766   7.892   4.850   2.225 -1.2021 -0.6483 -2.0761
  650MOL0     H85767   7.995   4.916   2.095  0.5904 -3.4141  0.2940
  650MOL0     H85768   7.799   5.059   2.012 -2.9010  1.6203  1.5202
  650MOL0     H85769   7.693   4.985   2.139  2.0570  2.9075  3.2404
  650MOL0     H85770   7.829   4.845   1.898 -2.1822  3.0469 -4.0603
  650MOL0     H85771   7.673   4.914   1.891  2.5948  3.5025 -0.7608
  650MOL0     H85772   7.762   4.676   2.084  1.2062  3.1977  1.9929
  650MOL0     H85773   7.611   4.750   2.063  0.4944 -0.0010  0.1181
  650MOL0     H85774   7.646   4.537   1.940 -0.4317  0.5236  1.0687
  650MOL0     H85775   7.763   4.599   1.829 -0.2679 -1.6408  1.0877
  650MOL0     H85776   7.576   4.767   1.755  0.9135 -0.0905 -0.2098
  650MOL0     H85777   7.476   4.675   1.872 -0.3326 -0.5877  0.0370
  650MOL0     H85778   7.601   4.510   1.646  2.8713  2.0418  1.3549
  650MOL0     H85779   7.452   4.487   1.731  2.2886 -0.3810  1.7831
  650MOL0     H85780   7.414   4.590   1.477  1.7399 -1.1160  0.4861
  650MOL0     H85781   7.513   4.718   1.526  1.4256  0.9012  2.7196
  650MOL0     H85782   8.098   4.849   2.318  0.2311  0.3985 -4.2988
  650MOL0     H85783   8.302   4.908   2.473  0.1469  1.4777  1.7882
  650MOL0     H85784   8.540   5.260   2.700 -1.5210 -3.6779 -1.4317
  650MOL0     H85785   8.730   5.343   2.827  0.0016 -1.6167  1.7853
  650MOL0     H85786  10.752   5.662   2.915  0.7749 -0.7732  1.1667
  650MOL0     H85787  10.964   5.718   2.793  0.1813  1.0670 -0.2117
  650MOL0     H85788  11.173   5.904   2.425 -2.3121  0.9319  1.5801
  650MOL0     H85789  11.363   5.952   2.311 -0.9442 -1.7634  0.0832
  650MOL0     H85790  11.752   5.988   2.532 -2.5967  0.3175 -0.1107
  650MOL0     H85791  11.739   6.158   2.469  0.5621 -0.0049 -2.3313
  650MOL0     H85792  11.780   6.119   2.253 -4.3678 -0.5561  0.5332
  650MOL0     H85793  11.919   6.072   2.360 -0.9350  0.5466  1.8802
  650MOL0     H85794  11.696   5.905   2.227 -0.3594  0.5915  1.0784
  650MOL0     H85795  11.825   5.830   2.334 -0.6874  1.2908  2.1223
  650MOL0     H85796  11.875   5.813   2.078 -2.3019 -0.8818  2.4147
  650MOL0     H85797  11.876   5.987   2.074 -1.3950 -0.2111  1.3567
  650MOL0     H85798  12.244   5.915   2.278  0.5079  0.1004  0.4197
  650MOL0     H85799  11.576   6.020   2.693 -0.7480 -2.3686 -0.7918
  650MOL0     H85800  11.365   5.975   2.803 -2.7295  0.9012  0.3674
  651MOL0     O85801   5.028  10.287   0.739  0.2537  0.7725 -0.3831
  651MOL0     C85802   5.105  10.365   0.678  0.2429  0.5025  0.0604
  651MOL0     O85803   5.078  10.460   0.582  0.1986 -0.2397 -0.7691
  651MOL0     C85804   4.943  10.457   0.557 -0.6176 -0.2546 -1.0327
  651MOL0     C85805   4.851  10.504   0.656  0.7621 -0.0954  0.4990
  651MOL0     C85806   4.711  10.509   0.634 -0.3255  0.5356  0.1535
  651MOL0     C85807   4.669  10.447   0.509 -0.6202  0.8133 -0.7036
  651MOL0     O85808   4.538  10.427   0.471  0.6663  0.8457  0.3016
  651MOL0     C85809   4.441  10.452   0.572  0.5107  0.2425  0.2894
  651MOL0     C85810   4.394  10.592   0.554  0.5145 -0.5391  1.0602
  651MOL0     C85811   4.290  10.609   0.667 -0.6051  0.3389  0.0585
  651MOL0     C85812   4.144  10.585   0.599  0.6810 -0.2056 -0.4546
  651MOL0     C85813   4.035  10.603   0.708 -0.7267 -0.3961  0.0632
  651MOL0     C85814   3.895  10.573   0.642  0.0500  0.9101 -0.5197
  651MOL0     C85815   3.788  10.641   0.738  0.2686  0.6929 -0.3850
  651MOL0     C85816   3.653  10.585   0.704 -0.0577  1.1995 -0.3345
  651MOL0     N85817   3.548  10.638   0.779  0.8225 -0.3238  0.6324
  651MOL0     C85818   3.493  10.586   0.896 -0.7865  0.2929 -0.2347
  651MOL0     C85819   3.373  10.646   0.900 -0.1789  0.1836 -0.4986
  651MOL0     C85820   3.284  10.640   1.014  0.6065  0.0599 -0.7188
  651MOL0     C85821   3.180  10.538   0.991 -0.1496  0.5581  0.2304
  651MOL0     C85822   3.072  10.541   1.096 -0.4622 -0.7253  0.5634
  651MOL0     C85823   2.948  10.462   1.062 -0.9815  0.1338 -0.1367
  651MOL0     O85824   2.867  10.466   1.184 -1.0785 -0.3970 -0.1939
  651MOL0     C85825   2.730  10.426   1.164 -1.4687 -0.2688  0.2152
  651MOL0     C85826   2.644  10.446   1.272 -0.9803  0.1427  0.0676
  651MOL0     C85827   2.507  10.428   1.255  0.9667  0.3485 -0.3100
  651MOL0     C85828   2.446  10.400   1.139  0.1624  0.0474 -0.4675
  651MOL0     C85829   2.293  10.385   1.130  0.2474 -0.5764 -0.0061
  651MOL0     O85830   2.240  10.424   1.006 -0.2540  0.7631 -0.2787
  651MOL0     C85831   2.099  10.439   0.994  0.1235  0.6280  0.1300
  651MOL0     C85832   2.050  10.390   0.871 -0.5813 -0.4123  0.4231
  651MOL0     C85833   1.917  10.409   0.838 -0.3915  0.0123 -0.0682
  651MOL0     C85834   1.838  10.492   0.922  0.1719  0.2935 -0.5198
  651MOL0     O85835   1.711  10.538   0.897  0.1347  0.2161 -0.0240
  651MOL0     C85836   1.677  10.573   0.771  0.6502 -0.0826  0.2651
  651MOL0     C85837   1.537  10.610   0.748 -0.1746  0.1104  0.2880
  651MOL0     C85838   1.452  10.489   0.781 -0.1130  0.1911  0.2917
  651MOL0     C85839   1.311  10.537   0.761  0.3059 -0.5875 -0.4754
  651MOL0     C85840   1.209  10.429   0.821  0.3687 -0.2490  0.0591
  651MOL0     C85841   1.244  10.380   0.959 -0.1321  0.6308  1.2255
  651MOL0     C85842   1.142  10.277   1.011  0.5302 -0.2398 -0.3664
  651MOL0     C85843   1.176  10.225   1.153 -0.8582 -0.3630  0.0659
  651MOL0    Cl85844   1.138  10.360   1.266 -0.7726  0.2338 -0.0744
  651MOL0     C85845   1.896  10.538   1.052  0.1999 -0.5800 -0.2126
  651MOL0     C85846   2.030  10.517   1.077  0.1193  0.1332 -0.0923
  651MOL0     O85847   2.225  10.342   1.218 -0.6202  0.2300  0.5830
  651MOL0     C85848   2.528  10.389   1.032 -1.2236  0.0327  0.2076
  651MOL0     C85849   2.671  10.402   1.037 -0.8234  0.2899  0.2370
  651MOL0     N85850   3.354  10.728   0.788 -0.2472 -0.5813 -0.3767
  651MOL0     N85851   3.466  10.729   0.724  0.0638  0.2135 -0.7878
  651MOL0     C85852   4.757  10.395   0.416  0.1113 -0.0458  0.0596
  651MOL0     C85853   4.892  10.397   0.441 -1.0770  0.4803  1.0566
  651MOL0     C85854   5.248  10.346   0.723  1.1295  0.3755  0.4946
  651MOL0     C85855   5.348  10.404   0.644 -0.7033  0.1442  0.3865
  651MOL0     C85856   5.476  10.387   0.693  0.0446 -0.2998 -0.1433
  651MOL0     C85857   5.502  10.325   0.812  0.2697  0.7845 -0.1555
  651MOL0     O85858   5.633  10.315   0.866  0.2580 -0.3774  0.4358
  651MOL0     C85859   5.759  10.368   0.802  0.4658  0.1020  1.0476
  651MOL0     C85860   5.753  10.524   0.807  0.9015  0.1520 -0.7674
  651MOL0     C85861   5.871  10.575   0.896 -0.1922  0.3587  0.7387
  651MOL0     C85862   5.840  10.546   1.049  0.4344  0.5746  0.3205
  651MOL0     C85863   5.911  10.626   1.149 -0.4923 -0.2488 -0.5642
  651MOL0     C85864   5.988  10.689   1.216  0.1286 -0.7744 -0.2208
  651MOL0     C85865   5.402  10.257   0.884 -0.7486 -0.5153 -0.7549
  651MOL0     C85866   5.281  10.278   0.837  0.3662  0.4172 -0.7848
  651MOL0     H85867   4.888  10.554   0.745  0.2742 -1.6727  1.6265
  651MOL0     H85868   4.644  10.548   0.710  1.0361  0.2883  1.5104
  651MOL0     H85869   4.478  10.434   0.673  2.3540  1.3822 -0.1266
  651MOL0     H85870   4.362  10.377   0.558 -1.8849  2.8103 -1.0844
  651MOL0     H85871   4.354  10.608   0.453  1.2698  0.3922  0.8918
  651MOL0     H85872   4.473  10.666   0.574  1.1297 -0.9847  0.3094
  651MOL0     H85873   4.304  10.709   0.710  0.3802  1.3992 -2.5136
  651MOL0     H85874   4.303  10.537   0.747  2.2117  1.2498  0.5207
  651MOL0     H85875   4.128  10.652   0.515 -0.5723 -1.2612 -1.0897
  651MOL0     H85876   4.130  10.484   0.560 -0.4060 -1.8587  3.6483
  651MOL0     H85877   4.028  10.702   0.753 -1.3530 -1.6076  2.8872
  651MOL0     H85878   4.050  10.533   0.791 -0.5192  0.4978  0.8007
  651MOL0     H85879   3.885  10.464   0.633  1.0285  0.4326  2.7106
  651MOL0     H85880   3.872  10.618   0.545 -0.2876  1.4647 -0.1872
  651MOL0     H85881   3.817  10.618   0.841 -1.5868  1.1243  0.2778
  651MOL0     H85882   3.781  10.750   0.737 -0.5362  0.7288  2.0308
  651MOL0     H85883   3.653  10.476   0.715  1.8382  1.2508  0.6189
  651MOL0     H85884   3.631  10.603   0.599 -1.8207 -1.7807 -0.5832
  651MOL0     H85885   3.529  10.515   0.969 -1.3784  0.0399 -0.1914
  651MOL0     H85886   3.243  10.740   1.030  3.1709  0.7765  2.5300
  651MOL0     H85887   3.345  10.605   1.098  2.6129  4.1634 -0.2139
  651MOL0     H85888   3.228  10.441   0.974 -2.1035 -0.6106  0.9594
  651MOL0     H85889   3.122  10.568   0.903 -1.9308 -0.7728  0.8831
  651MOL0     H85890   3.116  10.481   1.175  2.3995  1.3831  0.6958
  651MOL0     H85891   3.057  10.647   1.117  1.9858  0.1842 -1.6663
  651MOL0     H85892   2.980  10.359   1.041 -1.3501 -0.0113  0.0119
  651MOL0     H85893   2.909  10.500   0.967  1.2444  0.9407 -0.7874
  651MOL0     H85894   2.678  10.481   1.369  0.2259 -3.2963  1.0264
  651MOL0     H85895   2.440  10.432   1.340  0.8731  1.0739 -0.4086
  651MOL0     H85896   2.119  10.336   0.807  1.4549 -0.1467  2.2934
  651MOL0     H85897   1.867  10.361   0.755  1.1690  0.6598 -1.4470
  651MOL0     H85898   1.692  10.496   0.695  0.5958 -0.7987  0.9672
  651MOL0     H85899   1.741  10.659   0.747  2.7499 -1.3485  1.0456
  651MOL0     H85900   1.522  10.663   0.653 -1.2451  4.5800  2.6694
  651MOL0     H85901   1.512  10.689   0.819 -2.9807 -2.3460  2.2779
  651MOL0     H85902   1.476  10.462   0.884  1.2126  0.2620  0.0185
  651MOL0     H85903   1.469  10.407   0.710 -0.6589  0.0187  0.3559
  651MOL0     H85904   1.295  10.637   0.801  2.4640 -0.2424 -0.3748
  651MOL0     H85905   1.291  10.558   0.655 -1.2927  2.4324  0.3176
  651MOL0     H85906   1.202  10.345   0.751  1.1283 -1.0169  0.8801
  651MOL0     H85907   1.109  10.475   0.827  0.9877  1.0635  0.8529
  651MOL0     H85908   1.270  10.471   1.015  1.9644  0.0924  1.2306
  651MOL0     H85909   1.334  10.319   0.948 -1.1292 -1.3628  3.3770
  651MOL0     H85910   1.042  10.320   1.010 -0.5943 -2.7234 -0.2661
  651MOL0     H85911   1.152  10.193   0.942  3.7919  0.2017 -0.5880
  651MOL0     H85912   1.283  10.202   1.164 -0.5061  0.8483 -0.5127
  651MOL0     H85913   1.120  10.137   1.185 -0.9830  0.7979  3.5188
  651MOL0     H85914   1.842  10.613   1.110 -0.6988 -1.7943  0.5655
  651MOL0     H85915   2.078  10.579   1.153 -1.8727  1.2398  0.3383
  651MOL0     H85916   2.493  10.365   0.932 -0.7693 -0.3474  0.1356
  651MOL0     H85917   2.733  10.399   0.948  0.6367 -0.0907  1.2409
  651MOL0     H85918   4.714  10.345   0.330  0.5561  1.9146 -1.3755
  651MOL0     H85919   4.953  10.354   0.362 -0.5164 -1.0463  2.2725
  651MOL0     H85920   5.335  10.438   0.542  3.6971 -2.4857 -1.3219
  651MOL0     H85921   5.549  10.451   0.644 -3.3483  3.2347 -1.0541
  651MOL0     H85922   5.777  10.334   0.699  0.6413  0.2567  1.0264
  651MOL0     H85923   5.843  10.328   0.860  0.4532  1.5343  2.1143
  651MOL0     H85924   5.759  10.558   0.703  3.2044 -2.1403 -1.5003
  651MOL0     H85925   5.664  10.559   0.860  1.4572 -1.7675  1.5743
  651MOL0     H85926   5.890  10.682   0.885  1.3441  0.1284  0.8388
  651MOL0     H85927   5.960  10.515   0.875 -2.5637 -2.6799 -1.6230
  651MOL0     H85928   5.734  10.566   1.070  0.9578  1.6944  2.1175
  651MOL0     H85929   5.848  10.437   1.060 -0.3662  0.2887 -1.4813
  651MOL0     H85930   6.058  10.746   1.275 -2.5824  0.5907  1.8829
  651MOL0     H85931   5.423  10.201   0.975  0.3493 -0.6233 -1.0590
  651MOL0     H85932   5.202  10.241   0.902 -0.5471  4.3945  0.6893
  652MOL0     O85933   3.394  10.801   8.183 -0.6932  1.1168  0.1594
  652MOL0     C85934   3.445  10.823   8.294 -0.6265 -1.0828 -0.4662
  652MOL0     O85935   3.415  10.759   8.414 -0.4842 -0.5628  0.1067
  652MOL0     C85936   3.347  10.647   8.406  1.0533  0.1593 -0.3781
  652MOL0     C85937   3.401  10.523   8.457  0.1329 -0.3018 -0.0471
  652MOL0     C85938   3.337  10.402   8.438 -0.5609 -0.1790 -0.1145
  652MOL0     C85939   3.216  10.399   8.384  0.7377 -0.1890 -0.2032
  652MOL0     O85940   3.150  10.283   8.359 -0.3605  0.3335 -0.8744
  652MOL0     C85941   3.091  10.262   8.235  0.5916 -0.3304  0.3311
  652MOL0     C85942   3.019  10.125   8.234 -0.0365 -0.7988 -0.7509
  652MOL0     C85943   2.957  10.076   8.101 -0.6836 -0.2922 -0.9097
  652MOL0     C85944   2.825  10.155   8.075  0.3350  0.7879  0.4121
  652MOL0     C85945   2.750  10.076   7.962 -0.0593 -0.7967 -0.6240
  652MOL0     C85946   2.673   9.946   8.002  0.0854  0.1398 -0.0343
  652MOL0     C85947   2.612   9.949   8.138 -0.4029 -0.1253  0.4606
  652MOL0     C85948   2.545   9.817   8.169 -0.0203 -0.5087  0.1266
  652MOL0     N85949   2.414   9.816   8.095 -0.8275  0.0729 -0.0135
  652MOL0     C85950   2.316   9.910   8.114 -0.0412  0.4225  0.8841
  652MOL0     C85951   2.214   9.872   8.030  0.5181 -0.1930 -0.0845
  652MOL0     C85952   2.075   9.931   8.007 -0.5185  0.7901  0.3136
  652MOL0     C85953   2.080  10.079   8.000  0.5748 -1.0141 -0.9386
  652MOL0     C85954   1.950  10.157   7.980  0.2387  0.2507 -0.7154
  652MOL0     C85955   1.893  10.125   7.832  0.7955 -0.5733  0.7082
  652MOL0     O85956   1.770  10.194   7.792  0.0770  0.0654 -0.3714
  652MOL0     C85957   1.641  10.167   7.835  0.0436  0.4034  0.0513
  652MOL0     C85958   1.537  10.241   7.787 -0.0194  0.8321  0.7050
  652MOL0     C85959   1.410  10.222   7.832  0.2442  1.2540 -0.0393
  652MOL0     C85960   1.379  10.110   7.916 -0.4600 -0.5486  0.8477
  652MOL0     C85961   1.244  10.091   7.952 -0.2849 -0.2511 -0.5677
  652MOL0     O85962   1.147  10.159   7.894  0.3613  0.9262  0.6342
  652MOL0     C85963   1.024  10.170   7.942  0.0813 -0.5634  0.1418
  652MOL0     C85964   0.928  10.069   7.939 -0.0965 -0.4086 -0.3782
  652MOL0     C85965   0.817  10.089   8.029 -0.9682  0.3809  0.1332
  652MOL0     C85966   0.801  10.212   8.093  0.6100 -0.4804 -0.2139
  652MOL0     O85967   0.688  10.226   8.177  0.9282  0.3971 -0.0922
  652MOL0     C85968   0.679  10.336   8.279 -0.1640 -0.0655 -0.7247
  652MOL0     C85969   0.551  10.321   8.365  0.1238 -0.5952  0.2826
  652MOL0     C85970   0.546  10.402   8.498 -1.3691  0.1568  0.8416
  652MOL0     C85971   0.667  10.375   8.587  0.0001  0.5709 -0.1638
  652MOL0     C85972   0.656  10.428   8.726 -0.6214 -0.6021 -0.5240
  652MOL0     C85973   0.758  10.339   8.810  0.3391  0.2654 -0.0489
  652MOL0     C85974   0.906  10.367   8.783 -0.5099  0.5847 -0.5911
  652MOL0     C85975   0.997  10.288   8.872 -0.3564  0.4382  0.4401
  652MOL0    Cl85976   1.150  10.363   8.910  0.6519  0.2626  0.1039
  652MOL0     C85977   0.893  10.315   8.088 -0.3093  0.4990 -1.0064
  652MOL0     C85978   1.005  10.295   8.007  0.3472  0.6334  0.0410
  652MOL0     O85979   1.226  10.036   8.060  0.7513  0.3495 -0.4990
  652MOL0     C85980   1.476  10.023   7.951 -1.1152  0.0758 -1.3014
  652MOL0     C85981   1.609  10.060   7.920  0.4862 -0.0008 -0.4743
  652MOL0     N85982   2.258   9.752   7.975  0.3709  0.4860 -0.3691
  652MOL0     N85983   2.377   9.722   8.014 -0.2556  0.7269 -0.5421
  652MOL0     C85984   3.148  10.518   8.353 -0.5530 -0.1529  0.1861
  652MOL0     C85985   3.208  10.639   8.362  0.3678 -0.6543  0.9388
  652MOL0     C85986   3.536  10.935   8.306  1.1372  0.5172 -0.4965
  652MOL0     C85987   3.626  10.964   8.207 -0.2659  0.9533  0.4554
  652MOL0     C85988   3.714  11.071   8.219 -0.2453 -0.5171  0.2981
  652MOL0     C85989   3.697  11.156   8.318 -0.4534 -0.8056 -0.2441
  652MOL0     O85990   3.766  11.273   8.338 -0.3166  0.4983 -0.2731
  652MOL0     C85991   3.902  11.289   8.276 -0.3574  0.8111  0.6367
  652MOL0     C85992   3.968  11.392   8.368  0.4224 -0.9472 -0.0374
  652MOL0     C85993   4.110  11.402   8.328 -0.2149 -0.1446  0.5882
  652MOL0     C85994   4.191  11.505   8.419  0.5790  0.0529  0.2682
  652MOL0     C85995   4.148  11.651   8.405 -0.3459  0.8539  0.0779
  652MOL0     C85996   4.106  11.768   8.414  0.0510  0.4158 -0.0355
  652MOL0     C85997   3.595  11.143   8.410 -0.1182  0.2333  0.5561
  652MOL0     C85998   3.509  11.030   8.397  0.0378 -0.2436 -0.4161
  652MOL0     H85999   3.504  10.532   8.489  0.0385 -0.6482  0.3515
  652MOL0     H86000   3.382  10.305   8.456 -1.6659 -0.9411 -1.2328
  652MOL0     H86001   3.177  10.263   8.168  2.2500  2.1741  2.3047
  652MOL0     H86002   3.024  10.342   8.203  0.7862 -0.6137 -0.8093
  652MOL0     H86003   2.940  10.106   8.308  1.3944 -3.5718  0.2093
  652MOL0     H86004   3.086  10.045   8.266 -2.0038 -1.5835  1.7686
  652MOL0     H86005   2.924   9.974   8.121 -0.8605  0.0152  0.4701
  652MOL0     H86006   3.036  10.084   8.025 -0.0559  0.3037 -0.2173
  652MOL0     H86007   2.760  10.156   8.162  0.6352  1.4201  0.6408
  652MOL0     H86008   2.842  10.259   8.044  1.8997 -0.0113 -1.6747
  652MOL0     H86009   2.815  10.058   7.876 -2.4525 -0.8808 -2.5221
  652MOL0     H86010   2.677  10.144   7.917 -0.6729 -1.1168 -0.1315
  652MOL0     H86011   2.739   9.859   8.010 -1.1791 -0.8645 -0.0821
  652MOL0     H86012   2.591   9.937   7.930  0.2480  3.4382 -0.8019
  652MOL0     H86013   2.702   9.958   8.200  2.4956 -0.0115 -3.3746
  652MOL0     H86014   2.546  10.034   8.153 -0.8814  0.2034 -2.7059
  652MOL0     H86015   2.530   9.813   8.277  4.0531  0.8118  0.8937
  652MOL0     H86016   2.601   9.729   8.137  1.1005 -0.2169  1.2212
  652MOL0     H86017   2.311   9.987   8.190 -2.1374  1.9307 -0.6632
  652MOL0     H86018   2.020   9.884   8.089  0.5963 -4.3901 -1.5484
  652MOL0     H86019   2.023   9.896   7.917 -2.0579  3.0100  0.2554
  652MOL0     H86020   2.149  10.127   7.930  0.4723  3.6466  1.7258
  652MOL0     H86021   2.116  10.104   8.101 -0.8881 -0.0870 -0.6242
  652MOL0     H86022   1.882  10.131   8.062 -1.4482  0.9158 -1.8487
  652MOL0     H86023   1.970  10.265   7.977 -0.3036  0.5463  2.6291
  652MOL0     H86024   1.876  10.018   7.821  2.2598 -0.6901 -0.9406
  652MOL0     H86025   1.969  10.147   7.757  3.4702  3.7350  4.1471
  652MOL0     H86026   1.557  10.326   7.722 -0.3178 -0.0360 -0.5630
  652MOL0     H86027   1.330  10.280   7.788 -0.1908 -1.5074 -3.2330
  652MOL0     H86028   0.952   9.978   7.885  1.0242  0.5171 -1.5182
  652MOL0     H86029   0.741  10.013   8.041  0.8015 -1.7565 -1.3553
  652MOL0     H86030   0.678  10.438   8.241 -1.0238  0.0962 -0.2872
  652MOL0     H86031   0.767  10.319   8.343 -2.0329  0.0321  2.0337
  652MOL0     H86032   0.533  10.215   8.387 -0.7867 -0.4570  0.2232
  652MOL0     H86033   0.467  10.358   8.305 -1.0420 -0.6933  1.8073
  652MOL0     H86034   0.452  10.377   8.549 -0.6548 -0.1646  2.0228
  652MOL0     H86035   0.533  10.508   8.475 -2.2853 -0.1567 -0.1843
  652MOL0     H86036   0.674  10.266   8.598 -1.2435  0.6817  2.4056
  652MOL0     H86037   0.759  10.406   8.538  0.4688 -0.1253  0.2555
  652MOL0     H86038   0.555  10.410   8.765 -1.2983  0.7684 -1.6059
  652MOL0     H86039   0.697  10.528   8.739  3.2123 -2.3871  4.6919
  652MOL0     H86040   0.737  10.231   8.804 -0.8963  0.4459  0.5884
  652MOL0     H86041   0.739  10.355   8.916 -2.4405 -3.5548  0.2657
  652MOL0     H86042   0.929  10.346   8.678 -0.4445 -2.0198 -0.1239
  652MOL0     H86043   0.928  10.472   8.805  1.4718  0.9721 -3.7482
  652MOL0     H86044   1.007  10.191   8.822 -2.5725  2.2412 -4.1012
  652MOL0     H86045   0.946  10.280   8.968  1.1722 -1.0867  1.1708
  652MOL0     H86046   0.873  10.413   8.131 -0.2172  0.8544 -1.7616
  652MOL0     H86047   1.082  10.371   8.003  0.1148  1.0059  1.8454
  652MOL0     H86048   1.451   9.935   8.011  1.5594 -0.4453 -0.8215
  652MOL0     H86049   1.693  10.004   7.960 -1.0155 -1.1497  1.2270
  652MOL0     H86050   3.051  10.518   8.303 -0.2742  0.7130 -0.3698
  652MOL0     H86051   3.165  10.732   8.325  2.2138  0.0644  0.5071
  652MOL0     H86052   3.646  10.892   8.129  2.3386  2.6782 -0.6027
  652MOL0     H86053   3.798  11.084   8.152 -0.9227 -2.3235 -0.9752
  652MOL0     H86054   3.899  11.318   8.171  2.0121 -2.4435 -0.4796
  652MOL0     H86055   3.961  11.197   8.280 -0.3517  0.8067  0.4441
  652MOL0     H86056   3.910  11.478   8.333  0.2444 -1.2260 -0.4335
  652MOL0     H86057   3.950  11.367   8.473 -0.7288  2.8666  0.8155
  652MOL0     H86058   4.111  11.434   8.224 -0.6524  0.5556  0.7944
  652MOL0     H86059   4.152  11.301   8.333 -3.1830 -1.8489 -3.1654
  652MOL0     H86060   4.185  11.475   8.524 -3.2398 -0.4803  0.0225
  652MOL0     H86061   4.294  11.495   8.382 -0.7538 -3.6836 -3.1939
  652MOL0     H86062   4.058  11.864   8.417 -0.3467  0.1897  1.1921
  652MOL0     H86063   3.583  11.220   8.485 -0.3924  0.2161  0.5316
  652MOL0     H86064   3.425  11.016   8.464 -1.1251  0.4994 -1.6807
  653MOL0     O86065   1.704   8.309  10.682 -0.8502  0.0085 -0.8353
  653MOL0     C86066   1.780   8.406  10.666  0.2851  0.2393  0.4684
  653MOL0     O86067   1.909   8.409  10.702 -0.1814 -0.1427 -0.4316
  653MOL0     C86068   1.953   8.303  10.781  0.4259  0.3815 -0.0030
  653MOL0     C86069   1.931   8.169  10.765 -0.4228 -0.1712  0.2872
  653MOL0     C86070   1.999   8.076  10.840 -0.4675 -0.0389 -0.1198
  653MOL0     C86071   2.063   8.114  10.964  0.1108 -0.9828 -0.3709
  653MOL0     O86072   2.101   8.030  11.073  0.5708 -0.7038 -0.5916
  653MOL0     C86073   2.059   7.897  11.060  0.4528 -0.1769  0.6864
  653MOL0     C86074   2.117   7.816  11.186 -0.4133 -0.1268 -0.0638
  653MOL0     C86075   2.092   7.867  11.321  0.3984  0.2597  0.3979
  653MOL0     C86076   2.155   7.791  11.441 -0.2976  0.4590  0.5307
  653MOL0     C86077   2.087   7.653  11.454 -0.9193  0.6860 -0.0085
  653MOL0     C86078   2.159   7.583  11.570 -0.3524  0.7244 -0.6053
  653MOL0     C86079   2.126   7.439  11.606  1.0801 -0.5194 -0.0981
  653MOL0     C86080   1.986   7.427  11.666  0.2088  0.9877  0.0408
  653MOL0     N86081   1.958   7.287  11.701 -0.1866  0.0755  0.0700
  653MOL0     C86082   1.926   7.239  11.828 -0.8981  1.0601  0.9940
  653MOL0     C86083   1.899   7.103  11.819  0.4039 -0.1778 -0.0996
  653MOL0     C86084   1.872   6.995  11.924 -0.6750  0.0235  0.5732
  653MOL0     C86085   1.990   6.921  11.965  0.3837  1.4145 -0.0403
  653MOL0     C86086   2.114   7.003  12.016  0.1173  0.5957 -0.2999
  653MOL0     C86087   2.231   6.910  12.048  0.4539  0.8725 -0.7661
  653MOL0     O86088   2.336   6.993  12.107  0.1408 -0.3452 -0.0367
  653MOL0     C86089   2.464   6.965  12.095  0.2802  0.5685  1.0876
  653MOL0     C86090   2.520   6.879  11.999  0.1121  0.9118 -0.3123
  653MOL0     C86091   2.660   6.858  11.997  0.3086 -0.6622 -1.1033
  653MOL0     C86092   2.746   6.933  12.078  0.5219 -0.4525 -0.1490
  653MOL0     C86093   2.896   6.928  12.065  0.0156 -0.0316  0.0036
  653MOL0     O86094   2.978   6.988  12.155 -0.5430  0.5595  0.0071
  653MOL0     C86095   3.111   6.967  12.145  0.1567  0.4248 -0.6947
  653MOL0     C86096   3.176   6.847  12.177 -0.3036 -0.6616 -0.2663
  653MOL0     C86097   3.314   6.824  12.153 -0.5907 -0.8570 -0.6986
  653MOL0     C86098   3.394   6.940  12.120  0.0868 -0.0097 -0.1494
  653MOL0     O86099   3.531   6.932  12.134 -0.2948 -0.1408  0.9458
  653MOL0     C86100   3.617   7.036  12.086  0.1155  0.7988  0.8481
  653MOL0     C86101   3.760   6.974  12.090 -0.1748  0.4104  0.0092
  653MOL0     C86102   3.801   6.929  12.232  0.8131  0.1467  0.4099
  653MOL0     C86103   3.950   6.883  12.232  0.5335 -0.8944  0.5233
  653MOL0     C86104   3.968   6.763  12.335 -0.2707  0.0397  0.2239
  653MOL0     C86105   4.110   6.717  12.368  0.2942 -0.6350 -0.6655
  653MOL0     C86106   4.152   6.760  12.512  0.2096  0.6766 -0.3303
  653MOL0     C86107   4.278   6.686  12.556  0.5854 -0.0547 -1.2120
  653MOL0    Cl86108   4.323   6.736  12.716  0.1369 -0.2474 -0.0695
  653MOL0     C86109   3.334   7.061  12.080  0.1415  0.0680 -0.4075
  653MOL0     C86110   3.187   7.072  12.093  0.1804  0.3106  0.2229
  653MOL0     O86111   2.935   6.841  11.985 -0.3126  0.0037  0.1859
  653MOL0     C86112   2.691   7.016  12.174 -0.0092  0.1211  0.2676
  653MOL0     C86113   2.549   7.026  12.184  0.0180 -0.3837  0.1834
  653MOL0     N86114   1.911   7.068  11.684  0.3260  0.4319 -0.0570
  653MOL0     N86115   1.934   7.177  11.617 -0.8325  0.1774  0.5764
  653MOL0     C86116   2.086   8.251  10.982 -0.7158 -0.3124  0.3735
  653MOL0     C86117   2.044   8.342  10.884  0.3241  1.1296 -0.5896
  653MOL0     C86118   1.738   8.535  10.593  0.7983  0.1148  0.9892
  653MOL0     C86119   1.605   8.543  10.546 -0.4358  0.3441  0.3165
  653MOL0     C86120   1.544   8.664  10.513 -0.9290 -0.1127 -0.3040
  653MOL0     C86121   1.618   8.781  10.502  0.2691  0.4753 -0.1179
  653MOL0     O86122   1.584   8.906  10.455  0.2186 -0.0399  0.1957
  653MOL0     C86123   1.444   8.927  10.427 -0.6640 -0.2463 -0.3611
  653MOL0     C86124   1.426   9.033  10.318 -0.0299 -0.8656  0.3623
  653MOL0     C86125   1.479   9.176  10.359  0.3980 -0.6244 -0.0782
  653MOL0     C86126   1.442   9.290  10.246 -0.1419  0.2302  0.0223
  653MOL0     C86127   1.312   9.346  10.269 -0.6921  0.4091  0.4364
  653MOL0     C86128   1.203   9.390  10.292 -0.7114  0.4243  0.4331
  653MOL0     C86129   1.755   8.770  10.536 -0.2386  0.1711  0.4705
  653MOL0     C86130   1.813   8.652  10.596  0.2186  0.2405  0.2384
  653MOL0     H86131   1.865   8.136  10.685 -3.4428  2.3075  1.5515
  653MOL0     H86132   1.985   7.972  10.814 -0.6235  0.0115 -0.2332
  653MOL0     H86133   2.097   7.874  10.960  0.0744  3.6145 -0.4732
  653MOL0     H86134   1.951   7.885  11.052  0.5549  0.4494 -3.2033
  653MOL0     H86135   2.226   7.816  11.196 -0.4992 -1.0480  1.0284
  653MOL0     H86136   2.089   7.711  11.172 -1.2762  0.2296 -1.2173
  653MOL0     H86137   1.985   7.885  11.335  0.4110  1.1643 -0.6080
  653MOL0     H86138   2.130   7.969  11.330 -2.0575  1.2359  0.4610
  653MOL0     H86139   2.264   7.782  11.437 -0.3753 -0.3047 -0.2807
  653MOL0     H86140   2.135   7.841  11.536  1.5508  0.8795  0.7433
  653MOL0     H86141   2.104   7.594  11.363 -2.7052 -2.6791  1.6340
  653MOL0     H86142   1.979   7.664  11.473 -0.5536  1.0231  2.0777
  653MOL0     H86143   2.119   7.637  11.656 -3.5841 -0.4303 -1.2667
  653MOL0     H86144   2.268   7.581  11.557 -0.4131 -0.1873 -1.1117
  653MOL0     H86145   2.121   7.378  11.515  1.4503 -0.5013 -0.1328
  653MOL0     H86146   2.198   7.386  11.668  1.4345  0.7310  0.5695
  653MOL0     H86147   1.919   7.460  11.586  2.3141  1.4615 -1.6368
  653MOL0     H86148   1.959   7.490  11.751 -2.1742 -1.9450  1.6472
  653MOL0     H86149   1.925   7.299  11.919 -1.2008  0.4022  1.4368
  653MOL0     H86150   1.796   6.932  11.877  0.2804  1.9557 -4.0535
  653MOL0     H86151   1.820   7.037  12.011 -0.1339 -0.6677  1.2416
  653MOL0     H86152   2.023   6.854  11.885 -1.0658  0.4444  0.1444
  653MOL0     H86153   1.960   6.863  12.052 -0.5328  0.2076 -1.1126
  653MOL0     H86154   2.149   7.077  11.944  2.1935  0.5195  0.5462
  653MOL0     H86155   2.086   7.058  12.105 -2.2482  2.2377 -1.9644
  653MOL0     H86156   2.258   6.841  11.967  1.2741  0.8132 -0.4420
  653MOL0     H86157   2.194   6.843  12.126 -2.1087  1.9511 -0.9387
  653MOL0     H86158   2.462   6.826  11.925  0.7592  0.1451 -0.2934
  653MOL0     H86159   2.687   6.797  11.911 -1.7532 -1.5594 -1.1586
  653MOL0     H86160   3.128   6.762  12.223  0.6576 -0.1813  1.7472
  653MOL0     H86161   3.357   6.724  12.166  2.1483  0.3195  0.0452
  653MOL0     H86162   3.619   7.126  12.148  1.7830  0.7008  0.9741
  653MOL0     H86163   3.586   7.069  11.986 -0.7294  1.6654  1.3795
  653MOL0     H86164   3.825   7.056  12.057 -0.7337  1.7890  2.1050
  653MOL0     H86165   3.769   6.888  12.024 -2.9482 -0.1701  0.2481
  653MOL0     H86166   3.727   6.857  12.268  0.4901  1.2655  2.1110
  653MOL0     H86167   3.801   7.017  12.298  3.9571  3.2316 -3.2010
  653MOL0     H86168   3.993   6.849  12.138  2.2354  1.0042  0.5544
  653MOL0     H86169   4.003   6.969  12.274 -1.5296  0.1891  1.0278
  653MOL0     H86170   3.916   6.681  12.285 -0.2562  0.1622  0.0045
  653MOL0     H86171   3.916   6.779  12.429 -2.1866 -3.3638 -0.1117
  653MOL0     H86172   4.192   6.742  12.300  0.9102  0.2421  0.3792
  653MOL0     H86173   4.086   6.611  12.356 -3.9373  0.1933 -1.0141
  653MOL0     H86174   4.181   6.866  12.508  0.6873  0.7181  2.3111
  653MOL0     H86175   4.074   6.752  12.588  0.0063  4.7871  0.1666
  653MOL0     H86176   4.361   6.712  12.489  0.5034  2.3168 -0.4552
  653MOL0     H86177   4.267   6.577  12.549  1.7008 -0.2780  0.1182
  653MOL0     H86178   3.384   7.149  12.042  1.5397 -2.0160 -3.8017
  653MOL0     H86179   3.131   7.163  12.073  0.7124  0.3785 -1.0797
  653MOL0     H86180   2.753   7.062  12.250  1.7985 -3.9159  1.4676
  653MOL0     H86181   2.498   7.077  12.265 -0.5453 -2.0422  0.9260
  653MOL0     H86182   2.126   8.295  11.073 -2.0371  2.5749 -0.3472
  653MOL0     H86183   2.073   8.444  10.909  3.2853  0.0711  0.7420
  653MOL0     H86184   1.545   8.453  10.556  1.9826 -1.6418 -1.5636
  653MOL0     H86185   1.444   8.659  10.471 -1.8317  2.5458  1.2402
  653MOL0     H86186   1.382   8.967  10.507 -3.1537 -0.3798 -2.1105
  653MOL0     H86187   1.393   8.835  10.397 -1.1920 -0.6350  1.5850
  653MOL0     H86188   1.466   8.995  10.224 -1.7470 -3.8721  0.7037
  653MOL0     H86189   1.318   9.035  10.298 -0.0375 -0.3746  0.4458
  653MOL0     H86190   1.585   9.191  10.380 -0.6199  2.8325  3.7765
  653MOL0     H86191   1.434   9.214  10.451 -2.8255  0.2996 -1.8718
  653MOL0     H86192   1.509   9.377  10.253 -1.0854  1.8070 -5.5914
  653MOL0     H86193   1.451   9.250  10.144 -0.0819 -2.0008  0.8616
  653MOL0     H86194   1.111   9.438  10.316 -1.8114 -2.3547  2.1564
  653MOL0     H86195   1.816   8.858  10.519 -2.3397  1.7182  0.5670
  653MOL0     H86196   1.914   8.667  10.633 -0.0096 -1.8153  1.9171
  654MOL0     O86197   9.746   3.894  10.999 -0.2971  0.6361 -0.3220
  654MOL0     C86198   9.793   3.794  10.948  0.0413 -1.1185 -0.2159
  654MOL0     O86199   9.724   3.719  10.856  0.3157 -0.1901  0.0703
  654MOL0     C86200   9.604   3.742  10.798 -0.4616  0.8269 -0.6911
  654MOL0     C86201   9.576   3.694  10.673  0.2773 -0.2324  0.6457
  654MOL0     C86202   9.449   3.725  10.618 -0.7879 -0.1292  0.1423
  654MOL0     C86203   9.360   3.814  10.678  0.1887 -0.5061 -0.0697
  654MOL0     O86204   9.248   3.845  10.611 -0.9082  0.3928 -0.3963
  654MOL0     C86205   9.137   3.888  10.694  0.2751  0.2162 -0.5727
  654MOL0     C86206   9.021   3.874  10.587 -0.8430  0.2987 -0.0563
  654MOL0     C86207   9.001   3.725  10.540  0.2354  0.9039  0.2003
  654MOL0     C86208   8.885   3.702  10.432 -0.2316 -1.1264  0.1509
  654MOL0     C86209   8.778   3.816  10.444  0.7209  0.4827  0.4083
  654MOL0     C86210   8.687   3.825  10.571  1.0190  0.4070  0.6997
  654MOL0     C86211   8.579   3.933  10.538  0.7172 -0.1138 -0.2651
  654MOL0     C86212   8.458   3.902  10.628 -0.2100 -0.1023 -0.0046
  654MOL0     N86213   8.345   3.985  10.585  0.1863  0.0677 -0.0645
  654MOL0     C86214   8.259   3.973  10.476 -0.0204  0.1026 -0.3401
  654MOL0     C86215   8.177   4.082  10.476 -0.1336  0.0554 -0.8804
  654MOL0     C86216   8.069   4.111  10.379 -0.7961  0.4666 -0.3472
  654MOL0     C86217   7.952   4.024  10.405 -0.3571 -0.1802 -0.1892
  654MOL0     C86218   7.889   4.030  10.555 -0.0474  0.7935 -0.1602
  654MOL0     C86219   7.740   4.052  10.543 -0.2567  0.4554  0.7080
  654MOL0     O86220   7.682   3.942  10.474  0.4790  0.0230  0.0282
  654MOL0     C86221   7.546   3.936  10.443  0.1123  0.1771  0.2110
  654MOL0     C86222   7.456   4.035  10.475  0.6484 -0.7616  0.7979
  654MOL0     C86223   7.317   4.023  10.447  0.3602 -0.8282 -0.2622
  654MOL0     C86224   7.269   3.892  10.404 -0.4750  0.5726 -0.1728
  654MOL0     C86225   7.117   3.867  10.393 -0.0249  0.8408  0.4835
  654MOL0     O86226   7.034   3.975  10.414 -0.8585 -0.5419  0.1099
  654MOL0     C86227   6.894   3.965  10.406  0.9887  0.0736  0.7330
  654MOL0     C86228   6.815   4.053  10.480  0.1454 -0.0355 -0.0166
  654MOL0     C86229   6.671   4.038  10.489  0.0614  0.6328  0.7831
  654MOL0     C86230   6.605   3.949  10.399 -0.3303  0.0381  0.2114
  654MOL0     O86231   6.472   3.918  10.381  0.7774 -0.3702  0.6304
  654MOL0     C86232   6.369   4.004  10.432 -0.4954  0.0398 -0.1353
  654MOL0     C86233   6.257   3.925  10.506  0.5990 -0.1772  0.4546
  654MOL0     C86234   6.326   3.825  10.601  1.1660 -0.1774  0.2496
  654MOL0     C86235   6.215   3.727  10.641 -0.6247  0.8458  0.6872
  654MOL0     C86236   6.277   3.637  10.757  0.2403  0.1664  0.2159
  654MOL0     C86237   6.399   3.561  10.713  0.1909 -0.5414  0.3874
  654MOL0     C86238   6.428   3.444  10.807  0.3491 -0.2225 -0.6189
  654MOL0     C86239   6.542   3.363  10.761 -0.0101  0.0411  0.1100
  654MOL0    Cl86240   6.583   3.248  10.893 -0.4397 -0.4543 -0.4157
  654MOL0     C86241   6.697   3.856  10.330  0.2567 -0.3939 -0.2110
  654MOL0     C86242   6.832   3.868  10.333 -0.2306  0.7098  0.6249
  654MOL0     O86243   7.089   3.747  10.390  0.0284  0.6539 -0.1445
  654MOL0     C86244   7.362   3.787  10.375 -0.8738 -0.1847 -0.1603
  654MOL0     C86245   7.500   3.814  10.396  0.4258 -0.4563 -0.0409
  654MOL0     N86246   8.206   4.146  10.598 -0.2452 -1.5769  0.3239
  654MOL0     N86247   8.303   4.092  10.659 -1.1526 -0.1239  0.8334
  654MOL0     C86248   9.386   3.858  10.809 -0.1626 -1.1506 -0.4100
  654MOL0     C86249   9.510   3.815  10.868  0.2907  0.0056 -0.3548
  654MOL0     C86250   9.923   3.757  10.991  0.4127 -0.4087 -0.3048
  654MOL0     C86251   9.992   3.819  11.095 -0.3197 -0.7420  0.3580
  654MOL0     C86252  10.121   3.786  11.129 -0.7258 -0.2280 -0.5249
  654MOL0     C86253  10.185   3.677  11.068  0.3275 -0.2408  0.6593
  654MOL0     O86254  10.312   3.639  11.106 -0.2851 -0.7938 -0.5180
  654MOL0     C86255  10.373   3.521  11.070  0.4051 -0.0260  0.3161
  654MOL0     C86256  10.333   3.409  11.165 -0.3075  0.1567 -0.1455
  654MOL0     C86257  10.424   3.285  11.181  0.0046  0.5966  0.8385
  654MOL0     C86258  10.487   3.239  11.048 -0.3893 -0.5454  1.5651
  654MOL0     C86259  10.387   3.189  10.953  0.0361 -0.4805 -0.4251
  654MOL0     C86260  10.300   3.187  10.868  0.8228  1.1879  0.0222
  654MOL0     C86261  10.115   3.613  10.955 -0.8315 -0.4583 -1.0236
  654MOL0     C86262   9.984   3.647  10.925 -0.4841  0.2968  0.0667
  654MOL0     H86263   9.648   3.638  10.614 -1.0535 -1.6425  0.2820
  654MOL0     H86264   9.424   3.695  10.517 -0.1107 -1.3509  0.3225
  654MOL0     H86265   9.149   3.991  10.730 -2.7027  1.2019 -2.0706
  654MOL0     H86266   9.129   3.824  10.782  2.7143  1.5937  0.7528
  654MOL0     H86267   9.043   3.937  10.500  0.1815  1.6004  1.0911
  654MOL0     H86268   8.933   3.925  10.628 -1.3647 -0.4037 -0.2789
  654MOL0     H86269   8.982   3.656  10.623 -2.5364  0.2838 -0.8685
  654MOL0     H86270   9.100   3.696  10.502  1.0858 -0.9231  3.3591
  654MOL0     H86271   8.935   3.701  10.334  0.6906  0.9307  0.5451
  654MOL0     H86272   8.842   3.602  10.443  2.2826 -2.1499  1.4726
  654MOL0     H86273   8.715   3.793  10.358  2.5833  0.7417 -1.0845
  654MOL0     H86274   8.823   3.913  10.422 -3.0766  2.8771  2.0802
  654MOL0     H86275   8.732   3.840  10.670 -1.5189 -1.0193  2.1467
  654MOL0     H86276   8.642   3.726  10.579 -1.5907  1.4070 -0.5273
  654MOL0     H86277   8.609   4.038  10.546 -0.2727  0.0503  1.8748
  654MOL0     H86278   8.547   3.915  10.435 -1.5555 -1.6835  0.6408
  654MOL0     H86279   8.480   3.934  10.730 -2.8995 -1.3074  1.0482
  654MOL0     H86280   8.427   3.797  10.626  0.4025 -0.2920  0.1477
  654MOL0     H86281   8.243   3.885  10.415  1.2941 -0.6178  0.3263
  654MOL0     H86282   8.093   4.085  10.276 -2.1627 -0.3142 -0.4940
  654MOL0     H86283   8.049   4.218  10.378  0.2214  0.8812  3.8363
  654MOL0     H86284   7.981   3.920  10.390  1.2761  0.2928 -0.5463
  654MOL0     H86285   7.890   4.058  10.321  1.6315 -1.1569 -2.1370
  654MOL0     H86286   7.913   3.946  10.621  1.3215  0.2836 -1.2585
  654MOL0     H86287   7.932   4.125  10.589 -1.2511  0.3941  2.7891
  654MOL0     H86288   7.713   4.147  10.494 -0.8386 -0.9053 -1.7760
  654MOL0     H86289   7.689   4.053  10.639  0.2874  6.7214  1.3455
  654MOL0     H86290   7.493   4.132  10.509  3.3973 -1.3038 -0.3549
  654MOL0     H86291   7.256   4.107  10.480  0.1976 -1.1806  0.3510
  654MOL0     H86292   6.864   4.128  10.541 -0.3481  1.7030 -1.6695
  654MOL0     H86293   6.616   4.104  10.554 -0.8623  0.9629 -0.3098
  654MOL0     H86294   6.317   4.064  10.357  2.9579 -0.0821 -2.9219
  654MOL0     H86295   6.401   4.073  10.510 -1.6957  2.4728 -1.6694
  654MOL0     H86296   6.215   3.871  10.420 -0.6447  2.2162 -0.5554
  654MOL0     H86297   6.187   3.995  10.552 -0.4860  0.6305 -2.2074
  654MOL0     H86298   6.361   3.870  10.694 -1.3608  3.5920 -0.3695
  654MOL0     H86299   6.406   3.775  10.546  1.8957 -1.3410  2.2751
  654MOL0     H86300   6.129   3.783  10.677 -1.7501  1.6088 -2.8090
  654MOL0     H86301   6.190   3.657  10.561 -0.6899 -0.8696  2.1479
  654MOL0     H86302   6.203   3.560  10.778 -1.2602  0.4534 -3.3683
  654MOL0     H86303   6.303   3.696  10.846  0.5424 -0.0956  0.3045
  654MOL0     H86304   6.491   3.619  10.699 -0.0362  0.3713  2.3515
  654MOL0     H86305   6.370   3.513  10.619 -0.1392 -0.3274  0.3786
  654MOL0     H86306   6.439   3.489  10.907  1.6901  2.3331 -1.8114
  654MOL0     H86307   6.341   3.379  10.823 -0.3949  0.8422 -0.1242
  654MOL0     H86308   6.630   3.427  10.747 -0.0578 -0.0425 -0.6169
  654MOL0     H86309   6.514   3.314  10.667  0.6366  0.2562 -0.1986
  654MOL0     H86310   6.660   3.769  10.277 -1.4363 -3.9285  5.7755
  654MOL0     H86311   6.888   3.791  10.281  0.1189  1.1531  0.3331
  654MOL0     H86312   7.318   3.693  10.341 -0.5495  0.6749 -3.2588
  654MOL0     H86313   7.577   3.739  10.382  0.6067 -0.5767  1.4527
  654MOL0     H86314   9.321   3.908  10.880  2.3922  1.9487 -0.0385
  654MOL0     H86315   9.538   3.840  10.970 -1.1439  2.9588 -0.5778
  654MOL0     H86316   9.946   3.906  11.141 -2.8271 -0.1144 -2.9720
  654MOL0     H86317  10.168   3.844  11.207 -1.7397 -2.2924  1.7537
  654MOL0     H86318  10.481   3.536  11.082  0.1107  1.3118  1.4831
  654MOL0     H86319  10.351   3.491  10.967 -2.1117  0.0784  0.7464
  654MOL0     H86320  10.339   3.444  11.269 -3.0650  0.4867 -0.0154
  654MOL0     H86321  10.233   3.376  11.137  0.5620 -2.0324 -0.8819
  654MOL0     H86322  10.367   3.199  11.217  1.4599 -0.8813 -0.2227
  654MOL0     H86323  10.501   3.302  11.256  0.0734  0.6850  0.7473
  654MOL0     H86324  10.544   3.327  11.016 -0.2720  0.6199  4.6470
  654MOL0     H86325  10.561   3.160  11.063  1.3177  0.5262 -0.6720
  654MOL0     H86326  10.212   3.167  10.810  1.0302 -0.8099  0.3052
  654MOL0     H86327  10.155   3.544  10.882 -0.7568 -2.4454  0.7893
  654MOL0     H86328   9.937   3.609  10.836  0.7732 -0.4310 -0.3094
  655MOL0     O86329   2.557   0.504   0.588 -0.3737 -0.1280 -0.1634
  655MOL0     C86330   2.538   0.396   0.528 -0.8178 -0.1667  0.6478
  655MOL0     O86331   2.419   0.339   0.499  0.0089 -0.9319 -0.3329
  655MOL0     C86332   2.299   0.388   0.547 -0.7377 -0.3683 -0.0313
  655MOL0     C86333   2.185   0.370   0.468 -0.0227 -0.1248  0.3331
  655MOL0     C86334   2.061   0.433   0.500  0.2684 -0.4483  0.5373
  655MOL0     C86335   2.042   0.499   0.626 -0.7302  0.9475 -0.3577
  655MOL0     O86336   1.927   0.575   0.644 -0.3814 -0.5315 -0.5317
  655MOL0     C86337   1.871   0.601   0.769 -0.4167  0.9165 -0.1767
  655MOL0     C86338   1.733   0.653   0.743 -0.7954  0.4989 -0.0112
  655MOL0     C86339   1.642   0.532   0.677  0.1345  0.2684  0.6460
  655MOL0     C86340   1.637   0.551   0.526 -0.0732  0.4993  0.1696
  655MOL0     C86341   1.569   0.424   0.466 -0.0016  0.5135 -0.1928
  655MOL0     C86342   1.430   0.394   0.518 -0.5355  0.1143  0.7288
  655MOL0     C86343   1.322   0.503   0.497  0.8175  0.4673 -0.2647
  655MOL0     C86344   1.323   0.575   0.357 -0.4288 -0.9436  0.4370
  655MOL0     N86345   1.194   0.631   0.342  0.5002  0.1811 -0.3044
  655MOL0     C86346   1.133   0.733   0.404  0.1040 -0.2993  0.4620
  655MOL0     C86347   1.005   0.734   0.370  0.2033 -0.4279  0.5048
  655MOL0     C86348   0.895   0.828   0.394  0.3818 -0.1667 -0.5389
  655MOL0     C86349   0.765   0.791   0.312 -0.1420 -0.6128 -0.8851
  655MOL0     C86350   0.643   0.874   0.362 -0.0407  0.2148  0.4726
  655MOL0     C86351   0.511   0.817   0.311  0.2252 -0.3190  0.8179
  655MOL0     O86352   0.410   0.911   0.341 -0.2081  0.4223 -0.3871
  655MOL0     C86353   0.320   0.952   0.248  0.4850  0.5432  0.4501
  655MOL0     C86354   0.249   1.072   0.263  0.2240  0.2758  0.4635
  655MOL0     C86355   0.147   1.120   0.180  0.2157  0.0942  0.4085
  655MOL0     C86356   0.122   1.055   0.056  0.8227 -0.4605  0.0045
  655MOL0     C86357   0.031   1.119  -0.045 -0.0804  0.4740  0.0162
  655MOL0     O86358  -0.038   1.229  -0.001  0.2449 -1.1478  0.0291
  655MOL0     C86359  -0.134   1.274  -0.096 -0.2379  0.7398  0.4901
  655MOL0     C86360  -0.091   1.331  -0.219  0.3823 -0.2719 -0.8165
  655MOL0     C86361  -0.181   1.381  -0.306 -0.5405 -0.4205  0.5407
  655MOL0     C86362  -0.319   1.385  -0.277  0.2949 -0.2470  0.3664
  655MOL0     O86363  -0.426   1.409  -0.361 -0.0457  0.0039  0.4196
  655MOL0     C86364  -0.394   1.399  -0.503 -0.5766 -0.5262 -0.4308
  655MOL0     C86365  -0.518   1.427  -0.584  0.2769 -0.5988 -0.2111
  655MOL0     C86366  -0.660   1.401  -0.523  0.4037  0.5872 -0.2403
  655MOL0     C86367  -0.667   1.246  -0.477  0.3696 -0.3756 -0.4093
  655MOL0     C86368  -0.769   1.233  -0.372  0.2166  0.0425  0.1211
  655MOL0     C86369  -0.923   1.218  -0.421 -0.2883  0.3716  0.4486
  655MOL0     C86370  -0.957   1.076  -0.469  0.2378 -0.9471 -0.2028
  655MOL0     C86371  -1.110   1.047  -0.485 -1.2242 -0.6614  0.4964
  655MOL0    Cl86372  -1.211   1.053  -0.336 -0.3083  0.3055 -0.4754
  655MOL0     C86373  -0.355   1.341  -0.145  0.3335  0.1906  0.4115
  655MOL0     C86374  -0.262   1.282  -0.059  0.2867 -0.5287 -1.1200
  655MOL0     O86375   0.026   1.060  -0.151  0.2026  0.1009  0.0431
  655MOL0     C86376   0.194   0.941   0.031 -0.7968 -0.7342  0.1045
  655MOL0     C86377   0.287   0.885   0.130  0.2881  0.1720 -0.0904
  655MOL0     N86378   0.995   0.634   0.269 -0.2787  0.1662 -0.7080
  655MOL0     N86379   1.109   0.573   0.257 -0.8045 -0.1547 -0.3519
  655MOL0     C86380   2.156   0.496   0.716 -0.7321 -0.9848  0.3198
  655MOL0     C86381   2.284   0.447   0.676  0.2482  0.5757  0.8104
  655MOL0     C86382   2.652   0.347   0.446  0.3350 -0.3704 -0.2584
  655MOL0     C86383   2.632   0.237   0.362 -0.1073 -0.0007  0.0143
  655MOL0     C86384   2.728   0.199   0.276  0.7955  0.6881 -0.6881
  655MOL0     C86385   2.846   0.273   0.266 -0.8777  0.2138 -0.4164
  655MOL0     O86386   2.940   0.228   0.173 -0.8004  0.5293 -0.2681
  655MOL0     C86387   2.969   0.296   0.054  0.1237 -0.3573  0.0495
  655MOL0     C86388   3.000   0.197  -0.066  0.1388  0.7857 -0.3754
  655MOL0     C86389   3.150   0.148  -0.038  0.1299  0.2299 -0.3742
  655MOL0     C86390   3.245   0.159  -0.154 -0.3492 -0.3623  0.4567
  655MOL0     C86391   3.216   0.269  -0.242 -1.8328 -0.4757  0.3144
  655MOL0     C86392   3.185   0.345  -0.331 -0.6689  0.4303 -0.4462
  655MOL0     C86393   2.878   0.366   0.362 -0.3939  0.2854  0.6790
  655MOL0     C86394   2.778   0.407   0.455 -0.2634 -0.5449 -0.5087
  655MOL0     H86395   2.188   0.317   0.374 -1.0917  0.8143 -0.2517
  655MOL0     H86396   1.996   0.446   0.415  1.2172 -0.5851 -0.2279
  655MOL0     H86397   1.933   0.669   0.828  0.5557 -1.6266  1.9207
  655MOL0     H86398   1.859   0.508   0.825 -1.0397 -0.3713 -2.3001
  655MOL0     H86399   1.733   0.743   0.680 -1.3368  0.3405 -0.2450
  655MOL0     H86400   1.682   0.667   0.839  1.9639  1.0245  1.4988
  655MOL0     H86401   1.538   0.550   0.706 -0.1199  0.9299 -0.6091
  655MOL0     H86402   1.690   0.439   0.710  0.1277  1.1903  3.5647
  655MOL0     H86403   1.580   0.641   0.502 -2.3045 -0.4557  1.5374
  655MOL0     H86404   1.737   0.561   0.482 -0.5047 -1.3570 -1.3411
  655MOL0     H86405   1.625   0.333   0.484  1.2113  1.7331  2.7002
  655MOL0     H86406   1.560   0.439   0.358  0.6986  1.2782 -0.1556
  655MOL0     H86407   1.435   0.376   0.626  1.3614 -0.7671  0.5445
  655MOL0     H86408   1.383   0.307   0.472  0.3662 -0.6038  1.1376
  655MOL0     H86409   1.235   0.438   0.510  0.3097  0.5918 -2.6267
  655MOL0     H86410   1.326   0.578   0.577 -2.4201 -1.2634  1.7561
  655MOL0     H86411   1.352   0.499   0.283  1.3663 -2.0806  2.2163
  655MOL0     H86412   1.397   0.656   0.356  1.3637 -2.4906  1.0178
  655MOL0     H86413   1.178   0.802   0.475  2.1618 -1.2119  0.1256
  655MOL0     H86414   0.924   0.931   0.369 -0.5119  1.1232  3.1596
  655MOL0     H86415   0.871   0.809   0.499  1.1365 -0.4561 -0.4073
  655MOL0     H86416   0.744   0.688   0.342  2.9180 -1.0624  0.0258
  655MOL0     H86417   0.777   0.801   0.204  0.0585  2.8470 -0.6635
  655MOL0     H86418   0.626   0.876   0.470 -2.3484  1.9335  0.1574
  655MOL0     H86419   0.654   0.976   0.322 -2.3744 -0.0844 -1.1452
  655MOL0     H86420   0.485   0.720   0.353  2.3862 -2.2832 -2.0033
  655MOL0     H86421   0.531   0.810   0.204 -0.1771  1.1770  0.6219
  655MOL0     H86422   0.261   1.116   0.361 -0.0737  1.1533  0.1208
  655MOL0     H86423   0.085   1.206   0.198  2.6594  1.6399  2.0896
  655MOL0     H86424   0.012   1.308  -0.248  1.1037 -3.4985  3.2837
  655MOL0     H86425  -0.141   1.420  -0.400 -3.1387  1.0719 -0.0638
  655MOL0     H86426  -0.335   1.308  -0.517  1.1256  0.3529  0.7374
  655MOL0     H86427  -0.325   1.479  -0.529 -0.9277  0.2853  1.0149
  655MOL0     H86428  -0.510   1.355  -0.666  0.8559 -0.6256 -0.1331
  655MOL0     H86429  -0.505   1.525  -0.632  0.5321 -1.4175 -1.8851
  655MOL0     H86430  -0.744   1.411  -0.593  2.5510 -1.2841 -3.3652
  655MOL0     H86431  -0.670   1.469  -0.438 -0.0101  0.8575 -0.5030
  655MOL0     H86432  -0.701   1.187  -0.562 -0.7809  0.4649 -0.5648
  655MOL0     H86433  -0.569   1.214  -0.442  1.1454 -0.2694 -2.4137
  655MOL0     H86434  -0.766   1.325  -0.313 -0.8974  0.1906 -0.0422
  655MOL0     H86435  -0.747   1.152  -0.301 -3.1111  2.0976  3.9082
  655MOL0     H86436  -0.941   1.281  -0.509  0.3314 -1.5650 -1.1303
  655MOL0     H86437  -0.997   1.238  -0.342  0.2608 -2.0706  1.6732
  655MOL0     H86438  -0.911   1.050  -0.564 -2.4084 -2.5568 -1.1664
  655MOL0     H86439  -0.936   1.003  -0.391 -2.2154 -0.9787  0.5379
  655MOL0     H86440  -1.118   0.944  -0.522  1.3100 -1.2630  1.4384
  655MOL0     H86441  -1.157   1.119  -0.553 -0.9306 -0.1018  0.8775
  655MOL0     H86442  -0.462   1.345  -0.125  0.4084  0.8218  0.7271
  655MOL0     H86443  -0.281   1.263   0.046  0.8364 -2.4505 -1.3250
  655MOL0     H86444   0.184   0.884  -0.061  0.3177  0.9282 -1.0892
  655MOL0     H86445   0.338   0.792   0.110  3.4395  1.3771  1.6088
  655MOL0     H86446   2.156   0.550   0.810  1.8577 -4.4759  2.5767
  655MOL0     H86447   2.366   0.446   0.748  0.7584 -1.1861  0.2682
  655MOL0     H86448   2.538   0.182   0.355  0.7747 -1.3367 -2.3476
  655MOL0     H86449   2.706   0.119   0.206  0.1526  0.0922  0.1760
  655MOL0     H86450   3.053   0.364   0.076 -0.7762  0.3696  1.3674
  655MOL0     H86451   2.885   0.363   0.035 -0.3170 -0.9368 -0.0703
  655MOL0     H86452   2.936   0.110  -0.053 -0.3588  0.9530 -1.5860
  655MOL0     H86453   2.983   0.237  -0.167  0.8722 -0.1584 -0.8829
  655MOL0     H86454   3.147   0.050   0.011  1.0752  0.9852  1.2763
  655MOL0     H86455   3.186   0.208   0.046 -1.1447  2.4248 -1.3036
  655MOL0     H86456   3.347   0.167  -0.116  1.0345 -0.0838 -2.9689
  655MOL0     H86457   3.241   0.063  -0.206 -1.5547  0.7764 -1.6992
  655MOL0     H86458   3.172   0.426  -0.400  0.6720  1.8594  0.8797
  655MOL0     H86459   2.975   0.415   0.366 -0.3798  0.5890 -1.7562
  655MOL0     H86460   2.799   0.485   0.527  0.5833 -0.4522 -0.8424
  656MOL0     O86461   9.789   9.478   7.825  0.0427 -0.9606 -0.2699
  656MOL0     C86462   9.861   9.448   7.731 -0.0714 -0.3442  0.0395
  656MOL0     O86463   9.837   9.346   7.642 -1.2219 -1.3140 -0.3193
  656MOL0     C86464   9.723   9.286   7.624  1.0889 -0.0350 -0.9663
  656MOL0     C86465   9.710   9.217   7.510  0.3107  0.2091  0.3493
  656MOL0     C86466   9.600   9.132   7.486  0.0661 -0.2499 -0.5219
  656MOL0     C86467   9.499   9.121   7.580 -0.0043  0.4068 -0.7519
  656MOL0     O86468   9.386   9.040   7.580 -0.7139  0.2856 -0.1521
  656MOL0     C86469   9.357   8.962   7.461 -0.4805  0.5919 -0.4096
  656MOL0     C86470   9.281   8.845   7.510  0.3915  1.2000 -0.6682
  656MOL0     C86471   9.147   8.876   7.582  0.3489  0.0006  0.0878
  656MOL0     C86472   9.057   8.756   7.601 -0.4009  0.4473  0.5080
  656MOL0     C86473   8.946   8.784   7.709  0.2593 -0.7009  0.6252
  656MOL0     C86474   8.843   8.881   7.652  0.1998  0.3075  0.4398
  656MOL0     C86475   8.715   8.892   7.743 -0.1314  0.1824 -0.0772
  656MOL0     C86476   8.594   8.925   7.650  0.0371  0.4341  0.3157
  656MOL0     N86477   8.465   8.929   7.720 -0.2418  0.7426  0.1799
  656MOL0     C86478   8.438   8.968   7.845 -0.1545  0.7523  0.1849
  656MOL0     C86479   8.306   8.962   7.866  0.1179  0.4844 -0.3034
  656MOL0     C86480   8.237   9.001   7.995 -0.3581  0.3231 -0.2037
  656MOL0     C86481   8.180   9.147   7.987 -0.0466  0.5174 -0.3186
  656MOL0     C86482   8.285   9.261   7.989 -1.1653 -0.0565  0.1609
  656MOL0     C86483   8.373   9.273   8.114  0.0597  0.3346  0.3206
  656MOL0     O86484   8.444   9.149   8.144 -0.8013 -0.2504 -0.4914
  656MOL0     C86485   8.569   9.146   8.196  0.4140  0.0059 -0.1356
  656MOL0     C86486   8.664   9.252   8.208 -0.2037  0.4007  0.1334
  656MOL0     C86487   8.787   9.217   8.260 -0.1222  0.2245 -0.2413
  656MOL0     C86488   8.820   9.082   8.290  0.5560  0.4775 -0.4989
  656MOL0     C86489   8.962   9.027   8.308 -0.2808 -0.8752 -0.1365
  656MOL0     O86490   8.979   8.913   8.374  0.2101  0.0004 -0.1660
  656MOL0     C86491   9.100   8.880   8.424  0.3049  0.2171  0.3870
  656MOL0     C86492   9.227   8.881   8.355  0.2258  0.8037 -0.7554
  656MOL0     C86493   9.346   8.835   8.423 -0.6025 -1.1203 -0.0258
  656MOL0     C86494   9.338   8.803   8.557 -0.7570 -0.4458 -0.2970
  656MOL0     O86495   9.439   8.790   8.646 -0.9526 -0.5397  0.1191
  656MOL0     C86496   9.569   8.849   8.628 -1.0105  0.9708  0.3329
  656MOL0     C86497   9.563   9.001   8.654  0.1666  1.0469  0.8873
  656MOL0     C86498   9.692   9.050   8.720  0.4689 -0.2078 -0.3257
  656MOL0     C86499   9.828   8.982   8.683 -0.0737  0.9417 -0.0306
  656MOL0     C86500   9.948   9.053   8.731 -0.2921 -0.2062  0.1118
  656MOL0     C86501  10.080   8.969   8.712 -0.6198  1.2974 -0.2450
  656MOL0     C86502  10.189   9.084   8.695  0.5597  0.7261 -0.7870
  656MOL0     C86503  10.331   9.022   8.721 -0.1293 -0.5476 -0.3929
  656MOL0    Cl86504  10.342   8.970   8.892 -0.4540 -0.3188  0.5742
  656MOL0     C86505   9.219   8.799   8.623 -0.1858  0.2606  0.3948
  656MOL0     C86506   9.102   8.834   8.560  0.4246 -0.3490  0.3743
  656MOL0     O86507   9.047   9.099   8.269 -0.0500  0.2458  0.1874
  656MOL0     C86508   8.720   8.980   8.272 -0.0691  0.1697  0.6415
  656MOL0     C86509   8.598   9.011   8.216  1.1769  0.8767  0.7410
  656MOL0     N86510   8.242   8.912   7.750 -0.0436 -0.4743  0.4057
  656MOL0     N86511   8.343   8.891   7.663 -0.5729  0.4912 -0.2724
  656MOL0     C86512   9.506   9.199   7.699  0.2521  0.8498  0.2964
  656MOL0     C86513   9.613   9.283   7.719 -0.0209 -0.0607  0.0708
  656MOL0     C86514   9.996   9.511   7.725 -0.1938 -0.4768 -0.8452
  656MOL0     C86515  10.084   9.479   7.621  0.9476 -0.2150 -0.5419
  656MOL0     C86516  10.210   9.542   7.603 -0.2614  0.0671 -0.1830
  656MOL0     C86517  10.252   9.648   7.692  0.2734 -0.6001 -0.0740
  656MOL0     O86518  10.376   9.708   7.675 -0.9430 -0.4089 -0.0351
  656MOL0     C86519  10.406   9.832   7.752  0.3626 -0.8307 -0.0399
  656MOL0     C86520  10.461   9.794   7.891 -0.4041  0.4548  0.6394
  656MOL0     C86521  10.614   9.767   7.888 -0.6991  0.3608  0.1153
  656MOL0     C86522  10.698   9.885   7.855  0.1245  0.4601  0.2003
  656MOL0     C86523  10.838   9.847   7.837 -0.7575 -0.0419 -0.6302
  656MOL0     C86524  10.942   9.782   7.822  0.4505  0.6456  0.6435
  656MOL0     C86525  10.160   9.682   7.796 -0.8970  0.0159 -0.5140
  656MOL0     C86526  10.043   9.617   7.813  0.1096  0.1397  0.8260
  656MOL0     H86527   9.801   9.229   7.453  1.0481  1.7809  1.7821
  656MOL0     H86528   9.610   9.073   7.396  1.0275 -0.3659 -0.3570
  656MOL0     H86529   9.446   8.929   7.407 -0.0384  0.5205  0.3430
  656MOL0     H86530   9.305   9.029   7.392  0.3070  3.8598  1.9001
  656MOL0     H86531   9.343   8.774   7.565  0.3101  0.1003 -1.9490
  656MOL0     H86532   9.243   8.798   7.419 -2.7362 -0.3117  1.2527
  656MOL0     H86533   9.103   8.944   7.508 -0.9298 -0.4704  0.3909
  656MOL0     H86534   9.161   8.927   7.678  0.4946  2.4786 -1.1645
  656MOL0     H86535   9.013   8.733   7.504 -0.0239 -1.9929  0.8484
  656MOL0     H86536   9.101   8.666   7.646 -1.4023  0.0266  0.6916
  656MOL0     H86537   8.991   8.813   7.804  0.5271 -1.9097  0.8857
  656MOL0     H86538   8.900   8.687   7.732 -0.8241 -1.1641 -2.7759
  656MOL0     H86539   8.815   8.841   7.554  4.4755  1.3172 -1.3868
  656MOL0     H86540   8.890   8.978   7.636  2.6276 -0.3779  2.7488
  656MOL0     H86541   8.697   8.795   7.790  0.6205 -0.4727 -1.0941
  656MOL0     H86542   8.721   8.962   7.827 -3.9302  2.4344 -1.4491
  656MOL0     H86543   8.583   8.842   7.580 -1.0651 -0.1195  1.1001
  656MOL0     H86544   8.625   9.016   7.598 -0.3500 -0.5754 -1.7653
  656MOL0     H86545   8.508   9.003   7.920 -1.5985  1.2214  1.3472
  656MOL0     H86546   8.300   8.989   8.084 -0.4273  0.6853 -0.1042
  656MOL0     H86547   8.159   8.926   8.006 -1.6612  1.6420 -0.2364
  656MOL0     H86548   8.110   9.155   8.071  0.7021 -0.3489  0.4110
  656MOL0     H86549   8.123   9.164   7.896 -1.8932  3.9243  1.2722
  656MOL0     H86550   8.360   9.241   7.912 -0.4885  2.6164  0.0173
  656MOL0     H86551   8.226   9.353   7.981 -2.2199 -0.8317 -1.2477
  656MOL0     H86552   8.303   9.292   8.196 -0.9576  1.8107 -0.8330
  656MOL0     H86553   8.447   9.354   8.118 -0.1763  0.5438  0.5304
  656MOL0     H86554   8.651   9.352   8.169  0.7558  1.0705  1.4627
  656MOL0     H86555   8.865   9.293   8.263  0.1490  0.0196 -1.5945
  656MOL0     H86556   9.235   8.927   8.257 -0.9195  1.9178 -0.3484
  656MOL0     H86557   9.434   8.835   8.359 -0.8493 -0.5236 -0.3766
  656MOL0     H86558   9.605   8.824   8.528 -4.4638  1.2857 -1.1278
  656MOL0     H86559   9.636   8.796   8.697 -0.5856  0.6530 -0.3119
  656MOL0     H86560   9.471   9.026   8.707 -0.9070  0.1371 -0.4961
  656MOL0     H86561   9.563   9.045   8.554  3.8690 -0.9190 -0.1634
  656MOL0     H86562   9.690   9.023   8.826 -1.2014  0.7582 -0.0825
  656MOL0     H86563   9.702   9.159   8.718  1.3387 -0.1099  3.2347
  656MOL0     H86564   9.837   8.881   8.722  2.6674  0.8809 -0.5826
  656MOL0     H86565   9.832   8.983   8.573 -1.7008  1.1075 -0.1027
  656MOL0     H86566   9.933   9.086   8.834  1.5602  2.3113 -0.3271
  656MOL0     H86567   9.959   9.140   8.665 -1.3663 -0.1101  0.0543
  656MOL0     H86568  10.078   8.918   8.615  2.2091  1.3144 -0.3950
  656MOL0     H86569  10.098   8.889   8.784  1.4692  2.6681  0.8457
  656MOL0     H86570  10.182   9.134   8.598 -0.0562  2.1315 -0.0337
  656MOL0     H86571  10.176   9.157   8.775  1.1290 -0.1830  0.1659
  656MOL0     H86572  10.407   9.098   8.703  0.3384 -1.2351 -1.4419
  656MOL0     H86573  10.346   8.935   8.656  2.8582  0.2632 -0.9097
  656MOL0     H86574   9.229   8.761   8.725 -0.0914 -0.7430  0.0199
  656MOL0     H86575   9.013   8.818   8.621  1.7170 -5.3775  1.4360
  656MOL0     H86576   8.736   8.877   8.299 -3.2538 -0.1109  1.9940
  656MOL0     H86577   8.519   8.938   8.203  2.5415 -0.3153 -1.4687
  656MOL0     H86578   9.421   9.179   7.763 -0.9517  0.0988 -1.4635
  656MOL0     H86579   9.603   9.346   7.807 -1.5494  1.3548 -1.0456
  656MOL0     H86580  10.061   9.411   7.540 -0.5230 -0.6154  0.1760
  656MOL0     H86581  10.265   9.521   7.512 -0.7502 -2.4981  0.0613
  656MOL0     H86582  10.312   9.886   7.770 -0.8247 -2.8123 -0.0339
  656MOL0     H86583  10.475   9.895   7.695 -1.5702  2.7937  1.2821
  656MOL0     H86584  10.446   9.886   7.947 -0.8724  0.2862  0.8028
  656MOL0     H86585  10.403   9.719   7.946 -0.7037 -0.6961 -1.1288
  656MOL0     H86586  10.647   9.687   7.821  1.9415  0.5748  1.0810
  656MOL0     H86587  10.645   9.732   7.986 -0.5160 -3.4846 -1.1495
  656MOL0     H86588  10.663   9.924   7.759 -1.6017  1.6202  1.2434
  656MOL0     H86589  10.685   9.966   7.928 -1.4576  0.9157 -0.5403
  656MOL0     H86590  11.025   9.722   7.794  1.1113  1.4434  0.8505
  656MOL0     H86591  10.185   9.753   7.875 -0.8944 -0.4390 -0.0967
  656MOL0     H86592   9.975   9.661   7.885 -1.5337  2.8563 -2.1313
  657MOL0     O86593   4.024   9.738   4.786 -0.2304 -0.0573 -0.1256
  657MOL0     C86594   4.038   9.729   4.665  0.7291  0.4432 -0.3469
  657MOL0     O86595   3.943   9.694   4.573  0.1128 -0.0027 -0.2065
  657MOL0     C86596   3.819   9.639   4.605 -0.0852 -0.0242  0.5602
  657MOL0     C86597   3.810   9.526   4.692 -0.6519 -0.4727 -0.2207
  657MOL0     C86598   3.686   9.480   4.718  0.4702  0.9539  0.6047
  657MOL0     C86599   3.574   9.530   4.663  0.3131 -0.2282 -0.2629
  657MOL0     O86600   3.455   9.481   4.696  0.3280  0.3124 -0.1330
  657MOL0     C86601   3.402   9.383   4.603 -0.5252 -0.2813 -0.1138
  657MOL0     C86602   3.448   9.238   4.632 -0.0398 -0.7773 -1.1858
  657MOL0     C86603   3.395   9.135   4.535  0.1381 -0.6085 -0.7233
  657MOL0     C86604   3.246   9.109   4.569  0.0884 -0.7351  0.4311
  657MOL0     C86605   3.202   8.972   4.520  0.4943  0.2386  0.0117
  657MOL0     C86606   3.047   8.965   4.540 -0.0181 -0.5626  0.6340
  657MOL0     C86607   2.996   8.830   4.489 -1.0842  0.4010  0.6363
  657MOL0     C86608   2.840   8.828   4.472  0.1940  0.3045 -0.6993
  657MOL0     N86609   2.795   8.906   4.362  0.5132 -0.9642 -0.2161
  657MOL0     C86610   2.835   8.910   4.228 -0.7552 -0.5770 -0.2016
  657MOL0     C86611   2.787   9.023   4.177  0.5908  0.0814 -0.9933
  657MOL0     C86612   2.815   9.069   4.041 -0.0314 -0.0956  0.1107
  657MOL0     C86613   2.689   9.039   3.946 -1.0159 -0.7989 -0.0951
  657MOL0     C86614   2.687   9.125   3.825  0.9248 -1.0432 -0.6475
  657MOL0     C86615   2.573   9.099   3.724  0.3056  0.0864 -0.4669
  657MOL0     O86616   2.451   9.107   3.799  0.5396  0.0351 -0.1758
  657MOL0     C86617   2.328   9.089   3.738 -0.4426  0.9758 -0.2399
  657MOL0     C86618   2.219   9.109   3.824  0.2374 -0.1048 -0.2533
  657MOL0     C86619   2.093   9.073   3.779  0.1919 -0.0995 -0.0273
  657MOL0     C86620   2.068   9.019   3.652 -0.3036  0.7078 -0.7806
  657MOL0     C86621   1.936   8.992   3.595  0.2193 -0.8054 -0.3449
  657MOL0     O86622   1.819   9.055   3.616  0.3337 -0.4206 -0.3805
  657MOL0     C86623   1.709   9.019   3.542 -0.2891  0.4998 -0.2953
  657MOL0     C86624   1.658   8.889   3.519 -0.1408 -0.0296 -0.2454
  657MOL0     C86625   1.534   8.883   3.458  0.1560 -0.2082 -0.2752
  657MOL0     C86626   1.452   8.996   3.431 -0.2845  0.2120  0.8048
  657MOL0     O86627   1.331   8.975   3.372  0.2692  0.2690  1.0453
  657MOL0     C86628   1.210   9.015   3.443 -0.5443  0.7054 -0.4696
  657MOL0     C86629   1.080   8.956   3.375  0.6377  0.1197  1.3086
  657MOL0     C86630   1.069   8.796   3.374 -0.1207 -0.3905 -0.1483
  657MOL0     C86631   0.960   8.741   3.271 -0.0280  0.1033 -0.2932
  657MOL0     C86632   0.996   8.732   3.125 -0.5295  1.2134  0.4730
  657MOL0     C86633   0.931   8.611   3.052 -0.5104  0.6064  0.6676
  657MOL0     C86634   0.774   8.615   3.056 -0.7374  0.2039 -0.3552
  657MOL0     C86635   0.695   8.548   2.944  0.3687  0.8195  0.4389
  657MOL0    Cl86636   0.711   8.649   2.794 -0.0024  0.0341 -0.0516
  657MOL0     C86637   1.500   9.123   3.460 -0.2441 -0.0867  0.1330
  657MOL0     C86638   1.627   9.132   3.515  0.6448 -0.0173 -0.2737
  657MOL0     O86639   1.946   8.900   3.509 -0.0231  0.5507  0.2467
  657MOL0     C86640   2.182   9.010   3.563  0.3167 -0.3457 -0.9042
  657MOL0     C86641   2.316   9.037   3.609  1.2625 -0.1987  0.1833
  657MOL0     N86642   2.717   9.089   4.281  0.9561 -0.6823 -0.6237
  657MOL0     N86643   2.710   9.013   4.382 -0.3921  0.5676  0.7380
  657MOL0     C86644   3.576   9.646   4.586  0.3810  0.0429  0.5164
  657MOL0     C86645   3.704   9.706   4.554  0.5513 -0.5894  0.3000
  657MOL0     C86646   4.174   9.755   4.614 -0.9727 -0.4998 -0.1049
  657MOL0     C86647   4.290   9.747   4.696 -0.7622  0.3509  0.5919
  657MOL0     C86648   4.412   9.798   4.655  0.2148 -0.2972 -0.6291
  657MOL0     C86649   4.423   9.839   4.521  0.2697 -0.1248 -0.9100
  657MOL0     O86650   4.542   9.885   4.464 -0.5367 -0.0898  0.4998
  657MOL0     C86651   4.670   9.862   4.515  0.6830  0.3572  0.0998
  657MOL0     C86652   4.768   9.923   4.416 -0.3944  0.4916  1.0453
  657MOL0     C86653   4.779   9.833   4.286  0.4511  0.0694  0.1231
  657MOL0     C86654   4.913   9.858   4.223  0.1175  0.0062 -0.7633
  657MOL0     C86655   4.952   9.996   4.194  0.0887 -0.8330  0.1535
  657MOL0     C86656   4.976  10.113   4.172  0.7194  0.4764 -0.6487
  657MOL0     C86657   4.312   9.838   4.438 -0.8598 -0.2749  0.1996
  657MOL0     C86658   4.188   9.797   4.484 -0.0051 -0.6286  0.1135
  657MOL0     H86659   3.898   9.489   4.744 -0.3456  1.2285  0.5643
  657MOL0     H86660   3.684   9.385   4.771  0.5556 -0.1920 -1.3423
  657MOL0     H86661   3.423   9.405   4.498 -4.2360  3.5462 -0.3676
  657MOL0     H86662   3.294   9.389   4.620 -0.5655 -2.5831  0.8235
  657MOL0     H86663   3.422   9.217   4.736 -1.2406  0.8720 -1.1165
  657MOL0     H86664   3.557   9.229   4.638 -0.0544 -0.0870  0.5856
  657MOL0     H86665   3.452   9.042   4.544 -0.4349 -0.7678  2.4373
  657MOL0     H86666   3.406   9.180   4.436 -0.0773 -1.1283 -0.9894
  657MOL0     H86667   3.231   9.130   4.675 -1.6415 -0.0101  0.0841
  657MOL0     H86668   3.178   9.182   4.524 -0.7458  0.7517  3.8208
  657MOL0     H86669   3.251   8.888   4.571  1.3113  0.8731  0.2865
  657MOL0     H86670   3.232   8.964   4.416 -0.2186 -1.0062 -0.1299
  657MOL0     H86671   2.991   9.039   4.482 -0.5834 -0.5046  1.2431
  657MOL0     H86672   3.028   8.973   4.648 -1.6602  0.8004  0.2942
  657MOL0     H86673   3.040   8.823   4.388  2.3408 -2.2033  2.0948
  657MOL0     H86674   3.013   8.746   4.557 -4.3845 -1.8934 -1.0844
  657MOL0     H86675   2.803   8.884   4.559  2.8729  0.7238  0.2964
  657MOL0     H86676   2.794   8.730   4.464  2.3051 -0.7969 -0.1870
  657MOL0     H86677   2.897   8.842   4.170 -1.8737 -0.8956 -1.0482
  657MOL0     H86678   2.900   9.019   3.994 -0.5391 -0.1877 -0.7193
  657MOL0     H86679   2.821   9.178   4.027  0.8908 -0.0792  0.5545
  657MOL0     H86680   2.604   9.049   4.013 -0.2961  1.2201  0.5817
  657MOL0     H86681   2.705   8.934   3.919 -0.1603 -0.9733  1.0071
  657MOL0     H86682   2.657   9.225   3.857  1.0112 -0.9150 -0.9623
  657MOL0     H86683   2.786   9.132   3.778  1.0911 -2.6486 -0.5973
  657MOL0     H86684   2.588   9.000   3.680 -2.0449 -0.9629  0.8863
  657MOL0     H86685   2.576   9.172   3.643  2.7391 -0.5744 -1.0578
  657MOL0     H86686   2.213   9.133   3.930 -1.7939 -0.2606 -0.2901
  657MOL0     H86687   2.003   9.094   3.837 -0.9758  0.1594 -1.8599
  657MOL0     H86688   1.703   8.795   3.549 -2.1178 -0.7614  0.6295
  657MOL0     H86689   1.478   8.791   3.456 -0.4717  0.1841 -0.9214
  657MOL0     H86690   1.195   9.123   3.437 -2.9611  0.3761 -1.6659
  657MOL0     H86691   1.216   9.000   3.551 -0.2199 -0.2882 -0.6109
  657MOL0     H86692   1.077   8.984   3.270  2.6318  2.6502  1.8379
  657MOL0     H86693   0.992   9.003   3.419 -0.4424 -0.0098 -0.5998
  657MOL0     H86694   1.052   8.753   3.473  0.0104  0.9290  0.4664
  657MOL0     H86695   1.168   8.760   3.343 -0.5374 -1.3304 -0.4263
  657MOL0     H86696   0.925   8.646   3.312  0.9757 -1.0377 -1.9419
  657MOL0     H86697   0.882   8.817   3.274  1.6164  1.8664  0.0035
  657MOL0     H86698   1.105   8.729   3.109 -0.8728 -1.5608 -2.2023
  657MOL0     H86699   0.955   8.818   3.071 -3.6798 -1.3521 -1.5156
  657MOL0     H86700   0.962   8.514   3.092 -2.2054 -1.5150 -2.6396
  657MOL0     H86701   0.966   8.600   2.948  0.2434 -2.9377  1.1474
  657MOL0     H86702   0.747   8.567   3.151 -0.6426  2.6431  0.9901
  657MOL0     H86703   0.738   8.718   3.068  0.2215  0.7170 -1.6297
  657MOL0     H86704   0.588   8.550   2.968  0.1817 -2.0146  0.2124
  657MOL0     H86705   0.713   8.445   2.912 -0.9484  0.9597 -0.8759
  657MOL0     H86706   1.430   9.203   3.434 -1.3443 -1.0705 -0.0195
  657MOL0     H86707   1.650   9.232   3.551 -2.2208  0.2260  1.2016
  657MOL0     H86708   2.168   8.973   3.462 -4.0046  1.4682 -1.1898
  657MOL0     H86709   2.403   9.030   3.545  0.1580 -1.1897 -1.2872
  657MOL0     H86710   3.491   9.702   4.547  0.8148  1.6264  1.7267
  657MOL0     H86711   3.716   9.799   4.499  3.4521  1.3140  3.7385
  657MOL0     H86712   4.280   9.701   4.794 -2.0408  0.6912  0.6462
  657MOL0     H86713   4.493   9.804   4.728  0.0736  0.9337 -0.5459
  657MOL0     H86714   4.683   9.754   4.506  0.9366  0.4399 -0.5803
  657MOL0     H86715   4.670   9.902   4.617 -2.7841 -2.3034  1.3222
  657MOL0     H86716   4.750  10.028   4.389 -2.0108  0.2250  0.9979
  657MOL0     H86717   4.871   9.925   4.453  0.8510 -1.0322 -2.0028
  657MOL0     H86718   4.699   9.848   4.212  0.6473 -2.7359 -0.7908
  657MOL0     H86719   4.775   9.727   4.313  2.3726 -0.4250 -1.3129
  657MOL0     H86720   4.996   9.803   4.269  1.4617 -0.1820 -3.2420
  657MOL0     H86721   4.914   9.822   4.120 -1.1646 -1.7869 -0.1853
  657MOL0     H86722   4.981  10.218   4.150 -2.6099  0.6187 -1.2316
  657MOL0     H86723   4.328   9.856   4.332 -0.5988 -2.6736 -0.2342
  657MOL0     H86724   4.105   9.803   4.414 -0.0794  0.6889  0.2780
  658MOL0     O86725   0.023   8.825   9.749 -0.3767 -0.0382  0.4624
  658MOL0     C86726  -0.008   8.824   9.871  0.1799 -0.9310  0.4091
  658MOL0     O86727  -0.121   8.880   9.926 -0.2621  0.3981  0.2086
  658MOL0     C86728  -0.235   8.923   9.867 -0.8538 -0.2254  1.5780
  658MOL0     C86729  -0.329   8.961   9.961 -0.4717 -0.2406  0.6129
  658MOL0     C86730  -0.463   8.995   9.928 -0.5240 -0.0152  0.3822
  658MOL0     C86731  -0.502   8.997   9.795  0.3169 -0.0677 -0.1062
  658MOL0     O86732  -0.626   9.040   9.759 -0.0567 -0.0008  0.2322
  658MOL0     C86733  -0.739   9.006   9.837  0.0467 -0.2732  0.2127
  658MOL0     C86734  -0.799   9.130   9.920  0.3975 -0.2391 -1.0308
  658MOL0     C86735  -0.867   9.244   9.847 -0.1464  0.8875  0.2609
  658MOL0     C86736  -0.992   9.187   9.768  0.3581 -1.2019  0.4356
  658MOL0     C86737  -1.084   9.298   9.695 -0.7917 -0.7621 -0.8034
  658MOL0     C86738  -1.184   9.232   9.595 -0.0842  0.7638 -0.2848
  658MOL0     C86739  -1.272   9.338   9.531  0.0829 -0.4593  0.2220
  658MOL0     C86740  -1.319   9.288   9.397 -0.0791 -0.3769  0.6194
  658MOL0     N86741  -1.386   9.156   9.407 -0.1372 -0.5180 -0.3262
  658MOL0     C86742  -1.520   9.128   9.383 -0.8149  0.5218 -1.0408
  658MOL0     C86743  -1.533   8.996   9.387 -0.8974 -0.1966  0.8331
  658MOL0     C86744  -1.662   8.927   9.369  0.7114  0.5934  0.8067
  658MOL0     C86745  -1.651   8.784   9.309 -0.0164 -0.5402  0.3841
  658MOL0     C86746  -1.755   8.746   9.205  0.3057 -0.5682 -0.9808
  658MOL0     C86747  -1.900   8.738   9.255 -0.6511 -0.8513  0.6946
  658MOL0     O86748  -1.977   8.754   9.141 -0.9222  0.0436 -0.4056
  658MOL0     C86749  -2.108   8.719   9.154  0.0289 -0.1008 -0.4263
  658MOL0     C86750  -2.168   8.676   9.040  0.5187  0.0600  0.5079
  658MOL0     C86751  -2.301   8.641   9.032  0.1733 -0.0347  0.8668
  658MOL0     C86752  -2.380   8.638   9.146 -0.6739 -0.3558 -0.3587
  658MOL0     C86753  -2.527   8.599   9.137  0.4753 -0.6172 -0.8324
  658MOL0     O86754  -2.588   8.594   9.021  0.7554  0.1119 -0.0143
  658MOL0     C86755  -2.726   8.604   9.018 -0.2503  0.2108  0.6868
  658MOL0     C86756  -2.792   8.708   9.080  0.1942  0.9232 -0.7830
  658MOL0     C86757  -2.924   8.725   9.044  0.2460 -0.8126 -0.2241
  658MOL0     C86758  -2.989   8.636   8.961 -0.3798 -0.3013 -0.3637
  658MOL0     O86759  -3.121   8.651   8.925 -0.2932  0.2322  0.3171
  658MOL0     C86760  -3.202   8.532   8.917  0.6532  0.0157  0.1654
  658MOL0     C86761  -3.353   8.552   8.915  0.1789  0.3854 -0.7860
  658MOL0     C86762  -3.401   8.643   8.808  0.2223  0.1440 -0.2232
  658MOL0     C86763  -3.551   8.631   8.789 -0.8178  0.0479 -0.6334
  658MOL0     C86764  -3.638   8.649   8.913  1.2110 -0.0809 -0.4886
  658MOL0     C86765  -3.783   8.636   8.870 -0.6775 -0.2288 -0.3815
  658MOL0     C86766  -3.894   8.662   8.975  0.3338 -0.0523  0.4108
  658MOL0     C86767  -4.034   8.651   8.925 -0.0656 -0.3775  0.5450
  658MOL0    Cl86768  -4.102   8.492   8.879  0.1600 -0.3764  0.2200
  658MOL0     C86769  -2.921   8.534   8.895  0.1102  0.5501  0.0460
  658MOL0     C86770  -2.789   8.515   8.936  0.4540 -0.4588 -0.0562
  658MOL0     O86771  -2.585   8.580   9.249 -0.3071 -0.7043  0.5725
  658MOL0     C86772  -2.322   8.674   9.265  0.0539 -0.5905 -0.3567
  658MOL0     C86773  -2.190   8.710   9.268 -0.4608  0.1579 -0.7356
  658MOL0     N86774  -1.415   8.932   9.418  0.3628  0.2534 -0.6840
  658MOL0     N86775  -1.328   9.033   9.436 -0.2385 -0.4882  0.5550
  658MOL0     C86776  -0.407   8.965   9.690 -0.5239 -0.1883 -0.1646
  658MOL0     C86777  -0.272   8.923   9.729  0.2726  0.4650  0.0104
  658MOL0     C86778   0.072   8.752   9.968 -0.7264 -0.2620  0.3062
  658MOL0     C86779   0.194   8.701   9.920  0.3368 -1.0267  0.1011
  658MOL0     C86780   0.260   8.611   9.997 -0.6349 -0.3470 -1.1179
  658MOL0     C86781   0.220   8.585  10.131 -0.6242 -0.2346  0.4442
  658MOL0     O86782   0.297   8.500  10.203 -0.1623  0.2645  0.1001
  658MOL0     C86783   0.241   8.412  10.304  0.2994 -0.5975 -0.1767
  658MOL0     C86784   0.343   8.382  10.408 -0.7843 -0.3558 -0.8293
  658MOL0     C86785   0.448   8.280  10.366  1.4516 -0.2891 -0.4682
  658MOL0     C86786   0.565   8.283  10.461 -0.1254 -0.7287  0.7481
  658MOL0     C86787   0.542   8.188  10.570 -0.3661 -0.2410  0.3878
  658MOL0     C86788   0.533   8.114  10.663 -0.8730  0.1798  1.0768
  658MOL0     C86789   0.089   8.631  10.168 -0.2342  0.4428  0.2561
  658MOL0     C86790   0.019   8.720  10.086 -0.6055  1.1017 -0.0061
  658MOL0     H86791  -0.298   8.976  10.064 -2.2360 -0.3181  1.1987
  658MOL0     H86792  -0.530   9.013  10.011 -3.6324 -4.4213 -0.8020
  658MOL0     H86793  -0.728   8.916   9.899 -3.5673  0.3364  2.0118
  658MOL0     H86794  -0.805   8.962   9.763  0.3796 -1.6984  0.7228
  658MOL0     H86795  -0.731   9.168   9.997 -0.2632  1.8791 -1.4190
  658MOL0     H86796  -0.875   9.095   9.990 -0.2256  0.4701 -1.3388
  658MOL0     H86797  -0.798   9.285   9.773  1.1049  0.6102  1.2467
  658MOL0     H86798  -0.899   9.321   9.918 -1.7094  1.2817 -0.7988
  658MOL0     H86799  -0.967   9.107   9.698  0.5511  1.2347 -2.4876
  658MOL0     H86800  -1.062   9.139   9.837  0.9057  0.5534  2.3162
  658MOL0     H86801  -1.028   9.375   9.642 -1.3815 -1.3474 -2.3430
  658MOL0     H86802  -1.148   9.349   9.767  0.3983  2.3982 -1.8179
  658MOL0     H86803  -1.242   9.161   9.654 -2.1368  1.4720 -1.3202
  658MOL0     H86804  -1.124   9.174   9.524  2.5473 -0.5147  2.7775
  658MOL0     H86805  -1.340   9.372   9.610  0.7472 -2.6815  1.8501
  658MOL0     H86806  -1.206   9.425   9.517 -0.6671 -0.1855 -1.9945
  658MOL0     H86807  -1.225   9.275   9.342 -1.5869 -0.0037 -2.2719
  658MOL0     H86808  -1.394   9.354   9.352 -0.2764 -1.2988 -0.4583
  658MOL0     H86809  -1.594   9.203   9.355 -0.0371  1.1474 -1.4925
  658MOL0     H86810  -1.733   8.992   9.316  1.2849 -0.3473 -1.1817
  658MOL0     H86811  -1.716   8.927   9.464 -1.0556  0.1699 -0.1634
  658MOL0     H86812  -1.659   8.712   9.391  1.7393 -0.9696  0.2172
  658MOL0     H86813  -1.558   8.772   9.252 -2.7268 -2.0802 -4.3306
  658MOL0     H86814  -1.750   8.812   9.117 -2.7342 -1.1078 -1.6925
  658MOL0     H86815  -1.721   8.651   9.162  2.7781 -0.0401 -0.3497
  658MOL0     H86816  -1.924   8.815   9.329 -0.8834 -1.6025  1.4181
  658MOL0     H86817  -1.904   8.635   9.292 -2.1095 -0.7462  0.8893
  658MOL0     H86818  -2.103   8.673   8.954  1.8448  2.9852  1.2680
  658MOL0     H86819  -2.337   8.623   8.931  2.5687 -0.1073 -0.0242
  658MOL0     H86820  -2.760   8.777   9.157  1.4856 -0.3682 -0.1289
  658MOL0     H86821  -2.975   8.808   9.092  1.4762 -1.2668  2.0121
  658MOL0     H86822  -3.183   8.470   9.005 -1.1965 -0.3250  0.3599
  658MOL0     H86823  -3.168   8.474   8.831 -1.6149  0.1041 -0.8515
  658MOL0     H86824  -3.401   8.585   9.008  0.0910 -1.3102 -0.1942
  658MOL0     H86825  -3.395   8.454   8.891 -1.5839  1.1040 -0.7948
  658MOL0     H86826  -3.360   8.598   8.717 -0.3377 -2.2291  0.6092
  658MOL0     H86827  -3.368   8.746   8.821 -4.4953  2.1076 -1.5187
  658MOL0     H86828  -3.591   8.701   8.715 -2.1704 -0.7136 -0.6444
  658MOL0     H86829  -3.576   8.535   8.744 -0.2178 -1.2601  1.6839
  658MOL0     H86830  -3.623   8.754   8.941  0.2291  0.1518 -0.8020
  658MOL0     H86831  -3.614   8.574   8.988  2.1541 -0.2847 -0.9812
  658MOL0     H86832  -3.801   8.538   8.825 -1.9771  1.0865 -2.9567
  658MOL0     H86833  -3.800   8.707   8.789 -1.7372  1.3360  1.1396
  658MOL0     H86834  -3.884   8.595   9.061  2.8218  0.7154  0.8225
  658MOL0     H86835  -3.865   8.762   9.007  3.7517 -0.8680  0.3236
  658MOL0     H86836  -4.037   8.712   8.834  1.0898  0.2496  0.9070
  658MOL0     H86837  -4.102   8.698   8.996  0.0366 -0.3005  0.5917
  658MOL0     H86838  -2.964   8.472   8.817  0.9530 -1.6129  1.2127
  658MOL0     H86839  -2.725   8.437   8.897  0.5281  1.0931 -3.4032
  658MOL0     H86840  -2.380   8.664   9.355 -3.7637  0.7507 -2.4515
  658MOL0     H86841  -2.136   8.732   9.359 -1.9415 -0.2752  0.2886
  658MOL0     H86842  -0.441   8.988   9.590 -0.7319 -0.4750 -0.1597
  658MOL0     H86843  -0.196   8.904   9.653 -0.9696  0.8354 -1.3639
  658MOL0     H86844   0.224   8.725   9.818 -1.2585 -2.8923 -0.8956
  658MOL0     H86845   0.354   8.564   9.970  0.2416 -0.1797  1.3916
  658MOL0     H86846   0.211   8.316  10.259  0.5399 -0.0926 -1.4765
  658MOL0     H86847   0.155   8.453  10.357  0.7407  0.5175 -0.3025
  658MOL0     H86848   0.400   8.473  10.427 -0.5155 -0.5948 -0.4848
  658MOL0     H86849   0.294   8.349  10.500  1.3153  0.7674  0.7717
  658MOL0     H86850   0.463   8.303  10.260  1.5967 -1.1269 -0.6357
  658MOL0     H86851   0.400   8.183  10.354  1.9649 -0.3990 -1.8771
  658MOL0     H86852   0.656   8.249  10.409 -0.8656 -2.2782  0.4001
  658MOL0     H86853   0.589   8.382  10.501  2.5665 -1.1649  0.4607
  658MOL0     H86854   0.535   8.032  10.732  3.5419 -1.1171 -0.2245
  658MOL0     H86855   0.049   8.595  10.262  1.4320 -1.2493  0.3903
  658MOL0     H86856  -0.081   8.747  10.119 -0.8083  1.9320 -1.2165
  659MOL0     O86857   2.660   0.778   6.046  0.2798  0.5266 -0.1568
  659MOL0     C86858   2.665   0.856   5.949  0.6085  0.0577  0.3530
  659MOL0     O86859   2.548   0.892   5.869  0.1222  0.3329 -0.1463
  659MOL0     C86860   2.433   0.810   5.879  0.4421 -0.1966  1.0207
  659MOL0     C86861   2.317   0.859   5.938 -0.8666 -0.0730  0.3076
  659MOL0     C86862   2.206   0.777   5.946 -0.3084 -0.3489 -0.2564
  659MOL0     C86863   2.193   0.672   5.851 -0.2387 -0.1804 -0.2900
  659MOL0     O86864   2.094   0.570   5.846 -0.2124  0.0972 -0.3775
  659MOL0     C86865   1.986   0.585   5.941  0.7290 -0.4441 -0.4334
  659MOL0     C86866   1.868   0.505   5.894 -0.5088 -0.4777  0.3758
  659MOL0     C86867   1.756   0.494   5.997 -0.0643 -0.0549 -0.3163
  659MOL0     C86868   1.673   0.616   6.042 -0.0014 -0.2415  0.0219
  659MOL0     C86869   1.576   0.656   5.936 -0.4651 -0.3136  0.2539
  659MOL0     C86870   1.465   0.730   6.008 -0.1202  0.5930  0.6460
  659MOL0     C86871   1.344   0.749   5.914 -0.1815 -0.4170 -0.8422
  659MOL0     C86872   1.239   0.829   5.982 -0.0725 -0.1603 -0.2665
  659MOL0     N86873   1.151   0.886   5.882  0.2227 -0.9769 -0.7846
  659MOL0     C86874   1.027   0.838   5.843 -0.0338  0.3189  0.4462
  659MOL0     C86875   0.984   0.924   5.743  0.2616 -0.8288  0.2447
  659MOL0     C86876   0.846   0.930   5.688  0.7079 -1.5428 -0.0630
  659MOL0     C86877   0.803   1.075   5.658  0.5799  0.1523 -0.1503
  659MOL0     C86878   0.664   1.095   5.598 -0.1372 -0.4430  0.2092
  659MOL0     C86879   0.537   1.041   5.682  0.4262  0.2465 -0.0959
  659MOL0     O86880   0.421   1.032   5.606  0.2163 -0.2916 -0.1752
  659MOL0     C86881   0.310   0.961   5.652  0.4390 -0.1144  0.4606
  659MOL0     C86882   0.195   0.963   5.574  0.8586 -0.3164  0.5889
  659MOL0     C86883   0.084   0.897   5.611 -0.1306  0.4123 -1.2170
  659MOL0     C86884   0.068   0.833   5.734 -0.1397  0.2896 -0.1502
  659MOL0     C86885  -0.062   0.773   5.773  1.0442  0.1935  0.4930
  659MOL0     O86886  -0.168   0.798   5.689  0.0124 -0.6662 -0.6724
  659MOL0     C86887  -0.291   0.741   5.728 -0.8657  0.2052 -0.1760
  659MOL0     C86888  -0.307   0.601   5.729  0.2540 -0.9549 -0.0168
  659MOL0     C86889  -0.434   0.546   5.749 -0.5240 -0.4042 -0.6361
  659MOL0     C86890  -0.542   0.631   5.784  0.0541 -0.4902 -0.0033
  659MOL0     O86891  -0.665   0.577   5.808  0.1512  0.5091 -0.0419
  659MOL0     C86892  -0.788   0.651   5.791  0.0143 -0.0191 -0.7030
  659MOL0     C86893  -0.898   0.614   5.900  0.2233  0.1820 -0.8047
  659MOL0     C86894  -0.983   0.512   5.827 -0.7279  0.6206  0.0535
  659MOL0     C86895  -1.110   0.475   5.902 -0.2242  0.3989  0.9260
  659MOL0     C86896  -1.175   0.353   5.832 -0.9180 -0.0425  0.7676
  659MOL0     C86897  -1.257   0.301   5.946 -0.8560  0.4143 -0.2591
  659MOL0     C86898  -1.362   0.187   5.903 -1.4315  0.1461  0.4311
  659MOL0     C86899  -1.441   0.115   6.006  0.2224  0.9844  0.7654
  659MOL0    Cl86900  -1.347   0.031   6.129 -0.4683  0.1129  0.1149
  659MOL0     C86901  -0.521   0.767   5.808 -0.8252 -0.0274  0.5122
  659MOL0     C86902  -0.395   0.824   5.776  0.5582  0.0253 -0.0083
  659MOL0     O86903  -0.076   0.714   5.884 -0.9833 -0.2116  0.5183
  659MOL0     C86904   0.185   0.824   5.822  0.1109  0.8253  0.4255
  659MOL0     C86905   0.307   0.896   5.775  0.8237 -0.0122 -1.0549
  659MOL0     N86906   1.081   1.020   5.724  0.4354  0.7608 -0.1346
  659MOL0     N86907   1.175   1.005   5.812  0.4653 -0.0270 -0.2529
  659MOL0     C86908   2.308   0.632   5.784  0.6289  1.0492 -0.5492
  659MOL0     C86909   2.429   0.696   5.796 -0.3738 -0.5341 -0.0458
  659MOL0     C86910   2.786   0.935   5.936  0.3249  0.1384 -0.1013
  659MOL0     C86911   2.799   1.019   5.827  0.6874 -0.4140 -0.5701
  659MOL0     C86912   2.912   1.096   5.828 -1.2232 -0.6478 -0.7736
  659MOL0     C86913   3.025   1.087   5.914 -0.6013  0.1668  0.4584
  659MOL0     O86914   3.135   1.160   5.917 -0.4603 -0.0485 -0.3392
  659MOL0     C86915   3.192   1.211   5.790 -0.9631  0.1110  0.7351
  659MOL0     C86916   3.307   1.311   5.813  0.5504  0.0493 -0.0009
  659MOL0     C86917   3.374   1.361   5.681 -0.3785  0.9935  0.1993
  659MOL0     C86918   3.464   1.479   5.716  0.5732 -0.1705  0.0100
  659MOL0     C86919   3.589   1.447   5.786 -0.4876 -0.0660  0.5850
  659MOL0     C86920   3.694   1.407   5.834 -0.4671  0.8883 -0.0337
  659MOL0     C86921   3.005   1.001   6.017 -0.0597  0.0527  0.3943
  659MOL0     C86922   2.885   0.929   6.039 -0.5011  0.1055 -0.0804
  659MOL0     H86923   2.327   0.952   5.993  1.7634  0.0886 -0.3098
  659MOL0     H86924   2.127   0.813   6.011  0.7219 -2.7923  2.5799
  659MOL0     H86925   1.955   0.689   5.951 -0.5927 -0.8077 -0.6038
  659MOL0     H86926   2.024   0.559   6.041  2.2883  0.4278 -0.7631
  659MOL0     H86927   1.906   0.406   5.865  2.7161  0.8098 -0.2648
  659MOL0     H86928   1.837   0.542   5.796 -1.9878 -2.0872  0.1795
  659MOL0     H86929   1.804   0.459   6.088 -0.8286  0.0489  0.1315
  659MOL0     H86930   1.686   0.426   5.948 -0.6919  0.7710 -0.5786
  659MOL0     H86931   1.634   0.598   6.142  0.1635 -1.5444 -0.1286
  659MOL0     H86932   1.736   0.705   6.054  0.1578 -0.6931  3.2473
  659MOL0     H86933   1.530   0.569   5.887 -1.9951 -1.7219  3.8596
  659MOL0     H86934   1.621   0.724   5.863 -0.0358 -1.4230 -0.5310
  659MOL0     H86935   1.504   0.821   6.054  0.6713  1.0122 -0.7990
  659MOL0     H86936   1.426   0.664   6.086  2.5561 -3.2062 -0.9647
  659MOL0     H86937   1.376   0.801   5.823  2.5189 -0.7012 -0.1489
  659MOL0     H86938   1.308   0.651   5.882  1.8096 -0.4933 -3.1032
  659MOL0     H86939   1.286   0.911   6.037 -1.9829  2.1396 -1.8523
  659MOL0     H86940   1.183   0.761   6.047  0.0672 -0.7974 -0.7929
  659MOL0     H86941   0.981   0.750   5.887 -0.0859  0.1919  0.1410
  659MOL0     H86942   0.769   0.884   5.749 -2.4075  1.4667 -1.4117
  659MOL0     H86943   0.842   0.872   5.595  0.9935 -0.0442 -1.0503
  659MOL0     H86944   0.873   1.129   5.593 -0.3170 -0.2679 -1.5257
  659MOL0     H86945   0.804   1.131   5.752 -0.3821 -0.1931  0.0778
  659MOL0     H86946   0.649   1.201   5.575  0.6078 -0.8017 -2.1783
  659MOL0     H86947   0.659   1.044   5.501 -0.3661 -0.5914  0.2983
  659MOL0     H86948   0.516   1.115   5.760  2.2455  1.2760 -0.5429
  659MOL0     H86949   0.566   0.941   5.715  3.3753  0.0851 -2.7672
  659MOL0     H86950   0.192   1.027   5.486  0.2426  2.1155  2.2816
  659MOL0     H86951  -0.005   0.907   5.549 -1.2015  2.5671  0.5202
  659MOL0     H86952  -0.223   0.536   5.709  1.5953 -1.0357  4.6521
  659MOL0     H86953  -0.446   0.438   5.743  0.9161 -0.5058 -2.6089
  659MOL0     H86954  -0.833   0.629   5.694 -1.5676  0.0289 -0.0063
  659MOL0     H86955  -0.774   0.760   5.798  0.0801 -0.1163  1.1277
  659MOL0     H86956  -0.951   0.708   5.916  0.8496  0.2694  0.9731
  659MOL0     H86957  -0.844   0.584   5.990  1.2024 -1.2295 -1.7993
  659MOL0     H86958  -0.916   0.426   5.819 -0.7195  0.7762 -5.1757
  659MOL0     H86959  -1.015   0.545   5.728 -0.5562  1.6729  0.3337
  659MOL0     H86960  -1.097   0.446   6.006 -0.1541 -2.1129  0.2645
  659MOL0     H86961  -1.187   0.552   5.890 -1.4614 -0.5729  2.3078
  659MOL0     H86962  -1.099   0.283   5.796 -2.9947 -0.9123 -2.4468
  659MOL0     H86963  -1.244   0.367   5.748  1.0970 -0.0570 -1.0067
  659MOL0     H86964  -1.319   0.374   6.000 -2.4812 -1.6044  0.7392
  659MOL0     H86965  -1.182   0.250   6.007  0.8262  1.6736 -1.1786
  659MOL0     H86966  -1.429   0.237   5.831 -4.6403  0.3675  3.3350
  659MOL0     H86967  -1.301   0.116   5.846  0.3532  0.5103  1.7788
  659MOL0     H86968  -1.498   0.030   5.967  1.6169 -1.2729  3.2876
  659MOL0     H86969  -1.512   0.192   6.036  0.4028  1.7444 -0.6869
  659MOL0     H86970  -0.604   0.829   5.839 -2.6806 -1.1708 -1.8922
  659MOL0     H86971  -0.385   0.932   5.769 -2.1369  0.3424  0.1684
  659MOL0     H86972   0.188   0.767   5.914 -4.0342  0.4534  0.5533
  659MOL0     H86973   0.378   0.906   5.857  1.4535  0.4455 -1.6465
  659MOL0     H86974   2.295   0.546   5.718  1.9854 -0.3953  0.9954
  659MOL0     H86975   2.518   0.667   5.742  2.0676 -1.1915  3.9363
  659MOL0     H86976   2.714   1.023   5.759 -1.2918  0.7978  1.8054
  659MOL0     H86977   2.920   1.171   5.750 -1.0230 -0.7514 -0.8548
  659MOL0     H86978   3.126   1.262   5.719  0.3956  0.1804 -0.5135
  659MOL0     H86979   3.226   1.119   5.741  2.1512  2.1648 -1.3668
  659MOL0     H86980   3.263   1.394   5.869 -2.1513 -0.8659 -0.6366
  659MOL0     H86981   3.381   1.265   5.879 -0.3467 -0.8274  0.4228
  659MOL0     H86982   3.298   1.384   5.606 -0.8819 -1.2994 -0.0577
  659MOL0     H86983   3.433   1.282   5.634 -1.9480  0.5140 -1.0260
  659MOL0     H86984   3.472   1.548   5.631  0.4986 -0.4254 -0.2063
  659MOL0     H86985   3.407   1.544   5.784 -0.3905 -1.2909  0.2939
  659MOL0     H86986   3.788   1.370   5.870 -1.9169 -3.0805  0.1400
  659MOL0     H86987   3.095   0.993   6.077  0.2886  0.5400 -0.0598
  659MOL0     H86988   2.895   0.863   6.124  3.7535  0.7943  0.2082
  660MOL0     O86989   3.569   5.272   7.860  0.3084 -0.6765  0.0859
  660MOL0     C86990   3.513   5.373   7.893  0.1626 -0.5045  0.5073
  660MOL0     O86991   3.570   5.478   7.948  0.3646  0.0536  0.2545
  660MOL0     C86992   3.703   5.505   7.958 -0.8633 -0.6619  0.3829
  660MOL0     C86993   3.743   5.613   8.042  0.0085  0.3466 -0.1457
  660MOL0     C86994   3.876   5.644   8.067 -0.4138 -0.1644  0.6106
  660MOL0     C86995   3.980   5.570   8.009 -0.4154  0.2465  0.3696
  660MOL0     O86996   4.110   5.613   8.023  0.1711  0.7982 -0.2798
  660MOL0     C86997   4.198   5.607   7.904 -0.6595 -0.1560 -0.5802
  660MOL0     C86998   4.312   5.702   7.917 -0.1725  0.3973 -0.3874
  660MOL0     C86999   4.420   5.697   7.801 -0.1966  0.7880 -0.8822
  660MOL0     C87000   4.511   5.824   7.834  0.4250 -0.4898  0.6441
  660MOL0     C87001   4.620   5.850   7.727 -0.1113 -0.6215 -0.5247
  660MOL0     C87002   4.726   5.730   7.727 -0.8245  1.0852 -0.6898
  660MOL0     C87003   4.839   5.725   7.834  0.4003 -0.0148 -0.3594
  660MOL0     C87004   4.886   5.572   7.866  0.6308 -0.2192  0.1573
  660MOL0     N87005   4.914   5.516   7.730  0.1091 -0.2846 -0.2148
  660MOL0     C87006   4.998   5.557   7.631  0.2851 -0.8750  0.3091
  660MOL0     C87007   4.995   5.451   7.541 -0.1663  0.5611  0.2085
  660MOL0     C87008   5.048   5.473   7.400  0.0957 -0.2190  0.4354
  660MOL0     C87009   4.942   5.513   7.287 -0.4479 -0.1932  0.4483
  660MOL0     C87010   4.897   5.647   7.313  0.1111  0.0459  0.3179
  660MOL0     C87011   4.801   5.701   7.212 -0.3635 -0.1494 -0.2042
  660MOL0     O87012   4.763   5.830   7.255  0.6152 -0.1235 -0.5710
  660MOL0     C87013   4.638   5.875   7.222 -0.5155  0.0541  0.1086
  660MOL0     C87014   4.576   5.953   7.318  0.2756 -0.0081  0.5367
  660MOL0     C87015   4.452   6.014   7.297 -0.2486 -0.1206  0.2473
  660MOL0     C87016   4.375   5.973   7.182 -0.4930 -0.4657 -0.5609
  660MOL0     C87017   4.228   5.984   7.183  1.0109 -0.6468  0.4504
  660MOL0     O87018   4.163   6.048   7.284  0.2328  0.7959  0.6988
  660MOL0     C87019   4.029   6.068   7.254 -0.1859  1.2491  0.8205
  660MOL0     C87020   3.932   5.974   7.291  0.0343 -0.3719 -0.5098
  660MOL0     C87021   3.800   6.005   7.282 -0.5650  0.3286 -0.1984
  660MOL0     C87022   3.757   6.136   7.257  0.1673  0.0271  0.2560
  660MOL0     O87023   3.626   6.185   7.245 -0.4100  0.6441  0.0017
  660MOL0     C87024   3.530   6.081   7.256  0.5849  0.0471 -0.4525
  660MOL0     C87025   3.394   6.145   7.269 -0.4026  1.5313  0.6686
  660MOL0     C87026   3.263   6.056   7.247  1.3732  0.5882  0.2673
  660MOL0     C87027   3.263   5.957   7.125  1.0558 -0.2491 -0.0750
  660MOL0     C87028   3.139   5.861   7.109 -0.6619 -0.2219 -0.3130
  660MOL0     C87029   3.150   5.770   6.985  0.2760  0.7324 -0.4743
  660MOL0     C87030   3.027   5.685   6.951 -0.1690  0.5673 -0.0442
  660MOL0     C87031   2.896   5.760   6.938 -0.1751 -0.3125 -0.8198
  660MOL0    Cl87032   2.899   5.809   6.756 -0.0773  0.2081  0.3307
  660MOL0     C87033   3.847   6.228   7.218 -0.2783 -0.4168 -0.4536
  660MOL0     C87034   3.985   6.189   7.216  0.1344 -0.8829 -0.2039
  660MOL0     O87035   4.176   5.952   7.077  1.5750 -0.8974  0.4878
  660MOL0     C87036   4.444   5.904   7.077 -0.3881  0.2768 -0.6940
  660MOL0     C87037   4.575   5.856   7.101 -1.2055 -0.3714  0.4130
  660MOL0     N87038   4.911   5.348   7.584  0.2753  0.5989  0.9513
  660MOL0     N87039   4.857   5.396   7.689 -0.3776 -0.2255 -0.6565
  660MOL0     C87040   3.946   5.459   7.926  0.0786  0.6549 -0.1137
  660MOL0     C87041   3.812   5.430   7.900 -0.6069 -0.7593 -0.0213
  660MOL0     C87042   3.368   5.405   7.846 -0.0242  0.0443 -0.6579
  660MOL0     C87043   3.298   5.503   7.911  0.3583 -0.5289  0.0436
  660MOL0     C87044   3.166   5.542   7.878  0.6961 -0.0306 -0.5642
  660MOL0     C87045   3.104   5.460   7.782 -0.6037 -0.4605 -0.2216
  660MOL0     O87046   2.981   5.489   7.735 -0.0054  0.3349 -0.1248
  660MOL0     C87047   2.923   5.620   7.762  0.6782 -0.0432  0.2267
  660MOL0     C87048   2.791   5.642   7.689  0.0484 -0.5370 -0.0208
  660MOL0     C87049   2.696   5.523   7.720  0.2556 -0.9582 -0.6131
  660MOL0     C87050   2.562   5.546   7.666 -0.7258 -0.0344 -0.6398
  660MOL0     C87051   2.557   5.537   7.522 -0.4222 -0.5463 -0.2412
  660MOL0     C87052   2.552   5.512   7.402  0.2874 -0.0478  0.1898
  660MOL0     C87053   3.167   5.351   7.726 -0.3899  0.7671 -0.1607
  660MOL0     C87054   3.303   5.319   7.753 -0.2082 -0.2645 -1.5770
  660MOL0     H87055   3.664   5.673   8.086  0.3651  0.7055  0.0090
  660MOL0     H87056   3.899   5.737   8.118 -0.4808  0.7358 -0.9358
  660MOL0     H87057   4.143   5.648   7.819 -0.9395 -1.1209 -0.8871
  660MOL0     H87058   4.229   5.505   7.878  0.1700  0.2297 -1.1096
  660MOL0     H87059   4.366   5.687   8.011  1.5396  2.4358 -0.9468
  660MOL0     H87060   4.284   5.807   7.928  3.7375  1.4840  0.8209
  660MOL0     H87061   4.381   5.709   7.700  0.7602 -1.1677 -1.5413
  660MOL0     H87062   4.475   5.603   7.807  2.8112  2.4589  0.0803
  660MOL0     H87063   4.446   5.912   7.833  1.2839  0.1582 -1.0435
  660MOL0     H87064   4.562   5.811   7.930 -0.0438 -0.5597  0.8851
  660MOL0     H87065   4.677   5.941   7.747  3.5995 -2.9151  0.3642
  660MOL0     H87066   4.560   5.858   7.636 -1.4200  1.1274  0.4308
  660MOL0     H87067   4.778   5.735   7.630 -0.1416  0.4124 -0.3748
  660MOL0     H87068   4.671   5.636   7.733 -0.4237  0.9021  0.3350
  660MOL0     H87069   4.923   5.789   7.805  0.0231  0.7344  0.1555
  660MOL0     H87070   4.794   5.763   7.926 -0.6085  0.2180 -0.9372
  660MOL0     H87071   4.809   5.512   7.915 -0.7122  2.0676  0.9991
  660MOL0     H87072   4.975   5.560   7.929 -0.6348 -1.2129  1.8187
  660MOL0     H87073   5.043   5.655   7.619 -1.1198  0.0127  1.9013
  660MOL0     H87074   5.083   5.374   7.369 -1.8988 -0.0164 -3.0010
  660MOL0     H87075   5.129   5.545   7.399  0.0764 -0.1619  1.4774
  660MOL0     H87076   4.857   5.444   7.283 -1.5053  1.0606  0.4868
  660MOL0     H87077   4.998   5.506   7.194 -0.1805 -0.4487  0.6249
  660MOL0     H87078   4.851   5.645   7.413 -0.8356 -1.1835 -0.1251
  660MOL0     H87079   4.979   5.719   7.311 -0.4957  0.8011  1.3466
  660MOL0     H87080   4.713   5.638   7.192 -0.9687  0.0318  1.6478
  660MOL0     H87081   4.849   5.697   7.114  0.9233 -0.4157  0.4205
  660MOL0     H87082   4.634   5.973   7.408  1.4623  4.4516 -0.9488
  660MOL0     H87083   4.413   6.076   7.377 -1.2255  1.5772 -1.4452
  660MOL0     H87084   3.971   5.880   7.328  1.8832 -1.1979 -4.1660
  660MOL0     H87085   3.723   5.933   7.307 -3.1904  2.0889 -2.4375
  660MOL0     H87086   3.544   6.019   7.346  1.5160 -3.3186 -2.7135
  660MOL0     H87087   3.536   6.026   7.162 -1.9871  1.9515 -1.8413
  660MOL0     H87088   3.397   6.214   7.184 -0.6716  0.0887 -0.5554
  660MOL0     H87089   3.379   6.198   7.364 -1.2549  1.2830  0.6784
  660MOL0     H87090   3.169   6.111   7.233 -0.3100 -2.7166 -3.3117
  660MOL0     H87091   3.255   5.993   7.336 -0.5397  0.0895 -0.2175
  660MOL0     H87092   3.266   6.019   7.035 -0.3636  1.8794  1.2652
  660MOL0     H87093   3.352   5.893   7.128 -0.5567 -2.6299  2.5262
  660MOL0     H87094   3.064   5.938   7.090  1.6419  1.7575 -2.0500
  660MOL0     H87095   3.112   5.805   7.198 -4.1691  0.6755 -0.6863
  660MOL0     H87096   3.232   5.703   7.014 -0.7685  0.6806  2.7701
  660MOL0     H87097   3.180   5.824   6.895 -2.7700  0.8277 -1.5137
  660MOL0     H87098   3.031   5.627   6.859 -0.1788 -0.4575  0.5822
  660MOL0     H87099   3.026   5.614   7.034 -0.8118 -1.1379 -1.4615
  660MOL0     H87100   2.892   5.834   7.019  1.9014 -1.7258  0.6843
  660MOL0     H87101   2.803   5.702   6.950 -0.7992  1.2295  4.0779
  660MOL0     H87102   3.818   6.331   7.200  1.5588  0.2226  0.1052
  660MOL0     H87103   4.063   6.262   7.196  1.2801 -0.3165  4.9897
  660MOL0     H87104   4.389   5.881   6.987 -2.2382 -2.7760  1.0378
  660MOL0     H87105   4.630   5.813   7.018 -1.6041  1.5342 -0.8896
  660MOL0     H87106   4.018   5.386   7.891 -1.0059 -0.0195 -0.9763
  660MOL0     H87107   3.793   5.339   7.843 -0.0962 -1.8120  1.4067
  660MOL0     H87108   3.349   5.557   7.990  1.1976  0.4091 -1.1179
  660MOL0     H87109   3.108   5.617   7.930  1.3197  0.0498  0.0264
  660MOL0     H87110   2.998   5.694   7.731 -0.4369  0.9025 -0.2734
  660MOL0     H87111   2.910   5.629   7.870 -2.0554 -1.5416  0.1218
  660MOL0     H87112   2.750   5.737   7.726 -0.5554 -1.5242  2.0273
  660MOL0     H87113   2.813   5.643   7.582 -0.1759 -5.9234 -0.3985
  660MOL0     H87114   2.679   5.504   7.826  1.0384  0.3808 -0.2180
  660MOL0     H87115   2.742   5.431   7.683 -0.0265 -0.6074 -1.9145
  660MOL0     H87116   2.499   5.463   7.700 -2.2929  1.2653 -0.2900
  660MOL0     H87117   2.511   5.640   7.689 -0.3491  0.1312 -0.4772
  660MOL0     H87118   2.532   5.480   7.302 -2.7013  1.2947  0.2403
  660MOL0     H87119   3.118   5.304   7.640 -0.0895  0.4495 -0.1591
  660MOL0     H87120   3.359   5.238   7.707  2.1734 -1.0315  2.2135
  661MOL0     O87121  10.018   7.984   4.656 -0.6399 -0.1234 -0.9974
  661MOL0     C87122  10.083   7.898   4.719 -0.8854  0.4285 -0.9426
  661MOL0     O87123  10.041   7.782   4.765 -0.6725 -0.4414 -0.9079
  661MOL0     C87124   9.920   7.727   4.762 -0.1817 -0.3185  0.2781
  661MOL0     C87125   9.819   7.758   4.675 -1.0153 -0.6291 -0.3890
  661MOL0     C87126   9.698   7.693   4.674  0.5052 -0.2032 -0.5957
  661MOL0     C87127   9.680   7.597   4.773  0.1031 -0.5061  1.1030
  661MOL0     O87128   9.549   7.546   4.787 -0.6750 -0.3069 -0.3813
  661MOL0     C87129   9.521   7.419   4.854  0.1991  0.7424  0.2558
  661MOL0     C87130   9.595   7.296   4.803 -0.1151 -0.0597  0.2408
  661MOL0     C87131   9.562   7.181   4.895 -1.2749  0.7603 -0.5466
  661MOL0     C87132   9.610   7.041   4.821  0.0881  0.2149 -0.0918
  661MOL0     C87133   9.634   6.947   4.938 -0.0417  0.1491  0.9406
  661MOL0     C87134   9.774   6.965   4.999 -0.1019  0.0264  0.7786
  661MOL0     C87135   9.839   6.830   5.044  0.3863 -0.2660 -1.0144
  661MOL0     C87136   9.961   6.844   5.127  0.6438  0.5165 -0.2247
  661MOL0     N87137  10.085   6.889   5.067 -0.3088  0.2841  0.4108
  661MOL0     C87138  10.190   6.815   5.035 -0.0171  0.0373  0.4962
  661MOL0     C87139  10.287   6.907   4.992  0.3410  0.2802 -0.0382
  661MOL0     C87140  10.416   6.876   4.928  0.5304  0.6585  0.1922
  661MOL0     C87141  10.402   6.771   4.811 -0.3588  0.4280 -0.5409
  661MOL0     C87142  10.330   6.830   4.685 -0.9199 -0.3622  0.3358
  661MOL0     C87143  10.178   6.813   4.678 -1.0831  0.4149  0.1070
  661MOL0     O87144  10.156   6.679   4.609 -0.7023 -0.2682 -0.2517
  661MOL0     C87145  10.023   6.644   4.586  0.4631  0.0455 -0.0571
  661MOL0     C87146   9.912   6.716   4.625 -0.1875 -0.5000  0.3593
  661MOL0     C87147   9.782   6.671   4.597 -0.8843 -0.5205  0.0212
  661MOL0     C87148   9.764   6.545   4.544 -0.1674 -1.0038 -0.3992
  661MOL0     C87149   9.633   6.497   4.505  0.6130  0.3541  0.1884
  661MOL0     O87150   9.531   6.551   4.585 -0.1632  0.3576  0.3018
  661MOL0     C87151   9.404   6.512   4.550  0.3005  0.5022 -0.9055
  661MOL0     C87152   9.322   6.592   4.471  0.4797 -0.4149 -0.6755
  661MOL0     C87153   9.194   6.548   4.443  0.2810 -0.7630  0.3554
  661MOL0     C87154   9.148   6.424   4.484 -0.2540 -0.6754 -0.5341
  661MOL0     O87155   9.017   6.387   4.462 -0.4897  0.1572 -0.3516
  661MOL0     C87156   8.947   6.367   4.590 -1.3053  0.1356  1.1676
  661MOL0     C87157   8.809   6.316   4.564 -0.5116 -0.8328 -0.1577
  661MOL0     C87158   8.707   6.431   4.506  0.7235 -0.3550 -0.4775
  661MOL0     C87159   8.677   6.556   4.597  0.5655  0.3686  0.2357
  661MOL0     C87160   8.586   6.519   4.718 -0.0422 -0.0247 -0.5379
  661MOL0     C87161   8.539   6.645   4.794 -0.0864  0.0527  0.4404
  661MOL0     C87162   8.440   6.621   4.916 -0.3866  0.3161  0.8099
  661MOL0     C87163   8.522   6.616   5.047 -0.3840 -1.1395  0.0559
  661MOL0    Cl87164   8.565   6.795   5.093  0.4278 -0.6936  0.2724
  661MOL0     C87165   9.237   6.333   4.549 -0.0362 -0.0856 -0.0485
  661MOL0     C87166   9.358   6.385   4.591 -0.9187  0.2922 -0.4568
  661MOL0     O87167   9.618   6.422   4.414 -0.0363  0.8185 -1.1876
  661MOL0     C87168   9.877   6.470   4.505 -0.4436 -0.3126  0.5613
  661MOL0     C87169  10.006   6.523   4.531 -0.0326 -0.4410 -0.1920
  661MOL0     N87170  10.237   7.032   5.019 -0.3776 -0.3476  0.4445
  661MOL0     N87171  10.116   7.021   5.059  1.5566  0.1857 -0.3283
  661MOL0     C87172   9.786   7.563   4.862  0.6498 -0.7731 -0.3414
  661MOL0     C87173   9.904   7.627   4.861 -0.3085  0.1337 -0.0108
  661MOL0     C87174  10.223   7.914   4.715 -0.6296 -0.0106  0.0543
  661MOL0     C87175  10.277   8.030   4.658 -0.0136 -0.1516  0.5565
  661MOL0     C87176  10.415   8.051   4.666 -0.8649  0.0181  0.5515
  661MOL0     C87177  10.506   7.961   4.725 -0.6202 -0.2163 -1.4200
  661MOL0     O87178  10.642   7.981   4.726  0.5604  1.4634 -0.1314
  661MOL0     C87179  10.690   8.117   4.739  0.3002  0.3239  0.0536
  661MOL0     C87180  10.836   8.122   4.715 -0.0633 -0.0033  0.4986
  661MOL0     C87181  10.897   8.255   4.774  0.1805  0.1672 -0.0119
  661MOL0     C87182  11.046   8.268   4.795  0.2369 -0.8707 -0.2776
  661MOL0     C87183  11.125   8.263   4.672  0.4106  0.1013 -0.3205
  661MOL0     C87184  11.201   8.235   4.574 -0.2752  0.0864 -0.9492
  661MOL0     C87185  10.452   7.835   4.760 -0.9110 -0.5782  0.3851
  661MOL0     C87186  10.316   7.820   4.762 -0.7746  0.2352  0.4068
  661MOL0     H87187   9.833   7.845   4.611 -0.4358  1.0672  1.9235
  661MOL0     H87188   9.630   7.729   4.597  1.5543  2.1602 -0.5187
  661MOL0     H87189   9.418   7.391   4.829 -0.0462 -0.0841  2.0579
  661MOL0     H87190   9.520   7.441   4.961 -0.9327  0.0713  0.3934
  661MOL0     H87191   9.702   7.311   4.783  0.2628 -1.0537  1.4211
  661MOL0     H87192   9.565   7.275   4.700  2.9730 -0.9070 -0.5942
  661MOL0     H87193   9.453   7.176   4.899 -1.2481 -0.2598 -0.8352
  661MOL0     H87194   9.606   7.192   4.994  2.3016 -3.5394 -1.3465
  661MOL0     H87195   9.532   7.004   4.753  0.1035 -1.5804  0.8014
  661MOL0     H87196   9.702   7.051   4.762  0.9556 -0.6317  1.0622
  661MOL0     H87197   9.630   6.849   4.890  0.1307 -1.2042  3.5095
  661MOL0     H87198   9.555   6.952   5.013  0.5545 -1.9937  1.7999
  661MOL0     H87199   9.763   7.040   5.077  1.4623  0.7122  0.3639
  661MOL0     H87200   9.840   7.013   4.927 -3.1765  2.0264 -0.9165
  661MOL0     H87201   9.773   6.771   5.108  0.1621 -3.1140 -3.6310
  661MOL0     H87202   9.863   6.767   4.958 -0.3245  0.4019 -1.7217
  661MOL0     H87203   9.974   6.742   5.162 -0.8483  0.9468  1.7228
  661MOL0     H87204   9.932   6.897   5.218  3.3135 -0.7787  1.4908
  661MOL0     H87205  10.188   6.707   5.023 -0.1719 -0.0953  1.6184
  661MOL0     H87206  10.487   6.846   5.005 -0.4589 -0.5925  0.6527
  661MOL0     H87207  10.449   6.969   4.882  0.1420  0.8182  0.2303
  661MOL0     H87208  10.350   6.683   4.849  0.4642  0.3928  0.5534
  661MOL0     H87209  10.498   6.733   4.776 -0.8420 -1.3967  0.0248
  661MOL0     H87210  10.348   6.938   4.684  0.3764 -0.3939  4.0822
  661MOL0     H87211  10.385   6.800   4.595  0.6138 -0.9716  1.4319
  661MOL0     H87212  10.135   6.897   4.623  0.3013  0.6557 -0.6556
  661MOL0     H87213  10.131   6.800   4.776  2.0571 -1.5933  1.4958
  661MOL0     H87214   9.931   6.816   4.662  1.6516  0.6764 -3.3546
  661MOL0     H87215   9.711   6.745   4.632 -1.7826 -1.3470 -0.0237
  661MOL0     H87216   9.349   6.693   4.442  0.1979 -0.1267  0.0363
  661MOL0     H87217   9.129   6.619   4.392  0.7426  0.5501  1.5313
  661MOL0     H87218   8.944   6.464   4.641  0.7002  0.3285  1.0118
  661MOL0     H87219   8.999   6.287   4.645  1.3088  1.2121  0.4312
  661MOL0     H87220   8.772   6.276   4.659  1.8894 -2.1110  0.3011
  661MOL0     H87221   8.825   6.236   4.491  0.4895  2.6242 -4.1082
  661MOL0     H87222   8.619   6.370   4.484  2.2098 -3.7905  1.9650
  661MOL0     H87223   8.750   6.488   4.424  0.2452  0.6635 -0.0417
  661MOL0     H87224   8.765   6.605   4.640 -0.3004  1.8719  0.3545
  661MOL0     H87225   8.632   6.632   4.532 -0.6258  0.2324  0.8735
  661MOL0     H87226   8.653   6.456   4.777 -0.2823  0.8652  0.7322
  661MOL0     H87227   8.494   6.465   4.694  0.3438 -0.3265 -1.4118
  661MOL0     H87228   8.498   6.707   4.713  1.3055  1.1119  0.5194
  661MOL0     H87229   8.632   6.691   4.829  0.5376 -0.7015 -0.1849
  661MOL0     H87230   8.361   6.697   4.913 -0.7298 -0.0153 -2.2454
  661MOL0     H87231   8.400   6.520   4.907  0.4458  0.0182  0.2365
  661MOL0     H87232   8.614   6.559   5.036  1.7747  2.3000 -1.4193
  661MOL0     H87233   8.461   6.578   5.130  2.7042  0.5372  3.3795
  661MOL0     H87234   9.210   6.230   4.569  0.0764 -0.2987 -0.9741
  661MOL0     H87235   9.425   6.324   4.650 -1.1778  0.9042  0.4763
  661MOL0     H87236   9.875   6.376   4.450 -1.0366 -2.1114  3.4527
  661MOL0     H87237  10.092   6.463   4.503  0.6976  1.2712 -1.8760
  661MOL0     H87238   9.773   7.488   4.939  2.7162 -1.3451 -0.4992
  661MOL0     H87239   9.991   7.597   4.918 -1.5083  1.2415  2.5618
  661MOL0     H87240  10.218   8.094   4.594  1.1297 -2.7230 -3.4679
  661MOL0     H87241  10.442   8.149   4.627 -4.3164  0.1688 -1.9026
  661MOL0     H87242  10.665   8.157   4.837 -1.1283 -0.4803  0.0392
  661MOL0     H87243  10.645   8.180   4.662  1.4344  1.3115  0.1639
  661MOL0     H87244  10.878   8.036   4.767  0.9668  0.4317  0.4277
  661MOL0     H87245  10.864   8.109   4.610  1.4347  0.5466  0.7972
  661MOL0     H87246  10.854   8.261   4.874  3.8062 -1.6764  1.8676
  661MOL0     H87247  10.872   8.345   4.717  1.7757  1.4520  1.2199
  661MOL0     H87248  11.073   8.355   4.855  0.8953 -1.0187 -0.3545
  661MOL0     H87249  11.087   8.183   4.850 -0.1996 -0.3119  0.9461
  661MOL0     H87250  11.249   8.214   4.481 -0.9376 -1.6747 -0.9278
  661MOL0     H87251  10.522   7.754   4.780  0.8712  0.7991  0.0260
  661MOL0     H87252  10.276   7.722   4.786  0.1855  0.3859  2.9397
  662MOL0     O87253  10.362   6.696   7.474  0.1277 -0.9130 -0.3762
  662MOL0     C87254  10.437   6.787   7.504  0.1085 -0.3044  0.2029
  662MOL0     O87255  10.408   6.919   7.499  0.0762  0.0956 -0.8993
  662MOL0     C87256  10.265   6.946   7.504  0.5131 -0.1196 -0.8164
  662MOL0     C87257  10.177   6.877   7.594 -0.1335  0.5647 -0.0480
  662MOL0     C87258  10.042   6.916   7.601 -0.8499 -0.2975  0.6194
  662MOL0     C87259   9.988   7.011   7.504 -0.4777  0.0188 -0.4550
  662MOL0     O87260   9.866   7.068   7.513 -0.0323 -0.5124 -0.1558
  662MOL0     C87261   9.824   7.084   7.642 -0.0574  0.2459  0.0794
  662MOL0     C87262   9.716   7.198   7.646  1.0949  0.2717  0.4474
  662MOL0     C87263   9.672   7.210   7.793  0.0084 -0.6639 -0.6029
  662MOL0     C87264   9.542   7.298   7.819  0.2482 -0.3361 -0.3051
  662MOL0     C87265   9.524   7.368   7.957 -0.6392  0.2021 -0.4357
  662MOL0     C87266   9.457   7.297   8.064  0.9189 -0.1547  0.0998
  662MOL0     C87267   9.301   7.284   8.041 -0.1554  0.7973 -0.0045
  662MOL0     C87268   9.209   7.397   8.088  0.7246  0.3184  0.2890
  662MOL0     N87269   9.066   7.383   8.048 -0.1101  0.7056  0.0580
  662MOL0     C87270   8.984   7.485   7.998  0.7731  0.4961 -0.1676
  662MOL0     C87271   8.859   7.437   7.978 -0.7155  0.7097 -0.5113
  662MOL0     C87272   8.723   7.486   7.911  0.0942 -0.5733  0.1531
  662MOL0     C87273   8.598   7.433   7.980 -0.4547 -0.4157 -0.1496
  662MOL0     C87274   8.593   7.461   8.127 -0.4744  0.7710  0.1159
  662MOL0     C87275   8.453   7.443   8.182 -0.0276 -0.8626 -0.2198
  662MOL0     O87276   8.377   7.341   8.124 -0.0862 -0.5908 -0.5868
  662MOL0     C87277   8.242   7.354   8.136  0.7586  0.2401 -0.0200
  662MOL0     C87278   8.172   7.270   8.053  0.0487  0.1262  0.3740
  662MOL0     C87279   8.029   7.295   8.048 -0.5944  0.1835  0.5238
  662MOL0     C87280   7.963   7.387   8.130 -0.3267 -0.7056 -0.3294
  662MOL0     C87281   7.822   7.410   8.111  0.1800 -1.3428  0.2238
  662MOL0     O87282   7.770   7.497   8.208 -1.2093 -0.7773 -0.4812
  662MOL0     C87283   7.647   7.551   8.194  0.6071  0.2570 -0.4694
  662MOL0     C87284   7.596   7.618   8.085  0.5742 -0.2090  0.9282
  662MOL0     C87285   7.481   7.688   8.077  0.0783 -0.5998  0.1663
  662MOL0     C87286   7.411   7.711   8.189  0.0290 -0.0752  0.0285
  662MOL0     O87287   7.304   7.791   8.164 -0.5160 -0.4382  0.2159
  662MOL0     C87288   7.197   7.798   8.264 -0.2914  0.0556 -0.0058
  662MOL0     C87289   7.061   7.846   8.204  0.0618 -0.1015  0.3848
  662MOL0     C87290   6.945   7.825   8.306  0.6099 -0.5254 -0.2300
  662MOL0     C87291   6.810   7.818   8.236  0.2914 -0.2543 -0.3618
  662MOL0     C87292   6.708   7.862   8.336  0.0011  0.3232 -0.6867
  662MOL0     C87293   6.566   7.859   8.269 -0.6444  0.2462  0.3319
  662MOL0     C87294   6.449   7.913   8.357 -0.7042 -0.3975 -0.1474
  662MOL0     C87295   6.309   7.849   8.305 -0.8275 -0.1609  0.1299
  662MOL0    Cl87296   6.256   7.923   8.148  0.0812 -0.2281 -0.1660
  662MOL0     C87297   7.448   7.653   8.313 -0.1361 -0.3509  0.6008
  662MOL0     C87298   7.568   7.569   8.320  0.8341 -0.9748  0.8133
  662MOL0     O87299   7.763   7.357   8.020 -0.1731  0.3711  0.9272
  662MOL0     C87300   8.036   7.433   8.237 -0.0801 -0.9564  0.4863
  662MOL0     C87301   8.177   7.427   8.236  0.5683  0.6081  1.3284
  662MOL0     N87302   8.868   7.307   8.016  0.3123  0.8713 -0.4017
  662MOL0     N87303   8.984   7.277   8.051  0.1968 -0.3179 -0.2053
  662MOL0     C87304  10.080   7.068   7.416 -0.3292 -0.6046  0.2370
  662MOL0     C87305  10.220   7.054   7.420  1.0990 -0.4084 -0.8854
  662MOL0     C87306  10.561   6.745   7.579  0.1116  0.4255 -0.1781
  662MOL0     C87307  10.636   6.838   7.659 -1.1494  0.8398  0.1017
  662MOL0     C87308  10.742   6.781   7.721 -0.7486 -0.3767  0.0663
  662MOL0     C87309  10.800   6.653   7.688 -0.4817 -0.3051 -2.0215
  662MOL0     O87310  10.915   6.603   7.751  0.1788  1.0173  0.2364
  662MOL0     C87311  11.019   6.687   7.807 -0.5616 -0.5343 -1.3376
  662MOL0     C87312  11.158   6.656   7.755 -0.7370  0.0448  0.8815
  662MOL0     C87313  11.206   6.515   7.801  0.5069 -0.5859  0.2503
  662MOL0     C87314  11.259   6.519   7.949  0.0075 -0.2306 -0.1873
  662MOL0     C87315  11.329   6.394   7.957 -0.2493  0.5123  0.6235
  662MOL0     C87316  11.397   6.295   7.957 -0.6723  0.7282  0.0273
  662MOL0     C87317  10.728   6.571   7.613 -0.1611 -0.0147  0.1575
  662MOL0     C87318  10.605   6.613   7.553 -0.7122  0.8904 -0.3701
  662MOL0     H87319  10.210   6.796   7.659  0.8505 -0.6173 -1.9227
  662MOL0     H87320   9.981   6.864   7.674 -0.1129 -0.3022  1.2419
  662MOL0     H87321   9.901   7.114   7.714 -1.2676  0.5974  1.2845
  662MOL0     H87322   9.780   6.993   7.686  1.1078  0.4948  1.8743
  662MOL0     H87323   9.638   7.179   7.571  2.0642  0.8040 -0.7333
  662MOL0     H87324   9.745   7.300   7.620 -1.7891  0.9537 -0.4904
  662MOL0     H87325   9.751   7.266   7.845 -1.9047  0.6317  1.0950
  662MOL0     H87326   9.663   7.108   7.832  0.7849 -1.3405 -2.1189
  662MOL0     H87327   9.544   7.372   7.738 -2.0989 -0.3632 -0.4565
  662MOL0     H87328   9.449   7.245   7.796 -1.7747  2.9117 -0.1806
  662MOL0     H87329   9.468   7.461   7.943  0.1012  0.7577  0.2187
  662MOL0     H87330   9.625   7.394   7.990 -1.0105 -0.0985  0.9857
  662MOL0     H87331   9.468   7.351   8.158 -2.9722 -0.3086  0.8461
  662MOL0     H87332   9.499   7.198   8.080  0.3249 -0.1818  1.6857
  662MOL0     H87333   9.284   7.256   7.936 -0.5953 -0.3563  0.3588
  662MOL0     H87334   9.266   7.192   8.089  0.7201 -1.6145 -3.6096
  662MOL0     H87335   9.244   7.491   8.044 -0.9568  2.2841  2.8237
  662MOL0     H87336   9.224   7.401   8.196  3.7363  0.1632 -0.0263
  662MOL0     H87337   9.013   7.589   7.988  4.0241 -0.0214  2.2232
  662MOL0     H87338   8.715   7.472   7.803 -0.6011 -0.7279  0.2205
  662MOL0     H87339   8.717   7.595   7.917 -2.3905 -0.6177 -0.3940
  662MOL0     H87340   8.592   7.323   7.975 -2.0494 -0.4744  1.8522
  662MOL0     H87341   8.508   7.482   7.944 -1.2100  0.6135  2.8897
  662MOL0     H87342   8.654   7.384   8.175 -3.3692 -0.9964  1.2454
  662MOL0     H87343   8.639   7.557   8.153 -3.2001  2.7539 -1.8093
  662MOL0     H87344   8.404   7.536   8.154 -0.5671 -0.9626  0.3682
  662MOL0     H87345   8.464   7.444   8.291 -0.3900 -1.8776 -0.1665
  662MOL0     H87346   8.220   7.196   7.989  0.0061  0.5797 -0.1926
  662MOL0     H87347   7.971   7.242   7.973  3.2089 -2.3993 -0.9089
  662MOL0     H87348   7.660   7.607   7.998 -1.0713 -2.7576 -0.0346
  662MOL0     H87349   7.459   7.729   7.979  0.7223 -1.8310 -0.5153
  662MOL0     H87350   7.226   7.865   8.345 -0.4439 -0.2486  0.3028
  662MOL0     H87351   7.197   7.696   8.304  2.7742 -0.0491 -0.0559
  662MOL0     H87352   7.037   7.779   8.121 -1.0694  0.7012  0.0530
  662MOL0     H87353   7.074   7.943   8.156  0.1845 -0.5804 -0.5729
  662MOL0     H87354   6.950   7.897   8.389  1.6116 -1.5102  0.5807
  662MOL0     H87355   6.949   7.727   8.354 -0.9769 -0.3594  0.3246
  662MOL0     H87356   6.810   7.890   8.154 -1.2530  0.4847  0.2476
  662MOL0     H87357   6.783   7.718   8.202 -3.6269 -0.1112  1.7135
  662MOL0     H87358   6.715   7.960   8.383 -3.7455  0.4113  0.0380
  662MOL0     H87359   6.703   7.793   8.421 -4.0138  0.0378 -0.9566
  662MOL0     H87360   6.556   7.757   8.231 -0.3144  0.9191 -1.6843
  662MOL0     H87361   6.557   7.923   8.180 -0.1744  0.9396  0.7665
  662MOL0     H87362   6.461   7.877   8.460  0.1802 -2.4804 -0.9202
  662MOL0     H87363   6.447   8.022   8.348  1.1106 -0.5315 -4.2160
  662MOL0     H87364   6.232   7.877   8.377 -1.7012 -1.4582 -0.2583
  662MOL0     H87365   6.302   7.740   8.305  1.2161 -0.3315 -0.2194
  662MOL0     H87366   7.400   7.679   8.407  0.2008 -0.3622  0.7788
  662MOL0     H87367   7.592   7.534   8.419 -2.2912  1.9143  2.8021
  662MOL0     H87368   7.980   7.490   8.310 -0.6828 -2.8037  1.5070
  662MOL0     H87369   8.222   7.497   8.304  0.3979  1.4632  0.5763
  662MOL0     H87370  10.047   7.136   7.338  1.3624 -1.0511 -0.9014
  662MOL0     H87371  10.281   7.115   7.354 -0.0551  1.1773 -0.5443
  662MOL0     H87372  10.599   6.938   7.680 -1.8899  0.7145 -0.5830
  662MOL0     H87373  10.799   6.841   7.791  1.9499  0.8374 -2.9208
  662MOL0     H87374  11.015   6.683   7.916 -1.3121  0.0278 -1.3332
  662MOL0     H87375  10.996   6.789   7.776 -0.7408  0.5650  2.0591
  662MOL0     H87376  11.144   6.669   7.647 -0.7236  5.1514  1.2659
  662MOL0     H87377  11.233   6.731   7.783  2.1941 -1.6323 -1.8128
  662MOL0     H87378  11.284   6.473   7.737 -1.3713 -1.5029 -1.5624
  662MOL0     H87379  11.121   6.446   7.794 -0.9367  1.2819 -1.9662
  662MOL0     H87380  11.326   6.603   7.971 -0.7600  0.5901 -0.8849
  662MOL0     H87381  11.174   6.520   8.018  1.1683  0.4995  1.2838
  662MOL0     H87382  11.435   6.197   7.978 -3.1979 -0.0857  1.1042
  662MOL0     H87383  10.759   6.467   7.612 -0.4796 -0.2898  4.3134
  662MOL0     H87384  10.543   6.549   7.491 -2.2819  0.4106  1.5699
  663MOL0     O87385   4.879   3.221   1.147 -0.5175  0.3475 -0.1061
  663MOL0     C87386   4.914   3.102   1.161  0.6430 -0.8354  0.4478
  663MOL0     O87387   4.843   3.011   1.236 -0.2568 -0.1566 -0.3889
  663MOL0     C87388   4.712   3.037   1.271  0.4915  0.0473  0.0294
  663MOL0     C87389   4.670   3.079   1.392  0.5611 -1.1198 -0.6800
  663MOL0     C87390   4.536   3.118   1.421 -0.4267 -0.7012 -0.3378
  663MOL0     C87391   4.441   3.112   1.320  0.1719 -0.9100 -1.0473
  663MOL0     O87392   4.313   3.143   1.355  0.3039 -0.0492 -0.8231
  663MOL0     C87393   4.216   3.122   1.263  0.4692 -0.2476  0.6426
  663MOL0     C87394   4.081   3.160   1.312  0.2905  0.3562  0.2750
  663MOL0     C87395   4.035   3.078   1.433 -0.2056  0.0208  0.4843
  663MOL0     C87396   3.919   3.150   1.508  0.2832  0.2453  0.1479
  663MOL0     C87397   3.798   3.172   1.421 -0.6087  0.7288  0.5846
  663MOL0     C87398   3.676   3.223   1.503  0.1747  0.7396 -0.6288
  663MOL0     C87399   3.551   3.229   1.418  0.1534  0.4395  0.5351
  663MOL0     C87400   3.446   3.286   1.506  0.4685 -0.3073 -0.2654
  663MOL0     N87401   3.314   3.293   1.451  0.3674 -0.4840  1.1917
  663MOL0     C87402   3.201   3.284   1.526 -0.1624 -0.1235 -0.3123
  663MOL0     C87403   3.104   3.335   1.454  0.5402 -0.7249  0.4677
  663MOL0     C87404   2.960   3.342   1.489  0.0783 -0.3092  0.1102
  663MOL0     C87405   2.937   3.422   1.617  0.0911 -0.5789 -0.3933
  663MOL0     C87406   2.786   3.436   1.638  0.7131 -0.3601 -0.1241
  663MOL0     C87407   2.708   3.309   1.692  0.0055 -0.1291  0.3806
  663MOL0     O87408   2.786   3.219   1.787 -0.2034 -0.1626  0.3095
  663MOL0     C87409   2.726   3.097   1.806 -0.4347 -1.2818 -0.6572
  663MOL0     C87410   2.598   3.055   1.754 -0.3854 -0.0174  0.4207
  663MOL0     C87411   2.538   2.938   1.788 -0.6838 -0.0782 -0.5733
  663MOL0     C87412   2.599   2.843   1.878  0.6014 -0.4086  0.1872
  663MOL0     C87413   2.528   2.722   1.924  0.3372 -0.2199 -1.0611
  663MOL0     O87414   2.602   2.612   1.967 -0.2150  0.3075 -0.3029
  663MOL0     C87415   2.535   2.496   2.003 -0.0354  0.1253 -0.9556
  663MOL0     C87416   2.582   2.361   1.963  0.1674 -0.2780 -0.6531
  663MOL0     C87417   2.532   2.238   2.012  0.1187 -0.4159  0.4930
  663MOL0     C87418   2.434   2.253   2.116 -0.8407 -0.8101 -0.2083
  663MOL0     O87419   2.362   2.150   2.164  0.5838  0.4275  0.5178
  663MOL0     C87420   2.427   2.020   2.187 -0.3916  1.0174  0.4141
  663MOL0     C87421   2.338   1.923   2.265  0.1572 -0.6146  0.5289
  663MOL0     C87422   2.192   1.910   2.214  0.2971 -0.2864 -0.8024
  663MOL0     C87423   2.120   1.774   2.268  0.5726 -0.4760  0.9429
  663MOL0     C87424   1.991   1.779   2.203  0.1319 -0.6461 -0.3467
  663MOL0     C87425   1.913   1.653   2.225 -0.4359  0.3015 -0.2218
  663MOL0     C87426   1.774   1.662   2.155 -0.3768  1.1688 -0.1550
  663MOL0     C87427   1.707   1.523   2.146 -0.1920 -0.3217 -1.2426
  663MOL0    Cl87428   1.772   1.429   2.021 -0.1004  0.2261  0.0531
  663MOL0     C87429   2.384   2.376   2.152  1.2249 -0.1778 -0.7453
  663MOL0     C87430   2.433   2.490   2.098  0.2986  0.1677 -0.3269
  663MOL0     O87431   2.406   2.723   1.924  0.9356 -0.7506 -0.5513
  663MOL0     C87432   2.728   2.875   1.925 -0.4165  0.2770 -0.0336
  663MOL0     C87433   2.793   3.004   1.888  1.3157 -0.6380 -0.1348
  663MOL0     N87434   3.154   3.370   1.330 -0.5712 -0.0336  0.3592
  663MOL0     N87435   3.287   3.354   1.326  0.0297 -0.1756 -1.0846
  663MOL0     C87436   4.482   3.074   1.191 -1.1291  0.3152  0.7523
  663MOL0     C87437   4.612   3.048   1.168  0.4537  0.0178 -0.1870
  663MOL0     C87438   5.055   3.059   1.112 -0.3457 -0.1778  0.6909
  663MOL0     C87439   5.148   3.150   1.049  0.8352 -0.4724 -0.3576
  663MOL0     C87440   5.266   3.103   0.989 -0.5582  0.0181  0.1367
  663MOL0     C87441   5.296   2.969   0.988 -1.2598 -0.0250  0.2153
  663MOL0     O87442   5.413   2.916   0.935 -0.0559 -0.0079 -0.1610
  663MOL0     C87443   5.526   2.951   1.013 -0.1988 -0.7300 -0.2790
  663MOL0     C87444   5.602   2.815   1.039 -0.1352 -0.4768 -0.2538
  663MOL0     C87445   5.737   2.852   1.113  1.0040  0.1221  0.1896
  663MOL0     C87446   5.824   2.943   1.037  0.3093 -0.6934  0.1113
  663MOL0     C87447   5.953   2.969   1.099  0.6655  0.5949 -0.1700
  663MOL0     C87448   6.060   2.966   1.166 -0.0249  0.1511  0.6068
  663MOL0     C87449   5.213   2.888   1.061 -0.3440  0.9477  0.5184
  663MOL0     C87450   5.088   2.923   1.111  0.9118 -0.6504  0.7790
  663MOL0     H87451   4.737   3.071   1.477  0.4687 -2.5959 -0.7165
  663MOL0     H87452   4.507   3.142   1.523 -1.1424  1.2843 -0.9511
  663MOL0     H87453   4.211   3.020   1.224  3.0365  0.4186 -1.7779
  663MOL0     H87454   4.226   3.185   1.174 -0.9421 -1.8472 -0.7403
  663MOL0     H87455   4.021   3.138   1.223  2.2092  0.4272 -1.0891
  663MOL0     H87456   4.073   3.267   1.336 -1.9088  1.4564 -4.1262
  663MOL0     H87457   4.118   3.082   1.504  1.0066 -2.9626 -0.5871
  663MOL0     H87458   4.011   2.974   1.411 -0.6835 -0.0065  1.0962
  663MOL0     H87459   3.902   3.092   1.600  0.3670  0.3629  0.2380
  663MOL0     H87460   3.959   3.243   1.549 -0.9326  0.5519  0.6838
  663MOL0     H87461   3.764   3.082   1.370 -0.4250  2.2190 -2.3831
  663MOL0     H87462   3.823   3.235   1.336 -0.7467  0.4842  0.3620
  663MOL0     H87463   3.704   3.318   1.550 -2.4885  1.5272 -0.4638
  663MOL0     H87464   3.663   3.151   1.584 -1.8097  1.3857 -0.3179
  663MOL0     H87465   3.568   3.295   1.332  2.0198 -1.8288 -0.9361
  663MOL0     H87466   3.541   3.135   1.363  7.5012 -3.4852  4.4364
  663MOL0     H87467   3.480   3.387   1.530 -0.1660 -0.4003  1.0655
  663MOL0     H87468   3.431   3.224   1.595 -2.8366  0.1621 -0.3876
  663MOL0     H87469   3.190   3.223   1.616  1.0827 -3.0964 -2.0266
  663MOL0     H87470   2.904   3.252   1.516 -1.3398  0.5326  0.0916
  663MOL0     H87471   2.899   3.390   1.411 -3.8921 -1.7072  2.0932
  663MOL0     H87472   2.971   3.525   1.608  0.4997 -0.4652  1.9135
  663MOL0     H87473   2.986   3.363   1.696 -2.7498  0.9965  2.8165
  663MOL0     H87474   2.776   3.505   1.722 -0.5937 -2.5515  1.6363
  663MOL0     H87475   2.734   3.479   1.552 -1.4263 -2.3923  0.0501
  663MOL0     H87476   2.674   3.247   1.608 -1.1995  1.9887 -0.7588
  663MOL0     H87477   2.614   3.345   1.734 -0.9048  2.8334 -3.6329
  663MOL0     H87478   2.545   3.127   1.693 -0.8722 -1.9248 -1.5392
  663MOL0     H87479   2.442   2.915   1.743 -1.2473  1.1661 -0.0806
  663MOL0     H87480   2.657   2.344   1.886 -1.3557 -1.6858 -1.9174
  663MOL0     H87481   2.576   2.141   1.992  0.9033 -0.1522  0.9247
  663MOL0     H87482   2.522   2.027   2.241 -0.9732  1.6514  1.4035
  663MOL0     H87483   2.447   1.967   2.094  3.4281  0.0804  1.5782
  663MOL0     H87484   2.342   1.952   2.370  0.1851  1.0262  0.1018
  663MOL0     H87485   2.390   1.827   2.268  1.5937 -0.2815 -4.4399
  663MOL0     H87486   2.201   1.922   2.106  2.9517 -0.0498 -0.6235
  663MOL0     H87487   2.140   1.994   2.259  0.1668 -1.4959  1.4675
  663MOL0     H87488   2.171   1.682   2.238 -2.3472 -1.6857 -0.6307
  663MOL0     H87489   2.108   1.783   2.377 -2.2110  3.3304  0.5356
  663MOL0     H87490   2.008   1.795   2.096  1.9844 -2.4407 -0.3975
  663MOL0     H87491   1.939   1.865   2.246  0.9716  1.7786 -3.7179
  663MOL0     H87492   1.916   1.640   2.334  1.1007  1.1989 -0.1125
  663MOL0     H87493   1.975   1.572   2.186  0.4018  0.7957  0.0400
  663MOL0     H87494   1.720   1.722   2.228  0.1769 -0.1002  1.3624
  663MOL0     H87495   1.785   1.708   2.056 -1.1089  0.6616 -0.4788
  663MOL0     H87496   1.600   1.534   2.124  0.2861 -0.5224 -4.0324
  663MOL0     H87497   1.732   1.482   2.244  1.5408 -0.8759 -1.8856
  663MOL0     H87498   2.302   2.385   2.223 -0.2553 -2.3912 -2.0178
  663MOL0     H87499   2.386   2.579   2.138 -0.1583  0.4213 -1.3984
  663MOL0     H87500   2.791   2.816   1.990  1.6386 -0.6667 -2.6909
  663MOL0     H87501   2.892   3.025   1.927  0.7002 -1.8797  2.3445
  663MOL0     H87502   4.423   3.050   1.103 -1.3927 -1.5135  1.3835
  663MOL0     H87503   4.645   3.029   1.066 -0.2848  1.5649 -0.7425
  663MOL0     H87504   5.116   3.253   1.050  3.2726  0.3619  0.2199
  663MOL0     H87505   5.342   3.163   0.940  0.8937 -0.7899  1.3217
  663MOL0     H87506   5.493   2.997   1.107  0.1745 -2.0401  0.5124
  663MOL0     H87507   5.589   3.018   0.954 -2.2875 -0.7237 -2.6850
  663MOL0     H87508   5.529   2.751   1.089  1.1580 -1.9354 -0.1669
  663MOL0     H87509   5.631   2.752   0.955 -2.6791 -2.3151  0.1003
  663MOL0     H87510   5.795   2.763   1.139  0.9174  0.9560  3.7804
  663MOL0     H87511   5.707   2.900   1.207  0.5386  0.9524 -0.3644
  663MOL0     H87512   5.850   2.913   0.935  3.6584  0.4344  0.5195
  663MOL0     H87513   5.779   3.043   1.041 -4.2575 -2.4583 -0.8124
  663MOL0     H87514   6.140   2.974   1.237  1.1222  0.0852 -0.6527
  663MOL0     H87515   5.244   2.783   1.060  1.6089  1.4839  0.1564
  663MOL0     H87516   5.014   2.861   1.160  0.5555 -0.4623  0.4835
  664MOL0     O87517   9.890   8.695  10.328  0.0239 -0.0617 -0.2903
  664MOL0     C87518   9.969   8.786  10.342  0.3303  0.3395  0.1977
  664MOL0     O87519   9.939   8.909  10.377 -0.1507 -0.5821 -0.6487
  664MOL0     C87520   9.817   8.947  10.404  0.8128  0.1808 -0.1503
  664MOL0     C87521   9.717   8.947  10.304  1.1413  0.8999 -0.2475
  664MOL0     C87522   9.585   8.988  10.331  0.2338 -1.0894 -0.2890
  664MOL0     C87523   9.555   9.039  10.459  0.6099  0.6910 -0.0673
  664MOL0     O87524   9.432   9.084  10.492  0.2088 -0.8969 -0.8554
  664MOL0     C87525   9.323   8.998  10.460  0.7855 -0.0911 -0.5750
  664MOL0     C87526   9.186   9.070  10.492 -0.2102  0.1716 -0.0462
  664MOL0     C87527   9.081   8.970  10.458 -0.2905  0.0869 -0.1184
  664MOL0     C87528   8.956   9.019  10.503 -1.1266 -0.3912 -0.0961
  664MOL0     C87529   8.836   8.938  10.453  0.4096 -1.2157 -0.6690
  664MOL0     C87530   8.709   9.020  10.491  1.0294  0.0117  0.4604
  664MOL0     C87531   8.583   8.945  10.437  0.1526  0.4594  0.4757
  664MOL0     C87532   8.600   8.796  10.395 -0.3402  0.2703  0.1129
  664MOL0     N87533   8.481   8.745  10.326 -0.6053  0.2241 -0.0072
  664MOL0     C87534   8.361   8.723  10.385  0.5730 -0.6453  0.5528
  664MOL0     C87535   8.278   8.695  10.289 -0.8412 -0.1972 -0.2536
  664MOL0     C87536   8.126   8.677  10.282 -0.4923 -0.2894 -0.1743
  664MOL0     C87537   8.047   8.759  10.178  0.4090 -0.7222 -0.3291
  664MOL0     C87538   7.906   8.719  10.163  0.6106 -0.2155 -0.4798
  664MOL0     C87539   7.817   8.737  10.297  0.0356 -0.4454 -0.1984
  664MOL0     O87540   7.748   8.864  10.298  0.3857 -0.2587  0.0036
  664MOL0     C87541   7.646   8.878  10.203  0.0209 -0.6782  1.3111
  664MOL0     C87542   7.636   9.010  10.148  1.3913  0.1783 -0.1918
  664MOL0     C87543   7.521   9.048  10.071  0.4920 -0.9397  0.9263
  664MOL0     C87544   7.418   8.956  10.036  0.3197 -0.5318 -0.2964
  664MOL0     C87545   7.311   8.996   9.947  0.4647  0.5006 -0.5329
  664MOL0     O87546   7.208   8.899   9.916  0.2373  0.7984 -1.1280
  664MOL0     C87547   7.086   8.945   9.868  0.9607 -0.0894  0.2448
  664MOL0     C87548   7.065   9.036   9.767  0.1770 -0.6894  0.9183
  664MOL0     C87549   6.937   9.087   9.728  1.0897 -0.3418  0.3013
  664MOL0     C87550   6.834   9.058   9.816 -0.2022  0.3917  0.1658
  664MOL0     O87551   6.718   9.128   9.805  0.4691 -0.0292  0.2348
  664MOL0     C87552   6.599   9.094   9.875  0.2726  0.4103 -0.5819
  664MOL0     C87553   6.492   9.034   9.782 -0.4286 -0.1674 -0.0172
  664MOL0     C87554   6.357   9.037   9.854  0.9635  0.3189  0.3536
  664MOL0     C87555   6.243   8.993   9.757 -0.2379  0.1291 -0.6127
  664MOL0     C87556   6.106   8.999   9.824 -0.1423 -0.2287  0.5401
  664MOL0     C87557   5.979   8.962   9.745 -0.4341 -0.3052  0.2380
  664MOL0     C87558   5.988   8.826   9.668 -0.6268  0.2936  0.8651
  664MOL0     C87559   5.992   8.694   9.754  0.5462 -0.5950  0.3355
  664MOL0    Cl87560   5.866   8.700   9.884 -0.0101  0.3464  0.7100
  664MOL0     C87561   6.852   8.958   9.916  0.1863  0.0561  0.7732
  664MOL0     C87562   6.975   8.898   9.937  0.0543 -0.3217 -0.4648
  664MOL0     O87563   7.313   9.112   9.911 -0.2240  0.2320 -0.3309
  664MOL0     C87564   7.436   8.826  10.084 -0.5065  1.3958  0.2987
  664MOL0     C87565   7.551   8.781  10.170  0.2589 -0.8811  0.7705
  664MOL0     N87566   8.352   8.684  10.175 -0.4614  0.4958  0.3838
  664MOL0     N87567   8.481   8.712  10.196 -0.2703 -0.5610  0.4323
  664MOL0     C87568   9.659   9.036  10.555 -0.6337  1.1944  0.4531
  664MOL0     C87569   9.791   9.002  10.522  1.1837 -0.3213  0.4122
  664MOL0     C87570  10.111   8.754  10.342 -0.5986 -0.0519  0.3449
  664MOL0     C87571  10.217   8.850  10.357 -0.0761  0.0459 -0.8645
  664MOL0     C87572  10.355   8.814  10.346  0.5166  0.5371  0.1082
  664MOL0     C87573  10.376   8.681  10.306  0.1063 -0.2190  1.3511
  664MOL0     O87574  10.506   8.658  10.268  0.7676  0.0096 -0.1142
  664MOL0     C87575  10.543   8.557  10.177 -0.3391 -0.1892  0.2350
  664MOL0     C87576  10.693   8.535  10.153 -0.3042  0.0526 -0.4513
  664MOL0     C87577  10.789   8.653  10.111  0.1834  0.8069 -0.0491
  664MOL0     C87578  10.935   8.593  10.099  0.3234  0.2073  0.2694
  664MOL0     C87579  10.999   8.572  10.227  0.6916 -0.6963 -0.2209
  664MOL0     C87580  11.057   8.545  10.330 -1.4709  0.1645 -0.6528
  664MOL0     C87581  10.279   8.584  10.292 -0.6031 -0.2971 -0.2212
  664MOL0     C87582  10.147   8.619  10.306 -0.5922 -0.9291  0.5943
  664MOL0     H87583   9.726   8.903  10.205 -0.1851 -3.6284  1.4120
  664MOL0     H87584   9.506   8.985  10.257  3.0940 -0.2224 -3.6749
  664MOL0     H87585   9.321   8.912  10.528  1.6302  1.1202  1.0622
  664MOL0     H87586   9.334   8.958  10.359 -1.6555  1.6890 -1.6418
  664MOL0     H87587   9.185   9.167  10.440 -0.3060  0.2930  0.1817
  664MOL0     H87588   9.194   9.091  10.599 -0.6367  2.3672 -0.3917
  664MOL0     H87589   9.110   8.869  10.488 -1.7199 -0.1205  0.6410
  664MOL0     H87590   9.081   8.968  10.348  3.8386 -2.1471 -0.2555
  664MOL0     H87591   8.938   9.020  10.611 -2.3915 -0.2630 -0.2929
  664MOL0     H87592   8.952   9.125  10.476  2.2487  0.1213  0.9853
  664MOL0     H87593   8.832   8.841  10.503 -0.3747 -0.3705  0.9953
  664MOL0     H87594   8.835   8.932  10.344 -1.2127 -0.5799 -0.7213
  664MOL0     H87595   8.710   9.121  10.449  2.1411 -0.4956 -0.8055
  664MOL0     H87596   8.702   9.032  10.600 -2.0842 -0.5451  0.4190
  664MOL0     H87597   8.503   8.972  10.507 -0.5579  1.2921 -0.6177
  664MOL0     H87598   8.561   8.993  10.342  1.8467 -0.5088 -0.4455
  664MOL0     H87599   8.626   8.727  10.475 -1.9783  1.8195  2.0880
  664MOL0     H87600   8.679   8.769  10.325  1.3291 -2.6720  2.8816
  664MOL0     H87601   8.333   8.753  10.485 -3.0638  1.6188 -0.9538
  664MOL0     H87602   8.082   8.690  10.381  0.3409 -2.8798  0.6091
  664MOL0     H87603   8.115   8.570  10.261 -1.6505 -0.0218 -1.0424
  664MOL0     H87604   8.088   8.747  10.077 -3.5875  1.2341 -2.4024
  664MOL0     H87605   8.041   8.865  10.206 -2.0612 -0.7090 -0.7013
  664MOL0     H87606   7.867   8.779  10.081  0.3347  0.3316  0.0444
  664MOL0     H87607   7.891   8.616  10.127 -0.2338 -0.2948  0.0613
  664MOL0     H87608   7.886   8.733  10.383  3.1881 -0.7787 -2.5472
  664MOL0     H87609   7.741   8.659  10.300 -3.0232  2.2552 -1.0801
  664MOL0     H87610   7.716   9.080  10.172  1.5562  0.1409 -0.6347
  664MOL0     H87611   7.519   9.140  10.015  3.4267 -2.3470 -1.8441
  664MOL0     H87612   7.155   9.072   9.718 -0.1884  2.4030  2.2910
  664MOL0     H87613   6.928   9.154   9.643 -0.0630  0.7320  1.2127
  664MOL0     H87614   6.556   9.193   9.893  0.5955  0.4172  0.1950
  664MOL0     H87615   6.608   9.041   9.971 -2.5579  1.6115  0.4581
  664MOL0     H87616   6.533   8.942   9.739 -1.7419 -0.7789 -0.0086
  664MOL0     H87617   6.479   9.095   9.693 -0.9323 -2.2740 -1.4696
  664MOL0     H87618   6.341   9.135   9.898 -3.6937 -0.7390  1.6326
  664MOL0     H87619   6.356   8.981   9.948 -2.1932 -0.8477 -0.2250
  664MOL0     H87620   6.233   9.062   9.672 -2.9037  0.7507  0.1033
  664MOL0     H87621   6.261   8.891   9.723  1.7613 -0.8199  2.8901
  664MOL0     H87622   6.095   9.104   9.852 -1.6031  0.3908 -2.0482
  664MOL0     H87623   6.113   8.938   9.915  2.3213  0.1618  0.6778
  664MOL0     H87624   5.948   9.039   9.675 -1.1034 -1.1970 -0.4668
  664MOL0     H87625   5.895   8.956   9.814 -1.4374  2.9095 -0.5659
  664MOL0     H87626   5.897   8.812   9.609 -0.8103 -5.1816  1.9366
  664MOL0     H87627   6.079   8.820   9.608 -0.4487  1.6216  0.9641
  664MOL0     H87628   6.091   8.686   9.798 -0.1191 -3.4622  1.5669
  664MOL0     H87629   5.970   8.611   9.686  1.1912  1.2535 -2.2743
  664MOL0     H87630   6.768   8.943   9.984 -0.9884  1.3762 -0.3073
  664MOL0     H87631   6.993   8.828  10.018  0.0067  2.4043  2.0617
  664MOL0     H87632   7.379   8.736  10.066  1.7599 -0.9616  3.6747
  664MOL0     H87633   7.545   8.685  10.221  1.7542 -0.9603  0.8475
  664MOL0     H87634   9.642   9.062  10.658  2.3245 -1.4225  1.7829
  664MOL0     H87635   9.879   9.021  10.582  1.3641 -0.2233  0.1169
  664MOL0     H87636  10.193   8.955  10.371 -1.3875 -0.2047 -1.0861
  664MOL0     H87637  10.434   8.888  10.343  2.9229 -1.8633 -3.2782
  664MOL0     H87638  10.502   8.573  10.077  1.2325 -2.1266 -0.7845
  664MOL0     H87639  10.509   8.457  10.206  0.5441 -0.4538  0.3765
  664MOL0     H87640  10.728   8.496  10.249  2.6235 -0.1508 -1.4992
  664MOL0     H87641  10.702   8.453  10.081  1.0856 -1.1333  1.0060
  664MOL0     H87642  10.789   8.740  10.178  1.2584  2.0117 -1.5608
  664MOL0     H87643  10.758   8.702  10.018 -1.8961 -0.6972 -0.2261
  664MOL0     H87644  10.922   8.501  10.042 -2.2108  0.4998  0.2435
  664MOL0     H87645  10.999   8.668  10.051 -1.8853  2.8368  1.1819
  664MOL0     H87646  11.119   8.515  10.412 -0.4949 -1.5942 -1.9559
  664MOL0     H87647  10.313   8.481  10.280  2.1508  0.3541  1.3209
  664MOL0     H87648  10.069   8.545  10.290 -0.4838 -0.7163 -1.1713
  665MOL0     O87649   6.753   1.918   7.110 -0.3759  0.0906  0.5223
  665MOL0     C87650   6.797   1.835   7.197 -0.3638  0.0378 -0.3136
  665MOL0     O87651   6.723   1.743   7.261 -0.7407 -0.7499  0.0079
  665MOL0     C87652   6.603   1.705   7.212 -0.1962 -0.2817 -1.5087
  665MOL0     C87653   6.582   1.686   7.076  0.3615  0.1154  0.3742
  665MOL0     C87654   6.469   1.618   7.032 -0.2070 -0.3504  0.1579
  665MOL0     C87655   6.382   1.562   7.127 -1.0409 -0.6527  0.0046
  665MOL0     O87656   6.270   1.489   7.095 -0.1226 -0.4150 -0.5656
  665MOL0     C87657   6.197   1.518   6.975  0.1517  0.0487  0.1911
  665MOL0     C87658   6.104   1.409   6.934  0.5993 -0.0421  0.0862
  665MOL0     C87659   6.001   1.450   6.819  0.0958  0.5040 -0.5062
  665MOL0     C87660   5.929   1.326   6.777  0.3555  0.2234 -0.4861
  665MOL0     C87661   5.817   1.353   6.679  0.0233 -1.1859 -0.5898
  665MOL0     C87662   5.737   1.225   6.656 -0.7725 -0.6499  0.3367
  665MOL0     C87663   5.602   1.266   6.584  0.3573  0.9816 -0.6767
  665MOL0     C87664   5.544   1.153   6.506  0.0852 -0.1201  0.0064
  665MOL0     N87665   5.391   1.172   6.489 -0.1586 -0.2579  0.7334
  665MOL0     C87666   5.315   1.154   6.599  0.2190 -1.0057 -0.3839
  665MOL0     C87667   5.188   1.135   6.544  0.4608  0.1105  0.5462
  665MOL0     C87668   5.064   1.100   6.622  0.4095 -0.1924  0.3101
  665MOL0     C87669   4.953   1.043   6.536  0.5162 -0.1529 -0.6970
  665MOL0     C87670   4.973   0.905   6.490  0.2586 -0.2361 -0.5837
  665MOL0     C87671   4.954   0.792   6.595 -0.1741  0.5627 -0.0202
  665MOL0     O87672   4.814   0.799   6.637  0.1847 -0.3072  0.6612
  665MOL0     C87673   4.719   0.725   6.578  0.4762 -0.4909 -0.6329
  665MOL0     C87674   4.692   0.598   6.625  0.5214 -0.2354 -0.9728
  665MOL0     C87675   4.598   0.524   6.555 -0.2007 -0.7139 -0.0766
  665MOL0     C87676   4.511   0.588   6.461  0.2553 -0.0183 -0.1288
  665MOL0     C87677   4.394   0.517   6.406 -0.2598  0.2503 -0.2605
  665MOL0     O87678   4.307   0.600   6.332  0.2163  0.1460  1.2985
  665MOL0     C87679   4.175   0.555   6.311 -0.2141 -0.5450  0.2038
  665MOL0     C87680   4.131   0.419   6.286  0.2763 -0.3305  0.8094
  665MOL0     C87681   3.997   0.396   6.255 -0.4740 -0.4001 -0.1157
  665MOL0     C87682   3.909   0.510   6.235 -0.3436  0.2886  0.1902
  665MOL0     O87683   3.778   0.511   6.204  1.3631 -0.4329  0.1335
  665MOL0     C87684   3.738   0.387   6.141 -0.7951  0.1849 -0.6676
  665MOL0     C87685   3.605   0.404   6.086 -0.3154  0.2418 -0.4841
  665MOL0     C87686   3.562   0.271   6.008 -0.0439  0.0041 -0.2594
  665MOL0     C87687   3.431   0.304   5.916  0.0240 -0.1108  0.2978
  665MOL0     C87688   3.378   0.173   5.861 -0.2218  0.3246 -0.7946
  665MOL0     C87689   3.245   0.205   5.791  0.0343  0.4273  0.2396
  665MOL0     C87690   3.266   0.248   5.647  0.8305 -0.0906 -0.2473
  665MOL0     C87691   3.134   0.293   5.588 -0.2349  0.7165 -0.2958
  665MOL0    Cl87692   3.170   0.373   5.415 -0.5102  0.0003  0.0200
  665MOL0     C87693   3.959   0.637   6.248  0.1378 -0.7854 -0.2185
  665MOL0     C87694   4.090   0.667   6.285  0.2849  0.0823 -0.3078
  665MOL0     O87695   4.379   0.401   6.443 -0.2791  0.2824 -0.4371
  665MOL0     C87696   4.532   0.725   6.433 -0.4724 -1.2728  0.2458
  665MOL0     C87697   4.649   0.787   6.478  0.6603  0.1355  0.4524
  665MOL0     N87698   5.199   1.150   6.406  1.1544  0.4113 -0.8538
  665MOL0     N87699   5.319   1.164   6.377 -0.1395 -0.9389 -0.0620
  665MOL0     C87700   6.410   1.573   7.262  0.0143 -0.2721 -0.0559
  665MOL0     C87701   6.521   1.639   7.307  0.7701  0.5956 -0.2667
  665MOL0     C87702   6.930   1.838   7.238 -0.3379 -0.8445 -0.4347
  665MOL0     C87703   7.019   1.936   7.190 -0.3893 -0.2315 -0.6814
  665MOL0     C87704   7.154   1.943   7.221  0.2652 -0.2100 -0.0471
  665MOL0     C87705   7.208   1.850   7.308 -0.0041  0.5581 -0.1418
  665MOL0     O87706   7.344   1.867   7.328  0.3792 -0.3157  0.6063
  665MOL0     C87707   7.389   1.876   7.461  0.7683  0.5883  0.4655
  665MOL0     C87708   7.506   1.980   7.460 -0.0691  0.3744 -0.3276
  665MOL0     C87709   7.631   1.910   7.406 -0.6976  1.1266 -0.2530
  665MOL0     C87710   7.758   1.959   7.479 -0.0592  0.1089 -0.3910
  665MOL0     C87711   7.884   1.888   7.440  1.6530 -0.6835 -0.8853
  665MOL0     C87712   7.973   1.812   7.394 -0.1240 -1.0864  0.1816
  665MOL0     C87713   7.130   1.746   7.352 -0.7828 -0.4362 -0.9029
  665MOL0     C87714   6.990   1.735   7.322 -0.1034 -0.3371 -0.3796
  665MOL0     H87715   6.659   1.718   7.006 -1.8372  3.1138 -0.8770
  665MOL0     H87716   6.464   1.608   6.924  1.3070 -1.8836  0.1738
  665MOL0     H87717   6.258   1.550   6.891 -2.3255  1.5966 -1.1496
  665MOL0     H87718   6.126   1.598   7.001 -1.4165 -1.3590  0.4543
  665MOL0     H87719   6.044   1.377   7.020  1.2678  1.3345  1.1192
  665MOL0     H87720   6.166   1.326   6.899  3.0399  2.3937 -1.8615
  665MOL0     H87721   6.051   1.486   6.728 -2.2603  1.3644 -1.5400
  665MOL0     H87722   5.935   1.532   6.847 -1.4969  0.0458 -2.6127
  665MOL0     H87723   5.998   1.259   6.726  1.8117  2.6479 -1.8912
  665MOL0     H87724   5.889   1.268   6.860  0.2757 -1.9241 -1.9433
  665MOL0     H87725   5.855   1.391   6.583 -0.2770  0.6597 -0.0323
  665MOL0     H87726   5.758   1.432   6.726  0.9470 -0.6565 -0.2930
  665MOL0     H87727   5.717   1.180   6.754 -1.8776  1.1665  0.9893
  665MOL0     H87728   5.794   1.157   6.592 -2.1519 -2.5004  0.9677
  665MOL0     H87729   5.540   1.305   6.665 -0.6907 -0.9143 -0.5106
  665MOL0     H87730   5.631   1.341   6.510  1.2182  2.5183  1.1270
  665MOL0     H87731   5.551   1.057   6.559 -0.7721  0.6244  1.5160
  665MOL0     H87732   5.595   1.143   6.409  0.7071 -3.0678  0.5298
  665MOL0     H87733   5.337   1.151   6.705 -3.4752  0.8478  0.6056
  665MOL0     H87734   5.019   1.191   6.662  0.3100 -1.1447  2.5093
  665MOL0     H87735   5.087   1.033   6.705 -1.5091 -0.1419  0.9299
  665MOL0     H87736   4.934   1.104   6.448  1.2765 -3.1183 -3.0984
  665MOL0     H87737   4.858   1.060   6.587  0.2154  0.6611 -1.5153
  665MOL0     H87738   4.906   0.893   6.404 -0.9090  0.8478  0.1312
  665MOL0     H87739   5.070   0.905   6.439  0.1710 -0.3485 -0.7510
  665MOL0     H87740   5.024   0.806   6.678 -1.2430  3.5340  0.5221
  665MOL0     H87741   4.979   0.695   6.553  0.1508  0.3594  0.6391
  665MOL0     H87742   4.743   0.556   6.711  2.5226 -0.8282 -2.3838
  665MOL0     H87743   4.580   0.419   6.575 -1.3871 -0.4245  0.4800
  665MOL0     H87744   4.192   0.331   6.301  0.9973  0.4960  3.2825
  665MOL0     H87745   3.975   0.290   6.241  2.3262 -1.1001  0.2181
  665MOL0     H87746   3.733   0.306   6.214 -0.5044 -0.9002 -1.8207
  665MOL0     H87747   3.808   0.358   6.062  0.9383 -1.2149  1.3019
  665MOL0     H87748   3.621   0.485   6.014  1.5826 -1.0841 -1.6161
  665MOL0     H87749   3.528   0.435   6.158 -0.0633  0.0550 -0.1324
  665MOL0     H87750   3.541   0.190   6.079  0.5521  1.1405  1.2534
  665MOL0     H87751   3.653   0.242   5.954  1.4553 -0.6347  2.4279
  665MOL0     H87752   3.354   0.343   5.983  1.7528 -0.7803  2.8200
  665MOL0     H87753   3.462   0.383   5.846 -0.5393 -0.0997  0.0596
  665MOL0     H87754   3.368   0.098   5.940 -3.2402  1.6255  0.2317
  665MOL0     H87755   3.447   0.132   5.788 -0.1418 -1.3744  0.1894
  665MOL0     H87756   3.175   0.274   5.839 -0.6230 -0.2805  0.3071
  665MOL0     H87757   3.194   0.109   5.780  0.7621  0.2030 -1.5871
  665MOL0     H87758   3.330   0.336   5.660 -0.4203  0.5161  2.6979
  665MOL0     H87759   3.314   0.170   5.588  1.2048 -0.4276  0.4871
  665MOL0     H87760   3.077   0.365   5.647 -0.4845  1.3308 -1.2673
  665MOL0     H87761   3.070   0.206   5.576  0.5071  0.3765 -2.3192
  665MOL0     H87762   3.892   0.722   6.235  1.1432 -0.1056 -1.1760
  665MOL0     H87763   4.123   0.766   6.311 -0.0646 -0.2789  1.6224
  665MOL0     H87764   4.468   0.782   6.367 -1.5482  1.0756  3.1040
  665MOL0     H87765   4.673   0.888   6.445 -1.3765  0.9849  1.3733
  665MOL0     H87766   6.350   1.513   7.331  0.1686 -0.3223  0.0350
  665MOL0     H87767   6.546   1.629   7.413  3.3149  0.3040 -0.8311
  665MOL0     H87768   6.984   2.012   7.121  2.4071  0.8639 -1.0396
  665MOL0     H87769   7.213   2.021   7.175 -0.5056 -0.1577 -0.9645
  665MOL0     H87770   7.418   1.782   7.508  0.2262 -1.0408 -2.2806
  665MOL0     H87771   7.315   1.920   7.529 -0.6187 -1.1881  0.1915
  665MOL0     H87772   7.483   2.064   7.394 -0.8106 -0.1711 -0.7789
  665MOL0     H87773   7.538   2.017   7.558 -2.7905 -1.3820  1.3629
  665MOL0     H87774   7.629   1.933   7.299 -6.9061 -0.0981 -0.8091
  665MOL0     H87775   7.626   1.802   7.424 -0.4686  1.5976  3.3570
  665MOL0     H87776   7.778   2.064   7.454 -2.1765  1.0322  1.4142
  665MOL0     H87777   7.755   1.942   7.587 -2.3570  0.1064 -0.3929
  665MOL0     H87778   8.052   1.748   7.360 -1.4751 -1.5576 -2.3056
  665MOL0     H87779   7.182   1.667   7.406  1.7424  1.3983 -0.4444
  665MOL0     H87780   6.922   1.655   7.348 -3.9837  3.0994  1.1109
  666MOL0     O87781   8.725   5.823   0.921 -0.3516  0.1241 -0.4266
  666MOL0     C87782   8.696   5.872   1.035  1.2239  0.2048 -0.5795
  666MOL0     O87783   8.568   5.869   1.083 -0.2441  0.1481 -0.0413
  666MOL0     C87784   8.469   5.803   1.021  0.7076 -0.1231 -0.1278
  666MOL0     C87785   8.480   5.671   0.977  0.3731  0.7507 -1.1258
  666MOL0     C87786   8.362   5.603   0.926  0.0860 -0.5616 -0.8888
  666MOL0     C87787   8.245   5.675   0.918  0.0418  0.1217 -0.6106
  666MOL0     O87788   8.143   5.597   0.859 -0.5404  0.4348 -0.5374
  666MOL0     C87789   8.009   5.630   0.895 -0.4442 -0.6793  0.0767
  666MOL0     C87790   7.915   5.514   0.842  0.3134 -0.3015 -0.8164
  666MOL0     C87791   7.762   5.556   0.837 -0.1138 -0.3333  0.6111
  666MOL0     C87792   7.681   5.441   0.801 -0.7443 -0.1290  0.1145
  666MOL0     C87793   7.539   5.470   0.829 -0.5925 -0.9734 -0.5312
  666MOL0     C87794   7.454   5.347   0.785 -0.2270 -0.1420  0.4313
  666MOL0     C87795   7.317   5.347   0.847 -0.5405 -0.1019  0.3548
  666MOL0     C87796   7.232   5.477   0.825  0.1393  0.7298 -0.5233
  666MOL0     N87797   7.127   5.502   0.923  1.1114  0.2739 -0.2861
  666MOL0     C87798   7.056   5.407   0.996  0.3513 -0.4127  0.2672
  666MOL0     C87799   6.978   5.481   1.085 -0.4405  0.5011  0.1758
  666MOL0     C87800   6.877   5.424   1.188  0.1442  0.2471 -0.6212
  666MOL0     C87801   6.749   5.391   1.117 -0.0203  0.5046  0.0320
  666MOL0     C87802   6.629   5.391   1.216  0.7648  0.3670 -0.0839
  666MOL0     C87803   6.504   5.405   1.136  0.5464 -0.9201  0.9556
  666MOL0     O87804   6.494   5.527   1.050 -0.3512  0.1194 -0.1668
  666MOL0     C87805   6.383   5.540   0.978 -0.2316 -0.0362 -0.2635
  666MOL0     C87806   6.408   5.623   0.866  0.5976 -0.0191 -0.5299
  666MOL0     C87807   6.301   5.669   0.786  0.2608 -0.8902  0.5590
  666MOL0     C87808   6.173   5.624   0.804 -0.1999  0.4872 -0.0398
  666MOL0     C87809   6.059   5.660   0.711  0.2257  0.5525 -0.8869
  666MOL0     O87810   5.955   5.725   0.759  0.1480 -0.2466 -0.6702
  666MOL0     C87811   5.846   5.769   0.687  0.8860  0.7454 -0.7708
  666MOL0     C87812   5.810   5.712   0.563  0.5691 -0.4328  0.1652
  666MOL0     C87813   5.691   5.746   0.497 -0.2363  0.7954 -0.4726
  666MOL0     C87814   5.602   5.830   0.553 -0.1318 -0.0838  0.1088
  666MOL0     O87815   5.490   5.886   0.495  0.3751  0.3069  0.7935
  666MOL0     C87816   5.454   5.846   0.361  0.1911  0.0961  0.4671
  666MOL0     C87817   5.308   5.895   0.320  0.3741  0.5340  0.2198
  666MOL0     C87818   5.202   5.829   0.419  0.5207 -0.0894 -0.4797
  666MOL0     C87819   5.055   5.856   0.378  0.4991  0.4816 -0.1486
  666MOL0     C87820   4.971   5.734   0.427  0.5678 -0.1301 -0.2319
  666MOL0     C87821   4.817   5.747   0.427  0.8681 -0.3970  0.6174
  666MOL0     C87822   4.757   5.805   0.299 -0.3876  0.6874 -0.1211
  666MOL0     C87823   4.605   5.788   0.295 -0.0552 -0.8527  0.0492
  666MOL0    Cl87824   4.532   5.891   0.433  0.3561  0.0351 -0.0822
  666MOL0     C87825   5.635   5.889   0.672  0.0954 -0.1153 -0.6561
  666MOL0     C87826   5.750   5.846   0.755  0.7049  0.7472 -0.0929
  666MOL0     O87827   6.081   5.641   0.594 -0.3755  1.1800  0.4115
  666MOL0     C87828   6.149   5.540   0.917  0.0278 -0.6920 -1.1633
  666MOL0     C87829   6.256   5.491   1.005  0.3029  0.0094 -0.3664
  666MOL0     N87830   6.995   5.616   1.069 -0.3891  0.8412  0.5516
  666MOL0     N87831   7.078   5.623   0.957  0.7399  0.4739 -0.2040
  666MOL0     C87832   8.237   5.812   0.958  0.5962  0.5935  0.3659
  666MOL0     C87833   8.349   5.874   1.010  0.4663 -0.0052  0.4631
  666MOL0     C87834   8.812   5.920   1.110 -0.2761 -0.7725  0.7325
  666MOL0     C87835   8.941   5.916   1.063 -0.2045 -0.0796  0.0375
  666MOL0     C87836   9.048   5.973   1.135  0.4658 -0.3305 -0.8290
  666MOL0     C87837   9.031   6.039   1.252  0.3154 -0.0881 -0.7963
  666MOL0     O87838   9.142   6.079   1.319 -0.0183 -0.4357  0.2821
  666MOL0     C87839   9.133   6.154   1.439 -0.6203 -0.7756 -0.7267
  666MOL0     C87840   9.244   6.256   1.456 -0.9110 -0.6914 -0.1638
  666MOL0     C87841   9.225   6.379   1.354 -0.1141  0.0449  0.3321
  666MOL0     C87842   9.248   6.503   1.420 -0.6968  0.0376  0.2342
  666MOL0     C87843   9.390   6.533   1.425  0.4254 -0.3305  0.3912
  666MOL0     C87844   9.506   6.560   1.426  0.1033 -0.0193 -1.2613
  666MOL0     C87845   8.901   6.034   1.305  0.9169 -0.0223 -0.0493
  666MOL0     C87846   8.785   5.984   1.231  0.4951 -0.5006  0.0936
  666MOL0     H87847   8.573   5.616   0.986 -0.5253 -0.4257  2.7599
  666MOL0     H87848   8.374   5.508   0.876  1.5671  0.7356 -3.2579
  666MOL0     H87849   7.969   5.710   0.832 -2.1055 -1.2673  0.3242
  666MOL0     H87850   7.992   5.649   1.001 -5.0275  2.6637 -0.9485
  666MOL0     H87851   7.935   5.435   0.915 -0.3951 -0.6254 -0.9617
  666MOL0     H87852   7.946   5.471   0.746  1.7273 -1.7515  0.2170
  666MOL0     H87853   7.738   5.636   0.767  2.2728 -1.0947 -1.2225
  666MOL0     H87854   7.742   5.588   0.940 -0.8712 -1.6279  0.8855
  666MOL0     H87855   7.698   5.423   0.694  0.0455 -0.5471  0.2959
  666MOL0     H87856   7.708   5.351   0.857 -1.3118 -0.5353 -0.2519
  666MOL0     H87857   7.508   5.565   0.786  1.0405  0.3762  1.0636
  666MOL0     H87858   7.528   5.477   0.938 -1.6891  1.8542 -0.7421
  666MOL0     H87859   7.498   5.249   0.807 -0.9824 -1.4119 -2.9766
  666MOL0     H87860   7.439   5.352   0.676  3.4035 -0.1596 -0.1948
  666MOL0     H87861   7.261   5.259   0.814  2.4932 -2.3641  0.8359
  666MOL0     H87862   7.323   5.331   0.955  0.1088 -0.0154  0.3341
  666MOL0     H87863   7.177   5.462   0.731 -1.6647  1.1191  0.4236
  666MOL0     H87864   7.285   5.572   0.827 -1.3455  1.6128 -1.0286
  666MOL0     H87865   7.068   5.302   0.975  0.7628  0.0212 -1.8853
  666MOL0     H87866   6.850   5.513   1.247  1.2835 -1.9910  3.6844
  666MOL0     H87867   6.922   5.344   1.247  1.7878 -0.1520 -2.3278
  666MOL0     H87868   6.761   5.291   1.075  1.8527 -1.0048  3.6819
  666MOL0     H87869   6.733   5.466   1.039 -1.4281 -0.7779 -0.9650
  666MOL0     H87870   6.640   5.294   1.266  3.6312  1.6362  2.0398
  666MOL0     H87871   6.635   5.458   1.303  2.4247  1.2538 -0.8423
  666MOL0     H87872   6.417   5.403   1.202  0.3673 -0.4968  0.7407
  666MOL0     H87873   6.487   5.319   1.071  2.2575  0.7469 -1.9018
  666MOL0     H87874   6.512   5.646   0.845  0.5901  1.9127  1.2233
  666MOL0     H87875   6.322   5.738   0.705  0.9993  3.5459  4.1149
  666MOL0     H87876   5.864   5.629   0.518  3.0639 -0.4686  2.9243
  666MOL0     H87877   5.671   5.704   0.399 -1.0343  0.6309 -0.2520
  666MOL0     H87878   5.458   5.738   0.347 -2.6126 -0.0524  0.2248
  666MOL0     H87879   5.520   5.900   0.293 -1.3794  3.0862  1.1260
  666MOL0     H87880   5.288   5.852   0.221  2.6347 -0.4631  0.1291
  666MOL0     H87881   5.295   6.003   0.322 -1.0577  0.9686 -6.5328
  666MOL0     H87882   5.203   5.854   0.525 -0.9502  1.9138 -0.8845
  666MOL0     H87883   5.214   5.721   0.408  1.1555  0.0433 -1.1559
  666MOL0     H87884   5.029   5.943   0.440  0.4710 -0.6584  1.5206
  666MOL0     H87885   5.041   5.885   0.274  2.0228 -0.1919 -0.5661
  666MOL0     H87886   4.995   5.697   0.527 -0.9294 -0.4723  0.0187
  666MOL0     H87887   5.001   5.652   0.361  0.7520  1.2740 -1.9660
  666MOL0     H87888   4.782   5.810   0.509  0.8654 -0.1099  0.3974
  666MOL0     H87889   4.789   5.642   0.442 -0.2902  0.0504  1.8020
  666MOL0     H87890   4.789   5.909   0.288 -0.0811  0.6205  0.1119
  666MOL0     H87891   4.799   5.754   0.212 -0.6461  0.2549  0.0053
  666MOL0     H87892   4.589   5.682   0.315 -1.0098 -1.1181 -1.8738
  666MOL0     H87893   4.566   5.801   0.193  3.8998 -2.6851 -1.9312
  666MOL0     H87894   5.554   5.943   0.720  0.2564 -1.5397  1.3246
  666MOL0     H87895   5.737   5.878   0.858 -1.1171  0.4949 -0.2093
  666MOL0     H87896   6.047   5.515   0.943 -0.0775 -0.1754 -1.0741
  666MOL0     H87897   6.225   5.437   1.094 -0.6533  0.1908 -0.5868
  666MOL0     H87898   8.147   5.868   0.933  0.0895  0.4587  1.7885
  666MOL0     H87899   8.355   5.978   1.040 -2.9289  2.3875 -5.5500
  666MOL0     H87900   8.969   5.880   0.965 -0.4751  1.6354 -0.7091
  666MOL0     H87901   9.148   5.955   1.097  1.8950  3.3626  0.7410
  666MOL0     H87902   9.138   6.089   1.527 -1.9530  1.6079  1.2302
  666MOL0     H87903   9.035   6.202   1.447 -0.7462 -1.0145 -0.8299
  666MOL0     H87904   9.256   6.290   1.559 -2.4968  0.6255 -0.3865
  666MOL0     H87905   9.344   6.213   1.438 -0.2035  0.2959  1.2558
  666MOL0     H87906   9.121   6.383   1.319 -0.1008 -0.5509  0.1983
  666MOL0     H87907   9.267   6.368   1.253 -2.0916  1.4698 -0.7190
  666MOL0     H87908   9.199   6.585   1.367 -2.1248 -0.1510  1.2230
  666MOL0     H87909   9.212   6.498   1.523 -1.3604  0.9508  0.0616
  666MOL0     H87910   9.612   6.572   1.415  0.0500  1.5235 -0.2701
  666MOL0     H87911   8.876   6.060   1.408 -1.2402  2.1106 -1.0179
  666MOL0     H87912   8.686   5.978   1.274 -0.2250 -0.3744 -1.4711
  667MOL0     O87913  10.543   2.877   8.648  0.1695  0.2506  0.1712
  667MOL0     C87914  10.597   2.944   8.737 -0.3110 -0.1829 -0.0440
  667MOL0     O87915  10.532   3.032   8.817 -0.1062 -0.0128  0.0205
  667MOL0     C87916  10.398   3.041   8.818  0.3546  0.6092 -0.1273
  667MOL0     C87917  10.321   2.951   8.885 -0.2910  1.2776  0.3565
  667MOL0     C87918  10.182   2.965   8.885  0.7052 -0.3931  0.8367
  667MOL0     C87919  10.117   3.079   8.825  0.4907  0.5675 -0.9295
  667MOL0     O87920   9.978   3.107   8.837  0.7948  0.0504  0.0526
  667MOL0     C87921   9.884   3.020   8.908 -0.0984 -0.1366 -0.1321
  667MOL0     C87922   9.743   3.034   8.852  0.4511  0.3801 -0.0586
  667MOL0     C87923   9.674   3.166   8.901  0.3392 -1.0575  0.4224
  667MOL0     C87924   9.550   3.201   8.823 -0.2759 -0.0519  0.6623
  667MOL0     C87925   9.501   3.346   8.858  0.4331  0.9579 -0.0006
  667MOL0     C87926   9.355   3.376   8.822  0.5600 -0.0454  0.0366
  667MOL0     C87927   9.342   3.370   8.662  0.5259 -1.0254 -0.8373
  667MOL0     C87928   9.197   3.309   8.626 -0.2337  0.2720 -0.3553
  667MOL0     N87929   9.099   3.417   8.653 -0.5840  0.1134  0.2925
  667MOL0     C87930   9.044   3.430   8.775  0.9379 -0.4753  0.4170
  667MOL0     C87931   8.975   3.544   8.767  0.8297  0.3474 -0.0574
  667MOL0     C87932   8.897   3.602   8.883 -0.2962  0.3260 -0.2237
  667MOL0     C87933   8.757   3.534   8.900  0.7473  0.1058 -0.1163
  667MOL0     C87934   8.690   3.613   9.017 -0.3618 -0.1382 -0.0505
  667MOL0     C87935   8.539   3.577   9.015  0.2450 -1.0814  0.0730
  667MOL0     O87936   8.449   3.653   9.100 -0.4117 -0.3762  0.0500
  667MOL0     C87937   8.316   3.616   9.092  0.2082  0.4611 -0.2852
  667MOL0     C87938   8.267   3.531   8.996  0.5481 -0.3824  0.6999
  667MOL0     C87939   8.131   3.490   8.995  0.0325  0.4243  0.3812
  667MOL0     C87940   8.035   3.540   9.085 -0.7455 -0.2794  0.4859
  667MOL0     C87941   7.892   3.507   9.077 -0.2330  0.5503  0.2488
  667MOL0     O87942   7.809   3.562   9.174  0.0019  0.5579 -0.7517
  667MOL0     C87943   7.669   3.568   9.171 -0.3462  0.4723 -0.9488
  667MOL0     C87944   7.590   3.527   9.066  0.7961 -0.5866  0.7329
  667MOL0     C87945   7.453   3.554   9.063 -0.7287  0.5621 -0.0783
  667MOL0     C87946   7.388   3.633   9.162 -0.5247  0.3370 -1.1640
  667MOL0     O87947   7.258   3.677   9.157 -0.2457  0.3672  0.2002
  667MOL0     C87948   7.165   3.583   9.109 -0.4248 -0.4196 -0.3802
  667MOL0     C87949   7.050   3.578   9.203 -0.1961 -0.2125  0.0365
  667MOL0     C87950   6.938   3.674   9.171 -0.1814 -0.3288  0.0505
  667MOL0     C87951   6.835   3.686   9.288 -0.1991  0.0494  0.4627
  667MOL0     C87952   6.738   3.797   9.258 -0.2178 -0.1618  0.2429
  667MOL0     C87953   6.653   3.837   9.390 -0.3790  0.6047 -0.5977
  667MOL0     C87954   6.540   3.940   9.352 -0.2774 -0.9145  0.1359
  667MOL0     C87955   6.438   3.956   9.468  0.0637 -0.2005 -0.3639
  667MOL0    Cl87956   6.504   4.058   9.592  0.1593 -0.4736 -0.7091
  667MOL0     C87957   7.467   3.671   9.266 -0.4171  0.9660 -0.6353
  667MOL0     C87958   7.601   3.638   9.277 -1.1815 -0.8349 -0.6595
  667MOL0     O87959   7.862   3.433   8.988  0.3135 -0.5365 -0.7679
  667MOL0     C87960   8.088   3.618   9.190 -0.2994 -0.5848 -0.1890
  667MOL0     C87961   8.223   3.657   9.189 -0.3186  0.0360  1.0342
  667MOL0     N87962   8.975   3.589   8.635  0.7723 -0.3395 -0.2723
  667MOL0     N87963   9.043   3.500   8.567 -0.3340 -0.3656 -0.1912
  667MOL0     C87964  10.197   3.175   8.762  0.3854  0.6817 -0.5402
  667MOL0     C87965  10.336   3.153   8.758 -0.0448  0.8757  0.3838
  667MOL0     C87966  10.744   2.957   8.745 -0.8373 -1.1565 -0.4838
  667MOL0     C87967  10.812   3.027   8.851 -0.4055 -0.8134 -0.2398
  667MOL0     C87968  10.958   3.045   8.847  0.7458  0.0100 -0.0280
  667MOL0     C87969  11.035   2.984   8.742  0.8849 -0.2902  0.1010
  667MOL0     O87970  11.172   3.007   8.731 -0.1730  0.1028  0.0652
  667MOL0     C87971  11.250   3.003   8.853 -0.7065 -0.2068  0.3847
  667MOL0     C87972  11.398   3.025   8.809 -0.5302 -0.1132  0.4046
  667MOL0     C87973  11.454   2.913   8.725 -0.1497  0.4974  0.3827
  667MOL0     C87974  11.595   2.941   8.687 -0.2285 -0.2022  0.4559
  667MOL0     C87975  11.687   2.901   8.795  0.3438  0.3229  0.4355
  667MOL0     C87976  11.769   2.890   8.886  0.5704  0.2094 -0.7505
  667MOL0     C87977  10.966   2.916   8.649 -0.3812  0.1064  0.0951
  667MOL0     C87978  10.820   2.911   8.641  0.3436 -0.1953 -0.0050
  667MOL0     H87979  10.374   2.873   8.939  0.9793  2.2606  0.5767
  667MOL0     H87980  10.120   2.899   8.944 -0.9246 -0.0715 -0.4161
  667MOL0     H87981   9.875   3.055   9.011 -0.0643 -0.0189 -0.1680
  667MOL0     H87982   9.925   2.919   8.898  1.0992  0.1957  1.1234
  667MOL0     H87983   9.689   2.941   8.871  0.0999  0.9411  1.8474
  667MOL0     H87984   9.759   3.032   8.743 -0.7961  1.0368 -0.2776
  667MOL0     H87985   9.739   3.252   8.885 -0.8279  0.0884  1.5709
  667MOL0     H87986   9.658   3.156   9.009  2.6807 -2.1478  0.7259
  667MOL0     H87987   9.575   3.190   8.717 -1.3055  1.7547  0.1880
  667MOL0     H87988   9.476   3.123   8.840 -0.3862 -0.0156  0.3608
  667MOL0     H87989   9.563   3.414   8.799  1.2131 -0.7706 -1.2546
  667MOL0     H87990   9.499   3.368   8.965 -0.8269  1.7672 -0.1725
  667MOL0     H87991   9.323   3.473   8.861  1.0611 -0.8564  2.6336
  667MOL0     H87992   9.289   3.305   8.873 -0.5073  2.2816  2.1041
  667MOL0     H87993   9.355   3.471   8.621  2.8411 -0.3247  1.3509
  667MOL0     H87994   9.404   3.298   8.609 -0.4030 -1.5488 -1.2440
  667MOL0     H87995   9.177   3.210   8.667  0.2004 -1.6126 -4.2430
  667MOL0     H87996   9.191   3.288   8.519 -1.4843 -1.3260 -0.0147
  667MOL0     H87997   9.046   3.371   8.866 -2.7253 -1.9579 -0.2692
  667MOL0     H87998   8.887   3.708   8.861  2.6511  0.8264  0.5016
  667MOL0     H87999   8.957   3.600   8.974  3.1634  2.0872 -2.2432
  667MOL0     H88000   8.783   3.433   8.932 -3.1918 -0.5806  1.4428
  667MOL0     H88001   8.707   3.544   8.804  2.9670 -1.7088 -1.5838
  667MOL0     H88002   8.734   3.579   9.111 -2.3771 -0.2637  0.8851
  667MOL0     H88003   8.696   3.722   9.014 -1.7060 -0.0669 -1.0171
  667MOL0     H88004   8.533   3.470   9.040  1.3910 -1.1768 -0.0156
  667MOL0     H88005   8.516   3.605   8.912  0.0447  1.5958  0.7771
  667MOL0     H88006   8.335   3.483   8.926  0.6208  1.8826 -0.9087
  667MOL0     H88007   8.095   3.426   8.915 -0.3627  0.5141  0.4855
  667MOL0     H88008   7.630   3.469   8.984  1.7563  3.3554 -1.8543
  667MOL0     H88009   7.387   3.511   8.987 -1.2902  3.1319 -1.1697
  667MOL0     H88010   7.210   3.483   9.107 -1.2636 -0.7976 -1.2074
  667MOL0     H88011   7.134   3.596   9.005  1.1025  0.2999 -0.7714
  667MOL0     H88012   7.075   3.599   9.308 -0.7599 -0.2659  0.1819
  667MOL0     H88013   7.010   3.476   9.204 -1.3923  0.2076 -1.5943
  667MOL0     H88014   6.889   3.641   9.079  1.8051 -0.4786 -1.0047
  667MOL0     H88015   6.967   3.778   9.153  0.7366 -0.6109 -0.1418
  667MOL0     H88016   6.792   3.587   9.304  0.5394 -0.9557 -2.8825
  667MOL0     H88017   6.899   3.713   9.373  0.7163  0.4470 -0.3324
  667MOL0     H88018   6.673   3.764   9.177  1.4874 -0.5337 -1.0450
  667MOL0     H88019   6.795   3.885   9.226  1.8266 -1.1109  1.0630
  667MOL0     H88020   6.717   3.894   9.459 -0.0627  0.2665 -0.6113
  667MOL0     H88021   6.615   3.744   9.433 -0.1662  0.7721 -0.0350
  667MOL0     H88022   6.586   4.036   9.328 -1.8616 -0.2412 -0.3116
  667MOL0     H88023   6.487   3.913   9.261 -0.2709  1.4468 -0.6219
  667MOL0     H88024   6.409   3.856   9.500 -1.4284  0.1414 -0.5631
  667MOL0     H88025   6.347   4.002   9.429 -0.0495 -0.0874  0.0321
  667MOL0     H88026   7.427   3.739   9.339  1.1173  0.6388  0.5699
  667MOL0     H88027   7.660   3.673   9.362 -3.4442 -2.7144  1.8610
  667MOL0     H88028   8.043   3.642   9.285  4.0990  1.0211  1.7553
  667MOL0     H88029   8.257   3.733   9.259  3.5963 -1.4063  0.9000
  667MOL0     H88030  10.154   3.257   8.707  1.8016  0.0647 -2.6891
  667MOL0     H88031  10.394   3.221   8.696 -0.4511  2.1410  1.3454
  667MOL0     H88032  10.751   3.083   8.920  3.5820  3.8267  0.0537
  667MOL0     H88033  11.002   3.109   8.923 -0.8023 -0.4734  1.3340
  667MOL0     H88034  11.229   2.909   8.905 -0.7714  0.0152  0.7685
  667MOL0     H88035  11.216   3.087   8.914  2.0649  1.2623  0.0554
  667MOL0     H88036  11.409   3.109   8.740  3.4439 -0.3729  0.4983
  667MOL0     H88037  11.463   3.035   8.896 -1.0768 -0.6665  0.8844
  667MOL0     H88038  11.397   2.898   8.633 -0.1105 -1.0793  0.5830
  667MOL0     H88039  11.436   2.815   8.771  0.8150 -0.7133 -1.6846
  667MOL0     H88040  11.614   2.872   8.604 -2.4554 -1.3405  0.8319
  667MOL0     H88041  11.610   3.044   8.651  0.2929 -0.4345 -0.0166
  667MOL0     H88042  11.836   2.881   8.970 -4.1937  0.6906  3.5913
  667MOL0     H88043  11.034   2.863   8.582  0.7472  1.9980 -0.3056
  667MOL0     H88044  10.784   2.851   8.559 -1.7209 -2.2512  2.2524
  668MOL0     O88045   2.877   2.422   6.163  0.5327  0.5882 -0.2349
  668MOL0     C88046   2.946   2.521   6.146 -0.5514 -0.4925 -0.5611
  668MOL0     O88047   3.078   2.516   6.102 -0.2098  0.5136  0.2778
  668MOL0     C88048   3.132   2.393   6.076 -0.7806 -0.3837  0.5056
  668MOL0     C88049   3.233   2.347   6.166  0.0172  0.6457  0.3760
  668MOL0     C88050   3.288   2.222   6.154 -0.5396 -0.8447 -0.1076
  668MOL0     C88051   3.243   2.137   6.049 -0.8815  0.2710 -1.1255
  668MOL0     O88052   3.298   2.007   6.025 -0.2520  0.0845  0.8609
  668MOL0     C88053   3.402   1.968   6.121 -0.1580 -0.4792 -0.9879
  668MOL0     C88054   3.471   1.837   6.085 -0.9000 -0.7634  0.2252
  668MOL0     C88055   3.553   1.865   5.953  0.2532 -0.2484 -0.5507
  668MOL0     C88056   3.637   1.753   5.898  0.4677 -0.3064  0.8982
  668MOL0     C88057   3.780   1.749   5.961  0.0437  0.0097  0.7645
  668MOL0     C88058   3.883   1.853   5.916  0.3188  0.2702  0.2205
  668MOL0     C88059   3.933   1.828   5.773 -0.4686 -0.6435  0.0460
  668MOL0     C88060   3.934   1.951   5.673  1.2198  0.4942 -0.6051
  668MOL0     N88061   3.795   1.977   5.625  0.5337  0.3930 -0.3031
  668MOL0     C88062   3.702   2.046   5.694 -0.2142  0.2758 -0.2686
  668MOL0     C88063   3.598   2.036   5.615  0.5209  0.1698  0.4581
  668MOL0     C88064   3.469   2.111   5.632 -0.3809 -0.7474 -0.0709
  668MOL0     C88065   3.349   2.032   5.591 -0.0169  0.0027  0.5062
  668MOL0     C88066   3.315   2.030   5.440  0.1119 -0.4819  0.8655
  668MOL0     C88067   3.209   1.932   5.395  0.0545 -0.0452 -0.6240
  668MOL0     O88068   3.217   1.953   5.253  0.0599 -0.2597  0.6405
  668MOL0     C88069   3.096   1.958   5.196  0.0024 -0.2820 -0.1319
  668MOL0     C88070   3.037   1.837   5.173  0.7013 -0.2230 -0.3632
  668MOL0     C88071   2.907   1.845   5.110 -0.3480  0.2580  0.5777
  668MOL0     C88072   2.845   1.962   5.066  0.2034 -0.0739  0.0034
  668MOL0     C88073   2.717   1.950   4.998  0.6858 -0.3773  0.2172
  668MOL0     O88074   2.670   1.822   4.972 -0.8866 -0.0611  0.2772
  668MOL0     C88075   2.563   1.788   4.896 -0.9703  0.3761 -0.0625
  668MOL0     C88076   2.531   1.655   4.920  0.1981 -0.0495 -0.3760
  668MOL0     C88077   2.411   1.607   4.852  0.1180  1.2064  0.4075
  668MOL0     C88078   2.339   1.686   4.751  0.8849 -0.1226 -0.1516
  668MOL0     O88079   2.225   1.658   4.678 -0.2208 -0.4869  0.4504
  668MOL0     C88080   2.160   1.538   4.709 -0.1570 -0.4164  0.7212
  668MOL0     C88081   2.198   1.429   4.607  0.9032 -0.3280  0.7104
  668MOL0     C88082   2.313   1.343   4.643 -0.6029  0.4104  0.3466
  668MOL0     C88083   2.283   1.197   4.616  0.5792  0.3862  0.6682
  668MOL0     C88084   2.199   1.126   4.723 -0.6345  0.9348  0.0811
  668MOL0     C88085   2.238   0.972   4.738  0.0453  1.2007  0.3299
  668MOL0     C88086   2.107   0.893   4.763 -0.0779 -0.0925  0.6185
  668MOL0     C88087   2.124   0.747   4.749  0.1553  0.9958  0.3143
  668MOL0    Cl88088   1.961   0.678   4.700  0.0533 -0.3216  0.2745
  668MOL0     C88089   2.385   1.816   4.723  0.1034 -0.2766  1.0413
  668MOL0     C88090   2.491   1.868   4.800 -0.0261 -0.4707 -0.2893
  668MOL0     O88091   2.663   2.058   4.970  0.0855  0.8713  0.1452
  668MOL0     C88092   2.908   2.085   5.100  0.5675 -0.4785 -0.0843
  668MOL0     C88093   3.031   2.078   5.171 -1.0728  0.4997 -0.3906
  668MOL0     N88094   3.620   1.955   5.509 -0.3472  0.1123  0.3314
  668MOL0     N88095   3.741   1.921   5.519 -0.4616  0.1608  0.4760
  668MOL0     C88096   3.154   2.184   5.957  0.1549  0.3857 -0.6030
  668MOL0     C88097   3.097   2.317   5.967 -0.1728  0.5136  0.3416
  668MOL0     C88098   2.884   2.661   6.168 -0.3607 -0.0310  0.2778
  668MOL0     C88099   2.952   2.782   6.189 -0.3074  0.4614 -1.1092
  668MOL0     C88100   2.882   2.904   6.206 -0.2904  0.1494 -0.7928
  668MOL0     C88101   2.743   2.912   6.215  1.0051  0.1581 -0.4505
  668MOL0     O88102   2.678   3.028   6.246 -0.2493 -0.3401 -0.1385
  668MOL0     C88103   2.722   3.146   6.174  0.9711 -0.0137 -0.6204
  668MOL0     C88104   2.779   3.247   6.274 -0.2391 -1.0670 -0.7156
  668MOL0     C88105   2.860   3.354   6.224 -0.5600 -0.4940 -0.0087
  668MOL0     C88106   2.909   3.446   6.341  0.8038  0.5296 -0.3510
  668MOL0     C88107   3.000   3.548   6.287 -0.0324 -0.1319 -0.4679
  668MOL0     C88108   3.071   3.626   6.228  0.1431  0.4107 -0.3250
  668MOL0     C88109   2.677   2.788   6.202 -0.0223 -0.5025 -0.6290
  668MOL0     C88110   2.742   2.665   6.189  0.0007 -0.0741  0.5086
  668MOL0     H88111   3.263   2.406   6.251  0.1526  0.4240  0.4849
  668MOL0     H88112   3.362   2.190   6.227 -0.4239  0.1449  0.2237
  668MOL0     H88113   3.361   1.940   6.219  2.0079  0.1788  0.1747
  668MOL0     H88114   3.483   2.038   6.137 -0.7808  0.5616 -2.2466
  668MOL0     H88115   3.395   1.760   6.067  0.6472 -2.0886 -1.0788
  668MOL0     H88116   3.543   1.807   6.161 -1.3632  0.3466  1.1270
  668MOL0     H88117   3.625   1.945   5.968 -1.2796  0.9660  0.5618
  668MOL0     H88118   3.489   1.904   5.873  0.2066 -3.1470 -2.0996
  668MOL0     H88119   3.581   1.661   5.920 -3.1725  1.3786 -0.4537
  668MOL0     H88120   3.645   1.773   5.791 -1.1064 -0.4980  0.7107
  668MOL0     H88121   3.835   1.660   5.930 -1.2722 -0.7358  0.4624
  668MOL0     H88122   3.769   1.743   6.070 -3.1830  1.7369  0.6406
  668MOL0     H88123   3.972   1.852   5.980  0.9325  1.4489 -0.5738
  668MOL0     H88124   3.849   1.957   5.923  1.1059  0.7310 -2.1868
  668MOL0     H88125   4.033   1.786   5.786 -0.2653 -0.0050  0.5938
  668MOL0     H88126   3.874   1.744   5.734  0.5543 -3.1684  3.5402
  668MOL0     H88127   4.000   1.937   5.587 -0.7960 -2.3890 -1.8469
  668MOL0     H88128   3.973   2.037   5.728  0.3127  0.6674 -0.2191
  668MOL0     H88129   3.718   2.116   5.776 -0.9258  2.0628 -1.5805
  668MOL0     H88130   3.464   2.213   5.594  3.0998 -0.0793  0.8923
  668MOL0     H88131   3.457   2.120   5.741 -1.7902 -0.0245 -0.2641
  668MOL0     H88132   3.272   2.081   5.651 -0.8361 -1.3122  0.5623
  668MOL0     H88133   3.363   1.929   5.624  3.8810 -0.9516 -3.0973
  668MOL0     H88134   3.296   2.130   5.402  1.4186 -0.7892 -0.6905
  668MOL0     H88135   3.410   2.001   5.394  0.5878  3.4706 -1.0146
  668MOL0     H88136   3.112   1.957   5.439  0.5788  0.4389  0.2950
  668MOL0     H88137   3.236   1.828   5.416 -1.6121 -0.2415  0.8708
  668MOL0     H88138   3.080   1.743   5.205  5.7603  2.2350  1.1520
  668MOL0     H88139   2.862   1.749   5.084 -0.6890  0.7815 -0.8704
  668MOL0     H88140   2.599   1.591   4.973  3.9734  4.0694  0.3502
  668MOL0     H88141   2.372   1.512   4.887 -0.6899  1.9461  1.5905
  668MOL0     H88142   2.052   1.555   4.707 -0.0528  0.4828  1.6375
  668MOL0     H88143   2.176   1.501   4.811  0.5648  0.1468  0.8245
  668MOL0     H88144   2.228   1.471   4.510  1.5305 -0.2036  0.9548
  668MOL0     H88145   2.106   1.372   4.595  2.8040 -3.5670  0.3167
  668MOL0     H88146   2.330   1.357   4.751 -0.4946 -0.2286  0.4180
  668MOL0     H88147   2.406   1.372   4.593 -0.8600  1.7005  0.5845
  668MOL0     H88148   2.238   1.189   4.516 -2.6173 -0.2247  2.0387
  668MOL0     H88149   2.380   1.147   4.604  2.3227  3.4267  0.7677
  668MOL0     H88150   2.095   1.135   4.692 -0.9333 -3.5349 -0.9027
  668MOL0     H88151   2.210   1.174   4.821  1.5912  2.9082 -1.0428
  668MOL0     H88152   2.305   0.946   4.821  1.7385  2.3792 -0.5887
  668MOL0     H88153   2.274   0.939   4.640  0.1089  0.4785  0.5983
  668MOL0     H88154   2.070   0.910   4.864  1.4946 -0.8305  1.3579
  668MOL0     H88155   2.029   0.920   4.692 -0.8468 -1.6232  0.8445
  668MOL0     H88156   2.158   0.705   4.843 -3.8200  0.3373  1.6177
  668MOL0     H88157   2.200   0.732   4.672  0.7020  0.9746  0.8539
  668MOL0     H88158   2.327   1.872   4.651 -2.0641 -3.1263  0.3644
  668MOL0     H88159   2.522   1.971   4.782 -3.8240  0.9586  0.5058
  668MOL0     H88160   2.869   2.184   5.080 -2.6191 -1.7342 -0.6269
  668MOL0     H88161   3.075   2.175   5.194 -3.4301  1.8198 -1.0203
  668MOL0     H88162   3.130   2.128   5.867 -1.7772 -0.5038  0.4148
  668MOL0     H88163   3.024   2.352   5.895 -0.2169  0.1678  0.2122
  668MOL0     H88164   3.057   2.787   6.165 -0.2843  2.2402 -0.7460
  668MOL0     H88165   2.947   2.991   6.205  0.9370 -0.7384 -0.6785
  668MOL0     H88166   2.644   3.196   6.116 -0.7695 -0.9683  0.7858
  668MOL0     H88167   2.799   3.127   6.099  2.2100 -1.6745  0.9746
  668MOL0     H88168   2.691   3.289   6.324  1.1674  2.3572 -0.8562
  668MOL0     H88169   2.847   3.200   6.346  3.8976  1.0611 -2.8879
  668MOL0     H88170   2.808   3.415   6.150  2.9600  2.9193  0.0292
  668MOL0     H88171   2.946   3.324   6.163  1.5867  1.1667  2.0031
  668MOL0     H88172   2.822   3.490   6.391 -0.3511 -0.2315 -1.6341
  668MOL0     H88173   2.971   3.392   6.414 -1.3035  0.0176  1.1342
  668MOL0     H88174   3.133   3.698   6.179 -2.2260  2.2133 -0.8516
  668MOL0     H88175   2.569   2.796   6.214  0.2004  1.0514  0.9063
  668MOL0     H88176   2.675   2.581   6.179  3.1580 -2.5382 -1.9712
  669MOL0     O88177   8.268   7.208   5.159  0.3734  0.0488  0.3143
  669MOL0     C88178   8.330   7.149   5.067 -0.2973 -1.6299  0.6945
  669MOL0     O88179   8.278   7.054   4.978  0.8905  0.0446  0.5461
  669MOL0     C88180   8.151   7.069   4.925 -0.5130 -0.2658 -0.3283
  669MOL0     C88181   8.085   6.953   4.875  0.1341 -0.1276  0.2857
  669MOL0     C88182   7.961   6.955   4.813 -0.8213  0.4115 -0.5015
  669MOL0     C88183   7.898   7.068   4.763 -0.0589  0.3718  0.4707
  669MOL0     O88184   7.778   7.071   4.695  0.4759 -0.1699 -0.9433
  669MOL0     C88185   7.693   6.960   4.730 -0.1175 -0.4341 -0.1732
  669MOL0     C88186   7.554   6.956   4.672  0.0711  0.2263 -0.3874
  669MOL0     C88187   7.455   7.055   4.730  0.3294  0.5714 -0.2353
  669MOL0     C88188   7.327   7.041   4.644  0.0942 -0.0332  0.8528
  669MOL0     C88189   7.206   7.097   4.713 -0.0579  0.3946  1.0359
  669MOL0     C88190   7.075   7.051   4.640  0.9958 -1.2787  0.3656
  669MOL0     C88191   6.957   7.108   4.712  0.2406 -0.2054 -0.4334
  669MOL0     C88192   6.826   7.043   4.662 -0.2925 -0.4727  0.4949
  669MOL0     N88193   6.715   7.126   4.709  0.2802 -0.2212  0.1599
  669MOL0     C88194   6.643   7.104   4.826  0.4707  0.1782 -0.9244
  669MOL0     C88195   6.517   7.155   4.808 -0.5911 -0.0744  1.1661
  669MOL0     C88196   6.402   7.134   4.890  0.2964 -0.2911  0.1104
  669MOL0     C88197   6.291   7.071   4.806  0.8740  0.4595  0.4324
  669MOL0     C88198   6.202   7.172   4.727 -0.4712  0.4717 -0.0127
  669MOL0     C88199   6.090   7.092   4.657 -0.6241 -1.0512 -0.4551
  669MOL0     O88200   6.000   7.057   4.757  0.0879 -0.4177 -0.1696
  669MOL0     C88201   5.872   7.106   4.758  0.0766 -0.1706  0.4055
  669MOL0     C88202   5.764   7.021   4.767 -0.1477  0.1541 -0.1287
  669MOL0     C88203   5.627   7.065   4.760 -0.2966  0.5195 -0.1921
  669MOL0     C88204   5.606   7.193   4.736  0.8600 -0.2355 -0.2592
  669MOL0     C88205   5.476   7.245   4.700 -0.5148 -0.4506 -0.8187
  669MOL0     O88206   5.363   7.161   4.715 -0.6191  0.3394  0.0135
  669MOL0     C88207   5.245   7.202   4.654 -0.5357 -0.2339  0.6180
  669MOL0     C88208   5.222   7.205   4.519 -0.2002  0.3233 -0.0149
  669MOL0     C88209   5.097   7.245   4.473  0.1837 -0.1838  0.6975
  669MOL0     C88210   4.996   7.272   4.560  0.3612 -0.5502  0.1009
  669MOL0     O88211   4.870   7.311   4.530  0.8909  0.4643  0.0676
  669MOL0     C88212   4.853   7.390   4.405  0.0627 -0.7103  0.4728
  669MOL0     C88213   4.708   7.441   4.393 -1.5652 -0.4570 -0.2659
  669MOL0     C88214   4.602   7.340   4.432  1.3330  0.1323  0.0139
  669MOL0     C88215   4.469   7.399   4.402 -0.1324 -0.2406  0.8764
  669MOL0     C88216   4.347   7.308   4.436 -0.4161  0.1466  0.0521
  669MOL0     C88217   4.225   7.379   4.396 -0.4248  0.1050 -0.3712
  669MOL0     C88218   4.109   7.298   4.441  0.7978  0.8134  0.0818
  669MOL0     C88219   3.979   7.386   4.402  0.5162  0.9455  0.0578
  669MOL0    Cl88220   3.965   7.542   4.499  0.3357 -0.2335 -0.0417
  669MOL0     C88221   5.011   7.271   4.696 -1.1262  1.3147 -0.0008
  669MOL0     C88222   5.143   7.233   4.741  0.3390 -0.3857 -0.3080
  669MOL0     O88223   5.475   7.354   4.640 -0.1056 -0.3538 -0.6319
  669MOL0     C88224   5.724   7.280   4.731 -0.4218  1.1482  0.2943
  669MOL0     C88225   5.856   7.241   4.748 -0.0037 -0.0336 -0.0142
  669MOL0     N88226   6.522   7.214   4.679  0.2013 -0.5928  1.2084
  669MOL0     N88227   6.638   7.200   4.626 -0.6015 -0.1721  0.4196
  669MOL0     C88228   7.963   7.183   4.803  0.2503 -0.4465  0.5202
  669MOL0     C88229   8.082   7.188   4.878  0.3484  0.4973 -0.2840
  669MOL0     C88230   8.475   7.177   5.047  0.4120  0.0595 -0.0950
  669MOL0     C88231   8.552   7.249   5.141  0.5040 -0.7581 -0.5137
  669MOL0     C88232   8.687   7.269   5.126  1.0452  0.5115 -1.0896
  669MOL0     C88233   8.749   7.210   5.021 -0.8168 -0.2715  0.0455
  669MOL0     O88234   8.888   7.220   5.011  0.2360 -0.0577  0.3010
  669MOL0     C88235   8.959   7.100   5.005 -0.3554  0.4527  0.5439
  669MOL0     C88236   9.106   7.142   5.026 -1.0877  0.7362  0.4261
  669MOL0     C88237   9.151   7.243   4.927 -0.5980 -0.3761  0.1861
  669MOL0     C88238   9.141   7.211   4.778 -0.8657 -0.3521 -0.4289
  669MOL0     C88239   9.202   7.078   4.750 -1.7025 -0.4906 -0.2179
  669MOL0     C88240   9.245   6.972   4.718  0.1088  0.8157  0.0489
  669MOL0     C88241   8.684   7.138   4.924 -0.4409 -0.7558 -0.5768
  669MOL0     C88242   8.549   7.119   4.938  0.5935 -0.4752 -0.4427
  669MOL0     H88243   8.148   6.867   4.896  1.0043  0.8244  1.7444
  669MOL0     H88244   7.925   6.856   4.791  1.6104 -0.4587 -0.9320
  669MOL0     H88245   7.680   6.940   4.837 -1.2156 -0.2384 -0.2678
  669MOL0     H88246   7.745   6.872   4.692  1.4521  0.8478 -1.1549
  669MOL0     H88247   7.516   6.855   4.656 -0.5419  0.4249 -0.2411
  669MOL0     H88248   7.564   6.995   4.570  2.4219  2.1462  0.4763
  669MOL0     H88249   7.494   7.157   4.724  0.0689  0.6097 -1.9126
  669MOL0     H88250   7.436   7.029   4.834 -0.7987  3.0685  0.2683
  669MOL0     H88251   7.358   7.101   4.559 -0.2964  2.7801  2.5767
  669MOL0     H88252   7.308   6.937   4.615  2.1893 -0.6456  1.4952
  669MOL0     H88253   7.212   7.206   4.708 -1.0244  0.4647  1.2392
  669MOL0     H88254   7.213   7.065   4.817 -3.9907  0.8883  1.5897
  669MOL0     H88255   7.079   6.942   4.649  3.5089 -1.2173  0.7099
  669MOL0     H88256   7.073   7.096   4.540  0.1395  0.7426  1.2387
  669MOL0     H88257   6.959   7.079   4.817  0.4983  0.8446 -0.1442
  669MOL0     H88258   6.964   7.215   4.694  0.7131  0.0267  1.0511
  669MOL0     H88259   6.822   6.940   4.700  1.0326 -1.3979 -1.6585
  669MOL0     H88260   6.832   7.039   4.553 -1.5720  0.2590  0.3821
  669MOL0     H88261   6.670   7.040   4.909 -1.0890  0.0073 -0.5127
  669MOL0     H88262   6.369   7.230   4.931  0.7847 -0.0128 -0.1367
  669MOL0     H88263   6.416   7.070   4.978  1.4684 -1.6180 -0.9898
  669MOL0     H88264   6.219   7.024   4.873 -1.3051 -0.5427 -2.4312
  669MOL0     H88265   6.342   6.995   4.746  1.0411 -0.4564  1.6986
  669MOL0     H88266   6.172   7.250   4.798  2.1602 -0.7087  2.6528
  669MOL0     H88267   6.258   7.217   4.645  0.6544 -1.6352 -0.4658
  669MOL0     H88268   6.145   7.008   4.613  0.4895  0.4229 -2.0098
  669MOL0     H88269   6.028   7.139   4.579 -1.8754 -1.1279  0.4595
  669MOL0     H88270   5.791   6.917   4.785  3.5878  0.1734 -4.0297
  669MOL0     H88271   5.548   6.996   4.787  1.5670 -1.1129  1.5046
  669MOL0     H88272   5.304   7.171   4.456  0.3299  0.2009  0.7325
  669MOL0     H88273   5.077   7.254   4.367 -0.7083  3.7466  1.0463
  669MOL0     H88274   4.866   7.306   4.335 -1.7371 -1.1420  0.6146
  669MOL0     H88275   4.929   7.469   4.398  0.8689 -1.3750  1.4609
  669MOL0     H88276   4.701   7.476   4.290 -3.6558 -0.6257 -0.2272
  669MOL0     H88277   4.704   7.529   4.458  2.5611 -1.3862  1.5295
  669MOL0     H88278   4.604   7.308   4.537 -0.6040 -1.0234 -0.2508
  669MOL0     H88279   4.605   7.256   4.362  1.8954  0.9926 -1.0179
  669MOL0     H88280   4.463   7.489   4.464  2.2061  1.0039 -0.5419
  669MOL0     H88281   4.461   7.420   4.295  0.5035  0.5562  0.9799
  669MOL0     H88282   4.334   7.283   4.542  2.7603 -1.3570  0.1842
  669MOL0     H88283   4.346   7.214   4.381  0.5913  0.2040 -0.0813
  669MOL0     H88284   4.228   7.393   4.288  1.5251 -1.0341 -0.4985
  669MOL0     H88285   4.218   7.476   4.446  0.8937 -0.1783  0.4038
  669MOL0     H88286   4.103   7.200   4.392 -0.8752  1.4198 -1.0410
  669MOL0     H88287   4.102   7.302   4.550 -1.7474  0.9092 -0.0116
  669MOL0     H88288   3.891   7.337   4.445  2.5259 -0.2361  3.1784
  669MOL0     H88289   3.972   7.404   4.294 -1.0749 -0.8550 -0.1876
  669MOL0     H88290   4.925   7.287   4.760 -0.1117  2.2493  1.1658
  669MOL0     H88291   5.153   7.225   4.848 -2.9756 -1.5238  0.0212
  669MOL0     H88292   5.704   7.384   4.709  0.8717  1.4304  0.3594
  669MOL0     H88293   5.936   7.314   4.742 -1.2367  1.2927 -1.1450
  669MOL0     H88294   7.900   7.262   4.763 -2.1221 -3.2306 -1.6861
  669MOL0     H88295   8.126   7.286   4.896  1.4130 -0.0294  0.0731
  669MOL0     H88296   8.506   7.295   5.228  0.1618  0.3980 -1.2801
  669MOL0     H88297   8.738   7.320   5.207  1.8042  1.2019 -1.9730
  669MOL0     H88298   8.939   7.050   4.910  0.0067  0.1063  0.6481
  669MOL0     H88299   8.927   7.048   5.096 -4.2905 -2.7730 -2.3228
  669MOL0     H88300   9.110   7.181   5.128 -1.5293  1.8722  0.0304
  669MOL0     H88301   9.179   7.061   5.026  0.5524  2.1273 -0.7083
  669MOL0     H88302   9.257   7.262   4.947  0.0327 -2.8387 -0.5235
  669MOL0     H88303   9.086   7.330   4.938  0.1722  0.7369 -2.9166
  669MOL0     H88304   9.038   7.199   4.743  0.1415 -5.4052 -2.4605
  669MOL0     H88305   9.197   7.289   4.725 -2.0150 -1.2756 -3.1737
  669MOL0     H88306   9.291   6.878   4.694  1.3936  1.3255  0.4294
  669MOL0     H88307   8.734   7.088   4.842 -1.0951 -1.4716 -0.5494
  669MOL0     H88308   8.498   7.052   4.870  1.4238 -0.1592 -1.3877
  670MOL0     O88309   6.405   8.713   7.221  0.2556  0.0921  0.3389
  670MOL0     C88310   6.452   8.639   7.134 -0.2084 -0.3849  0.2627
  670MOL0     O88311   6.380   8.588   7.026  0.8304 -0.0040  0.1068
  670MOL0     C88312   6.264   8.651   6.992 -0.5314 -0.0714 -0.4997
  670MOL0     C88313   6.156   8.650   7.076  0.5468  0.4058  0.7034
  670MOL0     C88314   6.047   8.731   7.050  0.6697  0.1444 -0.8847
  670MOL0     C88315   6.045   8.805   6.927 -0.1390 -0.6578 -0.7901
  670MOL0     O88316   5.937   8.893   6.895 -0.1910  0.9771  0.2102
  670MOL0     C88317   5.903   8.914   6.755  0.3347 -0.1567 -0.2182
  670MOL0     C88318   5.762   8.970   6.743 -0.6456 -0.0604 -0.5202
  670MOL0     C88319   5.730   8.996   6.596 -0.3317 -1.2645  0.1004
  670MOL0     C88320   5.588   9.054   6.564  0.0427 -0.7933 -0.3081
  670MOL0     C88321   5.557   9.083   6.417  0.0250 -0.5864 -0.0755
  670MOL0     C88322   5.527   8.953   6.342  0.9734 -0.2868 -0.3036
  670MOL0     C88323   5.459   8.966   6.203 -0.3292 -0.1113 -0.2478
  670MOL0     C88324   5.481   8.835   6.134  0.4530  0.1679 -0.0624
  670MOL0     N88325   5.406   8.832   6.009 -0.7285  1.0695  0.3487
  670MOL0     C88326   5.277   8.788   5.997 -0.3669 -0.0399  0.3929
  670MOL0     C88327   5.239   8.823   5.879 -0.4560 -0.9023  0.2416
  670MOL0     C88328   5.105   8.795   5.815  0.2313  0.0572  0.2799
  670MOL0     C88329   5.074   8.648   5.816  0.5309 -0.0304  0.1438
  670MOL0     C88330   4.952   8.595   5.749 -0.4930  0.2671  0.1071
  670MOL0     C88331   4.948   8.642   5.607  0.2615 -0.2961 -0.1658
  670MOL0     O88332   4.854   8.574   5.524 -0.6072 -0.0972 -0.5405
  670MOL0     C88333   4.721   8.566   5.533 -0.7207 -0.3836 -0.1839
  670MOL0     C88334   4.647   8.659   5.597 -0.0862  0.2398  0.0530
  670MOL0     C88335   4.514   8.644   5.619  1.1184  0.0743  0.7388
  670MOL0     C88336   4.448   8.534   5.564  0.7647  0.3171  0.0547
  670MOL0     C88337   4.303   8.527   5.553  0.4255  1.2689 -0.5518
  670MOL0     O88338   4.253   8.462   5.445 -0.0736  0.0407  0.4422
  670MOL0     C88339   4.128   8.406   5.446  0.2020 -0.4225  0.2907
  670MOL0     C88340   4.013   8.480   5.428  0.2548 -0.4822  0.2754
  670MOL0     C88341   3.889   8.423   5.415 -0.2578  0.4568  0.1451
  670MOL0     C88342   3.872   8.283   5.410  0.1440 -0.0023  0.2613
  670MOL0     O88343   3.751   8.225   5.388 -0.2950  0.5638 -0.1386
  670MOL0     C88344   3.645   8.249   5.489 -0.4354 -0.4217  0.4614
  670MOL0     C88345   3.522   8.165   5.460  0.2920 -0.5775  0.1528
  670MOL0     C88346   3.448   8.217   5.325 -0.4785  0.1635  0.5523
  670MOL0     C88347   3.325   8.150   5.272 -0.1665 -0.4564 -0.0362
  670MOL0     C88348   3.213   8.145   5.369  0.3168 -0.0143  0.3372
  670MOL0     C88349   3.070   8.133   5.304 -0.2121 -0.6022 -0.4960
  670MOL0     C88350   3.063   8.042   5.167  0.4056 -0.6380 -0.7513
  670MOL0     C88351   2.918   8.022   5.117 -0.7735  0.8865 -1.0232
  670MOL0    Cl88352   2.928   7.966   4.957 -0.3810 -0.1147 -0.1804
  670MOL0     C88353   3.992   8.203   5.417 -0.2479 -0.9378  0.3638
  670MOL0     C88354   4.117   8.267   5.433  0.5570  0.1188 -0.4024
  670MOL0     O88355   4.238   8.573   5.642 -0.8675 -0.0041  0.7565
  670MOL0     C88356   4.526   8.437   5.488 -0.0558  0.5220 -0.0338
  670MOL0     C88357   4.664   8.459   5.474 -0.0879 -0.0063  0.8318
  670MOL0     N88358   5.337   8.892   5.815 -0.5633 -0.1238  0.8257
  670MOL0     N88359   5.438   8.879   5.893  0.5279 -0.5997  0.4568
  670MOL0     C88360   6.158   8.803   6.841 -0.1536  0.1393 -0.3776
  670MOL0     C88361   6.265   8.717   6.876 -0.6960 -0.5243 -0.0101
  670MOL0     C88362   6.586   8.592   7.152 -0.2625 -0.5275  0.5221
  670MOL0     C88363   6.608   8.456   7.148  0.5840  0.7541  0.1156
  670MOL0     C88364   6.736   8.403   7.168 -0.5778  0.2378 -0.4699
  670MOL0     C88365   6.852   8.482   7.183 -0.2353  0.3112  0.2312
  670MOL0     O88366   6.982   8.446   7.212 -0.5401 -0.1118  0.9014
  670MOL0     C88367   6.997   8.307   7.242  0.1936  0.1394 -0.5093
  670MOL0     C88368   7.150   8.287   7.281 -0.5961 -0.1318 -0.0187
  670MOL0     C88369   7.192   8.355   7.422 -0.6123  0.0081 -0.1660
  670MOL0     C88370   7.344   8.335   7.466 -0.3629 -0.5507  0.7596
  670MOL0     C88371   7.445   8.372   7.354 -0.6165 -0.0172  0.3335
  670MOL0     C88372   7.521   8.400   7.264  0.5965  0.4103  0.1719
  670MOL0     C88373   6.828   8.622   7.168 -0.1218 -0.2049  0.1248
  670MOL0     C88374   6.697   8.677   7.157 -0.3610 -1.1507 -0.4142
  670MOL0     H88375   6.155   8.589   7.166  0.0279  1.2725  1.2929
  670MOL0     H88376   5.966   8.729   7.122  0.1319  0.6666 -1.4688
  670MOL0     H88377   5.916   8.818   6.704  0.4058 -0.7017  0.7922
  670MOL0     H88378   5.968   8.999   6.730 -0.5943  0.2448 -1.3342
  670MOL0     H88379   5.742   9.054   6.810 -0.9027  0.4021 -1.1639
  670MOL0     H88380   5.690   8.894   6.774 -0.5316  0.0463  0.0017
  670MOL0     H88381   5.732   8.907   6.533 -3.3596  0.3187 -2.5168
  670MOL0     H88382   5.811   9.058   6.556 -0.5715 -1.4860 -0.7477
  670MOL0     H88383   5.503   8.997   6.602 -1.1103 -0.8233 -2.6865
  670MOL0     H88384   5.579   9.156   6.604 -0.8213 -0.8341 -0.3646
  670MOL0     H88385   5.639   9.138   6.370 -0.3081 -1.8643 -2.2840
  670MOL0     H88386   5.472   9.152   6.411 -1.2251 -2.1788 -1.6496
  670MOL0     H88387   5.449   8.891   6.388 -1.7198  1.7755 -1.7863
  670MOL0     H88388   5.624   8.903   6.340  1.1341  0.0082  0.0100
  670MOL0     H88389   5.353   8.989   6.207 -0.4267 -0.3253 -1.2816
  670MOL0     H88390   5.503   9.052   6.152  0.0589 -0.3219 -0.2756
  670MOL0     H88391   5.452   8.751   6.199 -2.1852  1.0329  0.0259
  670MOL0     H88392   5.587   8.818   6.113  1.2645  3.2049  1.0902
  670MOL0     H88393   5.224   8.735   6.076  2.0793 -0.2395  2.0313
  670MOL0     H88394   5.104   8.831   5.712 -2.6177  0.0888  0.2411
  670MOL0     H88395   5.028   8.845   5.875  1.2536  0.9704  0.8618
  670MOL0     H88396   5.051   8.620   5.919 -1.9933  0.1061 -0.3179
  670MOL0     H88397   5.159   8.583   5.794 -1.2918 -2.4017 -0.3588
  670MOL0     H88398   4.945   8.486   5.756 -0.3298  0.3605  2.3952
  670MOL0     H88399   4.863   8.635   5.798 -0.5053  1.1668 -0.6051
  670MOL0     H88400   5.044   8.634   5.554 -0.9151 -1.0600 -2.2876
  670MOL0     H88401   4.923   8.748   5.604 -0.5989 -0.4872 -3.0080
  670MOL0     H88402   4.687   8.752   5.636 -3.3941  2.4730 -1.4246
  670MOL0     H88403   4.458   8.726   5.663 -0.8423 -1.5613  1.4506
  670MOL0     H88404   4.024   8.588   5.425 -2.9222  0.0334  2.4917
  670MOL0     H88405   3.795   8.478   5.413 -0.0462  0.8076 -0.2588
  670MOL0     H88406   3.620   8.354   5.502  0.1662 -0.1138 -0.6838
  670MOL0     H88407   3.684   8.222   5.587  0.8282  2.0058  0.6983
  670MOL0     H88408   3.460   8.179   5.549 -0.0410  0.7507 -0.2628
  670MOL0     H88409   3.550   8.061   5.444 -1.4870 -1.4990  2.4523
  670MOL0     H88410   3.525   8.227   5.248 -0.0243  3.4153  1.2806
  670MOL0     H88411   3.413   8.315   5.356 -2.5037 -1.5741  4.4381
  670MOL0     H88412   3.296   8.213   5.187  2.1220 -0.5172 -0.9225
  670MOL0     H88413   3.357   8.059   5.222 -1.0509  0.5939 -2.7400
  670MOL0     H88414   3.221   8.233   5.432  2.4616 -1.3286  2.0338
  670MOL0     H88415   3.231   8.059   5.434  1.9901  0.9499  1.2142
  670MOL0     H88416   3.032   8.235   5.296 -0.1472 -0.5170  0.1644
  670MOL0     H88417   3.012   8.086   5.384  2.6041 -0.5107  1.7947
  670MOL0     H88418   3.118   8.093   5.088  2.0289 -0.5972  0.3502
  670MOL0     H88419   3.108   7.944   5.184  0.3501 -0.7258 -1.1200
  670MOL0     H88420   2.874   8.121   5.121 -2.5572  0.1099  2.1059
  670MOL0     H88421   2.860   7.955   5.182 -1.6038  1.2242 -1.4086
  670MOL0     H88422   3.990   8.102   5.377  1.0104 -0.5980 -0.6126
  670MOL0     H88423   4.209   8.210   5.424  0.0533 -0.7713 -0.0227
  670MOL0     H88424   4.469   8.358   5.441  0.7307 -0.5100  0.7077
  670MOL0     H88425   4.728   8.400   5.409  0.2784  2.7349 -1.4747
  670MOL0     H88426   6.169   8.871   6.758 -0.5715  2.8075  1.6144
  670MOL0     H88427   6.350   8.699   6.812 -1.4211  0.6829 -1.3791
  670MOL0     H88428   6.535   8.378   7.136  1.2534  0.1313  0.0266
  670MOL0     H88429   6.744   8.295   7.178  2.8270  0.4365  0.1723
  670MOL0     H88430   6.988   8.247   7.151  0.0462 -1.2507  0.3833
  670MOL0     H88431   6.926   8.272   7.318 -2.2046  0.2447 -2.5977
  670MOL0     H88432   7.174   8.186   7.313  0.3757  0.2168  0.4049
  670MOL0     H88433   7.214   8.310   7.196 -0.5219 -0.0782  0.0514
  670MOL0     H88434   7.140   8.298   7.500  2.6104 -1.3691  1.1727
  670MOL0     H88435   7.166   8.461   7.427  0.3150  0.2129  0.8532
  670MOL0     H88436   7.382   8.384   7.556  0.8153  0.4080 -0.2266
  670MOL0     H88437   7.356   8.230   7.492  2.0312 -0.8160 -1.0419
  670MOL0     H88438   7.589   8.421   7.184 -2.0086  1.8130 -1.8237
  670MOL0     H88439   6.910   8.692   7.179 -1.0846  0.7544  1.3494
  670MOL0     H88440   6.679   8.784   7.150 -1.4685 -1.2810  0.2663
  671MOL0     O88441   1.097  10.661   8.176 -0.0889  0.2845  0.2393
  671MOL0     C88442   1.086  10.695   8.057 -0.5435 -0.2822  0.1286
  671MOL0     O88443   0.980  10.765   7.993 -0.7918 -0.1466 -0.6116
  671MOL0     C88444   0.860  10.783   8.046 -0.3807 -0.1717  0.1368
  671MOL0     C88445   0.752  10.717   7.985 -0.9744  0.2080 -0.2264
  671MOL0     C88446   0.628  10.706   8.048  0.6292  0.0213  0.6910
  671MOL0     C88447   0.611  10.763   8.169  0.2378  0.4232 -0.8611
  671MOL0     O88448   0.480  10.748   8.225 -0.1926  0.4648 -0.4839
  671MOL0     C88449   0.445  10.799   8.352  0.7829  0.8693 -0.3119
  671MOL0     C88450   0.296  10.747   8.388  0.0677  0.3378  0.0320
  671MOL0     C88451   0.181  10.747   8.291  0.2046 -1.4222  0.3848
  671MOL0     C88452   0.183  10.863   8.187  0.3667 -0.1983 -0.3424
  671MOL0     C88453   0.187  10.990   8.257  0.2714  0.0921  0.5472
  671MOL0     C88454   0.165  11.111   8.168 -0.3392 -0.4085 -0.4497
  671MOL0     C88455   0.238  11.237   8.225 -0.5178 -0.5094 -0.9754
  671MOL0     C88456   0.212  11.362   8.148 -1.7638  0.2035 -0.4247
  671MOL0     N88457   0.089  11.417   8.191 -0.5534 -0.3515  0.6378
  671MOL0     C88458   0.062  11.495   8.293 -0.1943 -0.0444  0.5678
  671MOL0     C88459  -0.071  11.512   8.300 -0.4884  0.8963 -1.4429
  671MOL0     C88460  -0.147  11.591   8.394  0.6496  0.3432  0.2990
  671MOL0     C88461  -0.140  11.740   8.383 -0.4915 -0.3166 -0.4149
  671MOL0     C88462  -0.209  11.813   8.509 -0.3810 -0.1092  0.6759
  671MOL0     C88463  -0.363  11.786   8.503 -0.7437 -0.3372 -0.5032
  671MOL0     O88464  -0.420  11.893   8.574  0.5176  0.1050 -0.1181
  671MOL0     C88465  -0.561  11.914   8.563  0.5760  0.5083 -0.3164
  671MOL0     C88466  -0.654  11.814   8.520  0.4617 -0.0834 -0.2254
  671MOL0     C88467  -0.791  11.832   8.543  0.0553  0.0008 -0.5541
  671MOL0     C88468  -0.839  11.956   8.589  0.6021 -0.0666 -0.1296
  671MOL0     C88469  -0.987  11.974   8.591 -0.5886  0.4384  0.0770
  671MOL0     O88470  -1.027  12.098   8.621 -0.0387  0.6253 -0.4666
  671MOL0     C88471  -1.162  12.127   8.605  0.4250  0.2028 -0.1878
  671MOL0     C88472  -1.224  12.119   8.477 -0.2666  0.3132 -0.5856
  671MOL0     C88473  -1.364  12.148   8.468  0.0688  0.3890 -0.6792
  671MOL0     C88474  -1.437  12.195   8.575 -0.2637 -0.1110  0.1001
  671MOL0     O88475  -1.564  12.235   8.559  0.4557  0.5111 -0.0197
  671MOL0     C88476  -1.638  12.204   8.445 -0.0493 -0.0887  1.3461
  671MOL0     C88477  -1.784  12.247   8.450  0.6921 -0.5975  0.3561
  671MOL0     C88478  -1.855  12.196   8.573 -0.4432 -0.5460 -0.9565
  671MOL0     C88479  -2.014  12.198   8.559 -0.0258  0.3877 -0.2867
  671MOL0     C88480  -2.082  12.198   8.702  0.4060 -1.2289  0.2557
  671MOL0     C88481  -2.229  12.215   8.707  0.8910 -0.5713 -0.3019
  671MOL0     C88482  -2.304  12.132   8.602  0.4207  0.4698 -0.4845
  671MOL0     C88483  -2.453  12.138   8.633 -0.3115  0.3750  0.3201
  671MOL0    Cl88484  -2.514  12.295   8.599  0.0511 -0.3526  0.1383
  671MOL0     C88485  -1.375  12.214   8.699  0.2841  0.6255  0.0322
  671MOL0     C88486  -1.237  12.182   8.709  0.6570  0.3561 -0.8871
  671MOL0     O88487  -1.056  11.882   8.538  0.4014 -0.0735  0.2533
  671MOL0     C88488  -0.745  12.061   8.622  0.4342 -0.0973  0.1292
  671MOL0     C88489  -0.609  12.040   8.606 -0.2857  0.0840 -0.5646
  671MOL0     N88490  -0.128  11.451   8.189  0.0882  0.1091 -0.9683
  671MOL0     N88491  -0.033  11.387   8.132  0.6275 -0.5552  0.1454
  671MOL0     C88492   0.705  10.847   8.214 -0.5254 -0.8750 -0.6910
  671MOL0     C88493   0.832  10.860   8.162  0.6822 -0.0107  0.4859
  671MOL0     C88494   1.207  10.666   7.968 -0.1777  0.4384 -0.4197
  671MOL0     C88495   1.310  10.577   8.022 -1.4112  0.1171 -0.1800
  671MOL0     C88496   1.422  10.551   7.947  0.1443  0.2128  0.5723
  671MOL0     C88497   1.444  10.606   7.819  0.1234 -0.2025 -0.1884
  671MOL0     O88498   1.559  10.584   7.750 -0.1334 -0.0392 -0.6680
  671MOL0     C88499   1.688  10.599   7.811 -0.0778 -0.7874 -0.4136
  671MOL0     C88500   1.806  10.563   7.711  0.6879 -0.3429  0.5352
  671MOL0     C88501   1.943  10.573   7.793  0.6567 -0.0498 -0.5853
  671MOL0     C88502   2.056  10.499   7.726 -0.8458 -0.3160 -0.0875
  671MOL0     C88503   2.125  10.563   7.605 -0.1344  0.3184  0.2183
  671MOL0     C88504   2.179  10.601   7.502  1.6425  0.0778 -1.4052
  671MOL0     C88505   1.335  10.672   7.761  0.9568  0.4894  0.9588
  671MOL0     C88506   1.213  10.692   7.830 -0.2811  0.0226  0.0832
  671MOL0     H88507   0.776  10.660   7.896  0.4411  2.6170 -1.5152
  671MOL0     H88508   0.545  10.650   8.005 -0.3021  1.3610  0.6818
  671MOL0     H88509   0.450  10.908   8.360 -2.0584  0.9916  0.7669
  671MOL0     H88510   0.510  10.751   8.426  0.9736  0.2708 -0.8561
  671MOL0     H88511   0.262  10.808   8.473 -1.8065  3.7256 -2.8525
  671MOL0     H88512   0.311  10.644   8.419 -1.7640  0.0301  0.0354
  671MOL0     H88513   0.086  10.749   8.345 -2.9254 -0.7509 -4.5217
  671MOL0     H88514   0.190  10.655   8.232  1.5367 -0.3487 -1.1738
  671MOL0     H88515   0.273  10.853   8.125 -0.1528 -0.9375 -0.9933
  671MOL0     H88516   0.102  10.849   8.115  1.2630  2.5948 -2.0139
  671MOL0     H88517   0.287  11.012   8.294  1.1876 -2.6641 -0.0989
  671MOL0     H88518   0.122  10.991   8.345  2.1048  2.4634  2.0051
  671MOL0     H88519   0.060  11.137   8.152  0.0809  1.6668 -0.0732
  671MOL0     H88520   0.204  11.089   8.068  1.1000 -0.5434  0.1154
  671MOL0     H88521   0.199  11.244   8.327 -0.6779  0.4964 -1.0976
  671MOL0     H88522   0.346  11.223   8.229 -0.2466  1.5722  1.6914
  671MOL0     H88523   0.212  11.345   8.040  1.6783  1.0981 -0.7014
  671MOL0     H88524   0.293  11.432   8.172 -0.9339 -1.7665  3.2711
  671MOL0     H88525   0.131  11.548   8.358  0.6337  0.6718 -0.8459
  671MOL0     H88526  -0.116  11.570   8.496 -2.2333  2.3291  1.7214
  671MOL0     H88527  -0.250  11.559   8.378  0.9203 -0.5258  0.2135
  671MOL0     H88528  -0.170  11.775   8.284  0.7480 -1.3107 -1.1770
  671MOL0     H88529  -0.035  11.767   8.402 -0.8047  0.2923  0.5110
  671MOL0     H88530  -0.161  11.794   8.605  1.4804  1.6354  0.1430
  671MOL0     H88531  -0.195  11.920   8.492 -2.0076 -0.0888 -0.8969
  671MOL0     H88532  -0.381  11.686   8.541 -1.1057 -0.2643 -0.4751
  671MOL0     H88533  -0.384  11.783   8.395 -1.1650  0.9575 -0.4795
  671MOL0     H88534  -0.623  11.715   8.489 -1.1148 -0.9621  0.8675
  671MOL0     H88535  -0.854  11.748   8.514 -1.5304  0.9131  0.1335
  671MOL0     H88536  -1.172  12.073   8.394 -1.6488 -0.5181 -1.0419
  671MOL0     H88537  -1.413  12.135   8.372 -2.5600 -2.4228  0.8466
  671MOL0     H88538  -1.636  12.096   8.430  0.4651  0.3640 -3.9506
  671MOL0     H88539  -1.600  12.253   8.354  1.3273  1.7477  2.8173
  671MOL0     H88540  -1.834  12.205   8.362 -2.7925  1.7094  1.0282
  671MOL0     H88541  -1.804  12.354   8.435  0.1195 -0.9484 -1.7881
  671MOL0     H88542  -1.824  12.266   8.651 -0.6479 -1.0555 -0.4115
  671MOL0     H88543  -1.821  12.097   8.603 -0.2879 -0.3027 -0.3022
  671MOL0     H88544  -2.043  12.294   8.516 -2.1317 -0.3020 -0.5307
  671MOL0     H88545  -2.052  12.109   8.507  1.7098 -1.2954  1.1654
  671MOL0     H88546  -2.034  12.276   8.762 -1.1394  0.8621 -1.1102
  671MOL0     H88547  -2.059  12.104   8.755  0.3399 -1.4333 -0.0791
  671MOL0     H88548  -2.254  12.321   8.705 -0.5857 -0.8504  1.2630
  671MOL0     H88549  -2.259  12.166   8.800  2.2892  0.9521  1.0050
  671MOL0     H88550  -2.295  12.167   8.499  0.7185  2.3181  0.1253
  671MOL0     H88551  -2.290  12.024   8.614 -2.0767  0.0383 -0.8988
  671MOL0     H88552  -2.493  12.100   8.728 -3.1604  1.9236 -0.1823
  671MOL0     H88553  -2.495  12.065   8.564  1.1710 -0.4463  0.2373
  671MOL0     H88554  -1.435  12.249   8.782 -1.4485  0.6939 -1.1842
  671MOL0     H88555  -1.188  12.189   8.806 -1.4681 -0.5592  0.3347
  671MOL0     H88556  -0.775  12.160   8.654  1.5440  0.5834 -0.8632
  671MOL0     H88557  -0.537  12.115   8.638  0.0429 -0.5733  0.2589
  671MOL0     H88558   0.686  10.898   8.308 -0.9343 -0.5600 -0.9442
  671MOL0     H88559   0.906  10.924   8.210  1.0627 -0.8350  1.0302
  671MOL0     H88560   1.309  10.541   8.125 -2.2728  1.5876  0.3550
  671MOL0     H88561   1.481  10.476   7.999 -1.8489 -1.5774  0.3722
  671MOL0     H88562   1.691  10.514   7.880  1.2250  0.2756  0.9019
  671MOL0     H88563   1.703  10.695   7.861 -4.3173  1.3167 -2.5861
  671MOL0     H88564   1.787  10.463   7.672 -2.2763  0.1090  0.6325
  671MOL0     H88565   1.803  10.641   7.634 -3.9130  1.5366  2.2753
  671MOL0     H88566   1.947  10.539   7.896  1.1344  1.6664 -0.0059
  671MOL0     H88567   1.949  10.682   7.784 -2.4633  0.0486 -5.0182
  671MOL0     H88568   2.129  10.495   7.807 -3.4268  0.8713  2.4637
  671MOL0     H88569   2.029  10.394   7.711 -1.0952  0.0889 -3.1197
  671MOL0     H88570   2.236  10.624   7.414  2.9944 -2.2147 -1.2199
  671MOL0     H88571   1.354  10.695   7.657 -2.5161 -2.5772 -0.5827
  671MOL0     H88572   1.135  10.749   7.782  2.8831  0.6117 -5.1040
  672MOL0     O88573   6.598   5.423  10.410  0.0100  1.4232 -0.0806
  672MOL0     C88574   6.631   5.348  10.312  0.7120  0.1901 -1.4312
  672MOL0     O88575   6.534   5.290  10.231  0.7748 -0.0297 -0.4420
  672MOL0     C88576   6.399   5.301  10.257 -0.5078 -0.2739  0.3885
  672MOL0     C88577   6.325   5.355  10.154 -0.0148 -0.3976 -1.1287
  672MOL0     C88578   6.190   5.388  10.181 -0.0971 -0.1938 -0.8306
  672MOL0     C88579   6.136   5.353  10.305  0.5588  0.8079 -0.3219
  672MOL0     O88580   6.007   5.387  10.332  0.3119 -0.2143  0.1211
  672MOL0     C88581   5.909   5.353  10.237  0.4597  0.4620  0.2027
  672MOL0     C88582   5.769   5.403  10.272 -0.4334 -0.2218  0.2397
  672MOL0     C88583   5.652   5.370  10.175 -0.4158 -0.4403 -0.3998
  672MOL0     C88584   5.599   5.228  10.166 -0.3002  0.3448 -0.3516
  672MOL0     C88585   5.491   5.228  10.060 -0.1647  0.0328 -0.1688
  672MOL0     C88586   5.356   5.253  10.133 -0.2372 -0.2416  0.7094
  672MOL0     C88587   5.247   5.230  10.033 -0.3319 -0.3678  0.5816
  672MOL0     C88588   5.113   5.243  10.095  0.4412  0.5288  0.1149
  672MOL0     N88589   5.012   5.208   9.995  1.2217 -0.2566 -0.1629
  672MOL0     C88590   4.992   5.279   9.879 -0.4664  0.4153 -1.1185
  672MOL0     C88591   4.877   5.227   9.830  0.6252  0.4020  0.2871
  672MOL0     C88592   4.826   5.262   9.699 -0.2031 -0.1882 -0.3264
  672MOL0     C88593   4.679   5.224   9.655  1.0127 -0.1084 -0.5818
  672MOL0     C88594   4.569   5.275   9.754  0.7872  0.3649 -0.0118
  672MOL0     C88595   4.434   5.228   9.716 -0.0995 -0.1069 -0.2344
  672MOL0     O88596   4.392   5.296   9.600 -0.3971  0.1655  0.1989
  672MOL0     C88597   4.270   5.267   9.553 -0.8605 -0.0739  1.1104
  672MOL0     C88598   4.183   5.375   9.543 -0.3743 -0.2191  0.2892
  672MOL0     C88599   4.062   5.357   9.484  0.2794  0.6972  0.1413
  672MOL0     C88600   4.025   5.234   9.432  0.4210 -0.3480  0.4612
  672MOL0     C88601   3.898   5.225   9.352  0.3091 -0.1448 -0.1537
  672MOL0     O88602   3.867   5.101   9.311 -0.6073  0.2938  0.2727
  672MOL0     C88603   3.745   5.077   9.254  0.0684  0.3650  0.1775
  672MOL0     C88604   3.746   5.014   9.129  0.7927  0.6592 -0.7190
  672MOL0     C88605   3.614   4.982   9.081 -0.6627  0.7099 -0.4077
  672MOL0     C88606   3.494   5.001   9.149 -0.1190  0.3125 -0.3310
  672MOL0     O88607   3.373   4.969   9.091  0.2863 -0.4653  0.2893
  672MOL0     C88608   3.355   5.011   8.953  0.9482  0.8099 -0.1446
  672MOL0     C88609   3.378   4.896   8.851 -1.0351 -0.3009 -0.4873
  672MOL0     C88610   3.249   4.817   8.824  0.0523 -0.0702 -0.5901
  672MOL0     C88611   3.266   4.747   8.687  0.2506 -0.1463 -0.8362
  672MOL0     C88612   3.176   4.617   8.664 -0.0084 -0.3430  0.6315
  672MOL0     C88613   3.031   4.654   8.675  0.0393  0.1474 -0.1867
  672MOL0     C88614   2.944   4.527   8.667 -0.6809 -0.2420  0.2010
  672MOL0     C88615   2.827   4.530   8.563  0.8635  0.4190  1.7162
  672MOL0    Cl88616   2.798   4.366   8.490 -0.4814 -0.5716  0.3689
  672MOL0     C88617   3.503   5.061   9.279 -0.2370 -0.3652 -0.0227
  672MOL0     C88618   3.628   5.087   9.328 -1.0531 -0.3186 -0.4159
  672MOL0     O88619   3.829   5.323   9.342  0.2704 -0.1799 -0.8831
  672MOL0     C88620   4.116   5.130   9.432  0.5419  0.0952 -1.3553
  672MOL0     C88621   4.245   5.142   9.491  0.0895 -0.6247  0.0205
  672MOL0     N88622   4.826   5.132   9.914 -0.3660  0.7655 -0.3728
  672MOL0     N88623   4.913   5.113  10.009 -0.0997 -0.2081  0.3001
  672MOL0     C88624   6.211   5.282  10.405  0.5449 -0.3443 -0.0005
  672MOL0     C88625   6.348   5.263  10.377 -0.5974  0.2097 -0.1051
  672MOL0     C88626   6.777   5.322  10.293 -0.8321 -0.4792  0.4101
  672MOL0     C88627   6.829   5.226  10.201 -0.0405  0.1009 -0.9391
  672MOL0     C88628   6.957   5.225  10.175  0.4317 -0.2791  0.0475
  672MOL0     C88629   7.053   5.304  10.243  0.3847 -1.0409  0.0537
  672MOL0     O88630   7.182   5.331  10.199  0.3043 -0.6738 -0.2232
  672MOL0     C88631   7.232   5.248  10.092  0.0521 -0.0465 -0.0762
  672MOL0     C88632   7.388   5.231  10.099 -0.0315 -0.6464  0.6371
  672MOL0     C88633   7.455   5.367  10.102  0.0169  0.4030  0.3654
  672MOL0     C88634   7.495   5.411   9.964 -0.7497  0.0267 -0.7286
  672MOL0     C88635   7.511   5.555   9.949  0.5019  0.1460  0.0094
  672MOL0     C88636   7.516   5.673   9.945 -0.0437  0.0890  0.9292
  672MOL0     C88637   7.007   5.395  10.340  0.1278  0.1030  1.3700
  672MOL0     C88638   6.869   5.410  10.366 -0.4240 -0.8513  0.2628
  672MOL0     H88639   6.368   5.388  10.060  1.7378 -0.9221 -0.5409
  672MOL0     H88640   6.145   5.434  10.094 -0.1796  0.5660 -0.3937
  672MOL0     H88641   5.900   5.244  10.231 -0.5567  0.5976 -1.4408
  672MOL0     H88642   5.928   5.390  10.136  2.2637  0.1882  0.4020
  672MOL0     H88643   5.785   5.511  10.262  0.8264 -0.0787  2.9447
  672MOL0     H88644   5.746   5.382  10.377  0.1304 -2.9262 -0.0931
  672MOL0     H88645   5.673   5.416  10.078  3.5953 -1.7905 -0.3340
  672MOL0     H88646   5.564   5.423  10.213  0.1846  0.0047  0.4009
  672MOL0     H88647   5.681   5.170  10.124 -1.5507 -0.1918 -2.1707
  672MOL0     H88648   5.572   5.183  10.262 -0.4306  2.7068  0.8124
  672MOL0     H88649   5.490   5.127  10.018 -2.1814 -0.0225 -0.0856
  672MOL0     H88650   5.509   5.299   9.978 -1.0130  1.5417  0.9235
  672MOL0     H88651   5.350   5.354  10.175 -0.6467 -0.7371  1.8974
  672MOL0     H88652   5.334   5.182  10.214 -2.3093 -1.1067 -0.5418
  672MOL0     H88653   5.263   5.314   9.965  1.0607 -1.3153 -0.3274
  672MOL0     H88654   5.257   5.138   9.974  1.2476 -1.4039  2.3700
  672MOL0     H88655   5.098   5.344  10.134 -1.0909  0.1833  0.4751
  672MOL0     H88656   5.111   5.178  10.183  2.3881 -0.6413 -0.6392
  672MOL0     H88657   5.056   5.356   9.837 -0.6607  1.5112  0.5105
  672MOL0     H88658   4.894   5.220   9.625  0.3775 -0.5027  0.3794
  672MOL0     H88659   4.841   5.370   9.703  3.0459 -0.5686  0.2666
  672MOL0     H88660   4.675   5.115   9.662  0.5592 -0.2062 -2.0746
  672MOL0     H88661   4.655   5.265   9.556 -1.3518  2.7236  0.9822
  672MOL0     H88662   4.599   5.267   9.858  1.5860 -1.6351 -0.3533
  672MOL0     H88663   4.567   5.384   9.740 -0.3960  0.1587 -1.7592
  672MOL0     H88664   4.363   5.257   9.794  2.0088 -1.5874  2.4049
  672MOL0     H88665   4.432   5.119   9.715  0.3473 -0.1185  0.0366
  672MOL0     H88666   4.208   5.477   9.571  0.4879  0.3403 -2.2251
  672MOL0     H88667   3.992   5.440   9.474  0.1764  0.4636 -1.4987
  672MOL0     H88668   3.837   5.014   9.070  1.8330  2.1384  0.7809
  672MOL0     H88669   3.607   4.940   8.981 -1.0826  0.7234 -0.3865
  672MOL0     H88670   3.434   5.084   8.933  1.8823  0.2367  1.2640
  672MOL0     H88671   3.257   5.056   8.940 -0.9480 -2.3916  1.6553
  672MOL0     H88672   3.453   4.828   8.893 -2.7138  0.6116  4.6768
  672MOL0     H88673   3.413   4.954   8.765 -1.8847  0.9000 -0.0464
  672MOL0     H88674   3.162   4.883   8.823 -0.7340 -0.9490  2.0072
  672MOL0     H88675   3.241   4.734   8.895 -0.1991  0.1005 -0.4179
  672MOL0     H88676   3.247   4.821   8.609  2.3080 -0.5292 -1.7780
  672MOL0     H88677   3.369   4.711   8.673  0.2932  0.4319 -2.1370
  672MOL0     H88678   3.193   4.539   8.739 -1.1518 -1.5490 -0.3126
  672MOL0     H88679   3.206   4.578   8.566  0.3093 -2.0331  1.3554
  672MOL0     H88680   3.009   4.724   8.594 -1.3905  0.2504  0.2758
  672MOL0     H88681   3.020   4.704   8.772 -1.0569  1.1108 -0.7960
  672MOL0     H88682   3.001   4.442   8.630 -0.7158  0.8944 -2.7658
  672MOL0     H88683   2.901   4.513   8.767 -0.8097  0.4654  0.2538
  672MOL0     H88684   2.853   4.598   8.481  3.6481  0.9715  2.9306
  672MOL0     H88685   2.732   4.555   8.612 -1.6720 -0.7149 -2.1715
  672MOL0     H88686   3.419   5.098   9.336 -0.7343  3.7353 -2.9488
  672MOL0     H88687   3.645   5.132   9.425  0.8971 -0.4160 -0.6647
  672MOL0     H88688   4.103   5.030   9.392  3.7360 -0.6562 -0.8119
  672MOL0     H88689   4.306   5.053   9.505 -0.5534 -1.1293 -0.3506
  672MOL0     H88690   6.168   5.254  10.501  0.5395  1.4184  0.5421
  672MOL0     H88691   6.410   5.215  10.451  0.8591  1.0918 -0.7090
  672MOL0     H88692   6.770   5.157  10.142  0.6575 -1.2591 -0.0924
  672MOL0     H88693   6.976   5.152  10.097 -3.2058 -2.1064  0.6635
  672MOL0     H88694   7.195   5.286   9.996 -0.7434  0.0017  0.2344
  672MOL0     H88695   7.185   5.149  10.087 -0.6675  0.3337 -1.4646
  672MOL0     H88696   7.407   5.171  10.188 -2.2385 -2.5138 -0.0656
  672MOL0     H88697   7.429   5.172  10.017 -4.0397 -0.3879 -1.8117
  672MOL0     H88698   7.548   5.366  10.161  1.0750 -1.8001 -1.2132
  672MOL0     H88699   7.391   5.441  10.152  1.4679  1.5517  0.6207
  672MOL0     H88700   7.586   5.359   9.931  1.6255  2.0784  2.0469
  672MOL0     H88701   7.413   5.381   9.899  0.4777 -2.9000 -1.0998
  672MOL0     H88702   7.527   5.779   9.934 -1.8718  0.2017 -0.5153
  672MOL0     H88703   7.075   5.464  10.390  1.7588  1.5817 -2.4857
  672MOL0     H88704   6.839   5.500  10.418  2.2738  0.9227 -1.0258
  673MOL0     O88705   7.939  10.916   3.362 -0.1382  0.3831 -0.0806
  673MOL0     C88706   7.921  10.971   3.252 -0.0810  0.2040 -0.4422
  673MOL0     O88707   8.018  10.974   3.153  0.0367 -0.4834  0.6712
  673MOL0     C88708   8.155  10.967   3.182 -0.9453  0.5050  0.4667
  673MOL0     C88709   8.207  11.043   3.285 -0.2790  0.1524  0.7195
  673MOL0     C88710   8.347  11.044   3.309 -0.6037 -0.2872  0.4553
  673MOL0     C88711   8.434  10.972   3.223  0.1412 -0.3857  1.0548
  673MOL0     O88712   8.573  10.979   3.225  0.1761 -1.1742 -0.1834
  673MOL0     C88713   8.633  11.023   3.349 -1.2878 -0.7097 -0.2711
  673MOL0     C88714   8.792  11.006   3.364  0.7703  0.1285 -0.7479
  673MOL0     C88715   8.851  11.095   3.478  0.4524 -0.2650 -0.5854
  673MOL0     C88716   8.814  11.054   3.619 -0.5747 -0.2876 -0.4301
  673MOL0     C88717   8.913  11.094   3.722 -0.8146 -0.8044 -0.0136
  673MOL0     C88718   8.947  11.247   3.745  0.1214  0.9597  0.5977
  673MOL0     C88719   9.052  11.270   3.843 -0.0148  0.5860  0.5224
  673MOL0     C88720   9.049  11.410   3.911  1.2293 -0.8456 -0.4533
  673MOL0     N88721   9.156  11.434   4.006 -0.3137  0.0913  0.3063
  673MOL0     C88722   9.287  11.426   3.975  0.1760  1.3357 -0.7682
  673MOL0     C88723   9.355  11.443   4.093 -1.2144  0.8050 -0.6158
  673MOL0     C88724   9.502  11.438   4.087  0.4209  0.5117 -1.1294
  673MOL0     C88725   9.563  11.530   3.982  0.4825  0.7851  0.0620
  673MOL0     C88726   9.720  11.505   3.985  0.2782  0.2129  0.4486
  673MOL0     C88727   9.779  11.566   3.860  0.3507  0.4351  0.1393
  673MOL0     O88728   9.918  11.584   3.871  0.7429 -0.5870  0.0354
  673MOL0     C88729   9.971  11.631   3.753  0.0971  0.2844 -0.0037
  673MOL0     C88730   9.898  11.671   3.635  0.0269  0.5054  0.0356
  673MOL0     C88731   9.966  11.704   3.521  0.0691  0.4200  0.0895
  673MOL0     C88732  10.103  11.720   3.528 -1.4710  0.0667  0.0085
  673MOL0     C88733  10.179  11.763   3.415 -0.1974 -0.0408 -0.4985
  673MOL0     O88734  10.279  11.851   3.442 -0.4508 -0.3314 -1.4712
  673MOL0     C88735  10.348  11.890   3.331  0.4655 -0.4084 -0.1671
  673MOL0     C88736  10.305  12.008   3.275  1.1331  0.2984  0.3789
  673MOL0     C88737  10.355  12.053   3.149 -1.0604  0.6720 -0.2464
  673MOL0     C88738  10.448  11.971   3.077 -0.3049  0.1484 -0.2739
  673MOL0     O88739  10.478  12.017   2.950  0.2105  0.4272 -0.3691
  673MOL0     C88740  10.541  11.921   2.869 -0.5090  0.4139 -0.3406
  673MOL0     C88741  10.495  11.960   2.732  0.0550  0.1294 -0.1492
  673MOL0     C88742  10.553  12.088   2.692 -0.4445  0.7963 -0.3422
  673MOL0     C88743  10.536  12.092   2.546  0.0264 -0.2310  0.4237
  673MOL0     C88744  10.519  12.232   2.481  1.6124 -1.1656 -0.3012
  673MOL0     C88745  10.604  12.350   2.537 -0.2497  0.6596 -0.0304
  673MOL0     C88746  10.761  12.322   2.498  0.0674  0.8417 -0.8681
  673MOL0     C88747  10.850  12.416   2.579 -0.4329  0.6174  0.5774
  673MOL0    Cl88748  10.840  12.584   2.517 -0.7328  0.7359  0.6467
  673MOL0     C88749  10.495  11.853   3.138 -0.7563  0.6148 -0.5683
  673MOL0     C88750  10.443  11.816   3.262  0.6937 -0.6599  0.4571
  673MOL0     O88751  10.155  11.719   3.312 -0.0747  0.5696 -0.2309
  673MOL0     C88752  10.178  11.678   3.644 -0.2364 -0.1323 -0.4891
  673MOL0     C88753  10.108  11.643   3.759  0.1513  0.0952 -0.1865
  673MOL0     N88754   9.265  11.452   4.192  0.1229 -0.0399  0.4574
  673MOL0     N88755   9.154  11.454   4.138  0.5643 -0.1111  0.4432
  673MOL0     C88756   8.382  10.903   3.114  0.2229 -0.4020  0.3802
  673MOL0     C88757   8.243  10.893   3.093  1.1608 -0.7996 -0.3299
  673MOL0     C88758   7.782  11.005   3.217 -0.3226 -0.4478 -0.5396
  673MOL0     C88759   7.756  11.048   3.086  0.3548 -0.8856 -0.5820
  673MOL0     C88760   7.630  11.094   3.048  0.9026 -0.5549 -0.8384
  673MOL0     C88761   7.523  11.101   3.142  0.7657 -0.9904 -0.1700
  673MOL0     O88762   7.396  11.142   3.120 -0.1877  0.3534 -0.0754
  673MOL0     C88763   7.385  11.239   3.017 -0.1483  0.4557 -0.3324
  673MOL0     C88764   7.435  11.376   3.074  0.0344  0.6927 -0.0566
  673MOL0     C88765   7.353  11.431   3.193 -0.4649  0.6557 -0.0067
  673MOL0     C88766   7.220  11.511   3.156 -0.2670 -0.1891 -0.0097
  673MOL0     C88767   7.112  11.437   3.079  0.6566 -0.2120  0.0776
  673MOL0     C88768   7.030  11.375   3.015  0.1862 -0.4561  0.8382
  673MOL0     C88769   7.545  11.041   3.269 -0.5888 -0.1909  0.5177
  673MOL0     C88770   7.675  10.997   3.308  1.2498 -0.4965 -0.5140
  673MOL0     H88771   8.137  11.100   3.346 -0.4591 -2.0572  2.7487
  673MOL0     H88772   8.393  11.099   3.390  0.9607 -3.3104  1.7790
  673MOL0     H88773   8.578  10.978   3.432 -0.3643 -3.3255 -0.9600
  673MOL0     H88774   8.627  11.131   3.363  1.1433 -0.4804 -0.4949
  673MOL0     H88775   8.839  11.036   3.270  0.7390 -1.7473 -1.4203
  673MOL0     H88776   8.823  10.902   3.353  2.0660  0.5279 -0.9621
  673MOL0     H88777   8.827  11.200   3.459 -1.9683 -0.7655 -0.5650
  673MOL0     H88778   8.960  11.095   3.468  0.3822  1.0855 -1.5742
  673MOL0     H88779   8.717  11.100   3.640  0.1067  1.7386 -1.4453
  673MOL0     H88780   8.808  10.945   3.624 -2.2059 -0.1703  1.7209
  673MOL0     H88781   9.004  11.038   3.695 -2.5024 -2.4605 -2.7464
  673MOL0     H88782   8.892  11.039   3.815  0.2083 -3.1942 -1.0889
  673MOL0     H88783   8.859  11.300   3.782 -0.7556 -1.4830  2.2591
  673MOL0     H88784   8.978  11.283   3.646  2.2154  1.4907  1.4030
  673MOL0     H88785   9.064  11.187   3.913  0.0298 -1.3406 -1.6575
  673MOL0     H88786   9.144  11.260   3.784 -1.3483 -0.6163 -1.4432
  673MOL0     H88787   8.959  11.413   3.973  0.8184 -0.9163 -1.0398
  673MOL0     H88788   9.048  11.490   3.837 -0.9532  1.1748  1.5751
  673MOL0     H88789   9.318  11.400   3.874 -1.7652 -0.5653 -0.9547
  673MOL0     H88790   9.525  11.333   4.064 -0.3780 -0.6386  2.4812
  673MOL0     H88791   9.549  11.458   4.184 -0.4773  0.2805 -0.6252
  673MOL0     H88792   9.530  11.632   4.006 -0.5693  0.1072  1.6445
  673MOL0     H88793   9.511  11.519   3.886 -1.0258  2.0932  0.6820
  673MOL0     H88794   9.758  11.564   4.069 -1.1056  0.5102  0.8943
  673MOL0     H88795   9.745  11.400   3.998  3.6347  0.7886 -0.4832
  673MOL0     H88796   9.728  11.663   3.859 -0.7028 -0.0701 -2.7437
  673MOL0     H88797   9.744  11.502   3.779 -1.6733 -2.2440  2.8909
  673MOL0     H88798   9.790  11.669   3.626  0.1139 -1.1224 -0.9733
  673MOL0     H88799   9.908  11.716   3.431  2.8804  1.0441 -1.7636
  673MOL0     H88800  10.238  12.074   3.329 -1.3914 -1.5981 -0.2731
  673MOL0     H88801  10.310  12.145   3.112  0.0478  0.4596 -2.2255
  673MOL0     H88802  10.504  11.820   2.892 -1.2340  0.5513 -0.8863
  673MOL0     H88803  10.649  11.920   2.889 -0.4205 -0.5849 -0.7777
  673MOL0     H88804  10.386  11.962   2.739  0.1216  2.3999  1.3486
  673MOL0     H88805  10.509  11.886   2.653  0.0022 -1.7640  1.5302
  673MOL0     H88806  10.656  12.093   2.728 -0.0491 -1.0600 -1.1175
  673MOL0     H88807  10.492  12.168   2.737 -1.3906 -0.5646  0.8830
  673MOL0     H88808  10.620  12.042   2.498 -0.5672  0.3237 -1.2704
  673MOL0     H88809  10.447  12.037   2.512  0.7352 -1.9354  1.2061
  673MOL0     H88810  10.413  12.258   2.472  1.6404 -1.7955 -3.5246
  673MOL0     H88811  10.547  12.229   2.375  1.9748 -1.4396 -0.2005
  673MOL0     H88812  10.595  12.360   2.646  1.0630  3.4179 -0.0966
  673MOL0     H88813  10.568  12.444   2.495 -2.0932  0.1157  0.2577
  673MOL0     H88814  10.779  12.218   2.527  1.0887  1.4753  0.9683
  673MOL0     H88815  10.782  12.329   2.391  0.6635  2.1983 -0.6844
  673MOL0     H88816  10.954  12.382   2.587 -0.5406  0.1040 -0.1174
  673MOL0     H88817  10.808  12.406   2.679 -1.2387 -2.6322  0.0364
  673MOL0     H88818  10.563  11.780   3.095 -1.3135  0.5705 -1.4103
  673MOL0     H88819  10.482  11.727   3.310  0.6339 -0.9391 -0.0045
  673MOL0     H88820  10.286  11.677   3.639 -0.0847  0.8273  1.6398
  673MOL0     H88821  10.152  11.626   3.857 -0.9632  1.2831  0.5565
  673MOL0     H88822   8.460  10.847   3.065  1.4896  0.6448  1.1193
  673MOL0     H88823   8.218  10.843   3.000 -1.5200 -0.4901  0.1381
  673MOL0     H88824   7.827  11.029   3.005  1.8032  0.6326  0.2564
  673MOL0     H88825   7.615  11.126   2.946  0.4124  3.2953  0.2818
  673MOL0     H88826   7.281  11.243   2.985 -0.5796  0.7806  1.0520
  673MOL0     H88827   7.435  11.204   2.926 -0.8481 -3.1756  0.5379
  673MOL0     H88828   7.540  11.379   3.104  0.9417 -2.3659 -2.3809
  673MOL0     H88829   7.423  11.442   2.988 -1.2158  1.2123  0.4914
  673MOL0     H88830   7.417  11.509   3.235  0.8514  0.5004 -1.6442
  673MOL0     H88831   7.331  11.349   3.263 -3.0457 -1.1278 -2.6590
  673MOL0     H88832   7.163  11.542   3.244 -2.4565 -3.3587 -0.1482
  673MOL0     H88833   7.258  11.592   3.092  1.6917 -1.4311 -0.5368
  673MOL0     H88834   6.948  11.329   2.964  3.1655 -2.5872 -2.4754
  673MOL0     H88835   7.461  11.022   3.335 -2.1019 -0.1446 -1.3213
  673MOL0     H88836   7.688  10.975   3.414 -2.0527 -2.4418 -0.3599
  674MOL0     O88837   2.338   6.779   9.736 -0.3880 -0.5502  0.2090
  674MOL0     C88838   2.414   6.782   9.640 -0.4527 -0.8214 -0.1899
  674MOL0     O88839   2.379   6.807   9.507  0.3004  0.5003 -0.2851
  674MOL0     C88840   2.248   6.794   9.484 -0.2796 -0.5456  0.9844
  674MOL0     C88841   2.190   6.669   9.455  0.0492 -1.1626 -0.8378
  674MOL0     C88842   2.046   6.665   9.449  0.1145  0.0473 -0.4783
  674MOL0     C88843   1.963   6.775   9.444 -0.7862  0.0972  0.3442
  674MOL0     O88844   1.828   6.760   9.404  0.0780  0.7906  0.2071
  674MOL0     C88845   1.736   6.858   9.445  0.3974 -0.4660  0.9431
  674MOL0     C88846   1.612   6.785   9.477  0.7296 -0.1784 -0.7664
  674MOL0     C88847   1.530   6.740   9.354 -0.5835  0.0089  0.1320
  674MOL0     C88848   1.387   6.777   9.385  0.1156  0.5824  0.6097
  674MOL0     C88849   1.307   6.664   9.439 -0.3110 -0.0696 -0.3337
  674MOL0     C88850   1.338   6.636   9.590  0.0106 -0.2283  0.7978
  674MOL0     C88851   1.229   6.541   9.649 -0.2697  0.3336 -0.8602
  674MOL0     C88852   1.270   6.502   9.781  0.0959  0.6035 -0.5765
  674MOL0     N88853   1.266   6.611   9.882  0.2436 -0.0948  0.5753
  674MOL0     C88854   1.152   6.644   9.945 -0.6339  0.1504 -0.1656
  674MOL0     C88855   1.185   6.719  10.052  0.5765 -0.0359 -0.1911
  674MOL0     C88856   1.102   6.767  10.170  0.6429 -0.6185 -1.1144
  674MOL0     C88857   1.042   6.642  10.241 -0.4556  0.9314  0.1162
  674MOL0     C88858   0.981   6.679  10.380 -0.1019  0.3803  0.6327
  674MOL0     C88859   0.841   6.755  10.371 -0.5908  0.1870  0.0326
  674MOL0     O88860   0.744   6.668  10.298 -0.2449  0.0096  0.3516
  674MOL0     C88861   0.611   6.711  10.295  0.8413  0.3058  0.3870
  674MOL0     C88862   0.559   6.823  10.357 -0.4200 -0.7839  0.3355
  674MOL0     C88863   0.419   6.853  10.348 -0.0521  0.7894  0.6987
  674MOL0     C88864   0.334   6.771  10.278 -0.0596  1.2323  0.2670
  674MOL0     C88865   0.196   6.802  10.247  0.0913 -0.4861 -0.1966
  674MOL0     O88866   0.130   6.724  10.161 -0.1125  0.3862 -0.0939
  674MOL0     C88867   0.000   6.756  10.115 -0.0353  0.2813  0.2820
  674MOL0     C88868  -0.102   6.658  10.136 -1.0430 -0.2006 -0.4484
  674MOL0     C88869  -0.233   6.681  10.088 -0.2470 -0.4577 -0.7135
  674MOL0     C88870  -0.256   6.786  10.001  0.1823 -0.0260  0.4386
  674MOL0     O88871  -0.384   6.810   9.959 -0.2355 -0.2389 -0.0651
  674MOL0     C88872  -0.411   6.747   9.832  0.1499 -0.5847 -0.6944
  674MOL0     C88873  -0.554   6.760   9.792  0.0393 -0.1294 -0.7941
  674MOL0     C88874  -0.608   6.907   9.779 -0.8260 -1.0538  0.4286
  674MOL0     C88875  -0.576   6.954   9.629 -0.2912 -0.1266 -0.1114
  674MOL0     C88876  -0.664   7.052   9.578  0.4473 -0.9575 -0.7998
  674MOL0     C88877  -0.675   7.194   9.654 -0.6625  0.1425  1.4766
  674MOL0     C88878  -0.536   7.256   9.679 -0.2825  0.6000  0.8683
  674MOL0     C88879  -0.533   7.412   9.698 -0.4897 -0.5961 -0.3900
  674MOL0    Cl88880  -0.597   7.514   9.564  0.5173 -0.3375  0.4492
  674MOL0     C88881  -0.157   6.880   9.976  0.0001 -0.0617  0.3862
  674MOL0     C88882  -0.030   6.862  10.027  0.1034  0.4324  0.3196
  674MOL0     O88883   0.152   6.908  10.301  0.4098 -0.1381  0.0826
  674MOL0     C88884   0.388   6.647  10.226  0.4229 -0.0210 -0.5152
  674MOL0     C88885   0.523   6.627  10.228  0.0784  0.7740  0.3491
  674MOL0     N88886   1.320   6.758  10.035 -0.2967  0.4615 -0.1656
  674MOL0     N88887   1.368   6.687   9.937 -0.4353  0.7771  0.3387
  674MOL0     C88888   2.025   6.900   9.461 -0.3053  0.1482  0.1598
  674MOL0     C88889   2.165   6.912   9.485 -0.9694  0.1765  1.0765
  674MOL0     C88890   2.557   6.741   9.658 -0.7993  1.4356 -0.5239
  674MOL0     C88891   2.613   6.715   9.785 -0.1982 -0.2333 -0.3112
  674MOL0     C88892   2.746   6.683   9.807  0.9440 -0.5303  0.2425
  674MOL0     C88893   2.830   6.658   9.699  0.0475 -0.5296 -0.5477
  674MOL0     O88894   2.960   6.618   9.718 -0.1073 -0.4766 -0.3483
  674MOL0     C88895   3.036   6.616   9.847  0.5265 -1.0248 -0.7489
  674MOL0     C88896   3.055   6.749   9.912 -0.1582  0.0618 -0.3342
  674MOL0     C88897   3.120   6.847   9.808  0.0274 -0.0132  0.2564
  674MOL0     C88898   3.263   6.827   9.763 -0.1703 -0.1391 -0.2020
  674MOL0     C88899   3.356   6.850   9.877  0.3411 -0.1249 -0.8444
  674MOL0     C88900   3.428   6.894   9.973 -0.9147 -0.0490 -0.6682
  674MOL0     C88901   2.781   6.685   9.575 -0.2025 -0.8373  0.0329
  674MOL0     C88902   2.644   6.731   9.550 -0.4058 -0.1651 -0.2468
  674MOL0     H88903   2.252   6.582   9.434  3.2476  0.8575 -0.4650
  674MOL0     H88904   2.001   6.573   9.411  0.6360 -0.2081 -0.4962
  674MOL0     H88905   1.735   6.933   9.365  2.8130 -0.3439  0.9497
  674MOL0     H88906   1.771   6.909   9.535  2.8913  3.7878 -2.0418
  674MOL0     H88907   1.558   6.850   9.546  0.7758 -2.2824  1.3547
  674MOL0     H88908   1.644   6.698   9.534  0.0841 -0.8089 -1.3595
  674MOL0     H88909   1.542   6.631   9.353 -4.3148 -0.6749 -4.0873
  674MOL0     H88910   1.576   6.783   9.265  0.2490 -0.9709  0.0773
  674MOL0     H88911   1.372   6.854   9.461  0.5208 -1.2638  2.6493
  674MOL0     H88912   1.339   6.803   9.291  0.3637 -1.6239 -0.1940
  674MOL0     H88913   1.299   6.570   9.385 -2.4239 -0.0009 -0.2089
  674MOL0     H88914   1.203   6.696   9.434 -0.0862  0.5050 -2.0211
  674MOL0     H88915   1.342   6.724   9.654  3.4346 -1.1243  2.0553
  674MOL0     H88916   1.437   6.590   9.598  0.0498 -0.4335 -0.5337
  674MOL0     H88917   1.132   6.593   9.652 -0.9883 -0.9555  2.1561
  674MOL0     H88918   1.223   6.445   9.596 -0.1407  0.9224 -1.9611
  674MOL0     H88919   1.370   6.458   9.773 -0.3953 -2.1804  4.5439
  674MOL0     H88920   1.199   6.423   9.808 -0.5019  1.0402 -0.8555
  674MOL0     H88921   1.053   6.602   9.938 -1.6560  1.5788  3.5244
  674MOL0     H88922   1.020   6.836  10.145 -1.2086 -2.2005  0.2694
  674MOL0     H88923   1.171   6.825  10.232 -0.3167 -1.2101  0.5953
  674MOL0     H88924   1.124   6.576  10.270 -2.3560 -1.1978  0.8838
  674MOL0     H88925   0.988   6.575  10.174  1.2926  1.7569 -2.2245
  674MOL0     H88926   0.955   6.596  10.446 -0.7490  1.4463  1.7906
  674MOL0     H88927   1.049   6.738  10.443  0.6210 -1.1337  1.3030
  674MOL0     H88928   0.847   6.851  10.319 -1.2371  0.6710  0.8355
  674MOL0     H88929   0.812   6.784  10.472  1.6139  0.7847  0.5473
  674MOL0     H88930   0.618   6.904  10.400 -1.5068  0.4596 -0.4230
  674MOL0     H88931   0.394   6.953  10.378  1.6551  1.3013  0.5570
  674MOL0     H88932  -0.077   6.564  10.185  3.4338  1.4662  0.9664
  674MOL0     H88933  -0.310   6.611  10.118  1.3366 -2.1426 -0.3808
  674MOL0     H88934  -0.392   6.640   9.839  4.0062 -0.1767 -2.5052
  674MOL0     H88935  -0.352   6.789   9.750  0.7541  0.8957  0.4481
  674MOL0     H88936  -0.619   6.717   9.870  0.9778 -0.9153 -0.4205
  674MOL0     H88937  -0.575   6.706   9.699  2.5483 -0.7537 -1.0726
  674MOL0     H88938  -0.551   6.970   9.848 -0.1419 -1.0965 -0.0859
  674MOL0     H88939  -0.715   6.911   9.801 -0.8599  0.8328  0.0910
  674MOL0     H88940  -0.476   6.998   9.624 -0.7480  0.8430 -1.1316
  674MOL0     H88941  -0.571   6.866   9.565  2.7496 -0.3366  0.2717
  674MOL0     H88942  -0.765   7.011   9.564  0.9599 -1.7499 -2.4253
  674MOL0     H88943  -0.625   7.075   9.478  0.5832  2.2793 -0.1183
  674MOL0     H88944  -0.740   7.185   9.742 -0.9051  0.5216  1.3434
  674MOL0     H88945  -0.732   7.267   9.595 -0.4309  0.0642  1.1602
  674MOL0     H88946  -0.497   7.221   9.775  1.0288  1.2400  0.5977
  674MOL0     H88947  -0.486   7.227   9.587 -1.2684  1.3036  0.0829
  674MOL0     H88948  -0.437   7.456   9.724 -0.7748 -1.5292  2.5848
  674MOL0     H88949  -0.611   7.440   9.769 -0.3310  0.0939 -0.4787
  674MOL0     H88950  -0.176   6.962   9.908  0.8570  0.3846  0.6796
  674MOL0     H88951   0.052   6.930  10.011  1.5773 -0.5434  2.9541
  674MOL0     H88952   0.334   6.572  10.169 -0.3511  0.4321 -0.4035
  674MOL0     H88953   0.579   6.551  10.175  1.5902  0.4088  2.3402
  674MOL0     H88954   1.960   6.986   9.472  0.7836  0.8851  1.1302
  674MOL0     H88955   2.217   7.005   9.508 -0.4995 -0.2726  1.8637
  674MOL0     H88956   2.567   6.736   9.881 -1.7593  1.8912 -1.4512
  674MOL0     H88957   2.776   6.662   9.910 -1.4207  0.0760  1.1159
  674MOL0     H88958   3.136   6.578   9.824  0.6450 -1.0372 -0.2270
  674MOL0     H88959   2.994   6.552   9.925  0.2497  2.7280  2.4725
  674MOL0     H88960   2.956   6.791   9.928  0.5395  1.6896 -0.0212
  674MOL0     H88961   3.118   6.738  10.001  1.9661 -1.1508 -1.8898
  674MOL0     H88962   3.115   6.951   9.842 -0.9198 -0.4217  1.4362
  674MOL0     H88963   3.066   6.846   9.713 -4.2234 -0.4123  2.4057
  674MOL0     H88964   3.286   6.731   9.716 -0.4191  0.2559 -1.1541
  674MOL0     H88965   3.296   6.898   9.687 -0.6667 -2.2478 -2.5080
  674MOL0     H88966   3.490   6.950  10.040 -0.6600 -1.9603  0.7905
  674MOL0     H88967   2.857   6.679   9.497  0.4505 -2.4248  0.7358
  674MOL0     H88968   2.613   6.764   9.451 -0.3805 -3.1399 -1.3566
  675MOL0     O88969   7.442   3.182   4.693 -0.5877 -0.0012 -0.8028
  675MOL0     C88970   7.534   3.147   4.616 -0.4731 -0.4590 -0.0647
  675MOL0     O88971   7.529   3.149   4.484  0.0534  0.1241 -0.0402
  675MOL0     C88972   7.407   3.165   4.421 -0.3123 -0.1979  0.2041
  675MOL0     C88973   7.370   3.291   4.371 -0.7662 -0.2181  0.6440
  675MOL0     C88974   7.246   3.313   4.303  0.1231 -0.1375  0.0819
  675MOL0     C88975   7.158   3.209   4.295 -0.4094  0.3029 -0.2498
  675MOL0     O88976   7.045   3.234   4.212 -0.4831 -0.2171 -0.3887
  675MOL0     C88977   6.926   3.165   4.235 -1.2809  0.1849 -0.3487
  675MOL0     C88978   6.824   3.209   4.126  0.1439 -0.1050 -0.0149
  675MOL0     C88979   6.681   3.169   4.177  0.1923  0.0585  0.5695
  675MOL0     C88980   6.562   3.194   4.084 -0.0077  0.1851 -0.4997
  675MOL0     C88981   6.427   3.219   4.157  0.5064 -0.2241  0.8059
  675MOL0     C88982   6.300   3.188   4.078 -0.7637 -0.3918  0.8607
  675MOL0     C88983   6.172   3.195   4.163  0.5758 -0.2021 -0.9512
  675MOL0     C88984   6.058   3.159   4.068  0.8639  0.1257 -0.3219
  675MOL0     N88985   5.937   3.151   4.158  0.3566  0.1783  0.6558
  675MOL0     C88986   5.837   3.250   4.169  0.4123  0.8039 -0.6547
  675MOL0     C88987   5.734   3.201   4.251 -1.0995 -0.6716  0.1689
  675MOL0     C88988   5.610   3.277   4.297 -0.5833 -0.4419 -0.1017
  675MOL0     C88989   5.495   3.237   4.195 -0.4864  0.7629 -0.3498
  675MOL0     C88990   5.374   3.318   4.236  0.2611 -0.6375 -0.3936
  675MOL0     C88991   5.267   3.301   4.121  0.1075  0.0662  0.5708
  675MOL0     O88992   5.139   3.344   4.179 -0.2475  0.9077  0.3870
  675MOL0     C88993   5.051   3.417   4.104 -0.2383 -0.1413 -0.6122
  675MOL0     C88994   4.929   3.437   4.169  0.5361 -0.0131  0.7485
  675MOL0     C88995   4.824   3.508   4.105 -0.3080 -0.1034  1.4063
  675MOL0     C88996   4.840   3.576   3.981 -0.4201  0.0325  0.7724
  675MOL0     C88997   4.733   3.659   3.920 -0.2085  0.0604 -0.0675
  675MOL0     O88998   4.620   3.677   3.986 -0.9392  0.6307 -0.3667
  675MOL0     C88999   4.511   3.759   3.946  0.3445  0.0860 -0.7574
  675MOL0     C89000   4.424   3.808   4.047  0.0554 -0.2197  0.0865
  675MOL0     C89001   4.318   3.893   4.018 -0.2148 -0.1430  0.2452
  675MOL0     C89002   4.284   3.920   3.880 -1.0635  0.9139 -0.6065
  675MOL0     O89003   4.177   4.006   3.856  0.2811  0.4522  0.3292
  675MOL0     C89004   4.105   3.985   3.739 -0.0675  0.0120  0.6414
  675MOL0     C89005   4.057   3.835   3.716 -0.2405 -0.2732 -0.3241
  675MOL0     C89006   3.924   3.802   3.789 -1.4649  0.2958  0.0825
  675MOL0     C89007   3.947   3.745   3.931  0.1213 -0.0373  0.6855
  675MOL0     C89008   3.817   3.753   4.012  0.6401 -0.3363  0.3007
  675MOL0     C89009   3.709   3.656   3.947 -0.9986 -0.2249  0.5150
  675MOL0     C89010   3.588   3.649   4.033  0.0605 -0.0938  0.0382
  675MOL0     C89011   3.494   3.534   3.991 -0.3098 -0.0593 -0.2457
  675MOL0    Cl89012   3.494   3.531   3.811  0.3441  0.0339 -0.0103
  675MOL0     C89013   4.377   3.873   3.785  0.2548  0.1870 -0.2525
  675MOL0     C89014   4.489   3.806   3.818 -1.1016  1.1032 -0.3576
  675MOL0     O89015   4.769   3.725   3.821  0.7562  0.3314 -0.3806
  675MOL0     C89016   4.960   3.549   3.918  0.0427  0.3269 -1.1461
  675MOL0     C89017   5.062   3.470   3.975  0.5265  0.3601  0.6533
  675MOL0     N89018   5.776   3.074   4.284 -0.4369  0.3893 -0.1705
  675MOL0     N89019   5.891   3.044   4.226 -0.0904 -0.0806  0.0197
  675MOL0     C89020   7.187   3.080   4.358  0.2291  0.5717 -0.1993
  675MOL0     C89021   7.313   3.062   4.417 -0.3147 -0.3568 -0.6349
  675MOL0     C89022   7.669   3.118   4.682 -0.4378  0.4556 -0.3269
  675MOL0     C89023   7.782   3.075   4.609 -0.3615 -0.3981 -0.4634
  675MOL0     C89024   7.901   3.058   4.666 -0.2046 -0.3431 -1.0226
  675MOL0     C89025   7.917   3.073   4.807  0.7311 -0.3139  0.9997
  675MOL0     O89026   8.035   3.044   4.865 -0.3331  0.6207 -0.3386
  675MOL0     C89027   8.150   2.997   4.784  0.6748 -0.3094  0.3304
  675MOL0     C89028   8.274   2.981   4.869 -0.2407  0.2654 -1.0910
  675MOL0     C89029   8.277   2.848   4.957 -0.6792  1.0350  0.5626
  675MOL0     C89030   8.400   2.828   5.047  0.7322 -0.5939 -0.0402
  675MOL0     C89031   8.413   2.944   5.126 -0.4944 -0.8805 -0.3538
  675MOL0     C89032   8.434   3.033   5.212 -0.3179 -0.4983  0.2047
  675MOL0     C89033   7.812   3.104   4.889  1.4371  0.4218  0.6103
  675MOL0     C89034   7.688   3.127   4.827 -0.0414  0.3379 -0.0942
  675MOL0     H89035   7.442   3.372   4.370  0.9394 -1.6836  0.3324
  675MOL0     H89036   7.215   3.408   4.260 -1.4771 -1.8418 -2.8034
  675MOL0     H89037   6.885   3.190   4.333 -1.9994 -0.3147 -0.5150
  675MOL0     H89038   6.944   3.058   4.227  1.8449  0.6213 -0.4458
  675MOL0     H89039   6.850   3.159   4.033  3.1203  1.5590 -0.2029
  675MOL0     H89040   6.831   3.315   4.104 -1.3048 -0.4239 -2.3638
  675MOL0     H89041   6.675   3.212   4.278  3.3769 -0.7580  1.2312
  675MOL0     H89042   6.675   3.063   4.203 -2.4471  0.2702  1.0539
  675MOL0     H89043   6.580   3.289   4.032  1.0803  1.4614  2.0608
  675MOL0     H89044   6.554   3.111   4.013  1.7518 -1.0961  0.7042
  675MOL0     H89045   6.427   3.321   4.196  1.0614  1.3937 -2.9469
  675MOL0     H89046   6.423   3.150   4.242  0.2769  0.1250  1.0741
  675MOL0     H89047   6.303   3.086   4.038 -2.4082  0.7260 -2.5492
  675MOL0     H89048   6.303   3.258   3.994 -1.5140 -1.3922 -0.0397
  675MOL0     H89049   6.186   3.114   4.234 -0.7121 -1.4165 -2.0213
  675MOL0     H89050   6.152   3.297   4.197  0.9629 -0.1576 -0.8571
  675MOL0     H89051   6.079   3.060   4.026 -1.0228 -0.3780 -0.1957
  675MOL0     H89052   6.036   3.233   3.990 -0.1925  0.9693  0.7325
  675MOL0     H89053   5.825   3.349   4.126 -3.1320  0.4372 -0.7928
  675MOL0     H89054   5.617   3.385   4.288  1.8808 -0.3433  1.9988
  675MOL0     H89055   5.583   3.243   4.397  0.1470 -2.2131 -0.4638
  675MOL0     H89056   5.479   3.130   4.204  0.0153  0.6837 -0.3384
  675MOL0     H89057   5.526   3.254   4.091 -4.2776  2.8079 -1.3075
  675MOL0     H89058   5.337   3.299   4.337  1.3718 -0.1889  0.1184
  675MOL0     H89059   5.407   3.423   4.233 -0.9200 -0.2317  0.3372
  675MOL0     H89060   5.265   3.195   4.094  0.5522  0.8804 -3.1564
  675MOL0     H89061   5.284   3.362   4.032 -7.3513  0.2221 -1.4053
  675MOL0     H89062   4.904   3.386   4.261 -0.3566  0.4125  0.7487
  675MOL0     H89063   4.725   3.515   4.149 -1.4829 -0.7369 -0.9497
  675MOL0     H89064   4.448   3.798   4.152  0.8690 -0.0100 -0.0734
  675MOL0     H89065   4.248   3.930   4.093 -0.5953 -0.6534  0.1473
  675MOL0     H89066   4.171   4.009   3.655 -0.5319  2.0717  0.8113
  675MOL0     H89067   4.015   4.046   3.752 -1.8992 -2.0513 -1.3776
  675MOL0     H89068   4.130   3.762   3.752  1.8286  1.6025 -0.4799
  675MOL0     H89069   4.040   3.828   3.608 -2.9242  1.1429 -0.0849
  675MOL0     H89070   3.867   3.734   3.723 -0.9024 -1.7413  1.5836
  675MOL0     H89071   3.872   3.897   3.802 -0.2440  1.1533 -1.0901
  675MOL0     H89072   3.988   3.643   3.925 -0.6483 -0.4044  1.4728
  675MOL0     H89073   4.020   3.804   3.988 -1.1331  1.3931  0.8602
  675MOL0     H89074   3.793   3.859   4.017 -1.9825 -0.8891  0.9521
  675MOL0     H89075   3.833   3.717   4.114 -1.0555 -1.4728  0.2128
  675MOL0     H89076   3.761   3.559   3.946 -0.0704  0.2586  0.6080
  675MOL0     H89077   3.675   3.678   3.846 -0.7625 -2.6531 -0.1535
  675MOL0     H89078   3.611   3.637   4.139 -1.2828  1.1066  0.5095
  675MOL0     H89079   3.520   3.735   4.025 -1.3884 -1.3471 -2.5051
  675MOL0     H89080   3.393   3.559   4.027 -0.2343  0.1065 -0.1465
  675MOL0     H89081   3.522   3.436   4.030  1.4190  1.4803  2.7892
  675MOL0     H89082   4.360   3.891   3.679  0.4451  0.5489 -0.2217
  675MOL0     H89083   4.554   3.777   3.737 -1.1329 -1.6121  0.4939
  675MOL0     H89084   4.986   3.589   3.820  2.8897 -0.7482 -0.9383
  675MOL0     H89085   5.152   3.471   3.913  0.7043  3.6096  0.7552
  675MOL0     H89086   7.126   2.990   4.356  1.3837 -0.2183 -2.3534
  675MOL0     H89087   7.344   2.969   4.464 -0.0863 -0.5030 -1.0780
  675MOL0     H89088   7.760   3.068   4.503 -2.1845  0.0288 -0.1607
  675MOL0     H89089   7.984   3.025   4.605 -1.3156 -0.7878 -2.3239
  675MOL0     H89090   8.166   3.068   4.702 -0.2684 -1.9906 -1.3841
  675MOL0     H89091   8.129   2.902   4.733 -0.0191 -1.0874  1.9888
  675MOL0     H89092   8.360   2.993   4.802  0.5778  0.1893 -0.0834
  675MOL0     H89093   8.279   3.071   4.932 -0.0811  0.2374 -1.0613
  675MOL0     H89094   8.277   2.757   4.897  1.3155  0.3586  1.4966
  675MOL0     H89095   8.184   2.840   5.015 -2.5058  1.9504 -2.0611
  675MOL0     H89096   8.388   2.735   5.103 -0.1205  0.8642  2.3810
  675MOL0     H89097   8.487   2.817   4.982  1.0722  1.8078 -0.0994
  675MOL0     H89098   8.470   3.114   5.273  1.1216  0.3139 -1.5994
  675MOL0     H89099   7.823   3.115   4.996  1.0692 -0.6501  0.7702
  675MOL0     H89100   7.610   3.168   4.892  0.7320  1.1646  0.3343
  676MOL0     O89101   0.516   5.132   9.900  0.6553  0.2615  0.3478
  676MOL0     C89102   0.560   5.236   9.852  0.2904  0.0057 -0.2738
  676MOL0     O89103   0.484   5.350   9.825 -0.4700  0.5555  0.3930
  676MOL0     C89104   0.347   5.360   9.821 -0.6137  0.5043 -0.1610
  676MOL0     C89105   0.270   5.249   9.787  0.2965 -1.2464  0.4978
  676MOL0     C89106   0.125   5.264   9.779 -1.1667 -0.5773  1.0478
  676MOL0     C89107   0.065   5.389   9.789 -0.3428 -0.1348  0.0328
  676MOL0     O89108  -0.070   5.425   9.787  0.3063 -0.3469 -0.3090
  676MOL0     C89109  -0.161   5.317   9.785  0.9343 -0.0354  0.8814
  676MOL0     C89110  -0.305   5.369   9.799 -0.0637 -0.0948 -0.3714
  676MOL0     C89111  -0.415   5.273   9.763  0.6327 -0.2868  0.9332
  676MOL0     C89112  -0.557   5.336   9.759 -0.7925  0.4005 -0.6677
  676MOL0     C89113  -0.669   5.236   9.779 -0.0365 -0.0696  0.7218
  676MOL0     C89114  -0.809   5.304   9.756  0.4816 -0.1661 -0.4959
  676MOL0     C89115  -0.824   5.345   9.613 -0.3499  0.0965  0.8335
  676MOL0     C89116  -0.967   5.317   9.565 -0.2253 -1.2207  0.6312
  676MOL0     N89117  -0.992   5.318   9.424 -0.3314 -0.5022 -0.1649
  676MOL0     C89118  -0.958   5.421   9.339  0.1209 -0.2960  0.9369
  676MOL0     C89119  -0.988   5.376   9.212  0.2035 -0.1858 -0.6303
  676MOL0     C89120  -0.968   5.444   9.088 -0.2919  0.2360 -0.5350
  676MOL0     C89121  -0.863   5.385   9.001  0.3424 -0.1468  0.5301
  676MOL0     C89122  -0.828   5.476   8.884  0.1477 -0.2750 -0.4815
  676MOL0     C89123  -0.699   5.559   8.913 -0.0764  0.0005  0.5776
  676MOL0     O89124  -0.594   5.500   8.836 -0.0363 -0.4739 -0.4645
  676MOL0     C89125  -0.470   5.531   8.894 -0.1893 -0.4808  0.4560
  676MOL0     C89126  -0.370   5.567   8.805 -0.7665  0.1312  0.2211
  676MOL0     C89127  -0.241   5.551   8.844  0.0688 -0.0918 -0.2663
  676MOL0     C89128  -0.196   5.510   8.965  0.5642  0.2773 -0.3654
  676MOL0     C89129  -0.057   5.484   8.994 -0.2124  0.6632  0.7259
  676MOL0     O89130   0.018   5.485   8.878  0.7815 -0.0620  0.1214
  676MOL0     C89131   0.151   5.464   8.872 -0.4217  0.1828  0.1305
  676MOL0     C89132   0.204   5.476   8.744 -0.5832  0.5432  0.5645
  676MOL0     C89133   0.334   5.460   8.707 -0.9631 -0.9028  0.6273
  676MOL0     C89134   0.431   5.418   8.806 -0.1689  0.3518 -0.9093
  676MOL0     O89135   0.560   5.391   8.776 -0.9124  0.2616 -0.4096
  676MOL0     C89136   0.617   5.401   8.638  0.6172  0.1325 -1.7122
  676MOL0     C89137   0.751   5.344   8.638 -0.2354  0.0433 -0.6847
  676MOL0     C89138   0.827   5.362   8.500  0.1011 -0.5117  0.4208
  676MOL0     C89139   0.897   5.499   8.497 -1.2944  0.3775  0.3280
  676MOL0     C89140   0.971   5.529   8.365 -0.0785  0.2571  0.1939
  676MOL0     C89141   0.884   5.603   8.251 -0.4412  0.0577 -0.6904
  676MOL0     C89142   0.753   5.542   8.225  0.5546 -0.5376 -0.5079
  676MOL0     C89143   0.676   5.631   8.126 -0.5946  0.5540  0.0375
  676MOL0    Cl89144   0.770   5.650   7.974 -0.3849 -0.2425 -0.4381
  676MOL0     C89145   0.386   5.404   8.935  0.2109 -0.4943  0.1328
  676MOL0     C89146   0.252   5.431   8.969 -0.0177 -0.2794  0.6122
  676MOL0     O89147  -0.023   5.463   9.111  0.0701 -0.1046 -0.1976
  676MOL0     C89148  -0.295   5.475   9.059 -0.4201 -0.2919 -0.4902
  676MOL0     C89149  -0.433   5.488   9.023 -0.4855  0.9401 -0.6355
  676MOL0     N89150  -1.035   5.248   9.216  0.7591  0.5177 -0.2269
  676MOL0     N89151  -1.041   5.226   9.344  0.2943  1.1009 -0.3136
  676MOL0     C89152   0.151   5.491   9.831  0.0255 -0.7916  0.2340
  676MOL0     C89153   0.291   5.480   9.848 -0.5761 -0.6577  1.3342
  676MOL0     C89154   0.694   5.228   9.795 -0.0739 -0.1633  0.0623
  676MOL0     C89155   0.759   5.099   9.764 -0.5470  0.8758 -0.6906
  676MOL0     C89156   0.883   5.109   9.690 -0.2232  0.0267  0.0133
  676MOL0     C89157   0.954   5.233   9.670 -0.0720  0.3432  0.2814
  676MOL0     O89158   1.079   5.236   9.619 -0.1321  0.3166 -0.0297
  676MOL0     C89159   1.149   5.117   9.575 -0.0168  0.6548  0.4017
  676MOL0     C89160   1.205   5.023   9.692 -0.4949 -0.6034 -0.2342
  676MOL0     C89161   1.301   4.922   9.640  0.3374 -0.1642  0.1620
  676MOL0     C89162   1.363   4.841   9.746  0.4086  1.3138  0.8973
  676MOL0     C89163   1.472   4.910   9.801  0.0607 -0.4463 -0.7448
  676MOL0     C89164   1.567   4.964   9.856 -0.4009  1.0526 -0.3090
  676MOL0     C89165   0.896   5.350   9.720 -0.4337  0.2591  0.5013
  676MOL0     C89166   0.769   5.345   9.777 -0.9326 -0.7189 -0.1173
  676MOL0     H89167   0.308   5.149   9.772 -0.4835 -1.5002  0.1537
  676MOL0     H89168   0.062   5.178   9.757 -0.5095 -1.3069  1.9738
  676MOL0     H89169  -0.146   5.232   9.852 -0.2733 -1.0009 -0.0323
  676MOL0     H89170  -0.151   5.277   9.684 -0.9746  0.2842  0.5350
  676MOL0     H89171  -0.305   5.458   9.735  0.5644 -0.9521 -1.6087
  676MOL0     H89172  -0.317   5.399   9.904 -1.1591 -0.5647 -0.3468
  676MOL0     H89173  -0.417   5.190   9.833  0.4937 -1.3243 -0.2753
  676MOL0     H89174  -0.393   5.227   9.667 -3.1886  2.3737 -1.4911
  676MOL0     H89175  -0.564   5.408   9.841 -1.7064  0.9874 -1.2440
  676MOL0     H89176  -0.573   5.388   9.664 -3.3386 -0.6057 -0.8735
  676MOL0     H89177  -0.672   5.183   9.874  1.0161 -1.8021 -0.1626
  676MOL0     H89178  -0.669   5.156   9.704  0.5586  0.4891  0.1041
  676MOL0     H89179  -0.825   5.389   9.823 -1.4771 -2.7613  2.5729
  676MOL0     H89180  -0.888   5.234   9.783  0.3755  0.3129  0.4811
  676MOL0     H89181  -0.798   5.451   9.605  0.5390 -0.2313 -1.1556
  676MOL0     H89182  -0.751   5.293   9.549  0.9570 -0.8336  2.9788
  676MOL0     H89183  -1.018   5.406   9.602 -1.7760 -0.8062 -2.2328
  676MOL0     H89184  -1.015   5.232   9.613 -0.2215 -1.1976  0.6746
  676MOL0     H89185  -0.921   5.521   9.359  3.5508 -1.2866  0.2383
  676MOL0     H89186  -0.927   5.542   9.115 -1.2447 -0.0957  2.4882
  676MOL0     H89187  -1.060   5.451   9.029 -1.0322  2.3235  0.7529
  676MOL0     H89188  -0.890   5.282   8.977 -0.1267  0.1180 -0.0930
  676MOL0     H89189  -0.767   5.373   9.052  1.0327 -0.8426 -0.8695
  676MOL0     H89190  -0.797   5.417   8.798 -1.2063  1.6346 -2.3924
  676MOL0     H89191  -0.908   5.546   8.860  0.3034 -0.5121 -1.7287
  676MOL0     H89192  -0.676   5.570   9.020 -2.8548  0.6776  1.1881
  676MOL0     H89193  -0.716   5.664   8.886 -0.7219  0.4143  2.4389
  676MOL0     H89194  -0.397   5.609   8.709 -3.4030  3.0475  2.0397
  676MOL0     H89195  -0.165   5.575   8.771  3.4779 -1.0464  2.6675
  676MOL0     H89196   0.143   5.517   8.664 -0.1111 -0.1377 -0.1685
  676MOL0     H89197   0.366   5.479   8.605 -0.2178  1.7179  1.2884
  676MOL0     H89198   0.635   5.507   8.618  3.0943 -0.3683 -2.3592
  676MOL0     H89199   0.560   5.339   8.568 -0.3572 -1.5297  0.4303
  676MOL0     H89200   0.746   5.237   8.662  1.8934  0.2037  0.8492
  676MOL0     H89201   0.819   5.388   8.712  0.9859 -0.9942 -1.1615
  676MOL0     H89202   0.751   5.363   8.422 -0.7774  0.0169  1.2671
  676MOL0     H89203   0.907   5.287   8.498  0.9671  0.2872  2.1340
  676MOL0     H89204   0.829   5.583   8.515 -1.7879 -0.0935  0.7099
  676MOL0     H89205   0.971   5.501   8.578  1.4009  1.3714 -2.0259
  676MOL0     H89206   1.015   5.436   8.329  2.4674  1.1520  0.7441
  676MOL0     H89207   1.048   5.603   8.391  0.0957  0.6393 -1.3185
  676MOL0     H89208   0.937   5.600   8.155 -0.4779  0.4983 -0.7248
  676MOL0     H89209   0.870   5.706   8.284  0.1755 -0.2789  0.6961
  676MOL0     H89210   0.771   5.449   8.171  0.6534  0.6651 -2.6710
  676MOL0     H89211   0.692   5.543   8.315 -1.7257 -1.5495 -1.9482
  676MOL0     H89212   0.655   5.728   8.173  1.1174 -0.4009  3.1200
  676MOL0     H89213   0.584   5.580   8.097  1.1880 -3.6930  1.1729
  676MOL0     H89214   0.451   5.375   9.016  1.2793  0.0498 -0.5164
  676MOL0     H89215   0.224   5.422   9.073 -1.6077 -2.3697  0.0905
  676MOL0     H89216  -0.263   5.436   9.155 -4.2171 -0.2953  0.9101
  676MOL0     H89217  -0.505   5.438   9.087  1.9243 -0.9175  0.8418
  676MOL0     H89218   0.107   5.590   9.843  1.9969  0.5242 -2.4890
  676MOL0     H89219   0.354   5.563   9.880 -0.0873 -0.3798 -0.2328
  676MOL0     H89220   0.702   5.007   9.766  0.1491  0.3874 -1.8373
  676MOL0     H89221   0.930   5.017   9.654  2.6963  0.5762  2.0634
  676MOL0     H89222   1.244   5.151   9.532 -0.2797  3.6517  1.8800
  676MOL0     H89223   1.094   5.065   9.497  0.8380  0.5301 -0.1288
  676MOL0     H89224   1.259   5.080   9.768  0.3938 -0.9427 -0.5939
  676MOL0     H89225   1.129   4.963   9.743  0.1447 -3.0585 -1.9705
  676MOL0     H89226   1.378   4.957   9.570  0.9857 -1.2823  0.2914
  676MOL0     H89227   1.256   4.854   9.567 -0.6402  2.3755 -1.7616
  676MOL0     H89228   1.290   4.800   9.816  0.4936 -1.4621 -0.5023
  676MOL0     H89229   1.401   4.753   9.693  1.1841  2.1359  0.0466
  676MOL0     H89230   1.652   5.009   9.903 -0.4428  1.0020 -0.1847
  676MOL0     H89231   0.954   5.441   9.706 -0.0838 -0.2999 -2.2381
  676MOL0     H89232   0.739   5.434   9.832 -1.0210 -0.7326 -0.1446
  677MOL0     O89233   8.579   5.790   2.923  0.1720  0.4442 -0.6228
  677MOL0     C89234   8.653   5.696   2.906 -0.2237 -0.9650  0.2372
  677MOL0     O89235   8.624   5.572   2.873  0.6144  0.5955  0.1889
  677MOL0     C89236   8.499   5.527   2.859  0.3025 -0.8120 -0.2268
  677MOL0     C89237   8.433   5.542   2.742 -0.4196 -0.6570 -0.6952
  677MOL0     C89238   8.305   5.497   2.724 -0.6613  0.0887 -0.1523
  677MOL0     C89239   8.237   5.434   2.827  0.2272 -0.2749 -0.1817
  677MOL0     O89240   8.133   5.341   2.810 -0.2174 -0.3613 -0.3813
  677MOL0     C89241   8.091   5.325   2.674 -0.2717 -0.4417 -0.3301
  677MOL0     C89242   7.964   5.244   2.663 -0.0621 -0.2949  0.3966
  677MOL0     C89243   7.842   5.301   2.727  0.8418 -0.3177 -0.1689
  677MOL0     C89244   7.710   5.225   2.678  0.0927  0.3417  0.2774
  677MOL0     C89245   7.580   5.303   2.697  0.5817  0.4488 -0.5269
  677MOL0     C89246   7.465   5.211   2.661  0.1031  0.4169  0.9623
  677MOL0     C89247   7.323   5.262   2.666  0.1214  0.2203  1.0116
  677MOL0     C89248   7.290   5.278   2.812 -0.3464  0.4633 -0.1655
  677MOL0     N89249   7.149   5.309   2.826 -0.2629 -0.1288 -0.3245
  677MOL0     C89250   7.099   5.436   2.799  0.2946  0.9813 -0.2830
  677MOL0     C89251   6.966   5.420   2.822 -0.0023  1.0236 -0.5568
  677MOL0     C89252   6.864   5.531   2.801 -0.3679  0.0828 -0.5702
  677MOL0     C89253   6.798   5.532   2.658 -0.1279 -0.0220 -0.8778
  677MOL0     C89254   6.697   5.417   2.646 -0.0609 -0.3414  0.1395
  677MOL0     C89255   6.605   5.436   2.527 -0.2354 -0.3982  0.5128
  677MOL0     O89256   6.499   5.340   2.529  0.3753 -0.4681  0.0440
  677MOL0     C89257   6.393   5.354   2.450 -0.0461  1.3943  0.8876
  677MOL0     C89258   6.389   5.433   2.338  0.0379 -0.3682  0.4832
  677MOL0     C89259   6.270   5.456   2.263  0.0207 -0.2178  0.1228
  677MOL0     C89260   6.158   5.391   2.301 -0.5716  0.6640 -0.5257
  677MOL0     C89261   6.024   5.426   2.232 -0.1142  0.1590  0.1622
  677MOL0     O89262   6.020   5.524   2.135 -1.1664 -0.6850  0.0594
  677MOL0     C89263   5.902   5.589   2.096  0.1167 -0.2573 -0.1346
  677MOL0     C89264   5.826   5.531   1.996 -0.6442  0.3154 -0.1148
  677MOL0     C89265   5.721   5.588   1.932 -0.6749  0.4021 -0.5291
  677MOL0     C89266   5.686   5.721   1.975  0.0536 -0.1406 -0.0372
  677MOL0     O89267   5.567   5.786   1.925  0.0509 -0.5177 -0.8470
  677MOL0     C89268   5.569   5.820   1.781 -0.8190  0.7954 -1.0589
  677MOL0     C89269   5.485   5.716   1.708  0.0586  0.3012 -0.4518
  677MOL0     C89270   5.441   5.760   1.570 -0.3853  0.1640  0.0702
  677MOL0     C89271   5.328   5.871   1.573  0.5603 -0.0612 -0.2179
  677MOL0     C89272   5.206   5.830   1.656  0.8921 -0.1469 -0.4807
  677MOL0     C89273   5.147   5.705   1.588 -0.1591  0.0772 -0.8974
  677MOL0     C89274   5.020   5.665   1.645  0.7058 -0.2389 -0.3937
  677MOL0     C89275   4.946   5.549   1.579 -0.4094 -0.0462 -0.6468
  677MOL0    Cl89276   5.031   5.396   1.637  0.0226  0.1086  0.5393
  677MOL0     C89277   5.773   5.789   2.069  0.0012 -0.4788  0.0847
  677MOL0     C89278   5.883   5.720   2.130  0.1534 -0.3036  0.1811
  677MOL0     O89279   5.924   5.363   2.276  0.5329  0.1086 -0.1917
  677MOL0     C89280   6.161   5.296   2.400  0.7039 -1.1073 -0.5345
  677MOL0     C89281   6.275   5.281   2.483 -0.3552  0.2548  0.0004
  677MOL0     N89282   6.940   5.280   2.837 -0.2878  0.0110  0.1820
  677MOL0     N89283   7.057   5.216   2.806  0.1622 -0.2051 -0.4138
  677MOL0     C89284   8.306   5.422   2.950  0.5307 -0.1835 -0.6891
  677MOL0     C89285   8.429   5.469   2.966 -0.2945  0.2814 -0.3582
  677MOL0     C89286   8.793   5.728   2.927  0.1002  0.1304 -0.9697
  677MOL0     C89287   8.834   5.858   2.935  0.1259 -0.2789  0.0426
  677MOL0     C89288   8.968   5.898   2.928  0.3022  0.5710 -0.8253
  677MOL0     C89289   9.064   5.797   2.924 -0.2888 -0.4744  0.0981
  677MOL0     O89290   9.192   5.836   2.946 -0.1508  0.1452 -0.2421
  677MOL0     C89291   9.226   5.967   2.994 -0.3285 -1.0161 -1.0782
  677MOL0     C89292   9.356   5.962   3.065 -0.6792  0.3806  0.6426
  677MOL0     C89293   9.465   5.963   2.963 -0.8612  0.9182  0.4898
  677MOL0     C89294   9.582   6.034   3.020  0.5792 -0.0547 -0.8276
  677MOL0     C89295   9.710   6.036   2.942 -0.1239 -0.6714 -0.6588
  677MOL0     C89296   9.826   6.049   2.895 -0.5896  0.6002 -0.2985
  677MOL0     C89297   9.026   5.664   2.921  0.8968 -0.8446  0.7455
  677MOL0     C89298   8.891   5.629   2.931  0.1447  0.5070 -0.0893
  677MOL0     H89299   8.491   5.569   2.655 -0.1779  2.4325  0.2966
  677MOL0     H89300   8.280   5.497   2.618  0.2469  1.0870 -0.3863
  677MOL0     H89301   8.173   5.268   2.629  2.6589  1.5605  2.0911
  677MOL0     H89302   8.079   5.422   2.625 -0.9630  0.0089  0.6920
  677MOL0     H89303   7.984   5.142   2.698  2.9316  0.0831  0.1131
  677MOL0     H89304   7.945   5.249   2.556  0.4367  1.1230  0.3400
  677MOL0     H89305   7.841   5.409   2.717 -0.6616 -0.1153  1.6913
  677MOL0     H89306   7.849   5.297   2.837 -0.1332 -0.7872 -0.1161
  677MOL0     H89307   7.717   5.180   2.578  4.6391 -1.3107  1.0852
  677MOL0     H89308   7.707   5.137   2.743  0.1969  0.4969  0.4931
  677MOL0     H89309   7.581   5.390   2.631  3.6859  1.0754  0.1624
  677MOL0     H89310   7.571   5.357   2.792 -2.5671  1.6924 -1.4229
  677MOL0     H89311   7.463   5.111   2.705  0.6716 -0.1279 -0.2020
  677MOL0     H89312   7.489   5.187   2.557 -2.7166 -1.5250  0.6569
  677MOL0     H89313   7.330   5.358   2.614 -0.8090 -0.2718 -0.0555
  677MOL0     H89314   7.260   5.195   2.607  0.3029  1.5984 -0.8344
  677MOL0     H89315   7.343   5.363   2.856 -0.9233 -0.2304  1.9891
  677MOL0     H89316   7.324   5.194   2.873  1.0861  1.4525  0.4507
  677MOL0     H89317   7.147   5.532   2.782 -0.0671  1.6123  1.9243
  677MOL0     H89318   6.914   5.626   2.817  1.2157 -0.0557 -3.7886
  677MOL0     H89319   6.788   5.516   2.878  0.7851 -1.6691  0.2992
  677MOL0     H89320   6.868   5.505   2.578  1.1944 -2.0640  0.8672
  677MOL0     H89321   6.757   5.633   2.648  1.5423  0.7729  0.0005
  677MOL0     H89322   6.756   5.325   2.635  0.4068 -0.0092 -0.1997
  677MOL0     H89323   6.643   5.402   2.740 -1.4023 -2.4779 -0.9015
  677MOL0     H89324   6.667   5.436   2.437 -0.6375 -1.0558  0.2286
  677MOL0     H89325   6.560   5.536   2.530 -1.2547 -0.6114 -3.2885
  677MOL0     H89326   6.483   5.470   2.297  0.7139 -0.8450  1.5520
  677MOL0     H89327   6.266   5.534   2.186  4.6312  1.2265  1.0591
  677MOL0     H89328   5.854   5.430   1.968  1.3891  1.1511 -1.3116
  677MOL0     H89329   5.671   5.525   1.858 -0.2070 -0.6875  0.0598
  677MOL0     H89330   5.670   5.809   1.740 -0.3145 -3.8932  0.8575
  677MOL0     H89331   5.527   5.921   1.771 -2.8851  0.3387  1.6920
  677MOL0     H89332   5.398   5.686   1.767  0.3937 -0.0850 -0.1488
  677MOL0     H89333   5.542   5.622   1.705  0.0669  0.2235  1.0900
  677MOL0     H89334   5.403   5.676   1.510  0.9403  2.0322 -3.6993
  677MOL0     H89335   5.529   5.799   1.519 -0.0845 -2.4364 -1.6006
  677MOL0     H89336   5.374   5.953   1.629  2.6511 -0.4475 -1.2408
  677MOL0     H89337   5.302   5.890   1.469  0.0699 -1.6380 -0.4011
  677MOL0     H89338   5.137   5.915   1.667  0.0423 -0.6294 -1.7896
  677MOL0     H89339   5.230   5.814   1.762  0.5718  0.6759 -0.2755
  677MOL0     H89340   5.214   5.620   1.603 -1.8018 -1.2361 -0.8504
  677MOL0     H89341   5.129   5.727   1.483  0.4167  0.2850 -0.9602
  677MOL0     H89342   5.048   5.653   1.749 -2.0664  1.2062  0.6457
  677MOL0     H89343   4.943   5.743   1.647  1.3393  0.6857  5.9730
  677MOL0     H89344   4.943   5.563   1.470  1.2682  1.5182 -0.5414
  677MOL0     H89345   4.845   5.545   1.620  0.7236 -3.0454  2.3204
  677MOL0     H89346   5.768   5.894   2.096  1.2459 -0.2500 -0.4704
  677MOL0     H89347   5.954   5.767   2.197 -1.5947 -1.2184  2.8682
  677MOL0     H89348   6.070   5.244   2.429  0.8576 -1.1242 -0.0738
  677MOL0     H89349   6.281   5.211   2.566 -0.8603 -0.8218 -0.8348
  677MOL0     H89350   8.271   5.349   3.022  0.5167 -0.6594 -1.1700
  677MOL0     H89351   8.494   5.449   3.050  0.2519  1.6818 -0.4287
  677MOL0     H89352   8.763   5.940   2.931  2.2219  1.5811 -1.6935
  677MOL0     H89353   8.984   6.004   2.937 -1.7093  0.7214  3.4187
  677MOL0     H89354   9.156   6.004   3.069  1.1717  0.3281 -0.2696
  677MOL0     H89355   9.227   6.039   2.912 -0.1726 -0.6514 -0.7580
  677MOL0     H89356   9.358   6.052   3.126 -1.2765  1.0742 -0.3428
  677MOL0     H89357   9.361   5.873   3.129 -3.7775 -2.0410 -2.1369
  677MOL0     H89358   9.442   5.997   2.861  2.9970  1.3209 -0.4045
  677MOL0     H89359   9.486   5.856   2.953 -1.2064  0.9092 -0.2852
  677MOL0     H89360   9.559   6.140   3.027  1.7749  0.2052 -0.6349
  677MOL0     H89361   9.606   5.993   3.119 -3.8437 -2.2568 -0.4213
  677MOL0     H89362   9.928   6.061   2.864  0.1353 -1.3155  1.1332
  677MOL0     H89363   9.096   5.581   2.925  1.7889 -0.0687  1.6930
  677MOL0     H89364   8.862   5.524   2.933 -0.1283  0.5660 -0.6327
  678MOL0     O89365   1.023   1.937   2.872  0.0112  0.2843  0.5425
  678MOL0     C89366   1.106   1.855   2.829  0.5272 -0.6204 -0.7707
  678MOL0     O89367   1.085   1.748   2.738  0.2193 -0.5612  0.0570
  678MOL0     C89368   0.973   1.755   2.663 -0.0646 -0.1974 -0.7262
  678MOL0     C89369   0.983   1.797   2.536  0.1385 -0.0176  0.1955
  678MOL0     C89370   0.865   1.794   2.459 -0.0219 -0.6176  0.7064
  678MOL0     C89371   0.743   1.762   2.512  0.8297  0.2963  0.2359
  678MOL0     O89372   0.625   1.761   2.443  0.3287 -0.6414 -1.0326
  678MOL0     C89373   0.633   1.732   2.305  1.1617  0.2673  0.0362
  678MOL0     C89374   0.501   1.682   2.253  0.6893  0.9206  0.0541
  678MOL0     C89375   0.381   1.774   2.285  0.9828 -0.0614  0.3988
  678MOL0     C89376   0.248   1.734   2.216  0.2623  0.3325 -0.0596
  678MOL0     C89377   0.130   1.845   2.217 -0.0468  0.3034 -0.5641
  678MOL0     C89378   0.152   1.962   2.119 -0.2273 -0.4163 -0.6796
  678MOL0     C89379   0.047   2.071   2.119  0.4618 -0.6825 -0.2622
  678MOL0     C89380   0.037   2.149   1.985 -0.2007  0.3369  0.6948
  678MOL0     N89381  -0.094   2.219   1.980 -0.3190 -0.5279  0.2463
  678MOL0     C89382  -0.215   2.182   2.035  0.3947 -0.1843 -0.2617
  678MOL0     C89383  -0.301   2.289   2.019 -0.6283 -0.1037 -0.0791
  678MOL0     C89384  -0.440   2.294   2.058  0.4748 -0.2738 -0.3977
  678MOL0     C89385  -0.468   2.425   2.128 -0.7801 -0.6516 -0.0291
  678MOL0     C89386  -0.592   2.433   2.211  0.4267  0.1526 -0.0986
  678MOL0     C89387  -0.702   2.503   2.142 -0.3332  0.6833  0.9974
  678MOL0     O89388  -0.730   2.631   2.199  0.3160 -1.1767 -0.2105
  678MOL0     C89389  -0.859   2.665   2.206  0.6032  0.1119  0.2293
  678MOL0     C89390  -0.915   2.743   2.110 -1.6173 -0.7852  0.4045
  678MOL0     C89391  -1.056   2.769   2.104 -0.4932 -0.4294  0.1086
  678MOL0     C89392  -1.138   2.718   2.208 -0.2068 -0.1785  1.1282
  678MOL0     C89393  -1.279   2.758   2.215 -0.3990  0.5052  1.0720
  678MOL0     O89394  -1.323   2.833   2.104 -0.6547 -0.3103 -0.2589
  678MOL0     C89395  -1.456   2.870   2.099 -0.7814 -0.1067 -0.4018
  678MOL0     C89396  -1.473   3.009   2.084  0.3815  0.8526  0.0046
  678MOL0     C89397  -1.600   3.054   2.081  0.6386 -0.3962 -0.0869
  678MOL0     C89398  -1.713   2.977   2.111 -0.1196 -0.0282 -0.0902
  678MOL0     O89399  -1.831   3.052   2.117 -0.2077  0.0978  0.2685
  678MOL0     C89400  -1.957   2.989   2.095 -0.4981  0.1925  0.1478
  678MOL0     C89401  -2.043   2.996   2.223 -0.1197 -1.1478  0.0163
  678MOL0     C89402  -2.162   2.907   2.241  0.7794  1.0482 -0.3407
  678MOL0     C89403  -2.283   2.956   2.164 -0.2739 -0.7221  0.3066
  678MOL0     C89404  -2.410   2.891   2.217 -0.0120 -0.8595  0.0844
  678MOL0     C89405  -2.543   2.955   2.169  0.4606  0.7551 -0.3451
  678MOL0     C89406  -2.672   2.903   2.248  0.3933 -0.9491  0.6507
  678MOL0     C89407  -2.794   2.944   2.165 -0.5902  0.5054  0.5702
  678MOL0    Cl89408  -2.907   3.024   2.282  0.2605  0.0395  0.5208
  678MOL0     C89409  -1.697   2.842   2.140  0.2856  1.1981  0.3429
  678MOL0     C89410  -1.568   2.788   2.130 -0.8323 -0.5521 -0.8780
  678MOL0     O89411  -1.344   2.716   2.316 -1.3152  0.2634  0.4163
  678MOL0     C89412  -1.083   2.635   2.301 -0.3164 -0.6505 -0.6205
  678MOL0     C89413  -0.939   2.605   2.301 -0.1808 -0.3947  0.3996
  678MOL0     N89414  -0.229   2.390   1.958 -0.9117 -0.1473 -0.0163
  678MOL0     N89415  -0.113   2.342   1.923  0.3833  0.1321  0.1550
  678MOL0     C89416   0.741   1.734   2.644  0.3211 -0.8101 -0.8700
  678MOL0     C89417   0.855   1.722   2.716  0.1724 -1.1094  0.5192
  678MOL0     C89418   1.242   1.880   2.874  0.4548 -0.2221 -0.0114
  678MOL0     C89419   1.288   2.004   2.915 -0.7232  0.4396  1.1402
  678MOL0     C89420   1.430   2.014   2.947  1.3066  0.3942 -0.0923
  678MOL0     C89421   1.511   1.905   2.957  0.2393 -0.8080 -0.9139
  678MOL0     O89422   1.644   1.931   2.993  0.3506 -0.6966 -0.5864
  678MOL0     C89423   1.738   1.820   3.001  0.0144  0.1310  0.2747
  678MOL0     C89424   1.879   1.840   3.066 -0.5632 -0.2779  0.0305
  678MOL0     C89425   1.873   1.904   3.205 -0.6406 -0.5063 -0.0335
  678MOL0     C89426   1.900   1.818   3.328 -0.3286 -0.0261 -0.2600
  678MOL0     C89427   2.048   1.786   3.328  1.4820 -0.2613 -0.1808
  678MOL0     C89428   2.163   1.744   3.319  0.2678 -0.2812 -0.1415
  678MOL0     C89429   1.454   1.779   2.934  0.8055  0.3021 -0.0432
  678MOL0     C89430   1.320   1.768   2.892  0.5411  0.0700  0.0367
  678MOL0     H89431   1.069   1.829   2.479  0.0126  1.5863  0.8310
  678MOL0     H89432   0.865   1.822   2.354  0.8357  0.7501  1.0436
  678MOL0     H89433   0.706   1.651   2.291  0.4525 -0.9747  2.9373
  678MOL0     H89434   0.655   1.828   2.256 -0.9741  1.1008  0.6456
  678MOL0     H89435   0.490   1.582   2.297  1.2893 -0.1659 -2.1257
  678MOL0     H89436   0.511   1.657   2.147  0.9548 -3.9484  0.9544
  678MOL0     H89437   0.406   1.877   2.260  0.2586  0.7190  2.7161
  678MOL0     H89438   0.360   1.773   2.392 -0.3354  1.5525  0.1905
  678MOL0     H89439   0.269   1.720   2.110  0.1486  0.3800 -0.0889
  678MOL0     H89440   0.222   1.639   2.263  3.5084  0.7360  2.9861
  678MOL0     H89441   0.111   1.892   2.314 -3.7983  1.6469 -1.7733
  678MOL0     H89442   0.039   1.790   2.192 -0.2901 -0.7464  2.2391
  678MOL0     H89443   0.150   1.922   2.017  1.0174  2.5062 -1.9434
  678MOL0     H89444   0.251   2.000   2.144  0.5968 -2.8270  0.0570
  678MOL0     H89445  -0.048   2.020   2.138 -0.6577  0.4495 -2.5033
  678MOL0     H89446   0.058   2.142   2.202 -1.3232  0.0401 -0.5841
  678MOL0     H89447   0.045   2.084   1.897 -0.7605  0.1046  0.8117
  678MOL0     H89448   0.119   2.221   1.978  1.6685 -1.7265 -0.1235
  678MOL0     H89449  -0.259   2.096   2.084 -4.2541  2.2068  0.3270
  678MOL0     H89450  -0.466   2.219   2.133  3.8771 -0.9000  0.3502
  678MOL0     H89451  -0.503   2.281   1.970  1.2411 -0.8932 -0.8740
  678MOL0     H89452  -0.474   2.505   2.053  1.5744  1.3025  1.6912
  678MOL0     H89453  -0.387   2.461   2.192 -0.0047  1.5525 -2.0748
  678MOL0     H89454  -0.634   2.337   2.242 -2.6407  1.3270 -0.2834
  678MOL0     H89455  -0.581   2.491   2.303 -1.8628 -1.3442  1.2040
  678MOL0     H89456  -0.784   2.433   2.156  0.5009 -0.9130 -1.4237
  678MOL0     H89457  -0.686   2.517   2.034  1.6799 -1.5702  0.9063
  678MOL0     H89458  -0.845   2.790   2.041 -0.7170 -1.7882  0.6125
  678MOL0     H89459  -1.105   2.830   2.029  0.8562  3.2658  2.0063
  678MOL0     H89460  -1.395   3.084   2.069  1.1960 -0.2802 -1.6401
  678MOL0     H89461  -1.606   3.160   2.058 -0.0608 -0.8550 -2.1513
  678MOL0     H89462  -1.928   2.889   2.061 -1.7923 -0.6233  1.3239
  678MOL0     H89463  -2.009   3.040   2.013  1.0267 -0.3875 -1.2487
  678MOL0     H89464  -2.070   3.099   2.248 -0.2117 -1.0302 -0.5562
  678MOL0     H89465  -1.971   2.971   2.302  0.1514  1.0913  0.5437
  678MOL0     H89466  -2.192   2.893   2.346 -0.1036 -3.6113 -0.9852
  678MOL0     H89467  -2.132   2.808   2.206 -0.0874  0.4913  0.4527
  678MOL0     H89468  -2.290   3.065   2.172  0.9274 -0.6053 -0.0949
  678MOL0     H89469  -2.277   2.940   2.056 -7.0349  2.2137 -1.0580
  678MOL0     H89470  -2.417   2.916   2.323 -2.8850  2.3759 -0.6783
  678MOL0     H89471  -2.413   2.784   2.195 -0.5925 -1.0794  1.1777
  678MOL0     H89472  -2.546   2.950   2.060 -0.8076 -2.4811 -0.2716
  678MOL0     H89473  -2.536   3.060   2.199 -0.8171  1.2812 -1.7989
  678MOL0     H89474  -2.656   2.796   2.262  1.7419 -0.8935 -0.2260
  678MOL0     H89475  -2.684   2.950   2.346  0.9049 -1.0432  0.7629
  678MOL0     H89476  -2.839   2.866   2.102 -0.4578 -1.0062  2.2588
  678MOL0     H89477  -2.757   3.021   2.097  2.3335 -0.4418  0.9513
  678MOL0     H89478  -1.784   2.782   2.165  0.3060  0.0925 -2.0278
  678MOL0     H89479  -1.550   2.681   2.140 -0.3307 -0.2721  2.9494
  678MOL0     H89480  -1.156   2.596   2.371 -3.1774  2.5236 -1.5523
  678MOL0     H89481  -0.904   2.529   2.370 -0.8482  0.6944  2.0301
  678MOL0     H89482   0.643   1.719   2.690  1.8648 -0.6024  2.8996
  678MOL0     H89483   0.862   1.684   2.818  4.0453  2.7222  2.0192
  678MOL0     H89484   1.222   2.091   2.913 -0.1182  0.8976  0.0463
  678MOL0     H89485   1.477   2.106   2.982  0.1675  1.3025 -0.8914
  678MOL0     H89486   1.763   1.803   2.896 -0.3315  0.5046  0.1285
  678MOL0     H89487   1.685   1.732   3.041  0.7096 -0.3771  0.0873
  678MOL0     H89488   1.940   1.750   3.067  1.9470  1.3378  1.0930
  678MOL0     H89489   1.936   1.911   3.006 -1.1888  0.9696  0.8656
  678MOL0     H89490   1.775   1.954   3.204 -0.8598 -0.9324 -0.3850
  678MOL0     H89491   1.944   1.987   3.202 -0.3739 -0.7327 -2.6061
  678MOL0     H89492   1.878   1.879   3.416 -1.3211 -1.2301  0.3579
  678MOL0     H89493   1.830   1.734   3.324  0.4928 -0.6951 -3.6949
  678MOL0     H89494   2.258   1.714   3.280 -0.2892 -0.9462 -1.0094
  678MOL0     H89495   1.514   1.689   2.945  0.8186  0.4919  1.7097
  678MOL0     H89496   1.276   1.671   2.873 -1.2576  1.2322 -2.1675
  679MOL0     O89497   9.953   8.899  10.061  0.0595 -0.0325  0.0196
  679MOL0     C89498   9.979   8.909   9.939 -0.0681 -0.1388  0.8642
  679MOL0     O89499   9.892   8.967   9.850  0.1540  0.5738  0.7650
  679MOL0     C89500   9.781   9.027   9.901 -0.8251  0.4513 -0.0750
  679MOL0     C89501   9.777   9.121  10.003  0.3872  0.1630  0.6817
  679MOL0     C89502   9.654   9.161  10.055  0.2872 -0.5056  0.6886
  679MOL0     C89503   9.539   9.107  10.012 -0.2359 -0.3385 -0.2974
  679MOL0     O89504   9.425   9.165  10.071 -0.7142 -0.5988  0.1585
  679MOL0     C89505   9.292   9.134  10.019 -0.0691  0.4354 -0.4301
  679MOL0     C89506   9.247   8.987  10.065 -0.6543  0.3384  0.3636
  679MOL0     C89507   9.113   8.958   9.999 -0.4156 -0.1249  0.9002
  679MOL0     C89508   9.041   8.845  10.080  0.5363 -0.3044 -0.7669
  679MOL0     C89509   8.927   8.774  10.004  0.2742 -0.4904  1.1260
  679MOL0     C89510   8.887   8.643  10.082  0.6872 -0.5355  0.7491
  679MOL0     C89511   8.767   8.577  10.023  0.7118  0.5819  0.6880
  679MOL0     C89512   8.722   8.448  10.092  0.1242 -0.2570 -0.1081
  679MOL0     N89513   8.816   8.336  10.084 -0.0045  0.8411 -0.3266
  679MOL0     C89514   8.869   8.290   9.962  0.1257 -0.0507  0.8630
  679MOL0     C89515   8.948   8.190   9.994 -0.2226  0.9654 -0.0080
  679MOL0     C89516   9.014   8.100   9.890 -0.0919  1.1420 -0.9145
  679MOL0     C89517   9.107   8.175   9.799 -0.2035  0.7166  0.4221
  679MOL0     C89518   9.210   8.074   9.728 -0.2056  0.8036 -0.2594
  679MOL0     C89519   9.336   8.156   9.687  0.7468  0.3162  0.7859
  679MOL0     O89520   9.435   8.071   9.622 -0.7207 -0.2477 -0.6852
  679MOL0     C89521   9.564   8.121   9.603 -0.0121  0.3668 -0.7246
  679MOL0     C89522   9.608   8.254   9.622  0.2916 -0.5081 -0.4427
  679MOL0     C89523   9.727   8.303   9.570  0.7613 -0.7715  0.1722
  679MOL0     C89524   9.827   8.211   9.527 -0.0474  0.6054  0.6800
  679MOL0     C89525   9.959   8.258   9.478 -0.0411 -1.2223  0.0774
  679MOL0     O89526   9.978   8.393   9.501 -0.0082  0.3629  0.8054
  679MOL0     C89527  10.099   8.454   9.467  0.6265  0.5626  0.3208
  679MOL0     C89528  10.087   8.588   9.438  0.4102 -0.2386  1.1096
  679MOL0     C89529  10.198   8.660   9.386  0.1837 -0.1846 -0.3897
  679MOL0     C89530  10.328   8.613   9.378  0.1418 -0.4581 -0.0406
  679MOL0     O89531  10.429   8.687   9.323 -0.2920 -0.1165  0.0562
  679MOL0     C89532  10.411   8.832   9.316  0.3329  0.4295 -0.3064
  679MOL0     C89533  10.546   8.900   9.289  0.6934 -0.2319  0.3447
  679MOL0     C89534  10.507   9.031   9.226 -0.9522  0.6937  0.4749
  679MOL0     C89535  10.643   9.088   9.153 -0.6599 -0.4339 -0.3654
  679MOL0     C89536  10.630   9.228   9.097 -0.2018  0.3826  0.4697
  679MOL0     C89537  10.756   9.268   9.019 -0.4734 -0.5805 -0.3890
  679MOL0     C89538  10.726   9.399   8.951 -0.0689  0.4768 -0.0500
  679MOL0     C89539  10.827   9.451   8.842  0.0538  0.7596  0.1597
  679MOL0    Cl89540  10.984   9.473   8.924  0.4008 -0.2384  0.3945
  679MOL0     C89541  10.339   8.480   9.419 -0.3098  0.2288  0.2565
  679MOL0     C89542  10.227   8.401   9.478 -0.3537 -0.2525  0.8020
  679MOL0     O89543  10.019   8.187   9.399 -0.3702  0.1196 -0.6268
  679MOL0     C89544   9.787   8.080   9.517  0.1909 -0.3912 -0.9636
  679MOL0     C89545   9.659   8.033   9.556  0.3632 -0.5860  0.5051
  679MOL0     N89546   8.960   8.182  10.129 -0.2592  0.3109  0.7180
  679MOL0     N89547   8.877   8.265  10.184  0.0870 -0.2368 -0.6035
  679MOL0     C89548   9.536   9.023   9.898 -0.2702 -0.5328  0.5054
  679MOL0     C89549   9.654   8.975   9.860  0.3133 -0.4195  0.2789
  679MOL0     C89550  10.117   8.863   9.897  0.5005  0.8532  1.3156
  679MOL0     C89551  10.217   8.817   9.980  0.0139 -0.4033  1.0539
  679MOL0     C89552  10.339   8.774   9.937  0.1435  0.5770  0.3969
  679MOL0     C89553  10.355   8.741   9.805 -0.0645 -0.4660 -0.2690
  679MOL0     O89554  10.468   8.666   9.776  1.0668 -0.4034  0.2445
  679MOL0     C89555  10.543   8.713   9.669 -0.4353 -0.6616 -0.0357
  679MOL0     C89556  10.686   8.657   9.660  0.3425  0.0319  0.2343
  679MOL0     C89557  10.678   8.501   9.672 -0.6067  0.7863  0.2335
  679MOL0     C89558  10.817   8.443   9.651  0.2223  0.0522  0.0375
  679MOL0     C89559  10.931   8.521   9.716  0.2310  0.2181  0.4849
  679MOL0     C89560  11.039   8.573   9.739 -0.5378 -0.1393 -0.1624
  679MOL0     C89561  10.252   8.769   9.719  0.4705 -0.8725  0.7259
  679MOL0     C89562  10.125   8.824   9.763  0.0404 -0.1778  0.7412
  679MOL0     H89563   9.866   9.132  10.064  1.9653 -0.4123 -1.4062
  679MOL0     H89564   9.674   9.227  10.138  1.1364 -2.8429  2.4509
  679MOL0     H89565   9.302   9.131   9.910  2.2562 -1.8702 -0.2513
  679MOL0     H89566   9.217   9.204  10.058 -1.3492 -1.0577 -0.0884
  679MOL0     H89567   9.223   8.985  10.172 -0.1899 -3.4357  0.5611
  679MOL0     H89568   9.326   8.912  10.053  0.4532  1.4530  0.4686
  679MOL0     H89569   9.128   8.924   9.896 -2.7119  0.0611  0.4503
  679MOL0     H89570   9.047   9.046  10.000 -0.2470  0.0243 -0.3372
  679MOL0     H89571   9.120   8.771  10.098  1.2206  1.2506  3.8672
  679MOL0     H89572   9.007   8.894  10.171  0.0488 -1.1082 -0.5033
  679MOL0     H89573   8.977   8.743   9.912  1.1003  2.1875  0.6019
  679MOL0     H89574   8.842   8.840   9.985  1.6977  0.5602 -2.3810
  679MOL0     H89575   8.858   8.689  10.177  1.6660  2.0787 -0.1426
  679MOL0     H89576   8.965   8.570  10.106  1.8251  0.7663  1.1341
  679MOL0     H89577   8.684   8.648  10.016  1.8019  2.1756  2.6918
  679MOL0     H89578   8.804   8.552   9.922 -0.4381 -0.1330  0.4272
  679MOL0     H89579   8.627   8.425  10.044  1.1213 -1.9112 -1.4482
  679MOL0     H89580   8.711   8.478  10.196  0.8720  1.4357 -0.4835
  679MOL0     H89581   8.840   8.340   9.870  0.1249  0.7871  1.3025
  679MOL0     H89582   8.942   8.045   9.829  1.8130 -3.6783  0.6283
  679MOL0     H89583   9.063   8.013   9.937 -2.3747  1.5401  2.5896
  679MOL0     H89584   9.177   8.244   9.848  2.9396 -2.1309  0.3318
  679MOL0     H89585   9.048   8.230   9.725  0.3488  0.8989  0.1136
  679MOL0     H89586   9.247   7.987   9.783  3.5713 -0.1171 -3.7979
  679MOL0     H89587   9.161   8.038   9.638 -2.0723  0.1673  0.9360
  679MOL0     H89588   9.377   8.195   9.780 -2.6817  1.2554  2.0438
  679MOL0     H89589   9.306   8.238   9.622 -0.3271 -0.9541 -0.4031
  679MOL0     H89590   9.535   8.329   9.653 -0.9783 -0.8034 -2.5069
  679MOL0     H89591   9.744   8.410   9.569 -1.5602 -0.3566 -1.8577
  679MOL0     H89592   9.983   8.619   9.446  0.5674  0.0329  2.3241
  679MOL0     H89593  10.171   8.763   9.365  2.0422 -0.2612 -4.0740
  679MOL0     H89594  10.369   8.880   9.405 -1.9385  2.7672 -2.4602
  679MOL0     H89595  10.340   8.853   9.236 -1.2175 -0.1424  0.8718
  679MOL0     H89596  10.616   8.847   9.224  0.7356  1.8323 -1.4173
  679MOL0     H89597  10.604   8.921   9.378 -0.4496 -0.0801  1.0721
  679MOL0     H89598  10.466   9.102   9.299  0.2068  1.3487  0.5084
  679MOL0     H89599  10.443   9.011   9.139  0.2790  0.8689 -0.4878
  679MOL0     H89600  10.722   9.094   9.228  0.3957  2.7278 -1.5453
  679MOL0     H89601  10.671   9.020   9.071  1.0959  0.0841 -0.2380
  679MOL0     H89602  10.598   9.299   9.174  2.7309  0.1921  1.9838
  679MOL0     H89603  10.551   9.216   9.022  0.9651  2.4907 -1.2073
  679MOL0     H89604  10.775   9.194   8.941  0.9984 -0.4724 -0.1665
  679MOL0     H89605  10.848   9.275   9.078 -2.5640  0.1691  3.0659
  679MOL0     H89606  10.628   9.385   8.905 -0.2692  1.4954  0.0232
  679MOL0     H89607  10.715   9.475   9.029 -1.3115 -1.6151  1.9141
  679MOL0     H89608  10.783   9.539   8.796 -0.0013  0.5282 -0.2345
  679MOL0     H89609  10.843   9.375   8.765  2.1576 -0.2260  1.4836
  679MOL0     H89610  10.432   8.426   9.418 -0.2002  0.4190  0.0110
  679MOL0     H89611  10.238   8.299   9.514  2.3531 -0.4031 -0.2360
  679MOL0     H89612   9.846   8.002   9.470 -0.4811 -2.2815  1.1539
  679MOL0     H89613   9.642   7.929   9.528 -1.1010 -0.7911  1.9550
  679MOL0     H89614   9.448   8.982   9.850 -0.5304  1.8260 -1.2334
  679MOL0     H89615   9.647   8.887   9.796 -2.0955 -1.1391  1.4155
  679MOL0     H89616  10.190   8.828  10.084 -2.1642 -0.7072  0.5522
  679MOL0     H89617  10.415   8.742  10.008  1.2666  1.0831 -0.5382
  679MOL0     H89618  10.529   8.817   9.639  1.9302  0.0829  1.2171
  679MOL0     H89619  10.494   8.665   9.583  0.0626  1.7965 -1.7925
  679MOL0     H89620  10.728   8.686   9.563  2.4199 -3.6239 -0.1537
  679MOL0     H89621  10.751   8.693   9.742  2.5937 -0.8293 -1.0751
  679MOL0     H89622  10.613   8.463   9.592 -0.3295 -0.5307  0.6038
  679MOL0     H89623  10.640   8.471   9.771 -0.9831  0.5403  0.0156
  679MOL0     H89624  10.823   8.337   9.677  2.7728  0.1904  0.2178
  679MOL0     H89625  10.840   8.448   9.544  1.9680  1.6939  0.4318
  679MOL0     H89626  11.132   8.626   9.749 -0.5743  0.1871 -1.4095
  679MOL0     H89627  10.254   8.754   9.612 -2.0038 -1.5459  0.7047
  679MOL0     H89628  10.054   8.859   9.688  0.6709  1.9625  1.0866
  680MOL0     O89629   0.746   7.721   1.727  0.0891 -0.4823 -0.3853
  680MOL0     C89630   0.821   7.695   1.633 -0.1516  0.4169  0.6294
  680MOL0     O89631   0.774   7.679   1.495  0.6846 -0.3110  0.3825
  680MOL0     C89632   0.642   7.673   1.472  1.0272 -0.4205  0.6021
  680MOL0     C89633   0.534   7.645   1.553  0.7559  0.5270 -0.3000
  680MOL0     C89634   0.413   7.632   1.482  0.6748 -0.4866  0.9609
  680MOL0     C89635   0.398   7.644   1.340  0.3224 -0.5846  0.0850
  680MOL0     O89636   0.282   7.623   1.276  0.1140 -0.1506 -0.2736
  680MOL0     C89637   0.195   7.739   1.280 -0.0724  0.6294  0.2964
  680MOL0     C89638   0.051   7.695   1.249 -0.2530  0.5821  0.2940
  680MOL0     C89639  -0.037   7.815   1.234 -0.0752 -0.1106  0.3139
  680MOL0     C89640  -0.169   7.769   1.185  0.8572 -0.6372 -0.7023
  680MOL0     C89641  -0.279   7.886   1.165 -0.5542  1.0153 -0.7328
  680MOL0     C89642  -0.415   7.826   1.117 -0.6387  0.9812  0.1607
  680MOL0     C89643  -0.540   7.922   1.135 -0.2021  1.3566 -0.2524
  680MOL0     C89644  -0.658   7.852   1.075  0.4521 -0.9217  0.4688
  680MOL0     N89645  -0.773   7.938   1.109  1.2290 -0.0350  0.4854
  680MOL0     C89646  -0.804   8.053   1.040 -0.3889  0.2230 -0.3649
  680MOL0     C89647  -0.929   8.084   1.087 -0.2140 -0.0698  0.4759
  680MOL0     C89648  -1.009   8.199   1.049 -0.0427  0.2642 -0.0004
  680MOL0     C89649  -1.083   8.189   0.914 -0.6609 -0.3551  0.4920
  680MOL0     C89650  -1.173   8.073   0.894  0.4075 -0.0795 -0.0692
  680MOL0     C89651  -1.317   8.091   0.952 -0.1846 -0.8320 -0.4340
  680MOL0     O89652  -1.379   7.962   0.949 -0.6183 -1.0860 -0.1587
  680MOL0     C89653  -1.507   7.941   0.977  0.4638 -0.5236 -0.1543
  680MOL0     C89654  -1.595   8.033   1.028 -1.1573 -0.5035 -0.3860
  680MOL0     C89655  -1.717   8.004   1.075 -0.7622  0.2807 -0.2214
  680MOL0     C89656  -1.773   7.874   1.052 -0.4134 -0.2620  0.6299
  680MOL0     C89657  -1.919   7.847   1.065 -0.4287  0.4932 -0.4615
  680MOL0     O89658  -1.996   7.933   1.136  0.5500 -0.1961  0.1100
  680MOL0     C89659  -2.133   7.924   1.116 -0.5467 -0.2920 -0.1279
  680MOL0     C89660  -2.214   7.857   1.206 -0.6416 -1.1482 -1.3477
  680MOL0     C89661  -2.347   7.856   1.180  0.1904 -0.5126 -0.4151
  680MOL0     C89662  -2.404   7.930   1.076  0.2171  0.9471 -0.4559
  680MOL0     O89663  -2.542   7.932   1.065 -0.0360 -0.0476  0.4825
  680MOL0     C89664  -2.615   7.814   1.047  0.7379 -0.1306  0.3383
  680MOL0     C89665  -2.716   7.818   0.924 -0.0711 -0.0733 -1.0467
  680MOL0     C89666  -2.800   7.944   0.925 -0.6544  0.8870  0.5734
  680MOL0     C89667  -2.915   7.948   0.808  0.1781 -0.0553  0.2863
  680MOL0     C89668  -3.030   8.044   0.838 -0.3307 -0.8320 -0.9963
  680MOL0     C89669  -3.154   8.008   0.757  0.0540  0.1881 -0.0305
  680MOL0     C89670  -3.268   8.099   0.757  0.8576 -0.3259  0.2985
  680MOL0     C89671  -3.325   8.105   0.896 -0.2262  0.0035 -0.3256
  680MOL0    Cl89672  -3.409   7.955   0.937 -0.1612 -0.4542  0.3799
  680MOL0     C89673  -2.327   7.984   0.972  0.6730 -0.0600  0.7332
  680MOL0     C89674  -2.186   7.990   1.000  0.8190  0.4264 -0.0642
  680MOL0     O89675  -1.954   7.739   1.006  0.5177  0.3996 -0.7810
  680MOL0     C89676  -1.685   7.778   0.984  0.1490 -0.1281 -0.2977
  680MOL0     C89677  -1.551   7.814   0.947 -0.8992 -0.7046  0.0969
  680MOL0     N89678  -0.975   7.986   1.170 -0.3267  1.2134  0.0572
  680MOL0     N89679  -0.885   7.897   1.182  0.5302  0.5703  0.0292
  680MOL0     C89680   0.508   7.680   1.270 -0.4518 -0.0700 -0.1981
  680MOL0     C89681   0.629   7.689   1.337  0.1250 -0.1483 -0.2615
  680MOL0     C89682   0.961   7.664   1.656  0.3389  0.1337 -0.0567
  680MOL0     C89683   1.049   7.648   1.547  0.4586 -0.4210 -0.2566
  680MOL0     C89684   1.184   7.599   1.579 -1.0568  0.7196 -0.1946
  680MOL0     C89685   1.230   7.576   1.711  1.0751 -0.0603 -0.3920
  680MOL0     O89686   1.348   7.520   1.717 -0.0619  0.7482  0.3711
  680MOL0     C89687   1.394   7.477   1.844 -0.1744 -0.3364 -0.1835
  680MOL0     C89688   1.472   7.589   1.915  0.5405 -0.3758 -0.5947
  680MOL0     C89689   1.573   7.674   1.838  0.2528  0.1991 -0.2534
  680MOL0     C89690   1.676   7.590   1.770  0.3726  1.5774  0.7024
  680MOL0     C89691   1.782   7.659   1.691 -0.1454 -0.1171 -0.1904
  680MOL0     C89692   1.855   7.743   1.646 -0.7787 -0.3380 -0.3488
  680MOL0     C89693   1.145   7.627   1.819  0.1646  0.8982 -0.3458
  680MOL0     C89694   1.011   7.661   1.794  0.5413  0.1300  0.0311
  680MOL0     H89695   0.544   7.623   1.658 -3.5041  1.0288  0.4124
  680MOL0     H89696   0.324   7.601   1.536  1.5951 -2.8259  1.2334
  680MOL0     H89697   0.225   7.818   1.211  1.3063  0.4726  0.6861
  680MOL0     H89698   0.187   7.779   1.382 -1.1963  0.6849  0.2030
  680MOL0     H89699   0.014   7.640   1.336  1.9049  0.5383  1.2399
  680MOL0     H89700   0.058   7.635   1.157  1.3356  2.6865 -1.0443
  680MOL0     H89701   0.007   7.885   1.162  0.7705  1.8859  2.6237
  680MOL0     H89702  -0.056   7.864   1.330 -0.1357 -3.0760  1.9444
  680MOL0     H89703  -0.157   7.713   1.092  0.5040  0.8407 -1.6814
  680MOL0     H89704  -0.208   7.692   1.252  0.4532  2.2503  2.7112
  680MOL0     H89705  -0.245   7.959   1.092  0.8931 -0.7502 -1.9164
  680MOL0     H89706  -0.289   7.938   1.260 -1.7827  1.2760 -0.9920
  680MOL0     H89707  -0.430   7.732   1.171 -0.0377 -0.5358 -2.1713
  680MOL0     H89708  -0.403   7.801   1.011 -2.3704 -1.8791  0.5343
  680MOL0     H89709  -0.569   7.947   1.237 -2.5280  1.1865 -0.7939
  680MOL0     H89710  -0.520   8.014   1.080 -1.2431  1.4009 -0.5926
  680MOL0     H89711  -0.667   7.747   1.105 -0.4006 -0.4994  1.8132
  680MOL0     H89712  -0.650   7.851   0.966 -1.9317  0.6544  0.2056
  680MOL0     H89713  -0.740   8.119   0.982  0.3321  3.9229  4.1096
  680MOL0     H89714  -0.944   8.287   1.041  0.9702 -0.1792  2.4421
  680MOL0     H89715  -1.084   8.209   1.128  0.1280 -0.8202  0.3135
  680MOL0     H89716  -1.011   8.203   0.833 -0.9890  1.8037  0.5009
  680MOL0     H89717  -1.147   8.276   0.900 -0.4145 -0.6538 -3.6340
  680MOL0     H89718  -1.193   8.048   0.789 -2.7817 -2.6960  0.9611
  680MOL0     H89719  -1.126   7.989   0.945 -2.5806 -1.7446  0.2155
  680MOL0     H89720  -1.378   8.152   0.886 -0.9896 -1.2638 -0.1097
  680MOL0     H89721  -1.312   8.134   1.053  2.0312  0.4894 -1.0382
  680MOL0     H89722  -1.550   8.129   1.051  0.8871 -1.5879  0.4529
  680MOL0     H89723  -1.791   8.075   1.110 -1.5568 -1.5544  2.0719
  680MOL0     H89724  -2.175   7.810   1.295 -0.7014  2.6989  0.9534
  680MOL0     H89725  -2.408   7.797   1.248  0.9912  0.8683  1.6336
  680MOL0     H89726  -2.683   7.805   1.132 -1.8589 -4.0528 -1.8190
  680MOL0     H89727  -2.552   7.725   1.037  0.8885  0.2564 -3.8320
  680MOL0     H89728  -2.789   7.736   0.918  0.1310 -0.3657  0.2379
  680MOL0     H89729  -2.651   7.828   0.837  3.1220  0.3803  1.2050
  680MOL0     H89730  -2.736   8.032   0.913  0.1359  0.3054  0.5009
  680MOL0     H89731  -2.848   7.943   1.023  1.9928 -2.6211  2.0198
  680MOL0     H89732  -2.882   7.974   0.707  0.6350  1.6153  0.8331
  680MOL0     H89733  -2.959   7.848   0.799 -3.9858  1.7956 -2.8715
  680MOL0     H89734  -3.000   8.139   0.794 -0.1243 -1.2225 -1.7018
  680MOL0     H89735  -3.047   8.056   0.946 -1.4855 -1.6547 -1.0597
  680MOL0     H89736  -3.191   7.909   0.785 -4.2049  1.2454 -1.2282
  680MOL0     H89737  -3.127   7.995   0.652  1.5776 -1.6740  0.5213
  680MOL0     H89738  -3.239   8.202   0.734 -0.4667 -0.0083 -0.0589
  680MOL0     H89739  -3.350   8.056   0.698  0.3100  0.1507  0.6990
  680MOL0     H89740  -3.391   8.192   0.895 -0.3954 -0.1246 -0.2981
  680MOL0     H89741  -3.241   8.128   0.962  1.0472 -1.0146 -1.5270
  680MOL0     H89742  -2.382   8.041   0.898  0.0972 -1.4590  0.0424
  680MOL0     H89743  -2.119   8.043   0.933 -0.5053 -0.3646 -2.1374
  680MOL0     H89744  -1.720   7.678   0.960  1.3917 -0.6066 -0.2007
  680MOL0     H89745  -1.496   7.734   0.900  0.4040 -0.9426  1.9116
  680MOL0     H89746   0.512   7.699   1.163 -1.3283  1.8036  0.0602
  680MOL0     H89747   0.720   7.696   1.279 -0.0011  2.2096 -0.2743
  680MOL0     H89748   1.015   7.646   1.444  2.7384  1.4674 -1.1512
  680MOL0     H89749   1.245   7.573   1.493 -0.1791  2.2143 -0.0583
  680MOL0     H89750   1.471   7.402   1.820 -1.2998 -1.4019 -0.5514
  680MOL0     H89751   1.310   7.435   1.899 -1.5996  0.7981 -1.4271
  680MOL0     H89752   1.396   7.648   1.966 -1.9082 -3.1549 -0.7797
  680MOL0     H89753   1.534   7.545   1.994 -0.0672 -2.6894 -1.3194
  680MOL0     H89754   1.607   7.753   1.906 -0.3310  1.0215 -0.8933
  680MOL0     H89755   1.512   7.729   1.766 -0.7712 -0.3012  0.2134
  680MOL0     H89756   1.715   7.509   1.832 -2.4475  1.4214  2.4417
  680MOL0     H89757   1.624   7.540   1.687 -0.8623  1.2904  1.6237
  680MOL0     H89758   1.918   7.817   1.600 -1.7310  2.2979  2.3026
  680MOL0     H89759   1.188   7.619   1.919  0.9399 -0.0842 -0.7401
  680MOL0     H89760   0.944   7.673   1.879  2.6189 -1.5258  2.0272
  681MOL0     O89761   1.756   6.591   6.051  0.4379  0.0658  0.0019
  681MOL0     C89762   1.652   6.656   6.047 -0.2319  0.4285  0.4261
  681MOL0     O89763   1.599   6.716   6.155 -0.2330  0.2729  0.1904
  681MOL0     C89764   1.664   6.707   6.273  0.1928 -0.3629 -1.3712
  681MOL0     C89765   1.794   6.749   6.292 -0.3389 -0.5449  0.8352
  681MOL0     C89766   1.865   6.725   6.409  0.3141  0.4209  0.1741
  681MOL0     C89767   1.803   6.662   6.517 -0.2125 -0.4155 -0.3831
  681MOL0     O89768   1.881   6.659   6.627  0.8365  0.1914  0.8297
  681MOL0     C89769   1.809   6.624   6.752  0.6215 -0.3681  0.2305
  681MOL0     C89770   1.893   6.667   6.870 -0.7879 -0.4549  0.0612
  681MOL0     C89771   2.025   6.582   6.898  0.3902  0.3396  0.3270
  681MOL0     C89772   2.147   6.621   6.817  0.2850  0.0058 -0.9002
  681MOL0     C89773   2.280   6.564   6.852  0.8382 -0.4241 -0.2797
  681MOL0     C89774   2.362   6.578   6.725 -0.7537 -0.0311 -0.2261
  681MOL0     C89775   2.518   6.590   6.752  0.1180 -0.2452  0.2242
  681MOL0     C89776   2.593   6.595   6.622 -0.0079 -0.7431 -1.1684
  681MOL0     N89777   2.632   6.460   6.585 -1.2547 -0.0403 -0.3987
  681MOL0     C89778   2.601   6.403   6.468 -0.4385  0.2622 -0.4140
  681MOL0     C89779   2.680   6.293   6.453  0.6562 -0.4336  0.3009
  681MOL0     C89780   2.702   6.197   6.343 -0.9769  0.1733  0.8116
  681MOL0     C89781   2.592   6.087   6.339  0.6203 -0.6241 -0.1763
  681MOL0     C89782   2.617   5.981   6.223  0.8142  0.3336  0.1139
  681MOL0     C89783   2.679   6.051   6.100  0.5750  0.5815  0.9250
  681MOL0     O89784   2.688   5.963   5.985  0.1626 -0.4952 -0.1657
  681MOL0     C89785   2.804   5.934   5.916 -0.4898  0.3282  0.0081
  681MOL0     C89786   2.931   5.981   5.953  0.4775 -0.1916  0.5142
  681MOL0     C89787   3.050   5.959   5.878  0.0383 -0.8985 -0.0912
  681MOL0     C89788   3.043   5.885   5.758 -0.2326  0.0626  0.4250
  681MOL0     C89789   3.170   5.874   5.683 -0.1149  0.5239  1.0696
  681MOL0     O89790   3.288   5.910   5.736 -0.0476 -0.1378  0.0728
  681MOL0     C89791   3.408   5.920   5.668 -0.0773 -0.0286  0.7049
  681MOL0     C89792   3.514   5.934   5.743 -0.9091 -0.5888  0.1217
  681MOL0     C89793   3.646   5.937   5.694 -0.0394 -1.0206 -0.0410
  681MOL0     C89794   3.663   5.946   5.554 -0.0533 -0.0552  0.6068
  681MOL0     O89795   3.785   5.935   5.501  0.0845 -0.0318 -0.2303
  681MOL0     C89796   3.827   6.033   5.408  0.6739 -0.8714 -0.5897
  681MOL0     C89797   3.915   5.969   5.305 -0.2449 -0.1411  0.3338
  681MOL0     C89798   3.966   6.086   5.210 -0.1198 -0.6497  0.5493
  681MOL0     C89799   4.079   6.035   5.108 -0.0053 -0.1486 -0.1630
  681MOL0     C89800   4.190   6.140   5.069  0.9201 -0.5290  0.5938
  681MOL0     C89801   4.287   6.076   4.963  0.4591 -0.6983 -0.7395
  681MOL0     C89802   4.404   6.167   4.946  0.5462  0.7599 -0.7591
  681MOL0     C89803   4.505   6.106   4.853  0.3329  0.1134  0.7456
  681MOL0    Cl89804   4.610   6.000   4.939  0.1510  0.1928 -0.3338
  681MOL0     C89805   3.551   5.945   5.469  0.0602 -0.7025  0.1497
  681MOL0     C89806   3.424   5.937   5.526  0.1777  0.0988  0.8192
  681MOL0     O89807   3.164   5.826   5.572 -0.3074  0.1360  0.5623
  681MOL0     C89808   2.913   5.829   5.716 -0.2995  0.1881  0.1939
  681MOL0     C89809   2.799   5.841   5.811 -0.5837 -0.2721  0.5861
  681MOL0     N89810   2.763   6.293   6.561 -0.1914  0.4853  0.1180
  681MOL0     N89811   2.743   6.392   6.631  0.6589  0.2161 -0.1520
  681MOL0     C89812   1.671   6.614   6.502 -0.4958 -0.1157  0.2372
  681MOL0     C89813   1.598   6.650   6.388 -0.4456  0.4758 -0.1539
  681MOL0     C89814   1.591   6.690   5.918  0.6166 -0.4303 -0.2414
  681MOL0     C89815   1.645   6.638   5.800 -0.3688  0.5346 -0.6174
  681MOL0     C89816   1.582   6.659   5.674  0.4069 -0.5315 -0.1695
  681MOL0     C89817   1.466   6.742   5.668  0.3600 -1.2579 -0.1270
  681MOL0     O89818   1.392   6.769   5.556 -0.2701 -0.6115 -0.1440
  681MOL0     C89819   1.438   6.714   5.425 -0.8832 -0.5288 -0.4815
  681MOL0     C89820   1.575   6.786   5.384 -0.3121  1.2678  0.0202
  681MOL0     C89821   1.653   6.715   5.267 -0.2398 -0.4900 -0.0577
  681MOL0     C89822   1.791   6.785   5.256  0.8298 -0.5145  0.8551
  681MOL0     C89823   1.881   6.747   5.365  0.1268 -0.0383  0.0686
  681MOL0     C89824   1.951   6.714   5.461 -0.7829  1.7291  0.5384
  681MOL0     C89825   1.421   6.807   5.789  0.1304  0.3071  0.7877
  681MOL0     C89826   1.481   6.781   5.909  0.8018 -0.4458  0.7862
  681MOL0     H89827   1.848   6.797   6.210 -1.7978  0.8175  0.6331
  681MOL0     H89828   1.960   6.774   6.423 -1.0482  4.8152 -3.6065
  681MOL0     H89829   1.791   6.518   6.737 -2.0016  0.3566 -3.0417
  681MOL0     H89830   1.712   6.676   6.750 -0.9407 -3.1082 -1.5213
  681MOL0     H89831   1.832   6.654   6.960  1.2276 -3.2699  1.2041
  681MOL0     H89832   1.912   6.774   6.868 -2.6325 -0.1073 -0.3839
  681MOL0     H89833   2.015   6.473   6.895  2.4878 -0.0487  3.2109
  681MOL0     H89834   2.054   6.605   7.001  1.3061 -0.2903  0.2224
  681MOL0     H89835   2.122   6.601   6.712 -3.4453  0.2839 -0.1922
  681MOL0     H89836   2.156   6.730   6.827 -0.1250  0.0052 -0.4959
  681MOL0     H89837   2.272   6.460   6.883 -2.4229 -1.3402 -3.5703
  681MOL0     H89838   2.327   6.619   6.934  0.4509 -1.0204  0.3508
  681MOL0     H89839   2.324   6.662   6.667  0.3522 -0.9147 -2.3374
  681MOL0     H89840   2.348   6.489   6.663 -1.6998  1.5345 -2.3655
  681MOL0     H89841   2.547   6.679   6.810  2.3480  0.0264 -1.1696
  681MOL0     H89842   2.563   6.516   6.819  1.6150 -0.4303 -0.9268
  681MOL0     H89843   2.690   6.645   6.635  0.3035 -1.9485  2.4416
  681MOL0     H89844   2.539   6.651   6.545 -0.6499 -0.4843 -0.5488
  681MOL0     H89845   2.517   6.434   6.407  0.9485  0.2903 -2.3992
  681MOL0     H89846   2.798   6.145   6.344 -1.5961 -1.1975 -2.1000
  681MOL0     H89847   2.695   6.269   6.261 -1.6178  0.2514  0.9248
  681MOL0     H89848   2.491   6.128   6.327  1.1421  0.7397  0.0083
  681MOL0     H89849   2.594   6.037   6.437 -0.4089 -0.8296 -0.2504
  681MOL0     H89850   2.682   5.903   6.265 -0.2940 -0.3677  0.5715
  681MOL0     H89851   2.522   5.937   6.191  1.3498  0.2713 -1.4640
  681MOL0     H89852   2.770   6.106   6.123 -2.1963  6.0618  0.5105
  681MOL0     H89853   2.605   6.129   6.077  0.5632  0.6740  1.2691
  681MOL0     H89854   2.951   6.030   6.048 -0.6057 -1.5282  1.4758
  681MOL0     H89855   3.143   6.003   5.913  0.6326 -0.1067 -2.4850
  681MOL0     H89856   3.507   5.939   5.852  3.7647 -4.1123  0.9147
  681MOL0     H89857   3.720   5.955   5.771  1.1883  0.3878 -1.4591
  681MOL0     H89858   3.874   6.120   5.455  1.3460 -2.5652  2.1538
  681MOL0     H89859   3.740   6.065   5.350  0.1546 -2.4826 -0.7704
  681MOL0     H89860   3.851   5.893   5.259  1.1518 -1.4861  0.5254
  681MOL0     H89861   3.986   5.907   5.360 -1.9570 -0.5597  2.1649
  681MOL0     H89862   3.993   6.176   5.266 -0.7075  0.7700 -1.3383
  681MOL0     H89863   3.883   6.126   5.151  0.6707  2.5897  1.4622
  681MOL0     H89864   4.126   5.942   5.141  2.3039  1.6393  2.0038
  681MOL0     H89865   4.037   6.011   5.010  0.6254 -1.1130 -0.2126
  681MOL0     H89866   4.243   6.186   5.153 -1.0454  0.9840  1.0906
  681MOL0     H89867   4.143   6.228   5.024  2.9581  0.7553  0.8359
  681MOL0     H89868   4.230   6.077   4.870 -3.4071  1.6009  1.4142
  681MOL0     H89869   4.315   5.974   4.991 -2.2294 -1.7921 -1.7193
  681MOL0     H89870   4.367   6.264   4.911  1.2527  0.3924 -2.6168
  681MOL0     H89871   4.454   6.185   5.042 -1.5292  1.1145  0.3197
  681MOL0     H89872   4.561   6.193   4.817 -1.5980  1.5238  0.9960
  681MOL0     H89873   4.467   6.063   4.760  0.1234  0.3463  0.7210
  681MOL0     H89874   3.568   5.940   5.362 -2.3311  3.1439 -0.6413
  681MOL0     H89875   3.339   5.941   5.459 -0.0064  0.1403  1.0527
  681MOL0     H89876   2.908   5.782   5.619  3.4904  2.1317 -1.1109
  681MOL0     H89877   2.705   5.789   5.798  1.5367 -4.8005  1.3548
  681MOL0     H89878   1.611   6.565   6.578 -0.5154 -0.0776  0.2466
  681MOL0     H89879   1.499   6.606   6.385  0.5472 -1.9835  0.1730
  681MOL0     H89880   1.728   6.570   5.812  0.5024  1.7961  1.0827
  681MOL0     H89881   1.622   6.587   5.603  0.7450  0.3681 -0.9133
  681MOL0     H89882   1.363   6.737   5.349  0.8383  0.5463 -1.9503
  681MOL0     H89883   1.442   6.605   5.432  0.6636 -0.5040 -0.4911
  681MOL0     H89884   1.544   6.880   5.337 -4.3047 -0.2650 -0.7986
  681MOL0     H89885   1.630   6.811   5.475 -2.4405 -0.0616  1.7786
  681MOL0     H89886   1.589   6.725   5.179 -0.2823  1.5059  0.1682
  681MOL0     H89887   1.672   6.612   5.297 -0.5466 -0.1305  1.4310
  681MOL0     H89888   1.839   6.758   5.161 -0.9735 -1.2441  0.1079
  681MOL0     H89889   1.767   6.891   5.246  1.5790 -0.3198  1.0432
  681MOL0     H89890   2.023   6.688   5.536  1.0599  2.7463 -0.8034
  681MOL0     H89891   1.328   6.863   5.793  0.9612  1.6633  2.1724
  681MOL0     H89892   1.443   6.819   6.003 -5.2127 -3.9414  0.2757
  682MOL0     O89893   3.315   6.927   3.005  0.6007  0.1565  0.0997
  682MOL0     C89894   3.355   7.020   3.063  0.3081  0.0787 -0.9897
  682MOL0     O89895   3.324   7.047   3.198 -0.2386  0.0643  0.1755
  682MOL0     C89896   3.198   7.008   3.233  0.7137 -0.5104 -0.3652
  682MOL0     C89897   3.178   6.900   3.321 -0.2040  0.0392  0.2454
  682MOL0     C89898   3.055   6.872   3.375 -0.5038 -0.6030  0.5508
  682MOL0     C89899   2.948   6.960   3.345 -0.3729  1.1043 -1.5895
  682MOL0     O89900   2.813   6.930   3.385 -0.6305 -0.2547  0.0922
  682MOL0     C89901   2.751   7.021   3.469  0.3463  0.0696 -0.1212
  682MOL0     C89902   2.625   6.974   3.532  0.2350 -0.4481 -0.3076
  682MOL0     C89903   2.642   6.843   3.617  0.2419  0.0083  0.3667
  682MOL0     C89904   2.507   6.807   3.685  0.0302  0.0534 -0.3617
  682MOL0     C89905   2.422   6.725   3.593  0.1371  0.1110 -0.2656
  682MOL0     C89906   2.291   6.692   3.674 -0.2201  0.9726  0.5125
  682MOL0     C89907   2.203   6.598   3.601  0.7526  0.0414  0.3119
  682MOL0     C89908   2.058   6.603   3.644 -0.2210 -1.0851  0.8209
  682MOL0     N89909   2.022   6.524   3.766  0.2304 -0.3765 -0.2992
  682MOL0     C89910   1.993   6.388   3.757  0.1490 -0.0394 -0.1754
  682MOL0     C89911   1.995   6.348   3.893  0.7592  0.0889 -0.7563
  682MOL0     C89912   1.959   6.202   3.930  0.1846 -1.2591 -0.3338
  682MOL0     C89913   1.918   6.188   4.076  0.1794 -0.0939  0.1896
  682MOL0     C89914   1.790   6.108   4.084  0.1665 -0.5620 -0.0921
  682MOL0     C89915   1.654   6.183   4.070  0.0007 -0.6452  0.1800
  682MOL0     O89916   1.557   6.085   4.073 -0.3158 -0.1313  0.0949
  682MOL0     C89917   1.430   6.114   4.106 -0.4345  0.3152 -0.0165
  682MOL0     C89918   1.368   6.229   4.056 -0.6530 -0.7053 -0.1994
  682MOL0     C89919   1.237   6.267   4.102 -0.0757 -0.5906 -0.1879
  682MOL0     C89920   1.169   6.176   4.187 -0.9098  0.0701  0.7624
  682MOL0     C89921   1.019   6.199   4.209 -0.4821 -0.2462 -0.4244
  682MOL0     O89922   0.964   6.290   4.129 -0.0261 -0.5342 -0.0025
  682MOL0     C89923   0.836   6.333   4.160  0.2001  0.2379  0.4678
  682MOL0     C89924   0.807   6.470   4.181  0.4610  0.1443 -0.9202
  682MOL0     C89925   0.679   6.513   4.218  0.0032  0.6826  0.6261
  682MOL0     C89926   0.579   6.419   4.232 -0.5040 -0.1141  0.1445
  682MOL0     O89927   0.450   6.442   4.259 -0.4638  1.0298 -0.3083
  682MOL0     C89928   0.392   6.574   4.221 -0.1728  0.2134  0.2422
  682MOL0     C89929   0.244   6.567   4.262  0.4640 -0.2124  0.5347
  682MOL0     C89930   0.202   6.551   4.406 -0.6030 -0.0644 -0.2775
  682MOL0     C89931   0.045   6.574   4.405 -1.1055 -0.4348 -0.0545
  682MOL0     C89932  -0.004   6.560   4.543 -0.4841  0.0836  0.0057
  682MOL0     C89933  -0.146   6.593   4.555 -0.0498  0.0238  0.6193
  682MOL0     C89934  -0.235   6.494   4.492  0.2456  0.2005 -0.1178
  682MOL0     C89935  -0.383   6.510   4.527  0.4107 -1.2014 -0.9262
  682MOL0    Cl89936  -0.488   6.372   4.479 -0.0157  0.4667  0.2699
  682MOL0     C89937   0.607   6.286   4.205 -0.0466 -1.1339  0.1699
  682MOL0     C89938   0.733   6.238   4.169 -0.5053  0.2910 -1.1063
  682MOL0     O89939   0.971   6.150   4.314 -0.1232 -0.0114  0.7787
  682MOL0     C89940   1.233   6.065   4.242  0.8261  0.8942 -0.2407
  682MOL0     C89941   1.365   6.033   4.200 -0.3348 -0.2137 -0.5732
  682MOL0     N89942   2.030   6.458   3.975  0.5568 -0.1500 -0.3798
  682MOL0     N89943   2.049   6.556   3.892 -0.0009  1.0924 -0.0788
  682MOL0     C89944   2.958   7.063   3.260  0.2474  0.6513 -0.6974
  682MOL0     C89945   3.081   7.083   3.201  0.5320 -0.1683 -0.1329
  682MOL0     C89946   3.467   7.103   3.006  0.6233  0.0793 -0.0994
  682MOL0     C89947   3.486   7.241   3.046  0.1452  0.2438  0.4998
  682MOL0     C89948   3.585   7.320   2.977 -0.0560  1.4833 -0.1729
  682MOL0     C89949   3.672   7.267   2.882  0.2438 -0.1426 -0.9613
  682MOL0     O89950   3.771   7.336   2.811  0.7704  0.3412 -0.1155
  682MOL0     C89951   3.758   7.474   2.801 -0.6197  0.3499 -0.2262
  682MOL0     C89952   3.851   7.527   2.685 -0.1002 -1.4049 -0.2472
  682MOL0     C89953   4.001   7.500   2.710 -0.1919  0.5278 -0.2946
  682MOL0     C89954   4.047   7.363   2.661  0.1177 -0.2286 -0.4277
  682MOL0     C89955   4.188   7.361   2.640  0.2280  0.0915  0.2984
  682MOL0     C89956   4.305   7.341   2.602 -0.2736  0.3065 -0.5664
  682MOL0     C89957   3.648   7.124   2.854 -0.1115 -0.6925  0.1169
  682MOL0     C89958   3.552   7.050   2.908  0.6270  0.3926  0.8789
  682MOL0     H89959   3.266   6.844   3.350  1.7528  3.3533  1.3190
  682MOL0     H89960   3.037   6.791   3.445 -0.1925 -1.8115 -0.7129
  682MOL0     H89961   2.730   7.107   3.405 -0.6536 -0.1519 -0.1007
  682MOL0     H89962   2.823   7.040   3.549 -2.4207  0.6739  2.3948
  682MOL0     H89963   2.555   6.946   3.452  1.4232 -4.1432 -0.2323
  682MOL0     H89964   2.601   7.056   3.600  2.6347  0.6350 -0.6523
  682MOL0     H89965   2.709   6.853   3.703 -0.5143  1.6644  0.8207
  682MOL0     H89966   2.670   6.762   3.549 -4.0266 -0.5484 -1.0067
  682MOL0     H89967   2.538   6.749   3.773 -0.8322 -0.2327 -0.2412
  682MOL0     H89968   2.456   6.897   3.719  0.0322 -0.2818  0.5589
  682MOL0     H89969   2.477   6.630   3.593 -2.1286 -1.3376 -2.6546
  682MOL0     H89970   2.401   6.775   3.498 -3.0047 -0.5522 -0.0166
  682MOL0     H89971   2.222   6.776   3.690  0.0537  1.0660  1.2579
  682MOL0     H89972   2.311   6.659   3.777 -0.5348  0.9491  0.5672
  682MOL0     H89973   2.213   6.616   3.493  0.0776  1.8381  0.4992
  682MOL0     H89974   2.248   6.502   3.626 -1.7036 -0.9430  1.2966
  682MOL0     H89975   1.996   6.572   3.560 -0.1979  1.2706 -0.1268
  682MOL0     H89976   2.035   6.708   3.666  3.0263  0.1687 -0.9492
  682MOL0     H89977   1.964   6.331   3.669 -4.0201  1.8792 -0.3293
  682MOL0     H89978   2.045   6.136   3.915  1.8679  0.6397  0.5287
  682MOL0     H89979   1.870   6.171   3.874 -2.1869  0.8459  1.9594
  682MOL0     H89980   1.900   6.287   4.119  1.3070 -0.7170  2.2420
  682MOL0     H89981   1.999   6.141   4.132  1.0044  1.4901  0.3832
  682MOL0     H89982   1.801   6.022   4.017  3.5914 -0.2889 -0.0586
  682MOL0     H89983   1.785   6.065   4.185 -1.0473  1.8112  0.9430
  682MOL0     H89984   1.649   6.231   3.972 -0.5003 -1.2926 -0.1208
  682MOL0     H89985   1.646   6.246   4.159 -0.3390 -0.4518  0.0149
  682MOL0     H89986   1.407   6.294   3.978  0.5480 -1.2475 -0.0767
  682MOL0     H89987   1.176   6.346   4.059 -1.9984 -2.5583 -1.2605
  682MOL0     H89988   0.884   6.546   4.176  2.5224 -1.6262  1.2779
  682MOL0     H89989   0.663   6.621   4.215 -3.5906  0.2416 -1.5926
  682MOL0     H89990   0.392   6.576   4.111 -2.4284 -1.0833  0.1506
  682MOL0     H89991   0.444   6.662   4.258 -2.0766  0.2376  3.2420
  682MOL0     H89992   0.193   6.484   4.214 -0.0050 -1.7113  3.4162
  682MOL0     H89993   0.212   6.666   4.229  0.1904 -0.1055  1.1016
  682MOL0     H89994   0.249   6.624   4.472 -0.4605  0.2983 -0.7756
  682MOL0     H89995   0.228   6.449   4.436  1.9376  0.2134 -1.3473
  682MOL0     H89996   0.016   6.671   4.364 -0.3195 -0.3513 -0.4433
  682MOL0     H89997   0.001   6.503   4.335 -1.2964 -0.8709  0.4984
  682MOL0     H89998   0.050   6.624   4.613 -0.9239 -1.0778  1.4524
  682MOL0     H89999   0.012   6.459   4.584 -2.4856  0.2115  1.2116
  682MOL0     H90000  -0.168   6.689   4.509  1.2832  0.5934  1.1098
  682MOL0     H90001  -0.168   6.619   4.659  0.7281 -1.0162  1.0727
  682MOL0     H90002  -0.235   6.489   4.383 -1.2145 -1.5412 -0.0980
  682MOL0     H90003  -0.189   6.401   4.528  2.2714  1.1079 -0.2112
  682MOL0     H90004  -0.418   6.603   4.481  4.4568  2.4030  2.3886
  682MOL0     H90005  -0.388   6.524   4.635 -2.1355  1.5846 -1.2750
  682MOL0     H90006   0.519   6.224   4.216 -0.0565 -0.7504  3.1766
  682MOL0     H90007   0.739   6.130   4.179 -1.1434  0.3809  0.5320
  682MOL0     H90008   1.181   6.001   4.312  1.3983 -0.3678 -0.9340
  682MOL0     H90009   1.423   5.951   4.241 -0.1396 -2.9207 -5.4789
  682MOL0     H90010   2.868   7.113   3.224 -1.5991 -0.3969  2.1065
  682MOL0     H90011   3.098   7.166   3.134  2.1705 -1.2031 -1.0703
  682MOL0     H90012   3.441   7.291   3.131  2.8130  0.1852  2.0627
  682MOL0     H90013   3.616   7.420   3.007  1.0689  0.4054  2.6024
  682MOL0     H90014   3.782   7.523   2.895 -2.8323  0.5915  0.2430
  682MOL0     H90015   3.656   7.513   2.795 -0.6008  0.2209 -1.8701
  682MOL0     H90016   3.823   7.473   2.595  0.3471 -3.4519  0.7815
  682MOL0     H90017   3.839   7.636   2.675 -1.7575 -1.1497  3.0307
  682MOL0     H90018   4.022   7.515   2.817  1.2927  3.1209 -0.8531
  682MOL0     H90019   4.067   7.573   2.662  2.0246  0.7682  2.7490
  682MOL0     H90020   4.029   7.276   2.725  1.6007  1.3927  2.3878
  682MOL0     H90021   3.996   7.343   2.566  0.7451 -1.5980 -0.5022
  682MOL0     H90022   4.406   7.329   2.569 -0.6771 -2.1780 -1.1221
  682MOL0     H90023   3.720   7.074   2.791  2.4222  3.6578 -0.8658
  682MOL0     H90024   3.537   6.948   2.876 -1.1132  1.3805 -1.8445
  683MOL0     O90025   8.543   4.341  11.078  0.3435 -0.6092  1.4494
  683MOL0     C90026   8.578   4.461  11.056  0.9938 -0.4062 -0.3608
  683MOL0     O90027   8.493   4.574  11.025 -0.3906  0.1772 -0.2412
  683MOL0     C90028   8.368   4.545  10.973  0.5842 -0.1605  0.5158
  683MOL0     C90029   8.345   4.434  10.886  0.3853 -0.0815  0.3960
  683MOL0     C90030   8.207   4.418  10.843 -1.0472 -0.2791  1.4184
  683MOL0     C90031   8.109   4.512  10.871  0.0780  0.1037  0.8854
  683MOL0     O90032   7.986   4.508  10.826  0.0106  0.5434  0.5550
  683MOL0     C90033   7.943   4.439  10.714 -0.1444 -0.0233  0.4733
  683MOL0     C90034   7.800   4.497  10.678  0.3021 -0.6033 -0.3663
  683MOL0     C90035   7.796   4.649  10.643  0.3805  0.1189  0.8095
  683MOL0     C90036   7.679   4.710  10.703  0.1356 -0.1652  0.3756
  683MOL0     C90037   7.661   4.693  10.854 -0.0524  0.0442 -1.3938
  683MOL0     C90038   7.584   4.805  10.926 -0.0943  0.0424 -0.1129
  683MOL0     C90039   7.429   4.797  10.899 -0.0440  0.1629  0.8278
  683MOL0     C90040   7.390   4.889  10.777 -0.0977  0.1556  0.0929
  683MOL0     N90041   7.289   4.820  10.690 -0.0751  0.1022  0.5345
  683MOL0     C90042   7.155   4.801  10.712  0.3845  0.5999 -0.5105
  683MOL0     C90043   7.116   4.712  10.620 -0.0053  0.4834 -0.3763
  683MOL0     C90044   6.972   4.665  10.597 -0.7294  0.6412 -0.1563
  683MOL0     C90045   6.929   4.557  10.696  0.3754 -0.0918  0.5192
  683MOL0     C90046   6.848   4.443  10.618 -0.2254 -1.0598 -0.0974
  683MOL0     C90047   6.717   4.493  10.564 -0.0822  0.4704  0.2571
  683MOL0     O90048   6.623   4.517  10.670  0.2928 -1.1045  0.2167
  683MOL0     C90049   6.490   4.502  10.633 -0.3307  0.4600  0.0665
  683MOL0     C90050   6.405   4.601  10.578  0.0731 -0.2041  0.8165
  683MOL0     C90051   6.281   4.569  10.529  0.1998 -1.0212  0.5553
  683MOL0     C90052   6.225   4.440  10.532  0.3522 -0.7200 -0.4772
  683MOL0     C90053   6.091   4.416  10.490  0.0496 -0.2343 -0.2934
  683MOL0     O90054   6.030   4.309  10.556  0.0792 -0.9391  0.2374
  683MOL0     C90055   5.909   4.269  10.510 -0.3512 -0.1795  0.1269
  683MOL0     C90056   5.794   4.347  10.528  0.8921 -0.2883 -0.1141
  683MOL0     C90057   5.663   4.297  10.489 -0.3815  0.3460 -1.3077
  683MOL0     C90058   5.651   4.169  10.435  0.0079 -0.2398 -1.1051
  683MOL0     O90059   5.523   4.127  10.412 -0.3305 -0.1322  0.3187
  683MOL0     C90060   5.508   4.028  10.301  0.6468  0.7157 -0.6023
  683MOL0     C90061   5.370   4.029  10.235 -0.0682  0.6132  0.2596
  683MOL0     C90062   5.252   4.014  10.339 -0.4187 -0.0703 -0.1100
  683MOL0     C90063   5.114   3.995  10.269  0.2745  0.4939  1.1893
  683MOL0     C90064   5.097   3.862  10.198 -0.3134 -0.0634  0.3458
  683MOL0     C90065   5.022   3.868  10.059 -0.5839 -0.4697 -1.0459
  683MOL0     C90066   5.004   3.733   9.985  0.9685 -0.9749  0.1501
  683MOL0     C90067   4.895   3.643  10.061 -0.3553  0.2618 -0.1218
  683MOL0    Cl90068   4.841   3.500   9.964  0.2404  0.1257 -0.4200
  683MOL0     C90069   5.769   4.088  10.429 -0.1310  0.2722 -0.7843
  683MOL0     C90070   5.896   4.137  10.466  0.4338  0.4902 -0.5609
  683MOL0     O90071   6.038   4.484  10.406  0.2436  0.0345  0.1199
  683MOL0     C90072   6.309   4.343  10.600 -0.2214 -0.2009  0.3914
  683MOL0     C90073   6.440   4.373  10.649  0.6157  0.2608 -0.7824
  683MOL0     N90074   7.227   4.681  10.537 -0.0292  0.5484  0.3148
  683MOL0     N90075   7.326   4.751  10.579 -0.0164  0.6915 -0.3364
  683MOL0     C90076   8.141   4.615  10.953  0.5201  0.2433 -0.6066
  683MOL0     C90077   8.271   4.639  11.004 -0.7379  0.7099 -0.7246
  683MOL0     C90078   8.728   4.499  11.056  0.1116 -0.4334 -0.3780
  683MOL0     C90079   8.775   4.633  11.045 -0.0868  0.0551 -0.2363
  683MOL0     C90080   8.906   4.655  11.038 -0.5115 -0.0326 -0.7319
  683MOL0     C90081   9.005   4.553  11.017  1.1502 -0.0066  0.2300
  683MOL0     O90082   9.135   4.589  11.008 -0.1406 -0.2506 -0.5218
  683MOL0     C90083   9.203   4.630  11.127 -0.6966  0.4275  1.1910
  683MOL0     C90084   9.357   4.617  11.103 -0.1683 -0.9616 -0.1005
  683MOL0     C90085   9.406   4.721  11.004  0.1347  0.5792 -0.2895
  683MOL0     C90086   9.537   4.789  11.040 -0.2157  0.4163 -0.2893
  683MOL0     C90087   9.645   4.691  11.042 -0.1056  0.4243  0.0226
  683MOL0     C90088   9.723   4.598  11.043 -0.3290 -0.9339  0.2231
  683MOL0     C90089   8.957   4.417  11.025 -0.9411 -0.9048  0.1834
  683MOL0     C90090   8.820   4.397  11.056  0.1349 -0.3742 -0.7936
  683MOL0     H90091   8.421   4.362  10.858  1.1394  0.2232  1.5757
  683MOL0     H90092   8.178   4.330  10.787  0.8461  0.5171 -0.9950
  683MOL0     H90093   7.918   4.333  10.725  1.6644 -0.6776 -1.2516
  683MOL0     H90094   8.016   4.443  10.633  0.4708 -1.9397  0.9013
  683MOL0     H90095   7.743   4.473  10.768  1.2139 -3.5430 -0.4697
  683MOL0     H90096   7.755   4.436  10.599 -0.4173 -0.6218  0.0508
  683MOL0     H90097   7.781   4.663  10.535  0.1581 -1.4072  0.6284
  683MOL0     H90098   7.880   4.708  10.683 -0.9141  1.7206  1.2957
  683MOL0     H90099   7.677   4.818  10.690 -1.1536 -0.2451 -0.2659
  683MOL0     H90100   7.589   4.672  10.653  0.6342  1.4288 -1.9175
  683MOL0     H90101   7.756   4.687  10.909 -0.8040 -0.7541 -0.1181
  683MOL0     H90102   7.608   4.601  10.880  0.2473 -0.3894 -2.3102
  683MOL0     H90103   7.612   4.905  10.891  1.3409 -0.4531 -0.4628
  683MOL0     H90104   7.607   4.804  11.033  1.2406 -0.5828 -0.3798
  683MOL0     H90105   7.403   4.691  10.888 -2.5061  0.7838 -0.1236
  683MOL0     H90106   7.383   4.831  10.992  0.8956 -1.3110  1.8763
  683MOL0     H90107   7.481   4.916  10.724 -1.3602  0.1486 -2.1834
  683MOL0     H90108   7.359   4.989  10.809  0.6497 -0.1919  2.0629
  683MOL0     H90109   7.115   4.856  10.797  2.4048  0.2581  0.7497
  683MOL0     H90110   6.976   4.617  10.499  1.6775 -0.3205  0.3434
  683MOL0     H90111   6.901   4.749  10.595 -0.4161  0.9213  0.3354
  683MOL0     H90112   6.855   4.603  10.761 -0.9748 -0.0426 -0.9854
  683MOL0     H90113   7.004   4.506  10.757  0.1313 -0.0372  0.8643
  683MOL0     H90114   6.911   4.406  10.536  1.2030 -2.2655  1.4803
  683MOL0     H90115   6.840   4.359  10.687 -0.7155 -1.8455 -1.0887
  683MOL0     H90116   6.680   4.407  10.507 -0.2943 -0.4256  1.6919
  683MOL0     H90117   6.723   4.579  10.497 -1.8746  1.0239  0.7561
  683MOL0     H90118   6.453   4.696  10.556 -2.1962  0.3699 -2.2688
  683MOL0     H90119   6.244   4.657  10.477  0.4315 -1.1551  0.1548
  683MOL0     H90120   5.794   4.448  10.568  2.8406  0.0971 -1.0006
  683MOL0     H90121   5.568   4.342  10.512  0.2173  1.9575 -1.8490
  683MOL0     H90122   5.531   3.928  10.341 -1.5283 -1.1230 -3.5066
  683MOL0     H90123   5.574   4.038  10.215 -1.8766 -0.1214 -2.7491
  683MOL0     H90124   5.358   3.957  10.153  0.2430  0.7785  0.0691
  683MOL0     H90125   5.354   4.128  10.193 -0.7765  0.7582  0.8561
  683MOL0     H90126   5.250   4.103  10.403 -0.2482 -0.4067  0.3674
  683MOL0     H90127   5.275   3.933  10.408 -0.8919  1.8283  2.4333
  683MOL0     H90128   5.031   4.026  10.333  0.5709 -1.3384  2.5439
  683MOL0     H90129   5.108   4.060  10.181  2.1071 -1.6506 -0.6321
  683MOL0     H90130   5.034   3.802  10.265  0.0518  0.4025  1.1162
  683MOL0     H90131   5.188   3.812  10.166 -1.5868 -2.1496 -0.2233
  683MOL0     H90132   5.061   3.941   9.988  0.2660 -1.2577 -1.4013
  683MOL0     H90133   4.923   3.910  10.076  0.1995  2.2458 -2.5667
  683MOL0     H90134   4.962   3.758   9.887  0.6772  2.0329  0.9361
  683MOL0     H90135   5.099   3.679   9.979  2.0349  0.9509 -2.7239
  683MOL0     H90136   4.810   3.706  10.092  1.5386  1.4814  3.0903
  683MOL0     H90137   4.929   3.609  10.159  0.2730 -2.1610 -1.1142
  683MOL0     H90138   5.766   3.985  10.395 -1.9898  0.0581 -0.0936
  683MOL0     H90139   5.982   4.071  10.475 -0.0534 -0.6806 -3.5598
  683MOL0     H90140   6.279   4.239  10.605  2.6929 -1.1611  0.1388
  683MOL0     H90141   6.496   4.295  10.698 -3.7427 -0.3050  4.1366
  683MOL0     H90142   8.074   4.700  10.967 -1.6969 -1.3078 -1.3514
  683MOL0     H90143   8.296   4.720  11.071 -1.2418 -0.2223  0.6365
  683MOL0     H90144   8.691   4.702  11.046  0.3195  1.1964  6.9452
  683MOL0     H90145   8.931   4.759  11.016  3.2943 -0.5499  0.4327
  683MOL0     H90146   9.170   4.561  11.205  0.5716 -0.5035  0.9348
  683MOL0     H90147   9.175   4.732  11.154  1.6488  0.7698  2.5996
  683MOL0     H90148   9.405   4.637  11.200 -0.5987 -0.7362  0.0690
  683MOL0     H90149   9.384   4.518  11.066 -1.5130 -0.3531 -3.0283
  683MOL0     H90150   9.333   4.803  10.995  0.4984  1.1867  1.7529
  683MOL0     H90151   9.411   4.677  10.904  1.3042 -0.5956  0.2652
  683MOL0     H90152   9.558   4.865  10.964 -1.8010  0.6766 -0.5001
  683MOL0     H90153   9.537   4.844  11.134 -0.8102 -1.7570  1.0708
  683MOL0     H90154   9.794   4.519  11.038  1.1653  0.4236 -1.5216
  683MOL0     H90155   9.029   4.335  11.027 -1.6495 -1.5189  1.0846
  683MOL0     H90156   8.801   4.292  11.077  0.2308 -0.4475 -1.0622
  684MOL0     O90157   5.869   8.410   8.606 -0.8069 -0.2572  0.4600
  684MOL0     C90158   5.909   8.474   8.506 -0.2229 -0.1750 -1.2724
  684MOL0     O90159   5.831   8.550   8.423 -0.0782  0.5338 -0.1873
  684MOL0     C90160   5.702   8.559   8.454  0.1287 -0.3783  0.6175
  684MOL0     C90161   5.627   8.566   8.337  0.0118 -0.8607  0.3238
  684MOL0     C90162   5.488   8.581   8.338 -0.3207 -0.6755 -0.8693
  684MOL0     C90163   5.419   8.584   8.454  0.1030  1.1932 -0.2846
  684MOL0     O90164   5.282   8.597   8.458 -0.1912 -0.0714 -0.2695
  684MOL0     C90165   5.211   8.624   8.336 -0.3366  0.0669  0.1751
  684MOL0     C90166   5.075   8.674   8.389  0.2824  0.0403 -0.2338
  684MOL0     C90167   5.000   8.772   8.301 -0.3685 -0.1816 -0.2690
  684MOL0     C90168   4.896   8.849   8.383 -0.4199  0.9568 -0.3336
  684MOL0     C90169   4.800   8.929   8.303 -0.5157  0.8856  0.6329
  684MOL0     C90170   4.700   8.995   8.404 -0.5508  0.3654  1.0092
  684MOL0     C90171   4.575   9.054   8.341  0.0793 -0.5571  0.5765
  684MOL0     C90172   4.609   9.196   8.274 -0.0893  0.5922 -0.2535
  684MOL0     N90173   4.481   9.243   8.218 -0.2200 -0.1885 -0.7571
  684MOL0     C90174   4.389   9.315   8.282  0.6904 -0.4039  0.7786
  684MOL0     C90175   4.274   9.293   8.220 -0.4534  0.1577  0.3182
  684MOL0     C90176   4.152   9.359   8.279 -0.3244 -0.1414  0.3996
  684MOL0     C90177   4.035   9.308   8.200 -0.9401  0.4694 -0.5435
  684MOL0     C90178   3.911   9.354   8.264  1.1822  0.4265 -0.2167
  684MOL0     C90179   3.782   9.287   8.203  0.2183  0.3775 -0.0469
  684MOL0     O90180   3.787   9.288   8.063 -0.2575 -0.1223 -0.2945
  684MOL0     C90181   3.666   9.275   8.005  0.9909  0.8358  0.1099
  684MOL0     C90182   3.596   9.372   7.933 -0.4816 -1.1929 -0.5213
  684MOL0     C90183   3.466   9.351   7.890 -0.3535 -0.1821  0.7890
  684MOL0     C90184   3.408   9.225   7.898  0.2106 -0.1742  0.2749
  684MOL0     C90185   3.271   9.207   7.838  0.2964  0.0862  0.5950
  684MOL0     O90186   3.222   9.087   7.865  0.6977 -0.3302 -0.1909
  684MOL0     C90187   3.104   9.052   7.817  0.1140 -0.8197  0.0839
  684MOL0     C90188   3.091   8.957   7.714 -0.1854 -0.2008  0.0570
  684MOL0     C90189   2.968   8.910   7.672  0.5757  0.5218  0.3184
  684MOL0     C90190   2.850   8.982   7.709 -0.2284 -0.8169  0.3861
  684MOL0     O90191   2.734   8.949   7.643 -0.1476  0.0659  0.2203
  684MOL0     C90192   2.613   8.955   7.724  0.3365  0.6676  0.0059
  684MOL0     C90193   2.513   9.056   7.653  0.3055  0.1953  0.0290
  684MOL0     C90194   2.366   9.031   7.705  0.3705  0.3456  0.1398
  684MOL0     C90195   2.267   9.136   7.656 -0.0325 -0.1669  0.0661
  684MOL0     C90196   2.115   9.088   7.652 -0.4294 -1.0650  0.1147
  684MOL0     C90197   2.025   9.094   7.780 -0.5014  0.5143  0.1776
  684MOL0     C90198   2.077   9.158   7.908 -0.2350  0.4708  0.1932
  684MOL0     C90199   1.969   9.167   8.012  0.4364 -0.1821 -0.5672
  684MOL0    Cl90200   1.916   9.004   8.067 -0.0148 -0.3773  0.5666
  684MOL0     C90201   2.859   9.086   7.815  0.0840 -1.0562  0.7962
  684MOL0     C90202   2.989   9.110   7.871 -0.6644  0.2111 -0.0325
  684MOL0     O90203   3.219   9.298   7.778 -0.1898  0.0446 -0.1928
  684MOL0     C90204   3.491   9.121   7.953  0.3109 -0.3898 -0.4475
  684MOL0     C90205   3.609   9.154   8.013  0.5185  0.3643  0.2789
  684MOL0     N90206   4.302   9.216   8.109  0.6426 -0.3653 -0.2572
  684MOL0     N90207   4.429   9.187   8.108  0.1767 -0.0026 -0.3200
  684MOL0     C90208   5.491   8.563   8.571  0.5533  0.1955 -0.2783
  684MOL0     C90209   5.632   8.551   8.574 -0.3770 -0.3223 -0.0850
  684MOL0     C90210   6.055   8.465   8.478  0.2741 -0.0731  0.7787
  684MOL0     C90211   6.153   8.455   8.578 -0.2143 -0.5129 -0.4882
  684MOL0     C90212   6.283   8.477   8.540  0.1092 -0.0471 -0.4937
  684MOL0     C90213   6.324   8.491   8.408 -0.2798  0.3921 -0.1845
  684MOL0     O90214   6.458   8.497   8.377 -0.0269 -0.3624 -0.2862
  684MOL0     C90215   6.497   8.382   8.288 -0.3427 -0.3643 -0.0621
  684MOL0     C90216   6.638   8.329   8.326 -0.1715  0.1191 -0.2713
  684MOL0     C90217   6.642   8.259   8.467  0.1725 -1.2134  0.2576
  684MOL0     C90218   6.782   8.218   8.506  0.7009 -0.2192 -0.8034
  684MOL0     C90219   6.876   8.327   8.521 -0.4471 -0.0776 -0.2202
  684MOL0     C90220   6.942   8.430   8.534 -0.5693 -0.9983 -0.0148
  684MOL0     C90221   6.225   8.501   8.306 -0.2915  0.0229 -1.0270
  684MOL0     C90222   6.091   8.494   8.346 -0.3155 -0.0257 -0.0160
  684MOL0     H90223   5.673   8.567   8.239 -1.8939 -0.3994 -0.6096
  684MOL0     H90224   5.454   8.599   8.237 -0.5169 -0.2358 -0.7330
  684MOL0     H90225   5.203   8.548   8.258 -1.6541  3.9449 -3.8652
  684MOL0     H90226   5.272   8.702   8.290  1.3831 -0.9766  0.5920
  684MOL0     H90227   5.090   8.726   8.484 -0.5041 -2.9643  1.6484
  684MOL0     H90228   5.003   8.594   8.407 -1.1065  2.1191  5.4238
  684MOL0     H90229   4.961   8.714   8.217  3.1603 -3.5811  0.1213
  684MOL0     H90230   5.058   8.855   8.259  1.1885 -0.6806  0.8020
  684MOL0     H90231   4.836   8.772   8.434  2.1151  0.0656  1.5568
  684MOL0     H90232   4.948   8.909   8.458  0.5646  0.3206 -0.4803
  684MOL0     H90233   4.744   8.869   8.230  3.2212  0.1739 -1.9694
  684MOL0     H90234   4.835   9.014   8.243 -0.4036  0.6365  0.3385
  684MOL0     H90235   4.752   9.064   8.470 -0.2275 -0.6638  1.8685
  684MOL0     H90236   4.660   8.919   8.472 -1.5689 -1.2973 -1.3236
  684MOL0     H90237   4.530   8.990   8.264 -1.2397  2.0648 -0.9590
  684MOL0     H90238   4.495   9.063   8.415 -1.8933 -4.4069 -0.8053
  684MOL0     H90239   4.677   9.176   8.191  1.1311 -3.3970  1.4733
  684MOL0     H90240   4.646   9.264   8.352  2.8386  0.1999 -1.1975
  684MOL0     H90241   4.424   9.374   8.366  1.6694  0.3375 -0.1207
  684MOL0     H90242   4.160   9.468   8.290 -0.3189  0.0291 -1.0501
  684MOL0     H90243   4.144   9.332   8.385 -0.3644  1.7875  0.9250
  684MOL0     H90244   4.038   9.199   8.192  2.1648  0.5881 -3.7521
  684MOL0     H90245   4.029   9.343   8.096 -2.6252  1.3915 -0.1599
  684MOL0     H90246   3.924   9.314   8.365  2.1959  0.5362 -0.2942
  684MOL0     H90247   3.900   9.463   8.261 -3.3516  0.2225  1.4987
  684MOL0     H90248   3.692   9.336   8.241 -1.7685 -2.4887 -0.7343
  684MOL0     H90249   3.768   9.184   8.238 -2.5606  0.8616  0.5302
  684MOL0     H90250   3.635   9.473   7.937 -1.8980 -0.6484  0.6964
  684MOL0     H90251   3.410   9.435   7.851 -1.5909 -1.6586 -0.7680
  684MOL0     H90252   3.186   8.920   7.675 -0.3909  0.3893 -1.0562
  684MOL0     H90253   2.969   8.844   7.586  0.7070  2.4077 -1.2099
  684MOL0     H90254   2.628   8.978   7.830 -2.5828  0.1722  0.6076
  684MOL0     H90255   2.568   8.855   7.729 -0.7512  1.0746 -1.1194
  684MOL0     H90256   2.518   9.049   7.544 -0.8395  1.6101 -0.1329
  684MOL0     H90257   2.547   9.157   7.676  0.8632  0.5217 -2.0383
  684MOL0     H90258   2.366   9.028   7.814 -0.6931 -0.5262  0.1348
  684MOL0     H90259   2.329   8.932   7.677 -2.6967  1.2169  0.7950
  684MOL0     H90260   2.278   9.227   7.716  2.1995 -1.4342  1.7532
  684MOL0     H90261   2.287   9.161   7.551  2.7060 -1.4446  0.1954
  684MOL0     H90262   2.115   8.983   7.622 -2.6115 -1.0769 -0.0593
  684MOL0     H90263   2.067   9.144   7.572 -2.9193 -2.4669  0.5092
  684MOL0     H90264   2.012   8.987   7.800 -1.0440  0.7294  1.0268
  684MOL0     H90265   1.924   9.130   7.756 -0.2081  0.3486 -1.4277
  684MOL0     H90266   2.160   9.102   7.951  1.3511  1.2325 -1.7484
  684MOL0     H90267   2.105   9.262   7.885  0.0556  0.1860 -0.7932
  684MOL0     H90268   1.883   9.218   7.969 -0.7813 -2.0131 -0.4082
  684MOL0     H90269   2.001   9.227   8.098  0.8233 -0.7240 -0.3204
  684MOL0     H90270   2.766   9.131   7.848 -0.8183 -1.4438 -1.0748
  684MOL0     H90271   3.003   9.177   7.955 -0.6612  0.0512  0.0927
  684MOL0     H90272   3.469   9.016   7.969 -1.0140  0.0531  0.8355
  684MOL0     H90273   3.657   9.072   8.065  1.5939  0.0716 -1.1076
  684MOL0     H90274   5.433   8.558   8.662 -0.5425  2.9253 -0.7147
  684MOL0     H90275   5.680   8.534   8.669 -2.6901 -0.3628  1.1430
  684MOL0     H90276   6.124   8.419   8.676 -0.5859 -0.2416 -0.4960
  684MOL0     H90277   6.360   8.480   8.617  1.0877 -2.1849 -1.3200
  684MOL0     H90278   6.480   8.432   8.192 -1.3153 -0.4796  0.0381
  684MOL0     H90279   6.421   8.303   8.287 -0.7217 -0.0046  0.0850
  684MOL0     H90280   6.682   8.254   8.259  0.5676 -0.1374  0.5023
  684MOL0     H90281   6.711   8.409   8.333 -1.1764  0.9032  3.6037
  684MOL0     H90282   6.572   8.175   8.459 -0.4221 -0.6652 -0.5223
  684MOL0     H90283   6.604   8.334   8.536  0.3134  1.9200 -2.7580
  684MOL0     H90284   6.782   8.159   8.599 -0.3232  1.0775  0.0640
  684MOL0     H90285   6.813   8.139   8.438 -1.5589  0.2666 -2.5230
  684MOL0     H90286   6.977   8.529   8.554 -4.5943  0.4686  0.8309
  684MOL0     H90287   6.245   8.511   8.200  2.2080  0.3860 -0.5857
  684MOL0     H90288   6.021   8.507   8.265 -0.5865  1.2776  0.4052
  685MOL0     O90289   0.196   1.530   0.779 -0.2638 -0.0760 -0.1959
  685MOL0     C90290   0.195   1.409   0.749  0.3195  0.6604 -0.5393
  685MOL0     O90291   0.082   1.332   0.736 -0.1780  0.3207  0.1117
  685MOL0     C90292  -0.048   1.378   0.771  0.7446  0.0232 -0.1114
  685MOL0     C90293  -0.064   1.433   0.895  0.2778 -0.0985 -0.4787
  685MOL0     C90294  -0.188   1.495   0.927 -0.2424  0.1191  0.4327
  685MOL0     C90295  -0.303   1.482   0.849 -0.8039 -0.3248 -0.3627
  685MOL0     O90296  -0.421   1.532   0.893 -0.7206  0.0360 -1.2401
  685MOL0     C90297  -0.432   1.671   0.860  0.5487  0.1311 -0.1692
  685MOL0     C90298  -0.467   1.685   0.715  0.1473 -0.7703 -0.3318
  685MOL0     C90299  -0.593   1.609   0.699 -0.1448 -0.1912 -0.3575
  685MOL0     C90300  -0.666   1.658   0.570  0.2807 -0.7754 -0.2544
  685MOL0     C90301  -0.810   1.611   0.558 -0.6543  0.8230 -0.1137
  685MOL0     C90302  -0.887   1.682   0.448  0.2647 -0.6494  0.2540
  685MOL0     C90303  -1.027   1.618   0.454 -0.3861  0.1035 -0.1084
  685MOL0     C90304  -1.128   1.669   0.338  0.4665 -0.0498 -0.0430
  685MOL0     N90305  -1.262   1.603   0.376 -0.3856 -0.3723 -0.5292
  685MOL0     C90306  -1.348   1.655   0.475  0.1730  0.4436 -0.5518
  685MOL0     C90307  -1.461   1.594   0.445 -0.8838 -0.1971  0.4569
  685MOL0     C90308  -1.585   1.628   0.525  1.1557  0.3143  0.0012
  685MOL0     C90309  -1.605   1.513   0.625 -0.1672  1.4659 -0.7830
  685MOL0     C90310  -1.689   1.541   0.747  0.4239  0.1986  0.7033
  685MOL0     C90311  -1.825   1.606   0.709 -0.7340  0.3235 -0.0145
  685MOL0     O90312  -1.912   1.501   0.678  0.0400 -0.2492 -0.1451
  685MOL0     C90313  -2.055   1.518   0.680  0.3065 -0.7677 -0.5933
  685MOL0     C90314  -2.139   1.415   0.628 -1.2823  0.4879  0.0874
  685MOL0     C90315  -2.274   1.423   0.642  0.9028 -0.6035  0.3262
  685MOL0     C90316  -2.338   1.550   0.675 -0.1304  0.0776 -0.6558
  685MOL0     C90317  -2.486   1.567   0.668 -0.8534 -0.4489 -0.8751
  685MOL0     O90318  -2.547   1.688   0.722  0.6775  0.5498 -0.0982
  685MOL0     C90319  -2.682   1.688   0.719  1.0579  0.4477 -0.2571
  685MOL0     C90320  -2.756   1.591   0.784 -0.9819  0.4067  0.3666
  685MOL0     C90321  -2.896   1.605   0.795  0.3918 -0.9078 -0.7357
  685MOL0     C90322  -2.961   1.718   0.750  0.2997 -0.2091 -0.2485
  685MOL0     O90323  -3.092   1.749   0.759  0.2812  0.2220 -0.7831
  685MOL0     C90324  -3.182   1.643   0.716  0.7135 -0.3491 -0.4791
  685MOL0     C90325  -3.322   1.696   0.675  0.1061 -0.0790 -0.5826
  685MOL0     C90326  -3.430   1.589   0.687  0.3405  0.1756 -0.4535
  685MOL0     C90327  -3.562   1.624   0.613 -0.2836  0.4791 -0.0841
  685MOL0     C90328  -3.682   1.536   0.642  0.2562 -0.3800  0.5369
  685MOL0     C90329  -3.657   1.388   0.608  0.8493 -0.2436 -0.0737
  685MOL0     C90330  -3.789   1.318   0.642 -0.3301 -1.4463 -0.1080
  685MOL0     C90331  -3.776   1.176   0.637 -0.2150  0.2273  0.5067
  685MOL0    Cl90332  -3.774   1.139   0.466  0.1338  0.2987 -0.0836
  685MOL0     C90333  -2.882   1.819   0.682  0.1963  0.5933 -0.2407
  685MOL0     C90334  -2.740   1.808   0.672  0.0706  0.6273  0.2424
  685MOL0     O90335  -2.544   1.474   0.611 -0.6401  0.9614 -0.4910
  685MOL0     C90336  -2.254   1.648   0.728  0.2464 -0.7027  0.8003
  685MOL0     C90337  -2.113   1.627   0.727 -0.5297 -0.8507 -0.1182
  685MOL0     N90338  -1.442   1.492   0.347 -0.0998 -0.1392 -0.2282
  685MOL0     N90339  -1.322   1.503   0.312 -0.2359 -0.6060 -0.4399
  685MOL0     C90340  -0.281   1.425   0.722  1.0489  0.7587 -0.8372
  685MOL0     C90341  -0.154   1.370   0.682  0.9901 -0.5861 -0.1873
  685MOL0     C90342   0.313   1.345   0.712 -1.2577 -0.0516  0.2456
  685MOL0     C90343   0.325   1.207   0.687 -0.3369  0.5989  0.0473
  685MOL0     C90344   0.444   1.150   0.637  0.9046 -0.0144  0.4359
  685MOL0     C90345   0.559   1.224   0.607  0.2334  0.8179  0.0082
  685MOL0     O90346   0.663   1.146   0.555 -0.1614 -0.6155  0.2306
  685MOL0     C90347   0.785   1.219   0.510 -0.1122 -0.4211 -0.0401
  685MOL0     C90348   0.873   1.242   0.630 -1.5825  0.0317 -0.1883
  685MOL0     C90349   1.000   1.325   0.585  0.2240 -1.0445  0.0549
  685MOL0     C90350   1.086   1.354   0.708  0.0009 -0.1275  0.1617
  685MOL0     C90351   1.029   1.445   0.810 -0.6284  0.1978  0.3436
  685MOL0     C90352   0.958   1.512   0.879 -0.4612  0.5139 -0.4886
  685MOL0     C90353   0.552   1.354   0.653 -0.2741  0.4050 -0.0545
  685MOL0     C90354   0.434   1.418   0.698 -0.8033  0.9613 -0.3133
  685MOL0     H90355   0.015   1.424   0.969 -1.8647  1.6879  2.2117
  685MOL0     H90356  -0.200   1.538   1.026  0.6484  1.5511 -0.0451
  685MOL0     H90357  -0.338   1.720   0.887  2.2567 -2.4126 -1.1644
  685MOL0     H90358  -0.510   1.710   0.927 -1.0703 -1.1211 -1.2360
  685MOL0     H90359  -0.393   1.660   0.639 -0.9294 -0.0199 -1.6655
  685MOL0     H90360  -0.494   1.790   0.698  0.8235 -0.1256  2.2183
  685MOL0     H90361  -0.656   1.626   0.786  0.0624  0.2909 -0.2973
  685MOL0     H90362  -0.572   1.503   0.685  2.2347  0.1766  0.0139
  685MOL0     H90363  -0.662   1.767   0.564 -0.4768 -0.7286 -0.0767
  685MOL0     H90364  -0.598   1.633   0.488  2.3169  3.8928 -0.2844
  685MOL0     H90365  -0.865   1.621   0.652  0.1270  0.8450  0.3434
  685MOL0     H90366  -0.818   1.505   0.530 -1.1167  1.3098 -1.9790
  685MOL0     H90367  -0.833   1.648   0.359  1.0202 -0.2996  0.5751
  685MOL0     H90368  -0.889   1.790   0.466 -3.7743 -0.3698 -0.8549
  685MOL0     H90369  -1.026   1.509   0.445  1.7215  0.0599  0.2187
  685MOL0     H90370  -1.076   1.649   0.546 -3.0946 -0.4587 -1.2586
  685MOL0     H90371  -1.112   1.617   0.243 -2.8717 -0.1179 -0.6738
  685MOL0     H90372  -1.140   1.776   0.322 -1.2433 -0.1423  0.4877
  685MOL0     H90373  -1.327   1.736   0.545  0.6457 -1.0363  1.1109
  685MOL0     H90374  -1.664   1.627   0.450 -0.1120  1.0716  1.2828
  685MOL0     H90375  -1.566   1.716   0.587  0.4948  0.5639 -0.1510
  685MOL0     H90376  -1.513   1.464   0.661 -0.2654  1.5859 -0.3683
  685MOL0     H90377  -1.652   1.435   0.564  1.1828 -1.5803  1.7559
  685MOL0     H90378  -1.698   1.453   0.811 -1.9144  2.0811  3.1589
  685MOL0     H90379  -1.643   1.618   0.809 -0.3302  0.0274  1.4779
  685MOL0     H90380  -1.811   1.677   0.627  1.6509 -0.6962 -0.5907
  685MOL0     H90381  -1.874   1.655   0.793 -0.8292  1.0141 -0.4648
  685MOL0     H90382  -2.097   1.321   0.594 -0.4085  0.7344  0.4510
  685MOL0     H90383  -2.334   1.335   0.621  2.2067 -1.2017 -1.1375
  685MOL0     H90384  -2.709   1.501   0.822 -0.1486  0.5776 -0.2398
  685MOL0     H90385  -2.948   1.525   0.849 -2.2637  0.6459 -0.8134
  685MOL0     H90386  -3.179   1.563   0.791 -1.4795 -0.3358 -0.3079
  685MOL0     H90387  -3.136   1.585   0.635 -0.6285 -1.3685 -0.5520
  685MOL0     H90388  -3.319   1.731   0.572 -1.5287 -0.9030 -0.9400
  685MOL0     H90389  -3.352   1.786   0.728  1.0560 -1.7801  3.2845
  685MOL0     H90390  -3.435   1.569   0.795  2.3613 -0.7068 -0.4763
  685MOL0     H90391  -3.407   1.493   0.640  1.3552  0.8581 -1.4028
  685MOL0     H90392  -3.586   1.728   0.637  0.3302  1.2059 -2.3238
  685MOL0     H90393  -3.552   1.613   0.504  0.6717 -0.5179  0.0885
  685MOL0     H90394  -3.763   1.585   0.588  2.5756  0.0261 -2.8633
  685MOL0     H90395  -3.697   1.536   0.751  0.0294  2.0816  0.5675
  685MOL0     H90396  -3.568   1.344   0.656  0.7843  0.7565  1.0234
  685MOL0     H90397  -3.639   1.373   0.501  1.9102 -0.5060  0.1221
  685MOL0     H90398  -3.819   1.359   0.739  0.2800 -1.3880  0.0627
  685MOL0     H90399  -3.869   1.343   0.571  1.0398 -2.8039 -2.2532
  685MOL0     H90400  -3.857   1.119   0.684 -2.8355  2.9147 -0.4801
  685MOL0     H90401  -3.679   1.151   0.682  0.1494 -1.4620 -1.1077
  685MOL0     H90402  -2.924   1.902   0.626 -1.5340  0.1325  0.3075
  685MOL0     H90403  -2.678   1.877   0.615 -0.3998  0.7152 -0.1688
  685MOL0     H90404  -2.302   1.736   0.768 -1.8288 -1.6423  0.4975
  685MOL0     H90405  -2.063   1.714   0.767 -0.2795 -0.8379 -0.4596
  685MOL0     H90406  -0.362   1.409   0.652 -1.1650 -5.0312  2.3361
  685MOL0     H90407  -0.153   1.325   0.583 -2.1285 -0.8816 -0.2028
  685MOL0     H90408   0.246   1.134   0.702 -1.3027  1.0385 -2.4069
  685MOL0     H90409   0.461   1.045   0.617  3.6646  1.0746 -4.8338
  685MOL0     H90410   0.766   1.310   0.454  0.4903  0.9234  1.8438
  685MOL0     H90411   0.840   1.159   0.437 -0.6532 -2.1727  0.9219
  685MOL0     H90412   0.818   1.290   0.712  1.7184  0.8841  1.7055
  685MOL0     H90413   0.910   1.148   0.671 -2.4819  0.5716  1.9979
  685MOL0     H90414   0.962   1.416   0.539  1.1182 -0.6852  0.0113
  685MOL0     H90415   1.061   1.268   0.514  0.7281 -3.0645  1.9966
  685MOL0     H90416   1.130   1.261   0.746  3.7794  0.8203 -1.3797
  685MOL0     H90417   1.177   1.401   0.670  0.4732 -1.6841 -0.7614
  685MOL0     H90418   0.887   1.560   0.944 -1.5335  0.8606 -1.8844
  685MOL0     H90419   0.634   1.422   0.631 -0.6553  0.0574 -3.0144
  685MOL0     H90420   0.436   1.520   0.733  1.2867  0.6324  0.6603
  686MOL0     O90421   5.974   5.761   3.215  0.2008 -0.1519 -0.1824
  686MOL0     C90422   5.926   5.859   3.150  0.6922 -0.7220  0.4276
  686MOL0     O90423   5.989   5.973   3.129  0.6078 -0.2021  0.7249
  686MOL0     C90424   6.119   5.996   3.171 -0.2998  0.0435 -0.2580
  686MOL0     C90425   6.166   5.980   3.302  0.4163  0.4811  0.5468
  686MOL0     C90426   6.304   6.003   3.322  0.3222  0.0849  0.1435
  686MOL0     C90427   6.392   6.031   3.216 -0.4575  0.0175 -0.6341
  686MOL0     O90428   6.527   6.045   3.236 -0.2766 -0.6586 -0.0077
  686MOL0     C90429   6.593   6.166   3.198  0.4271  0.3215 -0.3069
  686MOL0     C90430   6.732   6.171   3.269 -1.5174  0.2871  0.4434
  686MOL0     C90431   6.808   6.293   3.238 -0.1927 -0.1559 -0.0138
  686MOL0     C90432   6.951   6.296   3.299 -0.4172 -0.4626  0.7908
  686MOL0     C90433   7.034   6.416   3.265  0.2148 -0.4776  0.0007
  686MOL0     C90434   7.146   6.436   3.365 -0.1866  0.6322 -0.0585
  686MOL0     C90435   7.265   6.517   3.309 -0.3549 -0.1892  0.7296
  686MOL0     C90436   7.391   6.525   3.396  0.2531  0.4791 -0.2740
  686MOL0     N90437   7.505   6.612   3.352  0.5391  0.1803  0.0312
  686MOL0     C90438   7.595   6.586   3.254 -0.4417  0.8882 -0.6462
  686MOL0     C90439   7.680   6.690   3.250 -0.2059 -1.0209  0.4491
  686MOL0     C90440   7.800   6.706   3.163  0.6507  0.4595 -0.2740
  686MOL0     C90441   7.919   6.645   3.237 -0.5248  0.1077  0.0950
  686MOL0     C90442   7.990   6.751   3.324  0.4893  0.6353 -0.3567
  686MOL0     C90443   8.074   6.683   3.443  0.0020  0.2675 -0.0844
  686MOL0     O90444   8.181   6.612   3.380  0.8985 -0.7477  0.1819
  686MOL0     C90445   8.293   6.677   3.346 -0.4857 -0.6841 -0.3022
  686MOL0     C90446   8.313   6.818   3.345 -0.0623 -1.3307 -0.2584
  686MOL0     C90447   8.431   6.873   3.309 -0.6502  0.0679  0.0790
  686MOL0     C90448   8.546   6.791   3.287 -0.2237  0.7908 -0.2047
  686MOL0     C90449   8.682   6.845   3.268 -0.6524 -1.5320 -0.0384
  686MOL0     O90450   8.787   6.762   3.237  0.0050  0.3829 -0.0861
  686MOL0     C90451   8.915   6.810   3.207 -0.1335 -0.1600 -0.6423
  686MOL0     C90452   9.004   6.702   3.160  0.5841 -1.0217  1.1542
  686MOL0     C90453   9.130   6.738   3.105  0.1622  0.8973 -0.1546
  686MOL0     C90454   9.177   6.875   3.096 -0.3327  0.6227  0.0155
  686MOL0     O90455   9.299   6.903   3.042 -0.4356  0.0588 -0.2523
  686MOL0     C90456   9.398   6.798   3.061  0.0200  0.2239  0.5840
  686MOL0     C90457   9.536   6.847   3.042  0.0505  0.2762 -0.5397
  686MOL0     C90458   9.559   6.951   3.153  0.1592 -0.3935  0.0243
  686MOL0     C90459   9.703   7.004   3.130  0.0837 -0.1941 -0.5318
  686MOL0     C90460   9.742   7.062   3.267 -0.3217 -0.2204 -0.1994
  686MOL0     C90461   9.877   7.121   3.259  0.8067  0.4987  0.4852
  686MOL0     C90462   9.912   7.183   3.390  0.1181 -0.7758 -0.5736
  686MOL0     C90463  10.057   7.248   3.387  0.3968 -0.2850 -0.0629
  686MOL0    Cl90464  10.095   7.311   3.549 -0.3323 -0.6175 -0.0729
  686MOL0     C90465   9.090   6.978   3.152 -0.2088 -1.1313  1.1098
  686MOL0     C90466   8.965   6.945   3.205  0.1685 -0.3651 -0.2780
  686MOL0     O90467   8.690   6.969   3.282  0.5640  0.3665  0.1271
  686MOL0     C90468   8.523   6.649   3.281 -0.6757  0.8955  0.0834
  686MOL0     C90469   8.404   6.601   3.306  0.2693 -0.5322 -0.1423
  686MOL0     N90470   7.627   6.787   3.336 -0.4792  0.4278  0.7960
  686MOL0     N90471   7.519   6.747   3.389  1.0423  0.6463 -0.5638
  686MOL0     C90472   6.344   6.039   3.086 -1.0070  0.3505  0.1452
  686MOL0     C90473   6.211   6.016   3.065  0.2905 -0.7174 -1.1702
  686MOL0     C90474   5.802   5.842   3.061  0.0658  0.1718 -0.6963
  686MOL0     C90475   5.769   5.706   3.029  0.5643 -0.5798 -0.0093
  686MOL0     C90476   5.671   5.681   2.940  0.2752  0.8635 -0.6899
  686MOL0     C90477   5.586   5.777   2.887 -0.4408  0.4238  0.2624
  686MOL0     O90478   5.468   5.760   2.812 -0.2535 -0.6890  0.5722
  686MOL0     C90479   5.417   5.625   2.810  0.2608 -0.5156  0.5966
  686MOL0     C90480   5.290   5.609   2.737 -0.4817 -0.0418  0.5900
  686MOL0     C90481   5.287   5.597   2.580  0.0334 -0.3972  0.2922
  686MOL0     C90482   5.356   5.485   2.512 -0.2072  0.8292  0.0172
  686MOL0     C90483   5.498   5.472   2.521 -0.5309 -1.0076 -0.9323
  686MOL0     C90484   5.618   5.485   2.515  0.7321 -0.7161  0.7394
  686MOL0     C90485   5.605   5.912   2.931  0.1208  0.7036  0.3623
  686MOL0     C90486   5.711   5.944   3.017 -0.0496 -0.1717  0.1608
  686MOL0     H90487   6.105   5.961   3.390  0.2375  1.8989  0.7397
  686MOL0     H90488   6.341   5.987   3.423 -1.1542 -2.7541  0.3488
  686MOL0     H90489   6.544   6.261   3.223  4.0064  2.1974  0.2317
  686MOL0     H90490   6.622   6.178   3.093 -0.6207  1.7375 -0.4639
  686MOL0     H90491   6.801   6.094   3.234  0.2159  1.8158  0.3309
  686MOL0     H90492   6.718   6.160   3.377  2.3531 -0.4538  1.0014
  686MOL0     H90493   6.753   6.380   3.276  0.3448  0.1666  0.0353
  686MOL0     H90494   6.819   6.310   3.131  1.1551  3.4821  0.5663
  686MOL0     H90495   6.940   6.299   3.408  1.1529 -0.4263  0.9667
  686MOL0     H90496   7.017   6.213   3.272  1.6819  1.9278 -1.9797
  686MOL0     H90497   6.969   6.504   3.268 -0.6274 -1.0668 -0.3450
  686MOL0     H90498   7.077   6.390   3.168  1.9017 -3.4713  1.4153
  686MOL0     H90499   7.189   6.339   3.393 -0.0517  1.7419  4.3109
  686MOL0     H90500   7.104   6.482   3.455 -2.7495  0.5632 -1.1593
  686MOL0     H90501   7.293   6.483   3.209 -2.1933  0.3274 -0.0067
  686MOL0     H90502   7.225   6.617   3.290  0.1547 -0.4830 -2.4958
  686MOL0     H90503   7.429   6.422   3.404 -1.4345 -0.3723 -2.2800
  686MOL0     H90504   7.356   6.546   3.498 -0.8554 -2.1614 -0.0147
  686MOL0     H90505   7.614   6.490   3.207  4.2636  0.8900  0.7465
  686MOL0     H90506   7.806   6.814   3.147  0.2672  0.6356  0.7114
  686MOL0     H90507   7.789   6.643   3.074 -0.8287 -1.8822  1.4329
  686MOL0     H90508   7.986   6.594   3.166 -1.0671  0.4634 -0.6905
  686MOL0     H90509   7.886   6.563   3.301  4.1602 -1.5048  0.8494
  686MOL0     H90510   8.050   6.820   3.265  1.9301  0.5291  0.9244
  686MOL0     H90511   7.915   6.814   3.372 -0.6485  1.9510 -3.6159
  686MOL0     H90512   8.006   6.624   3.506 -2.1319  3.1670  0.5475
  686MOL0     H90513   8.104   6.761   3.514  0.3054 -0.4966  0.6467
  686MOL0     H90514   8.234   6.888   3.372  1.5487  0.2599  0.5601
  686MOL0     H90515   8.454   6.979   3.320  0.2659 -0.1952  0.8324
  686MOL0     H90516   8.965   6.601   3.151 -1.0309 -0.2802 -1.7948
  686MOL0     H90517   9.194   6.657   3.071 -0.9778  0.0310 -0.3173
  686MOL0     H90518   9.380   6.729   2.979 -1.2169  1.7355 -0.4682
  686MOL0     H90519   9.385   6.748   3.158  0.7102  1.4646  1.3547
  686MOL0     H90520   9.538   6.892   2.943  1.4437  0.1895 -0.5812
  686MOL0     H90521   9.612   6.767   3.043 -3.0470 -2.9183  0.3183
  686MOL0     H90522   9.560   6.901   3.251  2.6844 -0.0879  0.2329
  686MOL0     H90523   9.486   7.032   3.148 -1.1975 -1.6426 -1.1950
  686MOL0     H90524   9.776   6.928   3.101  1.2894 -1.8764  5.5968
  686MOL0     H90525   9.693   7.088   3.059 -1.8191  0.5735  0.5683
  686MOL0     H90526   9.751   6.974   3.331  2.4455 -2.6117 -3.4930
  686MOL0     H90527   9.671   7.138   3.300 -2.3472 -0.7153 -2.9892
  686MOL0     H90528   9.873   7.202   3.185 -1.6146  1.3213  1.4264
  686MOL0     H90529   9.945   7.039   3.235 -0.5325 -1.6341  3.3767
  686MOL0     H90530   9.843   7.264   3.417  2.8197  1.2167  0.8508
  686MOL0     H90531   9.920   7.109   3.469 -0.6180 -2.2743 -1.8450
  686MOL0     H90532  10.054   7.329   3.314 -0.2758 -1.0832 -0.9499
  686MOL0     H90533  10.134   7.181   3.347 -1.0242 -0.3696 -2.9604
  686MOL0     H90534   9.111   7.084   3.154 -2.0882 -0.6448 -1.0880
  686MOL0     H90535   8.903   7.032   3.227  1.3198  0.4386 -0.0870
  686MOL0     H90536   8.600   6.574   3.272 -2.9095 -1.4798 -0.4784
  686MOL0     H90537   8.393   6.493   3.313  1.2361 -0.5350  1.9122
  686MOL0     H90538   6.402   6.072   3.001 -1.6853  3.3382  0.7335
  686MOL0     H90539   6.175   6.018   2.963 -0.6618  0.3660 -0.8378
  686MOL0     H90540   5.831   5.625   3.067 -2.8624 -2.1349  2.7488
  686MOL0     H90541   5.672   5.578   2.905 -1.3184  0.9833 -1.1650
  686MOL0     H90542   5.406   5.599   2.916  1.9019  3.9555  2.1140
  686MOL0     H90543   5.491   5.560   2.763 -1.7194 -0.7887 -2.4513
  686MOL0     H90544   5.245   5.515   2.769  2.0620 -1.9028 -0.9286
  686MOL0     H90545   5.223   5.694   2.756 -0.8689 -0.2728  0.2491
  686MOL0     H90546   5.317   5.694   2.539  0.8873 -0.4836  0.6915
  686MOL0     H90547   5.184   5.575   2.551  0.1387 -1.4348  0.6525
  686MOL0     H90548   5.317   5.386   2.539 -1.0013  0.1345 -3.1821
  686MOL0     H90549   5.326   5.502   2.408  0.2830  3.5213  0.2697
  686MOL0     H90550   5.723   5.489   2.497  0.2729  0.4361 -2.3624
  686MOL0     H90551   5.547   5.993   2.888  0.9039  1.7194  1.1617
  686MOL0     H90552   5.712   6.050   3.038 -3.3315 -0.2312  1.0853
  687MOL0     O90553   1.940   7.886  10.390 -0.1509  0.0048 -0.1353
  687MOL0     C90554   1.933   7.782  10.449 -0.2658  0.4991 -0.1089
  687MOL0     O90555   1.853   7.684  10.420 -0.2133 -0.0576  0.3111
  687MOL0     C90556   1.779   7.669  10.298 -0.3062  0.7241 -0.6003
  687MOL0     C90557   1.777   7.747  10.182 -0.7529  0.1647 -0.3717
  687MOL0     C90558   1.688   7.726  10.069 -0.4352  1.2529 -0.5646
  687MOL0     C90559   1.610   7.613  10.073  0.5018  0.8174 -0.4462
  687MOL0     O90560   1.539   7.580   9.957  0.2911 -0.0084  0.7971
  687MOL0     C90561   1.402   7.631   9.943 -0.6504 -0.4984 -0.1124
  687MOL0     C90562   1.341   7.580   9.807 -0.0607 -0.1763 -0.5035
  687MOL0     C90563   1.417   7.637   9.690  0.2850 -0.7088 -0.1505
  687MOL0     C90564   1.358   7.598   9.550 -0.4609 -0.2627  0.5161
  687MOL0     C90565   1.451   7.660   9.442  0.8338 -0.0204  0.3601
  687MOL0     C90566   1.385   7.677   9.308  0.3217  0.4809  0.2421
  687MOL0     C90567   1.392   7.556   9.217 -0.8212  0.7350  0.0733
  687MOL0     C90568   1.284   7.567   9.105 -0.5020 -0.3694  0.1247
  687MOL0     N90569   1.148   7.579   9.153  0.2099  0.4348  0.1746
  687MOL0     C90570   1.080   7.486   9.233  0.6915  0.0318  0.3332
  687MOL0     C90571   0.953   7.529   9.240 -0.5396 -0.2601 -0.5919
  687MOL0     C90572   0.846   7.472   9.333 -0.6602 -0.1361 -0.0347
  687MOL0     C90573   0.884   7.461   9.489 -0.3730  0.6499 -0.2637
  687MOL0     C90574   0.951   7.589   9.553 -0.2079 -0.1193  0.7524
  687MOL0     C90575   0.850   7.708   9.542  0.4891  0.0058 -1.0075
  687MOL0     O90576   0.841   7.800   9.655 -0.0884  0.2842  0.6610
  687MOL0     C90577   0.964   7.863   9.690 -0.3199 -1.0280  0.6940
  687MOL0     C90578   1.043   7.932   9.585 -0.1105  0.2642 -0.4744
  687MOL0     C90579   1.169   7.983   9.609  0.1148  0.7664 -0.1504
  687MOL0     C90580   1.222   7.978   9.736  0.7675 -0.1533 -0.7883
  687MOL0     C90581   1.360   8.030   9.769 -0.1970  0.1859 -0.3649
  687MOL0     O90582   1.397   8.017   9.905 -0.0575 -1.1223  0.9716
  687MOL0     C90583   1.521   8.067   9.946 -0.3973 -0.3830 -0.5621
  687MOL0     C90584   1.528   8.148  10.054  0.3121  0.3266  0.3088
  687MOL0     C90585   1.651   8.181  10.114  0.4348 -0.1537  0.5786
  687MOL0     C90586   1.779   8.139  10.069  0.2766 -0.2003  0.3233
  687MOL0     O90587   1.900   8.150  10.135  0.1756 -0.0520  0.3669
  687MOL0     C90588   1.924   8.244  10.241  0.4720  0.3536 -0.5828
  687MOL0     C90589   2.052   8.209  10.312  0.5556  0.2875  0.8654
  687MOL0     C90590   2.074   8.293  10.431  0.4960 -0.3231  0.5213
  687MOL0     C90591   2.193   8.252  10.514  0.4462 -0.2773  1.1222
  687MOL0     C90592   2.318   8.291  10.441 -1.1198  0.6181  0.6120
  687MOL0     C90593   2.449   8.257  10.518 -0.0992 -0.6859  0.1813
  687MOL0     C90594   2.563   8.320  10.443  0.3257  0.1831  0.6948
  687MOL0     C90595   2.696   8.289  10.507 -0.2948  0.4611 -0.2491
  687MOL0    Cl90596   2.713   8.396  10.646  0.2069 -0.1973 -0.7402
  687MOL0     C90597   1.770   8.073   9.943 -0.2333  0.1936  0.2013
  687MOL0     C90598   1.647   8.041   9.882 -0.6513  0.5820 -0.6439
  687MOL0     O90599   1.427   8.074   9.680 -0.0888 -0.0362 -0.0147
  687MOL0     C90600   1.136   7.919   9.837 -0.5555 -0.1132 -0.2425
  687MOL0     C90601   1.015   7.859   9.816 -0.2163  0.0623  0.1799
  687MOL0     N90602   0.952   7.656   9.172  0.2156  0.9781  0.2609
  687MOL0     N90603   1.066   7.680   9.123 -0.5765  1.0252  0.5189
  687MOL0     C90604   1.611   7.537  10.185  0.1036  0.3035  0.6921
  687MOL0     C90605   1.695   7.562  10.289  0.2044 -0.0683  0.6670
  687MOL0     C90606   2.028   7.768  10.555 -0.9037  0.5372  0.5403
  687MOL0     C90607   2.135   7.852  10.574  0.2170  0.0529 -0.2597
  687MOL0     C90608   2.223   7.836  10.679 -0.4687 -0.2271  0.6365
  687MOL0     C90609   2.212   7.737  10.779  0.0565 -0.9061 -0.9773
  687MOL0     O90610   2.290   7.718  10.888 -0.4922  0.1735  0.2633
  687MOL0     C90611   2.395   7.813  10.925 -0.8997  0.7173 -0.1550
  687MOL0     C90612   2.510   7.793  10.821 -0.5773 -0.0841 -0.2533
  687MOL0     C90613   2.620   7.904  10.828  0.1923  1.0607 -0.1181
  687MOL0     C90614   2.712   7.891  10.708 -0.3235  0.2502 -0.4673
  687MOL0     C90615   2.656   7.895  10.574  0.0858 -0.1629  0.4517
  687MOL0     C90616   2.601   7.900  10.469 -0.3836 -0.4872 -0.1032
  687MOL0     C90617   2.109   7.648  10.752  0.2927  0.1602  1.2468
  687MOL0     C90618   2.021   7.656  10.642 -0.5387  0.1180 -0.5535
  687MOL0     H90619   1.855   7.821  10.167  0.9392 -1.6820 -1.1510
  687MOL0     H90620   1.696   7.797   9.988 -1.8712  0.5728 -1.3565
  687MOL0     H90621   1.383   7.738   9.956  0.6595 -0.3510  0.6865
  687MOL0     H90622   1.351   7.582  10.026 -1.4525 -0.5540 -0.6245
  687MOL0     H90623   1.236   7.607   9.798 -0.1034  0.1479  0.7494
  687MOL0     H90624   1.348   7.471   9.818  1.1335  0.0879  2.2639
  687MOL0     H90625   1.525   7.620   9.699  0.8421  2.3880 -0.0253
  687MOL0     H90626   1.399   7.745   9.686 -0.3564 -0.8465 -1.4058
  687MOL0     H90627   1.346   7.490   9.536  0.8188 -0.3743  0.1897
  687MOL0     H90628   1.255   7.634   9.538  0.4130  2.1997 -0.3470
  687MOL0     H90629   1.552   7.623   9.423  1.5024  2.0267 -0.2786
  687MOL0     H90630   1.454   7.765   9.470  0.0535  0.9198 -2.6495
  687MOL0     H90631   1.420   7.757   9.243  2.2018 -1.1260 -0.8246
  687MOL0     H90632   1.279   7.702   9.322  0.5048  2.5756 -1.5312
  687MOL0     H90633   1.489   7.537   9.171 -0.7897  2.5843 -0.7045
  687MOL0     H90634   1.366   7.467   9.274  0.5216  0.1243 -0.2319
  687MOL0     H90635   1.315   7.482   9.044  1.9687  0.5092  0.0571
  687MOL0     H90636   1.292   7.660   9.048 -0.5866 -1.4737 -1.7468
  687MOL0     H90637   1.111   7.408   9.303 -0.7128  0.0791  1.0563
  687MOL0     H90638   0.833   7.372   9.292 -0.5044 -1.5509  3.0576
  687MOL0     H90639   0.756   7.535   9.328 -0.6568  0.0439  1.6498
  687MOL0     H90640   0.947   7.377   9.522  0.1564 -0.0291 -2.7758
  687MOL0     H90641   0.790   7.445   9.544 -0.5347 -4.0000 -1.4203
  687MOL0     H90642   0.982   7.591   9.658  0.5894  2.3663  0.5410
  687MOL0     H90643   1.032   7.632   9.493 -2.6574  2.5396 -0.9470
  687MOL0     H90644   0.752   7.660   9.533 -0.5828  2.0547 -0.7347
  687MOL0     H90645   0.866   7.768   9.452 -1.5339  3.3396  0.6837
  687MOL0     H90646   0.988   7.938   9.492  2.2806  0.7334 -1.9521
  687MOL0     H90647   1.217   8.024   9.521 -1.1517 -0.4045 -1.4593
  687MOL0     H90648   1.430   8.166  10.096  1.2979  2.2373  1.9836
  687MOL0     H90649   1.656   8.262  10.187  2.5372  1.0603 -0.8072
  687MOL0     H90650   1.839   8.240  10.309 -0.6280  0.0797 -1.9162
  687MOL0     H90651   1.935   8.342  10.194  0.7012  0.4654 -0.2982
  687MOL0     H90652   2.132   8.216  10.237  0.9894 -2.5842  0.9135
  687MOL0     H90653   2.054   8.101  10.330  0.8900  0.1476  0.0541
  687MOL0     H90654   1.988   8.286  10.498 -1.1855  1.2848 -1.3209
  687MOL0     H90655   2.076   8.399  10.405  1.3641 -0.3615  0.4228
  687MOL0     H90656   2.201   8.318  10.601  2.1885 -0.3691  1.0686
  687MOL0     H90657   2.196   8.148  10.547 -2.3884  0.4493  4.2797
  687MOL0     H90658   2.319   8.398  10.420  2.7976  0.4558 -0.6909
  687MOL0     H90659   2.334   8.247  10.342 -1.4756  0.4362  0.6314
  687MOL0     H90660   2.473   8.150  10.524  0.7911 -0.7473 -2.8859
  687MOL0     H90661   2.444   8.303  10.617  0.3313 -0.5228  0.1311
  687MOL0     H90662   2.566   8.281  10.341  1.6030  2.4176 -0.2088
  687MOL0     H90663   2.557   8.430  10.441  1.5861  0.2908  1.2145
  687MOL0     H90664   2.780   8.315  10.441  1.5958  0.4067  2.0032
  687MOL0     H90665   2.708   8.183  10.532  0.0408  0.7392  0.8141
  687MOL0     H90666   1.852   8.030   9.885  2.0738 -0.9440  3.9330
  687MOL0     H90667   1.649   7.976   9.794 -0.0932  0.9297 -0.8916
  687MOL0     H90668   1.180   7.915   9.937 -1.3338  1.6226  0.1953
  687MOL0     H90669   0.954   7.815   9.894 -2.4316  2.3587 -0.0888
  687MOL0     H90670   1.552   7.446  10.179  0.7802 -0.0460 -2.1837
  687MOL0     H90671   1.694   7.492  10.372 -1.1530  0.9034  1.4999
  687MOL0     H90672   2.156   7.911  10.485 -0.2947 -0.8445 -0.9930
  687MOL0     H90673   2.298   7.914  10.691 -0.3184  0.6123 -4.0171
  687MOL0     H90674   2.428   7.780  11.024  0.6503 -0.6914 -1.0937
  687MOL0     H90675   2.362   7.917  10.929  0.4507  1.1329  2.6300
  687MOL0     H90676   2.556   7.694  10.816  0.9521  0.4480  1.9617
  687MOL0     H90677   2.460   7.806  10.724 -2.6569 -1.7956  0.4947
  687MOL0     H90678   2.687   7.902  10.915  0.4549  0.6393 -0.3250
  687MOL0     H90679   2.561   7.997  10.823 -0.3493  0.6683 -1.4827
  687MOL0     H90680   2.784   7.972  10.718 -0.0924 -0.0203  0.1425
  687MOL0     H90681   2.775   7.802  10.723  0.5971  0.9493 -0.1231
  687MOL0     H90682   2.558   7.912  10.371 -1.0818  0.8326  0.3369
  687MOL0     H90683   2.095   7.566  10.822 -4.7789  1.5135  2.1788
  687MOL0     H90684   1.948   7.577  10.626  0.9881 -1.6357  0.6359
  688MOL0     O90685   8.806   1.825   1.729 -0.4561 -0.0562  0.1822
  688MOL0     C90686   8.868   1.737   1.676 -1.0455 -0.3979  0.6146
  688MOL0     O90687   8.831   1.609   1.663  0.0275 -0.6635 -0.1653
  688MOL0     C90688   8.710   1.580   1.726 -0.1746  0.0756  0.4468
  688MOL0     C90689   8.595   1.574   1.637  0.4275 -0.6436  0.2585
  688MOL0     C90690   8.471   1.554   1.685 -0.2217  1.4981  0.0009
  688MOL0     C90691   8.449   1.545   1.826 -0.0129 -0.7111 -0.3698
  688MOL0     O90692   8.322   1.498   1.859  0.4021 -0.0623 -0.7874
  688MOL0     C90693   8.280   1.529   1.992 -0.3348  0.0516  1.0283
  688MOL0     C90694   8.117   1.533   2.012 -0.0682 -0.2415 -0.3692
  688MOL0     C90695   8.068   1.393   1.977  0.5478  0.3222 -0.0833
  688MOL0     C90696   7.920   1.371   1.995  0.2463 -0.1954 -0.0576
  688MOL0     C90697   7.882   1.223   1.982  1.0860 -0.8416  0.6078
  688MOL0     C90698   7.737   1.209   1.955 -0.2647 -0.5791 -0.4013
  688MOL0     C90699   7.708   1.055   1.956  0.1558  0.8665  0.4782
  688MOL0     C90700   7.558   1.015   1.961 -0.3118 -0.1334  0.1961
  688MOL0     N90701   7.489   1.069   1.841 -0.8092  0.5496 -0.3900
  688MOL0     C90702   7.508   1.020   1.714 -0.0725 -0.0732 -0.3821
  688MOL0     C90703   7.414   1.077   1.642 -0.0509  0.3450  0.4532
  688MOL0     C90704   7.415   1.073   1.487  1.5649  1.2750 -0.5959
  688MOL0     C90705   7.272   1.083   1.415 -0.7089 -0.0234  0.0273
  688MOL0     C90706   7.189   0.958   1.435  0.1704  0.2930 -0.5246
  688MOL0     C90707   7.195   0.856   1.321 -0.7441  0.9042  0.2228
  688MOL0     O90708   7.063   0.849   1.253  0.5822  0.2469 -0.2176
  688MOL0     C90709   6.998   0.730   1.262  0.2737 -0.4204 -0.5072
  688MOL0     C90710   6.905   0.695   1.160  0.4527  0.6008 -0.1564
  688MOL0     C90711   6.819   0.580   1.187 -0.4674 -0.6429  0.4603
  688MOL0     C90712   6.829   0.496   1.304 -0.3780 -0.0914  0.1108
  688MOL0     C90713   6.738   0.381   1.314 -0.6662  0.7845 -0.0286
  688MOL0     O90714   6.641   0.361   1.215  0.2381  0.1976 -0.0090
  688MOL0     C90715   6.544   0.274   1.250  0.2037  0.1294  0.3643
  688MOL0     C90716   6.559   0.136   1.261 -0.4796  0.5124  0.0052
  688MOL0     C90717   6.451   0.057   1.290  0.2670 -0.0591 -0.4718
  688MOL0     C90718   6.322   0.108   1.326  0.4433  0.1909  0.1328
  688MOL0     O90719   6.219   0.021   1.360 -0.0744 -0.9796 -0.4784
  688MOL0     C90720   6.098   0.038   1.284  0.4651  0.2388 -0.0664
  688MOL0     C90721   6.112  -0.009   1.134  0.5960  0.2570 -1.0372
  688MOL0     C90722   6.148  -0.157   1.129 -0.3979 -0.0223  0.0176
  688MOL0     C90723   6.246  -0.192   1.011  0.8221  0.3755  0.5114
  688MOL0     C90724   6.260  -0.339   0.983  0.2649  0.0860  0.6999
  688MOL0     C90725   6.338  -0.357   0.850 -0.4521 -0.6418  0.3161
  688MOL0     C90726   6.330  -0.500   0.794 -0.1758  0.5700  0.0459
  688MOL0     C90727   6.190  -0.538   0.735 -0.5882 -0.7522 -0.2148
  688MOL0    Cl90728   6.188  -0.710   0.662 -0.1661  0.0332  0.1327
  688MOL0     C90729   6.307   0.242   1.329 -0.1016 -0.0326  0.9989
  688MOL0     C90730   6.416   0.325   1.290  1.0078 -0.5778 -0.7033
  688MOL0     O90731   6.748   0.318   1.417 -0.1371 -0.0713  0.4460
  688MOL0     C90732   6.927   0.533   1.401  0.4858 -0.2392 -0.0702
  688MOL0     C90733   7.011   0.647   1.376 -0.5301  0.1525 -0.5234
  688MOL0     N90734   7.345   1.170   1.725 -0.1591  0.4862 -0.0024
  688MOL0     N90735   7.389   1.160   1.843  0.0057  0.2299  0.2046
  688MOL0     C90736   8.553   1.574   1.915  0.4373  0.1029 -0.5435
  688MOL0     C90737   8.687   1.596   1.861  0.0921  0.5112 -0.9576
  688MOL0     C90738   9.008   1.765   1.617 -0.1614  0.8156  0.5795
  688MOL0     C90739   9.070   1.675   1.530  0.4064  0.1830  0.7374
  688MOL0     C90740   9.197   1.704   1.474  1.0129  0.6361 -0.0751
  688MOL0     C90741   9.263   1.826   1.511  0.9422  0.9116 -0.0733
  688MOL0     O90742   9.386   1.868   1.456 -0.2693 -0.3306  0.1894
  688MOL0     C90743   9.451   1.776   1.360  0.4320 -0.5674  0.4133
  688MOL0     C90744   9.579   1.839   1.313  0.2563  0.0927 -0.9102
  688MOL0     C90745   9.701   1.814   1.406 -0.1664 -0.1337  0.7525
  688MOL0     C90746   9.838   1.868   1.346  0.6516 -0.7400  0.3822
  688MOL0     C90747   9.884   1.790   1.229  0.5300 -0.2597 -0.8771
  688MOL0     C90748   9.921   1.730   1.135 -0.1448  0.1615 -0.4685
  688MOL0     C90749   9.204   1.904   1.607 -0.6377 -0.4031 -0.8422
  688MOL0     C90750   9.068   1.878   1.656 -1.0343 -0.2433 -0.4765
  688MOL0     H90751   8.604   1.578   1.529 -0.7553  0.0947  0.1697
  688MOL0     H90752   8.387   1.553   1.617 -0.1564  2.2671 -0.0987
  688MOL0     H90753   8.312   1.622   2.041  2.4824 -1.0462  1.4889
  688MOL0     H90754   8.321   1.450   2.055  2.3120  0.6611  0.1890
  688MOL0     H90755   8.060   1.606   1.954 -3.1564  0.6405  3.3926
  688MOL0     H90756   8.093   1.553   2.117 -0.3052  2.8091 -0.9205
  688MOL0     H90757   8.127   1.322   2.035  0.4091  0.2729 -0.0002
  688MOL0     H90758   8.095   1.372   1.873  0.8922 -0.1894  0.1046
  688MOL0     H90759   7.876   1.414   2.086 -1.5123 -0.5267 -0.7232
  688MOL0     H90760   7.863   1.433   1.925 -2.9139 -3.6000 -0.8208
  688MOL0     H90761   7.908   1.166   2.072  0.1354 -1.5497  0.4465
  688MOL0     H90762   7.931   1.166   1.903 -0.1575 -0.1301 -0.7435
  688MOL0     H90763   7.700   1.250   1.861 -0.3390 -1.6250 -0.8467
  688MOL0     H90764   7.681   1.265   2.031 -0.5510  0.0945 -1.0992
  688MOL0     H90765   7.751   1.021   1.861 -2.1305 -0.3941 -0.1762
  688MOL0     H90766   7.755   1.015   2.047  0.1571 -1.3588 -0.4304
  688MOL0     H90767   7.512   1.064   2.048  2.2742  2.9058  0.0545
  688MOL0     H90768   7.550   0.907   1.972 -0.1586 -0.1543  0.1113
  688MOL0     H90769   7.566   0.942   1.666 -3.4449 -1.9840 -1.6495
  688MOL0     H90770   7.439   0.969   1.462 -0.0378  0.2822  1.6912
  688MOL0     H90771   7.496   1.143   1.462  1.3705  2.7489  2.4179
  688MOL0     H90772   7.303   1.091   1.311  3.1883 -0.6635  0.9730
  688MOL0     H90773   7.217   1.169   1.457  0.7888 -0.1318  2.4128
  688MOL0     H90774   7.191   0.913   1.535 -0.3398  1.5214  0.0600
  688MOL0     H90775   7.087   0.998   1.437  1.4040  4.8809 -5.6109
  688MOL0     H90776   7.239   0.760   1.348  0.0772  1.1090 -0.3592
  688MOL0     H90777   7.262   0.901   1.248  0.4492  1.9659  1.8996
  688MOL0     H90778   6.902   0.737   1.060 -2.1939  4.1313  1.2008
  688MOL0     H90779   6.773   0.551   1.093  0.9328 -2.3349  0.2430
  688MOL0     H90780   6.649   0.090   1.225  0.1801 -0.5962  2.8114
  688MOL0     H90781   6.464  -0.051   1.284 -3.1714 -0.6950  1.2473
  688MOL0     H90782   6.057   0.139   1.282 -0.0453  0.0382 -0.1564
  688MOL0     H90783   6.020  -0.029   1.323 -1.4460  2.5070  0.2169
  688MOL0     H90784   6.192   0.043   1.080  2.2516 -1.0058  0.0888
  688MOL0     H90785   6.021   0.006   1.076  0.9982  0.5249 -1.6204
  688MOL0     H90786   6.066  -0.228   1.113  0.1223 -0.4392 -0.8282
  688MOL0     H90787   6.194  -0.195   1.221 -2.2871  0.9089  1.4302
  688MOL0     H90788   6.210  -0.140   0.922  3.6574 -0.9281 -1.5316
  688MOL0     H90789   6.344  -0.148   1.032 -0.8726  5.6046 -0.8840
  688MOL0     H90790   6.162  -0.387   0.990  1.4737 -2.5662  0.6563
  688MOL0     H90791   6.311  -0.380   1.070  0.4243 -1.7685 -0.2282
  688MOL0     H90792   6.444  -0.331   0.861 -1.2541  2.2815  2.3894
  688MOL0     H90793   6.298  -0.297   0.768  0.1073 -0.6699  0.0160
  688MOL0     H90794   6.393  -0.515   0.706 -0.8521 -2.1236 -0.0543
  688MOL0     H90795   6.367  -0.569   0.871  1.7788  1.9343  0.3857
  688MOL0     H90796   6.170  -0.462   0.659 -0.4270  0.2187  0.6878
  688MOL0     H90797   6.104  -0.544   0.803 -2.0563 -2.3829 -2.0941
  688MOL0     H90798   6.209   0.276   1.362 -0.3364 -2.0573  2.5688
  688MOL0     H90799   6.393   0.431   1.287  1.3261 -0.4880  0.1123
  688MOL0     H90800   6.938   0.473   1.491  2.6727  2.8176  1.9166
  688MOL0     H90801   7.073   0.684   1.457  0.1567  2.9080 -2.1586
  688MOL0     H90802   8.545   1.571   2.023  1.4876  0.5764 -0.4357
  688MOL0     H90803   8.775   1.615   1.921 -1.2239 -0.4761  1.4208
  688MOL0     H90804   9.013   1.585   1.513 -1.3506  1.2676  0.6743
  688MOL0     H90805   9.249   1.633   1.410 -0.0701 -0.6413  0.4189
  688MOL0     H90806   9.379   1.755   1.281 -0.2695 -2.5320  1.4953
  688MOL0     H90807   9.459   1.674   1.401 -3.8651 -0.4765  2.0495
  688MOL0     H90808   9.596   1.805   1.211  1.5727 -0.5104 -0.5039
  688MOL0     H90809   9.566   1.947   1.302  0.0566  0.2609  0.6442
  688MOL0     H90810   9.707   1.706   1.424  0.0967 -0.6139 -1.8110
  688MOL0     H90811   9.688   1.860   1.504 -0.0775  5.1665 -1.3987
  688MOL0     H90812   9.831   1.970   1.307 -0.8207 -1.7891 -2.3601
  688MOL0     H90813   9.916   1.860   1.423  1.4403  1.3067 -0.1287
  688MOL0     H90814   9.955   1.677   1.048 -0.6209  0.2159 -0.6905
  688MOL0     H90815   9.265   1.986   1.643 -0.7079  1.0560 -3.7137
  688MOL0     H90816   9.021   1.941   1.730 -2.6949  1.6859 -2.9676
  689MOL0     O90817   6.511   3.814   2.222 -0.1959 -0.4510  0.1332
  689MOL0     C90818   6.416   3.876   2.191 -0.4809  0.7139 -0.5495
  689MOL0     O90819   6.412   4.005   2.188  0.1174 -0.8939 -0.1082
  689MOL0     C90820   6.516   4.083   2.229 -0.1461  1.0998 -0.4820
  689MOL0     C90821   6.540   4.117   2.362 -0.4318 -0.0712 -0.1502
  689MOL0     C90822   6.651   4.189   2.394 -0.8869 -0.2747 -0.4843
  689MOL0     C90823   6.725   4.251   2.291  0.0278 -0.3067  1.2074
  689MOL0     O90824   6.821   4.346   2.305  0.1647 -0.5760  0.5739
  689MOL0     C90825   6.866   4.371   2.432 -1.0080 -0.0766  0.4151
  689MOL0     C90826   6.946   4.494   2.449 -0.6786  0.6600  0.2045
  689MOL0     C90827   6.899   4.622   2.383 -0.3274 -0.8007 -0.0542
  689MOL0     C90828   6.974   4.752   2.434 -0.7401 -0.0724  0.4273
  689MOL0     C90829   6.915   4.879   2.374 -0.4351  0.0132 -0.0351
  689MOL0     C90830   6.999   5.004   2.409  0.7808  0.4267 -0.5672
  689MOL0     C90831   6.970   5.111   2.311 -0.1028  0.1481 -0.4025
  689MOL0     C90832   6.971   5.251   2.380 -0.1100 -0.0382 -0.1882
  689MOL0     N90833   6.947   5.362   2.286 -0.2155 -0.6253 -0.5775
  689MOL0     C90834   7.014   5.382   2.165  0.9519  0.6701 -0.1647
  689MOL0     C90835   6.937   5.472   2.101 -0.2980 -0.3208 -0.3264
  689MOL0     C90836   6.971   5.542   1.973 -0.6698  0.1636  0.0298
  689MOL0     C90837   6.971   5.443   1.856  0.3683 -0.1242  0.0912
  689MOL0     C90838   6.961   5.498   1.706 -0.1938 -0.5686 -1.2160
  689MOL0     C90839   6.826   5.554   1.674 -0.0220 -0.3886 -0.0603
  689MOL0     O90840   6.830   5.602   1.536  0.0390 -0.0728  0.3368
  689MOL0     C90841   6.715   5.670   1.494  1.2423  0.9205  0.5015
  689MOL0     C90842   6.598   5.687   1.562  0.8490  0.4431  0.4983
  689MOL0     C90843   6.485   5.754   1.500 -0.9181  0.2749 -0.3557
  689MOL0     C90844   6.503   5.809   1.373 -0.4908 -1.0554 -0.4713
  689MOL0     C90845   6.397   5.886   1.306  0.8229  0.1024  0.4558
  689MOL0     O90846   6.435   5.942   1.192  0.2926 -0.2646 -0.4249
  689MOL0     C90847   6.360   5.990   1.090  0.6442 -0.2105  0.2772
  689MOL0     C90848   6.240   5.928   1.039 -0.2706  0.2768 -0.7804
  689MOL0     C90849   6.168   5.972   0.924 -0.1799  0.0763 -0.9529
  689MOL0     C90850   6.217   6.084   0.862  0.5677 -0.3485  0.0750
  689MOL0     O90851   6.171   6.134   0.742  0.0684 -0.1468 -0.5515
  689MOL0     C90852   6.074   6.049   0.669 -0.2195 -0.1673 -0.0370
  689MOL0     C90853   6.024   6.124   0.545 -0.9506  0.2588 -0.7472
  689MOL0     C90854   5.903   6.211   0.586  0.1786 -0.4494 -0.3219
  689MOL0     C90855   5.871   6.309   0.474 -0.6460 -0.4531 -0.5952
  689MOL0     C90856   5.767   6.408   0.514 -0.6336 -0.3815 -0.1496
  689MOL0     C90857   5.638   6.342   0.557 -0.0060  0.5745 -0.6738
  689MOL0     C90858   5.529   6.450   0.584 -0.3799 -0.0114 -0.1478
  689MOL0     C90859   5.468   6.511   0.459  0.5544  1.0992 -0.8033
  689MOL0    Cl90860   5.346   6.633   0.508  0.1754 -0.1486  0.3656
  689MOL0     C90861   6.340   6.150   0.910 -0.3571 -0.5610 -0.1934
  689MOL0     C90862   6.410   6.100   1.021  0.3226 -0.4217 -0.6873
  689MOL0     O90863   6.285   5.890   1.354 -0.1119 -0.2918  0.0613
  689MOL0     C90864   6.627   5.808   1.308 -0.3627  0.4723  0.5682
  689MOL0     C90865   6.731   5.732   1.373 -0.2114  0.4068 -0.4087
  689MOL0     N90866   6.841   5.521   2.183  0.8487  1.1567 -0.5999
  689MOL0     N90867   6.839   5.445   2.291  0.2622 -0.2251  0.1620
  689MOL0     C90868   6.711   4.210   2.154 -0.4243  0.9622  0.0982
  689MOL0     C90869   6.603   4.128   2.124  0.3860 -0.3385  0.4819
  689MOL0     C90870   6.294   3.798   2.155 -0.3997 -0.2537 -0.5097
  689MOL0     C90871   6.285   3.663   2.190 -0.6359  0.2678 -1.1376
  689MOL0     C90872   6.177   3.591   2.137  0.0778 -0.0399 -0.3319
  689MOL0     C90873   6.068   3.658   2.067 -0.1563 -0.7757 -0.4811
  689MOL0     O90874   5.958   3.595   2.016 -0.2751 -1.0195 -0.5745
  689MOL0     C90875   5.961   3.457   2.010  0.8863  1.6247 -0.3220
  689MOL0     C90876   5.853   3.402   1.924 -0.7258  0.1395  0.6521
  689MOL0     C90877   5.862   3.477   1.792 -0.2838 -0.6599 -0.2522
  689MOL0     C90878   5.746   3.431   1.700 -0.3444  0.2007  0.5925
  689MOL0     C90879   5.759   3.496   1.564 -0.3884  0.3239 -0.5344
  689MOL0     C90880   5.760   3.537   1.453  0.8879  0.8218  0.8040
  689MOL0     C90881   6.072   3.798   2.067 -0.8550  0.3682  0.2168
  689MOL0     C90882   6.184   3.866   2.106 -0.2921  0.7304  0.0799
  689MOL0     H90883   6.492   4.076   2.450  1.9952 -0.5244  1.0374
  689MOL0     H90884   6.685   4.208   2.496  2.0705 -1.2850 -1.1950
  689MOL0     H90885   6.924   4.285   2.465 -0.5310 -0.4560 -1.2733
  689MOL0     H90886   6.783   4.402   2.495  0.7855  1.4212  2.1742
  689MOL0     H90887   7.046   4.470   2.413  0.1131  0.3756  2.4048
  689MOL0     H90888   6.960   4.507   2.557 -1.3255 -0.5170  0.4524
  689MOL0     H90889   6.792   4.639   2.399 -0.7669 -1.8407 -1.6946
  689MOL0     H90890   6.918   4.616   2.276 -0.4986  0.2768 -0.1577
  689MOL0     H90891   6.970   4.757   2.544 -1.3533  1.0686  0.3679
  689MOL0     H90892   7.081   4.742   2.414 -1.1505  0.0812 -2.0948
  689MOL0     H90893   6.815   4.880   2.419 -0.8517 -1.0128 -0.8857
  689MOL0     H90894   6.910   4.857   2.267 -1.6680 -1.4894  0.2918
  689MOL0     H90895   7.107   4.986   2.410  0.6623 -0.4450 -1.4907
  689MOL0     H90896   6.968   5.021   2.512  1.5706  0.2892 -0.2935
  689MOL0     H90897   7.034   5.105   2.222 -3.3746 -1.1595 -2.9145
  689MOL0     H90898   6.870   5.090   2.271 -0.9764  2.1625  0.6400
  689MOL0     H90899   7.069   5.267   2.424  0.3458 -3.0844  0.1058
  689MOL0     H90900   6.890   5.257   2.454 -0.5477  2.2903 -0.7546
  689MOL0     H90901   7.102   5.331   2.127  1.2676  1.2128 -0.1653
  689MOL0     H90902   7.069   5.589   1.980 -0.0224 -0.6294 -2.6291
  689MOL0     H90903   6.892   5.617   1.966 -1.0346 -0.1339  0.7929
  689MOL0     H90904   6.902   5.359   1.871  0.2600 -0.0292  0.1344
  689MOL0     H90905   7.067   5.392   1.861  0.6683  0.5235  1.1523
  689MOL0     H90906   7.047   5.563   1.686 -0.8365  0.4674 -0.7020
  689MOL0     H90907   6.970   5.408   1.644  0.8239 -0.8537 -0.6763
  689MOL0     H90908   6.815   5.640   1.740 -2.2735 -0.7459  0.0962
  689MOL0     H90909   6.743   5.484   1.687  0.0112 -1.0006 -2.5274
  689MOL0     H90910   6.577   5.654   1.663 -0.1363  0.4139  0.3012
  689MOL0     H90911   6.391   5.755   1.555  0.2229  0.8899  1.7142
  689MOL0     H90912   6.213   5.842   1.099  2.5474 -0.2524 -0.1502
  689MOL0     H90913   6.075   5.923   0.898 -1.8271  0.4943  3.2853
  689MOL0     H90914   5.997   6.019   0.740  0.7501  0.0296  1.1428
  689MOL0     H90915   6.126   5.963   0.625 -0.4535  0.3574 -1.3911
  689MOL0     H90916   5.991   6.045   0.477 -5.5212 -0.2120  1.6551
  689MOL0     H90917   6.099   6.187   0.496 -0.7445  0.4708 -0.1722
  689MOL0     H90918   5.936   6.266   0.675 -0.1230  0.9425 -1.0342
  689MOL0     H90919   5.815   6.150   0.609 -0.5689  0.7779  0.1660
  689MOL0     H90920   5.961   6.360   0.439 -0.6824 -0.3417 -0.5296
  689MOL0     H90921   5.846   6.266   0.377  0.3527  0.2634 -1.1856
  689MOL0     H90922   5.755   6.479   0.432 -4.4674 -1.1295 -0.4041
  689MOL0     H90923   5.819   6.463   0.593 -0.5532  0.4586 -0.7843
  689MOL0     H90924   5.649   6.286   0.650 -0.2959 -0.0033 -0.9831
  689MOL0     H90925   5.605   6.271   0.481 -0.0131 -2.0012  1.5893
  689MOL0     H90926   5.442   6.397   0.623  1.4851 -1.2800  2.4855
  689MOL0     H90927   5.570   6.531   0.645 -0.5170  0.5996 -0.8438
  689MOL0     H90928   5.413   6.425   0.417  0.7654 -0.2303  1.4767
  689MOL0     H90929   5.550   6.554   0.401  0.2203  3.6459  0.5157
  689MOL0     H90930   6.380   6.230   0.849  1.1861  1.9918  3.7248
  689MOL0     H90931   6.505   6.147   1.043 -2.2200  3.3138  4.3207
  689MOL0     H90932   6.657   5.853   1.214 -0.2933 -2.2589 -0.8165
  689MOL0     H90933   6.832   5.732   1.334  0.0744 -0.9446  0.2702
  689MOL0     H90934   6.771   4.237   2.068 -0.4067  0.7488  0.0449
  689MOL0     H90935   6.577   4.092   2.025 -1.2742 -0.8289  1.0618
  689MOL0     H90936   6.367   3.602   2.228 -0.9241  0.6799  0.1812
  689MOL0     H90937   6.178   3.484   2.157 -3.9084  0.0074  0.8972
  689MOL0     H90938   5.941   3.410   2.107 -1.1412 -0.7046 -1.7388
  689MOL0     H90939   6.054   3.420   1.965  0.9951 -0.9992  1.8131
  689MOL0     H90940   5.877   3.296   1.909  1.5802  0.6579  0.3217
  689MOL0     H90941   5.753   3.415   1.966 -0.6571 -2.7375  1.9792
  689MOL0     H90942   5.953   3.450   1.738  0.9746  0.1487  1.3608
  689MOL0     H90943   5.837   3.583   1.806  0.6920 -0.4479 -0.0814
  689MOL0     H90944   5.742   3.322   1.691 -1.2657  0.2445  0.3961
  689MOL0     H90945   5.658   3.454   1.760 -0.1252 -2.9794  2.3622
  689MOL0     H90946   5.755   3.576   1.353 -0.1922 -0.5266  0.3022
  689MOL0     H90947   5.990   3.846   2.015 -1.8411 -0.8688  0.6024
  689MOL0     H90948   6.185   3.974   2.090  0.0029  1.7238  5.1048
  690MOL0     O90949   7.991   0.932  11.007  0.0280 -0.2019  0.3941
  690MOL0     C90950   8.003   0.894  10.890 -0.9384  0.5581 -0.1152
  690MOL0     O90951   7.907   0.833  10.815 -0.0955 -0.0520 -0.0772
  690MOL0     C90952   7.778   0.819  10.843  0.5163 -2.0330 -0.1242
  690MOL0     C90953   7.718   0.734  10.759 -0.2600  0.2211 -0.6351
  690MOL0     C90954   7.584   0.709  10.770  0.4616  0.3305  0.5336
  690MOL0     C90955   7.495   0.771  10.864 -0.8315  0.2343 -0.1329
  690MOL0     O90956   7.364   0.752  10.884 -0.2683  0.2380 -0.0205
  690MOL0     C90957   7.296   0.653  10.803 -0.3954  0.5892 -0.6217
  690MOL0     C90958   7.271   0.712  10.670  0.7098 -0.9772 -1.0411
  690MOL0     C90959   7.158   0.819  10.667  0.2950  0.0177  0.4050
  690MOL0     C90960   7.138   0.860  10.520  0.3935  0.4692  1.0472
  690MOL0     C90961   6.995   0.924  10.523 -0.5365  0.6595 -0.7112
  690MOL0     C90962   6.959   0.962  10.382  0.0765 -0.3405 -0.7381
  690MOL0     C90963   6.816   1.035  10.367 -0.5417 -0.0893 -0.2162
  690MOL0     C90964   6.810   1.182  10.426  0.4669 -0.1560 -1.4083
  690MOL0     N90965   6.778   1.185  10.569  0.7269  1.0905 -0.4670
  690MOL0     C90966   6.677   1.120  10.636  0.0012  1.1514  0.0159
  690MOL0     C90967   6.681   1.165  10.764 -0.2533  0.3786  0.2946
  690MOL0     C90968   6.584   1.143  10.868 -0.2137 -0.6172 -0.2522
  690MOL0     C90969   6.641   1.093  11.003 -0.1074  0.4395 -0.0735
  690MOL0     C90970   6.532   1.077  11.104 -0.0080 -0.6428 -0.0742
  690MOL0     C90971   6.590   1.073  11.242  0.6304  0.0298 -1.0286
  690MOL0     O90972   6.496   1.049  11.351  0.3373  0.2948 -0.3234
  690MOL0     C90973   6.390   1.145  11.369 -0.2496  0.3002 -0.0176
  690MOL0     C90974   6.387   1.271  11.320 -0.2059 -0.1660 -0.9212
  690MOL0     C90975   6.266   1.341  11.307  0.0940  1.1439  0.4974
  690MOL0     C90976   6.148   1.291  11.352 -0.7282  0.4082 -0.1980
  690MOL0     C90977   6.024   1.351  11.314 -0.0767  0.6276  0.1111
  690MOL0     O90978   6.032   1.464  11.242 -0.2442  0.6900 -0.0677
  690MOL0     C90979   5.915   1.504  11.185  0.4198 -0.1332 -0.0399
  690MOL0     C90980   5.841   1.422  11.102 -0.1282  0.4651 -0.2659
  690MOL0     C90981   5.725   1.472  11.038  0.1855  0.0179 -0.2996
  690MOL0     C90982   5.677   1.601  11.059  0.8110 -0.2134 -0.7548
  690MOL0     O90983   5.550   1.634  11.018 -0.1767  0.0907  0.0785
  690MOL0     C90984   5.544   1.625  10.882 -0.1167 -0.2722  0.3136
  690MOL0     C90985   5.404   1.668  10.837 -0.6120 -0.0916 -0.8701
  690MOL0     C90986   5.300   1.558  10.868  0.3528  0.3319  0.2993
  690MOL0     C90987   5.164   1.613  10.824 -0.3412 -0.2104 -0.3738
  690MOL0     C90988   5.062   1.505  10.849 -0.1260 -0.0492 -0.5168
  690MOL0     C90989   4.925   1.555  10.836  0.5167 -0.2918 -0.0256
  690MOL0     C90990   4.818   1.454  10.861 -0.4658  0.2026 -0.3583
  690MOL0     C90991   4.768   1.459  11.005  1.1382  0.3538 -0.3125
  690MOL0    Cl90992   4.630   1.355  11.021  0.6685 -0.2946 -0.0936
  690MOL0     C90993   5.757   1.687  11.140  0.2214 -0.8955 -0.5202
  690MOL0     C90994   5.877   1.638  11.201 -0.5575  0.1650 -0.4871
  690MOL0     O90995   5.920   1.285  11.337 -0.0542  0.4357  0.6653
  690MOL0     C90996   6.148   1.169  11.410 -0.3962 -0.1779  0.1440
  690MOL0     C90997   6.262   1.089  11.412 -0.8230  0.4171  0.1919
  690MOL0     N90998   6.772   1.260  10.779  0.3649 -0.6293 -0.2797
  690MOL0     N90999   6.833   1.269  10.659  0.5177  0.8283 -0.0104
  690MOL0     C91000   7.561   0.858  10.956  0.7766  0.1635  0.9979
  690MOL0     C91001   7.700   0.878  10.945 -1.0069 -0.6920  0.1281
  690MOL0     C91002   8.134   0.911  10.825  0.2333 -0.0067  0.2001
  690MOL0     C91003   8.251   0.943  10.899  0.1197  0.2430 -0.3065
  690MOL0     C91004   8.374   0.952  10.836 -0.0134  0.3768 -0.2797
  690MOL0     C91005   8.396   0.925  10.706  0.9885  0.4157 -0.0201
  690MOL0     O91006   8.518   0.916  10.639  0.3002  0.8448 -0.2499
  690MOL0     C91007   8.639   0.971  10.691 -0.5207 -0.3207  0.9339
  690MOL0     C91008   8.642   1.123  10.714  0.1919  0.1042 -0.4508
  690MOL0     C91009   8.709   1.154  10.846  0.0564  0.6584 -0.5856
  690MOL0     C91010   8.722   1.304  10.891  1.0119 -0.1850 -0.3415
  690MOL0     C91011   8.843   1.368  10.840 -0.1668  0.7798 -0.4772
  690MOL0     C91012   8.952   1.424  10.806  0.3056  0.0665 -0.2844
  690MOL0     C91013   8.280   0.901  10.629 -0.9284  0.8371 -0.8571
  690MOL0     C91014   8.150   0.890  10.691 -0.2893  0.0080  0.3724
  690MOL0     H91015   7.769   0.682  10.679  1.1641 -0.3169  0.5881
  690MOL0     H91016   7.549   0.640  10.694 -0.5637  0.8106  0.5585
  690MOL0     H91017   7.209   0.621  10.862 -0.3230  2.1710  0.3842
  690MOL0     H91018   7.362   0.567  10.786 -1.0119 -0.1071  0.3683
  690MOL0     H91019   7.245   0.621  10.616 -1.1686 -1.4977  0.6382
  690MOL0     H91020   7.366   0.750  10.629  0.8378 -0.2007 -0.0654
  690MOL0     H91021   7.184   0.904  10.730  0.8575 -1.6092  2.5059
  690MOL0     H91022   7.071   0.778  10.719  1.4838 -2.0779  0.8884
  690MOL0     H91023   7.220   0.924  10.487  1.0769 -0.2435  1.3350
  690MOL0     H91024   7.132   0.767  10.461  0.4796  0.0194  1.7349
  690MOL0     H91025   6.997   1.005  10.597  0.8364 -1.8448  2.2173
  690MOL0     H91026   6.920   0.853  10.560  0.4876  0.1375  0.4422
  690MOL0     H91027   6.964   0.871  10.323  2.6588 -2.3032  2.2128
  690MOL0     H91028   7.043   1.025  10.351 -0.8074  0.2748 -1.9908
  690MOL0     H91029   6.786   1.027  10.262 -0.8332 -0.2994 -0.1196
  690MOL0     H91030   6.736   0.980  10.418 -2.6392  1.2431 -1.8650
  690MOL0     H91031   6.731   1.239  10.375  2.6413  0.3329 -4.5720
  690MOL0     H91032   6.905   1.236  10.415  1.3902 -1.5442 -0.5415
  690MOL0     H91033   6.594   1.059  10.601 -0.5717  2.4813 -1.0559
  690MOL0     H91034   6.517   1.060  10.842  0.1019 -1.6127  1.8689
  690MOL0     H91035   6.526   1.235  10.877  1.0857  0.3319 -1.1966
  690MOL0     H91036   6.707   1.171  11.043 -0.5607  0.6904  0.2019
  690MOL0     H91037   6.704   1.004  11.003  2.5804  2.2229 -0.1988
  690MOL0     H91038   6.466   1.165  11.104  0.7826 -0.0404  0.3581
  690MOL0     H91039   6.471   0.989  11.082  0.5565 -0.9910 -0.2488
  690MOL0     H91040   6.628   1.174  11.259  2.1654 -0.5703 -0.7472
  690MOL0     H91041   6.670   0.999  11.245 -0.1435 -0.8050 -0.1580
  690MOL0     H91042   6.479   1.312  11.279  2.0726 -1.0490  2.8020
  690MOL0     H91043   6.271   1.436  11.255  0.9007  0.0655 -1.5031
  690MOL0     H91044   5.871   1.320  11.082  0.6269  0.0084  2.7639
  690MOL0     H91045   5.664   1.400  10.984  1.5683 -0.4084 -1.3297
  690MOL0     H91046   5.556   1.526  10.837 -1.4949 -0.5713  0.5536
  690MOL0     H91047   5.612   1.696  10.832 -2.6320  2.9523  1.0803
  690MOL0     H91048   5.410   1.701  10.733 -0.2789  2.7546 -0.0505
  690MOL0     H91049   5.384   1.759  10.895 -1.9952 -0.6751 -0.4038
  690MOL0     H91050   5.301   1.539  10.975 -0.6111  2.7788  0.8297
  690MOL0     H91051   5.315   1.469  10.807 -2.9475  0.4765 -0.9407
  690MOL0     H91052   5.152   1.704  10.884  2.0835 -1.1809  1.7314
  690MOL0     H91053   5.160   1.651  10.721  5.8953 -0.2094 -1.0358
  690MOL0     H91054   5.082   1.456  10.945  1.9465 -1.8179 -1.7679
  690MOL0     H91055   5.085   1.432  10.771  1.5068  1.0444 -1.1084
  690MOL0     H91056   4.907   1.605  10.740 -0.1351 -2.1823 -0.9443
  690MOL0     H91057   4.908   1.637  10.907 -0.7911 -1.4438  1.0539
  690MOL0     H91058   4.742   1.460  10.783 -0.8676  0.1515  0.0279
  690MOL0     H91059   4.868   1.359  10.845  1.6179  1.5286 -2.2956
  690MOL0     H91060   4.742   1.562  11.031  0.8981  1.1007 -3.1567
  690MOL0     H91061   4.849   1.414  11.062 -1.0372 -0.0163  2.7067
  690MOL0     H91062   5.712   1.783  11.161  1.3991 -0.6611  1.0807
  690MOL0     H91063   5.949   1.708  11.241 -0.0177 -1.8585  2.4602
  690MOL0     H91064   6.055   1.116  11.428 -2.0086  2.4987  0.1831
  690MOL0     H91065   6.245   0.992  11.458 -1.1271  1.6397  2.8329
  690MOL0     H91066   7.488   0.908  11.019 -1.0966 -0.6704 -0.4077
  690MOL0     H91067   7.750   0.942  11.017 -4.3293  2.3655 -0.0073
  690MOL0     H91068   8.236   0.961  11.005 -2.5529 -1.7260 -0.2493
  690MOL0     H91069   8.462   0.982  10.891  0.5258  1.1048 -1.5110
  690MOL0     H91070   8.716   0.965  10.613  1.0121  1.5588  2.2226
  690MOL0     H91071   8.671   0.922  10.783  0.2355 -0.6301  0.5173
  690MOL0     H91072   8.690   1.186  10.638  0.9658  2.0453  1.5561
  690MOL0     H91073   8.541   1.163  10.719  1.3229  3.2228 -0.2457
  690MOL0     H91074   8.813   1.121  10.844  0.5654  2.2029 -1.4021
  690MOL0     H91075   8.646   1.107  10.922 -0.1894 -0.9522 -1.7278
  690MOL0     H91076   8.633   1.364  10.872  2.6431  3.7338  2.7647
  690MOL0     H91077   8.731   1.311  11.000 -0.2176 -3.5175  0.0850
  690MOL0     H91078   9.049   1.466  10.788  0.7569 -0.1617  1.4651
  690MOL0     H91079   8.306   0.862  10.531 -2.5093 -0.7524 -0.6974
  690MOL0     H91080   8.080   0.867  10.611 -0.9012  2.2591  0.1814
  691MOL0     O91081   1.699   1.501   3.020  0.7088  0.4915 -0.2716
  691MOL0     C91082   1.733   1.380   3.036 -0.9801 -0.0640 -0.3576
  691MOL0     O91083   1.651   1.276   3.025  0.4907  1.1016 -0.2339
  691MOL0     C91084   1.535   1.290   2.963  0.6233  0.2563 -0.8044
  691MOL0     C91085   1.501   1.266   2.832  0.6940  0.0614 -0.2524
  691MOL0     C91086   1.380   1.301   2.779 -0.0122 -1.0190  0.0536
  691MOL0     C91087   1.275   1.357   2.860  0.3048 -1.0785  0.0041
  691MOL0     O91088   1.146   1.391   2.810  0.0385 -0.3537 -0.1277
  691MOL0     C91089   1.080   1.290   2.718 -1.1005 -0.5576 -0.5931
  691MOL0     C91090   0.945   1.252   2.773  0.4658 -0.9882 -0.1481
  691MOL0     C91091   0.863   1.387   2.804 -0.7649  0.5305 -0.1197
  691MOL0     C91092   0.721   1.358   2.850  0.4649  0.3283  0.0384
  691MOL0     C91093   0.726   1.287   2.995  0.4922 -0.7979  0.4499
  691MOL0     C91094   0.603   1.202   3.031  0.2202 -0.2909 -0.3956
  691MOL0     C91095   0.478   1.295   3.067  0.6933 -0.5493  0.3333
  691MOL0     C91096   0.355   1.206   3.090 -0.0433 -0.3148 -0.0702
  691MOL0     N91097   0.382   1.101   3.194 -0.1829  0.2004  0.0516
  691MOL0     C91098   0.303   0.986   3.205 -0.0454  0.1310 -0.1411
  691MOL0     C91099   0.329   0.944   3.328  0.0457  0.0871 -0.5469
  691MOL0     C91100   0.255   0.840   3.399  0.2723 -0.4571 -0.1537
  691MOL0     C91101   0.135   0.905   3.469  0.0318  0.0772  0.3796
  691MOL0     C91102   0.176   0.989   3.585 -0.0224 -0.1106 -0.4754
  691MOL0     C91103   0.054   1.059   3.648 -0.7874  0.3866 -0.2657
  691MOL0     O91104   0.011   1.149   3.553  0.3164  0.4899 -0.4246
  691MOL0     C91105  -0.124   1.169   3.540 -0.5590  1.3526 -0.2233
  691MOL0     C91106  -0.184   1.128   3.424 -0.3122  0.1856 -0.4803
  691MOL0     C91107  -0.320   1.144   3.410  0.0162  0.2741  0.2201
  691MOL0     C91108  -0.397   1.189   3.517  0.7014  1.1713  0.5547
  691MOL0     C91109  -0.541   1.210   3.504 -0.0470 -0.2361  0.0707
  691MOL0     O91110  -0.608   1.285   3.600 -0.5749  0.1938  0.3804
  691MOL0     C91111  -0.744   1.312   3.595 -0.6381 -1.2329 -0.1606
  691MOL0     C91112  -0.809   1.401   3.498  0.3093 -0.7031 -0.2537
  691MOL0     C91113  -0.941   1.417   3.507 -0.4127 -0.4029  0.1297
  691MOL0     C91114  -1.029   1.355   3.597 -0.8531 -0.7601  0.0510
  691MOL0     O91115  -1.160   1.369   3.593  0.0217 -0.0838  0.0693
  691MOL0     C91116  -1.228   1.378   3.716  0.1836 -0.2455 -0.9998
  691MOL0     C91117  -1.377   1.428   3.698 -0.3369 -0.0995 -0.0458
  691MOL0     C91118  -1.450   1.320   3.617 -0.8333 -0.5596 -0.2973
  691MOL0     C91119  -1.595   1.365   3.591 -0.5509  0.0391  0.7474
  691MOL0     C91120  -1.655   1.266   3.490 -0.1633 -0.0634  0.5367
  691MOL0     C91121  -1.800   1.302   3.436 -0.5655  0.2256 -0.2519
  691MOL0     C91122  -1.857   1.173   3.369  0.1777 -0.8185  0.5542
  691MOL0     C91123  -1.963   1.202   3.265  0.5377  1.2780  0.7195
  691MOL0    Cl91124  -2.104   1.280   3.334  0.2075 -0.1454  0.0006
  691MOL0     C91125  -0.957   1.283   3.700  0.5946  0.5156  0.4395
  691MOL0     C91126  -0.818   1.260   3.687  0.0366  0.2827 -1.0377
  691MOL0     O91127  -0.591   1.165   3.397 -0.0458  0.5085  0.9402
  691MOL0     C91128  -0.332   1.225   3.634  1.2940  0.2573 -1.1220
  691MOL0     C91129  -0.199   1.225   3.642 -0.2984 -0.2985  0.1485
  691MOL0     N91130   0.430   1.027   3.382  1.5720 -0.5291  0.2306
  691MOL0     N91131   0.460   1.110   3.299 -1.0052  1.0294 -0.3073
  691MOL0     C91132   1.305   1.390   2.991  0.1540  0.6544 -0.1597
  691MOL0     C91133   1.429   1.352   3.040  0.1805 -0.6769 -0.8409
  691MOL0     C91134   1.875   1.358   3.074 -0.6074 -0.3205 -0.7974
  691MOL0     C91135   1.910   1.233   3.147 -0.3435  0.0488 -0.3288
  691MOL0     C91136   2.042   1.211   3.175  0.4384  0.3043 -0.9522
  691MOL0     C91137   2.140   1.300   3.130 -0.3742 -0.0275 -0.7650
  691MOL0     O91138   2.279   1.281   3.158  0.1394  0.0167 -0.5645
  691MOL0     C91139   2.324   1.158   3.208 -0.5242  0.4588  0.3953
  691MOL0     C91140   2.456   1.138   3.127  0.2014  0.5468  0.1044
  691MOL0     C91141   2.566   1.225   3.184 -0.1162  0.1539  1.1848
  691MOL0     C91142   2.703   1.199   3.109  0.8958 -0.9296  0.1853
  691MOL0     C91143   2.731   1.057   3.111 -0.6565  0.7082  0.0335
  691MOL0     C91144   2.757   0.939   3.106  0.4825 -0.0106  0.0854
  691MOL0     C91145   2.099   1.410   3.054  0.8632  0.0687  0.0361
  691MOL0     C91146   1.976   1.441   3.027  0.9058  0.1222  0.6241
  691MOL0     H91147   1.583   1.230   2.769  3.2575 -2.8177  4.1836
  691MOL0     H91148   1.369   1.281   2.673  0.5066  2.9764 -0.9164
  691MOL0     H91149   1.126   1.193   2.700 -1.3766 -1.2529  2.0478
  691MOL0     H91150   1.072   1.334   2.618  1.2808  0.2310 -0.4951
  691MOL0     H91151   0.961   1.192   2.863  0.6551 -3.4452 -1.7289
  691MOL0     H91152   0.887   1.192   2.702 -0.1635 -2.2394  1.3533
  691MOL0     H91153   0.859   1.446   2.712 -1.0810  2.6382  1.1816
  691MOL0     H91154   0.918   1.446   2.878  1.2135  0.3904 -1.3936
  691MOL0     H91155   0.651   1.442   2.850  0.4722  0.3786  1.7346
  691MOL0     H91156   0.666   1.286   2.789  0.4708  2.7509 -3.0441
  691MOL0     H91157   0.743   1.376   3.056 -0.2235  1.3898 -2.2994
  691MOL0     H91158   0.814   1.221   2.990  2.8978  2.2434 -2.7624
  691MOL0     H91159   0.633   1.130   3.108 -1.8238  1.2210  1.9813
  691MOL0     H91160   0.570   1.150   2.941 -2.6974  0.0341  0.3676
  691MOL0     H91161   0.502   1.350   3.159 -1.5365  2.2278 -0.6153
  691MOL0     H91162   0.454   1.370   2.992 -2.4659 -1.7473 -0.0020
  691MOL0     H91163   0.324   1.160   2.995 -2.2445 -1.0652  0.9481
  691MOL0     H91164   0.272   1.263   3.133  0.4672 -0.7732  1.6048
  691MOL0     H91165   0.229   0.941   3.140 -0.8420  0.1032  0.7828
  691MOL0     H91166   0.319   0.797   3.476  0.2287 -0.1795  0.0395
  691MOL0     H91167   0.224   0.758   3.333  0.6435  0.9371 -2.1600
  691MOL0     H91168   0.078   0.822   3.511  1.5325 -1.2202 -0.0345
  691MOL0     H91169   0.081   0.968   3.398  0.0534  0.0546  0.3427
  691MOL0     H91170   0.215   0.928   3.667  1.7787  1.0278 -0.4510
  691MOL0     H91171   0.250   1.068   3.576  1.4539 -0.7636  3.7697
  691MOL0     H91172   0.082   1.120   3.734 -0.0873  0.8696 -0.8302
  691MOL0     H91173  -0.029   0.991   3.673 -0.7236  0.1680 -0.6431
  691MOL0     H91174  -0.116   1.085   3.350  2.9060  0.6047  1.9977
  691MOL0     H91175  -0.351   1.097   3.317 -1.5729 -0.9462  1.2960
  691MOL0     H91176  -0.748   1.457   3.427  0.3740  0.2302  0.5138
  691MOL0     H91177  -0.988   1.487   3.438 -1.2013 -2.7278 -1.8399
  691MOL0     H91178  -1.182   1.461   3.770 -2.2429  1.8438 -1.9496
  691MOL0     H91179  -1.228   1.286   3.775  0.6074  0.4538  0.1149
  691MOL0     H91180  -1.372   1.509   3.624  0.4896  0.7443  0.9099
  691MOL0     H91181  -1.430   1.453   3.790  0.7388  0.6382  0.3929
  691MOL0     H91182  -1.440   1.223   3.667 -0.9716 -0.3678  0.1083
  691MOL0     H91183  -1.394   1.300   3.525 -0.3691 -1.7337  0.2252
  691MOL0     H91184  -1.659   1.381   3.677 -3.0826 -1.5055 -0.7212
  691MOL0     H91185  -1.593   1.453   3.526  2.3575 -1.4527 -1.4884
  691MOL0     H91186  -1.658   1.168   3.538  0.4435  0.8253  2.4451
  691MOL0     H91187  -1.596   1.263   3.398 -0.7090  2.3366  0.0422
  691MOL0     H91188  -1.801   1.390   3.369  0.5705 -0.2618 -0.9376
  691MOL0     H91189  -1.864   1.323   3.522 -0.9069 -0.1368 -0.4145
  691MOL0     H91190  -1.780   1.127   3.306 -1.5660 -0.4358 -2.0498
  691MOL0     H91191  -1.895   1.107   3.448  0.3036 -1.2106  0.2914
  691MOL0     H91192  -1.990   1.105   3.220 -0.0114  3.0239 -3.1171
  691MOL0     H91193  -1.933   1.262   3.179 -2.9881 -1.0411 -2.4340
  691MOL0     H91194  -1.009   1.236   3.782 -0.1243 -0.2370 -0.4342
  691MOL0     H91195  -0.768   1.196   3.759  0.0113 -2.1566 -3.0747
  691MOL0     H91196  -0.390   1.274   3.711  1.0617 -1.0603 -0.4323
  691MOL0     H91197  -0.148   1.263   3.730 -2.3713  2.8391  0.1549
  691MOL0     H91198   1.237   1.447   3.054 -0.1604 -1.8244  1.8930
  691MOL0     H91199   1.431   1.382   3.145 -1.0789 -0.5787 -0.8319
  691MOL0     H91200   1.847   1.152   3.182  0.0346  0.3528  1.1383
  691MOL0     H91201   2.066   1.115   3.219 -0.5177  0.9560  1.1139
  691MOL0     H91202   2.262   1.073   3.178 -0.9368  1.0813 -0.5741
  691MOL0     H91203   2.353   1.156   3.313 -1.7085  1.4467  0.7669
  691MOL0     H91204   2.478   1.031   3.136  1.8816  1.0558  3.5549
  691MOL0     H91205   2.435   1.162   3.022 -0.3101 -0.5738 -0.0696
  691MOL0     H91206   2.573   1.201   3.291  0.6232  0.5076  1.2164
  691MOL0     H91207   2.537   1.330   3.172 -0.0899  0.1564  1.1430
  691MOL0     H91208   2.682   1.242   3.011  0.5376  0.1971  0.7440
  691MOL0     H91209   2.792   1.248   3.150  0.7267  0.0116 -0.5583
  691MOL0     H91210   2.765   0.834   3.084  1.3256  0.7364 -4.0228
  691MOL0     H91211   2.177   1.471   3.010  2.5734 -2.9417 -1.4328
  691MOL0     H91212   1.947   1.529   2.972 -2.3661 -1.8910 -1.2383
  692MOL0     O91213   0.850   0.944   1.340  0.0165  0.2949 -0.5831
  692MOL0     C91214   0.814   0.897   1.448  0.2144 -0.7885  0.5854
  692MOL0     O91215   0.891   0.855   1.546 -0.4036  0.0386 -0.1343
  692MOL0     C91216   1.017   0.891   1.539 -0.0764 -0.2584  0.2579
  692MOL0     C91217   1.057   1.017   1.581 -0.1121 -0.6538 -0.6504
  692MOL0     C91218   1.189   1.064   1.555  0.7960 -0.3104  0.6177
  692MOL0     C91219   1.280   0.987   1.481 -0.1014 -0.3844  0.4402
  692MOL0     O91220   1.403   1.033   1.426  0.4585 -0.0386  0.5438
  692MOL0     C91221   1.460   1.156   1.457 -0.5152 -0.5809 -0.0345
  692MOL0     C91222   1.528   1.162   1.598 -1.2068  0.0946 -0.4867
  692MOL0     C91223   1.576   1.296   1.651 -0.2333 -1.0215  0.5419
  692MOL0     C91224   1.468   1.381   1.712  0.2253 -0.3432 -0.0205
  692MOL0     C91225   1.513   1.466   1.833 -1.1056 -0.1371 -0.6585
  692MOL0     C91226   1.427   1.589   1.851 -0.0493 -0.1274  0.2035
  692MOL0     C91227   1.274   1.549   1.869  0.1955 -0.6301  0.2553
  692MOL0     C91228   1.202   1.673   1.923 -0.6367 -0.4133  0.3070
  692MOL0     N91229   1.059   1.654   1.925  0.2516  0.0083  0.3956
  692MOL0     C91230   0.976   1.593   1.837 -1.1079  0.3020 -0.2098
  692MOL0     C91231   0.852   1.586   1.891 -0.6310 -0.3254  0.1285
  692MOL0     C91232   0.724   1.506   1.857  0.7575 -1.3101 -0.3236
  692MOL0     C91233   0.632   1.598   1.774  0.6602 -0.2165  0.5537
  692MOL0     C91234   0.504   1.529   1.706 -0.4121 -0.5343 -0.1959
  692MOL0     C91235   0.372   1.522   1.786 -0.6637 -0.8905 -0.1079
  692MOL0     O91236   0.348   1.658   1.843 -0.3439  0.5120  0.1683
  692MOL0     C91237   0.220   1.716   1.837 -0.0075  0.6345  2.1720
  692MOL0     C91238   0.125   1.657   1.907  0.3304  0.1209 -0.6777
  692MOL0     C91239  -0.010   1.698   1.893  0.0849 -0.0410 -0.2060
  692MOL0     C91240  -0.045   1.788   1.786  0.7377  0.3101 -0.4098
  692MOL0     C91241  -0.189   1.810   1.764  0.1346 -0.1893 -0.2499
  692MOL0     O91242  -0.276   1.785   1.867 -1.2248 -0.4507  0.0807
  692MOL0     C91243  -0.406   1.823   1.856 -0.2118 -0.7890 -0.4337
  692MOL0     C91244  -0.498   1.739   1.917 -0.6260  0.9122  0.8376
  692MOL0     C91245  -0.636   1.769   1.927  0.1356  0.0080  0.9021
  692MOL0     C91246  -0.677   1.895   1.864 -0.5979 -0.6343 -1.3433
  692MOL0     O91247  -0.809   1.920   1.869  0.5021 -0.4435  0.3050
  692MOL0     C91248  -0.888   1.924   1.746 -0.7749 -0.0256 -0.3641
  692MOL0     C91249  -1.039   1.906   1.780  0.8367 -0.1152 -0.5521
  692MOL0     C91250  -1.099   2.033   1.851  0.4852  0.1756  0.4796
  692MOL0     C91251  -1.248   2.036   1.856  0.1866  0.0502  2.0413
  692MOL0     C91252  -1.317   1.927   1.923  0.5842  0.7793 -0.1363
  692MOL0     C91253  -1.454   1.967   1.990 -0.2395  0.1829  0.0823
  692MOL0     C91254  -1.523   1.837   2.034 -0.0042 -0.1743 -0.6506
  692MOL0     C91255  -1.681   1.851   2.060 -1.1819 -1.6490  0.2028
  692MOL0    Cl91256  -1.705   1.874   2.236  0.5405 -0.5242 -0.1337
  692MOL0     C91257  -0.589   1.981   1.805  0.5579 -0.1773 -0.3289
  692MOL0     C91258  -0.448   1.949   1.811 -0.1996  0.1888 -0.1273
  692MOL0     O91259  -0.229   1.845   1.649 -0.3999  0.5376  0.1766
  692MOL0     C91260   0.052   1.843   1.705 -0.1233 -0.4877 -0.5746
  692MOL0     C91261   0.190   1.811   1.738 -0.3407 -0.8100  0.2337
  692MOL0     N91262   0.862   1.665   2.011  0.6889 -0.3710  0.6807
  692MOL0     N91263   0.982   1.713   2.027 -0.4033  0.0876  0.0495
  692MOL0     C91264   1.242   0.862   1.441  0.5247  0.0693  0.0379
  692MOL0     C91265   1.111   0.813   1.468  0.4689  0.4048  0.5239
  692MOL0     C91266   0.666   0.867   1.454 -0.5823  0.0230  0.7111
  692MOL0     C91267   0.576   0.890   1.347 -0.6389  1.0716 -0.2184
  692MOL0     C91268   0.445   0.841   1.348 -0.2569  0.1330 -0.2260
  692MOL0     C91269   0.391   0.785   1.463 -0.0575  0.1820 -1.0021
  692MOL0     O91270   0.255   0.747   1.479 -1.0753 -0.4147  0.7118
  692MOL0     C91271   0.173   0.832   1.403  0.5607  0.0858 -0.6091
  692MOL0     C91272   0.032   0.808   1.452 -0.2147  0.3728  0.1209
  692MOL0     C91273  -0.011   0.889   1.569  0.6669 -0.1767 -0.3076
  692MOL0     C91274   0.078   0.865   1.687  0.4671 -0.3982 -1.1470
  692MOL0     C91275   0.003   0.880   1.819 -0.5153 -1.4919 -0.0009
  692MOL0     C91276  -0.044   0.900   1.930 -0.3702  0.5086 -0.3992
  692MOL0     C91277   0.474   0.773   1.581 -0.2537  0.0958 -0.1144
  692MOL0     C91278   0.612   0.810   1.570 -0.2559 -0.5346  0.1011
  692MOL0     H91279   0.998   1.090   1.636  0.7229  1.3137 -2.2378
  692MOL0     H91280   1.210   1.166   1.585  1.3713  0.7916 -3.0081
  692MOL0     H91281   1.383   1.233   1.454  2.8343  3.1501  1.3746
  692MOL0     H91282   1.539   1.172   1.383  1.8639 -0.0555  2.4473
  692MOL0     H91283   1.621   1.104   1.598 -0.1583  1.7274  0.3318
  692MOL0     H91284   1.470   1.115   1.678 -2.4455  3.3396  0.6883
  692MOL0     H91285   1.634   1.348   1.574 -1.1934 -0.8544 -0.0846
  692MOL0     H91286   1.648   1.268   1.729  1.6801 -0.6924 -1.0433
  692MOL0     H91287   1.442   1.445   1.628  0.8537 -0.7281 -0.5156
  692MOL0     H91288   1.373   1.333   1.738 -1.3220  3.7662  3.0333
  692MOL0     H91289   1.621   1.486   1.829 -0.7429 -1.9625 -1.1634
  692MOL0     H91290   1.510   1.416   1.930 -2.0577 -0.6005 -0.9117
  692MOL0     H91291   1.442   1.667   1.776  1.0787  0.7585  1.3061
  692MOL0     H91292   1.457   1.630   1.948  2.6464 -0.5518 -0.3840
  692MOL0     H91293   1.243   1.510   1.771  4.6120  0.4145 -1.8407
  692MOL0     H91294   1.248   1.476   1.946 -1.3343 -1.4518 -0.9892
  692MOL0     H91295   1.229   1.757   1.858 -1.5544 -0.9526 -0.7990
  692MOL0     H91296   1.241   1.700   2.022 -1.2074  2.6309 -0.1930
  692MOL0     H91297   1.011   1.536   1.752  0.2761  0.9813 -0.1274
  692MOL0     H91298   0.670   1.475   1.948 -2.8058  0.6818 -1.5467
  692MOL0     H91299   0.745   1.416   1.798  0.1322 -2.5885  1.2964
  692MOL0     H91300   0.694   1.650   1.701 -0.7739  0.5688 -0.1498
  692MOL0     H91301   0.597   1.680   1.838  0.6919  0.4010 -0.2034
  692MOL0     H91302   0.472   1.582   1.617  0.5155  2.4978  1.1517
  692MOL0     H91303   0.526   1.426   1.677 -1.1152 -0.3097 -1.5688
  692MOL0     H91304   0.379   1.458   1.874 -0.1787  1.3778  1.6177
  692MOL0     H91305   0.281   1.497   1.730  0.2198 -2.7432 -0.7913
  692MOL0     H91306   0.144   1.577   1.977 -1.2857  0.8167  0.6045
  692MOL0     H91307  -0.083   1.659   1.963  2.2824 -0.2498  2.0886
  692MOL0     H91308  -0.455   1.650   1.962  0.7345  1.1682  0.0911
  692MOL0     H91309  -0.711   1.716   1.984 -0.8232  1.1181  0.7189
  692MOL0     H91310  -0.868   1.831   1.692  2.8410 -2.0959  3.8178
  692MOL0     H91311  -0.860   2.017   1.695 -1.3456  1.0583  1.2053
  692MOL0     H91312  -1.046   1.819   1.845 -0.9324  0.6720  0.3969
  692MOL0     H91313  -1.090   1.899   1.683 -1.4397 -0.0205  0.5647
  692MOL0     H91314  -1.072   2.128   1.804 -2.9744  1.2155  0.3030
  692MOL0     H91315  -1.066   2.040   1.956  3.1008  1.1298 -0.3130
  692MOL0     H91316  -1.264   2.136   1.897  1.2490  0.2799  1.9211
  692MOL0     H91317  -1.274   2.033   1.749  4.4424  4.4304  0.5088
  692MOL0     H91318  -1.254   1.898   2.008 -0.5389  2.8606  1.4951
  692MOL0     H91319  -1.332   1.836   1.864 -1.3404  1.5925 -0.9598
  692MOL0     H91320  -1.513   2.012   1.909  1.2511 -1.9812 -2.3329
  692MOL0     H91321  -1.449   2.051   2.060  0.4272  1.5527 -1.5407
  692MOL0     H91322  -1.502   1.752   1.968  0.0343 -1.2276  0.6795
  692MOL0     H91323  -1.470   1.822   2.128 -2.4689  1.1614  1.0809
  692MOL0     H91324  -1.727   1.758   2.025 -1.9311 -0.8176 -1.0505
  692MOL0     H91325  -1.726   1.924   1.992  3.0590 -0.0469 -1.2195
  692MOL0     H91326  -0.619   2.076   1.762 -1.3720  0.2369  1.7179
  692MOL0     H91327  -0.376   2.026   1.787 -0.8556  0.5339 -1.0921
  692MOL0     H91328   0.018   1.905   1.622 -0.3761 -0.9875 -0.8460
  692MOL0     H91329   0.278   1.845   1.685  0.9517 -0.8296  2.2472
  692MOL0     H91330   1.319   0.799   1.400 -0.0187  0.8333 -2.2783
  692MOL0     H91331   1.100   0.710   1.435 -1.1884  1.6514 -3.4206
  692MOL0     H91332   0.606   0.921   1.247  0.5453 -2.0478 -0.9360
  692MOL0     H91333   0.391   0.853   1.255  0.2752  2.6468 -0.2801
  692MOL0     H91334   0.183   0.806   1.297  3.1317  1.2962 -0.7575
  692MOL0     H91335   0.201   0.937   1.418 -2.5223  0.6167  3.1517
  692MOL0     H91336  -0.039   0.812   1.369 -2.1917 -1.9871  1.5439
  692MOL0     H91337   0.023   0.705   1.487 -2.5888  0.2435 -0.6760
  692MOL0     H91338  -0.118   0.874   1.590 -0.0054  2.3915 -1.4628
  692MOL0     H91339  -0.016   0.995   1.544  2.1515  0.1136  0.5063
  692MOL0     H91340   0.101   0.759   1.674  2.4870 -0.0818 -0.4112
  692MOL0     H91341   0.168   0.925   1.676  1.3252 -1.1218  1.1323
  692MOL0     H91342  -0.087   0.923   2.025 -1.6742 -2.3222 -0.2114
  692MOL0     H91343   0.419   0.725   1.661 -0.0823 -1.8885 -1.1088
  692MOL0     H91344   0.681   0.793   1.652  1.0743 -1.3051 -1.1304
  693MOL0     O91345   1.667   9.632   9.539  0.4451 -0.7501  0.5715
  693MOL0     C91346   1.698   9.565   9.634  0.0578  0.0239  0.5203
  693MOL0     O91347   1.613   9.484   9.697  0.5748  0.0457 -0.3200
  693MOL0     C91348   1.493   9.452   9.642  0.3160  0.5194  0.2727
  693MOL0     C91349   1.454   9.456   9.504  0.2974  0.6695 -1.3242
  693MOL0     C91350   1.324   9.417   9.466  0.0970  0.0450  0.3591
  693MOL0     C91351   1.231   9.369   9.564  0.5072 -0.2841 -0.4752
  693MOL0     O91352   1.105   9.312   9.545 -0.1503 -0.3711  0.2226
  693MOL0     C91353   1.048   9.298   9.413 -0.1724  0.6550 -0.8445
  693MOL0     C91354   0.957   9.413   9.376  0.3318 -0.0732 -0.6088
  693MOL0     C91355   0.850   9.431   9.494 -0.3995 -0.3891  0.0223
  693MOL0     C91356   0.727   9.503   9.444  0.4122  0.0671 -1.0831
  693MOL0     C91357   0.622   9.476   9.555  1.1171 -0.5223 -0.2262
  693MOL0     C91358   0.517   9.592   9.544 -0.5117 -0.6777 -0.9120
  693MOL0     C91359   0.406   9.565   9.449  0.4239 -0.2852 -1.1807
  693MOL0     C91360   0.428   9.568   9.304 -0.1595  0.7075 -0.0435
  693MOL0     N91361   0.309   9.540   9.219 -0.4169 -0.7176  0.0942
  693MOL0     C91362   0.248   9.419   9.213 -0.8636 -0.2780  0.2356
  693MOL0     C91363   0.124   9.450   9.159  0.0302 -1.2867  0.1134
  693MOL0     C91364   0.001   9.373   9.133 -0.9044 -0.5885 -0.2264
  693MOL0     C91365   0.046   9.240   9.072 -0.2987 -0.4623 -0.0336
  693MOL0     C91366   0.132   9.240   8.949  0.7526 -0.3324  0.5501
  693MOL0     C91367   0.140   9.089   8.892 -0.0967  0.5937 -0.9562
  693MOL0     O91368   0.219   9.079   8.764  0.2341  0.0246  0.3435
  693MOL0     C91369   0.152   9.081   8.649  1.3517 -0.4807  0.1546
  693MOL0     C91370   0.206   9.009   8.540 -0.4728 -0.4083  0.9354
  693MOL0     C91371   0.146   9.007   8.412 -0.0077 -0.1740 -0.5153
  693MOL0     C91372   0.025   9.073   8.392  0.1389 -0.6724 -0.1920
  693MOL0     C91373  -0.044   9.085   8.264 -0.0231 -0.1635  0.6790
  693MOL0     O91374  -0.141   9.181   8.257  0.0260  0.0679 -0.0587
  693MOL0     C91375  -0.212   9.204   8.139  0.5101 -0.2622 -0.3346
  693MOL0     C91376  -0.335   9.257   8.151 -0.0645 -0.0608  0.9065
  693MOL0     C91377  -0.422   9.280   8.036 -0.8970  0.2379 -0.3678
  693MOL0     C91378  -0.363   9.264   7.906  0.4029 -0.7715 -0.0461
  693MOL0     O91379  -0.432   9.288   7.796 -0.4287  0.4217  0.5445
  693MOL0     C91380  -0.520   9.401   7.780 -0.4039  0.3169 -1.0944
  693MOL0     C91381  -0.599   9.367   7.662  0.1646  0.0091 -0.8591
  693MOL0     C91382  -0.687   9.244   7.674 -0.1150  0.6030 -0.1378
  693MOL0     C91383  -0.767   9.230   7.549 -0.5332  0.4609 -0.0803
  693MOL0     C91384  -0.858   9.106   7.550  0.3144  0.2879  0.1872
  693MOL0     C91385  -0.958   9.112   7.437  0.2502 -0.1092  0.0631
  693MOL0     C91386  -1.044   8.988   7.419 -0.5235  0.2634  0.4672
  693MOL0     C91387  -1.151   9.004   7.306 -0.4612 -0.4124  0.2213
  693MOL0    Cl91388  -1.307   9.101   7.339  0.0924 -0.3476 -0.3711
  693MOL0     C91389  -0.230   9.220   7.889 -0.2444 -0.2647 -0.9495
  693MOL0     C91390  -0.162   9.180   8.003  0.2195  0.4884 -0.3899
  693MOL0     O91391  -0.013   9.006   8.174 -0.2939 -0.2134  0.6136
  693MOL0     C91392  -0.033   9.139   8.507  0.4337 -0.2341  0.4393
  693MOL0     C91393   0.023   9.141   8.632  0.1648 -0.2930  0.4359
  693MOL0     N91394   0.126   9.584   9.124 -0.6140  0.7284  0.3481
  693MOL0     N91395   0.238   9.632   9.167  0.1471 -0.5242 -0.0031
  693MOL0     C91396   1.270   9.370   9.703 -0.9989  0.0816  0.3083
  693MOL0     C91397   1.398   9.406   9.736 -0.0782 -0.1520 -0.5133
  693MOL0     C91398   1.843   9.571   9.682  0.5204  0.0155 -0.1842
  693MOL0     C91399   1.948   9.627   9.601 -0.5604 -0.3622  0.6872
  693MOL0     C91400   2.078   9.621   9.649  0.6551  0.1961  0.3006
  693MOL0     C91401   2.111   9.556   9.770  0.2276  0.6423  0.8563
  693MOL0     O91402   2.238   9.573   9.813  0.2802 -0.3749 -0.0902
  693MOL0     C91403   2.348   9.638   9.747 -0.3918  0.1277  0.2919
  693MOL0     C91404   2.460   9.587   9.834  0.0387  0.3254 -0.7652
  693MOL0     C91405   2.603   9.635   9.786 -0.6496 -0.3251 -0.0459
  693MOL0     C91406   2.708   9.584   9.880 -0.3288  0.6979  0.5721
  693MOL0     C91407   2.677   9.601  10.023 -0.2163 -0.1772 -0.5756
  693MOL0     C91408   2.652   9.620  10.142  1.0262 -0.2786  1.0182
  693MOL0     C91409   2.013   9.495   9.845 -0.2668 -1.1871 -0.2493
  693MOL0     C91410   1.879   9.498   9.797 -0.0840 -0.1428 -0.7645
  693MOL0     H91411   1.529   9.465   9.426  0.8157  0.3101 -0.8860
  693MOL0     H91412   1.300   9.417   9.360  1.7610  0.6982 -0.0373
  693MOL0     H91413   0.991   9.204   9.410  1.4433 -0.3545 -1.6792
  693MOL0     H91414   1.129   9.285   9.341  0.5899  0.1515  0.0756
  693MOL0     H91415   0.910   9.409   9.277  0.8173 -1.6372 -0.8017
  693MOL0     H91416   1.014   9.507   9.379 -2.1608  1.5192  0.3856
  693MOL0     H91417   0.890   9.486   9.579 -0.0389  0.5368 -0.7268
  693MOL0     H91418   0.831   9.333   9.539  0.7587 -1.3836 -1.5306
  693MOL0     H91419   0.741   9.609   9.419 -1.0701  0.2001 -1.4129
  693MOL0     H91420   0.685   9.457   9.354 -1.8674 -0.4045  0.1556
  693MOL0     H91421   0.672   9.493   9.650  1.1976  3.2226 -0.7954
  693MOL0     H91422   0.582   9.374   9.563  0.6302 -0.3109  0.1033
  693MOL0     H91423   0.564   9.685   9.510 -1.2818 -0.4154 -1.2838
  693MOL0     H91424   0.483   9.608   9.647 -0.0047 -2.6949 -0.3880
  693MOL0     H91425   0.371   9.464   9.471 -0.3758 -0.0215 -1.2010
  693MOL0     H91426   0.324   9.635   9.463  0.5995 -0.5416  1.8109
  693MOL0     H91427   0.494   9.485   9.278 -0.3652  0.4694  0.1965
  693MOL0     H91428   0.474   9.659   9.265 -1.6214 -0.1288 -4.2633
  693MOL0     H91429   0.282   9.322   9.247  0.1373 -0.1452 -0.3490
  693MOL0     H91430  -0.067   9.415   9.059 -0.0579  2.7517  0.6983
  693MOL0     H91431  -0.059   9.350   9.221 -2.7093 -0.7359 -1.4360
  693MOL0     H91432  -0.046   9.186   9.046  0.7609 -3.2752  1.6283
  693MOL0     H91433   0.086   9.179   9.154  1.5947 -1.3495 -1.5464
  693MOL0     H91434   0.074   9.284   8.867 -1.0582 -1.4212  1.1803
  693MOL0     H91435   0.236   9.271   8.964  1.6176 -3.6843  2.6672
  693MOL0     H91436   0.038   9.052   8.877 -0.0520 -1.9637  3.3427
  693MOL0     H91437   0.184   9.027   8.971 -1.6035 -1.4426 -1.6415
  693MOL0     H91438   0.303   8.961   8.550  0.4114  0.6433 -1.7069
  693MOL0     H91439   0.188   8.955   8.327  2.9750 -0.0589  0.7782
  693MOL0     H91440  -0.389   9.273   8.244 -1.2569 -1.5398  0.5072
  693MOL0     H91441  -0.525   9.306   8.059 -0.1397  1.7144  1.6372
  693MOL0     H91442  -0.461   9.492   7.765 -1.8220  1.1581 -1.6889
  693MOL0     H91443  -0.581   9.415   7.869 -0.4972 -0.9391 -0.9415
  693MOL0     H91444  -0.525   9.351   7.583  0.9372 -0.3374 -0.0822
  693MOL0     H91445  -0.671   9.445   7.634 -3.1672 -2.3706  0.3233
  693MOL0     H91446  -0.753   9.249   7.761 -2.0407 -0.1690 -1.4951
  693MOL0     H91447  -0.632   9.150   7.687 -0.3511 -0.0773 -3.1976
  693MOL0     H91448  -0.820   9.320   7.514  1.2287  0.9961 -1.5083
  693MOL0     H91449  -0.694   9.231   7.468  0.9207  5.4293  0.9238
  693MOL0     H91450  -0.898   9.097   7.651 -0.9465  0.9651 -0.2277
  693MOL0     H91451  -0.788   9.026   7.523  0.0296  1.0711 -3.4770
  693MOL0     H91452  -0.909   9.126   7.340 -0.4897 -3.1957 -0.8601
  693MOL0     H91453  -1.030   9.192   7.456 -0.6435 -0.9858  0.4878
  693MOL0     H91454  -0.974   8.907   7.397  0.7500  1.4399  0.0333
  693MOL0     H91455  -1.088   8.964   7.517  1.9105  2.3040  2.1988
  693MOL0     H91456  -1.188   8.903   7.285 -2.2901  0.2924 -0.1489
  693MOL0     H91457  -1.099   9.041   7.217 -0.6399 -0.1689  0.2190
  693MOL0     H91458  -0.200   9.202   7.786  1.3596 -1.8689 -0.2505
  693MOL0     H91459  -0.065   9.134   7.991 -0.5274 -1.9474  1.8107
  693MOL0     H91460  -0.113   9.210   8.491  0.3927 -1.0862 -5.4547
  693MOL0     H91461  -0.025   9.204   8.706 -0.9063 -1.1204  0.4800
  693MOL0     H91462   1.197   9.330   9.772  0.4530 -0.6124  1.5215
  693MOL0     H91463   1.409   9.388   9.842  2.2000  1.2565 -0.4549
  693MOL0     H91464   1.932   9.674   9.504 -0.0415 -2.5779 -0.5497
  693MOL0     H91465   2.152   9.689   9.606 -0.8192  1.8766  0.3165
  693MOL0     H91466   2.342   9.747   9.758  1.1742  0.6196 -2.6117
  693MOL0     H91467   2.352   9.605   9.642  0.9201  2.8389 -0.6102
  693MOL0     H91468   2.443   9.635   9.931 -1.1015 -1.2124 -0.1543
  693MOL0     H91469   2.447   9.479   9.839  0.6196  0.2870  3.2900
  693MOL0     H91470   2.610   9.744   9.793 -3.2800 -0.0895  0.0888
  693MOL0     H91471   2.626   9.605   9.683 -1.8388 -2.3952  0.2271
  693MOL0     H91472   2.708   9.475   9.867  1.2599  0.8334 -0.8640
  693MOL0     H91473   2.804   9.622   9.845 -1.4987  0.3788 -3.4530
  693MOL0     H91474   2.651   9.618  10.249 -3.4180 -2.0271  1.1607
  693MOL0     H91475   2.039   9.437   9.932  4.3432  2.1925  1.0546
  693MOL0     H91476   1.807   9.446   9.859 -2.0435  0.0504 -2.7505
  694MOL0     O91477   6.074   0.366   5.969 -1.0217  0.0554  0.5395
  694MOL0     C91478   6.114   0.473   6.011  0.4669 -0.6482  0.1097
  694MOL0     O91479   6.112   0.589   5.936 -0.1351  0.1655  0.4281
  694MOL0     C91480   6.051   0.586   5.810  1.0076 -0.1517  0.6861
  694MOL0     C91481   5.917   0.534   5.791  0.4430 -0.0847 -0.6057
  694MOL0     C91482   5.850   0.554   5.668  0.0831  0.2633  0.0078
  694MOL0     C91483   5.923   0.591   5.552  0.0913  0.3819 -0.2215
  694MOL0     O91484   5.870   0.586   5.423 -0.2803  0.1936  0.5844
  694MOL0     C91485   5.721   0.593   5.397 -0.2071  1.1975 -0.5525
  694MOL0     C91486   5.650   0.709   5.452 -0.3269 -0.4901 -0.1797
  694MOL0     C91487   5.509   0.681   5.502  1.0740  0.1167 -0.1580
  694MOL0     C91488   5.417   0.658   5.380  0.2930 -0.1921 -0.5128
  694MOL0     C91489   5.291   0.571   5.424 -0.3806 -0.1783 -0.0943
  694MOL0     C91490   5.185   0.597   5.311 -0.3482  0.4086 -0.7511
  694MOL0     C91491   5.085   0.490   5.312  0.3856 -0.2735  0.2770
  694MOL0     C91492   5.117   0.357   5.241 -0.2943 -0.5097  0.2678
  694MOL0     N91493   5.040   0.236   5.277 -0.1128  1.1459 -0.5420
  694MOL0     C91494   4.906   0.253   5.308  0.8487 -0.0996 -0.5705
  694MOL0     C91495   4.874   0.147   5.381  0.4765  0.0166 -0.2838
  694MOL0     C91496   4.736   0.103   5.438  0.3719  0.1739  0.3862
  694MOL0     C91497   4.633   0.109   5.326 -0.7258  1.2862  0.7141
  694MOL0     C91498   4.494   0.058   5.370 -0.2554  0.3402  0.2954
  694MOL0     C91499   4.485  -0.102   5.353 -0.5091 -0.1685  0.4444
  694MOL0     O91500   4.365  -0.167   5.385 -0.9695  0.2306  0.4041
  694MOL0     C91501   4.257  -0.107   5.328  0.1886  1.4154  0.8845
  694MOL0     C91502   4.244  -0.083   5.188  0.0965  0.3786 -0.1748
  694MOL0     C91503   4.127  -0.038   5.132 -0.0328  0.2121  0.6313
  694MOL0     C91504   4.021  -0.001   5.220 -0.0164  0.1218 -0.3412
  694MOL0     C91505   3.895   0.048   5.168 -0.2319 -0.7513 -0.0901
  694MOL0     O91506   3.793   0.046   5.260  0.8746  0.8763  0.2859
  694MOL0     C91507   3.664   0.067   5.217  0.1186  0.5019 -0.0223
  694MOL0     C91508   3.581   0.128   5.312 -0.3053 -0.4217 -0.0247
  694MOL0     C91509   3.449   0.166   5.280 -0.1986 -1.1372 -0.2608
  694MOL0     C91510   3.406   0.125   5.151  1.0115 -0.4331  0.6510
  694MOL0     O91511   3.281   0.172   5.122 -0.3100  0.2116 -0.0712
  694MOL0     C91512   3.222   0.167   4.998 -0.4505  0.1186 -0.1370
  694MOL0     C91513   3.162   0.035   4.965  0.0275 -0.4822 -0.1561
  694MOL0     C91514   3.030   0.020   5.030 -0.3380 -0.2232 -0.0683
  694MOL0     C91515   2.956  -0.091   4.969 -0.5363  0.5060 -0.1051
  694MOL0     C91516   2.818  -0.111   5.022  0.2203  0.5508 -0.2081
  694MOL0     C91517   2.819  -0.194   5.154 -0.8649 -0.2385  0.9244
  694MOL0     C91518   2.685  -0.187   5.219 -0.7383  1.0593  0.2818
  694MOL0     C91519   2.699  -0.267   5.351  0.2219  0.4404  0.8903
  694MOL0    Cl91520   2.771  -0.155   5.470  0.4714  0.3411 -0.5013
  694MOL0     C91521   3.480   0.061   5.057 -0.0344  0.0982 -0.4222
  694MOL0     C91522   3.612   0.035   5.090  0.1046 -0.2850  0.1003
  694MOL0     O91523   3.894   0.098   5.057  0.6021 -0.6461 -0.0218
  694MOL0     C91524   4.038  -0.017   5.358  0.0865  0.6156 -0.3507
  694MOL0     C91525   4.153  -0.080   5.412 -0.6019 -0.1829  0.3466
  694MOL0     N91526   4.987   0.075   5.400 -0.6007 -0.0648 -0.4845
  694MOL0     N91527   5.095   0.131   5.348  0.6551  0.1796  0.0701
  694MOL0     C91528   6.048   0.638   5.568  0.6274  0.5507  0.1254
  694MOL0     C91529   6.110   0.633   5.695  0.5053 -0.5956 -1.1557
  694MOL0     C91530   6.174   0.473   6.144  0.3956  0.3547 -0.3847
  694MOL0     C91531   6.146   0.378   6.244  0.4018 -0.0048 -0.1709
  694MOL0     C91532   6.205   0.377   6.366 -0.7885 -0.5578 -0.1486
  694MOL0     C91533   6.299   0.479   6.395 -0.4415  0.5553 -0.0567
  694MOL0     O91534   6.349   0.491   6.525 -0.1888  0.3452 -0.3100
  694MOL0     C91535   6.488   0.511   6.532 -0.3215  0.3133 -0.2961
  694MOL0     C91536   6.544   0.455   6.664 -0.3070  0.2552 -0.4737
  694MOL0     C91537   6.685   0.494   6.714  0.1656  0.5325  0.1391
  694MOL0     C91538   6.780   0.381   6.665 -0.0910  0.0058  0.2476
  694MOL0     C91539   6.922   0.413   6.683 -0.2623  0.7970  0.0390
  694MOL0     C91540   7.036   0.445   6.706 -0.5668  0.5396 -0.0438
  694MOL0     C91541   6.319   0.587   6.308 -0.8522  0.2445 -0.0638
  694MOL0     C91542   6.254   0.584   6.181 -0.4571 -0.4242  0.1560
  694MOL0     H91543   5.860   0.483   5.868 -0.6146 -2.3386 -2.7688
  694MOL0     H91544   5.752   0.509   5.657  0.8740 -1.3304 -0.9960
  694MOL0     H91545   5.691   0.505   5.455  2.4135  0.3926 -0.2478
  694MOL0     H91546   5.692   0.578   5.293 -1.1016  2.0163 -0.4383
  694MOL0     H91547   5.634   0.790   5.380 -1.2424 -0.4039  0.1195
  694MOL0     H91548   5.708   0.759   5.530  0.0158  0.3159 -0.9347
  694MOL0     H91549   5.474   0.774   5.548  2.8778  1.6160 -1.6397
  694MOL0     H91550   5.507   0.604   5.580 -0.2684  1.4946  1.2411
  694MOL0     H91551   5.392   0.749   5.325  0.3027 -2.0350 -3.8498
  694MOL0     H91552   5.469   0.593   5.309 -0.2811 -1.9405  0.6034
  694MOL0     H91553   5.264   0.588   5.528  2.2704  0.2517  0.5904
  694MOL0     H91554   5.318   0.466   5.414 -1.3277 -0.5261  0.8781
  694MOL0     H91555   5.241   0.600   5.217  0.5350 -2.1806 -0.4016
  694MOL0     H91556   5.137   0.695   5.321 -0.4050  0.3159 -0.1066
  694MOL0     H91557   5.057   0.470   5.415 -3.3255 -1.9555 -0.8787
  694MOL0     H91558   4.996   0.530   5.261 -1.1483 -0.6739  2.5154
  694MOL0     H91559   5.225   0.338   5.243 -0.1677 -0.2456 -1.7375
  694MOL0     H91560   5.104   0.372   5.133 -0.3594 -2.3303 -0.0068
  694MOL0     H91561   4.845   0.335   5.271  3.8614  3.0790  0.8904
  694MOL0     H91562   4.694   0.177   5.508 -1.5898  1.0934 -1.6657
  694MOL0     H91563   4.736   0.003   5.483  1.6591 -1.1087 -2.2644
  694MOL0     H91564   4.673   0.045   5.247  0.8091  0.8212  1.8369
  694MOL0     H91565   4.623   0.215   5.302 -2.7416  1.5886  2.5127
  694MOL0     H91566   4.484   0.083   5.476  3.3407  0.3066  0.7416
  694MOL0     H91567   4.427   0.120   5.310 -0.3539 -1.2293 -1.2898
  694MOL0     H91568   4.564  -0.138   5.420 -0.9794  1.6456  2.0448
  694MOL0     H91569   4.515  -0.139   5.254  2.4184  2.5913  0.0989
  694MOL0     H91570   4.326  -0.124   5.130  1.1232 -0.1615  1.5757
  694MOL0     H91571   4.133  -0.033   5.024  0.9147  2.1079  0.7370
  694MOL0     H91572   3.614   0.149   5.413  0.3055  0.7872 -0.4632
  694MOL0     H91573   3.393   0.209   5.362 -0.5468 -0.2398 -0.9559
  694MOL0     H91574   3.286   0.199   4.915  0.5601  0.0785  0.6114
  694MOL0     H91575   3.147   0.246   5.006 -0.4565 -0.1042  3.7254
  694MOL0     H91576   3.224  -0.038   5.017 -0.5952  0.3334  1.8138
  694MOL0     H91577   3.161   0.021   4.856 -1.1788 -0.6467 -0.1392
  694MOL0     H91578   2.967   0.109   5.031  1.4405  1.1109 -0.9925
  694MOL0     H91579   3.049  -0.005   5.135 -1.2550 -3.3520 -0.5669
  694MOL0     H91580   2.952  -0.089   4.860 -0.6507  1.2754 -0.0899
  694MOL0     H91581   3.006  -0.187   4.984  0.2930  0.4249 -2.9828
  694MOL0     H91582   2.757  -0.164   4.948 -1.7748  0.1828  1.5872
  694MOL0     H91583   2.773  -0.013   5.038  1.6143  1.3958 -1.2184
  694MOL0     H91584   2.888  -0.148   5.225  0.9773  1.2056 -1.6187
  694MOL0     H91585   2.846  -0.299   5.140  2.5001  0.3823  2.0110
  694MOL0     H91586   2.651  -0.083   5.229  1.5537  2.5137 -4.5699
  694MOL0     H91587   2.607  -0.234   5.159 -0.4753  1.6548 -0.5344
  694MOL0     H91588   2.742  -0.367   5.342 -2.1388 -0.5986  0.4845
  694MOL0     H91589   2.593  -0.292   5.363  0.0883 -0.0509 -1.0108
  694MOL0     H91590   3.449   0.039   4.956  1.8647 -3.8310 -0.3341
  694MOL0     H91591   3.682  -0.007   5.019  3.1649  1.9654  1.5379
  694MOL0     H91592   3.961  -0.001   5.433  0.3693 -0.2213  0.1278
  694MOL0     H91593   4.141  -0.112   5.515  1.6426 -2.5602 -0.0223
  694MOL0     H91594   6.108   0.654   5.478  0.7401 -1.3022 -0.1669
  694MOL0     H91595   6.215   0.655   5.681  1.8711 -4.3097  1.5249
  694MOL0     H91596   6.084   0.293   6.220 -0.5978  0.0848  1.9570
  694MOL0     H91597   6.181   0.306   6.444 -2.7323  0.4508  0.2342
  694MOL0     H91598   6.517   0.617   6.531  4.1329 -0.6801  0.9821
  694MOL0     H91599   6.550   0.461   6.457  2.2538  0.4469  1.6102
  694MOL0     H91600   6.476   0.479   6.746  0.6506  0.4339  0.2979
  694MOL0     H91601   6.540   0.346   6.656 -1.3170  0.3074 -0.8418
  694MOL0     H91602   6.688   0.503   6.823  2.7487  1.9341  0.0137
  694MOL0     H91603   6.711   0.595   6.681 -0.6360  0.9154  0.6470
  694MOL0     H91604   6.755   0.283   6.706  0.1818 -0.3727 -0.4830
  694MOL0     H91605   6.769   0.382   6.557  6.4581  1.7322 -0.8379
  694MOL0     H91606   7.134   0.484   6.721 -1.4674  2.9460  0.0535
  694MOL0     H91607   6.390   0.665   6.333  2.1492 -1.7751 -1.6418
  694MOL0     H91608   6.283   0.660   6.109 -1.3346  0.4178  0.6723
  695MOL0     O91609  10.847   3.395   9.857 -0.4278  0.0195 -0.1191
  695MOL0     C91610  10.793   3.328   9.775 -0.5270 -0.2245  1.2507
  695MOL0     O91611  10.851   3.266   9.668  0.0682 -0.2638 -0.2078
  695MOL0     C91612  10.986   3.274   9.633 -0.1869 -0.0161  0.3973
  695MOL0     C91613  11.054   3.156   9.622 -0.2370  0.6135  0.2769
  695MOL0     C91614  11.196   3.161   9.614 -0.3038 -0.6161  0.0388
  695MOL0     C91615  11.261   3.282   9.577  0.0322  0.0563  0.1529
  695MOL0     O91616  11.395   3.286   9.545 -0.1852  0.7616  0.7814
  695MOL0     C91617  11.476   3.265   9.661  0.7396 -0.3919 -0.5923
  695MOL0     C91618  11.621   3.256   9.607  0.7258  0.2424 -0.0365
  695MOL0     C91619  11.712   3.237   9.726  0.1374 -0.0637  0.8349
  695MOL0     C91620  11.850   3.202   9.681 -0.3312  0.6213 -0.6700
  695MOL0     C91621  11.959   3.229   9.795  0.4953  0.0665  0.0856
  695MOL0     C91622  12.096   3.176   9.748  0.0416 -0.2242 -0.2706
  695MOL0     C91623  12.151   3.274   9.646 -0.7347  0.1772  0.0708
  695MOL0     C91624  12.301   3.248   9.626 -0.5665 -0.2081  0.0057
  695MOL0     N91625  12.385   3.258   9.756  0.1705  0.0663  0.0558
  695MOL0     C91626  12.419   3.164   9.852  0.8162  0.3659  0.5502
  695MOL0     C91627  12.491   3.229   9.944 -0.4140  0.6544  0.0547
  695MOL0     C91628  12.545   3.164  10.066  0.5078  0.5715  0.6170
  695MOL0     C91629  12.448   3.160  10.188 -0.0453 -0.0382 -0.2177
  695MOL0     C91630  12.345   3.049  10.158  0.5506 -0.0241  0.6198
  695MOL0     C91631  12.256   3.027  10.278 -0.4340  0.5864  0.4178
  695MOL0     O91632  12.148   2.941  10.246  0.0920  0.5659  0.9576
  695MOL0     C91633  12.027   3.002  10.211  0.5493  0.0208 -0.3202
  695MOL0     C91634  11.999   3.140  10.221 -0.7522 -0.2038 -0.5163
  695MOL0     C91635  11.870   3.187  10.207 -0.3157  0.2660  0.2193
  695MOL0     C91636  11.766   3.095  10.181  0.3438 -0.4392  0.1618
  695MOL0     C91637  11.623   3.124  10.174  0.3675 -0.3360 -0.3720
  695MOL0     O91638  11.545   3.034  10.108 -0.0976 -0.0194  0.4387
  695MOL0     C91639  11.411   3.023  10.117 -0.0530  0.1518  0.6484
  695MOL0     C91640  11.345   2.999  10.240 -0.5274 -0.4679  1.0155
  695MOL0     C91641  11.208   2.983  10.237  0.8779 -0.4753 -0.9480
  695MOL0     C91642  11.130   2.992  10.120 -0.9472 -0.2535  0.6523
  695MOL0     O91643  11.003   2.957  10.096  0.6726 -0.2004 -0.0698
  695MOL0     C91644  10.953   2.864  10.200  0.6724 -0.3851 -0.2710
  695MOL0     C91645  10.828   2.805  10.164  0.2948  0.9829 -0.2504
  695MOL0     C91646  10.706   2.869  10.233 -0.2548 -0.4066 -0.1868
  695MOL0     C91647  10.571   2.811  10.184  1.3978 -0.9473  0.1695
  695MOL0     C91648  10.468   2.934  10.222 -1.2209 -0.0705 -0.0536
  695MOL0     C91649  10.342   2.922  10.139 -0.3451  0.5335 -0.8027
  695MOL0     C91650  10.229   3.021  10.181  0.5550  0.4866  0.8454
  695MOL0     C91651  10.092   2.968  10.125 -0.7576 -0.5407 -0.2426
  695MOL0    Cl91652  10.056   2.820  10.210 -0.1937 -0.0097  0.1297
  695MOL0     C91653  11.208   3.020  10.000 -0.6262 -0.6015 -0.6762
  695MOL0     C91654  11.348   3.017   9.999 -0.0898  0.2661  0.2358
  695MOL0     O91655  11.581   3.220  10.235  0.0465  0.4943  0.1058
  695MOL0     C91656  11.800   2.952  10.166  0.0593 -0.3473  0.7845
  695MOL0     C91657  11.925   2.911  10.194 -0.6698  0.3134  0.4397
  695MOL0     N91658  12.500   3.360   9.909 -0.6429 -0.4418  0.1960
  695MOL0     N91659  12.440   3.379   9.798 -0.2292 -0.3320 -0.5864
  695MOL0     C91660  11.190   3.397   9.583  0.9104  0.2687 -0.1221
  695MOL0     C91661  11.053   3.395   9.624 -0.1985 -0.0521  0.1213
  695MOL0     C91662  10.651   3.308   9.799  0.0938  0.3678  0.4112
  695MOL0     C91663  10.589   3.366   9.912 -0.1729 -0.0083  0.3863
  695MOL0     C91664  10.449   3.362   9.921  0.5362  0.1884  0.6513
  695MOL0     C91665  10.371   3.295   9.830  0.0133 -0.9341 -0.0084
  695MOL0     O91666  10.235   3.305   9.855 -0.0970  0.0086  0.3365
  695MOL0     C91667  10.147   3.221   9.776  0.1247 -0.1763  0.5812
  695MOL0     C91668  10.109   3.263   9.635  0.5958 -0.3102  0.5590
  695MOL0     C91669   9.999   3.365   9.622 -0.0374 -0.5373 -0.3537
  695MOL0     C91670   9.872   3.353   9.713 -0.8332  0.0004  0.8546
  695MOL0     C91671   9.774   3.245   9.675  0.4470 -0.1472  0.7857
  695MOL0     C91672   9.708   3.165   9.621  0.8024 -0.7367  0.4954
  695MOL0     C91673  10.432   3.231   9.723  0.0532  0.2954  0.8641
  695MOL0     C91674  10.567   3.240   9.707 -0.9212  0.0199 -0.0692
  695MOL0     H91675  11.006   3.059   9.628  1.5983 -0.5411 -1.8343
  695MOL0     H91676  11.239   3.063   9.601 -2.2494 -1.3819 -1.0705
  695MOL0     H91677  11.451   3.176   9.718 -1.5615  2.3416  3.1117
  695MOL0     H91678  11.467   3.347   9.733  0.5142 -1.4501  0.6150
  695MOL0     H91679  11.644   3.342   9.543  1.5327  0.1875  0.1685
  695MOL0     H91680  11.624   3.167   9.544 -1.3782 -0.0168  0.1610
  695MOL0     H91681  11.680   3.151   9.787 -1.3305  0.2987  0.6142
  695MOL0     H91682  11.710   3.318   9.800 -2.7986 -0.8191  1.7287
  695MOL0     H91683  11.850   3.094   9.665 -4.9916 -0.2677  3.2136
  695MOL0     H91684  11.885   3.254   9.591  1.3955 -0.8911 -0.9345
  695MOL0     H91685  11.939   3.168   9.884  0.9504  1.6115  1.2955
  695MOL0     H91686  11.961   3.332   9.833  0.2608  1.2379 -2.7792
  695MOL0     H91687  12.104   3.075   9.708 -0.1780 -0.1015 -0.6279
  695MOL0     H91688  12.156   3.182   9.840 -1.7326  3.1378  0.8501
  695MOL0     H91689  12.099   3.234   9.559 -1.4659 -2.7389  1.7297
  695MOL0     H91690  12.128   3.379   9.670 -2.1186 -0.2204  0.5725
  695MOL0     H91691  12.351   3.328   9.572  0.9891 -0.5738  0.8213
  695MOL0     H91692  12.324   3.161   9.564  0.8438  0.3989 -0.3575
  695MOL0     H91693  12.386   3.061   9.861 -5.0450  1.5622 -2.2084
  695MOL0     H91694  12.628   3.230  10.091 -0.0917  0.9233  1.7422
  695MOL0     H91695  12.580   3.062  10.053  1.7255  0.9875  0.4855
  695MOL0     H91696  12.398   3.257  10.199 -0.6106 -0.5395  2.2008
  695MOL0     H91697  12.506   3.149  10.280 -0.7322 -1.5663  0.0567
  695MOL0     H91698  12.298   3.077  10.064 -0.3408  0.6310  1.2387
  695MOL0     H91699  12.394   2.956  10.130 -3.1725 -1.7948 -0.6024
  695MOL0     H91700  12.232   3.120  10.328 -1.5660 -1.0139  3.0284
  695MOL0     H91701  12.302   2.972  10.361  0.8274  1.6329  0.4592
  695MOL0     H91702  12.082   3.209  10.229 -0.3370 -0.7692  0.1894
  695MOL0     H91703  11.863   3.295  10.202 -2.3361  0.1636  0.2124
  695MOL0     H91704  11.402   2.991  10.332  0.3753 -0.0172  0.5167
  695MOL0     H91705  11.151   2.974  10.329  2.5342  1.5088  0.3544
  695MOL0     H91706  10.943   2.915  10.297  2.1077 -0.6003  0.0118
  695MOL0     H91707  11.026   2.784  10.210  1.5296 -0.2514 -3.8629
  695MOL0     H91708  10.839   2.703  10.202  0.0222  1.6501  1.7405
  695MOL0     H91709  10.813   2.804  10.055  0.8319 -1.5591 -0.3721
  695MOL0     H91710  10.718   2.978  10.221  1.5158 -0.4869  0.5429
  695MOL0     H91711  10.710   2.852  10.341 -1.3171  0.8576  0.0801
  695MOL0     H91712  10.582   2.810  10.075  2.1074 -0.0555  0.2151
  695MOL0     H91713  10.541   2.711  10.213  2.2389 -0.5674  2.5618
  695MOL0     H91714  10.512   3.032  10.201  0.6748 -0.4956  1.6432
  695MOL0     H91715  10.442   2.928  10.328  1.8446  2.6399  1.0382
  695MOL0     H91716  10.317   2.816  10.148  1.5263 -0.1860 -3.0324
  695MOL0     H91717  10.368   2.944  10.035  3.5013 -1.6859 -0.5314
  695MOL0     H91718  10.230   3.036  10.289 -0.6242  2.0282  0.6777
  695MOL0     H91719  10.259   3.111  10.127 -2.1732  0.6753 -0.5582
  695MOL0     H91720  10.115   2.933  10.024  1.6691 -1.4647  0.5685
  695MOL0     H91721  10.011   3.040  10.109  0.3027  0.7986  0.1739
  695MOL0     H91722  11.144   3.030   9.913 -2.8348  2.6615  1.1050
  695MOL0     H91723  11.398   3.030   9.904 -1.3242 -1.1149 -0.6488
  695MOL0     H91724  11.727   2.876  10.139 -1.2004  1.3489 -0.7936
  695MOL0     H91725  11.951   2.806  10.186 -2.9163 -0.2222 -0.6107
  695MOL0     H91726  11.224   3.497   9.559 -1.6005  1.5346  1.1415
  695MOL0     H91727  10.998   3.488   9.636 -1.2564 -0.8831  2.1650
  695MOL0     H91728  10.634   3.427   9.991 -3.1358 -1.6984  3.6929
  695MOL0     H91729  10.395   3.405  10.004 -3.0153 -0.0418 -1.3244
  695MOL0     H91730  10.060   3.202   9.839  1.0049 -0.8235  1.6490
  695MOL0     H91731  10.203   3.128   9.762  0.4036 -0.1443  1.3881
  695MOL0     H91732  10.208   3.292   9.598  0.7810  0.5651  1.6744
  695MOL0     H91733  10.083   3.173   9.578 -0.0887  0.3170 -0.1448
  695MOL0     H91734   9.969   3.373   9.517 -0.3436 -1.5790 -0.3644
  695MOL0     H91735  10.041   3.464   9.642 -2.1938  0.8003 -2.0051
  695MOL0     H91736   9.894   3.343   9.819 -1.1461  0.4310  0.9635
  695MOL0     H91737   9.822   3.451   9.713 -1.7870 -0.4596  2.4914
  695MOL0     H91738   9.637   3.091   9.589  1.2378 -1.7785  1.8703
  695MOL0     H91739  10.366   3.190   9.647 -1.8010 -0.2535  2.6632
  695MOL0     H91740  10.613   3.218   9.611  0.4713  0.2902  0.5122
  696MOL0     O91741   4.680   1.548   6.584 -0.3529  0.2296  0.1956
  696MOL0     C91742   4.772   1.480   6.526 -0.8927  0.4699  0.1291
  696MOL0     O91743   4.763   1.383   6.435  0.4267 -0.3019  0.7518
  696MOL0     C91744   4.661   1.292   6.452 -0.1330 -0.1312  0.1375
  696MOL0     C91745   4.617   1.223   6.341 -0.7323  0.8015 -0.9177
  696MOL0     C91746   4.522   1.118   6.348 -1.2838  0.2795 -0.1357
  696MOL0     C91747   4.452   1.094   6.469  0.2584 -0.7137  0.1916
  696MOL0     O91748   4.346   1.005   6.457 -0.5576  0.0523  0.5490
  696MOL0     C91749   4.294   0.947   6.581  0.6049 -0.5390 -0.2170
  696MOL0     C91750   4.190   1.050   6.632 -0.4501  0.0868 -0.3168
  696MOL0     C91751   4.076   1.079   6.536 -0.2237 -0.3702 -0.1223
  696MOL0     C91752   3.973   0.964   6.551 -0.5931 -0.7024 -0.3375
  696MOL0     C91753   3.833   1.009   6.591 -0.5358  0.0044 -0.8034
  696MOL0     C91754   3.733   0.994   6.474 -0.8544 -0.5052 -0.6272
  696MOL0     C91755   3.598   1.056   6.506  0.6715  0.6649  0.1520
  696MOL0     C91756   3.521   0.985   6.621 -0.3377 -0.4506  0.9183
  696MOL0     N91757   3.375   0.982   6.607 -0.1592 -0.1102 -0.0961
  696MOL0     C91758   3.301   0.907   6.524 -0.0052 -0.1038  0.9084
  696MOL0     C91759   3.180   0.976   6.517 -0.6399  0.6514 -0.2468
  696MOL0     C91760   3.056   0.933   6.441 -0.3701  0.0705  0.6059
  696MOL0     C91761   2.934   0.887   6.527  0.0254 -0.0178  0.0807
  696MOL0     C91762   2.888   0.983   6.640  0.1875  0.7601 -0.6887
  696MOL0     C91763   2.732   0.963   6.668 -0.0212  0.2847  0.5083
  696MOL0     O91764   2.706   0.830   6.721  0.0693  0.2007 -1.1516
  696MOL0     C91765   2.577   0.801   6.755  0.5257  0.4264  1.4344
  696MOL0     C91766   2.546   0.662   6.792 -0.2817 -0.0435  0.6400
  696MOL0     C91767   2.412   0.619   6.800  0.8206  0.0009  0.8797
  696MOL0     C91768   2.308   0.699   6.774 -0.0689 -0.5179 -0.1113
  696MOL0     C91769   2.172   0.649   6.790  0.0853  0.0648  0.5332
  696MOL0     O91770   2.068   0.736   6.777 -0.3121  0.7219 -0.6497
  696MOL0     C91771   1.938   0.698   6.797  0.1129  0.7436  0.2987
  696MOL0     C91772   1.903   0.601   6.899  0.6001 -0.2077 -0.5627
  696MOL0     C91773   1.769   0.563   6.916  1.1169  0.3102  0.0363
  696MOL0     C91774   1.667   0.619   6.840 -0.4227 -1.1076  0.0469
  696MOL0     O91775   1.535   0.586   6.849 -0.3274 -0.1679 -0.2780
  696MOL0     C91776   1.448   0.693   6.847  0.2312  0.8206 -0.6728
  696MOL0     C91777   1.306   0.628   6.870 -0.8319 -0.2466 -0.6099
  696MOL0     C91778   1.194   0.719   6.921 -0.1788  0.7213  0.4508
  696MOL0     C91779   1.174   0.827   6.806  0.5639  0.1144 -1.4681
  696MOL0     C91780   1.088   0.934   6.867  0.1519  0.0255 -0.5380
  696MOL0     C91781   1.044   1.036   6.758 -0.0971 -0.4614  0.0536
  696MOL0     C91782   0.949   1.151   6.809 -0.8468  0.4464  0.4485
  696MOL0     C91783   0.921   1.254   6.705  0.6811  0.5893  0.6367
  696MOL0    Cl91784   1.050   1.367   6.675  0.1628 -0.2544 -0.0475
  696MOL0     C91785   1.708   0.703   6.728  0.3096  0.5921 -0.1786
  696MOL0     C91786   1.842   0.742   6.701  0.0926 -0.5239  0.2095
  696MOL0     O91787   2.160   0.525   6.792 -0.4666 -0.3267  0.6754
  696MOL0     C91788   2.332   0.834   6.731  0.5209  0.5467  0.2151
  696MOL0     C91789   2.463   0.886   6.725 -0.4490  0.8004  0.5297
  696MOL0     N91790   3.188   1.089   6.598 -0.3021  0.0545  0.1455
  696MOL0     N91791   3.299   1.090   6.653 -0.7164  0.3164  0.8348
  696MOL0     C91792   4.497   1.163   6.582 -0.1074  0.7685  0.3868
  696MOL0     C91793   4.600   1.262   6.575 -0.2580  0.6854 -0.9192
  696MOL0     C91794   4.912   1.536   6.563 -1.3844 -0.4618  0.1785
  696MOL0     C91795   4.931   1.652   6.637 -0.1642 -0.4309  0.2130
  696MOL0     C91796   5.055   1.692   6.674 -0.0736  0.1531 -0.3049
  696MOL0     C91797   5.173   1.614   6.650 -0.3462  0.3730  0.2301
  696MOL0     O91798   5.294   1.648   6.701 -0.3406 -0.6723 -0.3737
  696MOL0     C91799   5.339   1.587   6.824  0.3182  0.0649 -0.4803
  696MOL0     C91800   5.252   1.610   6.950 -0.6785  0.7723 -0.1652
  696MOL0     C91801   5.328   1.591   7.088  0.1051  0.0605  1.2833
  696MOL0     C91802   5.390   1.452   7.096 -0.1331  0.0991 -0.1316
  696MOL0     C91803   5.528   1.431   7.043  0.2867  0.6717  0.4352
  696MOL0     C91804   5.639   1.420   6.993  0.0310  0.4880 -0.0987
  696MOL0     C91805   5.159   1.500   6.567  0.0409 -0.2561  0.2446
  696MOL0     C91806   5.023   1.469   6.519 -0.3358  0.2689 -0.0740
  696MOL0     H91807   4.665   1.244   6.247 -0.2843  0.5662 -0.7440
  696MOL0     H91808   4.497   1.059   6.260  2.1198  0.4491 -1.3602
  696MOL0     H91809   4.371   0.929   6.658  0.0910  0.3637  0.5264
  696MOL0     H91810   4.249   0.850   6.558  1.8764 -0.6681 -2.3867
  696MOL0     H91811   4.241   1.145   6.655  0.0278 -0.0421 -0.8191
  696MOL0     H91812   4.163   1.016   6.732 -0.3982  0.5627 -0.1380
  696MOL0     H91813   4.110   1.084   6.432  0.7353 -1.9654  0.0759
  696MOL0     H91814   4.033   1.177   6.557  4.4841  2.1520 -1.0179
  696MOL0     H91815   3.969   0.902   6.461  1.4685 -1.3652 -0.0317
  696MOL0     H91816   4.010   0.895   6.627  0.0714  2.0059  1.9799
  696MOL0     H91817   3.830   1.115   6.619 -0.2314 -0.0371 -0.6066
  696MOL0     H91818   3.802   0.951   6.678 -1.0310  0.7041 -0.5072
  696MOL0     H91819   3.718   0.888   6.453 -0.3311 -0.5185 -0.9448
  696MOL0     H91820   3.768   1.055   6.390  1.7903  0.0999  0.8005
  696MOL0     H91821   3.619   1.162   6.525 -2.3698  1.4308 -0.2023
  696MOL0     H91822   3.543   1.062   6.411  0.4429  1.7516  0.3362
  696MOL0     H91823   3.559   1.030   6.713  2.2647 -3.4211  1.4723
  696MOL0     H91824   3.547   0.879   6.631  1.0794 -0.5264 -2.3534
  696MOL0     H91825   3.332   0.816   6.476 -3.7585 -0.1691 -1.8242
  696MOL0     H91826   3.093   0.857   6.371  2.1992  0.9435  0.9214
  696MOL0     H91827   3.028   1.019   6.381  1.9022  0.2775 -0.2419
  696MOL0     H91828   2.970   0.789   6.559  2.7626 -0.4665 -3.7162
  696MOL0     H91829   2.854   0.870   6.456  0.0737  0.9271 -0.2243
  696MOL0     H91830   2.950   0.962   6.728  0.1481 -2.9470 -1.3636
  696MOL0     H91831   2.906   1.089   6.621  0.4958  0.9748  0.6735
  696MOL0     H91832   2.675   0.968   6.574  1.1387 -2.6831 -0.4773
  696MOL0     H91833   2.697   1.042   6.735 -4.0573 -0.9121  0.0593
  696MOL0     H91834   2.623   0.589   6.810  2.9837  2.6548 -1.2962
  696MOL0     H91835   2.392   0.518   6.833  2.5903 -0.1706  1.5590
  696MOL0     H91836   1.971   0.553   6.969 -0.6569 -0.8881  0.2460
  696MOL0     H91837   1.733   0.493   6.990 -3.0608  0.3188 -1.6565
  696MOL0     H91838   1.445   0.749   6.754  3.3888  2.8682  0.2844
  696MOL0     H91839   1.468   0.755   6.935  0.0132  1.2432 -0.9233
  696MOL0     H91840   1.305   0.546   6.942 -0.5005 -0.3335 -0.7023
  696MOL0     H91841   1.285   0.577   6.776  0.0098  1.6408 -1.8936
  696MOL0     H91842   1.228   0.758   7.017  1.8591 -2.3193  1.1126
  696MOL0     H91843   1.102   0.663   6.939 -1.0262  1.9201 -0.0538
  696MOL0     H91844   1.268   0.862   6.762  1.9560 -0.8510  0.5636
  696MOL0     H91845   1.127   0.779   6.720 -2.7970 -0.3969  0.4605
  696MOL0     H91846   1.146   0.989   6.942 -1.5280 -0.9512  1.5970
  696MOL0     H91847   0.999   0.904   6.924  0.8092  0.9148  1.0208
  696MOL0     H91848   0.996   0.981   6.676  2.5691 -1.4532 -0.9563
  696MOL0     H91849   1.132   1.090   6.721 -0.2265 -1.0265 -1.1245
  696MOL0     H91850   0.851   1.108   6.832 -0.4401  1.2654  4.5389
  696MOL0     H91851   0.983   1.184   6.908  1.1142 -0.6785  0.1940
  696MOL0     H91852   0.839   1.321   6.736  0.3257 -1.2585  4.1615
  696MOL0     H91853   0.887   1.211   6.611  0.5065  3.2823 -0.6274
  696MOL0     H91854   1.634   0.754   6.667  1.6690  2.3713 -0.4156
  696MOL0     H91855   1.874   0.798   6.613  0.6359  1.7743  1.7680
  696MOL0     H91856   2.249   0.900   6.709 -1.0077 -0.1032  3.4300
  696MOL0     H91857   2.473   0.989   6.694 -2.2589  0.6350 -0.7643
  696MOL0     H91858   4.449   1.153   6.679  0.5600 -2.4438  0.5184
  696MOL0     H91859   4.632   1.303   6.671  0.0551 -2.8300  0.6330
  696MOL0     H91860   4.846   1.709   6.674  0.3739  0.8381 -0.4499
  696MOL0     H91861   5.072   1.784   6.728 -1.0390 -0.4083  0.9927
  696MOL0     H91862   5.440   1.627   6.836  0.1593  0.9348 -1.7831
  696MOL0     H91863   5.350   1.481   6.804 -3.4350 -0.6295  0.3371
  696MOL0     H91864   5.210   1.711   6.940  0.5835  1.2045 -1.2032
  696MOL0     H91865   5.178   1.529   6.955  2.3343 -2.1386  0.3838
  696MOL0     H91866   5.254   1.607   7.168 -0.8042 -2.2455  0.9836
  696MOL0     H91867   5.398   1.675   7.094  0.1283  0.2479 -0.9786
  696MOL0     H91868   5.382   1.430   7.203 -0.0692  0.9018  0.0404
  696MOL0     H91869   5.323   1.377   7.053  0.1510 -1.2892  1.7053
  696MOL0     H91870   5.735   1.401   6.950  0.1547 -2.1731  1.1934
  696MOL0     H91871   5.232   1.428   6.533 -0.1729 -0.2139 -0.3046
  696MOL0     H91872   5.012   1.390   6.446  0.7761 -0.5794  0.6399
  697MOL0     O91873   9.404   5.158   0.041  0.4442 -0.6774  0.4505
  697MOL0     C91874   9.388   5.282   0.036 -1.0854 -1.0406 -1.0014
  697MOL0     O91875   9.280   5.350  -0.005  0.0052 -0.1734 -0.9451
  697MOL0     C91876   9.173   5.277  -0.038  0.0121  0.0430  0.4336
  697MOL0     C91877   9.163   5.205  -0.161 -0.7392 -0.7925 -0.0453
  697MOL0     C91878   9.042   5.150  -0.211 -0.5591 -1.4849 -0.4395
  697MOL0     C91879   8.929   5.164  -0.135 -0.1637  0.4831  0.7728
  697MOL0     O91880   8.811   5.100  -0.179  0.4309 -0.0823 -0.7218
  697MOL0     C91881   8.704   5.068  -0.086 -0.6211 -0.2825  0.2924
  697MOL0     C91882   8.611   4.969  -0.164 -0.0968  0.2067 -0.4391
  697MOL0     C91883   8.485   5.047  -0.208  0.1023  0.5976  0.3242
  697MOL0     C91884   8.369   4.954  -0.253 -0.0481  0.0753 -0.2421
  697MOL0     C91885   8.269   5.035  -0.341  0.4509  0.4362  0.9967
  697MOL0     C91886   8.151   4.953  -0.388 -0.3738  0.0149  0.0088
  697MOL0     C91887   8.032   5.042  -0.429  0.6341  0.1456  1.3247
  697MOL0     C91888   7.909   4.964  -0.481 -0.6020  0.4791  0.4057
  697MOL0     N91889   7.804   5.054  -0.527  0.2670 -0.5356  0.4169
  697MOL0     C91890   7.794   5.122  -0.648 -0.1241  0.3093  0.1239
  697MOL0     C91891   7.706   5.219  -0.627 -0.5941 -0.6852  0.9532
  697MOL0     C91892   7.649   5.312  -0.730  0.9579 -0.0727 -0.1487
  697MOL0     C91893   7.533   5.246  -0.809  0.0652 -0.8536 -0.6201
  697MOL0     C91894   7.400   5.238  -0.728 -0.3737  0.1841  0.1400
  697MOL0     C91895   7.295   5.156  -0.812  0.2801  1.5122  0.0225
  697MOL0     O91896   7.170   5.161  -0.738 -0.0956  0.4448  0.1479
  697MOL0     C91897   7.057   5.108  -0.778 -0.2491  0.7650 -0.0636
  697MOL0     C91898   7.045   5.014  -0.879 -0.3710  0.9539  0.0505
  697MOL0     C91899   6.918   4.961  -0.902 -0.1302  0.4307 -0.2660
  697MOL0     C91900   6.806   5.007  -0.837  0.0951  0.4882 -0.4503
  697MOL0     C91901   6.672   4.946  -0.880 -0.1546  0.2417  0.2544
  697MOL0     O91902   6.667   4.854  -0.977  0.4992 -0.4813 -0.2169
  697MOL0     C91903   6.542   4.815  -1.024  0.9368  0.4912 -0.5220
  697MOL0     C91904   6.423   4.892  -1.027 -0.2476  0.5214 -0.2039
  697MOL0     C91905   6.299   4.845  -1.072  0.0130 -0.8595 -0.1643
  697MOL0     C91906   6.291   4.723  -1.128 -0.3211  0.1312 -0.2126
  697MOL0     O91907   6.176   4.681  -1.189  0.5672  0.2506  1.1380
  697MOL0     C91908   6.164   4.535  -1.226  0.2690 -0.2164  0.0603
  697MOL0     C91909   6.017   4.529  -1.288 -0.1904 -0.0651 -0.1806
  697MOL0     C91910   5.971   4.387  -1.315  0.1982 -0.0814  0.7555
  697MOL0     C91911   5.877   4.331  -1.208  0.5988 -0.7198  0.2009
  697MOL0     C91912   5.808   4.210  -1.277  0.0230 -0.1517  0.0654
  697MOL0     C91913   5.691   4.260  -1.366  0.0071 -1.0083 -0.1243
  697MOL0     C91914   5.613   4.139  -1.428  0.0184 -0.4659 -0.2908
  697MOL0     C91915   5.535   4.173  -1.559  0.0115  0.0206 -0.0778
  697MOL0    Cl91916   5.644   4.250  -1.671  0.1783 -0.2490 -0.0016
  697MOL0     C91917   6.405   4.642  -1.127  0.4824 -0.5486  0.6756
  697MOL0     C91918   6.529   4.686  -1.080  0.3494 -0.1452 -0.2509
  697MOL0     O91919   6.573   4.980  -0.814  0.3834  0.3579 -0.0621
  697MOL0     C91920   6.819   5.114  -0.750  1.1690  0.8593 -0.8313
  697MOL0     C91921   6.946   5.172  -0.721  0.4716  0.8203  0.8741
  697MOL0     N91922   7.677   5.231  -0.493  0.6383  0.1545 -0.3852
  697MOL0     N91923   7.732   5.128  -0.439 -0.2383  0.2695  0.3994
  697MOL0     C91924   8.939   5.226  -0.005  0.2454 -0.9622  0.5026
  697MOL0     C91925   9.063   5.288   0.043  0.4322  0.2372 -0.2348
  697MOL0     C91926   9.510   5.359   0.074  0.4912 -0.2921 -0.2171
  697MOL0     C91927   9.497   5.500   0.109 -0.0069  0.0691  1.3326
  697MOL0     C91928   9.604   5.553   0.179 -0.9247 -0.0250 -0.2995
  697MOL0     C91929   9.727   5.489   0.197 -0.6447 -1.4442 -0.6400
  697MOL0     O91930   9.822   5.584   0.246  0.1960 -0.6673  0.4525
  697MOL0     C91931   9.957   5.534   0.278  0.1749 -0.7510  0.3406
  697MOL0     C91932   9.954   5.442   0.404 -0.5173 -0.8702  0.4511
  697MOL0     C91933  10.096   5.410   0.446 -0.8900 -0.8049  0.7550
  697MOL0     C91934  10.104   5.304   0.557  0.0144 -0.1962  0.2443
  697MOL0     C91935  10.093   5.159   0.515 -0.2820  0.3867 -0.1876
  697MOL0     C91936  10.101   5.046   0.474  0.1349  0.3737  0.6059
  697MOL0     C91937   9.745   5.357   0.153  0.4261  0.1862  0.3490
  697MOL0     C91938   9.636   5.297   0.084 -0.2347 -0.1659  0.1081
  697MOL0     H91939   9.250   5.211  -0.225 -0.7238  1.0643  0.1158
  697MOL0     H91940   9.045   5.105  -0.310 -1.6956  0.9565 -1.6704
  697MOL0     H91941   8.644   5.155  -0.058 -3.0749 -0.9009 -2.5623
  697MOL0     H91942   8.739   5.032   0.012 -0.1914  1.6116  0.8660
  697MOL0     H91943   8.574   4.897  -0.090 -2.0953  0.1766 -1.3988
  697MOL0     H91944   8.664   4.923  -0.248  0.9414 -0.4621  0.5426
  697MOL0     H91945   8.515   5.109  -0.293 -1.2819 -0.8559 -1.3159
  697MOL0     H91946   8.443   5.104  -0.125  0.6688  0.7231  0.5290
  697MOL0     H91947   8.416   4.864  -0.294 -1.0897 -0.3090 -0.6074
  697MOL0     H91948   8.315   4.913  -0.168 -0.9637  0.8883 -0.4162
  697MOL0     H91949   8.315   5.081  -0.429 -2.5122  1.9928  0.1273
  697MOL0     H91950   8.236   5.125  -0.289 -1.8493 -0.1592  0.6557
  697MOL0     H91951   8.127   4.906  -0.293  1.0328  0.4378  0.6057
  697MOL0     H91952   8.177   4.886  -0.471 -2.1470 -0.8103  0.0773
  697MOL0     H91953   7.996   5.103  -0.346 -2.0399 -1.9629  1.8392
  697MOL0     H91954   8.059   5.115  -0.506  3.1206 -1.0128  1.0078
  697MOL0     H91955   7.876   4.908  -0.394  0.3788  1.8925  1.7308
  697MOL0     H91956   7.936   4.905  -0.570 -3.9757  2.0331 -1.8870
  697MOL0     H91957   7.840   5.096  -0.742  2.0132 -0.4100  1.2914
  697MOL0     H91958   7.734   5.339  -0.794  1.8842  1.9345  1.7754
  697MOL0     H91959   7.621   5.410  -0.689  0.1677 -0.5838  0.5761
  697MOL0     H91960   7.571   5.152  -0.849  1.4564 -0.3833 -0.4542
  697MOL0     H91961   7.511   5.314  -0.892 -1.7590 -0.1348  0.3816
  697MOL0     H91962   7.429   5.180  -0.640  2.3147  3.0909  1.3596
  697MOL0     H91963   7.366   5.338  -0.700  3.0949  0.7959  2.7897
  697MOL0     H91964   7.319   5.053  -0.838  0.2957  1.2493  1.0409
  697MOL0     H91965   7.269   5.210  -0.903  0.1966 -2.0057 -2.2010
  697MOL0     H91966   7.126   4.957  -0.923 -1.5608 -1.5433  0.9407
  697MOL0     H91967   6.905   4.872  -0.962  0.7767  0.1467 -0.0558
  697MOL0     H91968   6.426   4.995  -0.993  1.8035  1.7554 -3.6477
  697MOL0     H91969   6.214   4.913  -1.068  0.9926  0.3572  1.1247
  697MOL0     H91970   6.177   4.464  -1.144 -1.9401 -0.9965 -0.1831
  697MOL0     H91971   6.233   4.523  -1.309  1.3067  0.9418  0.7185
  697MOL0     H91972   6.016   4.593  -1.377 -1.6765 -0.3133 -0.3723
  697MOL0     H91973   5.952   4.570  -1.211 -2.0827 -1.5111 -0.9387
  697MOL0     H91974   6.059   4.322  -1.320 -1.3730 -2.2328 -3.1691
  697MOL0     H91975   5.918   4.393  -1.411 -1.4166  1.9352  1.7094
  697MOL0     H91976   5.948   4.300  -1.131  2.1132 -0.6093 -1.1096
  697MOL0     H91977   5.815   4.416  -1.176  0.3960 -0.9170  0.3352
  697MOL0     H91978   5.776   4.148  -1.193 -2.4505 -0.9634 -1.3611
  697MOL0     H91979   5.883   4.150  -1.330 -0.0526 -0.1754 -0.0153
  697MOL0     H91980   5.733   4.317  -1.449  1.1808 -1.2766  0.2656
  697MOL0     H91981   5.619   4.328  -1.320  0.1409 -0.0184 -1.3185
  697MOL0     H91982   5.678   4.053  -1.447 -0.8376 -1.2203  0.1553
  697MOL0     H91983   5.538   4.108  -1.355  0.7169  1.1594  1.1968
  697MOL0     H91984   5.452   4.240  -1.534  3.6362  3.3411  5.1162
  697MOL0     H91985   5.500   4.075  -1.595  0.9934 -0.2218 -0.3909
  697MOL0     H91986   6.409   4.541  -1.168  2.3345  0.4201 -1.7931
  697MOL0     H91987   6.615   4.621  -1.086 -1.5181 -2.9486  1.1490
  697MOL0     H91988   6.731   5.157  -0.703  0.5362 -0.9664 -0.2172
  697MOL0     H91989   6.956   5.264  -0.665  0.4530 -0.2953  2.8003
  697MOL0     H91990   8.848   5.228   0.054  1.9918  1.1016  3.3975
  697MOL0     H91991   9.058   5.333   0.142  0.5777  1.1274 -0.6217
  697MOL0     H91992   9.401   5.549   0.100 -0.9248 -1.9320 -0.9512
  697MOL0     H91993   9.604   5.659   0.205  0.6804  0.5102 -2.2239
  697MOL0     H91994  10.029   5.613   0.298  0.6208 -1.0275 -0.1588
  697MOL0     H91995   9.994   5.479   0.191 -1.2375  0.4318 -1.0474
  697MOL0     H91996   9.910   5.507   0.480 -0.5335  1.5216 -1.4974
  697MOL0     H91997   9.897   5.350   0.387  0.1097 -0.9013 -1.7464
  697MOL0     H91998  10.146   5.501   0.479 -0.0317 -0.9451 -0.0932
  697MOL0     H91999  10.153   5.370   0.361  0.9167 -0.9098  1.9702
  697MOL0     H92000  10.205   5.315   0.598  1.3858 -0.9043 -2.6420
  697MOL0     H92001  10.026   5.326   0.631 -0.7120  1.2361 -0.8882
  697MOL0     H92002  10.102   4.946   0.437 -2.6910  0.8111 -0.9122
  697MOL0     H92003   9.840   5.304   0.161 -0.7611 -2.1116  0.0322
  697MOL0     H92004   9.645   5.191   0.063 -0.2266 -0.1768  0.1667
  698MOL0     O92005   5.199  10.918   1.626  0.2475 -0.2035  0.5625
  698MOL0     C92006   5.281  10.833   1.632 -0.4087  0.5164  0.1212
  698MOL0     O92007   5.269  10.699   1.666  1.1539 -0.3425 -0.0855
  698MOL0     C92008   5.138  10.654   1.681  0.1893  0.4580 -0.2688
  698MOL0     C92009   5.049  10.673   1.575  0.0966  0.3494  0.0644
  698MOL0     C92010   4.923  10.612   1.586 -0.6980  0.3063 -0.8691
  698MOL0     C92011   4.883  10.530   1.691  0.0834 -0.4095  0.5290
  698MOL0     O92012   4.764  10.465   1.679  0.0171  0.0427  0.4217
  698MOL0     C92013   4.688  10.422   1.787 -0.5520 -0.2641 -1.1607
  698MOL0     C92014   4.587  10.325   1.717  0.8095  0.4184  0.1387
  698MOL0     C92015   4.466  10.280   1.806 -0.5587 -1.2895 -0.0403
  698MOL0     C92016   4.508  10.154   1.876  0.9433  0.4625 -0.2096
  698MOL0     C92017   4.430  10.119   2.003 -0.4964  0.6829 -1.4000
  698MOL0     C92018   4.277  10.116   1.999 -0.0419  0.4597  0.5114
  698MOL0     C92019   4.213  10.093   2.133  1.0033 -0.6035  0.9674
  698MOL0     C92020   4.068  10.063   2.114  0.2322  0.3192  0.1974
  698MOL0     N92021   4.001  10.172   2.046  0.1107 -0.0868 -1.1063
  698MOL0     C92022   3.956  10.160   1.918 -0.4223 -0.8146 -0.1642
  698MOL0     C92023   3.861  10.263   1.901 -0.6658  0.4958  0.2220
  698MOL0     C92024   3.793  10.304   1.773  1.0920 -0.0365 -0.6016
  698MOL0     C92025   3.749  10.179   1.694 -0.1747 -0.0060  0.4642
  698MOL0     C92026   3.631  10.210   1.598 -0.8006 -0.1093 -0.4252
  698MOL0     C92027   3.499  10.176   1.649  0.1572  0.7003 -0.1313
  698MOL0     O92028   3.472  10.263   1.757  0.7569  0.0008  0.6599
  698MOL0     C92029   3.342  10.303   1.767 -0.1163 -0.6932  0.1924
  698MOL0     C92030   3.314  10.416   1.850  0.1385  0.3199 -0.3970
  698MOL0     C92031   3.181  10.467   1.848  0.1446 -0.2216  0.3799
  698MOL0     C92032   3.078  10.418   1.768 -1.1433 -0.2439  0.7482
  698MOL0     C92033   2.952  10.491   1.755  0.8535  0.2322 -0.0173
  698MOL0     O92034   2.855  10.437   1.674  0.0536 -0.4087  0.4465
  698MOL0     C92035   2.735  10.486   1.653 -1.6422  0.0799 -0.3587
  698MOL0     C92036   2.702  10.616   1.604 -0.3201 -0.8336 -1.6135
  698MOL0     C92037   2.568  10.647   1.579  0.3266  0.2097  0.0409
  698MOL0     C92038   2.466  10.553   1.588 -0.8170 -0.3155  0.4572
  698MOL0     O92039   2.345  10.589   1.560 -0.1315 -0.7098 -0.3908
  698MOL0     C92040   2.243  10.485   1.551  0.6811 -0.2835 -0.5449
  698MOL0     C92041   2.128  10.555   1.471  0.2349 -0.5397 -0.5918
  698MOL0     C92042   2.067  10.668   1.555 -0.2968  0.5308  0.3354
  698MOL0     C92043   1.938  10.724   1.498  0.1082 -0.2183  0.5664
  698MOL0     C92044   1.885  10.828   1.596  0.2352  0.3122  0.7007
  698MOL0     C92045   1.749  10.893   1.542 -0.4469  0.7633  0.5724
  698MOL0     C92046   1.699  11.002   1.632 -1.2042 -0.2714  0.8166
  698MOL0     C92047   1.675  10.971   1.785 -0.3613  0.3662 -0.0019
  698MOL0    Cl92048   1.537  10.869   1.787 -0.2303  0.1680  0.0273
  698MOL0     C92049   2.503  10.422   1.641  0.5181 -0.5361  1.0431
  698MOL0     C92050   2.634  10.390   1.664 -0.6407  0.1083  0.4324
  698MOL0     O92051   2.935  10.597   1.817 -0.1112  0.2917 -0.5430
  698MOL0     C92052   3.106  10.302   1.699  0.5038 -0.2661  1.6562
  698MOL0     C92053   3.236  10.251   1.694  0.2307  0.2586  0.7575
  698MOL0     N92054   3.837  10.318   2.031 -0.7253 -0.1504  1.2113
  698MOL0     N92055   3.922  10.265   2.113 -0.6489  0.4362  0.2977
  698MOL0     C92056   4.985  10.502   1.790 -0.4811  0.4399  0.2958
  698MOL0     C92057   5.112  10.559   1.780 -0.2756  0.4635 -0.0116
  698MOL0     C92058   5.414  10.883   1.602  0.0179  0.2120  1.2352
  698MOL0     C92059   5.451  11.018   1.638  1.0094 -0.4722  0.3689
  698MOL0     C92060   5.578  11.065   1.621 -0.9977  0.2982 -0.3153
  698MOL0     C92061   5.675  10.985   1.559  0.0458 -0.2304 -0.0976
  698MOL0     O92062   5.797  11.042   1.550 -0.4635 -0.4042  0.1541
  698MOL0     C92063   5.902  11.007   1.456  0.1262  1.0273 -0.5979
  698MOL0     C92064   5.992  10.908   1.532  0.3871  0.1910  0.2434
  698MOL0     C92065   6.036  10.954   1.672  0.0838 -0.4984  0.1376
  698MOL0     C92066   6.130  11.073   1.663 -0.7286 -0.0229 -0.4978
  698MOL0     C92067   6.268  11.042   1.594 -0.2106  1.2199  0.5432
  698MOL0     C92068   6.381  11.013   1.556  0.5174  0.4639  0.4225
  698MOL0     C92069   5.644  10.856   1.523 -0.2676 -1.3706 -0.0547
  698MOL0     C92070   5.517  10.802   1.546  0.2614 -0.3705  0.5863
  698MOL0     H92071   5.078  10.730   1.488  1.8080  1.4020  1.2541
  698MOL0     H92072   4.863  10.605   1.496  0.2424  0.9070 -1.5639
  698MOL0     H92073   4.640  10.503   1.842  1.0185 -1.0125  1.4916
  698MOL0     H92074   4.742  10.356   1.855  0.9430 -0.2857 -2.3181
  698MOL0     H92075   4.635  10.233   1.682  0.9821 -0.1639  1.8247
  698MOL0     H92076   4.548  10.390   1.638 -1.9572 -0.3143  0.8112
  698MOL0     H92077   4.382  10.273   1.736 -0.3727  5.6543 -1.6777
  698MOL0     H92078   4.438  10.368   1.865  0.5683 -1.6898  1.1249
  698MOL0     H92079   4.497  10.064   1.815 -0.3339  2.0483 -2.4561
  698MOL0     H92080   4.612  10.157   1.910  0.6737  1.7110  0.6143
  698MOL0     H92081   4.455  10.194   2.079 -1.0254 -0.3513 -0.1613
  698MOL0     H92082   4.468  10.032   2.058 -0.8068  1.2651 -0.2197
  698MOL0     H92083   4.240  10.041   1.929  0.8263  0.5153 -0.0167
  698MOL0     H92084   4.253  10.212   1.951  0.9004  0.4282 -0.0577
  698MOL0     H92085   4.258  10.006   2.182 -1.6399 -2.6433 -0.0291
  698MOL0     H92086   4.221  10.188   2.188  0.3416  0.0533 -0.0406
  698MOL0     H92087   4.032  10.051   2.217 -1.4028  2.7086 -0.0226
  698MOL0     H92088   4.061   9.971   2.055  2.6876 -0.3151  0.7719
  698MOL0     H92089   3.985  10.091   1.839  0.9038 -0.7223  0.2175
  698MOL0     H92090   3.849  10.377   1.715 -0.9944  2.5255  0.4001
  698MOL0     H92091   3.702  10.357   1.804  0.4253 -0.2248 -2.1471
  698MOL0     H92092   3.722  10.089   1.750  1.0098 -0.1491  0.8317
  698MOL0     H92093   3.835  10.160   1.629 -0.9084 -1.6931 -0.0759
  698MOL0     H92094   3.630  10.313   1.561  0.0854 -0.7468 -2.3388
  698MOL0     H92095   3.648  10.145   1.512  2.3790  1.8309 -1.4421
  698MOL0     H92096   3.506  10.071   1.679 -1.3161  0.5396 -0.2780
  698MOL0     H92097   3.432  10.183   1.563 -1.8010  3.5141  1.4453
  698MOL0     H92098   3.387  10.451   1.922  0.0474  0.9544 -0.6071
  698MOL0     H92099   3.156  10.555   1.907 -0.7516 -0.8336  0.9435
  698MOL0     H92100   2.774  10.697   1.601 -0.9250 -0.2089 -0.3447
  698MOL0     H92101   2.549  10.748   1.544 -2.1393 -0.0801  0.3591
  698MOL0     H92102   2.220  10.461   1.656  0.7970  0.7622 -0.2713
  698MOL0     H92103   2.284  10.397   1.500  2.3347  0.7273 -1.0341
  698MOL0     H92104   2.044  10.494   1.437 -0.6453  0.9538 -1.2095
  698MOL0     H92105   2.168  10.591   1.376  0.1334 -4.0895 -2.1194
  698MOL0     H92106   2.144  10.744   1.570  1.0923 -1.2211  2.8381
  698MOL0     H92107   2.037  10.623   1.650 -1.4166  0.3143 -0.1123
  698MOL0     H92108   1.948  10.765   1.397  3.2820 -0.3111  0.7535
  698MOL0     H92109   1.869  10.639   1.499 -0.9576  0.6112 -0.3638
  698MOL0     H92110   1.953  10.914   1.604  0.4160  0.3609 -1.0070
  698MOL0     H92111   1.874  10.783   1.695  0.1615 -0.7280  0.2319
  698MOL0     H92112   1.672  10.819   1.522  1.5759 -0.6379 -2.8997
  698MOL0     H92113   1.772  10.938   1.445 -2.2496  0.0433 -0.2266
  698MOL0     H92114   1.774  11.081   1.629  0.5504 -1.8628 -1.8275
  698MOL0     H92115   1.606  11.044   1.592 -0.2782  2.4094  1.2632
  698MOL0     H92116   1.654  11.050   1.858 -3.8691 -1.1702  0.9019
  698MOL0     H92117   1.766  10.917   1.813 -0.2881 -0.7499 -2.2409
  698MOL0     H92118   2.438  10.339   1.666  0.3263 -0.9711 -0.7673
  698MOL0     H92119   2.659  10.297   1.715  0.8193  0.1129 -0.2121
  698MOL0     H92120   3.037  10.250   1.633  1.7673  0.0617  0.0162
  698MOL0     H92121   3.258  10.175   1.619  3.4403  0.3331  1.4572
  698MOL0     H92122   4.941  10.438   1.866 -2.5071  1.2543 -0.1208
  698MOL0     H92123   5.194  10.523   1.842 -2.5804 -2.7215  1.4670
  698MOL0     H92124   5.370  11.074   1.684  0.2406  1.7340 -3.2981
  698MOL0     H92125   5.604  11.166   1.652  1.9301 -0.4094 -0.1895
  698MOL0     H92126   5.971  11.081   1.414  2.0934 -1.0467 -1.2413
  698MOL0     H92127   5.861  10.953   1.370 -2.1701  2.2859 -0.3806
  698MOL0     H92128   5.937  10.814   1.548  0.1795 -0.1713 -2.2592
  698MOL0     H92129   6.079  10.892   1.469  1.2529  2.5849  0.7354
  698MOL0     H92130   6.084  10.867   1.718  0.9023 -2.3369 -3.8002
  698MOL0     H92131   5.953  10.987   1.736  0.0775  1.7401 -0.9296
  698MOL0     H92132   6.084  11.156   1.609 -0.9138  0.0604 -0.2152
  698MOL0     H92133   6.151  11.100   1.767 -1.3025  0.3957 -0.4878
  698MOL0     H92134   6.478  10.975   1.531  0.3929  0.5076 -0.1406
  698MOL0     H92135   5.720  10.789   1.484  1.9226 -0.1669  1.9243
  698MOL0     H92136   5.487  10.710   1.498  1.3291  0.3824 -1.6634
  699MOL0     O92137  10.396   9.172  10.472 -0.5055  0.1766  0.0286
  699MOL0     C92138  10.494   9.175  10.399 -0.1062 -0.3969 -0.5020
  699MOL0     O92139  10.494   9.233  10.279  0.2262 -0.6709  0.2698
  699MOL0     C92140  10.378   9.297  10.229  0.1809 -0.3537  0.8196
  699MOL0     C92141  10.272   9.228  10.150 -0.7512  0.4169 -0.0125
  699MOL0     C92142  10.158   9.301  10.115  0.5293  0.6693 -0.6107
  699MOL0     C92143  10.142   9.439  10.148  0.4205 -0.9918 -0.5505
  699MOL0     O92144  10.032   9.518  10.109 -0.4081 -0.7034  0.0991
  699MOL0     C92145   9.977   9.488   9.988  0.0951 -0.5093  0.4245
  699MOL0     C92146   9.880   9.607   9.949  0.1698 -1.0814  1.2715
  699MOL0     C92147   9.748   9.581  10.014  0.7853  0.1842 -0.2459
  699MOL0     C92148   9.637   9.681   9.980 -0.3291  0.1445 -0.1749
  699MOL0     C92149   9.506   9.653  10.056  0.9575 -0.4485  0.0918
  699MOL0     C92150   9.456   9.511  10.036 -0.8246  0.7715  0.4148
  699MOL0     C92151   9.314   9.500  10.096 -0.1695 -0.2315 -0.5547
  699MOL0     C92152   9.310   9.448  10.246 -1.5750  0.0202  0.2168
  699MOL0     N92153   9.174   9.445  10.299 -0.0779 -0.5146  0.0826
  699MOL0     C92154   9.089   9.549  10.335 -0.5164  0.0939  0.1553
  699MOL0     C92155   8.964   9.496  10.336 -0.5013 -0.0362  0.2132
  699MOL0     C92156   8.838   9.559  10.389  0.2552  0.2675  0.8955
  699MOL0     C92157   8.802   9.510  10.527  0.1123 -0.9080  0.2333
  699MOL0     C92158   8.681   9.596  10.575 -0.1226  0.3706 -0.0436
  699MOL0     C92159   8.573   9.508  10.645 -1.2259 -0.6721  0.6432
  699MOL0     O92160   8.484   9.595  10.720 -0.6665  0.1741  0.3631
  699MOL0     C92161   8.392   9.645  10.637  0.1275  0.1109  0.0609
  699MOL0     C92162   8.401   9.773  10.575  0.6044  0.3203 -0.1805
  699MOL0     C92163   8.294   9.823  10.506 -0.9133 -0.2754  0.1935
  699MOL0     C92164   8.168   9.757  10.511  0.3137 -0.5555  0.1274
  699MOL0     C92165   8.038   9.821  10.462  0.3736 -0.2253 -0.1751
  699MOL0     O92166   7.913   9.766  10.487 -0.4082 -0.0646 -0.1247
  699MOL0     C92167   7.807   9.814  10.415  0.0782  0.6770 -0.2687
  699MOL0     C92168   7.726   9.926  10.447  0.1134 -0.5440  0.2263
  699MOL0     C92169   7.616   9.963  10.366 -0.6182 -0.2126  0.8837
  699MOL0     C92170   7.591   9.900  10.244 -0.2576 -0.3008 -0.5408
  699MOL0     O92171   7.482   9.935  10.160 -0.0282  0.1723 -0.0988
  699MOL0     C92172   7.394  10.040  10.209 -0.1316  0.0879 -0.4536
  699MOL0     C92173   7.295  10.071  10.090 -0.2653 -0.1592 -0.3580
  699MOL0     C92174   7.170   9.984  10.099  0.3488  0.3205 -0.0265
  699MOL0     C92175   7.050  10.057  10.041 -0.1266 -0.1195 -0.7006
  699MOL0     C92176   6.918   9.977  10.045  0.0697  0.5235  0.1388
  699MOL0     C92177   6.807  10.075   9.993 -0.7351  0.7560  0.4439
  699MOL0     C92178   6.662  10.027  10.029  0.1340  0.3340  0.8553
  699MOL0     C92179   6.557  10.111   9.946 -0.1834  0.2174  0.3139
  699MOL0    Cl92180   6.529  10.260  10.036  0.0749  0.0864  0.3087
  699MOL0     C92181   7.676   9.788  10.216  0.5508 -0.6715  0.5315
  699MOL0     C92182   7.776   9.743  10.297  0.0791 -0.3176 -0.5276
  699MOL0     O92183   8.066   9.920  10.392 -0.5411  0.2995 -0.9200
  699MOL0     C92184   8.161   9.628  10.571  0.4776  0.1987 -0.6940
  699MOL0     C92185   8.273   9.573  10.631  0.8316 -0.7397 -0.0279
  699MOL0     N92186   8.974   9.360  10.310 -0.1039  0.7446  0.2031
  699MOL0     N92187   9.100   9.333  10.298 -0.0524 -0.4676 -0.0217
  699MOL0     C92188  10.237   9.499  10.222  0.3548  0.3678 -0.3173
  699MOL0     C92189  10.352   9.432  10.252 -0.2190  0.1375 -0.6159
  699MOL0     C92190  10.617   9.102  10.438 -0.7299 -0.2962  0.4882
  699MOL0     C92191  10.723   9.067  10.347  0.3234  0.1137  0.0154
  699MOL0     C92192  10.837   9.011  10.408 -0.3531 -0.1674 -0.2234
  699MOL0     C92193  10.849   8.987  10.543  0.3793 -0.4109  0.2864
  699MOL0     O92194  10.970   8.953  10.580 -1.0243  0.0195  0.5347
  699MOL0     C92195  10.990   8.812  10.615 -0.4347 -0.9522 -0.1042
  699MOL0     C92196  11.130   8.784  10.676 -0.4644 -0.1043 -0.0726
  699MOL0     C92197  11.249   8.854  10.587  0.3934  0.0487 -0.5737
  699MOL0     C92198  11.335   8.764  10.496  0.9645  0.0959  0.4441
  699MOL0     C92199  11.427   8.679  10.580 -0.0131 -0.0191  0.8545
  699MOL0     C92200  11.515   8.611  10.637  0.2814 -0.5982 -0.6842
  699MOL0     C92201  10.738   9.010  10.626  0.2781 -0.3952 -0.5350
  699MOL0     C92202  10.617   9.055  10.569 -0.5808  0.8549  0.9061
  699MOL0     H92203  10.274   9.120  10.141  0.5142  0.5208 -1.4967
  699MOL0     H92204  10.075   9.243  10.078  1.5758 -2.4678  1.4916
  699MOL0     H92205   9.913   9.400   9.999 -0.7038  0.1052  0.9109
  699MOL0     H92206  10.055   9.479   9.912 -0.8724 -0.6627 -0.5786
  699MOL0     H92207   9.863   9.617   9.841  1.2887  3.5741  1.3343
  699MOL0     H92208   9.916   9.704   9.984 -0.9574 -0.9915  2.2534
  699MOL0     H92209   9.746   9.582  10.123 -2.2846  1.9140 -0.2004
  699MOL0     H92210   9.714   9.482   9.981  0.1605  0.9500 -2.0038
  699MOL0     H92211   9.670   9.779  10.016 -1.4757  0.0031  1.3648
  699MOL0     H92212   9.618   9.692   9.873 -2.5225  0.2914  0.1735
  699MOL0     H92213   9.427   9.727  10.035 -0.5342 -1.5624  1.4747
  699MOL0     H92214   9.509   9.662  10.165  0.0101  1.3244  0.0103
  699MOL0     H92215   9.502   9.428  10.090 -1.8569 -2.0789 -2.7178
  699MOL0     H92216   9.467   9.481   9.931  0.3410 -1.5616  1.1219
  699MOL0     H92217   9.244   9.582  10.076  0.5127  0.7589  0.9441
  699MOL0     H92218   9.270   9.419  10.038  1.3505 -1.6900  0.2594
  699MOL0     H92219   9.359   9.536  10.290 -2.4526  0.8237 -0.3711
  699MOL0     H92220   9.375   9.360  10.253  1.5463  2.1111 -0.1562
  699MOL0     H92221   9.127   9.650  10.347  1.6986 -0.2946 -2.5366
  699MOL0     H92222   8.745   9.549  10.332 -0.3830  0.1185  1.9313
  699MOL0     H92223   8.862   9.666  10.400 -1.2990  0.7002  0.3402
  699MOL0     H92224   8.887   9.513  10.594  1.5472  2.1127 -1.5332
  699MOL0     H92225   8.776   9.405  10.511  2.2427 -1.5785  0.8701
  699MOL0     H92226   8.723   9.672  10.641  0.0331  1.4316 -1.3191
  699MOL0     H92227   8.634   9.654  10.495  1.0838  0.2898 -0.8304
  699MOL0     H92228   8.627   9.449  10.719  0.3914  1.6892  1.4552
  699MOL0     H92229   8.531   9.445  10.565  2.4634 -0.9273 -1.2840
  699MOL0     H92230   8.498   9.822  10.578  1.6476 -1.6727  0.6022
  699MOL0     H92231   8.310   9.916  10.453  1.5287  0.0692  1.3651
  699MOL0     H92232   7.754   9.995  10.526  0.7237  1.2252 -1.4506
  699MOL0     H92233   7.561  10.043  10.414  3.5993  3.2521  0.6307
  699MOL0     H92234   7.462  10.122  10.232 -0.0925  0.3512 -1.5029
  699MOL0     H92235   7.343  10.010  10.302  0.5048 -1.9863 -0.7248
  699MOL0     H92236   7.333  10.048   9.990 -1.7300 -0.4638 -0.8601
  699MOL0     H92237   7.265  10.176  10.101 -2.6937 -0.8107 -0.3608
  699MOL0     H92238   7.143   9.975  10.204  1.5723 -3.0206  0.1270
  699MOL0     H92239   7.192   9.887  10.054  2.5031  1.0639 -0.7512
  699MOL0     H92240   7.041  10.148  10.101  0.0893  0.1449 -1.0648
  699MOL0     H92241   7.070  10.090   9.939  2.3236  1.0922  0.0995
  699MOL0     H92242   6.893   9.927  10.139  0.7684 -4.1337 -1.8607
  699MOL0     H92243   6.932   9.892   9.977  0.7447  0.1941  0.6857
  699MOL0     H92244   6.819  10.068   9.885 -2.7028  0.3395  0.2038
  699MOL0     H92245   6.828  10.178  10.023 -0.8598  0.1240  2.8847
  699MOL0     H92246   6.656   9.919  10.015  4.9438 -0.2838  1.8108
  699MOL0     H92247   6.646  10.044  10.136 -1.6817  0.4714  0.6052
  699MOL0     H92248   6.466  10.051   9.931 -0.8371  1.3305 -0.3128
  699MOL0     H92249   6.606  10.125   9.849 -1.5045 -2.1086 -0.7881
  699MOL0     H92250   7.655   9.740  10.121  1.0750  2.1699 -1.1492
  699MOL0     H92251   7.861   9.676  10.280  1.5976  0.5392  2.9103
  699MOL0     H92252   8.071   9.569  10.578 -0.7786  2.0122 -0.7736
  699MOL0     H92253   8.259   9.470  10.660 -0.0757 -0.2238  1.4531
  699MOL0     H92254  10.220   9.600  10.257 -0.0743  0.3263 -0.3899
  699MOL0     H92255  10.430   9.480  10.310 -0.2089  1.3717 -1.6134
  699MOL0     H92256  10.725   9.106  10.246  2.0204 -0.9404 -0.3997
  699MOL0     H92257  10.933   8.997  10.357  0.0174 -0.4468  0.5389
  699MOL0     H92258  10.979   8.740  10.533 -3.2529 -2.3720  1.4172
  699MOL0     H92259  10.918   8.781  10.690  1.2254  0.5878  2.2555
  699MOL0     H92260  11.124   8.822  10.778  0.7613 -0.4627  0.1482
  699MOL0     H92261  11.139   8.675  10.677 -0.8015 -0.1367  1.8085
  699MOL0     H92262  11.320   8.911  10.648  2.1210 -2.0491 -0.5133
  699MOL0     H92263  11.204   8.933  10.527 -0.2392 -1.4639 -2.1698
  699MOL0     H92264  11.282   8.693  10.431  0.5835 -0.4013  1.2827
  699MOL0     H92265  11.392   8.839  10.440  2.1714 -0.2861  1.1341
  699MOL0     H92266  11.589   8.545  10.679  0.9805  2.5106  3.6901
  699MOL0     H92267  10.755   8.991  10.732  0.3886 -2.0761 -0.8309
  699MOL0     H92268  10.536   9.077  10.638 -1.3218  1.3264 -0.0957
  700MOL0     O92269   1.317   4.611   2.038  0.3117  0.4214  0.1545
  700MOL0     C92270   1.339   4.733   2.025  0.2557  0.1918 -0.1820
  700MOL0     O92271   1.235   4.834   2.034  0.1311 -0.3891  0.0606
  700MOL0     C92272   1.116   4.784   2.085  0.9415  0.3594 -0.3130
  700MOL0     C92273   1.088   4.767   2.224  0.3923  0.1372  0.6678
  700MOL0     C92274   0.977   4.700   2.276 -0.6412 -0.6493 -0.0309
  700MOL0     C92275   0.878   4.653   2.195 -0.4974  0.1155  0.0953
  700MOL0     O92276   0.770   4.582   2.236  0.1856 -0.1942 -0.4033
  700MOL0     C92277   0.783   4.497   2.353  0.2232  0.0363  0.6583
  700MOL0     C92278   0.652   4.419   2.372 -0.0029 -0.1082 -0.8288
  700MOL0     C92279   0.653   4.313   2.483  0.7835 -0.2523  0.3885
  700MOL0     C92280   0.516   4.242   2.470  0.5454  0.1364 -0.4187
  700MOL0     C92281   0.454   4.199   2.601 -0.6346  0.2692  0.0317
  700MOL0     C92282   0.334   4.103   2.581 -0.4194 -0.1773 -0.0226
  700MOL0     C92283   0.261   4.080   2.708  0.7666 -0.5514  0.1942
  700MOL0     C92284   0.171   3.948   2.693 -0.0687  1.0506 -0.2168
  700MOL0     N92285   0.067   3.922   2.802 -0.8321 -1.0517 -0.1988
  700MOL0     C92286   0.087   3.911   2.935  0.0489 -0.0502 -0.8660
  700MOL0     C92287  -0.034   3.892   3.001 -0.7808  0.0077  0.0872
  700MOL0     C92288  -0.067   3.878   3.143 -0.4651 -0.5258  0.3342
  700MOL0     C92289  -0.180   3.784   3.174 -0.5147 -0.0960  0.4639
  700MOL0     C92290  -0.208   3.780   3.330  1.1049  0.7513  0.1347
  700MOL0     C92291  -0.275   3.906   3.391 -0.0983 -1.2614 -0.2747
  700MOL0     O92292  -0.246   3.898   3.538  0.2894 -0.9597 -0.8372
  700MOL0     C92293  -0.315   3.975   3.622  0.5593  0.6330 -0.5289
  700MOL0     C92294  -0.296   3.945   3.763 -0.3625 -0.0382  0.9531
  700MOL0     C92295  -0.344   4.024   3.860  0.3229 -0.4901 -0.1927
  700MOL0     C92296  -0.411   4.142   3.838 -0.4897 -0.6146  0.7509
  700MOL0     C92297  -0.439   4.237   3.945 -0.8112 -0.0369  0.0073
  700MOL0     O92298  -0.513   4.355   3.922  0.6262  0.8266  0.1217
  700MOL0     C92299  -0.570   4.415   4.030 -0.3068 -0.6719  0.6094
  700MOL0     C92300  -0.494   4.506   4.110  0.8436  0.5599 -0.3424
  700MOL0     C92301  -0.556   4.564   4.215 -1.1307  0.3736  0.0855
  700MOL0     C92302  -0.686   4.534   4.252  0.3667 -0.2289 -0.5686
  700MOL0     O92303  -0.724   4.596   4.368 -0.1466 -0.4814 -0.1002
  700MOL0     C92304  -0.865   4.638   4.387 -0.9617  0.2633  0.7652
  700MOL0     C92305  -0.887   4.635   4.535 -0.5273  0.1058  0.0683
  700MOL0     C92306  -1.020   4.697   4.561  0.8153  0.6799  0.5890
  700MOL0     C92307  -1.038   4.751   4.696  0.1369 -0.4306  0.1558
  700MOL0     C92308  -1.181   4.803   4.724  0.1560  0.4626  0.5364
  700MOL0     C92309  -1.187   4.904   4.844 -0.5887  0.5061 -0.3279
  700MOL0     C92310  -1.324   4.914   4.899 -0.8651  0.0318 -0.0006
  700MOL0     C92311  -1.338   5.012   5.014  0.2770 -0.5506 -0.8806
  700MOL0    Cl92312  -1.510   5.025   5.062 -0.2675 -0.1352  0.0143
  700MOL0     C92313  -0.759   4.438   4.176  0.2488 -0.5398 -0.0808
  700MOL0     C92314  -0.703   4.380   4.061  0.1592 -0.1555 -0.2481
  700MOL0     O92315  -0.388   4.205   4.049 -0.1454 -0.2524  0.1804
  700MOL0     C92316  -0.448   4.167   3.704 -0.1579 -1.3731 -0.4039
  700MOL0     C92317  -0.392   4.090   3.599  1.3636  0.7189  0.3498
  700MOL0     N92318  -0.128   3.894   2.901 -0.0592 -0.4960  0.4758
  700MOL0     N92319  -0.069   3.904   2.787  0.4833  0.2562  0.0599
  700MOL0     C92320   0.894   4.664   2.063  0.1646  0.2034 -0.5796
  700MOL0     C92321   1.004   4.727   2.000  0.5410 -0.6915  0.6001
  700MOL0     C92322   1.477   4.774   2.012  0.0528  1.1176  0.1897
  700MOL0     C92323   1.584   4.684   1.999  0.3591  0.1359  0.2532
  700MOL0     C92324   1.719   4.729   1.986 -0.3710  0.7275  0.3282
  700MOL0     C92325   1.744   4.869   1.975  0.6909  0.7551  0.9230
  700MOL0     O92326   1.861   4.927   1.964  0.4115  0.0386  0.5301
  700MOL0     C92327   1.968   4.844   1.915 -0.2720  0.0638 -0.2941
  700MOL0     C92328   2.038   4.761   2.032 -0.2628  0.3196  0.6232
  700MOL0     C92329   2.129   4.660   1.967 -0.5203  0.5453 -0.1131
  700MOL0     C92330   2.251   4.713   1.892 -0.8374 -0.4000  0.0904
  700MOL0     C92331   2.345   4.752   1.999  0.5451 -0.1835 -0.9652
  700MOL0     C92332   2.421   4.765   2.097  0.4265  0.2275  0.1301
  700MOL0     C92333   1.637   4.956   1.975 -0.1448  0.0489  0.4137
  700MOL0     C92334   1.508   4.915   2.002  0.4883 -0.5046 -0.7337
  700MOL0     H92335   1.165   4.808   2.288 -0.6413 -0.8916  2.6755
  700MOL0     H92336   0.972   4.683   2.383  2.5200  1.6241  0.6491
  700MOL0     H92337   0.804   4.554   2.444 -2.7366 -0.1343  1.5270
  700MOL0     H92338   0.866   4.426   2.338  0.8540 -0.1975  4.3089
  700MOL0     H92339   0.640   4.361   2.280  0.4301  1.9049 -2.2218
  700MOL0     H92340   0.566   4.481   2.400  1.4119  0.3926  3.1002
  700MOL0     H92341   0.663   4.366   2.578  2.0375  1.9268 -0.8751
  700MOL0     H92342   0.738   4.245   2.481  0.2511 -0.9648  1.0110
  700MOL0     H92343   0.452   4.309   2.413  1.3782  0.7335 -0.6591
  700MOL0     H92344   0.538   4.148   2.419  0.8703 -1.2851  2.1815
  700MOL0     H92345   0.425   4.285   2.663  3.3888  0.4159  2.0316
  700MOL0     H92346   0.530   4.140   2.652 -1.4032 -1.2069 -0.4722
  700MOL0     H92347   0.371   4.015   2.528 -1.1194 -1.6075  1.7598
  700MOL0     H92348   0.269   4.161   2.515 -1.0841  1.3092  1.8380
  700MOL0     H92349   0.332   4.066   2.791  5.0211 -0.5043 -3.0994
  700MOL0     H92350   0.192   4.164   2.721  0.8904 -0.4868  0.4529
  700MOL0     H92351   0.236   3.861   2.679 -1.3735  0.3407 -2.4040
  700MOL0     H92352   0.114   3.950   2.599 -3.5691 -1.7555  1.5976
  700MOL0     H92353   0.180   3.911   2.992 -1.6079 -1.7571  2.0882
  700MOL0     H92354  -0.092   3.978   3.181  1.4391  0.1275  0.0005
  700MOL0     H92355   0.026   3.854   3.195  0.0508  4.4738  2.2651
  700MOL0     H92356  -0.161   3.682   3.140  3.7611 -0.1439  2.3479
  700MOL0     H92357  -0.266   3.814   3.114  0.8376 -1.7382 -2.5294
  700MOL0     H92358  -0.259   3.689   3.364  2.8627  0.4679  2.2494
  700MOL0     H92359  -0.109   3.765   3.375  1.4313  1.2812 -0.3945
  700MOL0     H92360  -0.381   3.921   3.368 -0.2759  1.9350  1.9899
  700MOL0     H92361  -0.218   3.991   3.352  3.8157 -3.4108  0.2590
  700MOL0     H92362  -0.252   3.850   3.791 -2.0529 -1.5327 -1.1356
  700MOL0     H92363  -0.320   3.989   3.960  0.3269  1.2610  0.4621
  700MOL0     H92364  -0.389   4.524   4.088  1.6878  0.8082  3.2881
  700MOL0     H92365  -0.505   4.628   4.286 -1.8421  0.8798  0.1442
  700MOL0     H92366  -0.932   4.563   4.343 -1.4095 -0.1125  2.0340
  700MOL0     H92367  -0.883   4.733   4.337 -0.6531 -1.4667 -2.9918
  700MOL0     H92368  -0.807   4.675   4.599  1.9852 -0.9556 -2.2052
  700MOL0     H92369  -0.869   4.535   4.574  0.9053  1.0820  2.0606
  700MOL0     H92370  -1.100   4.627   4.535  2.2153 -0.2252 -1.4365
  700MOL0     H92371  -1.035   4.787   4.501  0.8658  0.7668  0.7052
  700MOL0     H92372  -1.018   4.670   4.766 -0.0397  0.6222  1.4769
  700MOL0     H92373  -0.961   4.829   4.700  2.7161 -2.6883 -1.6599
  700MOL0     H92374  -1.249   4.720   4.745 -1.6922  1.0959 -2.3510
  700MOL0     H92375  -1.214   4.864   4.639  1.5104  1.4178  0.6776
  700MOL0     H92376  -1.142   5.000   4.818 -1.6781  1.3302  0.7171
  700MOL0     H92377  -1.124   4.873   4.928  1.4757 -0.8884 -2.2694
  700MOL0     H92378  -1.389   4.945   4.817 -1.0703  0.8848  0.4626
  700MOL0     H92379  -1.362   4.818   4.935  0.2045  0.3433  2.1408
  700MOL0     H92380  -1.306   5.113   4.986 -0.0046 -0.7402 -1.9338
  700MOL0     H92381  -1.281   4.997   5.106 -0.8922 -1.1336 -0.2201
  700MOL0     H92382  -0.858   4.403   4.201  0.4250 -0.8314  0.2155
  700MOL0     H92383  -0.748   4.296   4.008 -3.9428  1.4966  0.2089
  700MOL0     H92384  -0.517   4.248   3.684 -0.9189 -1.4397  1.7229
  700MOL0     H92385  -0.413   4.116   3.496  2.7881  3.7283  0.7163
  700MOL0     H92386   0.804   4.633   2.012 -2.1211  1.8460  2.1819
  700MOL0     H92387   1.011   4.738   1.892 -1.6718  1.6017  0.5836
  700MOL0     H92388   1.546   4.582   2.004 -2.8627  1.0904 -1.6514
  700MOL0     H92389   1.789   4.646   1.985  1.9182  2.5635 -0.1530
  700MOL0     H92390   2.051   4.905   1.877  0.2637  1.1570  2.3926
  700MOL0     H92391   1.939   4.784   1.829  1.6433  1.9158 -2.3628
  700MOL0     H92392   2.085   4.818   2.112 -1.2213  1.2227  0.5695
  700MOL0     H92393   1.962   4.707   2.089  0.6164  0.8980  2.4127
  700MOL0     H92394   2.071   4.604   1.894 -2.3975  0.3849  1.3992
  700MOL0     H92395   2.154   4.586   2.043 -0.4243 -1.8578 -2.3657
  700MOL0     H92396   2.293   4.632   1.831 -2.4464 -1.0501 -0.2249
  700MOL0     H92397   2.237   4.796   1.822  2.5826 -1.8191 -2.5434
  700MOL0     H92398   2.487   4.782   2.179  2.9021 -0.0886 -1.6689
  700MOL0     H92399   1.660   5.056   1.941 -2.1731 -0.6622 -3.6416
  700MOL0     H92400   1.439   4.998   1.997  0.4277 -0.3132  1.7453
  701MOL0     O92401   7.376   1.121   7.399 -0.4139  0.3084  0.0245
  701MOL0     C92402   7.415   1.076   7.298 -0.2214  0.6227  0.1708
  701MOL0     O92403   7.336   1.041   7.193 -0.4021 -0.3568 -0.4629
  701MOL0     C92404   7.198   1.047   7.205  0.3025 -0.4077 -0.7214
  701MOL0     C92405   7.130   1.004   7.317 -0.3517  0.1142  0.0870
  701MOL0     C92406   6.992   0.986   7.320 -0.0625  0.8745 -0.0803
  701MOL0     C92407   6.915   1.031   7.207  0.6923 -0.9892 -0.1174
  701MOL0     O92408   6.775   1.032   7.217  0.5171  0.7511  0.0348
  701MOL0     C92409   6.717   0.923   7.300 -0.0721  0.1240 -1.1125
  701MOL0     C92410   6.567   0.916   7.290 -0.3533  0.2312 -0.0144
  701MOL0     C92411   6.501   0.823   7.385 -0.5255 -0.1644 -0.5545
  701MOL0     C92412   6.354   0.828   7.363  0.0349  0.6762  0.1227
  701MOL0     C92413   6.274   0.733   7.466  0.4574  0.4845 -0.1232
  701MOL0     C92414   6.297   0.583   7.430 -0.5599  0.3921  0.3329
  701MOL0     C92415   6.233   0.488   7.537 -0.4402  0.8100  1.1924
  701MOL0     C92416   6.224   0.343   7.495 -0.8990 -0.5813  0.2737
  701MOL0     N92417   6.159   0.256   7.587  0.2377 -0.6782  0.6901
  701MOL0     C92418   6.029   0.211   7.584  0.5479  0.0168 -0.4213
  701MOL0     C92419   6.007   0.132   7.693  0.9003  0.0838 -0.3551
  701MOL0     C92420   5.869   0.077   7.732  0.7625  0.1704  0.0223
  701MOL0     C92421   5.875  -0.058   7.798  0.7933 -0.1438 -0.3881
  701MOL0     C92422   5.735  -0.137   7.799  0.1873  0.2852  0.2252
  701MOL0     C92423   5.716  -0.246   7.898 -0.0598  0.4802  0.4683
  701MOL0     O92424   5.581  -0.294   7.893  0.0901  0.1136 -0.3631
  701MOL0     C92425   5.544  -0.389   7.983  0.5794  0.9206 -0.4339
  701MOL0     C92426   5.623  -0.441   8.097  0.6786  1.0509 -0.2033
  701MOL0     C92427   5.572  -0.547   8.177  0.9934  0.4212  0.1868
  701MOL0     C92428   5.442  -0.597   8.144 -0.5206 -0.3524 -0.9996
  701MOL0     C92429   5.373  -0.703   8.224 -0.2734 -0.8000 -0.2703
  701MOL0     O92430   5.234  -0.709   8.222  0.5024 -0.2304  0.0724
  701MOL0     C92431   5.177  -0.778   8.331 -0.2093 -0.0130 -0.2634
  701MOL0     C92432   5.057  -0.846   8.307  0.3326 -0.6880  0.4206
  701MOL0     C92433   4.969  -0.877   8.420  0.9443 -0.2147  0.3546
  701MOL0     C92434   5.009  -0.840   8.555 -0.4989 -0.2429 -0.0795
  701MOL0     O92435   4.944  -0.858   8.671  0.6120 -0.2602 -0.1643
  701MOL0     C92436   4.810  -0.907   8.678  0.9347 -0.0008 -1.0598
  701MOL0     C92437   4.809  -1.053   8.725 -0.0025  0.1003 -0.1340
  701MOL0     C92438   4.673  -1.119   8.752  0.1655  0.0996  0.5084
  701MOL0     C92439   4.693  -1.216   8.869 -0.7038  0.0438  0.3609
  701MOL0     C92440   4.607  -1.343   8.871 -0.6665 -0.4282 -0.3399
  701MOL0     C92441   4.456  -1.320   8.880 -0.0941 -0.2380  0.4455
  701MOL0     C92442   4.404  -1.249   9.005  0.5422  1.1270  0.4319
  701MOL0     C92443   4.417  -1.318   9.137  0.0927 -0.1215 -0.0190
  701MOL0    Cl92444   4.280  -1.432   9.147  0.1779  0.6026 -0.4176
  701MOL0     C92445   5.137  -0.775   8.566  0.6327  0.4888 -0.5472
  701MOL0     C92446   5.220  -0.750   8.460  0.4548 -0.3989  0.4384
  701MOL0     O92447   5.459  -0.784   8.270  0.0079  0.4348  0.8005
  701MOL0     C92448   5.367  -0.545   8.043 -0.9638 -0.1916 -0.8687
  701MOL0     C92449   5.416  -0.440   7.968  0.5550  0.5724 -0.7468
  701MOL0     N92450   6.129   0.139   7.765 -0.0129  0.0297 -0.5574
  701MOL0     N92451   6.213   0.215   7.707  0.3088  0.1116  1.1419
  701MOL0     C92452   6.987   1.080   7.101 -0.2100 -0.2459 -0.9145
  701MOL0     C92453   7.123   1.095   7.100 -0.5029 -0.6447  1.1578
  701MOL0     C92454   7.563   1.066   7.284  0.0537 -0.0529  0.7255
  701MOL0     C92455   7.657   1.118   7.378  0.5837 -0.2200  0.9860
  701MOL0     C92456   7.788   1.095   7.366  0.4912 -0.9174 -0.5087
  701MOL0     C92457   7.846   1.022   7.267 -0.0068 -1.0726 -1.0991
  701MOL0     O92458   7.979   1.003   7.256  0.3387  0.3270 -0.7947
  701MOL0     C92459   8.013   0.888   7.326 -0.1735  0.8957 -0.0159
  701MOL0     C92460   8.168   0.873   7.339  0.6576 -0.5209 -0.2583
  701MOL0     C92461   8.231   1.004   7.415  0.9155  0.9143  0.1750
  701MOL0     C92462   8.356   0.977   7.499 -0.4243  1.1746  0.0341
  701MOL0     C92463   8.477   0.960   7.411 -0.7130  0.4688  0.3757
  701MOL0     C92464   8.574   0.938   7.343 -0.8265 -0.1623  0.1022
  701MOL0     C92465   7.759   0.974   7.169 -0.6532  0.7187 -0.1683
  701MOL0     C92466   7.621   0.986   7.182 -0.0475 -0.2678 -0.3380
  701MOL0     H92467   7.175   0.972   7.410 -0.4095  0.5866  0.2765
  701MOL0     H92468   6.950   0.947   7.412 -2.1817  0.9279 -0.9671
  701MOL0     H92469   6.734   0.950   7.405 -2.8392 -0.6106 -0.3885
  701MOL0     H92470   6.762   0.825   7.280  0.1373  0.1254 -0.6575
  701MOL0     H92471   6.554   0.880   7.188  3.1687  0.4985 -0.6917
  701MOL0     H92472   6.532   1.018   7.306  0.9193  0.6554  0.1428
  701MOL0     H92473   6.529   0.846   7.488 -1.0531 -0.2932 -0.3803
  701MOL0     H92474   6.537   0.722   7.367  3.4202  1.2753 -1.7708
  701MOL0     H92475   6.326   0.931   7.387 -0.8195  0.0103  2.2146
  701MOL0     H92476   6.325   0.807   7.260 -0.0719  0.2163  0.2436
  701MOL0     H92477   6.165   0.745   7.462  0.1130 -2.0733  0.1335
  701MOL0     H92478   6.306   0.757   7.568 -0.8860 -2.7647  1.2113
  701MOL0     H92479   6.404   0.563   7.432 -0.5766  0.0153 -1.3175
  701MOL0     H92480   6.261   0.571   7.328 -2.3445  1.4363  0.7724
  701MOL0     H92481   6.286   0.510   7.630 -0.4236  0.5289  1.2490
  701MOL0     H92482   6.127   0.514   7.539 -1.0113 -0.7610 -2.1352
  701MOL0     H92483   6.327   0.308   7.483  1.0053  2.0815  5.7590
  701MOL0     H92484   6.175   0.334   7.398  0.8120  0.4100 -0.7403
  701MOL0     H92485   5.961   0.225   7.501  2.2938  1.1045 -1.7527
  701MOL0     H92486   5.813   0.063   7.639 -2.2378 -3.6720  2.1246
  701MOL0     H92487   5.817   0.161   7.780  1.2172 -1.1314  3.0025
  701MOL0     H92488   5.904  -0.047   7.902 -0.9447  2.2957 -0.0720
  701MOL0     H92489   5.952  -0.108   7.738 -0.4592 -0.4366 -1.8359
  701MOL0     H92490   5.653  -0.064   7.805 -0.1972  0.1728 -2.3698
  701MOL0     H92491   5.723  -0.169   7.695  0.7005 -2.6648  0.9725
  701MOL0     H92492   5.741  -0.201   7.994  0.3374  1.0336  0.1097
  701MOL0     H92493   5.785  -0.325   7.868  0.1201  1.8757 -3.3912
  701MOL0     H92494   5.716  -0.389   8.120  0.0849  2.4381 -0.8161
  701MOL0     H92495   5.628  -0.589   8.259 -0.3112 -0.0777  0.8563
  701MOL0     H92496   5.020  -0.880   8.210  1.6351  0.4949 -0.5308
  701MOL0     H92497   4.871  -0.920   8.400  0.1987  1.1773  0.8815
  701MOL0     H92498   4.755  -0.897   8.584  0.9976 -0.9305 -1.2044
  701MOL0     H92499   4.750  -0.852   8.751 -0.5388  0.4427 -2.5278
  701MOL0     H92500   4.863  -1.053   8.820  0.1881  0.5104 -0.2436
  701MOL0     H92501   4.869  -1.109   8.652 -0.1659  1.8267 -1.6477
  701MOL0     H92502   4.653  -1.173   8.659  2.1011  0.0257  0.0912
  701MOL0     H92503   4.594  -1.052   8.786 -1.5875 -1.8762  0.5485
  701MOL0     H92504   4.792  -1.263   8.876 -1.8931 -2.4935  1.3928
  701MOL0     H92505   4.689  -1.145   8.953  2.2253  1.8497 -0.8804
  701MOL0     H92506   4.640  -1.398   8.960 -2.0599 -0.2018  0.3535
  701MOL0     H92507   4.629  -1.415   8.793 -0.9193 -2.7321  1.5957
  701MOL0     H92508   4.410  -1.419   8.872  1.3588 -0.8625 -0.5996
  701MOL0     H92509   4.416  -1.274   8.790 -1.0350  0.7737  1.3682
  701MOL0     H92510   4.463  -1.157   9.010  1.8120  0.3122  0.7077
  701MOL0     H92511   4.301  -1.216   8.989  0.9662  2.9490  1.2531
  701MOL0     H92512   4.417  -1.244   9.217 -1.4335  0.9631 -0.9679
  701MOL0     H92513   4.520  -1.354   9.146  1.7358  2.1513 -5.4530
  701MOL0     H92514   5.157  -0.747   8.669 -1.5019 -0.7760  0.2829
  701MOL0     H92515   5.305  -0.688   8.485 -1.1679  1.3459  1.9511
  701MOL0     H92516   5.267  -0.579   8.021 -0.6563 -2.1393  0.5258
  701MOL0     H92517   5.352  -0.410   7.885 -4.0610 -0.6245  2.0169
  701MOL0     H92518   6.926   1.114   7.018  0.8676  0.8524 -1.2837
  701MOL0     H92519   7.165   1.156   7.022 -1.4038  1.1915  2.0385
  701MOL0     H92520   7.614   1.175   7.460 -0.2566  0.4754  0.1007
  701MOL0     H92521   7.844   1.146   7.444  1.1907 -0.8636 -1.0332
  701MOL0     H92522   7.968   0.802   7.275 -0.0878  0.9518 -0.1862
  701MOL0     H92523   7.986   0.896   7.431 -2.0504 -1.3145 -0.2574
  701MOL0     H92524   8.177   0.784   7.402  1.5236  0.9246  1.7630
  701MOL0     H92525   8.232   0.861   7.251  1.9593 -0.5208  0.6498
  701MOL0     H92526   8.160   1.059   7.478 -0.9286  0.7353 -1.6245
  701MOL0     H92527   8.246   1.083   7.341 -0.6648  0.6712 -0.4611
  701MOL0     H92528   8.386   1.066   7.555  3.0708  0.8746 -1.1588
  701MOL0     H92529   8.325   0.892   7.560 -1.1431  1.2468 -0.2150
  701MOL0     H92530   8.653   0.916   7.273 -0.0548  3.9659 -0.5882
  701MOL0     H92531   7.798   0.899   7.101 -1.8348 -1.3812  1.3815
  701MOL0     H92532   7.553   0.941   7.110  1.1802 -1.3246 -0.8824
  702MOL0     O92533   0.593   0.521   1.881 -0.2865 -0.0490 -0.5424
  702MOL0     C92534   0.681   0.614   1.876  1.1058 -0.8561 -0.5889
  702MOL0     O92535   0.656   0.742   1.926  0.1033 -0.0522 -0.4075
  702MOL0     C92536   0.529   0.769   1.993 -0.1792  0.1206 -0.6938
  702MOL0     C92537   0.538   0.838   2.112  0.3866  0.0442  0.6185
  702MOL0     C92538   0.423   0.894   2.174  0.1419  0.1896 -0.0014
  702MOL0     C92539   0.295   0.850   2.134 -0.9379 -0.6162 -0.5160
  702MOL0     O92540   0.172   0.872   2.197 -0.9597 -0.2615  0.1608
  702MOL0     C92541   0.181   0.949   2.316 -0.1140  0.1992 -0.2701
  702MOL0     C92542   0.048   0.976   2.382  0.8724 -0.2526 -0.3094
  702MOL0     C92543  -0.021   0.842   2.419  0.9344  0.1803 -0.4848
  702MOL0     C92544  -0.161   0.878   2.472  0.0971 -0.3382  0.1248
  702MOL0     C92545  -0.253   0.758   2.498 -0.1712  0.2960 -0.2463
  702MOL0     C92546  -0.204   0.667   2.606 -0.8264  0.3626  0.0852
  702MOL0     C92547  -0.303   0.548   2.624  0.4583  0.0196 -0.3128
  702MOL0     C92548  -0.452   0.573   2.620  0.1127 -0.4875  0.2681
  702MOL0     N92549  -0.522   0.444   2.624 -0.0952 -0.0651  0.5901
  702MOL0     C92550  -0.498   0.358   2.728  0.5814  0.3224  0.0379
  702MOL0     C92551  -0.583   0.254   2.702 -0.1019 -0.0033 -0.5449
  702MOL0     C92552  -0.596   0.120   2.768  0.1337  0.1039  0.0127
  702MOL0     C92553  -0.676   0.110   2.902  0.2852  0.3644  0.4428
  702MOL0     C92554  -0.618   0.160   3.034 -0.3157  0.0034 -0.0903
  702MOL0     C92555  -0.499   0.071   3.077 -0.4020 -0.0854  0.7638
  702MOL0     O92556  -0.529  -0.057   3.136 -0.1124  0.0972 -0.5196
  702MOL0     C92557  -0.430  -0.121   3.201 -0.2189 -0.5617 -0.6933
  702MOL0     C92558  -0.471  -0.219   3.291 -0.1780  0.3806  0.3632
  702MOL0     C92559  -0.377  -0.291   3.361 -0.0631  0.3351  1.2623
  702MOL0     C92560  -0.241  -0.251   3.357 -0.3726 -0.3370 -0.0386
  702MOL0     C92561  -0.148  -0.311   3.460 -0.0631 -1.1850  0.4723
  702MOL0     O92562  -0.031  -0.247   3.476  0.3814  0.5088  0.0057
  702MOL0     C92563   0.055  -0.302   3.570 -0.5848 -0.0122  0.1038
  702MOL0     C92564   0.102  -0.431   3.565  0.3897  0.4270 -0.2008
  702MOL0     C92565   0.190  -0.479   3.664 -0.2737  0.2484 -0.6134
  702MOL0     C92566   0.236  -0.395   3.776 -0.1640  0.4714  0.3604
  702MOL0     O92567   0.332  -0.423   3.870 -0.0376  0.1521 -0.6755
  702MOL0     C92568   0.395  -0.541   3.869  0.8471  0.8108  0.6249
  702MOL0     C92569   0.492  -0.548   3.972  0.3020  0.1812  0.2537
  702MOL0     C92570   0.553  -0.677   4.004 -0.2671  1.0380  1.0841
  702MOL0     C92571   0.651  -0.656   4.124  0.5971 -0.5741  0.0576
  702MOL0     C92572   0.743  -0.768   4.154 -0.2226  0.9886  0.8979
  702MOL0     C92573   0.690  -0.901   4.213  0.2329  0.2249  0.4739
  702MOL0     C92574   0.650  -0.873   4.358 -0.1996 -0.2524  0.7685
  702MOL0     C92575   0.652  -1.007   4.426  0.7298  0.2058 -0.1268
  702MOL0    Cl92576   0.541  -1.113   4.356  0.2855  0.4374 -0.1374
  702MOL0     C92577   0.183  -0.269   3.779  0.0750 -0.6569  0.2552
  702MOL0     C92578   0.105  -0.217   3.673  0.1819 -0.3461  0.7814
  702MOL0     O92579  -0.195  -0.393   3.544 -0.3239  0.5729 -0.1905
  702MOL0     C92580  -0.193  -0.152   3.274  0.5724 -0.8419 -0.4076
  702MOL0     C92581  -0.289  -0.084   3.189 -0.4026  0.2956  0.3337
  702MOL0     N92582  -0.666   0.283   2.598 -0.5891 -0.6175  0.4759
  702MOL0     N92583  -0.613   0.391   2.542  0.0883  0.9952 -0.0658
  702MOL0     C92584   0.287   0.759   2.029  0.7222 -1.0709 -0.4508
  702MOL0     C92585   0.397   0.719   1.954  0.4744 -0.9939 -0.1599
  702MOL0     C92586   0.817   0.578   1.834 -0.2547 -0.2311 -0.7964
  702MOL0     C92587   0.920   0.676   1.840 -0.2258 -0.7885  0.1558
  702MOL0     C92588   1.055   0.640   1.819 -0.1206 -0.5299 -0.7338
  702MOL0     C92589   1.092   0.505   1.781 -0.7064  0.1261 -0.8692
  702MOL0     O92590   1.221   0.464   1.750  0.0428 -0.6652  0.0879
  702MOL0     C92591   1.320   0.547   1.815  0.2897  0.4755  1.3996
  702MOL0     C92592   1.435   0.450   1.835  0.0464  0.1044 -0.1395
  702MOL0     C92593   1.555   0.539   1.878 -0.0581 -0.4231 -0.4965
  702MOL0     C92594   1.686   0.454   1.901 -0.1879 -0.1513  1.1329
  702MOL0     C92595   1.773   0.515   2.000 -0.3637  0.7734  0.5213
  702MOL0     C92596   1.852   0.553   2.083 -0.1113  0.1082  0.5359
  702MOL0     C92597   0.990   0.414   1.784  0.9836 -0.3835  0.3690
  702MOL0     C92598   0.854   0.447   1.812 -1.1359 -0.2630  1.5617
  702MOL0     H92599   0.638   0.860   2.147  2.0038 -0.8847 -2.9261
  702MOL0     H92600   0.442   0.964   2.256  0.5615 -0.9243  0.8829
  702MOL0     H92601   0.238   1.042   2.318  0.8150 -0.3593  1.4425
  702MOL0     H92602   0.235   0.878   2.380  1.7061  1.6662 -0.0912
  702MOL0     H92603  -0.020   1.032   2.316  0.2484  1.5337  1.7523
  702MOL0     H92604   0.073   1.037   2.469 -0.2978  1.0279 -0.8228
  702MOL0     H92605   0.026   0.799   2.508 -1.8228  0.4519  1.2093
  702MOL0     H92606  -0.038   0.768   2.340 -2.4511 -0.1992  0.4554
  702MOL0     H92607  -0.138   0.931   2.565 -1.1094  1.3421 -0.4945
  702MOL0     H92608  -0.214   0.944   2.403 -1.2328 -2.1487 -0.6741
  702MOL0     H92609  -0.258   0.698   2.407  0.3635  0.3942 -0.3412
  702MOL0     H92610  -0.352   0.798   2.522  0.3376  0.1377  2.4196
  702MOL0     H92611  -0.193   0.734   2.692  1.3387  1.6172 -1.0826
  702MOL0     H92612  -0.101   0.635   2.589 -0.2066  1.9001  0.7438
  702MOL0     H92613  -0.292   0.485   2.535 -3.6700  0.3214 -1.2710
  702MOL0     H92614  -0.270   0.506   2.719  1.4023 -0.3563 -0.8058
  702MOL0     H92615  -0.492   0.627   2.534 -0.7045 -0.9805  0.3272
  702MOL0     H92616  -0.476   0.632   2.710 -1.4255 -1.5985  0.6277
  702MOL0     H92617  -0.415   0.373   2.796  0.6285 -3.2869  0.9605
  702MOL0     H92618  -0.502   0.067   2.783 -0.0908  0.0216  1.2636
  702MOL0     H92619  -0.650   0.056   2.697  1.7754  0.2141 -1.4069
  702MOL0     H92620  -0.717   0.009   2.907  0.6143  0.1269 -1.1744
  702MOL0     H92621  -0.762   0.172   2.876 -2.0716 -2.0607  1.8859
  702MOL0     H92622  -0.581   0.259   3.009  1.5588 -0.8595 -0.9411
  702MOL0     H92623  -0.689   0.159   3.117  0.7520  0.3745  0.8528
  702MOL0     H92624  -0.427   0.134   3.132  0.9272 -1.7544  1.0152
  702MOL0     H92625  -0.447   0.050   2.983 -2.3235  2.5913 -1.0290
  702MOL0     H92626  -0.578  -0.238   3.294 -0.8037  2.7309 -2.2519
  702MOL0     H92627  -0.409  -0.367   3.431 -1.0076  0.8477  1.4083
  702MOL0     H92628   0.076  -0.498   3.484  2.3708  0.5300 -0.9541
  702MOL0     H92629   0.206  -0.586   3.650 -0.7094 -0.0246  0.7959
  702MOL0     H92630   0.430  -0.571   3.770 -0.6154 -1.5254  0.7397
  702MOL0     H92631   0.316  -0.614   3.890 -0.0611  2.5770  4.0006
  702MOL0     H92632   0.454  -0.514   4.069  3.0015 -1.0204  1.8541
  702MOL0     H92633   0.566  -0.479   3.930 -0.3710 -1.0236 -3.2413
  702MOL0     H92634   0.609  -0.717   3.919  1.3167  1.5442  1.8485
  702MOL0     H92635   0.478  -0.753   4.029  0.0985 -0.5915 -2.2111
  702MOL0     H92636   0.713  -0.566   4.116 -0.7842  0.5249  1.1057
  702MOL0     H92637   0.592  -0.630   4.213  1.1506  1.8632 -0.2049
  702MOL0     H92638   0.807  -0.715   4.225  1.0684  1.6126 -0.6466
  702MOL0     H92639   0.805  -0.787   4.065 -2.1946 -1.6117 -0.0384
  702MOL0     H92640   0.767  -0.977   4.196 -0.5925 -0.5679  0.2112
  702MOL0     H92641   0.606  -0.936   4.153  0.2437  1.2054 -0.1255
  702MOL0     H92642   0.726  -0.802   4.393  1.6318 -1.3520 -0.7838
  702MOL0     H92643   0.550  -0.829   4.366  0.1028  1.2757 -2.2978
  702MOL0     H92644   0.627  -0.990   4.531 -1.3869 -2.6354 -0.0596
  702MOL0     H92645   0.757  -1.038   4.422  0.8430  0.5562  0.0608
  702MOL0     H92646   0.220  -0.196   3.850  0.6316 -0.0945 -0.5928
  702MOL0     H92647   0.069  -0.115   3.665  3.2143  0.8261  0.7791
  702MOL0     H92648  -0.088  -0.124   3.277 -0.3624  3.0191  1.7128
  702MOL0     H92649  -0.257  -0.004   3.124 -0.7381 -0.3011 -0.5829
  702MOL0     H92650   0.185   0.735   1.999  0.2074  0.5506 -0.0995
  702MOL0     H92651   0.380   0.656   1.867  3.3186 -0.2776 -1.3296
  702MOL0     H92652   0.898   0.773   1.884  1.7550  0.4826 -1.4684
  702MOL0     H92653   1.132   0.716   1.823  0.0763 -0.7739  2.0494
  702MOL0     H92654   1.291   0.590   1.911 -0.2947  0.4110  1.2551
  702MOL0     H92655   1.354   0.627   1.748  1.1651 -1.0901 -0.0881
  702MOL0     H92656   1.403   0.376   1.910 -2.0721  0.6157 -0.4753
  702MOL0     H92657   1.449   0.397   1.740 -0.2870  1.0313 -0.7222
  702MOL0     H92658   1.518   0.578   1.974 -0.7573 -0.9671 -0.5426
  702MOL0     H92659   1.572   0.620   1.806 -2.3185 -0.7134 -1.4415
  702MOL0     H92660   1.645   0.360   1.941 -0.0520  0.5955  3.1498
  702MOL0     H92661   1.745   0.443   1.810 -1.5644 -0.8282  0.2834
  702MOL0     H92662   1.925   0.596   2.149  1.9575 -1.8357 -0.3463
  702MOL0     H92663   1.020   0.310   1.781 -1.6897 -1.2104 -2.1779
  702MOL0     H92664   0.773   0.376   1.822 -2.9484  1.2407 -1.2018
  703MOL0     O92665   2.220   7.838   7.427  0.2505 -0.0234 -0.5095
  703MOL0     C92666   2.252   7.936   7.495  0.8756 -0.4563  0.2344
  703MOL0     O92667   2.169   8.041   7.538  1.0985 -0.0528 -0.4025
  703MOL0     C92668   2.045   8.048   7.464  0.0230 -0.3607  0.1436
  703MOL0     C92669   1.932   8.025   7.529  0.0511  0.5375 -0.1854
  703MOL0     C92670   1.808   8.007   7.467 -0.2216  0.2737  0.5657
  703MOL0     C92671   1.797   8.021   7.329 -0.5346 -0.2373  0.3870
  703MOL0     O92672   1.684   8.015   7.256  0.4479 -0.2106  0.9615
  703MOL0     C92673   1.683   8.074   7.124 -0.2110  0.8105 -0.5583
  703MOL0     C92674   1.541   8.069   7.081  0.3323 -1.1926 -0.8704
  703MOL0     C92675   1.459   8.202   7.110 -0.1308  0.6990  0.8445
  703MOL0     C92676   1.399   8.197   7.261 -0.4949  0.1627 -0.0641
  703MOL0     C92677   1.282   8.293   7.296  0.5637 -0.0540  0.6561
  703MOL0     C92678   1.318   8.437   7.273 -0.4255  0.3729  0.3853
  703MOL0     C92679   1.214   8.538   7.320 -0.6037  0.0565 -1.3513
  703MOL0     C92680   1.074   8.505   7.293  0.3040  0.2860  0.4297
  703MOL0     N92681   1.037   8.543   7.158 -0.1358  0.8968  0.7546
  703MOL0     C92682   0.978   8.659   7.129 -0.7431  0.2887 -0.5844
  703MOL0     C92683   0.947   8.650   7.005 -0.4306  0.7056  0.0396
  703MOL0     C92684   0.900   8.764   6.916 -0.3274  0.0536 -0.3185
  703MOL0     C92685   0.766   8.745   6.865  1.0087  0.7255 -0.4975
  703MOL0     C92686   0.672   8.704   6.975  0.1838  0.1876 -0.0276
  703MOL0     C92687   0.521   8.747   6.940 -0.3438 -0.3003  0.3527
  703MOL0     O92688   0.460   8.679   6.828  0.2966  1.0808 -0.0637
  703MOL0     C92689   0.349   8.740   6.771  0.5002  1.4407  0.2919
  703MOL0     C92690   0.274   8.846   6.823  0.8423  0.1540 -0.0601
  703MOL0     C92691   0.164   8.903   6.752 -0.0052  0.0770 -0.0040
  703MOL0     C92692   0.140   8.870   6.624 -0.0427 -0.4649  1.2132
  703MOL0     C92693   0.047   8.961   6.541 -0.6745 -0.0342 -0.1345
  703MOL0     O92694  -0.022   9.059   6.597  0.0858  0.3363 -0.1661
  703MOL0     C92695  -0.091   9.146   6.508 -0.3788  0.5381  0.1362
  703MOL0     C92696  -0.055   9.281   6.488 -0.6868 -0.6830  0.3198
  703MOL0     C92697  -0.126   9.364   6.405  0.1168 -0.1103 -0.1355
  703MOL0     C92698  -0.227   9.308   6.323  1.4196  0.5430  0.3379
  703MOL0     O92699  -0.287   9.383   6.226 -0.1933 -0.3018 -0.2148
  703MOL0     C92700  -0.429   9.405   6.259 -0.5571  0.0910 -0.6288
  703MOL0     C92701  -0.511   9.484   6.157 -0.8413  0.2913  1.1070
  703MOL0     C92702  -0.437   9.605   6.096 -0.0185  0.3379  0.3320
  703MOL0     C92703  -0.513   9.664   5.975  0.0834 -0.1657  0.4655
  703MOL0     C92704  -0.441   9.793   5.934 -0.0829 -0.6447  0.8558
  703MOL0     C92705  -0.519   9.881   5.834 -0.6792 -0.2688  0.4439
  703MOL0     C92706  -0.435   9.989   5.774 -0.0504  0.4792 -0.2190
  703MOL0     C92707  -0.440  10.121   5.846  1.5467  0.0481  0.5633
  703MOL0    Cl92708  -0.615  10.180   5.843  0.1025 -0.2434  0.2951
  703MOL0     C92709  -0.279   9.178   6.347 -0.3085  0.1262 -1.0002
  703MOL0     C92710  -0.202   9.098   6.444  0.1034  0.7056  2.0026
  703MOL0     O92711   0.066   8.945   6.421  0.0428  0.0466  0.1901
  703MOL0     C92712   0.203   8.766   6.562 -0.2411  0.6156 -0.4081
  703MOL0     C92713   0.306   8.703   6.636  0.8194  0.5321 -1.3266
  703MOL0     N92714   0.997   8.529   6.948  0.2446 -0.4730 -0.0124
  703MOL0     N92715   1.036   8.462   7.045 -0.0916 -0.9336 -0.0848
  703MOL0     C92716   1.919   8.058   7.258 -0.4918 -0.2390 -0.6308
  703MOL0     C92717   2.043   8.082   7.323  0.5189 -0.5968 -0.0587
  703MOL0     C92718   2.399   7.939   7.528  0.0118 -0.2081 -0.6283
  703MOL0     C92719   2.482   7.831   7.495 -0.4722  0.2227 -0.4604
  703MOL0     C92720   2.619   7.836   7.532  0.2195 -0.5534  0.3658
  703MOL0     C92721   2.675   7.938   7.614 -0.5272  0.4524 -0.2316
  703MOL0     O92722   2.798   7.934   7.681  0.5826  0.0668  0.3888
  703MOL0     C92723   2.897   7.854   7.620  0.2707  0.0435 -0.3766
  703MOL0     C92724   3.022   7.903   7.680 -0.3648  1.3653  0.1823
  703MOL0     C92725   3.145   7.844   7.601  0.4268  0.3012 -0.5776
  703MOL0     C92726   3.267   7.838   7.698 -0.2042  0.2572  0.9681
  703MOL0     C92727   3.241   7.744   7.807  0.0156 -0.3097 -0.6312
  703MOL0     C92728   3.213   7.673   7.905  0.2387 -0.3472  0.6719
  703MOL0     C92729   2.583   8.036   7.647 -0.0942  0.3237 -0.0725
  703MOL0     C92730   2.457   8.045   7.593 -0.7213  0.1522  0.2756
  703MOL0     H92731   1.928   7.991   7.632 -2.9777 -0.1749 -0.4560
  703MOL0     H92732   1.719   7.968   7.516 -1.3643  1.5155 -0.4414
  703MOL0     H92733   1.732   8.005   7.054 -2.7774 -0.8173 -0.9008
  703MOL0     H92734   1.731   8.172   7.120  3.8039 -0.9628 -0.9298
  703MOL0     H92735   1.494   7.989   7.139  0.4558  0.8676  2.3579
  703MOL0     H92736   1.540   8.044   6.975 -0.2293  1.1545 -1.4815
  703MOL0     H92737   1.371   8.208   7.045  0.0695 -0.7618  0.3910
  703MOL0     H92738   1.528   8.285   7.093  1.5245 -0.5215  1.2666
  703MOL0     H92739   1.369   8.092   7.260 -0.1590  0.0502  1.0015
  703MOL0     H92740   1.476   8.219   7.336 -1.3927 -0.3820  1.0387
  703MOL0     H92741   1.247   8.272   7.397  2.3352 -1.0955  1.0883
  703MOL0     H92742   1.195   8.275   7.232  1.9248 -0.5286 -1.1333
  703MOL0     H92743   1.347   8.451   7.168  0.9452 -0.3004  0.6467
  703MOL0     H92744   1.402   8.459   7.339 -0.7486  1.3926  0.4747
  703MOL0     H92745   1.227   8.538   7.428 -1.6495  0.1324 -1.2173
  703MOL0     H92746   1.225   8.637   7.274 -2.3264 -0.0334 -2.0635
  703MOL0     H92747   1.020   8.580   7.352  1.8874  0.0772  2.2361
  703MOL0     H92748   1.044   8.402   7.314 -0.9522  0.9224  1.9836
  703MOL0     H92749   0.975   8.741   7.200 -2.9503 -1.4443  1.4875
  703MOL0     H92750   0.967   8.774   6.830  1.6747 -4.4315  0.4071
  703MOL0     H92751   0.896   8.851   6.983 -2.0672  0.5635 -1.0479
  703MOL0     H92752   0.761   8.680   6.776  0.6372  0.0310  0.0224
  703MOL0     H92753   0.724   8.840   6.832  0.7660  0.9409  0.4068
  703MOL0     H92754   0.679   8.598   6.999  2.7547 -0.1933 -2.0014
  703MOL0     H92755   0.701   8.767   7.060 -1.3334  2.3165 -1.0078
  703MOL0     H92756   0.522   8.856   6.925 -1.4847 -0.3994 -0.5355
  703MOL0     H92757   0.466   8.734   7.034 -0.0523  4.4332  1.4297
  703MOL0     H92758   0.299   8.886   6.921  1.2383 -3.4767  1.5052
  703MOL0     H92759   0.108   8.982   6.802  0.6897  1.7868 -1.8271
  703MOL0     H92760   0.031   9.318   6.541 -0.1909 -2.1333  0.5824
  703MOL0     H92761  -0.086   9.464   6.395  2.2622 -0.6411  2.0000
  703MOL0     H92762  -0.464   9.451   6.352 -2.0496  0.0205 -1.1357
  703MOL0     H92763  -0.487   9.312   6.257 -1.2082  0.3946  1.4396
  703MOL0     H92764  -0.605   9.522   6.198 -1.4512  1.0454 -0.8512
  703MOL0     H92765  -0.538   9.416   6.076  2.2169 -0.6509  0.7247
  703MOL0     H92766  -0.349   9.551   6.057  0.0931  2.0284 -1.9295
  703MOL0     H92767  -0.410   9.681   6.170  2.6942  0.2995 -0.5095
  703MOL0     H92768  -0.532   9.595   5.892  2.1943 -0.7455  0.4088
  703MOL0     H92769  -0.603   9.700   6.025 -1.1750 -2.4781 -0.0012
  703MOL0     H92770  -0.347   9.758   5.891 -0.9677 -2.6440  0.4204
  703MOL0     H92771  -0.414   9.852   6.022 -3.0310 -0.0905  1.5060
  703MOL0     H92772  -0.605   9.923   5.887 -1.6876  0.7731 -1.8945
  703MOL0     H92773  -0.570   9.823   5.757 -2.0618 -1.8175  2.4070
  703MOL0     H92774  -0.331   9.957   5.766  0.1004  1.2145 -1.3447
  703MOL0     H92775  -0.478  10.016   5.677 -3.1488 -0.0010  0.9180
  703MOL0     H92776  -0.370  10.188   5.797 -0.6363  0.3855 -2.4247
  703MOL0     H92777  -0.410  10.098   5.949 -1.3134 -5.1935  0.5885
  703MOL0     H92778  -0.355   9.133   6.284 -1.2720  1.5230 -0.8862
  703MOL0     H92779  -0.241   8.998   6.459 -0.8986  0.2754 -2.1318
  703MOL0     H92780   0.186   8.739   6.458 -1.4228  0.2722 -0.1364
  703MOL0     H92781   0.366   8.622   6.596  2.3463  1.2778 -0.6387
  703MOL0     H92782   1.914   8.085   7.153 -0.0249  1.1893 -0.3083
  703MOL0     H92783   2.134   8.111   7.271 -0.5844  1.1430 -1.0975
  703MOL0     H92784   2.440   7.757   7.428 -4.1021  3.6886 -2.3727
  703MOL0     H92785   2.687   7.753   7.512 -2.3287 -2.2291 -2.1384
  703MOL0     H92786   2.912   7.859   7.512  1.3871  0.3615 -0.2159
  703MOL0     H92787   2.874   7.752   7.654  1.6391  0.1413  0.9243
  703MOL0     H92788   3.030   8.011   7.665  1.3571  1.5618  2.0780
  703MOL0     H92789   3.024   7.881   7.787  0.4761 -0.9573 -0.2363
  703MOL0     H92790   3.170   7.914   7.521 -2.1452  1.2465 -0.6470
  703MOL0     H92791   3.119   7.746   7.560  3.3183 -1.0939  0.6145
  703MOL0     H92792   3.356   7.804   7.645 -0.0555  2.3922 -0.2906
  703MOL0     H92793   3.290   7.939   7.735  1.4716 -0.2730  1.4626
  703MOL0     H92794   3.175   7.617   7.988 -0.7060 -1.0963 -0.2346
  703MOL0     H92795   2.606   8.126   7.703  0.1020  1.6951 -2.2509
  703MOL0     H92796   2.407   8.135   7.628  1.9534  2.5319 -1.5264
  704MOL0     O92797   5.793   1.568   5.281  0.2391  0.3986  0.7706
  704MOL0     C92798   5.891   1.497   5.275 -0.0267 -0.5283 -0.0050
  704MOL0     O92799   5.889   1.365   5.243 -0.3986  0.2423  0.4000
  704MOL0     C92800   5.773   1.301   5.209  0.7421 -0.0350 -0.7124
  704MOL0     C92801   5.732   1.181   5.272 -0.7274 -0.4049  0.3779
  704MOL0     C92802   5.619   1.114   5.238  0.0803  0.5766  0.1135
  704MOL0     C92803   5.536   1.175   5.148  1.0594  0.1730  0.1180
  704MOL0     O92804   5.418   1.101   5.126  1.3504 -0.5672  0.7305
  704MOL0     C92805   5.332   1.143   5.013  0.3281  0.5713 -0.6296
  704MOL0     C92806   5.203   1.072   5.022  0.2323 -0.1241 -1.0060
  704MOL0     C92807   5.205   0.926   5.004  0.8287 -0.2980  0.0304
  704MOL0     C92808   5.061   0.867   5.002 -0.1637  0.1734 -0.6604
  704MOL0     C92809   5.065   0.725   4.947 -0.0175  0.6140  0.3183
  704MOL0     C92810   4.942   0.636   4.952  1.2716  0.2272  0.2826
  704MOL0     C92811   4.820   0.689   4.881  0.0635  1.0145 -0.5914
  704MOL0     C92812   4.688   0.637   4.934 -0.3794  1.6101 -0.0048
  704MOL0     N92813   4.663   0.656   5.083 -0.0423  0.6643 -0.4522
  704MOL0     C92814   4.701   0.768   5.150 -0.0319 -1.0594 -0.5343
  704MOL0     C92815   4.681   0.735   5.280 -0.4323 -0.5873  0.4040
  704MOL0     C92816   4.712   0.820   5.395 -0.2915  0.0527 -0.2551
  704MOL0     C92817   4.866   0.798   5.433  0.4902 -0.0382  0.2892
  704MOL0     C92818   4.885   0.870   5.567 -0.6579 -0.7740 -0.7706
  704MOL0     C92819   5.024   0.839   5.635 -0.0252  0.1348 -0.4263
  704MOL0     O92820   5.116   0.932   5.573 -0.7136  0.1372  0.5736
  704MOL0     C92821   5.237   0.961   5.620  0.3725 -0.4167  0.1220
  704MOL0     C92822   5.282   0.912   5.743 -0.2125 -0.4750 -0.3235
  704MOL0     C92823   5.406   0.964   5.784 -0.8757  0.6905  0.6736
  704MOL0     C92824   5.491   1.037   5.694 -0.0492 -0.5626  0.4297
  704MOL0     C92825   5.622   1.082   5.730 -0.4685  0.3654 -0.2115
  704MOL0     O92826   5.693   1.136   5.628  0.0465  0.0667  0.3067
  704MOL0     C92827   5.821   1.189   5.650  0.0767 -0.8393  0.2993
  704MOL0     C92828   5.926   1.104   5.692 -0.3318  0.3947  0.1307
  704MOL0     C92829   6.064   1.142   5.693  0.7396 -1.0618  0.2198
  704MOL0     C92830   6.093   1.278   5.664 -1.0585  0.6150  0.0001
  704MOL0     O92831   6.224   1.313   5.676 -1.1793 -0.8207  0.8909
  704MOL0     C92832   6.254   1.446   5.719  0.2666 -0.5271  0.3373
  704MOL0     C92833   6.390   1.443   5.790 -0.7160  0.6851  0.0139
  704MOL0     C92834   6.495   1.450   5.679 -0.8559 -0.0689  0.8891
  704MOL0     C92835   6.642   1.441   5.733  1.0505  0.4792  0.0788
  704MOL0     C92836   6.752   1.470   5.627  0.1435  0.8659  1.1153
  704MOL0     C92837   6.782   1.352   5.528  0.0043  0.0992 -0.2198
  704MOL0     C92838   6.903   1.374   5.444  0.0494  0.1470  0.2696
  704MOL0     C92839   6.970   1.242   5.401 -0.4550 -0.3759  0.1169
  704MOL0    Cl92840   7.095   1.271   5.274 -0.1534 -0.0374 -0.4822
  704MOL0     C92841   5.992   1.367   5.626 -0.0651  0.8310  0.3106
  704MOL0     C92842   5.860   1.328   5.619  0.3028  0.9680 -0.6063
  704MOL0     O92843   5.665   1.075   5.843 -0.1379 -0.7516 -0.3051
  704MOL0     C92844   5.428   1.085   5.576 -0.4672  0.3324 -0.1239
  704MOL0     C92845   5.300   1.056   5.545  0.8969  0.5980  0.1173
  704MOL0     N92846   4.639   0.605   5.280 -0.4550  0.6248  0.2451
  704MOL0     N92847   4.634   0.552   5.162 -0.1692 -0.1656 -0.1205
  704MOL0     C92848   5.575   1.294   5.079 -0.1605 -0.1488  0.6895
  704MOL0     C92849   5.690   1.362   5.114 -0.8798 -0.6061  0.3486
  704MOL0     C92850   6.024   1.562   5.291 -0.1785 -0.2463 -0.2952
  704MOL0     C92851   6.128   1.488   5.336 -0.2435  0.1448 -0.1969
  704MOL0     C92852   6.253   1.553   5.347  0.2346  0.4205 -0.0607
  704MOL0     C92853   6.268   1.687   5.315 -0.2978 -0.2429  0.2358
  704MOL0     O92854   6.380   1.759   5.327  0.0988 -1.0318  0.5050
  704MOL0     C92855   6.508   1.688   5.303  0.1756 -0.4727 -0.3779
  704MOL0     C92856   6.610   1.791   5.251  0.1008  0.1175  0.2309
  704MOL0     C92857   6.557   1.854   5.122  0.3021  0.3743 -0.3835
  704MOL0     C92858   6.651   1.844   4.999 -0.0581  0.2571  0.2742
  704MOL0     C92859   6.742   1.955   5.009 -0.1024 -0.0992 -0.1989
  704MOL0     C92860   6.810   2.051   5.002  0.5267  0.3946  0.1544
  704MOL0     C92861   6.160   1.762   5.280 -0.5839  0.0220  0.4134
  704MOL0     C92862   6.036   1.705   5.262  0.2384  0.2423  0.1960
  704MOL0     H92863   5.810   1.144   5.337  2.4547 -0.3064 -3.0333
  704MOL0     H92864   5.603   1.016   5.280  2.7978 -0.3772 -0.9040
  704MOL0     H92865   5.373   1.113   4.916  2.9564 -2.1473  1.1878
  704MOL0     H92866   5.316   1.251   5.004 -3.8502  0.1905 -0.1211
  704MOL0     H92867   5.143   1.126   4.948  0.0168  1.3253  0.1738
  704MOL0     H92868   5.159   1.089   5.121 -1.0996  2.0437 -1.9017
  704MOL0     H92869   5.269   0.874   5.076  1.2016 -1.2098 -0.9400
  704MOL0     H92870   5.248   0.903   4.906  0.0671  2.1482 -0.9759
  704MOL0     H92871   5.018   0.859   5.102 -1.7344 -1.8135 -1.4180
  704MOL0     H92872   4.996   0.931   4.942 -0.1619  0.7317 -0.0768
  704MOL0     H92873   5.136   0.663   5.003 -2.5226 -0.7713  2.1339
  704MOL0     H92874   5.093   0.729   4.841 -1.0558  0.5190  0.0347
  704MOL0     H92875   4.915   0.629   5.058 -0.6496  0.3776 -0.1747
  704MOL0     H92876   4.974   0.542   4.906 -2.3026  0.2798 -2.6806
  704MOL0     H92877   4.817   0.798   4.890  1.1879  0.9373  1.3938
  704MOL0     H92878   4.824   0.671   4.774  0.6279 -1.3593 -0.2439
  704MOL0     H92879   4.685   0.528   4.918 -0.5130  1.3663  1.5002
  704MOL0     H92880   4.616   0.688   4.871  0.4574  3.3892  0.4235
  704MOL0     H92881   4.726   0.862   5.101  2.3338 -1.7075 -0.6759
  704MOL0     H92882   4.654   0.786   5.482 -0.3078  0.3636 -0.1430
  704MOL0     H92883   4.681   0.922   5.372 -0.5777 -0.2893 -1.4245
  704MOL0     H92884   4.940   0.843   5.365  2.2881 -0.7247  1.7198
  704MOL0     H92885   4.897   0.693   5.440 -0.0166 -0.2259 -0.2260
  704MOL0     H92886   4.881   0.977   5.543  0.1138  0.2071  2.8981
  704MOL0     H92887   4.810   0.846   5.642 -0.9393  1.8936 -0.1031
  704MOL0     H92888   5.057   0.736   5.618 -0.9351 -0.5536  1.7599
  704MOL0     H92889   5.012   0.859   5.741 -6.6077  1.9201 -1.0440
  704MOL0     H92890   5.223   0.837   5.795  1.1582 -0.5285  1.2355
  704MOL0     H92891   5.437   0.932   5.883 -2.7725 -0.7420  0.8560
  704MOL0     H92892   5.896   1.006   5.730  0.8010 -0.4299 -1.0090
  704MOL0     H92893   6.145   1.073   5.718  0.8350 -1.1765 -0.3934
  704MOL0     H92894   6.172   1.473   5.787 -2.4427  1.0556 -3.2426
  704MOL0     H92895   6.246   1.517   5.637  0.4933 -1.3360 -0.4020
  704MOL0     H92896   6.406   1.348   5.842  2.8769  0.7486 -0.6956
  704MOL0     H92897   6.407   1.530   5.854  1.5014  0.6699 -0.4787
  704MOL0     H92898   6.489   1.547   5.629 -1.2037  1.3730  3.5736
  704MOL0     H92899   6.486   1.359   5.618  4.0329 -1.0409  1.2395
  704MOL0     H92900   6.658   1.509   5.816 -1.3361 -0.3302  1.3066
  704MOL0     H92901   6.661   1.338   5.764  1.3662  0.1761 -1.0594
  704MOL0     H92902   6.842   1.489   5.685 -0.1173  2.7895  0.9687
  704MOL0     H92903   6.716   1.547   5.558 -3.5975 -3.7895 -2.9354
  704MOL0     H92904   6.693   1.327   5.469  0.2402  2.2762 -1.6077
  704MOL0     H92905   6.812   1.270   5.595 -0.7089  2.0182  2.6118
  704MOL0     H92906   6.876   1.423   5.350  1.6035  1.7605  0.6341
  704MOL0     H92907   6.977   1.435   5.496  1.0230  0.1703 -1.0994
  704MOL0     H92908   6.895   1.181   5.350  1.7716 -0.5861 -3.1535
  704MOL0     H92909   7.002   1.191   5.492 -1.4233  1.2702  1.4456
  704MOL0     H92910   6.012   1.468   5.590 -0.7243 -0.0076 -2.7285
  704MOL0     H92911   5.795   1.408   5.585 -1.3645 -1.3323 -3.1834
  704MOL0     H92912   5.492   1.156   5.525  2.1635 -0.1492  2.2112
  704MOL0     H92913   5.249   1.092   5.457  1.9190 -1.5920 -1.4529
  704MOL0     H92914   5.514   1.320   4.993  0.1691 -1.3695  0.0663
  704MOL0     H92915   5.705   1.463   5.078  0.9039  0.1623  2.9418
  704MOL0     H92916   6.117   1.385   5.367 -3.9525  1.1533  2.5023
  704MOL0     H92917   6.348   1.515   5.384  0.1913  0.7260  0.3648
  704MOL0     H92918   6.507   1.605   5.232 -1.1136 -1.4065  0.6715
  704MOL0     H92919   6.538   1.641   5.397  0.9490 -0.1135 -0.4417
  704MOL0     H92920   6.630   1.870   5.324  1.6261 -0.0351  0.0022
  704MOL0     H92921   6.700   1.736   5.224  1.9830  2.3617  1.5746
  704MOL0     H92922   6.529   1.958   5.144 -0.2056  0.6266 -2.0917
  704MOL0     H92923   6.463   1.804   5.097 -1.3129  2.7079  0.6499
  704MOL0     H92924   6.719   1.759   5.014  2.7767  2.5070  1.0618
  704MOL0     H92925   6.606   1.844   4.899  0.8437  0.2431 -0.1382
  704MOL0     H92926   6.870   2.140   5.007  0.4472  0.4515  0.0952
  704MOL0     H92927   6.188   1.863   5.254  3.6141 -1.1580 -0.2871
  704MOL0     H92928   5.957   1.769   5.223 -0.0777  1.5505  2.7553
  705MOL0     O92929  10.254   9.443   5.775 -0.2465 -0.1557  0.5257
  705MOL0     C92930  10.331   9.534   5.810  0.1404 -0.6712  1.0213
  705MOL0     O92931  10.422   9.515   5.908 -0.5792 -0.6373 -0.6864
  705MOL0     C92932  10.436   9.395   5.962 -0.3201  0.8769  0.1734
  705MOL0     C92933  10.349   9.356   6.068 -0.7660  0.2872  0.4473
  705MOL0     C92934  10.367   9.232   6.129 -0.3097 -0.1225  0.3749
  705MOL0     C92935  10.468   9.149   6.087  0.3623 -0.6078  0.4775
  705MOL0     O92936  10.478   9.030   6.163 -0.4686  0.0228  0.2878
  705MOL0     C92937  10.576   8.936   6.120 -0.4292 -0.8680 -0.1145
  705MOL0     C92938  10.570   8.817   6.212  0.3539  0.2037  1.4265
  705MOL0     C92939  10.590   8.842   6.357 -0.2202  0.6720 -0.2689
  705MOL0     C92940  10.597   8.710   6.436  0.1240 -0.0973 -0.7837
  705MOL0     C92941  10.620   8.754   6.576  0.1287 -0.4227 -0.5782
  705MOL0     C92942  10.633   8.633   6.673  0.5897 -0.8839  0.0113
  705MOL0     C92943  10.649   8.666   6.823 -0.9331 -0.9624  0.1806
  705MOL0     C92944  10.749   8.767   6.876  0.0015  0.2966 -0.1857
  705MOL0     N92945  10.883   8.734   6.835 -0.0449 -0.0938  0.1394
  705MOL0     C92946  10.964   8.632   6.873 -0.0380  0.4988 -1.0296
  705MOL0     C92947  11.082   8.673   6.841 -0.0077 -0.5306  0.4125
  705MOL0     C92948  11.206   8.597   6.856 -0.1733 -0.8011  0.6602
  705MOL0     C92949  11.297   8.624   6.978 -0.6850 -0.6284  0.4924
  705MOL0     C92950  11.422   8.535   6.960 -0.1041 -1.9420  0.0119
  705MOL0     C92951  11.513   8.575   7.072 -0.7326  0.0974  0.1173
  705MOL0     O92952  11.597   8.460   7.090 -0.1147  0.6900 -0.6761
  705MOL0     C92953  11.693   8.473   7.183  0.0054 -0.2043  0.3734
  705MOL0     C92954  11.784   8.364   7.181 -0.0234  0.4386  0.1133
  705MOL0     C92955  11.887   8.361   7.271  0.3973  0.2468 -0.7200
  705MOL0     C92956  11.911   8.466   7.364  0.0907  0.2700 -0.4988
  705MOL0     C92957  12.026   8.473   7.457  0.4513  0.1494 -0.8680
  705MOL0     O92958  12.025   8.566   7.569  0.0416  0.9692 -0.2384
  705MOL0     C92959  12.121   8.531   7.656 -1.1893 -0.3872 -0.5745
  705MOL0     C92960  12.103   8.466   7.770 -0.4102 -0.0038  0.3795
  705MOL0     C92961  12.208   8.449   7.864 -0.1423 -0.3631  0.3811
  705MOL0     C92962  12.338   8.504   7.850 -0.0591 -0.0591 -0.0450
  705MOL0     O92963  12.439   8.489   7.940 -0.3911  0.2699  0.2795
  705MOL0     C92964  12.577   8.496   7.891  0.5597 -0.7804  0.2469
  705MOL0     C92965  12.616   8.377   7.811  0.0521  0.0135 -0.4152
  705MOL0     C92966  12.739   8.415   7.724  0.4798  0.2650  0.1599
  705MOL0     C92967  12.807   8.309   7.638 -0.4991  1.3440  1.0056
  705MOL0     C92968  12.898   8.215   7.712  0.1501  0.0653 -0.0367
  705MOL0     C92969  13.027   8.282   7.775 -0.0181 -0.5023  0.7156
  705MOL0     C92970  13.118   8.178   7.846 -0.0550 -0.4230  0.2436
  705MOL0     C92971  13.099   8.174   7.998  0.1353 -0.7131 -0.4207
  705MOL0    Cl92972  12.919   8.176   8.036  0.3267 -0.3447  0.1389
  705MOL0     C92973  12.351   8.575   7.725 -0.5084 -0.2312 -0.5828
  705MOL0     C92974  12.249   8.588   7.626  0.6698  0.5151 -0.2759
  705MOL0     O92975  12.107   8.384   7.438  0.4704  0.6438  0.8139
  705MOL0     C92976  11.819   8.574   7.354  0.4845  0.3370 -0.2796
  705MOL0     C92977  11.711   8.579   7.269  0.2215 -0.4842  0.7944
  705MOL0     N92978  11.082   8.797   6.779 -0.0198  0.2532 -0.1330
  705MOL0     N92979  10.956   8.833   6.784 -0.2751 -0.4728 -0.0652
  705MOL0     C92980  10.554   9.202   5.980  0.0964 -0.5379 -0.0329
  705MOL0     C92981  10.542   9.327   5.926  0.5067 -0.6104  0.6661
  705MOL0     C92982  10.337   9.663   5.728  0.2807 -0.0550  0.0563
  705MOL0     C92983  10.330   9.663   5.592  0.0972 -0.4083  0.1307
  705MOL0     C92984  10.350   9.773   5.514 -0.6236 -0.1778 -0.3653
  705MOL0     C92985  10.399   9.895   5.572 -0.0865  0.0077  0.1123
  705MOL0     O92986  10.424   9.990   5.479 -0.0232 -0.0049 -0.7164
  705MOL0     C92987  10.516  10.098   5.517  0.9842 -0.3871  0.4256
  705MOL0     C92988  10.593  10.121   5.390 -0.0524  0.3668  0.1061
  705MOL0     C92989  10.669  10.258   5.392 -0.0528 -0.7989  0.2057
  705MOL0     C92990  10.765  10.273   5.272  0.0456 -0.2538  0.0998
  705MOL0     C92991  10.828  10.407   5.256 -0.1694  0.5573  0.1788
  705MOL0     C92992  10.887  10.508   5.225  0.0247 -0.2716 -0.3810
  705MOL0     C92993  10.403   9.898   5.707 -0.2342  0.0635 -0.1246
  705MOL0     C92994  10.372   9.787   5.784 -0.0689 -1.0263 -0.1950
  705MOL0     H92995  10.270   9.428   6.089 -2.2954 -1.9842  3.1016
  705MOL0     H92996  10.304   9.205   6.214 -0.5637 -3.6600 -0.7640
  705MOL0     H92997  10.679   8.973   6.123  0.7180 -3.6893 -0.6297
  705MOL0     H92998  10.553   8.895   6.021  1.0885 -1.9001 -0.0780
  705MOL0     H92999  10.641   8.739   6.185 -0.4092  0.2918 -1.0771
  705MOL0     H93000  10.483   8.754   6.194  2.9538 -3.8133  1.6331
  705MOL0     H93001  10.505   8.897   6.399  0.0378 -0.5648  2.0591
  705MOL0     H93002  10.677   8.903   6.381  1.3081 -2.7021  4.1551
  705MOL0     H93003  10.500   8.660   6.441  0.9592 -1.6391  1.7705
  705MOL0     H93004  10.686   8.657   6.400  3.7297  2.1807  3.6685
  705MOL0     H93005  10.535   8.819   6.595 -2.3817 -3.7540  0.3899
  705MOL0     H93006  10.713   8.812   6.587 -0.5905  0.9133 -1.2992
  705MOL0     H93007  10.714   8.572   6.633 -0.9483 -0.8064 -3.6966
  705MOL0     H93008  10.548   8.564   6.660  2.3332 -3.3011  0.8162
  705MOL0     H93009  10.560   8.713   6.865  0.9859  1.1879  2.1328
  705MOL0     H93010  10.674   8.571   6.872  0.7887  0.6578  2.7262
  705MOL0     H93011  10.739   8.778   6.984 -3.9404 -2.6196 -0.0461
  705MOL0     H93012  10.713   8.858   6.828 -1.5037 -0.3965 -0.4235
  705MOL0     H93013  10.941   8.538   6.923  0.5913  1.9089  2.1716
  705MOL0     H93014  11.264   8.619   6.766  2.4784  1.7640  2.8134
  705MOL0     H93015  11.187   8.490   6.840  2.4229 -0.8280 -3.8831
  705MOL0     H93016  11.244   8.605   7.072  1.3196  1.9243  2.3104
  705MOL0     H93017  11.324   8.730   6.981 -0.9944 -0.5529  0.7475
  705MOL0     H93018  11.400   8.429   6.975  1.9649 -2.8196 -2.4425
  705MOL0     H93019  11.465   8.548   6.861 -1.1134 -0.5815 -0.2788
  705MOL0     H93020  11.462   8.593   7.167 -0.7788  0.6574 -0.0133
  705MOL0     H93021  11.563   8.667   7.041 -2.0801  1.1131  0.8502
  705MOL0     H93022  11.797   8.299   7.096 -0.6935  3.5622 -2.6035
  705MOL0     H93023  11.960   8.281   7.257 -0.3097 -0.2018 -1.9783
  705MOL0     H93024  12.013   8.407   7.784  0.3557 -2.1599 -2.7950
  705MOL0     H93025  12.182   8.392   7.953 -0.6983  1.1470  1.2174
  705MOL0     H93026  12.651   8.514   7.969  0.9730 -0.9828 -0.0967
  705MOL0     H93027  12.585   8.578   7.820 -0.6323 -1.0114 -0.1693
  705MOL0     H93028  12.538   8.347   7.741  0.6655  0.2366 -1.2063
  705MOL0     H93029  12.648   8.302   7.885  0.4061  1.4610  0.9524
  705MOL0     H93030  12.807   8.478   7.783 -1.6657  2.5859  0.2938
  705MOL0     H93031  12.697   8.469   7.639  0.1452 -0.5494 -0.2067
  705MOL0     H93032  12.731   8.247   7.588 -0.0044  1.6108 -0.0954
  705MOL0     H93033  12.874   8.347   7.561 -0.2867 -1.1552 -0.1701
  705MOL0     H93034  12.936   8.155   7.629 -0.9274  2.6421 -2.5480
  705MOL0     H93035  12.831   8.167   7.785  0.2458  1.4138  0.9736
  705MOL0     H93036  13.006   8.366   7.841  1.2926 -0.9245  1.7100
  705MOL0     H93037  13.073   8.324   7.684 -1.4964 -0.5421 -0.0753
  705MOL0     H93038  13.101   8.081   7.799  0.2527  0.2879 -1.4004
  705MOL0     H93039  13.224   8.201   7.831 -0.6159  1.7626 -0.7273
  705MOL0     H93040  13.141   8.266   8.040  0.1260  1.0684 -3.9639
  705MOL0     H93041  13.155   8.092   8.045 -3.1720 -2.8830  0.0676
  705MOL0     H93042  12.433   8.635   7.685  0.6316 -2.1845 -1.3286
  705MOL0     H93043  12.279   8.646   7.539  1.2532  1.3868  0.4847
  705MOL0     H93044  11.810   8.656   7.426 -0.0452  1.0793 -1.1663
  705MOL0     H93045  11.653   8.670   7.263  1.1399  0.2417  2.2502
  705MOL0     H93046  10.640   9.146   5.944 -1.6425 -1.8310 -2.5044
  705MOL0     H93047  10.611   9.379   5.861 -0.1431  0.0687  0.4999
  705MOL0     H93048  10.319   9.569   5.539  0.2535 -0.6435  0.5139
  705MOL0     H93049  10.324   9.775   5.409  0.7422  2.4762 -0.7600
  705MOL0     H93050  10.582  10.075   5.601 -1.3105 -1.5927  1.9927
  705MOL0     H93051  10.453  10.186   5.533  1.1287 -0.5060  1.7528
  705MOL0     H93052  10.668  10.043   5.372  0.8608  0.4783  2.9810
  705MOL0     H93053  10.513  10.126   5.315 -0.1855  0.5466  0.2612
  705MOL0     H93054  10.718  10.293   5.483  2.6041 -0.5413 -1.2443
  705MOL0     H93055  10.591  10.333   5.376  0.1099  0.0671  3.0658
  705MOL0     H93056  10.847  10.201   5.269 -0.4167 -0.7717 -0.1976
  705MOL0     H93057  10.711  10.247   5.181 -1.6875  2.3661  0.2621
  705MOL0     H93058  10.951  10.590   5.197 -0.1732 -0.3858 -1.2040
  705MOL0     H93059  10.443   9.986   5.755 -1.2036 -0.9625  2.7639
  705MOL0     H93060  10.381   9.798   5.891  0.5584  0.6857 -0.3911
  706MOL0     O93061   1.962   5.460   1.034 -0.4905  0.1501 -0.4658
  706MOL0     C93062   2.004   5.496   0.920  0.0753 -0.3514 -0.3128
  706MOL0     O93063   1.936   5.524   0.816 -0.7514 -0.1666  0.2259
  706MOL0     C93064   1.798   5.516   0.813  0.7707  0.1981  0.5518
  706MOL0     C93065   1.743   5.400   0.758  0.0919 -0.5215  0.1735
  706MOL0     C93066   1.606   5.387   0.745 -0.2475 -0.3018 -0.4661
  706MOL0     C93067   1.516   5.488   0.788  0.0617 -0.7015 -0.8356
  706MOL0     O93068   1.380   5.461   0.788  0.4440  0.0163  0.3779
  706MOL0     C93069   1.283   5.568   0.807  0.2568  0.5294  0.2041
  706MOL0     C93070   1.153   5.531   0.735 -0.2779  0.0597 -0.1170
  706MOL0     C93071   1.029   5.620   0.782  0.3642 -0.1318 -0.3990
  706MOL0     C93072   0.903   5.583   0.697  0.1062  0.0433  0.0261
  706MOL0     C93073   0.767   5.617   0.773  0.6252 -0.3818 -0.1764
  706MOL0     C93074   0.648   5.555   0.697 -0.7217  0.1814  0.1292
  706MOL0     C93075   0.521   5.559   0.781  0.6150 -0.1569  0.0025
  706MOL0     C93076   0.406   5.516   0.694 -0.5118  1.3060 -0.4483
  706MOL0     N93077   0.280   5.501   0.770 -0.3834 -0.4931 -0.0610
  706MOL0     C93078   0.189   5.602   0.794  0.2182 -0.3764  0.6756
  706MOL0     C93079   0.070   5.546   0.826  0.4465  0.0983  0.6285
  706MOL0     C93080  -0.044   5.631   0.863  0.8069 -0.7365  0.7517
  706MOL0     C93081  -0.116   5.691   0.738  0.5004  1.5727 -0.4147
  706MOL0     C93082  -0.243   5.765   0.770  0.0117 -0.9093 -0.7653
  706MOL0     C93083  -0.220   5.922   0.810 -0.3001 -0.0153 -0.2829
  706MOL0     O93084  -0.140   5.917   0.934 -0.4115  0.6643 -0.2983
  706MOL0     C93085  -0.032   5.999   0.945  0.3796 -0.9989  0.2160
  706MOL0     C93086  -0.050   6.132   0.911  0.8967 -1.0302  0.1647
  706MOL0     C93087   0.063   6.225   0.922  0.8132  0.6527  0.3248
  706MOL0     C93088   0.192   6.182   0.966 -0.3152  0.9397  0.4217
  706MOL0     C93089   0.314   6.264   0.981 -0.0888 -0.8424 -0.2012
  706MOL0     O93090   0.433   6.202   0.989  1.1135 -0.4081  0.0281
  706MOL0     C93091   0.553   6.254   0.953  0.3486  0.3262 -0.2260
  706MOL0     C93092   0.572   6.370   0.878  0.1889  0.2200 -1.1199
  706MOL0     C93093   0.699   6.407   0.848  0.3425  0.1695  0.7048
  706MOL0     C93094   0.816   6.343   0.894 -0.2220  1.1915 -0.3997
  706MOL0     O93095   0.935   6.391   0.851 -0.2863 -0.3710  0.1668
  706MOL0     C93096   1.051   6.329   0.895 -0.2652  0.1344  0.5354
  706MOL0     C93097   1.161   6.406   0.820 -0.1027  0.4901 -0.7686
  706MOL0     C93098   1.289   6.381   0.895 -0.5499 -0.0998 -0.8414
  706MOL0     C93099   1.407   6.442   0.821  0.7550  0.5142 -0.8143
  706MOL0     C93100   1.536   6.454   0.901  0.5445 -0.6118 -0.1815
  706MOL0     C93101   1.586   6.320   0.968 -0.3704 -1.5422  0.3618
  706MOL0     C93102   1.728   6.319   1.025  0.0763  0.5647  0.1131
  706MOL0     C93103   1.748   6.185   1.106 -0.1447 -0.6736 -0.2945
  706MOL0    Cl93104   1.899   6.194   1.205  0.0905  0.0386 -0.1101
  706MOL0     C93105   0.791   6.226   0.970 -0.1687 -0.1870  0.6320
  706MOL0     C93106   0.663   6.187   0.998 -0.2615  0.0228 -0.1325
  706MOL0     O93107   0.304   6.385   0.968  0.0248  0.0714 -0.3683
  706MOL0     C93108   0.196   6.050   1.021  0.4345  0.6072  0.2216
  706MOL0     C93109   0.081   5.961   1.015 -1.4149 -0.0542  0.4501
  706MOL0     N93110   0.081   5.412   0.826  0.2362  1.0433  0.1625
  706MOL0     N93111   0.206   5.389   0.794  0.2431  0.9383 -0.1929
  706MOL0     C93112   1.574   5.606   0.831 -0.1674  0.0030  0.6283
  706MOL0     C93113   1.708   5.617   0.848 -0.4661 -0.7126  0.5591
  706MOL0     C93114   2.149   5.517   0.904 -0.9904  0.4908 -0.4106
  706MOL0     C93115   2.208   5.473   0.779 -0.1164  0.0166 -0.0893
  706MOL0     C93116   2.349   5.469   0.762  0.0032 -0.1847 -0.2664
  706MOL0     C93117   2.428   5.513   0.869  0.5001 -0.1291 -0.2192
  706MOL0     O93118   2.559   5.515   0.832  0.4379  0.3259 -0.9429
  706MOL0     C93119   2.649   5.514   0.948  0.1104  0.7007 -0.7383
  706MOL0     C93120   2.789   5.468   0.909  1.2334  0.9501 -0.7819
  706MOL0     C93121   2.883   5.455   1.033 -0.3357 -0.4462  0.5182
  706MOL0     C93122   3.007   5.392   0.985  0.1130 -0.5178 -0.4100
  706MOL0     C93123   3.095   5.481   0.918  0.0162 -0.0887  0.3923
  706MOL0     C93124   3.145   5.556   0.840  0.2338  0.7170  0.4939
  706MOL0     C93125   2.377   5.549   0.992 -0.5476 -0.6663  0.6587
  706MOL0     C93126   2.238   5.549   1.010 -1.1734 -0.5263  0.6016
  706MOL0     H93127   1.809   5.323   0.719 -0.2510  0.5143 -2.6768
  706MOL0     H93128   1.557   5.302   0.698 -1.3470 -0.0096  0.0925
  706MOL0     H93129   1.326   5.657   0.760  0.6821 -0.7240 -1.9247
  706MOL0     H93130   1.272   5.587   0.914  3.0326 -2.9361  1.3038
  706MOL0     H93131   1.138   5.424   0.749  1.2629  0.0691  2.1599
  706MOL0     H93132   1.159   5.551   0.628 -0.6573  1.9187  0.1778
  706MOL0     H93133   1.061   5.723   0.762  4.9387 -0.3725  3.8828
  706MOL0     H93134   1.009   5.603   0.888 -0.5227 -1.1294 -0.6984
  706MOL0     H93135   0.894   5.621   0.595 -0.8730 -0.7393 -0.2029
  706MOL0     H93136   0.909   5.474   0.692  1.0616 -0.0727  2.2826
  706MOL0     H93137   0.744   5.723   0.768  0.7651 -0.1760  2.4695
  706MOL0     H93138   0.768   5.588   0.878 -1.9204 -0.9276 -0.2400
  706MOL0     H93139   0.680   5.454   0.668 -0.2628  0.3841 -0.0667
  706MOL0     H93140   0.633   5.614   0.606  5.1507  1.4637 -0.4337
  706MOL0     H93141   0.535   5.492   0.867  4.2994 -0.3972 -0.6190
  706MOL0     H93142   0.496   5.655   0.826 -2.7692 -0.5593 -0.7791
  706MOL0     H93143   0.434   5.424   0.642  0.0746  1.0583  0.2986
  706MOL0     H93144   0.392   5.600   0.625 -1.6165  1.9169  0.4892
  706MOL0     H93145   0.203   5.709   0.801 -0.0698 -0.3094  0.2969
  706MOL0     H93146  -0.003   5.711   0.925 -1.2508  1.2213 -0.2179
  706MOL0     H93147  -0.116   5.572   0.921  0.9824 -2.6859 -0.9156
  706MOL0     H93148  -0.141   5.605   0.675  0.5841  0.2969  1.2126
  706MOL0     H93149  -0.057   5.768   0.688 -0.8938  4.1879  1.7009
  706MOL0     H93150  -0.300   5.765   0.677  2.4321  2.2686 -2.4545
  706MOL0     H93151  -0.295   5.711   0.849 -0.8894 -0.4694 -1.0421
  706MOL0     H93152  -0.312   5.973   0.841  0.8298  1.9996 -0.1119
  706MOL0     H93153  -0.164   5.971   0.730 -1.8064  0.7242 -0.9238
  706MOL0     H93154  -0.142   6.164   0.863  0.1852 -2.3725  0.5641
  706MOL0     H93155   0.057   6.329   0.893 -0.1872  0.7353  0.7947
  706MOL0     H93156   0.490   6.430   0.840 -0.8619 -0.6348 -0.2550
  706MOL0     H93157   0.704   6.500   0.792  0.3992  0.3796  1.0538
  706MOL0     H93158   1.054   6.228   0.855 -0.0734 -0.3193  1.6651
  706MOL0     H93159   1.070   6.337   1.003 -0.8276  0.2422  0.6288
  706MOL0     H93160   1.145   6.514   0.819  3.6545  1.2010  0.2985
  706MOL0     H93161   1.176   6.359   0.722 -0.6659 -2.0532  0.2853
  706MOL0     H93162   1.296   6.273   0.907 -0.8219 -0.2314 -1.7995
  706MOL0     H93163   1.276   6.417   0.998 -2.7540 -2.7276 -0.0792
  706MOL0     H93164   1.419   6.379   0.732 -1.0298 -0.8529 -0.1726
  706MOL0     H93165   1.373   6.543   0.798  0.8595  0.9233  0.7124
  706MOL0     H93166   1.524   6.528   0.981  1.7977 -0.0953 -0.4413
  706MOL0     H93167   1.612   6.505   0.840 -0.1039 -0.1900 -0.6489
  706MOL0     H93168   1.584   6.247   0.886  2.4586 -1.0394 -0.2543
  706MOL0     H93169   1.510   6.285   1.039  1.2670 -4.8808  0.6859
  706MOL0     H93170   1.797   6.323   0.941 -0.2426 -0.6037 -0.2318
  706MOL0     H93171   1.746   6.409   1.083 -0.7156  0.6785  0.1982
  706MOL0     H93172   1.760   6.107   1.032 -0.1177 -2.4994  1.5519
  706MOL0     H93173   1.659   6.169   1.168 -3.0527  0.0018 -3.9086
  706MOL0     H93174   0.880   6.175   1.005  1.9577  2.2303 -0.9219
  706MOL0     H93175   0.655   6.117   1.080 -0.6656 -0.7465 -0.8081
  706MOL0     H93176   0.293   6.015   1.057  1.6680  1.2749 -2.2076
  706MOL0     H93177   0.099   5.868   1.069  1.8917  0.7112  0.8932
  706MOL0     H93178   1.521   5.699   0.848  2.7056  1.7185  0.8397
  706MOL0     H93179   1.742   5.715   0.881 -2.8928  0.3248  0.1831
  706MOL0     H93180   2.137   5.461   0.697  0.0489  0.3134 -0.2801
  706MOL0     H93181   2.387   5.447   0.663  0.4345  2.4686 -0.7777
  706MOL0     H93182   2.605   5.453   1.028 -1.2203  0.0953 -1.8893
  706MOL0     H93183   2.638   5.610   0.998 -1.8106  0.3466 -0.4146
  706MOL0     H93184   2.771   5.370   0.863  0.7429 -0.0738  1.4343
  706MOL0     H93185   2.829   5.540   0.838 -1.9511  0.2000 -3.6274
  706MOL0     H93186   2.834   5.392   1.108  0.6457 -1.7862  0.0620
  706MOL0     H93187   2.905   5.554   1.075  0.7386 -0.6223  0.3928
  706MOL0     H93188   3.057   5.367   1.079 -2.0740  0.4667  1.0917
  706MOL0     H93189   2.981   5.303   0.928 -3.2829 -0.3865  0.7155
  706MOL0     H93190   3.195   5.609   0.761 -0.6352 -0.8409 -1.2037
  706MOL0     H93191   2.427   5.581   1.082  2.6255 -1.0950 -0.8232
  706MOL0     H93192   2.202   5.588   1.105 -0.8924  2.5610 -0.4461
  707MOL0     O93193   5.283   5.025  10.460 -0.6732  0.0729 -0.4816
  707MOL0     C93194   5.243   5.104  10.551 -0.7765  0.5461  0.0968
  707MOL0     O93195   5.115   5.126  10.595 -0.3613 -0.1275 -0.1120
  707MOL0     C93196   5.002   5.062  10.540 -1.0128  0.2349  0.1800
  707MOL0     C93197   4.993   4.919  10.533 -0.5910 -0.1049 -0.8650
  707MOL0     C93198   4.880   4.859  10.476 -1.4168  0.8485 -0.2701
  707MOL0     C93199   4.788   4.937  10.411  0.0188  0.1342  0.5345
  707MOL0     O93200   4.676   4.876  10.353  0.1469  0.5418  0.8406
  707MOL0     C93201   4.707   4.796  10.237 -0.0191  0.2842 -0.5767
  707MOL0     C93202   4.584   4.769  10.146 -0.4935  0.0136 -0.1316
  707MOL0     C93203   4.498   4.890  10.130  0.2511  0.2526 -0.3979
  707MOL0     C93204   4.379   4.868  10.046  0.9530 -0.6020  0.5914
  707MOL0     C93205   4.272   4.978  10.053  0.0247  0.1225 -0.9779
  707MOL0     C93206   4.169   4.984   9.939  0.5121 -0.1742 -0.6309
  707MOL0     C93207   4.049   5.078   9.956  0.2765  0.4745 -0.6517
  707MOL0     C93208   3.976   5.119   9.818 -0.9226  0.3547 -0.6114
  707MOL0     N93209   3.864   5.221   9.831 -0.1160  0.0765 -0.4958
  707MOL0     C93210   3.805   5.287   9.727  0.2826  0.4110 -0.2559
  707MOL0     C93211   3.734   5.387   9.787 -0.1329 -0.0092 -0.0789
  707MOL0     C93212   3.649   5.487   9.725  0.5426  0.2526 -0.4309
  707MOL0     C93213   3.524   5.430   9.663 -0.2153  0.4202 -0.0409
  707MOL0     C93214   3.432   5.358   9.757  1.0040 -0.8871 -0.4394
  707MOL0     C93215   3.355   5.466   9.841 -0.2144  0.3990 -0.1071
  707MOL0     O93216   3.283   5.558   9.756 -0.0440 -0.5344 -0.5955
  707MOL0     C93217   3.149   5.558   9.751  0.1723 -0.2416  0.5930
  707MOL0     C93218   3.085   5.549   9.626  0.4737  0.1708  0.1342
  707MOL0     C93219   2.948   5.528   9.624 -0.8181 -1.1580  0.1317
  707MOL0     C93220   2.865   5.506   9.737 -0.4919  0.2160 -0.4541
  707MOL0     C93221   2.723   5.472   9.726 -0.5552  0.1527  0.1781
  707MOL0     O93222   2.665   5.435   9.604 -0.8222  0.7558  0.1945
  707MOL0     C93223   2.534   5.394   9.591 -0.1187 -0.6958  0.6548
  707MOL0     C93224   2.455   5.450   9.498 -0.1109  0.0460  0.0582
  707MOL0     C93225   2.334   5.399   9.455 -0.0085  0.7799  0.6859
  707MOL0     C93226   2.286   5.289   9.526  1.3427  0.1496 -0.8552
  707MOL0     O93227   2.168   5.236   9.473  0.3959 -0.2399  0.9574
  707MOL0     C93228   2.137   5.099   9.496  0.1405  0.2363  0.0928
  707MOL0     C93229   2.029   5.054   9.402 -0.1339  0.2789 -0.8036
  707MOL0     C93230   1.882   5.104   9.443  0.1357 -0.1778  0.7532
  707MOL0     C93231   1.786   5.085   9.325  0.7385  0.0179 -0.6575
  707MOL0     C93232   1.642   5.124   9.352  0.3263  0.5571 -0.2814
  707MOL0     C93233   1.555   5.122   9.233  0.5877  0.4060  0.3364
  707MOL0     C93234   1.403   5.146   9.268  0.1215  0.4406 -0.1592
  707MOL0     C93235   1.312   5.144   9.145 -1.1370  0.1686  0.2047
  707MOL0    Cl93236   1.151   5.080   9.200  0.2240 -0.0440  0.1010
  707MOL0     C93237   2.351   5.234   9.629 -0.3174 -0.5921 -0.9685
  707MOL0     C93238   2.482   5.279   9.655 -1.7822 -0.3261  0.4796
  707MOL0     O93239   2.660   5.481   9.828  0.1081  0.6800 -0.8213
  707MOL0     C93240   2.932   5.511   9.854  0.3688 -0.3244  0.1296
  707MOL0     C93241   3.069   5.539   9.869 -0.9203  0.3359  0.4601
  707MOL0     N93242   3.748   5.381   9.925  0.3634 -0.0634 -1.5502
  707MOL0     N93243   3.832   5.280   9.947  0.4566 -0.5978 -0.4503
  707MOL0     C93244   4.797   5.069  10.416 -0.1998 -0.5684  0.3240
  707MOL0     C93245   4.906   5.133  10.477 -0.0262 -0.2255  0.1109
  707MOL0     C93246   5.358   5.183  10.606  0.2434  0.5209 -0.6012
  707MOL0     C93247   5.488   5.164  10.561 -0.3912  0.4047  0.9104
  707MOL0     C93248   5.599   5.230  10.617  0.8147  0.1512  1.0614
  707MOL0     C93249   5.584   5.325  10.715  0.1756  0.7791 -0.9749
  707MOL0     O93250   5.704   5.374  10.765 -0.1469  0.1890  1.0720
  707MOL0     C93251   5.699   5.451  10.887  0.8415  1.0700  0.3347
  707MOL0     C93252   5.839   5.499  10.916 -0.2244 -0.3192  0.6545
  707MOL0     C93253   5.824   5.626  11.006 -0.2231  0.2301  1.0814
  707MOL0     C93254   5.955   5.658  11.079 -0.1402 -0.5073 -0.5475
  707MOL0     C93255   6.061   5.670  10.974  0.2429  0.6017  0.3272
  707MOL0     C93256   6.145   5.683  10.892  0.6402  0.3094 -0.1408
  707MOL0     C93257   5.457   5.347  10.769 -0.7085  1.6490  0.1387
  707MOL0     C93258   5.347   5.265  10.719  0.1131  0.1935 -0.0895
  707MOL0     H93259   5.076   4.864  10.575 -0.5010 -0.3012 -1.2964
  707MOL0     H93260   4.880   4.751  10.471  4.6986  0.4237  1.2765
  707MOL0     H93261   4.746   4.695  10.253 -2.3014 -0.5953 -0.2886
  707MOL0     H93262   4.770   4.852  10.167 -2.3524 -0.0812 -3.1254
  707MOL0     H93263   4.522   4.694  10.195 -2.3065  2.5964  1.7994
  707MOL0     H93264   4.609   4.754  10.040  2.2920 -1.6510  0.6786
  707MOL0     H93265   4.556   4.973  10.086  0.6269  0.9076  1.2244
  707MOL0     H93266   4.481   4.920  10.234  2.2887 -0.6099  0.2400
  707MOL0     H93267   4.416   4.862   9.943 -0.4409 -1.0285  0.0921
  707MOL0     H93268   4.349   4.767  10.073  3.5132 -2.0757 -1.5449
  707MOL0     H93269   4.312   5.078  10.034 -4.2105  1.9172 -1.6820
  707MOL0     H93270   4.227   4.980  10.153  0.1068 -1.8909 -0.8443
  707MOL0     H93271   4.127   4.885   9.919  0.0512 -0.6085  2.0273
  707MOL0     H93272   4.235   4.992   9.853  1.0000 -0.6407 -0.3073
  707MOL0     H93273   3.982   5.035  10.031  0.3257  0.6259 -0.5197
  707MOL0     H93274   4.086   5.176   9.989  0.6482  0.6002 -1.4265
  707MOL0     H93275   3.936   5.026   9.777  0.0481 -0.5917  0.5241
  707MOL0     H93276   4.058   5.159   9.758  1.2951 -2.6632  0.1776
  707MOL0     H93277   3.800   5.270   9.619 -1.1501 -4.2015  0.3101
  707MOL0     H93278   3.710   5.544   9.654 -0.7874  2.0737 -0.1863
  707MOL0     H93279   3.618   5.564   9.796 -0.8044  0.4126 -1.1477
  707MOL0     H93280   3.550   5.359   9.584 -1.0504  1.8255 -1.6527
  707MOL0     H93281   3.473   5.511   9.608 -1.5452 -1.0662 -1.0817
  707MOL0     H93282   3.348   5.307   9.709  1.1634 -0.4555 -1.1923
  707MOL0     H93283   3.485   5.285   9.817 -0.3956 -0.4347  1.4430
  707MOL0     H93284   3.423   5.516   9.911  0.5059 -1.1952  0.3656
  707MOL0     H93285   3.293   5.403   9.906  0.8428 -1.1006 -0.5072
  707MOL0     H93286   3.133   5.546   9.529 -2.4692 -0.5363 -1.4040
  707MOL0     H93287   2.900   5.517   9.527 -0.4000  0.0191 -0.2210
  707MOL0     H93288   2.493   5.536   9.444 -1.8571  0.6941 -0.1853
  707MOL0     H93289   2.279   5.442   9.372 -0.7769 -3.2835 -1.1606
  707MOL0     H93290   2.112   5.083   9.601  0.1679  0.5920  0.1531
  707MOL0     H93291   2.231   5.046   9.482  0.0853 -0.5206  2.2062
  707MOL0     H93292   2.037   4.946   9.383 -0.8632  0.3097 -1.3201
  707MOL0     H93293   2.056   5.079   9.299  1.3993 -3.7972 -1.5962
  707MOL0     H93294   1.865   5.207   9.473 -3.2184 -0.2544 -0.4453
  707MOL0     H93295   1.854   5.048   9.533  1.0650 -2.0201 -0.0360
  707MOL0     H93296   1.824   5.162   9.256  0.4288 -1.3475 -2.4246
  707MOL0     H93297   1.788   4.991   9.268 -1.3805  0.6532 -1.9037
  707MOL0     H93298   1.634   5.220   9.404 -0.7221 -0.4511  1.5207
  707MOL0     H93299   1.595   5.050   9.418 -0.7246  0.8733 -0.6586
  707MOL0     H93300   1.559   5.031   9.173 -1.1299  0.8739 -0.5440
  707MOL0     H93301   1.587   5.205   9.169  1.0628 -0.0830 -0.0750
  707MOL0     H93302   1.372   5.068   9.337  0.8717  0.8757  0.6903
  707MOL0     H93303   1.393   5.242   9.320 -0.4240 -0.1440  0.8317
  707MOL0     H93304   1.354   5.084   9.064  0.7630  0.4327  0.9480
  707MOL0     H93305   1.290   5.241   9.098  0.3749 -0.3253 -1.6430
  707MOL0     H93306   2.299   5.150   9.673 -3.0478  0.1688 -2.5223
  707MOL0     H93307   2.544   5.220   9.722  4.0869  0.7942 -3.2524
  707MOL0     H93308   2.878   5.494   9.947 -0.3393 -0.8929 -0.3732
  707MOL0     H93309   3.118   5.543   9.965 -0.1146  0.6057  0.0497
  707MOL0     H93310   4.723   5.131  10.367 -1.2132 -1.4965  0.6131
  707MOL0     H93311   4.907   5.241  10.462 -1.9391 -0.0434  1.0004
  707MOL0     H93312   5.501   5.085  10.488  0.2692 -0.1468  1.6047
  707MOL0     H93313   5.695   5.213  10.571 -0.4305 -3.3856 -0.5508
  707MOL0     H93314   5.657   5.387  10.965  2.6129  0.2618  0.6776
  707MOL0     H93315   5.642   5.544  10.876 -0.2012  0.7359  2.4676
  707MOL0     H93316   5.901   5.415  10.949 -0.4973 -1.3393 -1.2920
  707MOL0     H93317   5.886   5.543  10.828  1.5412  1.0317  2.1663
  707MOL0     H93318   5.754   5.593  11.084 -1.1397 -1.9136 -0.5346
  707MOL0     H93319   5.774   5.715  10.966 -3.2229 -2.5020 -1.8723
  707MOL0     H93320   5.935   5.757  11.121 -3.1658 -0.8298 -1.0446
  707MOL0     H93321   5.978   5.592  11.163 -1.5293  0.7388  0.8783
  707MOL0     H93322   6.220   5.699  10.817  0.5645 -0.7007 -0.4419
  707MOL0     H93323   5.444   5.406  10.859  0.8327 -0.2492  1.7144
  707MOL0     H93324   5.247   5.275  10.761  1.0412  2.1089  1.8864
  708MOL0     O93325   6.947   9.448   0.696 -0.6889  0.3844 -0.6416
  708MOL0     C93326   6.885   9.461   0.804  0.2569  0.0421  0.3453
  708MOL0     O93327   6.906   9.553   0.907  0.5450  0.4254  0.1961
  708MOL0     C93328   7.025   9.610   0.920 -0.5390  0.2579 -0.3708
  708MOL0     C93329   7.028   9.743   0.936  0.3754 -0.5248  0.2329
  708MOL0     C93330   7.156   9.806   0.952 -0.0826  0.2380 -0.1216
  708MOL0     C93331   7.270   9.738   0.942  0.4332 -0.0552  0.5211
  708MOL0     O93332   7.389   9.815   0.936  0.5854 -0.9638  0.8333
  708MOL0     C93333   7.520   9.766   0.938  0.7080 -0.7262 -0.0005
  708MOL0     C93334   7.623   9.877   0.935 -0.2116 -0.5389  0.2413
  708MOL0     C93335   7.761   9.835   0.965  0.5339 -0.2100 -0.0826
  708MOL0     C93336   7.844   9.962   0.981  0.1701 -0.2578 -0.2878
  708MOL0     C93337   7.992   9.931   0.978  0.7825 -0.4441  0.1412
  708MOL0     C93338   8.034   9.890   1.121  0.3810  0.1335  0.3325
  708MOL0     C93339   8.167   9.830   1.123 -0.2237 -0.7706  0.3093
  708MOL0     C93340   8.278   9.926   1.073 -0.3131  0.4761 -1.0699
  708MOL0     N93341   8.418   9.874   1.078 -0.8795  0.0719  0.7035
  708MOL0     C93342   8.482   9.780   1.160  0.2381  0.0418 -0.5132
  708MOL0     C93343   8.612   9.808   1.162  0.5799  0.6513 -0.2026
  708MOL0     C93344   8.717   9.709   1.213  0.7662 -0.2207  0.4059
  708MOL0     C93345   8.847   9.707   1.134  0.2706 -0.4358 -0.0124
  708MOL0     C93346   8.946   9.613   1.205  0.0214  0.4202  0.0895
  708MOL0     C93347   9.088   9.606   1.147 -0.5814 -0.3750  0.3113
  708MOL0     O93348   9.145   9.735   1.161  0.1316 -0.6397  0.0987
  708MOL0     C93349   9.271   9.743   1.110 -1.1115 -0.1848 -0.6231
  708MOL0     C93350   9.369   9.642   1.111 -0.9219 -0.5295  0.0155
  708MOL0     C93351   9.502   9.668   1.064  0.9136  0.4888  0.3617
  708MOL0     C93352   9.539   9.796   1.024  0.2661  0.0001  0.4485
  708MOL0     C93353   9.674   9.823   0.976 -0.5418  0.9997 -0.3555
  708MOL0     O93354   9.718   9.943   0.959 -0.6239 -0.4293  0.2251
  708MOL0     C93355   9.844   9.967   0.903 -0.6095 -0.1101  0.2067
  708MOL0     C93356   9.946  10.047   0.966 -0.8918  0.1788 -0.0898
  708MOL0     C93357  10.062  10.075   0.913  0.7375 -0.3565  0.4390
  708MOL0     C93358  10.093  10.033   0.779  0.1078  0.2539  0.0821
  708MOL0     O93359  10.218  10.055   0.722 -0.5590 -0.1520  0.9635
  708MOL0     C93360  10.313  10.158   0.760  0.0557 -0.5215  0.8855
  708MOL0     C93361  10.265  10.294   0.737  0.0246  0.1966  1.2416
  708MOL0     C93362  10.346  10.404   0.813 -0.9676  0.0166 -0.5451
  708MOL0     C93363  10.250  10.529   0.833 -0.5507  0.7654  0.2220
  708MOL0     C93364  10.281  10.627   0.951  0.2696  0.4020  0.0226
  708MOL0     C93365  10.223  10.758   0.925  0.1440 -0.8012 -0.5226
  708MOL0     C93366  10.068  10.749   0.932 -0.5131  0.5595 -0.2331
  708MOL0     C93367  10.012  10.893   0.932 -0.3425  0.1482  0.4142
  708MOL0    Cl93368  10.064  10.979   0.775 -0.0411  0.6780 -0.4091
  708MOL0     C93369   9.999   9.951   0.712  0.3169 -0.5233  0.3056
  708MOL0     C93370   9.882   9.915   0.772  0.2605 -0.3363 -0.3343
  708MOL0     O93371   9.738   9.720   0.972  0.2303 -0.4648 -0.6684
  708MOL0     C93372   9.438   9.900   1.024 -0.5356 -0.1880  0.0684
  708MOL0     C93373   9.310   9.872   1.061 -0.7620  0.7906 -0.1829
  708MOL0     N93374   8.642   9.914   1.078 -0.6801 -0.4085 -0.2965
  708MOL0     N93375   8.525   9.952   1.034  0.2556 -0.5466 -0.3178
  708MOL0     C93376   7.264   9.595   0.923 -0.2018 -0.0404 -0.0037
  708MOL0     C93377   7.138   9.529   0.924 -0.0272 -0.2013  0.2750
  708MOL0     C93378   6.756   9.389   0.814 -0.1860 -0.2303 -0.1550
  708MOL0     C93379   6.703   9.295   0.711 -0.6653  0.3316 -0.4540
  708MOL0     C93380   6.578   9.237   0.720  0.0469 -0.3453  0.0532
  708MOL0     C93381   6.499   9.259   0.831  0.1131 -0.2463 -0.6329
  708MOL0     O93382   6.373   9.205   0.836  0.2199  0.1151 -0.1477
  708MOL0     C93383   6.266   9.260   0.912  0.7377 -0.5184 -1.5156
  708MOL0     C93384   6.230   9.402   0.857 -1.0959  0.5101 -0.8386
  708MOL0     C93385   6.157   9.480   0.963 -0.0292 -0.6397 -0.5249
  708MOL0     C93386   6.104   9.614   0.903  0.3263  0.3565  0.7664
  708MOL0     C93387   6.013   9.585   0.785 -0.7694  0.4358 -1.1889
  708MOL0     C93388   5.953   9.542   0.687  0.1639 -0.5165 -0.2647
  708MOL0     C93389   6.548   9.339   0.935  0.7266 -0.6140 -0.8762
  708MOL0     C93390   6.679   9.391   0.930 -0.4960 -0.6246 -0.2588
  708MOL0     H93391   6.930   9.787   0.919 -0.0096 -1.9055 -1.3275
  708MOL0     H93392   7.153   9.914   0.965 -0.0357  0.6641 -3.0767
  708MOL0     H93393   7.529   9.702   0.850  1.8673 -2.7162  1.4933
  708MOL0     H93394   7.536   9.708   1.029  0.9422 -2.1686 -0.9309
  708MOL0     H93395   7.581   9.956   0.998 -1.0538 -0.8889  0.1347
  708MOL0     H93396   7.616   9.918   0.834 -3.3990  0.5998  0.8064
  708MOL0     H93397   7.793   9.771   0.882 -1.8617  0.3891 -1.5659
  708MOL0     H93398   7.770   9.773   1.054 -1.1391  0.2388  0.4348
  708MOL0     H93399   7.824  10.013   0.886 -2.3919 -2.9292 -1.3428
  708MOL0     H93400   7.816  10.019   1.070  1.8991 -1.2359  0.9346
  708MOL0     H93401   8.054  10.019   0.960  1.4406 -0.8835  0.2029
  708MOL0     H93402   8.024   9.863   0.898 -0.4786 -1.9458  0.8539
  708MOL0     H93403   7.958   9.824   1.164  1.5626 -1.2880  0.3299
  708MOL0     H93404   8.032   9.977   1.187  0.4620  0.6078 -0.2859
  708MOL0     H93405   8.186   9.808   1.229  1.8602 -2.5207 -0.3407
  708MOL0     H93406   8.172   9.733   1.072  1.7543 -3.0025  4.2181
  708MOL0     H93407   8.289  10.021   1.125  2.4745 -0.1680 -0.3205
  708MOL0     H93408   8.260   9.942   0.966  0.6022  0.5397 -1.2150
  708MOL0     H93409   8.434   9.691   1.201 -1.9014  1.0818 -0.6186
  708MOL0     H93410   8.675   9.608   1.223  1.1083 -0.4088 -0.0591
  708MOL0     H93411   8.739   9.745   1.314 -0.6024 -1.3744  1.1570
  708MOL0     H93412   8.897   9.804   1.124 -1.4107  0.4484 -0.2668
  708MOL0     H93413   8.830   9.672   1.032  1.5767 -0.5781 -0.1946
  708MOL0     H93414   8.956   9.634   1.312 -0.5539 -1.1448  0.4803
  708MOL0     H93415   8.902   9.513   1.193 -2.2783  1.2769  0.8985
  708MOL0     H93416   9.084   9.568   1.044 -1.1150 -1.4156  0.6968
  708MOL0     H93417   9.151   9.533   1.199  4.2525  1.9025 -1.6944
  708MOL0     H93418   9.348   9.540   1.142  1.9777 -0.4766  2.6900
  708MOL0     H93419   9.554   9.576   1.039 -0.7539 -0.6080  0.7908
  708MOL0     H93420   9.929  10.095   1.062 -0.0743 -0.3771  0.3405
  708MOL0     H93421  10.127  10.143   0.967 -1.0497  1.8159 -0.0145
  708MOL0     H93422  10.406  10.160   0.702 -1.0376  2.4423 -1.0435
  708MOL0     H93423  10.329  10.148   0.867 -1.3587 -1.5472  1.0234
  708MOL0     H93424  10.160  10.311   0.763 -0.3654  1.6069 -0.9863
  708MOL0     H93425  10.283  10.321   0.632 -0.5613  1.8336  1.5487
  708MOL0     H93426  10.442  10.435   0.770 -0.5430 -0.3246  0.1543
  708MOL0     H93427  10.383  10.373   0.910 -0.5405  1.4927 -0.2108
  708MOL0     H93428  10.246  10.595   0.746  1.2638 -0.1994 -0.6482
  708MOL0     H93429  10.152  10.482   0.849  0.5631 -0.8545  2.9215
  708MOL0     H93430  10.388  10.648   0.961  1.3949 -2.4985 -3.4276
  708MOL0     H93431  10.243  10.581   1.042  0.3134 -0.5905 -0.4479
  708MOL0     H93432  10.260  10.795   0.829  1.1478  3.9079  1.4336
  708MOL0     H93433  10.252  10.832   1.000 -4.3392  1.7471 -0.9615
  708MOL0     H93434  10.021  10.706   0.843  0.4950 -0.6552 -0.2128
  708MOL0     H93435  10.046  10.690   1.022  0.8481  2.7182  1.6393
  708MOL0     H93436  10.047  10.942   1.023  2.0844 -1.0560  0.2302
  708MOL0     H93437   9.904  10.885   0.942 -0.1748 -1.9600  0.9504
  708MOL0     H93438  10.035   9.915   0.616 -0.7220 -1.0413  0.0948
  708MOL0     H93439   9.818   9.839   0.729 -3.0678  0.9741  1.8634
  708MOL0     H93440   9.462   9.998   0.984 -0.0199  0.0525  0.9533
  708MOL0     H93441   9.231   9.946   1.063 -1.6104 -0.1126  1.0391
  708MOL0     H93442   7.357   9.542   0.906  0.9748  1.2278  2.0032
  708MOL0     H93443   7.123   9.422   0.936 -1.7555  0.0765  0.8675
  708MOL0     H93444   6.760   9.260   0.626 -0.1038 -2.7043  1.0285
  708MOL0     H93445   6.525   9.182   0.643 -0.4181  0.0097  0.1187
  708MOL0     H93446   6.288   9.253   1.019 -1.1696  1.8266 -0.8768
  708MOL0     H93447   6.177   9.197   0.904 -0.6868  1.1970 -0.1658
  708MOL0     H93448   6.323   9.454   0.831 -0.7446 -0.1105 -0.8202
  708MOL0     H93449   6.169   9.395   0.766 -0.2464  1.5615 -1.5155
  708MOL0     H93450   6.228   9.499   1.043 -0.4589  0.4621 -0.3825
  708MOL0     H93451   6.073   9.428   1.010 -0.7685  2.2308  1.6365
  708MOL0     H93452   6.044   9.668   0.978 -1.5257  3.3414 -2.5345
  708MOL0     H93453   6.190   9.669   0.864  0.8240  0.5884  2.1509
  708MOL0     H93454   5.891   9.524   0.602 -3.6936 -1.2463  2.4412
  708MOL0     H93455   6.483   9.382   1.011  0.1114 -0.8281 -1.2759
  708MOL0     H93456   6.715   9.448   1.015  0.9781  1.3332 -2.0887
  709MOL0     O93457   6.877   6.164   4.004  0.1145 -0.7412 -0.6191
  709MOL0     C93458   6.893   6.232   4.103 -0.0972  0.2152  0.4716
  709MOL0     O93459   6.790   6.287   4.180  0.0258  0.1307  0.0452
  709MOL0     C93460   6.659   6.276   4.138  0.3503 -1.1604  0.4694
  709MOL0     C93461   6.563   6.209   4.213 -0.2465 -0.1192  0.2567
  709MOL0     C93462   6.430   6.221   4.166  0.9329 -0.0520 -0.5673
  709MOL0     C93463   6.384   6.297   4.053 -0.4025  0.4958  0.3135
  709MOL0     O93464   6.257   6.320   4.003 -0.2530  0.3444 -0.2301
  709MOL0     C93465   6.151   6.227   4.027 -0.8615 -0.1919  0.1253
  709MOL0     C93466   6.006   6.288   4.034  0.6974 -0.7957 -0.3365
  709MOL0     C93467   5.982   6.388   3.919 -0.6679  0.4380 -1.2592
  709MOL0     C93468   5.831   6.422   3.923  0.4474  0.8535  0.6619
  709MOL0     C93469   5.800   6.505   4.043 -0.4082 -0.4856 -0.1778
  709MOL0     C93470   5.669   6.570   4.022  0.2442 -0.5811 -0.2396
  709MOL0     C93471   5.622   6.649   4.136 -0.2982  0.2793  0.2888
  709MOL0     C93472   5.513   6.752   4.099  0.5028  0.3889 -0.2622
  709MOL0     N93473   5.532   6.841   3.994 -0.2181 -0.0925  0.2612
  709MOL0     C93474   5.638   6.936   3.996 -0.0281 -0.2806 -0.1755
  709MOL0     C93475   5.616   7.025   3.889 -0.2825 -0.2160  0.1905
  709MOL0     C93476   5.683   7.157   3.855 -0.0276 -0.9565 -0.1352
  709MOL0     C93477   5.686   7.172   3.701 -0.0682 -0.3407 -0.0161
  709MOL0     C93478   5.792   7.272   3.649  0.8197  0.6520 -0.6788
  709MOL0     C93479   5.936   7.225   3.660 -1.1782 -0.0403  0.1713
  709MOL0     O93480   5.969   7.128   3.564  0.6660  0.2028 -1.1873
  709MOL0     C93481   6.102   7.083   3.542 -0.2902 -0.5625 -0.3269
  709MOL0     C93482   6.132   7.020   3.421  0.1815 -0.1029  0.7675
  709MOL0     C93483   6.266   6.982   3.391 -0.1445  0.1907 -0.0929
  709MOL0     C93484   6.363   6.985   3.489 -0.0193  0.1367 -0.0551
  709MOL0     C93485   6.498   6.952   3.457 -1.1051  0.3333  0.3213
  709MOL0     O93486   6.598   6.996   3.548 -0.5361 -0.4353 -0.4989
  709MOL0     C93487   6.733   6.976   3.513  0.4256 -0.2570  0.3802
  709MOL0     C93488   6.809   6.875   3.568  0.3337  0.1945 -0.1655
  709MOL0     C93489   6.938   6.849   3.513 -0.8750 -0.0755 -0.0569
  709MOL0     C93490   7.003   6.942   3.424 -0.2484  1.2834  0.6929
  709MOL0     O93491   7.128   6.921   3.381 -0.0989  0.2396  0.4861
  709MOL0     C93492   7.186   7.016   3.282  1.0511  0.0538  0.9445
  709MOL0     C93493   7.216   7.150   3.330 -0.0946 -0.1979 -0.7030
  709MOL0     C93494   7.243   7.254   3.218 -0.3348  0.2258 -0.8304
  709MOL0     C93495   7.123   7.294   3.119  0.2121 -0.1900 -1.2144
  709MOL0     C93496   7.126   7.230   2.984 -0.7500  0.3842  0.3031
  709MOL0     C93497   7.023   7.299   2.891  0.2375 -0.4204  0.1051
  709MOL0     C93498   6.878   7.276   2.918  0.2381  0.1025 -0.6852
  709MOL0     C93499   6.788   7.344   2.808 -0.3102  0.9898  0.4542
  709MOL0    Cl93500   6.625   7.353   2.865 -0.0082 -0.5226 -0.1548
  709MOL0     C93501   6.912   7.043   3.372  0.1302 -0.6080 -0.2908
  709MOL0     C93502   6.781   7.070   3.420 -1.1848  0.1315 -0.1707
  709MOL0     O93503   6.519   6.894   3.352 -0.0839  0.7472 -0.7000
  709MOL0     C93504   6.332   7.049   3.617  0.0932  0.7176 -0.1562
  709MOL0     C93505   6.204   7.097   3.640  0.6782 -0.5551  0.4167
  709MOL0     N93506   5.501   6.981   3.831 -0.1575  0.2479  0.0207
  709MOL0     N93507   5.456   6.879   3.892  0.6029 -0.2059  0.1187
  709MOL0     C93508   6.486   6.363   3.981  0.3491  1.0162 -0.1534
  709MOL0     C93509   6.619   6.359   4.023 -0.2259 -0.4350 -0.5333
  709MOL0     C93510   7.034   6.259   4.142  0.4183  0.1268 -0.3093
  709MOL0     C93511   7.051   6.342   4.244 -0.3161 -0.0055 -0.4598
  709MOL0     C93512   7.187   6.370   4.278  0.8843  0.2835 -0.1813
  709MOL0     C93513   7.298   6.307   4.222 -0.0676  0.6889 -0.6087
  709MOL0     O93514   7.426   6.314   4.264 -0.1410 -0.7737  0.3738
  709MOL0     C93515   7.438   6.345   4.403 -0.2958  0.2955  0.2558
  709MOL0     C93516   7.583   6.324   4.447  0.4862 -0.1168 -0.2960
  709MOL0     C93517   7.638   6.189   4.414  0.5665  0.9403 -0.4518
  709MOL0     C93518   7.777   6.167   4.458  0.1787  0.7204 -0.7314
  709MOL0     C93519   7.783   6.022   4.472 -0.4541 -1.0457  0.0677
  709MOL0     C93520   7.773   5.901   4.483  0.1782  0.1013  0.8672
  709MOL0     C93521   7.274   6.237   4.104 -0.0009 -0.2010 -0.7750
  709MOL0     C93522   7.141   6.209   4.061  0.2987 -0.7355 -0.7854
  709MOL0     H93523   6.589   6.160   4.306  0.0307 -3.1197 -1.2488
  709MOL0     H93524   6.361   6.179   4.239  0.4365 -1.1794 -1.6536
  709MOL0     H93525   6.167   6.160   4.113 -0.4045 -1.1587 -0.6841
  709MOL0     H93526   6.149   6.153   3.946 -0.1693 -0.8809  0.7195
  709MOL0     H93527   6.002   6.327   4.136 -1.4335  0.9624 -1.0291
  709MOL0     H93528   5.931   6.211   4.013  1.6005 -1.4615 -1.2324
  709MOL0     H93529   6.017   6.335   3.830  2.1711  0.7524 -0.4260
  709MOL0     H93530   6.041   6.480   3.928 -0.1037  0.0438 -0.8535
  709MOL0     H93531   5.820   6.478   3.830  4.4227 -2.3736 -2.1324
  709MOL0     H93532   5.763   6.337   3.907  0.9404  0.6465 -0.4379
  709MOL0     H93533   5.872   6.587   4.054 -1.4169  0.5957 -1.2211
  709MOL0     H93534   5.802   6.442   4.133 -0.1366  0.4530  0.4925
  709MOL0     H93535   5.590   6.496   4.003  1.4431 -1.6345 -1.3593
  709MOL0     H93536   5.681   6.628   3.930 -1.7851  0.4579  0.1011
  709MOL0     H93537   5.575   6.581   4.207 -0.2789 -1.2067 -1.0730
  709MOL0     H93538   5.703   6.699   4.189 -0.2368 -0.1042  0.5640
  709MOL0     H93539   5.504   6.802   4.196  0.4802 -1.1248  0.5461
  709MOL0     H93540   5.419   6.699   4.083 -2.4398  4.4700  1.5789
  709MOL0     H93541   5.709   6.943   4.079  0.7195  0.4223 -0.8535
  709MOL0     H93542   5.789   7.156   3.886  0.0084  2.4823  0.2524
  709MOL0     H93543   5.628   7.238   3.903 -0.7557 -0.2192 -2.1341
  709MOL0     H93544   5.580   7.193   3.680 -0.4632 -2.3770 -0.2283
  709MOL0     H93545   5.710   7.081   3.646  0.3073 -0.8102  0.9095
  709MOL0     H93546   5.758   7.298   3.548  2.2703  3.2871 -0.5816
  709MOL0     H93547   5.777   7.359   3.714 -1.1692 -1.6966  2.3145
  709MOL0     H93548   5.961   7.186   3.759 -1.2464  0.3932  0.3582
  709MOL0     H93549   6.005   7.307   3.643 -1.1628 -0.2700 -0.9536
  709MOL0     H93550   6.048   7.003   3.354 -0.7798 -0.7000  2.0797
  709MOL0     H93551   6.289   6.932   3.297  0.5613 -0.7892  0.5841
  709MOL0     H93552   6.767   6.816   3.648 -0.9366  1.5214  0.1888
  709MOL0     H93553   6.994   6.762   3.546  0.5486  1.1207  0.8070
  709MOL0     H93554   7.112   7.019   3.202 -0.0649  4.5210  1.8661
  709MOL0     H93555   7.283   6.977   3.250  0.7605 -0.2498  0.4346
  709MOL0     H93556   7.302   7.143   3.398 -1.8132 -0.0245  1.6264
  709MOL0     H93557   7.136   7.185   3.397  0.2771  0.6161 -0.6682
  709MOL0     H93558   7.329   7.216   3.163 -1.2713 -0.2229 -2.0186
  709MOL0     H93559   7.260   7.343   3.281  0.6202  0.9880 -2.1013
  709MOL0     H93560   7.030   7.278   3.174  0.1483  0.4149 -1.1425
  709MOL0     H93561   7.129   7.402   3.101 -0.0153  0.2312  0.9703
  709MOL0     H93562   7.103   7.125   3.000  1.6648 -0.2082  0.2972
  709MOL0     H93563   7.229   7.237   2.947 -0.1987 -1.8840  1.2777
  709MOL0     H93564   7.047   7.264   2.790  1.2993  3.2542 -1.0913
  709MOL0     H93565   7.040   7.407   2.894  0.1630 -0.3405 -1.4926
  709MOL0     H93566   6.847   7.171   2.919  3.0559 -0.7997  0.5740
  709MOL0     H93567   6.857   7.323   3.015  0.9602  0.0614 -0.5029
  709MOL0     H93568   6.794   7.283   2.718  4.0410  0.1933  1.0492
  709MOL0     H93569   6.813   7.450   2.793  0.4577  0.4108 -3.6017
  709MOL0     H93570   6.936   7.117   3.296 -1.5989 -0.0805 -0.3562
  709MOL0     H93571   6.732   7.159   3.382  0.8061  0.5410 -1.9264
  709MOL0     H93572   6.405   7.056   3.697  0.3003  2.8298 -0.4714
  709MOL0     H93573   6.183   7.130   3.742  2.5337 -2.7056  1.5823
  709MOL0     H93574   6.444   6.409   3.892  2.8696 -1.0677 -2.6005
  709MOL0     H93575   6.689   6.409   3.956 -2.6113  1.2352 -1.9425
  709MOL0     H93576   6.971   6.404   4.282 -0.8833 -0.8490 -0.2816
  709MOL0     H93577   7.211   6.441   4.356  0.2300 -1.3491  1.5725
  709MOL0     H93578   7.368   6.283   4.460 -1.7079  0.5476 -1.1438
  709MOL0     H93579   7.414   6.450   4.423 -3.1789 -0.1957 -0.2399
  709MOL0     H93580   7.646   6.401   4.401  1.0521  1.0743  2.2947
  709MOL0     H93581   7.589   6.342   4.555  1.1411 -0.8804 -0.1932
  709MOL0     H93582   7.632   6.177   4.306 -0.8379 -1.2574 -0.1932
  709MOL0     H93583   7.566   6.120   4.458  0.7033  1.1824  0.1779
  709MOL0     H93584   7.837   6.200   4.372 -0.7087  1.0959 -1.2198
  709MOL0     H93585   7.808   6.231   4.542  0.7742 -0.2157 -0.2206
  709MOL0     H93586   7.759   5.797   4.504 -2.5039  0.3024  0.3869
  709MOL0     H93587   7.367   6.205   4.057  1.1079  1.8093 -0.0709
  709MOL0     H93588   7.126   6.163   3.964  3.2465 -0.2659 -1.5729
  710MOL0     O93589  10.005   0.232   7.586  0.0311 -0.2881  0.0092
  710MOL0     C93590   9.998   0.356   7.591  1.0402  1.1168 -0.4010
  710MOL0     O93591   9.890   0.422   7.537 -0.3650  0.2902 -0.4488
  710MOL0     C93592   9.776   0.347   7.529 -0.7864  0.0306  0.0198
  710MOL0     C93593   9.678   0.354   7.625 -0.3835 -0.2207  0.4981
  710MOL0     C93594   9.575   0.256   7.627  0.0399 -0.4614  0.3287
  710MOL0     C93595   9.558   0.169   7.523  0.4900 -0.1009  0.4526
  710MOL0     O93596   9.444   0.084   7.515 -0.2469  0.2130 -0.7487
  710MOL0     C93597   9.347   0.069   7.620  0.2264 -0.2656  0.0565
  710MOL0     C93598   9.253  -0.049   7.599 -1.0824  1.2470  0.6056
  710MOL0     C93599   9.130  -0.043   7.685  0.4092 -0.3046  0.4144
  710MOL0     C93600   9.035  -0.160   7.676  0.7790  0.1886 -0.3770
  710MOL0     C93601   8.886  -0.125   7.699  0.0754 -0.9191 -0.8239
  710MOL0     C93602   8.824  -0.087   7.572  0.2241 -0.0998  0.0713
  710MOL0     C93603   8.670  -0.080   7.576 -0.1877 -0.4925  0.1779
  710MOL0     C93604   8.618  -0.233   7.551  0.1685  1.0782  0.4436
  710MOL0     N93605   8.487  -0.263   7.626  0.3188 -0.4613  0.8422
  710MOL0     C93606   8.361  -0.220   7.582  0.6515 -0.1446 -1.6440
  710MOL0     C93607   8.286  -0.218   7.698 -0.5104  0.2181  0.2819
  710MOL0     C93608   8.144  -0.200   7.715  1.3079  0.2742 -0.1353
  710MOL0     C93609   8.062  -0.321   7.662  0.6092  0.2492  0.4999
  710MOL0     C93610   7.914  -0.291   7.614  0.4995 -0.4890  0.1191
  710MOL0     C93611   7.816  -0.228   7.712  0.7962  0.0366  0.2874
  710MOL0     O93612   7.684  -0.279   7.678  0.5129  0.3706 -0.3047
  710MOL0     C93613   7.588  -0.227   7.760  0.8115 -0.0249 -0.4289
  710MOL0     C93614   7.600  -0.133   7.859  0.3297 -0.9736 -0.7346
  710MOL0     C93615   7.489  -0.084   7.931  0.4130 -0.3483  0.0619
  710MOL0     C93616   7.359  -0.120   7.886  0.0000  0.9278 -0.3172
  710MOL0     C93617   7.228  -0.069   7.917 -0.3533  0.6453 -0.4519
  710MOL0     O93618   7.128  -0.079   7.822  0.1005 -0.2741  0.1238
  710MOL0     C93619   7.010  -0.078   7.876  0.6190 -0.0226 -0.6953
  710MOL0     C93620   6.907   0.021   7.869 -0.5564  0.1589 -0.3905
  710MOL0     C93621   6.787   0.011   7.931 -0.0769  0.2339  0.3440
  710MOL0     C93622   6.751  -0.098   8.006  0.8527  0.6610  0.4150
  710MOL0     O93623   6.628  -0.126   8.061  0.5935  0.3008 -0.4768
  710MOL0     C93624   6.523  -0.151   7.971  0.0224 -0.6809  0.6644
  710MOL0     C93625   6.387  -0.098   8.028 -0.3604 -0.4022  0.2417
  710MOL0     C93626   6.394   0.046   8.071 -0.8364  0.1614 -0.4897
  710MOL0     C93627   6.284   0.093   8.162 -0.3166  0.0270 -0.3800
  710MOL0     C93628   6.146   0.094   8.100  0.2458 -0.9211  0.1928
  710MOL0     C93629   6.047   0.153   8.203 -0.6354 -0.0232 -0.3485
  710MOL0     C93630   5.896   0.129   8.164 -0.5123  0.4215  0.7589
  710MOL0     C93631   5.799   0.177   8.260  0.1622 -0.2724 -0.4706
  710MOL0    Cl93632   5.796   0.104   8.418  0.2475  0.4048  0.6126
  710MOL0     C93633   6.843  -0.205   8.003 -0.1936  0.7135 -0.2255
  710MOL0     C93634   6.970  -0.198   7.943 -0.1155  0.7085  0.2438
  710MOL0     O93635   7.215  -0.022   8.030  0.1640  0.8632 -1.3306
  710MOL0     C93636   7.355  -0.222   7.790 -0.4755  1.6292 -0.4620
  710MOL0     C93637   7.460  -0.275   7.728 -0.8094 -0.6318 -0.5005
  710MOL0     N93638   8.362  -0.251   7.807 -0.2466  0.1962  0.2934
  710MOL0     N93639   8.479  -0.294   7.759 -0.2967 -0.7364  0.5593
  710MOL0     C93640   9.641   0.179   7.413 -0.8288  0.1693  0.2316
  710MOL0     C93641   9.752   0.264   7.414 -0.7172 -0.0310  0.3144
  710MOL0     C93642  10.109   0.434   7.635 -1.0030  0.0108 -0.3771
  710MOL0     C93643  10.238   0.382   7.627  0.2205  0.5514 -0.3628
  710MOL0     C93644  10.344   0.463   7.674 -0.1324  0.4340  0.2694
  710MOL0     C93645  10.320   0.588   7.716  0.1263 -0.9383  0.9978
  710MOL0     O93646  10.430   0.670   7.739 -0.0797 -0.7643  0.3284
  710MOL0     C93647  10.412   0.802   7.800 -0.7359 -0.3063  0.9911
  710MOL0     C93648  10.543   0.876   7.814 -0.9028 -0.2770  0.0019
  710MOL0     C93649  10.651   0.799   7.894 -0.1293 -0.1982 -0.3609
  710MOL0     C93650  10.777   0.875   7.892  0.1850  0.3524 -0.1942
  710MOL0     C93651  10.820   0.905   8.030  0.1098  0.6674 -0.0383
  710MOL0     C93652  10.837   0.949   8.139  0.4973 -0.0256 -0.0178
  710MOL0     C93653  10.188   0.631   7.739 -0.0200  0.0300 -0.3694
  710MOL0     C93654  10.083   0.562   7.694 -0.0261  0.0821 -0.5810
  710MOL0     H93655   9.682   0.434   7.698  1.9272  0.8856 -0.7330
  710MOL0     H93656   9.499   0.251   7.704 -0.9794 -0.7401 -0.6709
  710MOL0     H93657   9.296   0.164   7.635  1.8631  0.2805  3.0035
  710MOL0     H93658   9.413   0.062   7.707  0.3463  0.2449  0.0079
  710MOL0     H93659   9.316  -0.132   7.633 -0.4781  2.1694  1.7901
  710MOL0     H93660   9.222  -0.070   7.496 -0.6020  4.5517 -0.3013
  710MOL0     H93661   9.076   0.047   7.654  0.6787 -1.3204 -3.5799
  710MOL0     H93662   9.160  -0.043   7.790  1.1733 -1.9693  0.2304
  710MOL0     H93663   9.042  -0.210   7.579  0.7715 -0.7631  0.1040
  710MOL0     H93664   9.065  -0.238   7.747  2.0792 -0.1354 -1.2477
  710MOL0     H93665   8.867  -0.052   7.779  0.8967 -1.2887 -0.2786
  710MOL0     H93666   8.839  -0.215   7.737  0.1530  0.5055  3.1314
  710MOL0     H93667   8.848  -0.155   7.490 -3.0446 -0.4745 -0.7215
  710MOL0     H93668   8.864   0.007   7.534 -0.6229  0.0566 -0.4574
  710MOL0     H93669   8.624  -0.022   7.657  0.6400 -0.7295  0.8258
  710MOL0     H93670   8.643  -0.020   7.488 -0.3251  1.6128  1.5734
  710MOL0     H93671   8.685  -0.312   7.586  2.0474  2.1085 -0.6248
  710MOL0     H93672   8.618  -0.247   7.443  2.6165  0.9294  0.4135
  710MOL0     H93673   8.347  -0.193   7.478  2.7519 -0.9069 -2.1865
  710MOL0     H93674   8.113  -0.111   7.659  0.1522 -1.8300 -3.0829
  710MOL0     H93675   8.127  -0.187   7.823  1.7819 -4.2652  0.6584
  710MOL0     H93676   8.045  -0.396   7.740 -3.9708 -0.6925 -1.0852
  710MOL0     H93677   8.108  -0.363   7.572 -1.3355 -0.4018 -0.2253
  710MOL0     H93678   7.922  -0.244   7.515 -2.8957  0.9507  0.3739
  710MOL0     H93679   7.871  -0.386   7.582  1.5123 -0.5206 -1.2732
  710MOL0     H93680   7.810  -0.121   7.688  0.7083 -0.1143 -0.3831
  710MOL0     H93681   7.844  -0.236   7.817 -2.4305  4.1664  1.7329
  710MOL0     H93682   7.692  -0.079   7.881 -0.4009  1.7094 -3.6961
  710MOL0     H93683   7.483  -0.012   8.012 -1.1294 -0.5976  0.2071
  710MOL0     H93684   6.927   0.105   7.803 -4.8363  1.0243 -0.8875
  710MOL0     H93685   6.716   0.092   7.918 -0.6958 -0.5953 -1.8568
  710MOL0     H93686   6.526  -0.260   7.980 -0.9467 -0.7284  0.5300
  710MOL0     H93687   6.548  -0.113   7.872 -0.2433  0.8246  1.1522
  710MOL0     H93688   6.354  -0.160   8.111  0.2226 -0.8526  0.1469
  710MOL0     H93689   6.305  -0.105   7.956 -0.9782  0.1747  0.8685
  710MOL0     H93690   6.393   0.110   7.982 -4.3435  1.1218  0.1143
  710MOL0     H93691   6.494   0.077   8.102 -1.1777  1.9480 -1.0655
  710MOL0     H93692   6.284   0.026   8.248  2.2001  2.3404  1.6012
  710MOL0     H93693   6.319   0.192   8.193 -0.9725  0.7690 -1.8808
  710MOL0     H93694   6.115   0.002   8.050  0.3994  0.5556 -2.7849
  710MOL0     H93695   6.154   0.157   8.011 -1.6418 -3.2493 -1.7326
  710MOL0     H93696   6.062   0.255   8.237  0.5508  0.7001 -2.7908
  710MOL0     H93697   6.064   0.098   8.296 -0.1555  0.5103 -0.1232
  710MOL0     H93698   5.878   0.190   8.075 -0.0008  0.1865  0.4891
  710MOL0     H93699   5.893   0.022   8.140 -1.3117  0.9328 -1.7548
  710MOL0     H93700   5.700   0.169   8.214 -2.2620  0.2459  4.0788
  710MOL0     H93701   5.817   0.283   8.283  0.0020 -0.3523  0.0230
  710MOL0     H93702   6.819  -0.301   8.049  1.2015 -0.2816 -1.4566
  710MOL0     H93703   7.042  -0.279   7.940  0.1754  0.9723 -2.4021
  710MOL0     H93704   7.258  -0.266   7.771 -0.9345  1.4772  1.8858
  710MOL0     H93705   7.463  -0.361   7.662 -0.9141 -1.5715  0.6748
  710MOL0     H93706   9.608   0.123   7.326  0.4588  1.3891 -1.0903
  710MOL0     H93707   9.824   0.274   7.333 -1.0411  2.6513  0.2769
  710MOL0     H93708  10.248   0.279   7.593 -1.4472 -0.6671  2.5277
  710MOL0     H93709  10.448   0.432   7.674 -0.5215 -1.2667  3.3668
  710MOL0     H93710  10.366   0.779   7.896 -2.5731 -5.2838 -0.7172
  710MOL0     H93711  10.345   0.859   7.734  2.2356  0.2167 -1.8500
  710MOL0     H93712  10.582   0.898   7.715  0.8423  0.8727  0.8975
  710MOL0     H93713  10.519   0.976   7.851 -0.1652 -0.6182  1.4974
  710MOL0     H93714  10.658   0.696   7.859 -2.7227 -0.0575 -1.5723
  710MOL0     H93715  10.617   0.803   7.998  0.0089 -1.6989 -0.2443
  710MOL0     H93716  10.861   0.807   7.873  0.5938 -0.2990  3.3879
  710MOL0     H93717  10.770   0.968   7.834 -2.4426 -0.0800 -0.6853
  710MOL0     H93718  10.842   0.975   8.243 -3.0657  0.0626  0.2312
  710MOL0     H93719  10.180   0.723   7.795  1.2957 -1.0072  1.6637
  710MOL0     H93720   9.988   0.612   7.708  0.1123 -0.5958  5.3988
  711MOL0     O93721   8.213   9.805   8.697 -0.6353 -0.1106  0.5379
  711MOL0     C93722   8.231   9.910   8.630  0.0255 -0.2821 -0.4206
  711MOL0     O93723   8.173  10.029   8.659  0.0312 -0.0702  0.5989
  711MOL0     C93724   8.078  10.022   8.760 -0.7054  0.3991 -0.0799
  711MOL0     C93725   8.103  10.087   8.882  0.2638  0.0569  0.1598
  711MOL0     C93726   7.995  10.097   8.972  0.5020 -0.0844 -0.1084
  711MOL0     C93727   7.860  10.070   8.946 -0.2518 -0.8841  0.8080
  711MOL0     O93728   7.762  10.094   9.033  0.1768  0.1205  0.5338
  711MOL0     C93729   7.787  10.082   9.173  0.3954 -0.7232 -0.7219
  711MOL0     C93730   7.666  10.066   9.263  0.7287 -0.4072  0.3290
  711MOL0     C93731   7.595   9.929   9.257 -0.4498  0.3126  0.1309
  711MOL0     C93732   7.477   9.928   9.348 -0.4102  0.0909 -0.2842
  711MOL0     C93733   7.391   9.824   9.285  0.2075  0.7734 -0.8362
  711MOL0     C93734   7.268   9.775   9.374  0.3928  0.0587  0.6394
  711MOL0     C93735   7.162   9.884   9.395 -0.0212  0.3827  0.3171
  711MOL0     C93736   7.031   9.826   9.445 -0.5835  0.5449 -1.4355
  711MOL0     N93737   6.943   9.933   9.492 -0.3249 -0.9260  0.6848
  711MOL0     C93738   6.826   9.985   9.435  0.1220 -0.1048  0.6064
  711MOL0     C93739   6.798  10.096   9.513 -0.0167  0.0056 -0.2428
  711MOL0     C93740   6.693  10.189   9.473  0.9872  0.3243 -0.0418
  711MOL0     C93741   6.705  10.268   9.344  0.0429 -0.5971  0.2119
  711MOL0     C93742   6.813  10.379   9.358  0.0006 -1.0142 -0.2302
  711MOL0     C93743   6.882  10.394   9.221 -0.1388 -0.2587 -0.7591
  711MOL0     O93744   6.984  10.296   9.200  0.2488 -0.2172  0.5502
  711MOL0     C93745   7.113  10.352   9.204 -1.3345 -0.3496  0.0996
  711MOL0     C93746   7.199  10.292   9.305  0.3065  0.4187 -0.9341
  711MOL0     C93747   7.336  10.326   9.302  0.5597 -0.1211  0.3373
  711MOL0     C93748   7.391  10.416   9.213 -0.0467  0.2200  0.2539
  711MOL0     C93749   7.539  10.450   9.213  0.4259 -0.3004 -0.5258
  711MOL0     O93750   7.590  10.502   9.097  0.4066  0.0920 -0.3374
  711MOL0     C93751   7.720  10.530   9.095  0.3413 -0.3954  0.1857
  711MOL0     C93752   7.771  10.650   9.152 -0.3470  0.5309  0.0104
  711MOL0     C93753   7.912  10.672   9.156  1.3748 -0.2369  0.5107
  711MOL0     C93754   8.002  10.587   9.098 -0.4520 -0.5966 -0.4139
  711MOL0     O93755   8.135  10.597   9.077 -0.1614  0.0749  0.1105
  711MOL0     C93756   8.196  10.726   9.122  0.0066  0.4200  1.0654
  711MOL0     C93757   8.344  10.736   9.115 -0.0004  2.0488 -0.1915
  711MOL0     C93758   8.399  10.662   9.234  0.4986  1.1024 -0.4503
  711MOL0     C93759   8.544  10.638   9.245 -0.9373  0.0336 -0.1317
  711MOL0     C93760   8.565  10.547   9.355  0.4086  0.8434 -0.1805
  711MOL0     C93761   8.612  10.409   9.311  0.6310 -0.5943 -0.9022
  711MOL0     C93762   8.761  10.418   9.311 -0.0618  0.3559 -1.0658
  711MOL0     C93763   8.845  10.301   9.263  0.2606 -0.1765 -0.6917
  711MOL0    Cl93764   8.790  10.147   9.344  0.0981 -0.0702  0.0299
  711MOL0     C93765   7.952  10.473   9.039  0.5395  0.4788 -0.3416
  711MOL0     C93766   7.807  10.447   9.033  0.0148  0.2501 -1.3435
  711MOL0     O93767   7.603  10.416   9.312 -1.0546 -0.0231  0.7461
  711MOL0     C93768   7.311  10.470   9.119  1.2435  0.6425  0.2837
  711MOL0     C93769   7.174  10.439   9.112  0.5613 -0.4472 -0.0510
  711MOL0     N93770   6.885  10.104   9.621 -0.1599 -0.7300 -0.3123
  711MOL0     N93771   6.982  10.018   9.596 -0.1833  0.6500 -0.7698
  711MOL0     C93772   7.837  10.021   8.813  0.4296 -0.1805 -0.5665
  711MOL0     C93773   7.944   9.992   8.728 -0.1625 -0.7938 -0.0989
  711MOL0     C93774   8.348   9.913   8.547 -0.4872  0.7132  0.5359
  711MOL0     C93775   8.356   9.981   8.430  0.3885  0.1527 -0.1728
  711MOL0     C93776   8.473   9.979   8.352 -0.6342 -0.5364 -0.4593
  711MOL0     C93777   8.581   9.898   8.389 -0.0490 -0.0432  0.8218
  711MOL0     O93778   8.691   9.887   8.307  0.6152 -0.2085 -0.3041
  711MOL0     C93779   8.801   9.795   8.345  0.1240 -1.0260 -0.2284
  711MOL0     C93780   8.902   9.791   8.231 -0.5004  0.0622 -0.1105
  711MOL0     C93781   8.863   9.708   8.111  0.8663  0.3286  0.2488
  711MOL0     C93782   8.877   9.556   8.115  0.6712 -0.2434 -0.0142
  711MOL0     C93783   9.007   9.513   8.160 -0.4727  0.2498  0.7305
  711MOL0     C93784   9.107   9.461   8.200 -0.3603  0.4956  0.0379
  711MOL0     C93785   8.573   9.820   8.500 -0.4351 -0.3290 -0.1112
  711MOL0     C93786   8.458   9.827   8.580  0.0134 -0.0365  0.0210
  711MOL0     H93787   8.197  10.135   8.906 -0.4849  2.0377 -0.6748
  711MOL0     H93788   8.016  10.131   9.073 -1.2115 -0.3309  0.3556
  711MOL0     H93789   7.838  10.174   9.204 -0.2508 -0.3021 -0.8963
  711MOL0     H93790   7.842   9.989   9.188 -0.1082 -0.8673  0.3759
  711MOL0     H93791   7.600  10.150   9.242  1.5529 -0.3136 -2.2296
  711MOL0     H93792   7.700  10.084   9.365  3.2640 -2.3115 -0.0913
  711MOL0     H93793   7.660   9.850   9.294 -1.0142  1.4418  3.8610
  711MOL0     H93794   7.577   9.914   9.150 -0.4070  2.2287 -0.1854
  711MOL0     H93795   7.502   9.899   9.450 -2.1103 -1.0682 -0.1575
  711MOL0     H93796   7.427  10.025   9.342 -2.4872 -1.0025 -3.3068
  711MOL0     H93797   7.452   9.733   9.276 -1.2028 -0.6503  2.3972
  711MOL0     H93798   7.361   9.861   9.186  1.3137 -1.6110 -2.1740
  711MOL0     H93799   7.305   9.744   9.472 -2.4972 -0.0316  1.8101
  711MOL0     H93800   7.216   9.688   9.332  2.7764 -1.4028  0.5678
  711MOL0     H93801   7.200   9.965   9.458  1.6858  2.1797 -2.7683
  711MOL0     H93802   7.137   9.929   9.299  0.7929 -3.0377 -1.6925
  711MOL0     H93803   7.042   9.747   9.520 -2.9491  0.4281 -1.1397
  711MOL0     H93804   6.989   9.781   9.355  3.3879 -3.9995 -1.4023
  711MOL0     H93805   6.782   9.947   9.343 -2.2016 -0.5942  1.8350
  711MOL0     H93806   6.689  10.264   9.553  1.8669 -0.4591  0.7646
  711MOL0     H93807   6.597  10.138   9.468 -0.5040  3.0122 -3.4720
  711MOL0     H93808   6.610  10.317   9.321  1.1001 -0.7165 -5.9525
  711MOL0     H93809   6.734  10.211   9.256  2.7686 -0.8483  1.1769
  711MOL0     H93810   6.764  10.472   9.389  0.7422 -0.8042  0.3448
  711MOL0     H93811   6.898  10.349   9.421  1.4127  1.0316 -1.0742
  711MOL0     H93812   6.932  10.490   9.208  2.2510 -1.4124 -0.6994
  711MOL0     H93813   6.805  10.398   9.143 -0.1672  0.2402 -0.7088
  711MOL0     H93814   7.162  10.223   9.381  1.0135 -0.3676 -1.2864
  711MOL0     H93815   7.400  10.275   9.373  1.0504 -1.9370 -1.3441
  711MOL0     H93816   7.702  10.724   9.189 -2.5691 -1.1978 -0.4538
  711MOL0     H93817   7.937  10.774   9.185  5.5692  0.3062 -3.7800
  711MOL0     H93818   8.160  10.739   9.225 -2.2878  2.0787  0.1361
  711MOL0     H93819   8.158  10.810   9.064 -0.4258  0.2610  1.1092
  711MOL0     H93820   8.384  10.838   9.111  4.5443  0.4680 -0.7052
  711MOL0     H93821   8.380  10.697   9.020  1.8802 -0.4254  1.4098
  711MOL0     H93822   8.357  10.561   9.238  2.1130  0.4234  0.2155
  711MOL0     H93823   8.364  10.719   9.321 -4.9873 -0.7779 -1.0474
  711MOL0     H93824   8.586  10.606   9.150  4.3821 -0.0516  1.8882
  711MOL0     H93825   8.593  10.736   9.250 -0.1380 -0.2280 -2.0725
  711MOL0     H93826   8.470  10.528   9.405 -0.7307 -0.6415 -2.7173
  711MOL0     H93827   8.623  10.582   9.441  0.6640 -0.7127  0.3109
  711MOL0     H93828   8.564  10.380   9.217 -2.7161  2.6051 -0.4034
  711MOL0     H93829   8.573  10.336   9.383  2.3339  0.6647  1.4271
  711MOL0     H93830   8.797  10.508   9.261 -0.2434  1.1909  0.2591
  711MOL0     H93831   8.780  10.432   9.418 -2.2986  3.7933 -0.9450
  711MOL0     H93832   8.953  10.317   9.274  0.4408 -2.4870  2.2672
  711MOL0     H93833   8.830  10.292   9.155 -1.4475  3.1621 -0.8422
  711MOL0     H93834   8.023  10.410   8.987  1.5562 -0.3132  1.8738
  711MOL0     H93835   7.779  10.354   8.986  2.3751  0.8732 -4.2585
  711MOL0     H93836   7.351  10.541   9.047  1.1429  0.2851 -0.1306
  711MOL0     H93837   7.128  10.489   9.027 -0.6139  0.5577  1.1319
  711MOL0     H93838   7.733  10.005   8.790  0.8548  0.8909 -3.7516
  711MOL0     H93839   7.918   9.955   8.630  1.6452 -1.3545 -0.4054
  711MOL0     H93840   8.272  10.046   8.407 -1.9063 -1.6137  2.5540
  711MOL0     H93841   8.469  10.026   8.254 -1.7797 -2.6706 -1.5001
  711MOL0     H93842   8.766   9.698   8.380 -1.6137 -0.5817 -0.6467
  711MOL0     H93843   8.860   9.852   8.418  1.2212 -0.6179 -1.3918
  711MOL0     H93844   8.927   9.894   8.203  1.4198 -0.2502  0.3622
  711MOL0     H93845   8.998   9.757   8.268  1.1218  3.2931 -0.9967
  711MOL0     H93846   8.928   9.746   8.032 -0.9190 -0.8040 -1.8667
  711MOL0     H93847   8.758   9.723   8.088  0.6215 -0.7989  0.5740
  711MOL0     H93848   8.799   9.524   8.185  1.1001  0.4631  0.8137
  711MOL0     H93849   8.853   9.519   8.015 -0.1104 -0.3174  0.1934
  711MOL0     H93850   9.188   9.397   8.232 -0.2875  0.4329 -0.2649
  711MOL0     H93851   8.641   9.741   8.531  1.3959  1.7581  1.4628
  711MOL0     H93852   8.452   9.759   8.664  0.0421 -0.1113 -0.0382
  712MOL0     O93853   2.697   9.389   7.036 -0.2676  0.3188 -0.1709
  712MOL0     C93854   2.763   9.485   7.007 -1.1570  0.6546  0.4312
  712MOL0     O93855   2.722   9.582   6.928  0.1518  0.4724 -0.8526
  712MOL0     C93856   2.595   9.596   6.893  0.4532 -0.7004  0.8680
  712MOL0     C93857   2.578   9.651   6.772  0.3357  0.3535  0.4218
  712MOL0     C93858   2.457   9.664   6.717 -0.2183 -0.3234 -0.1863
  712MOL0     C93859   2.337   9.642   6.792  0.6165 -1.1020 -0.2073
  712MOL0     O93860   2.216   9.673   6.733 -0.7396  0.4522  0.0602
  712MOL0     C93861   2.110   9.687   6.828  0.3895 -0.5858  0.4495
  712MOL0     C93862   1.983   9.761   6.779  0.5216  0.5222  0.0435
  712MOL0     C93863   1.933   9.687   6.649 -0.4326  0.8994 -0.0804
  712MOL0     C93864   1.808   9.730   6.590  0.0193 -0.0044  0.6509
  712MOL0     C93865   1.777   9.640   6.465  0.3589 -0.8160 -0.4671
  712MOL0     C93866   1.628   9.631   6.420 -0.2223  0.2641 -0.0811
  712MOL0     C93867   1.558   9.768   6.403 -0.3091 -0.5851 -0.9664
  712MOL0     C93868   1.415   9.746   6.366 -0.1696 -0.1715  0.6226
  712MOL0     N93869   1.333   9.869   6.348 -0.3273 -0.1852 -0.9939
  712MOL0     C93870   1.347   9.963   6.253 -0.1521 -0.6578  0.3528
  712MOL0     C93871   1.269  10.068   6.295  0.3991 -0.7423 -1.0623
  712MOL0     C93872   1.250  10.191   6.218 -0.5804 -0.2944  0.2486
  712MOL0     C93873   1.105  10.242   6.201 -0.5553  0.4685 -0.5291
  712MOL0     C93874   1.029  10.169   6.086  0.5942  0.2205  0.2108
  712MOL0     C93875   0.882  10.188   6.123 -0.8119  0.6979 -0.6545
  712MOL0     O93876   0.838  10.324   6.124 -0.0111 -0.6170  0.3041
  712MOL0     C93877   0.706  10.349   6.122  0.1788  0.5632 -0.2389
  712MOL0     C93878   0.659  10.481   6.130 -0.1067  0.5543 -0.3446
  712MOL0     C93879   0.521  10.502   6.147 -0.0078  0.2347 -0.2555
  712MOL0     C93880   0.424  10.396   6.154  0.0073  0.9658  0.0167
  712MOL0     C93881   0.283  10.417   6.171 -0.1135  0.1597 -0.4031
  712MOL0     O93882   0.204  10.308   6.161  0.4681  0.1728  0.7978
  712MOL0     C93883   0.063  10.321   6.156  0.4250  0.0598 -0.8800
  712MOL0     C93884  -0.003  10.317   6.281  0.2410  0.1256 -0.0705
  712MOL0     C93885  -0.145  10.328   6.282 -0.0520 -0.4597  0.0567
  712MOL0     C93886  -0.226  10.318   6.163 -0.2605 -0.1236  0.1822
  712MOL0     O93887  -0.362  10.302   6.173  0.0250 -0.0640  0.1354
  712MOL0     C93888  -0.431  10.413   6.107 -0.7373 -0.2340  0.8163
  712MOL0     C93889  -0.561  10.461   6.171  0.0491  0.5578  0.3141
  712MOL0     C93890  -0.634  10.338   6.229 -0.2053  0.0142  0.1989
  712MOL0     C93891  -0.776  10.377   6.268  0.6189 -0.2395  0.3370
  712MOL0     C93892  -0.856  10.249   6.316  0.2658 -0.1248  0.7093
  712MOL0     C93893  -0.858  10.142   6.210 -0.4661  0.4474  0.3570
  712MOL0     C93894  -0.989  10.063   6.208  0.4064 -0.0149 -0.2133
  712MOL0     C93895  -1.013   9.939   6.114 -0.7015  0.2183 -0.1541
  712MOL0    Cl93896  -0.891   9.823   6.172  0.3195 -0.3819  0.0975
  712MOL0     C93897  -0.152  10.325   6.036  0.3961 -0.9293  0.2902
  712MOL0     C93898  -0.011  10.333   6.034  0.2249  0.2917 -0.5678
  712MOL0     O93899   0.238  10.532   6.183  0.3339  0.2068  0.1885
  712MOL0     C93900   0.474  10.270   6.124 -0.3834 -0.2678 -0.2457
  712MOL0     C93901   0.606  10.243   6.112  0.1369  0.7141 -0.6076
  712MOL0     N93902   1.206  10.030   6.417 -0.3246  0.2610 -0.4274
  712MOL0     N93903   1.255   9.910   6.448  0.7057  0.6457 -0.2088
  712MOL0     C93904   2.348   9.587   6.919 -0.3602  0.5478  0.2845
  712MOL0     C93905   2.482   9.558   6.962 -0.4500  0.5366 -0.6242
  712MOL0     C93906   2.902   9.488   7.059  1.1038 -0.3216 -1.0150
  712MOL0     C93907   2.947   9.412   7.168  0.6538  0.2537  0.3650
  712MOL0     C93908   3.072   9.422   7.219 -0.7925  1.2927  0.2496
  712MOL0     C93909   3.160   9.506   7.162  0.3832  0.0627  0.0047
  712MOL0     O93910   3.283   9.529   7.199 -0.6186 -0.5886  0.6943
  712MOL0     C93911   3.318   9.503   7.338  0.3124 -0.8211  0.2031
  712MOL0     C93912   3.465   9.551   7.354 -0.5471  0.9962  0.8556
  712MOL0     C93913   3.557   9.465   7.263  0.0117 -0.0974 -0.0786
  712MOL0     C93914   3.682   9.433   7.334 -0.2505  0.1003 -0.1183
  712MOL0     C93915   3.768   9.366   7.240 -0.0872 -0.2617  0.5918
  712MOL0     C93916   3.828   9.308   7.151  0.4705 -0.0146  0.6312
  712MOL0     C93917   3.116   9.572   7.045  0.1681 -0.9607 -0.6239
  712MOL0     C93918   2.987   9.578   6.998 -0.2566 -0.7744 -0.0644
  712MOL0     H93919   2.663   9.675   6.709 -1.1678 -2.2542 -2.9191
  712MOL0     H93920   2.449   9.714   6.621  1.2880 -3.1183 -1.9000
  712MOL0     H93921   2.146   9.749   6.910  1.2502  0.5192 -0.7191
  712MOL0     H93922   2.068   9.589   6.855  0.4531 -0.8852 -0.4788
  712MOL0     H93923   2.016   9.863   6.758  0.8849  0.4624  0.3105
  712MOL0     H93924   1.907   9.764   6.857 -1.4905  1.4659 -1.8562
  712MOL0     H93925   1.920   9.581   6.677 -2.6249  1.1996  0.2061
  712MOL0     H93926   2.009   9.687   6.571  2.1564  0.6187  2.2700
  712MOL0     H93927   1.724   9.724   6.660 -0.9393 -2.3993 -0.5886
  712MOL0     H93928   1.821   9.834   6.557 -0.9117  0.7949  2.6305
  712MOL0     H93929   1.807   9.539   6.493 -1.9325 -0.9340  1.8814
  712MOL0     H93930   1.827   9.663   6.370 -0.7733  0.4851 -0.7870
  712MOL0     H93931   1.574   9.575   6.496 -1.0961  0.7638 -0.3266
  712MOL0     H93932   1.611   9.567   6.333  2.9021  2.1671 -2.3341
  712MOL0     H93933   1.559   9.827   6.495 -2.0290  0.8084 -1.7732
  712MOL0     H93934   1.613   9.815   6.321 -2.0615 -0.4405 -2.1177
  712MOL0     H93935   1.363   9.689   6.443  0.4751 -1.8803 -0.1397
  712MOL0     H93936   1.417   9.693   6.270  2.1592  0.5362  0.2085
  712MOL0     H93937   1.407   9.965   6.163  0.5183  2.4809  0.7498
  712MOL0     H93938   1.297  10.192   6.119 -0.4129 -1.2520  0.3118
  712MOL0     H93939   1.307  10.253   6.289  0.0889 -1.2626  0.5847
  712MOL0     H93940   1.099  10.351   6.188 -2.8047  1.0166  3.4752
  712MOL0     H93941   1.048  10.235   6.294 -1.4813  4.9127 -0.5122
  712MOL0     H93942   1.043  10.222   5.991  1.2091  1.0036  0.7133
  712MOL0     H93943   1.050  10.063   6.068  1.7564  0.7127 -1.7321
  712MOL0     H93944   0.867  10.146   6.223  0.9305  0.6674 -0.3641
  712MOL0     H93945   0.836  10.132   6.041  3.9143 -1.1103 -2.4619
  712MOL0     H93946   0.717  10.573   6.136 -2.4907  2.0859  1.0995
  712MOL0     H93947   0.484  10.601   6.171 -0.2732  0.7140 -2.4034
  712MOL0     H93948   0.048  10.317   6.376  1.9715  1.9331 -0.9171
  712MOL0     H93949  -0.203  10.327   6.374  1.4945 -1.9958  1.0834
  712MOL0     H93950  -0.456  10.378   6.007 -1.1167 -0.9295  1.1485
  712MOL0     H93951  -0.374  10.506   6.107 -0.7137 -0.2106 -1.2936
  712MOL0     H93952  -0.624  10.519   6.104 -1.1379 -0.9232  0.0889
  712MOL0     H93953  -0.538  10.531   6.252 -3.8367  2.3389  0.1066
  712MOL0     H93954  -0.575  10.306   6.315 -0.8020 -0.9951  0.2434
  712MOL0     H93955  -0.633  10.262   6.150 -2.0075 -0.3062  0.4497
  712MOL0     H93956  -0.774  10.449   6.351 -5.3628 -2.5518  3.1169
  712MOL0     H93957  -0.830  10.424   6.185  1.1857  0.2478  0.2321
  712MOL0     H93958  -0.960  10.280   6.328  0.4556  1.5998 -1.5565
  712MOL0     H93959  -0.818  10.202   6.407  1.9138  0.9255  0.6122
  712MOL0     H93960  -0.772  10.077   6.226  0.8664  2.0959  0.1374
  712MOL0     H93961  -0.845  10.180   6.109 -2.9607 -2.5185 -1.2609
  712MOL0     H93962  -1.007  10.032   6.311 -3.6922  0.0630 -0.7450
  712MOL0     H93963  -1.070  10.132   6.181  1.9336  1.1887 -2.0673
  712MOL0     H93964  -1.006   9.962   6.007 -1.5953 -3.2005 -1.0788
  712MOL0     H93965  -1.107   9.884   6.121  0.1347 -1.1553  0.7415
  712MOL0     H93966  -0.217  10.331   5.949  1.2140 -2.5076 -0.4746
  712MOL0     H93967   0.038  10.334   5.937 -0.3812  2.3884 -0.9090
  712MOL0     H93968   0.410  10.188   6.096 -0.4467 -0.9193  1.6270
  712MOL0     H93969   0.628  10.137   6.109  1.7163  0.8170  2.7855
  712MOL0     H93970   2.262   9.561   6.980 -1.5938  2.6847 -0.4332
  712MOL0     H93971   2.514   9.522   7.060  1.8273  3.3727 -0.1912
  712MOL0     H93972   2.882   9.335   7.208  4.1749 -2.8109  0.8110
  712MOL0     H93973   3.102   9.360   7.303  0.2271 -0.0969 -1.0563
  712MOL0     H93974   3.319   9.398   7.368  1.8155 -0.7707  0.3817
  712MOL0     H93975   3.264   9.567   7.408  1.3023  1.8915 -1.3335
  712MOL0     H93976   3.483   9.657   7.335 -3.1267  1.8976  2.8597
  712MOL0     H93977   3.500   9.539   7.457  1.6460  2.5134  0.3559
  712MOL0     H93978   3.596   9.522   7.178  2.1273 -0.9220  0.2823
  712MOL0     H93979   3.505   9.376   7.226 -1.9335  1.5481 -1.6099
  712MOL0     H93980   3.732   9.525   7.365  3.1087 -0.7239 -2.5040
  712MOL0     H93981   3.655   9.373   7.422 -2.4185  1.0093 -0.1144
  712MOL0     H93982   3.869   9.258   7.065 -1.1944 -0.7967  0.2564
  712MOL0     H93983   3.187   9.632   6.988  0.0750 -0.3918 -0.1484
  712MOL0     H93984   2.975   9.648   6.916  2.5973  3.9512  3.1068
  713MOL0     O93985   8.929   3.977   7.810  0.1849  0.8886  0.9198
  713MOL0     C93986   9.002   3.963   7.711  0.1482  0.0879  0.3582
  713MOL0     O93987   8.965   3.903   7.591  0.8222  0.2488  0.1941
  713MOL0     C93988   8.846   3.835   7.597 -0.3690 -0.5323  0.0132
  713MOL0     C93989   8.736   3.865   7.521  1.1872 -0.0892 -0.0712
  713MOL0     C93990   8.614   3.789   7.534 -0.1019  1.0383  0.1702
  713MOL0     C93991   8.614   3.680   7.625  0.1152 -0.2573 -0.3961
  713MOL0     O93992   8.506   3.593   7.643 -0.1357  0.0036 -0.5551
  713MOL0     C93993   8.380   3.609   7.582  0.9703  0.3647  1.6470
  713MOL0     C93994   8.310   3.473   7.573  0.2564 -0.2165  0.7464
  713MOL0     C93995   8.161   3.492   7.523 -0.2455  0.8937 -0.3231
  713MOL0     C93996   8.076   3.363   7.541  0.2946 -0.3710  1.3645
  713MOL0     C93997   7.927   3.370   7.511 -0.1690  0.5102  0.5734
  713MOL0     C93998   7.843   3.442   7.622 -0.7589 -0.7579 -0.1625
  713MOL0     C93999   7.695   3.433   7.596 -0.8485  0.1860  0.2743
  713MOL0     C94000   7.655   3.545   7.512  0.9170 -0.5720  0.0641
  713MOL0     N94001   7.530   3.536   7.443  0.4505  0.3742 -0.5099
  713MOL0     C94002   7.418   3.469   7.494 -0.5259  0.1743 -0.2613
  713MOL0     C94003   7.328   3.461   7.395 -0.0376 -0.6993 -0.2238
  713MOL0     C94004   7.195   3.403   7.418  0.2837  0.4095 -0.4617
  713MOL0     C94005   7.129   3.383   7.281 -0.6993  0.1592  0.2325
  713MOL0     C94006   6.973   3.346   7.286 -0.2079  0.1598  0.8455
  713MOL0     C94007   6.920   3.320   7.143 -0.4397  0.5133 -0.3294
  713MOL0     O94008   6.783   3.331   7.127 -0.5469  0.4331 -0.4831
  713MOL0     C94009   6.725   3.305   7.001  0.7523 -0.2517  0.4429
  713MOL0     C94010   6.588   3.329   6.990 -0.3619  0.4867  0.3726
  713MOL0     C94011   6.511   3.294   6.876 -0.3638 -0.1676  0.1912
  713MOL0     C94012   6.572   3.234   6.774 -0.2338 -0.1341 -0.0253
  713MOL0     C94013   6.495   3.193   6.651  0.1135 -0.0263 -0.1583
  713MOL0     O94014   6.376   3.243   6.638  0.6526 -1.4394 -0.6195
  713MOL0     C94015   6.301   3.247   6.522  0.4561 -0.1473 -0.9577
  713MOL0     C94016   6.318   3.363   6.440  0.5792  0.4377 -0.1879
  713MOL0     C94017   6.237   3.386   6.327  0.3295  0.1623  0.0975
  713MOL0     C94018   6.138   3.287   6.288  0.1432  0.1201 -0.7059
  713MOL0     O94019   6.053   3.295   6.179 -0.4123  0.0347 -0.0852
  713MOL0     C94020   5.985   3.422   6.174  0.2397  0.5674 -0.2333
  713MOL0     C94021   5.882   3.404   6.068 -0.4074  0.0793  0.1104
  713MOL0     C94022   5.763   3.320   6.117 -0.0231 -0.0454 -0.9753
  713MOL0     C94023   5.642   3.336   6.022 -0.3381  0.1076  0.6824
  713MOL0     C94024   5.517   3.281   6.095 -0.3145  0.3353 -0.7268
  713MOL0     C94025   5.388   3.302   6.006  0.1198  0.1885  1.4871
  713MOL0     C94026   5.266   3.274   6.102 -0.8902  0.3995  0.0565
  713MOL0     C94027   5.138   3.346   6.064 -0.5627 -0.3440  0.2493
  713MOL0    Cl94028   5.065   3.307   5.904 -0.0376 -0.4117 -0.0688
  713MOL0     C94029   6.123   3.166   6.365  0.9413 -0.1882 -0.5297
  713MOL0     C94030   6.205   3.157   6.484  0.4742  0.6897  0.1543
  713MOL0     O94031   6.555   3.124   6.571 -0.0759 -0.2394 -0.8429
  713MOL0     C94032   6.713   3.218   6.779 -0.9369  1.0944  1.0644
  713MOL0     C94033   6.790   3.261   6.888 -0.2218 -0.3251 -0.1158
  713MOL0     N94034   7.384   3.511   7.284 -0.0059 -0.3672  0.0938
  713MOL0     N94035   7.497   3.563   7.311  0.2341 -0.8795  0.3084
  713MOL0     C94036   8.736   3.639   7.681  0.0809 -0.2180 -0.0905
  713MOL0     C94037   8.849   3.725   7.672  0.3019  0.0328 -0.3977
  713MOL0     C94038   9.129   4.052   7.713  0.8734  0.8138 -0.2703
  713MOL0     C94039   9.152   4.142   7.814 -0.5992 -1.0908  0.7490
  713MOL0     C94040   9.259   4.236   7.802  0.0173  0.2897  0.4485
  713MOL0     C94041   9.342   4.244   7.695  0.5364 -0.8716  0.3142
  713MOL0     O94042   9.432   4.346   7.708 -0.3919 -1.0518  0.2645
  713MOL0     C94043   9.530   4.369   7.609  0.2395 -0.7494 -0.2159
  713MOL0     C94044   9.611   4.495   7.647  0.3979  0.5912 -0.5649
  713MOL0     C94045   9.723   4.520   7.555  0.3409  0.1664 -0.0011
  713MOL0     C94046   9.797   4.661   7.584  0.8853  0.2332  0.6841
  713MOL0     C94047   9.907   4.686   7.492  0.0171 -0.1538  0.2750
  713MOL0     C94048  10.006   4.699   7.422  0.2889 -0.7310  0.8463
  713MOL0     C94049   9.310   4.167   7.584  0.2756  0.8683 -0.3546
  713MOL0     C94050   9.215   4.065   7.598 -0.1953 -0.1298 -0.1677
  713MOL0     H94051   8.743   3.959   7.465 -1.7365  1.5589  2.0571
  713MOL0     H94052   8.525   3.809   7.476  1.5917 -1.6402 -3.7994
  713MOL0     H94053   8.383   3.646   7.479 -0.2127  0.2908  1.5745
  713MOL0     H94054   8.324   3.683   7.640 -1.1978  0.2790 -0.1939
  713MOL0     H94055   8.311   3.413   7.665  1.8455 -0.3073  0.6924
  713MOL0     H94056   8.347   3.393   7.508  0.5807 -0.0223  0.6896
  713MOL0     H94057   8.165   3.514   7.416  1.3432 -0.6212 -0.6236
  713MOL0     H94058   8.119   3.565   7.592  0.1219  0.0267  0.8512
  713MOL0     H94059   8.128   3.291   7.477  0.8015 -0.7638  2.1937
  713MOL0     H94060   8.089   3.317   7.640  0.6222  0.0680  1.5277
  713MOL0     H94061   7.899   3.265   7.507  2.7100 -0.2638 -1.5007
  713MOL0     H94062   7.920   3.419   7.414  0.9382 -0.2295  0.1108
  713MOL0     H94063   7.877   3.545   7.624 -1.6605 -0.4385 -0.7488
  713MOL0     H94064   7.852   3.398   7.722 -5.6558 -0.1813  0.8092
  713MOL0     H94065   7.674   3.330   7.564  1.6044  0.1761 -1.5686
  713MOL0     H94066   7.646   3.447   7.693  2.3105  1.3706  1.8483
  713MOL0     H94067   7.733   3.556   7.436  1.1810 -0.9522  0.2747
  713MOL0     H94068   7.661   3.641   7.566  2.5955 -1.0930  0.8642
  713MOL0     H94069   7.411   3.429   7.595 -3.5806 -0.2301 -0.5558
  713MOL0     H94070   7.133   3.467   7.481 -1.1135  1.4153 -2.7506
  713MOL0     H94071   7.196   3.306   7.468 -1.6221  0.1380 -0.9084
  713MOL0     H94072   7.182   3.302   7.229  2.0770  2.1537 -0.2816
  713MOL0     H94073   7.143   3.470   7.215  2.0514 -1.3358 -1.3682
  713MOL0     H94074   6.956   3.249   7.335  2.2513 -0.9722 -0.3804
  713MOL0     H94075   6.919   3.424   7.340 -1.2677  0.7751 -1.0094
  713MOL0     H94076   6.950   3.217   7.123  2.3043  1.2129 -0.2876
  713MOL0     H94077   6.975   3.383   7.072 -0.3637  2.0621  1.0508
  713MOL0     H94078   6.539   3.374   7.075 -2.8827 -1.6669  0.1914
  713MOL0     H94079   6.405   3.312   6.865 -0.6855 -2.1998 -0.5485
  713MOL0     H94080   6.398   3.435   6.454 -0.9176  2.3839 -1.1355
  713MOL0     H94081   6.235   3.476   6.267 -1.6672  0.8336  1.1022
  713MOL0     H94082   6.046   3.512   6.165 -0.1333  0.6522 -2.3738
  713MOL0     H94083   5.949   3.433   6.277  0.3213 -0.2798 -0.1050
  713MOL0     H94084   5.932   3.352   5.986  1.8241  1.0680  0.7861
  713MOL0     H94085   5.835   3.499   6.039 -0.5508 -0.2576 -0.7910
  713MOL0     H94086   5.740   3.356   6.218  0.8234 -3.4832  0.5784
  713MOL0     H94087   5.793   3.215   6.121  1.3493  0.3453 -0.4749
  713MOL0     H94088   5.623   3.441   5.999 -2.5616 -0.1502  1.1703
  713MOL0     H94089   5.675   3.279   5.934  1.1456 -1.0201  1.9175
  713MOL0     H94090   5.505   3.334   6.190 -0.4371  2.7763 -2.0301
  713MOL0     H94091   5.533   3.175   6.118  3.7852  1.1957  1.1879
  713MOL0     H94092   5.390   3.240   5.916  3.2514 -2.3953  3.1359
  713MOL0     H94093   5.383   3.406   5.973  3.8666 -0.3678 -1.5396
  713MOL0     H94094   5.246   3.166   6.099  0.0224  0.1686  1.3529
  713MOL0     H94095   5.297   3.310   6.201  0.2980  0.8606 -0.4739
  713MOL0     H94096   5.162   3.453   6.070  2.3537 -0.9945  1.9605
  713MOL0     H94097   5.069   3.323   6.145  0.0441 -0.9316  0.6111
  713MOL0     H94098   6.038   3.102   6.344 -0.2742  0.4988  1.9440
  713MOL0     H94099   6.184   3.075   6.552  0.5829 -2.4381 -3.2703
  713MOL0     H94100   6.775   3.188   6.695 -1.2088  1.2319  0.8162
  713MOL0     H94101   6.897   3.247   6.891  0.2870  1.8338 -3.2163
  713MOL0     H94102   8.738   3.553   7.748 -1.1502  1.0285  1.6410
  713MOL0     H94103   8.926   3.707   7.746 -0.4437  0.2999  0.4562
  713MOL0     H94104   9.082   4.139   7.897 -1.3765  0.6451  0.1955
  713MOL0     H94105   9.272   4.307   7.882  3.1744  2.6591 -1.9123
  713MOL0     H94106   9.479   4.405   7.519  0.2269  2.8642  1.0758
  713MOL0     H94107   9.602   4.287   7.606  1.8963  0.4113  3.2009
  713MOL0     H94108   9.545   4.581   7.659 -2.6868 -1.8786  1.9299
  713MOL0     H94109   9.656   4.483   7.746 -1.4068  1.4360  0.3951
  713MOL0     H94110   9.684   4.524   7.452 -1.1601 -1.4824  0.4458
  713MOL0     H94111   9.792   4.436   7.563  0.5524  0.4423  1.2747
  713MOL0     H94112   9.733   4.750   7.585  1.4293  0.8124 -2.6409
  713MOL0     H94113   9.839   4.647   7.684 -0.2783  0.2048  1.1861
  713MOL0     H94114  10.086   4.724   7.355  0.3436  0.0795  1.2008
  713MOL0     H94115   9.363   4.184   7.491  0.6462  1.4657 -0.0388
  713MOL0     H94116   9.199   3.992   7.519  0.0196  1.4311 -1.7273
  714MOL0     O94117   5.262   5.101  11.244  0.0093  0.2954  0.4347
  714MOL0     C94118   5.296   5.103  11.127  0.4408 -0.1350  0.4577
  714MOL0     O94119   5.216   5.102  11.016  0.6922  0.1764 -0.4358
  714MOL0     C94120   5.080   5.102  11.028  0.1954  0.4312  0.3361
  714MOL0     C94121   5.002   5.146  11.143 -0.0890  0.3003 -0.2594
  714MOL0     C94122   4.868   5.137  11.144  0.8178  0.5499 -0.3543
  714MOL0     C94123   4.801   5.079  11.039  0.2837 -0.6653 -0.1586
  714MOL0     O94124   4.664   5.056  11.038 -0.0374 -0.4537  0.5963
  714MOL0     C94125   4.591   5.104  11.150 -0.0544  0.5297  0.2398
  714MOL0     C94126   4.442   5.098  11.124  0.2039  0.2999 -0.3903
  714MOL0     C94127   4.407   4.949  11.097 -0.0183  0.0495 -0.0307
  714MOL0     C94128   4.250   4.941  11.103  0.3251  0.1694 -0.3646
  714MOL0     C94129   4.195   4.808  11.066  0.5696 -0.1243  0.4595
  714MOL0     C94130   4.039   4.800  11.080  0.2971  0.0223  0.7514
  714MOL0     C94131   3.999   4.661  11.047 -0.0199  0.8455  1.1020
  714MOL0     C94132   3.904   4.610  11.164 -0.8938 -0.2903  0.4477
  714MOL0     N94133   3.858   4.482  11.139  0.4501  1.0790 -0.0433
  714MOL0     C94134   3.732   4.453  11.122  0.2230  0.1152  1.1580
  714MOL0     C94135   3.723   4.322  11.124 -0.0531  0.1009 -1.4095
  714MOL0     C94136   3.604   4.221  11.105  0.3979  0.6685  0.0466
  714MOL0     C94137   3.499   4.240  11.214  0.0010 -0.1468 -0.2381
  714MOL0     C94138   3.563   4.199  11.360 -0.2884  0.2630  0.6400
  714MOL0     C94139   3.457   4.229  11.465 -0.4111 -0.2958  0.7887
  714MOL0     O94140   3.364   4.128  11.458 -0.0891  0.4869  0.0895
  714MOL0     C94141   3.242   4.158  11.506 -0.0990  0.0277  0.1464
  714MOL0     C94142   3.205   4.263  11.592 -1.3457 -0.4536  0.8331
  714MOL0     C94143   3.081   4.285  11.639  0.3684 -0.4262  0.1281
  714MOL0     C94144   2.982   4.195  11.599 -0.0755  1.0733 -0.1216
  714MOL0     C94145   2.846   4.210  11.662 -0.2467 -0.2362  0.6331
  714MOL0     O94146   2.760   4.096  11.663 -0.2526  0.4535 -0.1585
  714MOL0     C94147   2.648   4.078  11.730 -0.2074 -0.5819  0.1783
  714MOL0     C94148   2.617   4.160  11.839 -0.2859 -0.6355 -0.2747
  714MOL0     C94149   2.495   4.123  11.909 -1.0191  0.5540  0.0359
  714MOL0     C94150   2.402   4.021  11.866  0.5779  0.2879  0.1556
  714MOL0     O94151   2.282   3.994  11.933  0.6010 -0.1382  0.4353
  714MOL0     C94152   2.278   3.989  12.077 -0.0094  0.6673 -1.1451
  714MOL0     C94153   2.137   4.022  12.128  0.0688  0.0694  0.0322
  714MOL0     C94154   2.039   3.917  12.072 -0.3105  0.4349 -0.2383
  714MOL0     C94155   1.899   3.938  12.117 -0.2043  0.9166  0.3958
  714MOL0     C94156   1.827   4.043  12.025  0.3145  0.4790 -0.9026
  714MOL0     C94157   1.693   4.086  12.087  0.7124 -0.1080  0.8220
  714MOL0     C94158   1.593   3.975  12.138  0.4594 -0.0988  0.9192
  714MOL0     C94159   1.473   4.037  12.208  0.2522  0.4695 -0.7639
  714MOL0    Cl94160   1.329   3.936  12.190  0.1379  0.0722 -0.1352
  714MOL0     C94161   2.436   3.962  11.742 -0.6748 -0.0311 -0.0627
  714MOL0     C94162   2.555   3.985  11.677  0.7104  0.4254  0.3325
  714MOL0     O94163   2.814   4.320  11.698  0.0631  0.1383 -0.8475
  714MOL0     C94164   3.002   4.091  11.503  0.3200  0.1096 -0.5651
  714MOL0     C94165   3.133   4.066  11.472  0.3932 -0.2983 -0.4845
  714MOL0     N94166   3.853   4.273  11.147 -0.4884 -0.7227 -0.0104
  714MOL0     N94167   3.930   4.374  11.160 -0.9466  0.0769  0.0294
  714MOL0     C94168   4.869   5.037  10.928  0.1535  0.1142 -0.0193
  714MOL0     C94169   5.011   5.042  10.920  0.5851 -0.0964 -0.5589
  714MOL0     C94170   5.442   5.113  11.113 -0.1728 -0.0641 -0.3899
  714MOL0     C94171   5.509   5.063  10.997  0.2749  0.1905  0.0767
  714MOL0     C94172   5.640   5.090  10.978  0.0369 -0.2028 -0.6542
  714MOL0     C94173   5.722   5.146  11.074 -0.6411  0.1611 -0.1161
  714MOL0     O94174   5.857   5.157  11.044  0.0196 -0.1900 -0.7149
  714MOL0     C94175   5.952   5.205  11.143  0.4691  0.0847 -0.2081
  714MOL0     C94176   6.093   5.181  11.089  0.6922  0.4506 -0.1683
  714MOL0     C94177   6.120   5.271  10.969  0.4251  0.4425  0.1878
  714MOL0     C94178   6.261   5.254  10.915  0.7319  0.1439 -1.0000
  714MOL0     C94179   6.305   5.359  10.821 -0.0705  0.7420 -0.0618
  714MOL0     C94180   6.369   5.411  10.734  0.6375 -0.5918  0.2065
  714MOL0     C94181   5.662   5.175  11.201 -0.2446 -0.6039 -0.0643
  714MOL0     C94182   5.523   5.164  11.214  0.3347 -0.7994 -0.2326
  714MOL0     H94183   5.047   5.185  11.234  0.3856 -1.2051  0.1813
  714MOL0     H94184   4.817   5.161  11.238  0.5170  2.9146 -1.0448
  714MOL0     H94185   4.616   5.208  11.172  2.6668 -0.4975  2.6562
  714MOL0     H94186   4.592   5.040  11.239 -2.5111  0.1577  0.0759
  714MOL0     H94187   4.426   5.161  11.036  0.5075  0.6505 -0.1964
  714MOL0     H94188   4.400   5.128  11.220  1.8891 -2.8280  1.4578
  714MOL0     H94189   4.445   4.885  11.177 -2.1827  0.7572  1.6468
  714MOL0     H94190   4.456   4.924  11.002 -0.5381  2.8267 -1.1096
  714MOL0     H94191   4.219   4.952  11.207  1.2762 -4.0501  0.5644
  714MOL0     H94192   4.213   5.020  11.037  4.1610  1.1354 -1.6328
  714MOL0     H94193   4.245   4.728  11.123 -1.3325 -2.7914 -1.3663
  714MOL0     H94194   4.214   4.792  10.959 -2.8042  4.1560 -1.0623
  714MOL0     H94195   4.003   4.863  10.999  2.4123 -1.8847 -1.8723
  714MOL0     H94196   4.005   4.845  11.174 -0.8471 -1.6504  1.1945
  714MOL0     H94197   3.949   4.667  10.950  1.6423 -1.7740 -0.0389
  714MOL0     H94198   4.083   4.592  11.032 -1.7148 -1.1771  0.5343
  714MOL0     H94199   3.832   4.689  11.186  0.9962  1.2548  1.3630
  714MOL0     H94200   3.968   4.597  11.251 -1.2809 -1.6651  0.5422
  714MOL0     H94201   3.651   4.523  11.101  1.9307  2.1695  1.0365
  714MOL0     H94202   3.646   4.120  11.109  2.7917  1.5701 -0.3155
  714MOL0     H94203   3.563   4.232  11.004  1.3069 -0.3475 -0.4614
  714MOL0     H94204   3.403   4.187  11.205  0.6538 -1.1860 -1.4457
  714MOL0     H94205   3.477   4.346  11.223  0.7655  0.0212 -0.2654
  714MOL0     H94206   3.599   4.096  11.368  0.2246  0.1792 -1.8271
  714MOL0     H94207   3.645   4.268  11.379  0.4032  0.4201 -2.3708
  714MOL0     H94208   3.426   4.333  11.452 -0.3769 -0.5392 -1.7071
  714MOL0     H94209   3.514   4.216  11.557  2.9521 -1.4447 -1.2699
  714MOL0     H94210   3.279   4.332  11.631  0.4251 -2.7403  1.7607
  714MOL0     H94211   3.063   4.358  11.717  0.6321 -3.2287  2.9993
  714MOL0     H94212   2.691   4.231  11.876  0.0008 -1.1706  0.1981
  714MOL0     H94213   2.469   4.180  11.997  3.6833 -0.7503  2.6581
  714MOL0     H94214   2.339   4.067  12.124 -1.4888  1.8565 -1.1354
  714MOL0     H94215   2.308   3.889  12.112 -2.4739  0.6211  1.1327
  714MOL0     H94216   2.104   4.123  12.107 -0.3214  0.1302  0.9083
  714MOL0     H94217   2.153   4.021  12.237 -2.2919  2.5294  0.4818
  714MOL0     H94218   2.075   3.818  12.103 -1.0466  0.9402  2.4491
  714MOL0     H94219   2.031   3.924  11.963  0.2371  0.7857 -0.2587
  714MOL0     H94220   1.844   3.843  12.115  1.0983  0.1487  0.1275
  714MOL0     H94221   1.894   3.974  12.220 -1.3961 -0.2919  0.7889
  714MOL0     H94222   1.813   3.984  11.934  0.0766 -2.3772  0.8434
  714MOL0     H94223   1.887   4.129  11.995  0.8240 -0.2950 -2.1680
  714MOL0     H94224   1.637   4.148  12.017 -0.5765  0.3645  2.2206
  714MOL0     H94225   1.716   4.154  12.169  1.5615  1.7661 -0.8815
  714MOL0     H94226   1.564   3.916  12.051  2.0857  1.7786 -1.0117
  714MOL0     H94227   1.644   3.909  12.208  2.1265 -0.7892 -0.8815
  714MOL0     H94228   1.432   4.125  12.159 -0.4316  1.4477  1.4548
  714MOL0     H94229   1.496   4.069  12.310 -3.1251  3.1368 -0.6773
  714MOL0     H94230   2.374   3.881  11.706 -0.8665 -0.0102  0.2198
  714MOL0     H94231   2.581   3.948  11.578  3.5865 -1.2527  1.5804
  714MOL0     H94232   2.914   4.034  11.475  0.4369  0.2442 -1.2147
  714MOL0     H94233   3.170   3.983  11.413  0.9584  0.4586 -1.2276
  714MOL0     H94234   4.815   4.978  10.855  1.3213 -0.0582 -0.7651
  714MOL0     H94235   5.054   4.981  10.841  1.9958 -2.1428  1.6431
  714MOL0     H94236   5.456   5.013  10.917  1.0601 -1.2342  0.4133
  714MOL0     H94237   5.680   5.060  10.882 -3.3293  2.2245 -3.0421
  714MOL0     H94238   5.933   5.130  11.221 -1.2039 -0.2951 -0.9316
  714MOL0     H94239   5.923   5.307  11.169 -1.3882 -0.1224 -1.2916
  714MOL0     H94240   6.165   5.206  11.167  0.2179 -1.5470  0.9728
  714MOL0     H94241   6.118   5.079  11.061  1.8527  1.0360 -1.4048
  714MOL0     H94242   6.124   5.374  11.003  0.8313  1.1791 -1.9140
  714MOL0     H94243   6.045   5.260  10.890  1.0319  1.1008 -0.4982
  714MOL0     H94244   6.329   5.274  10.998 -0.2006  4.2925 -0.9953
  714MOL0     H94245   6.271   5.149  10.885 -1.6758 -0.9013  1.4542
  714MOL0     H94246   6.445   5.445  10.666  1.5271  0.1642  1.5400
  714MOL0     H94247   5.718   5.198  11.291  0.3229 -0.2633 -0.5017
  714MOL0     H94248   5.480   5.188  11.310 -0.8006 -3.5747  0.0646
  715MOL0     O94249   1.938   8.041   4.181 -0.8007  0.2418 -0.5192
  715MOL0     C94250   1.935   8.012   4.299 -0.4034  1.0611 -0.6918
  715MOL0     O94251   1.832   7.944   4.365 -0.1587  0.5342 -0.0245
  715MOL0     C94252   1.722   7.898   4.310  0.1884  1.1334  0.9605
  715MOL0     C94253   1.624   7.866   4.403 -0.1637 -0.2770 -1.0187
  715MOL0     C94254   1.499   7.830   4.366  0.7521 -0.6926 -0.1332
  715MOL0     C94255   1.460   7.816   4.241 -0.3629  0.3116 -0.1853
  715MOL0     O94256   1.333   7.773   4.217 -0.3633 -0.0713  0.2692
  715MOL0     C94257   1.232   7.835   4.287  0.3627 -0.1096 -0.8132
  715MOL0     C94258   1.101   7.809   4.220 -0.3158 -0.2964 -0.1448
  715MOL0     C94259   1.077   7.862   4.072  0.5283 -0.8625  0.7211
  715MOL0     C94260   1.202   7.878   3.986  0.3656  0.0109 -0.1550
  715MOL0     C94261   1.166   7.949   3.852 -0.6936 -0.1224 -0.1287
  715MOL0     C94262   1.294   8.020   3.798 -0.3516  1.0303  1.3864
  715MOL0     C94263   1.259   8.104   3.671 -0.2490  0.0310 -0.4831
  715MOL0     C94264   1.233   8.002   3.562  0.6220  0.1011 -0.6356
  715MOL0     N94265   1.089   7.981   3.535  0.4065 -0.3940  0.1320
  715MOL0     C94266   0.989   8.065   3.508  0.3189 -0.0442 -1.0231
  715MOL0     C94267   0.875   7.983   3.504  0.0685  0.0483  0.3012
  715MOL0     C94268   0.739   8.050   3.495 -0.3743  0.0215 -1.1378
  715MOL0     C94269   0.615   7.962   3.516 -0.2730 -0.0288  0.5731
  715MOL0     C94270   0.491   8.033   3.581 -0.6331  1.5919 -0.0008
  715MOL0     C94271   0.370   7.943   3.567 -0.1149  1.1433 -0.5919
  715MOL0     O94272   0.267   8.008   3.646 -0.1621  0.2702 -0.1606
  715MOL0     C94273   0.145   7.952   3.664  0.5809 -0.0052  0.1989
  715MOL0     C94274   0.079   7.983   3.784  0.3727  0.4152  0.1105
  715MOL0     C94275  -0.048   7.917   3.812 -0.4958 -0.9103 -0.1117
  715MOL0     C94276  -0.106   7.849   3.711  0.8893  0.7795  1.0966
  715MOL0     C94277  -0.235   7.782   3.736 -1.4265 -0.6405 -0.4873
  715MOL0     O94278  -0.296   7.817   3.852 -0.1517  0.6118  0.0345
  715MOL0     C94279  -0.420   7.764   3.865  0.3165  0.5322 -0.4318
  715MOL0     C94280  -0.528   7.846   3.815  0.3622  0.0537 -0.3713
  715MOL0     C94281  -0.659   7.798   3.833 -0.4505 -0.5369  0.3426
  715MOL0     C94282  -0.688   7.685   3.912  1.1789  0.0461  0.3958
  715MOL0     O94283  -0.822   7.646   3.943  0.5218  0.2976  0.4026
  715MOL0     C94284  -0.924   7.707   3.858  0.4322 -0.6065 -0.1561
  715MOL0     C94285  -1.052   7.619   3.877 -0.5372  0.2035  0.7867
  715MOL0     C94286  -1.175   7.685   3.802  0.3581 -0.7750  0.2072
  715MOL0     C94287  -1.300   7.592   3.806  0.3231  0.2320  0.0798
  715MOL0     C94288  -1.394   7.625   3.687  0.3981 -0.1069 -0.0613
  715MOL0     C94289  -1.540   7.623   3.732 -0.9220  0.2951  0.1176
  715MOL0     C94290  -1.588   7.478   3.757 -0.1519 -0.4808 -0.4102
  715MOL0     C94291  -1.590   7.387   3.631  0.6837  0.1227  0.9853
  715MOL0    Cl94292  -1.723   7.417   3.524  0.3131  0.2001  0.4096
  715MOL0     C94293  -0.582   7.609   3.966  0.3604  1.0173  0.5276
  715MOL0     C94294  -0.448   7.652   3.944 -0.1249 -0.0259 -0.5302
  715MOL0     O94295  -0.279   7.697   3.662 -0.0964 -0.0414  1.1244
  715MOL0     C94296  -0.038   7.802   3.597 -0.6459  0.3397  0.4785
  715MOL0     C94297   0.086   7.861   3.574 -0.0596 -1.1333 -0.4607
  715MOL0     N94298   0.911   7.850   3.526  0.2904 -0.3270 -0.4275
  715MOL0     N94299   1.038   7.856   3.548  0.3002  0.0029  0.2627
  715MOL0     C94300   1.554   7.848   4.147  0.4004 -0.1505  0.9431
  715MOL0     C94301   1.681   7.886   4.173 -1.1030 -0.8401 -0.5387
  715MOL0     C94302   2.073   8.024   4.357 -0.2367 -0.9119  0.1300
  715MOL0     C94303   2.165   8.102   4.295 -0.8844  0.0212  0.1443
  715MOL0     C94304   2.301   8.118   4.351  0.1642 -0.7594  0.5466
  715MOL0     C94305   2.332   8.055   4.475  0.2521 -0.6013  0.5663
  715MOL0     O94306   2.451   8.058   4.544  0.0031  0.0322 -0.4476
  715MOL0     C94307   2.564   8.124   4.488 -0.1987  1.0925  0.4567
  715MOL0     C94308   2.692   8.092   4.563  0.0515 -0.8848  0.5052
  715MOL0     C94309   2.812   8.180   4.515  0.8913 -0.0099  0.5664
  715MOL0     C94310   2.944   8.134   4.584 -0.9441 -0.4061 -0.2606
  715MOL0     C94311   2.979   7.990   4.577 -0.0695 -0.3666  0.6183
  715MOL0     C94312   2.994   7.873   4.582  0.3243 -0.0080  0.3763
  715MOL0     C94313   2.229   7.988   4.542 -0.2112  0.3952  0.4685
  715MOL0     C94314   2.102   7.966   4.478 -0.6716 -0.9130 -0.3602
  715MOL0     H94315   1.665   7.876   4.504  0.1136 -0.1877 -1.1376
  715MOL0     H94316   1.425   7.817   4.444  2.0947  1.8379  1.6803
  715MOL0     H94317   1.240   7.944   4.287 -3.0829  0.2333 -0.7919
  715MOL0     H94318   1.212   7.807   4.391 -3.2336 -0.1889 -1.4172
  715MOL0     H94319   1.014   7.832   4.282  0.4629  0.8575  0.5706
  715MOL0     H94320   1.108   7.702   4.199  1.3093 -0.2216 -0.1453
  715MOL0     H94321   1.046   7.965   4.088  0.9900 -1.1360  4.1684
  715MOL0     H94322   0.991   7.809   4.029 -0.8520  1.7924  0.0405
  715MOL0     H94323   1.280   7.939   4.033 -0.9464  1.9972 -0.4323
  715MOL0     H94324   1.237   7.777   3.962 -1.2797 -0.8259  0.7796
  715MOL0     H94325   1.083   8.019   3.862 -1.9329 -1.7831  2.1072
  715MOL0     H94326   1.127   7.868   3.790 -1.8271  1.3497 -1.3929
  715MOL0     H94327   1.378   7.951   3.784 -2.4331 -1.1015 -2.4345
  715MOL0     H94328   1.335   8.098   3.863  2.9306  0.8817 -0.3220
  715MOL0     H94329   1.169   8.163   3.691  0.7398  1.1298  0.8997
  715MOL0     H94330   1.341   8.167   3.637 -2.8396  3.4582 -0.9945
  715MOL0     H94331   1.275   7.905   3.589  0.5085  0.3591  0.5556
  715MOL0     H94332   1.288   8.027   3.471  1.8292 -2.7975 -0.8003
  715MOL0     H94333   0.995   8.173   3.499  3.0196 -0.2583 -3.0603
  715MOL0     H94334   0.724   8.108   3.403 -4.6266  1.5867  0.2674
  715MOL0     H94335   0.747   8.118   3.580 -1.3350  0.0609 -1.0677
  715MOL0     H94336   0.645   7.872   3.571  2.3613 -1.4616 -2.8443
  715MOL0     H94337   0.579   7.923   3.420 -1.2597 -1.6423  1.5371
  715MOL0     H94338   0.516   8.058   3.684  3.0831  1.5677 -0.7627
  715MOL0     H94339   0.469   8.129   3.532  0.4447  2.5866  1.3803
  715MOL0     H94340   0.391   7.842   3.605 -2.2378  0.2212 -1.7007
  715MOL0     H94341   0.347   7.920   3.463 -0.0014 -0.9466 -0.1997
  715MOL0     H94342   0.130   8.039   3.863 -0.2965 -0.7903  1.4498
  715MOL0     H94343  -0.094   7.942   3.907 -1.1040 -1.2905 -0.2977
  715MOL0     H94344  -0.516   7.935   3.754 -1.0519 -1.7009 -3.3731
  715MOL0     H94345  -0.734   7.859   3.784 -0.7417 -1.1122  0.0533
  715MOL0     H94346  -0.896   7.702   3.752 -0.5009 -0.1791 -0.4382
  715MOL0     H94347  -0.937   7.811   3.888 -1.1147 -1.5357  2.7748
  715MOL0     H94348  -1.077   7.593   3.980  0.1968 -1.1963  0.6405
  715MOL0     H94349  -1.033   7.521   3.831 -1.2483  0.6112 -0.4366
  715MOL0     H94350  -1.149   7.694   3.696 -3.4495 -1.3997 -0.9197
  715MOL0     H94351  -1.198   7.778   3.856 -1.5288 -0.8994 -0.3245
  715MOL0     H94352  -1.268   7.488   3.797 -1.5683 -0.3584 -0.0397
  715MOL0     H94353  -1.356   7.602   3.899 -1.3806  2.3802 -1.1035
  715MOL0     H94354  -1.380   7.559   3.601 -2.5503 -0.1851 -0.5702
  715MOL0     H94355  -1.374   7.721   3.640  2.2110 -0.3496  0.1494
  715MOL0     H94356  -1.602   7.678   3.661  1.0363 -0.1622 -2.0759
  715MOL0     H94357  -1.552   7.678   3.826 -1.1722 -1.3541  1.0868
  715MOL0     H94358  -1.527   7.425   3.830 -0.1050 -1.2066 -0.9670
  715MOL0     H94359  -1.689   7.490   3.798  0.3046  0.5111  0.4833
  715MOL0     H94360  -1.603   7.284   3.664 -2.3852  0.1266  0.0911
  715MOL0     H94361  -1.496   7.397   3.575  1.1601  1.7331  2.0140
  715MOL0     H94362  -0.601   7.528   4.036 -4.2458  1.0640 -0.4018
  715MOL0     H94363  -0.362   7.605   3.992  0.9768  0.6349 -1.7990
  715MOL0     H94364  -0.081   7.746   3.514 -1.2512  4.8359 -2.5645
  715MOL0     H94365   0.127   7.833   3.478 -3.5058 -1.3236 -2.0040
  715MOL0     H94366   1.508   7.852   4.048 -1.0879  1.4299  1.6440
  715MOL0     H94367   1.753   7.914   4.097 -0.4552  2.8403  1.2106
  715MOL0     H94368   2.150   8.139   4.194 -1.2458 -2.1677 -0.6627
  715MOL0     H94369   2.381   8.178   4.308 -0.0955  1.1486  2.5429
  715MOL0     H94370   2.540   8.231   4.491 -1.1002  0.9853 -1.4076
  715MOL0     H94371   2.577   8.106   4.381  2.6594  0.5927  0.8004
  715MOL0     H94372   2.674   8.114   4.669  0.6449  3.2498 -0.0880
  715MOL0     H94373   2.723   7.988   4.554  0.9565 -0.6491  0.7548
  715MOL0     H94374   2.774   8.280   4.537 -1.2601 -0.6379 -0.0829
  715MOL0     H94375   2.824   8.175   4.407  1.6623  2.5383  0.4534
  715MOL0     H94376   3.019   8.200   4.539 -0.1303 -1.0863  0.0602
  715MOL0     H94377   2.953   8.149   4.692  0.9531 -3.4002  0.1000
  715MOL0     H94378   3.022   7.770   4.577 -1.3290 -0.4653 -2.8450
  715MOL0     H94379   2.257   7.932   4.631  1.7847  0.2301 -0.2055
  715MOL0     H94380   2.033   7.894   4.521 -3.2649  1.5595 -0.0788
  716MOL0     O94381   7.709   9.914   9.728 -0.7136 -0.0303  0.1086
  716MOL0     C94382   7.735  10.021   9.664 -0.5558  0.8178 -0.3759
  716MOL0     O94383   7.853  10.052   9.612  0.5756 -0.1923  0.6641
  716MOL0     C94384   7.952   9.954   9.614 -0.5890  0.1161 -0.5030
  716MOL0     C94385   8.048   9.956   9.713 -0.5444  0.9832  0.0072
  716MOL0     C94386   8.152   9.863   9.721 -0.2974 -0.8445 -0.1739
  716MOL0     C94387   8.161   9.763   9.622  0.4160 -0.5124 -0.6220
  716MOL0     O94388   8.261   9.673   9.631  0.0770 -0.1884  0.6611
  716MOL0     C94389   8.220   9.535   9.653 -0.1473 -0.3589  0.2317
  716MOL0     C94390   8.276   9.458   9.531 -0.5049  0.8404  0.3831
  716MOL0     C94391   8.223   9.318   9.513  0.0783  0.1833 -0.7721
  716MOL0     C94392   8.076   9.310   9.478 -0.7883  0.3433  0.0595
  716MOL0     C94393   8.033   9.380   9.344 -0.5674 -0.7070 -0.0246
  716MOL0     C94394   7.908   9.303   9.279 -0.2293  0.4301 -0.1282
  716MOL0     C94395   7.771   9.343   9.345 -0.8740 -0.4589  0.1408
  716MOL0     C94396   7.659   9.318   9.243 -0.1788  0.0706  0.4466
  716MOL0     N94397   7.533   9.362   9.314  0.2419  0.2229 -0.2898
  716MOL0     C94398   7.451   9.275   9.374  0.8610  0.4150 -0.8397
  716MOL0     C94399   7.357   9.344   9.439 -0.0946 -0.5384 -0.1235
  716MOL0     C94400   7.241   9.274   9.503  0.1017  0.7469 -0.7007
  716MOL0     C94401   7.137   9.225   9.405 -0.0623 -0.6438 -0.2100
  716MOL0     C94402   7.071   9.340   9.331 -0.2399  1.0496 -0.1369
  716MOL0     C94403   7.026   9.449   9.418 -0.2493 -0.9175  0.1606
  716MOL0     O94404   6.948   9.547   9.355 -0.2198 -0.1494  0.2634
  716MOL0     C94405   6.808   9.551   9.378 -0.4766  0.0087 -0.1161
  716MOL0     C94406   6.739   9.520   9.496  1.0647  0.6765 -0.1868
  716MOL0     C94407   6.596   9.511   9.498 -0.1355 -0.0058 -0.3268
  716MOL0     C94408   6.516   9.553   9.391  0.5058  0.0026  0.2238
  716MOL0     C94409   6.366   9.524   9.382 -0.7307 -0.2545 -0.7502
  716MOL0     O94410   6.310   9.493   9.509  0.1454 -0.1470  0.7575
  716MOL0     C94411   6.170   9.479   9.522 -0.2155  0.1033  0.8167
  716MOL0     C94412   6.082   9.569   9.466 -0.1347 -0.1789  0.3683
  716MOL0     C94413   5.944   9.557   9.481 -0.4843 -0.5929  0.3220
  716MOL0     C94414   5.894   9.439   9.538 -0.0495  0.2180  0.5137
  716MOL0     O94415   5.763   9.445   9.558  0.4794  0.5206  0.5756
  716MOL0     C94416   5.699   9.334   9.626  0.0621 -0.3030 -0.4859
  716MOL0     C94417   5.550   9.353   9.645 -0.5016 -0.5248  0.1194
  716MOL0     C94418   5.495   9.217   9.692 -0.5938  0.3316  0.7858
  716MOL0     C94419   5.369   9.242   9.752 -0.3134 -0.2664 -0.2499
  716MOL0     C94420   5.329   9.110   9.827  0.7018 -0.5145  1.6352
  716MOL0     C94421   5.202   9.127   9.906  0.4752  0.2585 -0.0000
  716MOL0     C94422   5.065   9.135   9.831  0.1648 -0.5804 -0.3119
  716MOL0     C94423   4.944   9.115   9.923 -0.0163  0.1747  0.3560
  716MOL0    Cl94424   4.801   9.075   9.823  0.1572  0.0107 -0.2180
  716MOL0     C94425   5.980   9.346   9.596 -0.3618  0.6664  0.2638
  716MOL0     C94426   6.114   9.368   9.593 -0.1808  0.5939 -0.4434
  716MOL0     O94427   6.314   9.531   9.278 -0.1935 -0.0262  0.8502
  716MOL0     C94428   6.584   9.608   9.282 -0.7111 -0.8093 -0.0237
  716MOL0     C94429   6.725   9.598   9.271 -0.0769  0.5027 -0.6138
  716MOL0     N94430   7.386   9.479   9.426 -0.7301 -0.3898  0.5618
  716MOL0     N94431   7.481   9.483   9.331 -0.3037 -0.2071  0.0712
  716MOL0     C94432   8.071   9.763   9.507 -0.8317 -1.0391  0.4532
  716MOL0     C94433   7.971   9.871   9.498 -1.1910  0.3707 -0.4942
  716MOL0     C94434   7.632  10.121   9.647  0.4334  0.8298 -0.6597
  716MOL0     C94435   7.669  10.241   9.597 -0.5853  0.4574  0.1354
  716MOL0     C94436   7.575  10.344   9.600  1.3932  0.3542  0.2731
  716MOL0     C94437   7.438  10.325   9.627 -0.2294  0.3207 -0.3333
  716MOL0     O94438   7.340  10.429   9.631  0.1155 -0.1180 -1.1056
  716MOL0     C94439   7.348  10.556   9.569 -0.0910 -0.5951 -0.4723
  716MOL0     C94440   7.280  10.652   9.668 -0.0346  0.5555 -0.2059
  716MOL0     C94441   7.121  10.621   9.690  0.7528  0.0913  0.9744
  716MOL0     C94442   7.071  10.477   9.700  0.5104 -0.1053 -0.2866
  716MOL0     C94443   6.927  10.465   9.737  0.1613 -0.3952  0.2234
  716MOL0     C94444   6.811  10.449   9.763  0.3742  1.3040 -0.4325
  716MOL0     C94445   7.400  10.192   9.671  0.1854  0.3306 -0.6224
  716MOL0     C94446   7.498  10.093   9.678  0.0107  0.9352  0.6348
  716MOL0     H94447   8.043  10.031   9.792 -1.1823  0.5329  0.4031
  716MOL0     H94448   8.227   9.867   9.800  0.8193 -0.1187 -1.2533
  716MOL0     H94449   8.112   9.517   9.646 -0.4270  0.8453  1.0879
  716MOL0     H94450   8.246   9.500   9.753  0.9783 -0.1832  0.0204
  716MOL0     H94451   8.385   9.450   9.538 -0.3211 -0.3932 -2.3080
  716MOL0     H94452   8.253   9.505   9.435 -2.4859  0.1475  0.4761
  716MOL0     H94453   8.236   9.261   9.605  2.8337  0.9238 -0.6312
  716MOL0     H94454   8.273   9.257   9.437  0.6251  1.4092 -1.4354
  716MOL0     H94455   8.048   9.205   9.484 -0.6202  0.3207  0.4325
  716MOL0     H94456   8.013   9.352   9.557  0.4945 -1.1377  1.9304
  716MOL0     H94457   8.120   9.379   9.279 -1.1851 -0.8767 -0.8693
  716MOL0     H94458   8.002   9.484   9.361  0.4746 -0.7040  2.3016
  716MOL0     H94459   7.915   9.196   9.299  1.1070  0.4464 -0.4021
  716MOL0     H94460   7.909   9.333   9.174 -1.6401  0.7257 -0.0780
  716MOL0     H94461   7.759   9.290   9.440 -2.4658  2.6320  1.8128
  716MOL0     H94462   7.775   9.449   9.370  1.9073 -0.0839 -1.4628
  716MOL0     H94463   7.651   9.215   9.207  0.5021 -0.4119  1.6101
  716MOL0     H94464   7.663   9.385   9.157 -0.9006  1.4226  1.4242
  716MOL0     H94465   7.458   9.167   9.371 -1.4091  0.2336 -1.6713
  716MOL0     H94466   7.203   9.344   9.578 -0.5865  1.2252 -1.4899
  716MOL0     H94467   7.266   9.181   9.556 -0.5826 -0.3635 -2.2339
  716MOL0     H94468   7.060   9.179   9.468  1.6182 -2.1349  0.8665
  716MOL0     H94469   7.188   9.156   9.337  1.5962 -0.3748  0.7047
  716MOL0     H94470   7.142   9.386   9.261 -0.0572 -1.1960 -1.5321
  716MOL0     H94471   6.988   9.313   9.264  0.7839  2.1751 -1.9548
  716MOL0     H94472   7.112   9.509   9.447 -2.4314  3.1045 -1.0183
  716MOL0     H94473   6.976   9.413   9.508 -0.3432  0.5528  0.7201
  716MOL0     H94474   6.794   9.494   9.585  0.7082 -1.6492 -0.5642
  716MOL0     H94475   6.539   9.461   9.576 -0.8047 -1.6112 -1.7825
  716MOL0     H94476   6.123   9.647   9.403  0.1384 -0.8436 -0.2874
  716MOL0     H94477   5.878   9.636   9.446 -0.0931 -1.2890 -2.2262
  716MOL0     H94478   5.741   9.336   9.727 -1.7220  2.2864  0.3077
  716MOL0     H94479   5.733   9.237   9.587 -1.4390  0.4062 -3.8566
  716MOL0     H94480   5.502   9.395   9.556 -0.1734 -0.6214 -0.1056
  716MOL0     H94481   5.536   9.431   9.720 -2.6942 -3.1656  2.7315
  716MOL0     H94482   5.565   9.173   9.764  1.3679  0.8963 -0.6728
  716MOL0     H94483   5.497   9.150   9.606  0.3638  0.2272  0.8776
  716MOL0     H94484   5.379   9.329   9.817 -1.9005  1.0212 -1.6214
  716MOL0     H94485   5.291   9.273   9.682  0.1343 -1.5561 -1.3591
  716MOL0     H94486   5.410   9.085   9.897  2.4830  1.5198  0.4405
  716MOL0     H94487   5.325   9.025   9.758 -0.1452 -0.3208  1.4388
  716MOL0     H94488   5.216   9.214   9.971  1.6982 -2.1318  3.1840
  716MOL0     H94489   5.195   9.043   9.976 -1.5051 -0.7975 -1.3669
  716MOL0     H94490   5.052   9.233   9.783 -0.6133  0.2958  1.5968
  716MOL0     H94491   5.066   9.064   9.748 -0.2098  1.2427 -1.9639
  716MOL0     H94492   4.935   9.204   9.986 -2.2806  0.5605 -0.4358
  716MOL0     H94493   4.964   9.032   9.992 -0.3087  0.9997  1.4610
  716MOL0     H94494   5.949   9.255   9.646  0.8601 -0.7799 -1.4806
  716MOL0     H94495   6.192   9.299   9.623 -1.0463 -0.1015  0.2666
  716MOL0     H94496   6.539   9.631   9.185 -1.2733 -2.2532 -0.1270
  716MOL0     H94497   6.763   9.637   9.177 -0.0982  0.7133 -0.5368
  716MOL0     H94498   8.073   9.692   9.425  0.0673  1.2669 -1.6394
  716MOL0     H94499   7.901   9.858   9.415  0.7363 -1.8227 -1.8898
  716MOL0     H94500   7.770  10.270   9.571  0.5785 -0.8455  2.8440
  716MOL0     H94501   7.603  10.444   9.571  0.1490  1.0831  1.4418
  716MOL0     H94502   7.279  10.572   9.485 -0.6742  1.9215  0.3950
  716MOL0     H94503   7.449  10.589   9.544  0.0885  0.5873  1.5922
  716MOL0     H94504   7.337  10.639   9.761  0.6791 -2.6902 -0.9793
  716MOL0     H94505   7.288  10.754   9.629  2.2805 -0.0192 -1.3868
  716MOL0     H94506   7.074  10.674   9.607  1.1572 -0.4841  0.3707
  716MOL0     H94507   7.098  10.666   9.787  1.3588  0.9140  0.7429
  716MOL0     H94508   7.088  10.430   9.603  1.8068 -0.2723  0.0034
  716MOL0     H94509   7.128  10.421   9.775 -3.0715 -4.9284 -0.6657
  716MOL0     H94510   6.706  10.436   9.775  0.6412  1.1257  2.3339
  716MOL0     H94511   7.296  10.169   9.692 -0.4680  0.4453 -3.3755
  716MOL0     H94512   7.472   9.990   9.704 -1.2006  1.7306  2.8939
  717MOL0     O94513   7.075   5.247   5.989  0.1516  0.3206  0.3143
  717MOL0     C94514   7.139   5.194   6.082  0.1243 -0.3305 -0.1038
  717MOL0     O94515   7.110   5.075   6.145  0.5204  0.6167  0.0288
  717MOL0     C94516   6.983   5.023   6.108 -0.2245  0.3030  0.5184
  717MOL0     C94517   6.980   4.924   6.010 -0.2396 -0.1620 -0.4465
  717MOL0     C94518   6.855   4.868   5.957 -0.0676  0.1280  0.1962
  717MOL0     C94519   6.730   4.912   6.019  0.4460  0.0102 -0.2439
  717MOL0     O94520   6.609   4.886   5.968  1.0315  0.9848  0.1591
  717MOL0     C94521   6.578   4.806   5.856  0.7790 -0.2972  0.9342
  717MOL0     C94522   6.438   4.847   5.794 -0.0479 -0.4872  1.0118
  717MOL0     C94523   6.414   4.970   5.710  0.6780 -0.5070  0.3072
  717MOL0     C94524   6.423   5.098   5.807  0.1427  0.2719  0.3445
  717MOL0     C94525   6.425   5.225   5.720 -0.1562  0.3428  0.1196
  717MOL0     C94526   6.441   5.345   5.814  0.2599  0.2210  0.3149
  717MOL0     C94527   6.324   5.369   5.905  0.7929  0.1005 -0.1016
  717MOL0     C94528   6.215   5.435   5.830  0.0010  0.0047  0.6192
  717MOL0     N94529   6.258   5.565   5.773 -0.0949 -0.0552 -0.2085
  717MOL0     C94530   6.270   5.690   5.838  0.0066  0.2472 -0.0786
  717MOL0     C94531   6.320   5.765   5.736  0.1713  0.3061  0.5489
  717MOL0     C94532   6.349   5.911   5.748  0.4664  0.0182 -0.0787
  717MOL0     C94533   6.229   5.992   5.698  0.2371 -0.6488  0.0832
  717MOL0     C94534   6.264   6.137   5.673  0.1480  0.3756 -0.0819
  717MOL0     C94535   6.137   6.211   5.628  0.1987 -0.2078  0.1763
  717MOL0     O94536   6.021   6.185   5.710 -0.1764  0.0008 -0.5228
  717MOL0     C94537   5.940   6.293   5.727  0.2782  0.3179 -1.2645
  717MOL0     C94538   5.966   6.394   5.827  0.4827  0.4210 -0.5463
  717MOL0     C94539   5.870   6.496   5.839 -0.7906  0.3662 -0.2013
  717MOL0     C94540   5.754   6.502   5.765  0.0607  0.3497  0.5616
  717MOL0     C94541   5.642   6.592   5.801 -0.5372 -0.3963 -0.5372
  717MOL0     O94542   5.516   6.549   5.771  0.1108  0.7905  0.1184
  717MOL0     C94543   5.395   6.608   5.796  0.1031  0.4014  1.2931
  717MOL0     C94544   5.285   6.515   5.788 -0.1752  0.0036  0.6444
  717MOL0     C94545   5.157   6.558   5.794 -0.7605  0.3953  0.0586
  717MOL0     C94546   5.134   6.695   5.815  0.0584 -0.1768  0.1143
  717MOL0     O94547   5.001   6.750   5.813 -1.1507  0.2575  0.3357
  717MOL0     C94548   4.890   6.664   5.797 -0.2894  0.9486 -0.6959
  717MOL0     C94549   4.763   6.765   5.797 -0.7141  0.4484  0.0856
  717MOL0     C94550   4.629   6.695   5.760 -0.3942  0.1687 -0.2654
  717MOL0     C94551   4.499   6.779   5.786  0.0274  0.0258 -0.6934
  717MOL0     C94552   4.380   6.712   5.737  0.4946  0.1368 -0.1113
  717MOL0     C94553   4.261   6.783   5.805 -0.7785  0.7269 -0.1818
  717MOL0     C94554   4.116   6.740   5.747 -0.5426  0.9023  0.2918
  717MOL0     C94555   4.083   6.593   5.771  0.7860 -0.1899  0.2321
  717MOL0    Cl94556   4.043   6.573   5.948 -0.3246 -0.0728 -0.2078
  717MOL0     C94557   5.245   6.784   5.830  0.1087 -0.7151  0.4285
  717MOL0     C94558   5.375   6.747   5.814 -0.3923 -0.1652  0.3009
  717MOL0     O94559   5.673   6.693   5.866 -0.1041 -0.1942  0.1497
  717MOL0     C94560   5.739   6.413   5.658 -0.5894  0.2108 -0.0341
  717MOL0     C94561   5.842   6.309   5.639 -0.5588 -0.5991 -0.2600
  717MOL0     N94562   6.327   5.699   5.612 -0.2192 -0.7155  0.8431
  717MOL0     N94563   6.287   5.583   5.641 -0.6066 -0.3945  0.0424
  717MOL0     C94564   6.738   5.008   6.118 -0.4750 -0.0387 -0.3193
  717MOL0     C94565   6.859   5.060   6.164  0.1957  0.6443  0.1541
  717MOL0     C94566   7.278   5.248   6.109  0.3490 -0.6406 -0.6505
  717MOL0     C94567   7.378   5.166   6.161  1.0449  0.5388  0.0088
  717MOL0     C94568   7.509   5.209   6.171 -0.2021  0.3030 -0.1627
  717MOL0     C94569   7.546   5.337   6.130  0.1968  0.5048  0.5604
  717MOL0     O94570   7.671   5.395   6.136 -0.7703 -0.4280 -0.0168
  717MOL0     C94571   7.781   5.335   6.202  1.3884  0.0295  0.2699
  717MOL0     C94572   7.855   5.467   6.240  0.3855 -0.5882  0.9117
  717MOL0     C94573   7.965   5.438   6.329 -0.1892  0.3234  0.0073
  717MOL0     C94574   8.078   5.357   6.284 -0.0145  0.0131 -0.1147
  717MOL0     C94575   8.150   5.407   6.172  0.1144 -0.7345 -0.2505
  717MOL0     C94576   8.222   5.445   6.076 -0.5994  0.6747  0.0360
  717MOL0     C94577   7.451   5.411   6.071  0.1980 -1.2169 -0.0828
  717MOL0     C94578   7.312   5.373   6.058  0.1188 -0.1476  0.2227
  717MOL0     H94579   7.076   4.907   5.963 -0.0249  0.3811 -0.2073
  717MOL0     H94580   6.854   4.792   5.880 -0.2578  0.9233 -0.6089
  717MOL0     H94581   6.557   4.702   5.882 -2.5352  0.2356  0.8725
  717MOL0     H94582   6.646   4.804   5.771 -0.9502  2.7929 -0.6944
  717MOL0     H94583   6.367   4.869   5.874 -1.7892 -0.2225 -0.5622
  717MOL0     H94584   6.390   4.759   5.751  0.5350 -0.9083  1.2128
  717MOL0     H94585   6.312   4.957   5.672  0.3546  2.2448 -0.0040
  717MOL0     H94586   6.471   5.010   5.626  1.4671  1.9424  1.8833
  717MOL0     H94587   6.341   5.097   5.880 -0.3114  0.2741 -0.1541
  717MOL0     H94588   6.519   5.095   5.858  0.8543 -0.4559 -1.0000
  717MOL0     H94589   6.328   5.242   5.671  1.4664  3.2356 -2.3910
  717MOL0     H94590   6.502   5.227   5.643  0.3081  3.4983  0.5660
  717MOL0     H94591   6.458   5.430   5.748  0.7420 -0.3547 -0.3225
  717MOL0     H94592   6.516   5.314   5.888 -1.7837  0.7801  2.7307
  717MOL0     H94593   6.289   5.278   5.952  1.2551  0.6204  1.2990
  717MOL0     H94594   6.352   5.439   5.984 -0.8539 -0.0789  0.6815
  717MOL0     H94595   6.129   5.450   5.896 -1.3244 -1.3179 -0.7348
  717MOL0     H94596   6.186   5.379   5.741 -2.0355  0.7469  0.7702
  717MOL0     H94597   6.239   5.721   5.938 -0.6228 -1.4527  0.2863
  717MOL0     H94598   6.440   5.944   5.698 -0.0858  2.4482  0.3878
  717MOL0     H94599   6.366   5.934   5.854  1.4004  2.5948 -0.7267
  717MOL0     H94600   6.147   5.975   5.768 -2.8376 -0.7380 -3.2524
  717MOL0     H94601   6.202   5.939   5.606 -0.2958 -3.4049  1.7163
  717MOL0     H94602   6.289   6.176   5.772  2.0085  1.2445 -0.8591
  717MOL0     H94603   6.347   6.161   5.607 -1.5292  2.0362 -1.6832
  717MOL0     H94604   6.116   6.177   5.526 -1.5651 -0.7261  0.6874
  717MOL0     H94605   6.153   6.317   5.610 -1.9592 -0.0437 -1.1620
  717MOL0     H94606   6.048   6.385   5.898 -1.9605 -0.3792  2.3776
  717MOL0     H94607   5.883   6.579   5.908  2.8215  1.0591 -1.4653
  717MOL0     H94608   5.306   6.409   5.781 -0.8061 -0.0331 -0.8592
  717MOL0     H94609   5.079   6.482   5.784 -1.8003  1.5242 -0.7520
  717MOL0     H94610   4.869   6.593   5.877 -0.3056 -1.2214 -2.5445
  717MOL0     H94611   4.906   6.611   5.703  2.7606 -1.6747  1.1142
  717MOL0     H94612   4.793   6.839   5.721 -0.1327  2.6227  2.3036
  717MOL0     H94613   4.743   6.804   5.897 -7.5001 -0.2914 -0.5567
  717MOL0     H94614   4.625   6.607   5.825  0.6844 -1.3676 -2.1815
  717MOL0     H94615   4.627   6.665   5.655  0.4073 -1.0416  0.0505
  717MOL0     H94616   4.495   6.790   5.895  0.3350 -3.0431 -0.2574
  717MOL0     H94617   4.501   6.877   5.739  0.9961  0.8764  1.0314
  717MOL0     H94618   4.378   6.607   5.767  0.1664  0.3628  0.7004
  717MOL0     H94619   4.386   6.712   5.628  1.2290 -2.0096 -0.1171
  717MOL0     H94620   4.266   6.892   5.797  0.5172  0.6949  0.0513
  717MOL0     H94621   4.261   6.755   5.911 -0.0507 -0.2453 -0.4340
  717MOL0     H94622   4.033   6.789   5.797 -2.2757 -2.6938  1.2697
  717MOL0     H94623   4.110   6.764   5.640  0.3437 -2.9240 -0.8056
  717MOL0     H94624   4.157   6.530   5.721 -0.2120  1.3458 -3.4590
  717MOL0     H94625   3.988   6.565   5.724 -1.8936  3.0928  3.0973
  717MOL0     H94626   5.227   6.890   5.847  5.0047  0.3836  0.1813
  717MOL0     H94627   5.460   6.814   5.810  0.0170 -0.4824 -5.5044
  717MOL0     H94628   5.647   6.408   5.601 -1.9623 -0.8358  2.1288
  717MOL0     H94629   5.821   6.247   5.553 -0.6119 -1.6260  0.4733
  717MOL0     H94630   6.637   5.027   6.152 -0.2691 -1.6516  1.3804
  717MOL0     H94631   6.857   5.123   6.253 -1.4079  2.3561 -1.0112
  717MOL0     H94632   7.344   5.068   6.195  2.7509 -0.8862 -2.1374
  717MOL0     H94633   7.577   5.140   6.221  2.1100  2.5538  0.0093
  717MOL0     H94634   7.840   5.263   6.145 -0.0022 -0.9029 -0.0417
  717MOL0     H94635   7.744   5.285   6.292 -2.8421 -0.4029 -1.4845
  717MOL0     H94636   7.882   5.520   6.148  1.2247  2.1845  2.6404
  717MOL0     H94637   7.789   5.539   6.289  1.6957 -0.3079  2.3370
  717MOL0     H94638   7.927   5.399   6.423 -1.6781 -0.7852 -1.0163
  717MOL0     H94639   7.992   5.542   6.352 -2.3582  0.6559  1.3201
  717MOL0     H94640   8.144   5.341   6.370  0.9163  1.7911 -0.4544
  717MOL0     H94641   8.060   5.253   6.253  2.1997  0.1524 -2.2325
  717MOL0     H94642   8.285   5.466   5.992  1.7312  1.2826  1.8402
  717MOL0     H94643   7.485   5.506   6.033 -0.9082 -1.2369 -1.1499
  717MOL0     H94644   7.233   5.430   6.009  2.7191  0.7723 -3.3968
  718MOL0     O94645   3.672   7.513   0.931 -0.5484 -0.3751  0.3128
  718MOL0     C94646   3.693   7.450   0.828 -0.7778  0.2191  0.0453
  718MOL0     O94647   3.603   7.409   0.733  0.2225  0.1342 -0.4640
  718MOL0     C94648   3.466   7.422   0.760 -0.2440  0.3454 -0.2565
  718MOL0     C94649   3.413   7.382   0.882  0.0383 -0.3400 -0.1578
  718MOL0     C94650   3.281   7.410   0.909  0.4755  0.0731 -0.1158
  718MOL0     C94651   3.199   7.478   0.825  0.0282 -0.2080  0.0700
  718MOL0     O94652   3.073   7.520   0.867 -0.3793  0.5034  0.4697
  718MOL0     C94653   2.963   7.506   0.784 -0.0485  0.1534  0.4358
  718MOL0     C94654   2.843   7.494   0.880  0.2583 -0.1612 -0.0957
  718MOL0     C94655   2.703   7.458   0.824 -1.0318  0.5869 -1.0863
  718MOL0     C94656   2.596   7.461   0.942 -0.7747  0.0996  0.0641
  718MOL0     C94657   2.452   7.415   0.889  0.3683  1.2496 -0.1747
  718MOL0     C94658   2.353   7.448   1.006  0.1759 -0.5886  0.2520
  718MOL0     C94659   2.210   7.451   0.960  0.2539  0.1830  0.1640
  718MOL0     C94660   2.145   7.317   0.921 -0.0006  0.3993  0.7345
  718MOL0     N94661   2.002   7.324   0.888  0.2670  0.6535 -1.0080
  718MOL0     C94662   1.901   7.279   0.976  0.0042  0.8273 -0.3638
  718MOL0     C94663   1.785   7.334   0.931 -0.0424 -0.0900 -0.2942
  718MOL0     C94664   1.643   7.301   0.960 -0.2237  0.6867  0.5422
  718MOL0     C94665   1.620   7.151   0.914 -0.1374 -0.5375 -0.2441
  718MOL0     C94666   1.474   7.114   0.946 -0.6278  0.3269  0.2188
  718MOL0     C94667   1.447   6.968   0.918  0.3702  0.8686 -0.1704
  718MOL0     O94668   1.510   6.884   1.017 -0.6045 -0.0175  0.4772
  718MOL0     C94669   1.632   6.825   1.008  1.0764  0.1815  0.4818
  718MOL0     C94670   1.695   6.806   1.133 -0.2352  0.4745  0.1556
  718MOL0     C94671   1.816   6.736   1.134 -0.2859  0.8538  0.3042
  718MOL0     C94672   1.879   6.692   1.013  0.8862 -0.2772 -0.1521
  718MOL0     C94673   2.003   6.620   1.018 -0.1432 -0.1638 -0.2912
  718MOL0     O94674   2.045   6.580   1.137 -0.0476 -0.6322  0.0910
  718MOL0     C94675   2.167   6.518   1.145 -0.1072 -0.8155 -0.0926
  718MOL0     C94676   2.178   6.431   1.259  0.3886 -0.3973  0.8030
  718MOL0     C94677   2.291   6.353   1.284  0.0541  0.5579 -0.5084
  718MOL0     C94678   2.396   6.379   1.204 -0.7223  0.2649  0.1866
  718MOL0     O94679   2.500   6.290   1.223  0.2441 -0.1670  0.1971
  718MOL0     C94680   2.610   6.307   1.141  0.7057 -0.1233 -0.0983
  718MOL0     C94681   2.732   6.245   1.212  0.2397  0.6469  0.2774
  718MOL0     C94682   2.742   6.307   1.356 -0.1714 -0.7441  0.0120
  718MOL0     C94683   2.860   6.249   1.427 -0.7748 -1.0372 -0.5085
  718MOL0     C94684   2.996   6.298   1.372 -1.0991 -0.4045 -0.0611
  718MOL0     C94685   3.128   6.236   1.428  0.1223 -0.2892 -0.3032
  718MOL0     C94686   3.241   6.325   1.381 -0.5239 -0.4252  0.2102
  718MOL0     C94687   3.375   6.254   1.357  0.0463 -0.7187 -0.2450
  718MOL0    Cl94688   3.408   6.149   1.209 -0.2116  0.5944 -0.3429
  718MOL0     C94689   2.387   6.477   1.096 -0.1993  0.6000  0.2483
  718MOL0     C94690   2.276   6.546   1.070 -0.4440  0.2444 -1.1328
  718MOL0     O94691   2.057   6.605   0.911 -0.3666  0.5058  0.2261
  718MOL0     C94692   1.815   6.716   0.891  0.2401 -0.5074  0.0014
  718MOL0     C94693   1.687   6.780   0.890 -0.1893 -0.3609 -0.2730
  718MOL0     N94694   1.809   7.421   0.827 -0.7753 -0.7156  0.2340
  718MOL0     N94695   1.937   7.421   0.811 -0.2007 -0.0274  0.5578
  718MOL0     C94696   3.249   7.500   0.694  0.3861  0.4547 -0.4438
  718MOL0     C94697   3.384   7.473   0.660  0.3192 -0.0879 -0.3172
  718MOL0     C94698   3.838   7.405   0.807  0.4077  0.1222 -0.3185
  718MOL0     C94699   3.944   7.399   0.909  0.2368  0.2428  0.0694
  718MOL0     C94700   4.069   7.360   0.879 -0.8060  0.7785  0.0794
  718MOL0     C94701   4.107   7.304   0.758  0.8148 -0.3801  0.2423
  718MOL0     O94702   4.222   7.242   0.727  0.0097 -0.8680 -0.2508
  718MOL0     C94703   4.273   7.147   0.813  0.2637  0.1554  0.8832
  718MOL0     C94704   4.399   7.093   0.749  0.6767  0.0247 -0.0345
  718MOL0     C94705   4.466   6.973   0.824 -0.4403 -0.8559  0.2527
  718MOL0     C94706   4.467   6.998   0.976 -0.1373  0.0780  1.0261
  718MOL0     C94707   4.579   6.919   1.029 -0.7627  0.3225  0.0604
  718MOL0     C94708   4.663   6.848   1.074 -1.0383 -0.9164 -0.3173
  718MOL0     C94709   4.011   7.323   0.656 -0.2675  1.0824 -0.5427
  718MOL0     C94710   3.876   7.370   0.686  0.6928  0.1150 -0.3577
  718MOL0     H94711   3.465   7.311   0.945 -0.2775 -0.6717 -0.2698
  718MOL0     H94712   3.233   7.388   1.004 -0.9546  1.1578 -0.5449
  718MOL0     H94713   2.962   7.416   0.722  1.8578  1.1164 -1.0840
  718MOL0     H94714   2.964   7.591   0.715 -0.3082 -0.3844 -0.2403
  718MOL0     H94715   2.834   7.591   0.929 -3.2029 -0.4075 -0.0235
  718MOL0     H94716   2.870   7.414   0.950 -0.6118 -1.2794 -1.0117
  718MOL0     H94717   2.708   7.356   0.785 -2.4549 -0.1627  0.5754
  718MOL0     H94718   2.678   7.516   0.734  0.3994  0.6019 -1.4901
  718MOL0     H94719   2.632   7.393   1.020  1.6591 -0.6873 -1.6136
  718MOL0     H94720   2.593   7.565   0.975 -0.5136  0.6312 -1.5019
  718MOL0     H94721   2.451   7.307   0.871 -2.0850  1.2869 -0.7370
  718MOL0     H94722   2.436   7.464   0.792 -0.7129  0.9479 -0.1681
  718MOL0     H94723   2.384   7.547   1.043  0.1626 -1.3365  2.4194
  718MOL0     H94724   2.373   7.385   1.093  2.3614 -0.2581  0.0546
  718MOL0     H94725   2.144   7.494   1.035  1.8035 -3.0978  3.7543
  718MOL0     H94726   2.204   7.506   0.865 -1.7075  0.7231  0.5500
  718MOL0     H94727   2.155   7.233   0.991 -2.7839 -1.0253 -0.4232
  718MOL0     H94728   2.207   7.274   0.842  3.2192 -2.6677  4.4556
  718MOL0     H94729   1.908   7.195   1.044  2.7230 -0.6617 -2.2953
  718MOL0     H94730   1.575   7.375   0.916 -1.8060 -1.4927 -0.8706
  718MOL0     H94731   1.622   7.312   1.067 -0.3902 -2.9202  1.0110
  718MOL0     H94732   1.695   7.090   0.964  2.1573 -0.7647 -3.6235
  718MOL0     H94733   1.645   7.148   0.807  1.1659 -1.9280  0.0718
  718MOL0     H94734   1.462   7.118   1.054 -0.8369  0.9353  0.1784
  718MOL0     H94735   1.405   7.180   0.893  0.2625 -0.7608 -2.5194
  718MOL0     H94736   1.478   6.957   0.813 -2.1143  1.0890 -0.9991
  718MOL0     H94737   1.341   6.943   0.922  0.4888  0.5233  1.6395
  718MOL0     H94738   1.640   6.839   1.221 -1.3216 -0.1295 -0.2710
  718MOL0     H94739   1.869   6.713   1.226  1.2805  0.7157 -0.5976
  718MOL0     H94740   2.092   6.411   1.321 -0.6682 -0.6875 -0.7109
  718MOL0     H94741   2.284   6.283   1.367  1.8442  0.6147 -0.2671
  718MOL0     H94742   2.629   6.414   1.134  3.9415 -0.5709  0.1297
  718MOL0     H94743   2.590   6.282   1.036 -0.5323  1.5773 -0.3024
  718MOL0     H94744   2.824   6.262   1.156  0.1270 -0.1440 -0.1608
  718MOL0     H94745   2.717   6.137   1.215 -0.4250  0.3440 -4.8091
  718MOL0     H94746   2.649   6.286   1.409 -1.3237  2.3316 -0.5943
  718MOL0     H94747   2.741   6.416   1.360 -2.2180 -0.7489  2.7340
  718MOL0     H94748   2.859   6.279   1.532 -0.3500 -3.7819  0.3375
  718MOL0     H94749   2.842   6.141   1.427 -1.0319 -1.0834  2.4982
  718MOL0     H94750   3.002   6.402   1.404 -3.2045 -0.8060  1.8600
  718MOL0     H94751   3.008   6.309   1.263  3.2127 -0.3889  0.2198
  718MOL0     H94752   3.152   6.135   1.393  0.7155 -0.5762  0.8885
  718MOL0     H94753   3.128   6.236   1.537 -0.1359  0.7227 -0.2873
  718MOL0     H94754   3.216   6.380   1.289  2.0328  1.0785  0.3282
  718MOL0     H94755   3.264   6.403   1.453  1.4103 -1.6534  1.0031
  718MOL0     H94756   3.392   6.197   1.448  0.9878 -1.6260 -0.9765
  718MOL0     H94757   3.445   6.338   1.361  0.3507 -1.0259  1.3053
  718MOL0     H94758   2.465   6.500   1.025 -1.5331  6.4497  0.1306
  718MOL0     H94759   2.282   6.617   0.988  5.6304  1.7940  0.1591
  718MOL0     H94760   1.866   6.690   0.798  4.4786 -0.8417  2.1645
  718MOL0     H94761   1.640   6.802   0.795  1.1344  0.3936 -0.7907
  718MOL0     H94762   3.193   7.552   0.617  0.6002  0.6710 -0.4539
  718MOL0     H94763   3.418   7.485   0.557  0.1855  5.1624 -0.0115
  718MOL0     H94764   3.932   7.428   1.012 -0.4666  0.4360 -0.0585
  718MOL0     H94765   4.137   7.338   0.960  1.2807 -3.5062 -2.4525
  718MOL0     H94766   4.208   7.064   0.841  2.8077 -2.1389  0.3521
  718MOL0     H94767   4.310   7.202   0.901 -0.5067  3.2341 -0.5759
  718MOL0     H94768   4.372   7.043   0.655 -0.8635  0.7447 -0.0048
  718MOL0     H94769   4.467   7.175   0.730  0.2403  0.8378  1.7031
  718MOL0     H94770   4.567   6.949   0.789 -0.6076 -1.6815  0.3142
  718MOL0     H94771   4.402   6.884   0.815  1.1707 -2.0403 -0.0086
  718MOL0     H94772   4.480   7.105   0.996 -2.2524  1.3804 -3.3077
  718MOL0     H94773   4.371   6.968   1.020 -0.6263  0.9787  0.6088
  718MOL0     H94774   4.747   6.792   1.111  2.2081  3.2511 -0.6753
  718MOL0     H94775   4.043   7.297   0.556 -1.2768 -0.1175 -0.5812
  718MOL0     H94776   3.814   7.383   0.598  1.6340  2.3732 -0.7571
  719MOL0     O94777   0.918   7.163   7.231 -0.2951  0.1600  0.0961
  719MOL0     C94778   0.973   7.094   7.144 -0.0463  0.1932 -0.9965
  719MOL0     O94779   0.946   6.963   7.129  0.5600  0.3447  0.2932
  719MOL0     C94780   0.834   6.905   7.187  0.0033 -0.4585  0.0116
  719MOL0     C94781   0.840   6.772   7.216  0.5757 -1.2981  0.5713
  719MOL0     C94782   0.722   6.699   7.257  1.2237  0.6377 -0.0307
  719MOL0     C94783   0.587   6.756   7.241 -0.2461 -0.0367 -0.5755
  719MOL0     O94784   0.470   6.696   7.274  0.2233 -0.8180  0.7181
  719MOL0     C94785   0.458   6.567   7.223 -1.1513 -0.3625 -0.1323
  719MOL0     C94786   0.304   6.550   7.218  0.3119  0.8086  0.7094
  719MOL0     C94787   0.238   6.646   7.117 -0.0836  1.2207  1.4583
  719MOL0     C94788   0.081   6.638   7.133 -0.0179  0.1583 -1.8495
  719MOL0     C94789   0.030   6.487   7.148 -0.3269 -0.1674  0.1060
  719MOL0     C94790  -0.122   6.477   7.154 -0.9801 -0.4397  0.1028
  719MOL0     C94791  -0.193   6.537   7.279  0.1195  0.0585  0.0520
  719MOL0     C94792  -0.339   6.581   7.264 -0.1247 -0.5825 -0.0141
  719MOL0     N94793  -0.360   6.680   7.159  0.0437 -0.7328  0.1018
  719MOL0     C94794  -0.295   6.801   7.140  0.0229 -0.5646 -0.0223
  719MOL0     C94795  -0.347   6.855   7.027 -0.1484  0.1351  0.7970
  719MOL0     C94796  -0.269   6.979   6.970  0.1343  0.1866 -0.2944
  719MOL0     C94797  -0.373   7.085   6.930 -0.3590  0.3954  0.6139
  719MOL0     C94798  -0.309   7.224   6.932 -0.1903  0.1230  0.2186
  719MOL0     C94799  -0.398   7.336   6.897  0.3995  0.0845  0.4187
  719MOL0     O94800  -0.426   7.325   6.754  0.0471 -0.5864  0.0347
  719MOL0     C94801  -0.547   7.375   6.721 -0.7067 -0.7803  0.1642
  719MOL0     C94802  -0.563   7.514   6.705 -0.6922 -0.3738  0.0586
  719MOL0     C94803  -0.697   7.562   6.686 -0.1789  0.1491 -0.1067
  719MOL0     C94804  -0.809   7.475   6.692 -0.1101 -0.9958 -0.1515
  719MOL0     C94805  -0.941   7.528   6.659  0.5653  0.3086  0.1899
  719MOL0     O94806  -1.040   7.430   6.636 -0.4017  0.2097 -0.2804
  719MOL0     C94807  -1.170   7.466   6.641 -0.5162 -0.3406 -0.5951
  719MOL0     C94808  -1.235   7.528   6.753  0.8275  0.7063 -0.0082
  719MOL0     C94809  -1.374   7.549   6.749  0.5643  0.4046 -0.3830
  719MOL0     C94810  -1.448   7.508   6.636  0.7167 -0.0574  0.6826
  719MOL0     O94811  -1.575   7.539   6.608  0.7283  0.0231 -0.6720
  719MOL0     C94812  -1.679   7.437   6.598  0.2050  0.7887 -0.2914
  719MOL0     C94813  -1.785   7.480   6.501 -0.1224 -0.8854 -0.0070
  719MOL0     C94814  -1.902   7.382   6.475 -0.2431  0.2911 -0.2697
  719MOL0     C94815  -2.019   7.452   6.401 -0.1354  0.6691 -0.3348
  719MOL0     C94816  -2.152   7.372   6.422  0.3537  0.2826  0.3741
  719MOL0     C94817  -2.272   7.462   6.378  0.2137 -0.7499  0.4003
  719MOL0     C94818  -2.407   7.394   6.395 -0.6159  0.5216  0.0506
  719MOL0     C94819  -2.516   7.494   6.425 -0.4169 -0.1969  0.2037
  719MOL0    Cl94820  -2.678   7.434   6.387 -0.0276 -0.0863 -0.0349
  719MOL0     C94821  -1.383   7.446   6.526 -0.0570  0.4791 -0.3577
  719MOL0     C94822  -1.245   7.425   6.535 -0.3674 -1.2299  0.3002
  719MOL0     O94823  -0.967   7.654   6.661 -0.3040  0.4732 -0.8368
  719MOL0     C94824  -0.790   7.346   6.722  0.8159  0.3298  0.0685
  719MOL0     C94825  -0.661   7.298   6.730  0.1886  0.3335  0.4951
  719MOL0     N94826  -0.444   6.773   6.968 -0.8246 -0.0823 -0.7176
  719MOL0     N94827  -0.445   6.667   7.047  0.2345  0.0465 -0.0585
  719MOL0     C94828   0.581   6.891   7.221  0.1377  0.0262 -0.0192
  719MOL0     C94829   0.702   6.959   7.191  0.4180 -0.3398 -0.2101
  719MOL0     C94830   1.088   7.154   7.074 -0.5307 -0.0888 -1.0397
  719MOL0     C94831   1.166   7.254   7.133  0.7620 -0.4251  0.4821
  719MOL0     C94832   1.275   7.322   7.062 -0.4979 -0.1807 -0.1343
  719MOL0     C94833   1.314   7.269   6.942  0.4546 -0.3771  0.3846
  719MOL0     O94834   1.412   7.328   6.858  0.0653  0.6677 -0.4496
  719MOL0     C94835   1.462   7.455   6.896 -0.1732  0.3151  0.1392
  719MOL0     C94836   1.541   7.524   6.785 -0.4016 -0.3745  0.0430
  719MOL0     C94837   1.642   7.626   6.851  0.3883 -0.0020 -0.8671
  719MOL0     C94838   1.573   7.723   6.944 -0.2960  1.0824  1.4907
  719MOL0     C94839   1.457   7.778   6.886  0.3906 -0.8103  0.3044
  719MOL0     C94840   1.349   7.812   6.850 -0.1715  0.5767 -0.3860
  719MOL0     C94841   1.245   7.156   6.882 -0.8599  0.2741  0.9747
  719MOL0     C94842   1.136   7.100   6.948  0.7021 -0.1515  0.3966
  719MOL0     H94843   0.931   6.716   7.195  0.8518  0.2678 -3.4111
  719MOL0     H94844   0.717   6.595   7.289 -3.2868  0.8818  0.7358
  719MOL0     H94845   0.499   6.488   7.287 -0.2576 -1.7334 -2.3145
  719MOL0     H94846   0.511   6.545   7.130 -0.0058 -2.5224  0.9487
  719MOL0     H94847   0.243   6.566   7.308 -2.0521 -0.9888 -0.4531
  719MOL0     H94848   0.293   6.450   7.175  1.3547  2.1556 -3.0188
  719MOL0     H94849   0.271   6.613   7.018 -0.1097 -1.1448  2.1841
  719MOL0     H94850   0.271   6.748   7.138 -3.1544  1.6546  5.2704
  719MOL0     H94851   0.052   6.701   7.218  0.3535 -1.0867 -0.7581
  719MOL0     H94852   0.030   6.677   7.045 -1.8312 -1.9049 -1.7920
  719MOL0     H94853   0.069   6.445   7.241 -1.3624 -1.7173 -0.1185
  719MOL0     H94854   0.049   6.432   7.055 -2.3502 -0.6497 -0.0726
  719MOL0     H94855  -0.145   6.373   7.133  1.3236 -2.1400  4.6153
  719MOL0     H94856  -0.152   6.535   7.066  1.4490 -0.2930 -0.7174
  719MOL0     H94857  -0.171   6.458   7.351 -0.5437  0.9470  1.2677
  719MOL0     H94858  -0.143   6.627   7.315 -0.8753  1.0890 -1.0378
  719MOL0     H94859  -0.382   6.603   7.362 -0.4808 -3.4933  0.5975
  719MOL0     H94860  -0.404   6.496   7.244 -1.0939 -0.0932  0.9446
  719MOL0     H94861  -0.227   6.845   7.211  0.5327 -1.7678  0.2681
  719MOL0     H94862  -0.206   6.956   6.884  1.1728 -0.0416  0.5037
  719MOL0     H94863  -0.206   7.024   7.047  0.4288  1.2600 -1.1384
  719MOL0     H94864  -0.442   7.083   7.015 -0.4704 -0.1895  0.5196
  719MOL0     H94865  -0.433   7.060   6.842  0.0087  4.0207 -0.8156
  719MOL0     H94866  -0.277   7.248   7.034 -1.2683 -0.1796  0.6346
  719MOL0     H94867  -0.227   7.228   6.859 -1.7156  1.8690 -1.5143
  719MOL0     H94868  -0.344   7.428   6.920  1.6110 -0.2598 -0.9527
  719MOL0     H94869  -0.486   7.338   6.963  1.3845 -1.9257  1.9126
  719MOL0     H94870  -0.487   7.592   6.700  0.6336 -1.6912 -3.3579
  719MOL0     H94871  -0.714   7.669   6.678 -1.3354  0.2246  2.3611
  719MOL0     H94872  -1.168   7.552   6.835  1.1955 -2.4765  0.7421
  719MOL0     H94873  -1.427   7.611   6.821  0.6528  1.8171 -1.4745
  719MOL0     H94874  -1.710   7.416   6.701  0.7249 -0.1892 -0.3210
  719MOL0     H94875  -1.625   7.348   6.564  1.4229  0.8809  1.2707
  719MOL0     H94876  -1.738   7.486   6.402 -3.5099 -1.5087 -1.8248
  719MOL0     H94877  -1.824   7.579   6.524 -0.9258 -0.8269 -1.4705
  719MOL0     H94878  -1.941   7.361   6.575 -2.1035 -1.1949 -1.2420
  719MOL0     H94879  -1.868   7.295   6.417  0.3934  0.5165 -0.2442
  719MOL0     H94880  -2.026   7.553   6.440 -1.2186  0.3231  0.4213
  719MOL0     H94881  -1.999   7.456   6.294  2.5047 -1.9367 -0.0893
  719MOL0     H94882  -2.159   7.351   6.529  0.8778 -0.5240  0.2567
  719MOL0     H94883  -2.152   7.275   6.372 -4.7894  0.3320 -0.3309
  719MOL0     H94884  -2.261   7.503   6.277 -0.8435 -0.8790  0.2205
  719MOL0     H94885  -2.259   7.539   6.454  2.7029 -1.8977  1.2495
  719MOL0     H94886  -2.432   7.350   6.298 -0.6790  4.1857 -1.7618
  719MOL0     H94887  -2.409   7.322   6.478  1.4269 -0.4513 -0.6639
  719MOL0     H94888  -2.494   7.576   6.356 -1.0351  0.0561  0.2972
  719MOL0     H94889  -2.509   7.539   6.524 -0.1406  0.7863 -0.2424
  719MOL0     H94890  -1.441   7.418   6.439  0.2593  0.3727 -0.5370
  719MOL0     H94891  -1.192   7.379   6.452 -0.1041 -0.1425 -0.1421
  719MOL0     H94892  -0.866   7.270   6.736 -0.2441  1.3147 -0.2405
  719MOL0     H94893  -0.634   7.194   6.743  0.7921  0.4335  0.0721
  719MOL0     H94894   0.488   6.947   7.217  0.5516  0.7874  0.6240
  719MOL0     H94895   0.685   7.063   7.166 -2.3627 -0.6086  0.1766
  719MOL0     H94896   1.138   7.288   7.232 -0.4910  2.0186 -0.6257
  719MOL0     H94897   1.326   7.399   7.119 -2.5323 -1.6463  4.1356
  719MOL0     H94898   1.529   7.449   6.982  1.0058 -1.2978 -0.8192
  719MOL0     H94899   1.380   7.522   6.922 -0.0054  0.2979  0.7353
  719MOL0     H94900   1.581   7.435   6.736  1.1228  0.8106 -0.9390
  719MOL0     H94901   1.468   7.573   6.720  0.0267 -0.7930 -0.7661
  719MOL0     H94902   1.700   7.677   6.773  0.3715  3.4222  1.1522
  719MOL0     H94903   1.709   7.575   6.921 -2.1986 -3.4996 -0.6486
  719MOL0     H94904   1.541   7.676   7.038 -1.2559 -1.6367 -0.0737
  719MOL0     H94905   1.650   7.794   6.974 -0.4369  1.9694 -0.1871
  719MOL0     H94906   1.255   7.839   6.806  0.3085 -0.7876 -2.3513
  719MOL0     H94907   1.277   7.120   6.785  0.2203 -5.1778  3.0452
  719MOL0     H94908   1.085   7.014   6.907  1.1385 -0.1670 -0.1178
  720MOL0     O94909   5.526   3.398   5.687  0.3253  0.5800 -0.1627
  720MOL0     C94910   5.560   3.361   5.573 -0.1819 -0.9864  0.0173
  720MOL0     O94911   5.482   3.322   5.469  0.0219 -0.2589  0.3756
  720MOL0     C94912   5.346   3.331   5.496  0.0925  0.5650  0.2971
  720MOL0     C94913   5.266   3.433   5.445 -0.9551  0.0923 -0.1428
  720MOL0     C94914   5.122   3.426   5.453 -0.3209 -0.1321 -0.9176
  720MOL0     C94915   5.058   3.320   5.516  0.2146  1.1722  0.0779
  720MOL0     O94916   4.920   3.329   5.515 -0.1343  0.3291 -0.4906
  720MOL0     C94917   4.837   3.216   5.558  0.4513  0.0392 -0.4887
  720MOL0     C94918   4.806   3.121   5.441 -0.9945  0.6284  0.0306
  720MOL0     C94919   4.769   2.981   5.479  0.5494 -0.2621 -0.0891
  720MOL0     C94920   4.620   2.970   5.504 -0.4885  0.1453  0.6472
  720MOL0     C94921   4.572   2.821   5.503  0.1686  0.0871  0.6371
  720MOL0     C94922   4.430   2.814   5.563  0.2467 -0.9064  0.9030
  720MOL0     C94923   4.352   2.688   5.509 -1.0299  0.4810  0.2849
  720MOL0     C94924   4.226   2.676   5.593  0.0955  0.0369 -0.0010
  720MOL0     N94925   4.150   2.552   5.566  0.2923 -0.5972 -0.5561
  720MOL0     C94926   4.181   2.445   5.483  0.8214  1.2078 -0.3517
  720MOL0     C94927   4.076   2.359   5.486 -0.4003 -0.7926  0.4826
  720MOL0     C94928   4.050   2.234   5.411 -0.3120  0.0798  0.1838
  720MOL0     C94929   3.901   2.237   5.361 -0.6678  1.1212 -0.6065
  720MOL0     C94930   3.874   2.336   5.242  0.2404 -0.2243  0.2102
  720MOL0     C94931   3.738   2.311   5.184 -0.9490 -0.4821 -0.4652
  720MOL0     O94932   3.701   2.396   5.069 -0.4031  0.0770 -0.4388
  720MOL0     C94933   3.570   2.400   5.045  0.4683  0.4115 -0.0428
  720MOL0     C94934   3.532   2.508   4.975 -0.3386 -0.1795  0.4813
  720MOL0     C94935   3.398   2.515   4.918 -0.8642 -0.5485  0.1116
  720MOL0     C94936   3.308   2.417   4.960 -0.9943 -0.4686  0.3812
  720MOL0     C94937   3.164   2.447   4.931 -0.4877 -0.9159 -0.2532
  720MOL0     O94938   3.139   2.544   4.835  0.3251  0.3495  0.3526
  720MOL0     C94939   3.008   2.590   4.804  0.0694 -0.9263 -0.6851
  720MOL0     C94940   2.891   2.511   4.803  0.8697  0.2927  0.6726
  720MOL0     C94941   2.759   2.565   4.785 -0.2589 -0.1231  0.2117
  720MOL0     C94942   2.748   2.707   4.783  0.1788 -0.0388  0.5255
  720MOL0     O94943   2.620   2.754   4.775  0.5575  0.2530  0.8614
  720MOL0     C94944   2.599   2.890   4.751 -0.3563  0.1967 -0.1725
  720MOL0     C94945   2.449   2.918   4.750  0.0907  0.6089  0.7028
  720MOL0     C94946   2.385   2.897   4.880 -0.4309  0.1321 -0.2800
  720MOL0     C94947   2.232   2.907   4.891 -0.9121 -0.0985 -0.0575
  720MOL0     C94948   2.173   2.869   5.026 -0.1427  0.0889 -1.0740
  720MOL0     C94949   2.024   2.865   5.005  1.2013 -0.0720 -0.1499
  720MOL0     C94950   1.956   2.818   5.136  0.0856 -0.3027 -0.5700
  720MOL0     C94951   1.806   2.796   5.116 -0.4947 -0.1545  0.2800
  720MOL0    Cl94952   1.767   2.666   4.999 -0.3308 -0.2098  0.1308
  720MOL0     C94953   2.869   2.780   4.781 -0.2513 -1.1437 -0.7660
  720MOL0     C94954   2.997   2.722   4.795 -0.1638 -0.8567 -0.8357
  720MOL0     O94955   3.076   2.376   4.990  0.2715  0.5997  1.2289
  720MOL0     C94956   3.348   2.314   5.040  0.6477  0.5804  0.5137
  720MOL0     C94957   3.473   2.300   5.082 -0.5120 -0.0941  0.2249
  720MOL0     N94958   3.979   2.426   5.559  0.0358  1.1411  0.0645
  720MOL0     N94959   4.019   2.537   5.606  0.1784  0.1863 -0.2893
  720MOL0     C94960   5.139   3.217   5.566  0.2411 -0.7068  0.3948
  720MOL0     C94961   5.281   3.229   5.557  0.3068 -0.2476 -0.4296
  720MOL0     C94962   5.703   3.341   5.547 -0.2949 -0.8772  0.0484
  720MOL0     C94963   5.798   3.368   5.649 -0.4755 -0.6609 -0.9475
  720MOL0     C94964   5.931   3.323   5.650 -0.9150  0.1623 -1.1614
  720MOL0     C94965   5.972   3.248   5.538  0.6983  0.5428  0.0602
  720MOL0     O94966   6.099   3.209   5.531  0.4890  0.1340  0.0496
  720MOL0     C94967   6.191   3.299   5.460 -0.9049 -0.7926 -0.2411
  720MOL0     C94968   6.342   3.255   5.466  0.7849 -0.4160 -0.1403
  720MOL0     C94969   6.387   3.194   5.598  0.4719 -0.4595 -0.5361
  720MOL0     C94970   6.543   3.169   5.574 -0.1726 -0.3231 -0.1170
  720MOL0     C94971   6.601   3.122   5.689  0.3252  0.3283  0.7237
  720MOL0     C94972   6.621   3.065   5.790 -0.4431 -0.5438 -0.1897
  720MOL0     C94973   5.884   3.228   5.432 -0.5887  0.0520 -0.1602
  720MOL0     C94974   5.755   3.275   5.431  0.2687  1.0294 -0.3378
  720MOL0     H94975   5.304   3.520   5.392 -0.6026 -0.7204 -1.2456
  720MOL0     H94976   5.072   3.503   5.394 -1.2042  0.8709  1.0540
  720MOL0     H94977   4.741   3.252   5.596  0.9224  2.2863 -1.2649
  720MOL0     H94978   4.897   3.166   5.634 -0.4342  1.9190  1.5374
  720MOL0     H94979   4.902   3.112   5.387  0.3180  1.5772  2.0849
  720MOL0     H94980   4.735   3.172   5.374  1.6604  3.8114 -0.6668
  720MOL0     H94981   4.813   2.955   5.576 -1.5247  4.0499  2.2733
  720MOL0     H94982   4.797   2.915   5.396 -2.9001 -2.9993  0.6832
  720MOL0     H94983   4.605   3.022   5.599  1.2504  1.2994  0.3207
  720MOL0     H94984   4.542   3.015   5.442 -2.6741 -3.5302  0.4443
  720MOL0     H94985   4.634   2.757   5.566  1.6639  1.3452  0.5176
  720MOL0     H94986   4.576   2.778   5.403 -0.7403 -0.0164  0.6407
  720MOL0     H94987   4.393   2.900   5.508  2.2341  0.3194  1.3855
  720MOL0     H94988   4.435   2.827   5.672  1.1997  0.3562  0.7322
  720MOL0     H94989   4.334   2.691   5.401  0.3078 -3.9406 -0.2980
  720MOL0     H94990   4.407   2.594   5.525  2.0701  1.9804 -0.6961
  720MOL0     H94991   4.162   2.764   5.578  1.5687  1.1994  0.3101
  720MOL0     H94992   4.247   2.678   5.700  0.5919 -1.0313 -0.0615
  720MOL0     H94993   4.275   2.440   5.429  2.0852  1.3011  1.7304
  720MOL0     H94994   4.073   2.155   5.484  1.1901  2.6169  2.6642
  720MOL0     H94995   4.120   2.237   5.327 -0.5992  0.2898 -0.0509
  720MOL0     H94996   3.830   2.251   5.443  0.3817 -1.0635  0.7719
  720MOL0     H94997   3.884   2.140   5.313  1.5708 -0.0472  0.7766
  720MOL0     H94998   3.893   2.443   5.257 -0.0684  0.4078 -3.0939
  720MOL0     H94999   3.945   2.316   5.162 -0.9656  0.2289 -1.0182
  720MOL0     H95000   3.667   2.323   5.266 -0.5729 -0.6361 -0.1125
  720MOL0     H95001   3.730   2.208   5.148 -0.9908 -1.0221  1.0500
  720MOL0     H95002   3.600   2.587   4.943 -0.4180 -0.3752 -0.1970
  720MOL0     H95003   3.371   2.598   4.853 -1.9906 -0.3967  0.7481
  720MOL0     H95004   2.889   2.403   4.809 -2.2743  0.1736 -0.4780
  720MOL0     H95005   2.669   2.505   4.785 -0.5814  0.3041 -1.5459
  720MOL0     H95006   2.644   2.929   4.660 -0.6533  2.0071  0.4152
  720MOL0     H95007   2.640   2.951   4.833 -1.7655  1.0362 -0.0633
  720MOL0     H95008   2.405   2.859   4.668  1.7857  0.5729 -0.2166
  720MOL0     H95009   2.435   3.022   4.721  0.2097  1.2506  2.7746
  720MOL0     H95010   2.424   2.977   4.944  2.6093 -0.0037 -1.7938
  720MOL0     H95011   2.418   2.807   4.932  0.2601  0.7011  0.3066
  720MOL0     H95012   2.205   3.009   4.862  1.9121  1.4975  2.3359
  720MOL0     H95013   2.199   2.831   4.820  0.5685 -1.2454  0.4428
  720MOL0     H95014   2.223   2.923   5.107 -1.8336 -1.6928  1.2939
  720MOL0     H95015   2.211   2.770   5.053 -1.2938 -0.1914 -0.4175
  720MOL0     H95016   1.997   2.789   4.931  3.2776  0.1184 -1.1619
  720MOL0     H95017   1.990   2.964   4.974 -0.0423  0.6380  3.0576
  720MOL0     H95018   2.003   2.721   5.157  1.4943  0.3237 -0.7521
  720MOL0     H95019   1.983   2.890   5.214  0.6022 -2.6739  1.5619
  720MOL0     H95020   1.767   2.889   5.074 -0.4238 -0.1583  0.2050
  720MOL0     H95021   1.753   2.774   5.208 -0.8120 -0.0661  0.1183
  720MOL0     H95022   2.865   2.888   4.782  2.3189 -0.9782 -0.5576
  720MOL0     H95023   3.078   2.794   4.800  0.3130 -1.3055 -1.7400
  720MOL0     H95024   3.266   2.249   5.069  1.3886 -1.2988 -1.2939
  720MOL0     H95025   3.495   2.217   5.148 -3.1256 -0.7745  0.3304
  720MOL0     H95026   5.094   3.132   5.618  0.4960 -0.8168  0.4378
  720MOL0     H95027   5.340   3.154   5.608 -0.0723  1.1611  2.2728
  720MOL0     H95028   5.757   3.410   5.740  0.8418 -2.6883  0.6363
  720MOL0     H95029   6.006   3.341   5.727 -1.2403 -2.8005 -0.0182
  720MOL0     H95030   6.177   3.401   5.497  2.4337 -0.8996  1.7694
  720MOL0     H95031   6.178   3.301   5.351  0.0009 -2.3439 -0.4125
  720MOL0     H95032   6.353   3.188   5.381  0.2098  0.2144 -0.7263
  720MOL0     H95033   6.410   3.336   5.438 -1.0221  0.0789 -3.5865
  720MOL0     H95034   6.322   3.107   5.615  0.7460 -0.5440  0.0839
  720MOL0     H95035   6.388   3.266   5.680 -0.1561 -0.4145 -0.5612
  720MOL0     H95036   6.559   3.090   5.500  0.5604 -2.2410  1.9768
  720MOL0     H95037   6.597   3.260   5.546  2.3940 -0.3933  3.7904
  720MOL0     H95038   6.656   3.014   5.878  1.4291  0.7261 -0.1543
  720MOL0     H95039   5.931   3.169   5.354 -2.6105 -1.1998 -0.4749
  720MOL0     H95040   5.691   3.269   5.344 -0.6557  0.2797  0.3670
  721MOL0     O95041   7.284   2.846   9.073  0.4661 -0.2360  0.0728
  721MOL0     C95042   7.343   2.798   9.167  0.1386  0.0674 -0.4595
  721MOL0     O95043   7.300   2.763   9.292  0.5958 -0.6136  0.0377
  721MOL0     C95044   7.159   2.779   9.311 -0.7775  0.3987  0.7573
  721MOL0     C95045   7.117   2.886   9.383 -0.6018 -0.1599  0.1411
  721MOL0     C95046   6.980   2.889   9.423 -0.6856  0.0632  0.0208
  721MOL0     C95047   6.887   2.788   9.385 -0.7020  1.0375 -0.5884
  721MOL0     O95048   6.761   2.778   9.411  0.1272 -0.2246 -0.0136
  721MOL0     C95049   6.709   2.867   9.504 -0.0428  0.6005 -0.7078
  721MOL0     C95050   6.567   2.831   9.542 -0.7226 -0.2938 -0.5134
  721MOL0     C95051   6.455   2.868   9.453  0.0310 -0.0832  0.5716
  721MOL0     C95052   6.425   2.768   9.341 -0.5231 -0.1096  0.3891
  721MOL0     C95053   6.306   2.791   9.244  0.6739  0.4159 -0.1062
  721MOL0     C95054   6.289   2.671   9.161 -0.0364 -1.2170  1.0935
  721MOL0     C95055   6.170   2.696   9.067  0.1401  0.6549 -0.2708
  721MOL0     C95056   6.201   2.782   8.949 -0.3252  0.3942 -0.3040
  721MOL0     N95057   6.084   2.794   8.857  0.2748 -0.1833 -0.0727
  721MOL0     C95058   6.040   2.696   8.778  1.1614  0.0120  0.3404
  721MOL0     C95059   5.912   2.728   8.751 -0.8331  0.0094  0.3676
  721MOL0     C95060   5.826   2.631   8.681  0.5024 -0.1377  0.4260
  721MOL0     C95061   5.685   2.685   8.656 -0.5320  0.2851 -0.5840
  721MOL0     C95062   5.603   2.585   8.581  0.1263  0.1207  0.8844
  721MOL0     C95063   5.581   2.456   8.659  0.2227  0.1543  0.2702
  721MOL0     O95064   5.513   2.474   8.776  0.2081  0.2345 -0.4867
  721MOL0     C95065   5.589   2.497   8.897  0.6035 -0.4952 -0.0147
  721MOL0     C95066   5.714   2.447   8.934  0.0745 -0.1513  0.3086
  721MOL0     C95067   5.779   2.492   9.051 -0.1473 -0.7301 -1.2956
  721MOL0     C95068   5.721   2.585   9.141 -0.2583  0.0560  0.0287
  721MOL0     C95069   5.783   2.632   9.263  0.1485 -0.0926 -0.3391
  721MOL0     O95070   5.890   2.558   9.313  0.3249 -0.3912 -0.2687
  721MOL0     C95071   5.935   2.594   9.443  0.7461  0.6082  0.5049
  721MOL0     C95072   5.845   2.626   9.553  0.4807  0.4213  0.1321
  721MOL0     C95073   5.896   2.666   9.673  0.2150 -0.3440 -0.0907
  721MOL0     C95074   6.032   2.667   9.697 -0.2644 -0.0082  0.9993
  721MOL0     O95075   6.096   2.714   9.809 -0.2219  0.0804 -0.1134
  721MOL0     C95076   6.044   2.824   9.884 -0.7710 -1.3011  1.3065
  721MOL0     C95077   6.144   2.866   9.995 -0.6356 -1.1053  0.0522
  721MOL0     C95078   6.265   2.937   9.916 -0.5588 -0.1311  0.6568
  721MOL0     C95079   6.371   2.959  10.014  0.5324 -0.5132 -0.0768
  721MOL0     C95080   6.498   3.015   9.941 -0.2612  0.0273 -0.4037
  721MOL0     C95081   6.606   3.076  10.037  0.3708 -0.2353 -0.1495
  721MOL0     C95082   6.749   3.034   9.987  0.6332 -0.3053 -0.1468
  721MOL0     C95083   6.869   3.058  10.085 -0.7068  0.6095  0.2912
  721MOL0    Cl95084   6.813   3.020  10.253  0.3126  0.3549  0.1719
  721MOL0     C95085   6.116   2.627   9.595  0.1924  0.0643 -0.0723
  721MOL0     C95086   6.074   2.590   9.466 -0.0848 -0.1941 -0.4643
  721MOL0     O95087   5.735   2.735   9.316 -0.3498  0.2562  0.1161
  721MOL0     C95088   5.596   2.634   9.101  0.2144 -0.6602 -1.2554
  721MOL0     C95089   5.529   2.586   8.987  0.5314  0.4459 -0.8824
  721MOL0     N95090   5.881   2.849   8.808 -1.0106  0.3248  0.7735
  721MOL0     N95091   5.987   2.894   8.865  0.6681  0.3022 -0.5089
  721MOL0     C95092   6.938   2.694   9.292 -0.4943  0.7405 -0.3729
  721MOL0     C95093   7.076   2.679   9.260 -0.3757 -0.5207  0.3913
  721MOL0     C95094   7.486   2.749   9.149  0.7352 -0.1817 -0.0631
  721MOL0     C95095   7.558   2.781   9.037  0.5829 -0.3806  0.4091
  721MOL0     C95096   7.697   2.754   9.022  0.6516  0.0099  0.4612
  721MOL0     C95097   7.757   2.665   9.111 -1.5009  0.1828  0.0592
  721MOL0     O95098   7.891   2.635   9.091 -0.1465 -0.1333 -0.8448
  721MOL0     C95099   7.957   2.551   9.183  0.7379  0.9196 -0.3063
  721MOL0     C95100   7.973   2.614   9.318  0.2999  0.3998  0.1052
  721MOL0     C95101   8.031   2.523   9.430  0.5087 -0.8302 -0.1840
  721MOL0     C95102   8.145   2.432   9.390 -0.0362 -0.2419  0.7750
  721MOL0     C95103   8.094   2.302   9.332  0.1992 -0.8876 -0.7337
  721MOL0     C95104   8.084   2.186   9.295 -0.2015  0.2145  0.2165
  721MOL0     C95105   7.676   2.617   9.214  0.6511  0.7465 -0.6878
  721MOL0     C95106   7.548   2.660   9.241 -1.2915  0.8417  0.6249
  721MOL0     H95107   7.192   2.956   9.417 -0.6110 -1.4414  3.2213
  721MOL0     H95108   6.938   2.971   9.480 -0.4209  0.1438  0.0969
  721MOL0     H95109   6.698   2.968   9.463  2.8776  1.2474 -0.1176
  721MOL0     H95110   6.760   2.873   9.601 -1.7083  2.0014  0.1370
  721MOL0     H95111   6.548   2.865   9.645 -1.0823  0.5045 -0.8362
  721MOL0     H95112   6.550   2.723   9.544  1.1080 -0.6521  2.3173
  721MOL0     H95113   6.471   2.962   9.400 -3.8387  0.5048  0.1198
  721MOL0     H95114   6.369   2.875   9.520 -0.2428  0.0596  0.2108
  721MOL0     H95115   6.515   2.758   9.279 -0.7649  1.1025 -0.1908
  721MOL0     H95116   6.399   2.674   9.389  2.0742 -1.8126 -1.2495
  721MOL0     H95117   6.327   2.870   9.172 -0.1620  1.5155  0.8406
  721MOL0     H95118   6.214   2.810   9.299 -1.4317 -1.8764 -2.5421
  721MOL0     H95119   6.268   2.591   9.233  2.5158 -0.9647  2.2198
  721MOL0     H95120   6.384   2.650   9.109 -0.3111 -0.6642  0.3581
  721MOL0     H95121   6.140   2.599   9.026 -0.1641  0.0704  1.2657
  721MOL0     H95122   6.085   2.726   9.129  0.0809 -0.8603  0.4081
  721MOL0     H95123   6.287   2.731   8.903  0.2871  0.1150  1.1001
  721MOL0     H95124   6.221   2.886   8.974 -2.9864  1.6367 -2.7681
  721MOL0     H95125   6.095   2.606   8.750  0.8817 -0.2878  0.7368
  721MOL0     H95126   5.814   2.548   8.752  0.1813  0.9889  1.7349
  721MOL0     H95127   5.861   2.595   8.584 -0.2910  2.4347 -0.9027
  721MOL0     H95128   5.684   2.774   8.593 -1.4706 -0.5159 -1.7429
  721MOL0     H95129   5.633   2.710   8.749 -0.5847  0.9908 -0.8001
  721MOL0     H95130   5.503   2.619   8.550 -0.5690 -2.0221  0.6146
  721MOL0     H95131   5.652   2.560   8.486 -0.8328 -1.4378  0.7684
  721MOL0     H95132   5.676   2.407   8.680  1.1503  1.8716  0.2440
  721MOL0     H95133   5.530   2.385   8.594  0.4036  0.6173 -0.3837
  721MOL0     H95134   5.779   2.380   8.880  1.1884  1.3539 -0.3061
  721MOL0     H95135   5.882   2.459   9.060 -0.5239 -1.3466  1.9759
  721MOL0     H95136   5.737   2.620   9.545  0.4918 -0.9473  0.7075
  721MOL0     H95137   5.831   2.693   9.756  3.2588 -0.9928  2.7076
  721MOL0     H95138   5.945   2.801   9.924 -0.9319  0.3669  1.9559
  721MOL0     H95139   6.032   2.910   9.817 -1.0013 -3.4371 -1.5824
  721MOL0     H95140   6.162   2.776  10.054 -0.9096 -1.3445 -0.2243
  721MOL0     H95141   6.099   2.941  10.059 -1.9715  0.9577 -3.0437
  721MOL0     H95142   6.231   3.025   9.861  1.0424  0.9493  1.3339
  721MOL0     H95143   6.307   2.873   9.838 -0.8141 -0.7097  0.9897
  721MOL0     H95144   6.327   3.031  10.083  0.5061 -0.6984  0.1001
  721MOL0     H95145   6.398   2.866  10.064 -0.7609 -0.4035  0.8800
  721MOL0     H95146   6.466   3.096   9.875  1.7283  0.4883 -0.8527
  721MOL0     H95147   6.539   2.930   9.887  0.2019  1.5742 -2.6390
  721MOL0     H95148   6.590   3.033  10.136 -2.9286  2.2460  0.5680
  721MOL0     H95149   6.601   3.185  10.029  2.0068 -0.0678  0.7045
  721MOL0     H95150   6.741   2.928   9.960 -2.7761  0.5479 -3.3202
  721MOL0     H95151   6.777   3.092   9.899  3.0965  1.0774  1.4391
  721MOL0     H95152   6.886   3.166  10.079 -1.5334  0.7796  0.7286
  721MOL0     H95153   6.967   3.018  10.059 -0.6249  1.6259 -1.0580
  721MOL0     H95154   6.221   2.630   9.622 -0.2428 -2.1130  2.2474
  721MOL0     H95155   6.140   2.544   9.394 -0.7774 -0.3290 -1.0306
  721MOL0     H95156   5.554   2.717   9.157  0.8406 -1.2767  0.1947
  721MOL0     H95157   5.433   2.623   8.953  0.7473 -0.4462 -2.5386
  721MOL0     H95158   6.878   2.610   9.257 -0.7231  0.6323  0.2544
  721MOL0     H95159   7.113   2.603   9.193  1.2099 -0.6985  1.4181
  721MOL0     H95160   7.518   2.844   8.958  0.9025  1.7971  1.9047
  721MOL0     H95161   7.749   2.771   8.929  2.5251 -4.6472  0.4321
  721MOL0     H95162   8.051   2.521   9.136  0.2595 -1.8065  0.3218
  721MOL0     H95163   7.912   2.452   9.192  0.8752  1.0234  3.2172
  721MOL0     H95164   8.048   2.694   9.307  2.7959 -1.8946 -0.6210
  721MOL0     H95165   7.881   2.665   9.348 -0.1615 -0.7540  0.7042
  721MOL0     H95166   7.955   2.463   9.481 -3.8146  4.0784 -0.0553
  721MOL0     H95167   8.073   2.594   9.502 -1.6153  2.1684 -1.7271
  721MOL0     H95168   8.212   2.467   9.310  0.3802  0.0634  1.2524
  721MOL0     H95169   8.212   2.411   9.473  0.2457 -0.6061  0.4625
  721MOL0     H95170   8.079   2.085   9.261 -1.0922  0.9726 -2.0721
  721MOL0     H95171   7.714   2.541   9.283 -3.3499 -1.3284 -0.4988
  721MOL0     H95172   7.480   2.615   9.314 -3.1738 -1.1335 -2.1365
  722MOL0     O95173   0.999   9.318   8.890 -0.5059  0.0345  0.6508
  722MOL0     C95174   1.020   9.431   8.925 -0.4605  0.0436  0.7025
  722MOL0     O95175   0.930   9.527   8.941  0.7292  0.5356  0.3169
  722MOL0     C95176   0.797   9.507   8.905 -0.7222  1.3136  0.1906
  722MOL0     C95177   0.745   9.434   8.802 -0.2152  0.8985 -0.4265
  722MOL0     C95178   0.609   9.420   8.778  0.2051  0.6338  0.8810
  722MOL0     C95179   0.516   9.496   8.851  0.7143 -0.2103 -1.0690
  722MOL0     O95180   0.377   9.488   8.833 -0.1157  0.1343  0.1551
  722MOL0     C95181   0.323   9.421   8.719 -0.4246  0.4446 -0.4109
  722MOL0     C95182   0.341   9.506   8.592 -0.4680 -0.7615 -0.5510
  722MOL0     C95183   0.265   9.445   8.486 -0.4053 -0.1430  0.7905
  722MOL0     C95184   0.325   9.495   8.354 -0.5205  0.1866 -0.6126
  722MOL0     C95185   0.254   9.440   8.237  0.2372 -0.6793 -0.1420
  722MOL0     C95186   0.122   9.503   8.199  0.9194 -0.1565 -0.3565
  722MOL0     C95187   0.051   9.428   8.086  0.4783 -0.5548  0.6622
  722MOL0     C95188  -0.080   9.495   8.043  0.0717  0.4280  0.2494
  722MOL0     N95189  -0.049   9.634   8.011  0.6292 -0.6454  0.5548
  722MOL0     C95190  -0.001   9.684   7.892  0.8542  0.3665 -0.3143
  722MOL0     C95191   0.001   9.820   7.905 -0.9668 -1.0510  0.7157
  722MOL0     C95192   0.031   9.924   7.800  0.6807 -1.1328 -0.8428
  722MOL0     C95193  -0.095   9.983   7.734 -0.7434  0.6204  0.0748
  722MOL0     C95194  -0.176  10.072   7.819  0.9107 -0.1653  0.0758
  722MOL0     C95195  -0.291  10.132   7.744 -0.1147 -0.5678  0.4174
  722MOL0     O95196  -0.373  10.208   7.830  0.2341 -0.2458 -0.0512
  722MOL0     C95197  -0.512  10.221   7.810 -0.1332  0.5188  0.2773
  722MOL0     C95198  -0.593  10.276   7.910 -0.0903  0.8998 -0.0201
  722MOL0     C95199  -0.734  10.283   7.896  0.1398 -1.0064 -0.7059
  722MOL0     C95200  -0.795  10.246   7.775 -0.6690 -0.1953 -0.0122
  722MOL0     C95201  -0.936  10.256   7.747 -0.0507 -0.4207 -0.6225
  722MOL0     O95202  -1.020  10.304   7.841 -0.5834 -0.7160  0.1310
  722MOL0     C95203  -1.153  10.313   7.806 -0.1160 -0.5179 -0.1157
  722MOL0     C95204  -1.235  10.460   7.683  0.7873 -0.9259  0.2034
  722MOL0     C95205  -1.445  10.485   7.667  0.2174  0.1145 -0.7378
  722MOL0     C95206  -1.573  10.351   7.771  0.8256  0.1687 -0.1770
  722MOL0     O95207  -1.713  10.357   7.765  0.1981 -0.7915  0.2653
  722MOL0     C95208  -1.770  10.466   7.693 -0.2042  0.4580  0.3039
  722MOL0     C95209  -1.916  10.496   7.740 -0.2824  0.5184  0.8101
  722MOL0     C95210  -2.008  10.375   7.732  1.3089  0.2279  0.0601
  722MOL0     C95211  -2.143  10.403   7.802 -0.2262 -0.7521  0.0937
  722MOL0     C95212  -2.219  10.273   7.830 -0.0239  0.1781  0.0770
  722MOL0     C95213  -2.366  10.292   7.880 -1.5001 -0.0085 -0.6741
  722MOL0     C95214  -2.431  10.156   7.898  0.7398  1.1074 -0.3489
  722MOL0     C95215  -2.578  10.188   7.946 -0.0032  0.2003 -0.7728
  722MOL0    Cl95216  -2.671  10.030   7.929  0.0630  0.3279  0.4318
  722MOL0     C95217  -1.488  10.201   7.895  0.1503  0.6547 -0.1712
  722MOL0     C95218  -1.282  10.183   7.917 -0.0559 -0.3994 -0.0381
  722MOL0     O95219  -0.973  10.236   7.634 -0.2344  0.2129 -0.5373
  722MOL0     C95220  -0.705  10.190   7.680  0.2430 -0.6489  0.6005
  722MOL0     C95221  -0.569  10.184   7.697  1.0591  0.9071  0.7266
  722MOL0     N95222  -0.029   9.849   8.034 -0.0468 -0.6172  0.1880
  722MOL0     N95223  -0.064   9.741   8.099 -0.1195  0.2983  0.1860
  722MOL0     C95224   0.567   9.588   8.949  0.0948  0.5269 -0.2825
  722MOL0     C95225   0.709   9.587   8.979 -0.0832  1.0807 -0.3085
  722MOL0     C95226   1.153   9.463   8.964  0.1552 -0.1104 -0.4987
  722MOL0     C95227   1.175   9.559   9.066 -0.8649 -0.7573 -0.4691
  722MOL0     C95228   1.308   9.597   9.110  0.7291  0.4654 -0.7549
  722MOL0     C95229   1.420   9.540   9.053  0.2199 -0.6562 -0.5144
  722MOL0     O95230   1.546   9.583   9.078  0.5374  0.2070  0.4740
  722MOL0     C95231   1.567   9.673   9.186  0.0487  0.7100  0.0613
  722MOL0     C95232   1.719   9.695   9.189 -0.0887 -0.0811 -0.9144
  722MOL0     C95233   1.783   9.764   9.062  0.6125  0.0766 -0.3905
  722MOL0     C95234   1.921   9.823   9.079 -0.1243  0.7664 -0.8580
  722MOL0     C95235   2.026   9.720   9.102  0.7606 -0.2718 -0.6962
  722MOL0     C95236   2.113   9.641   9.119  1.1303  0.9176  0.1601
  722MOL0     C95237   1.404   9.441   8.955  0.0002  0.5184  0.1070
  722MOL0     C95238   1.275   9.406   8.910  0.0136 -0.4106  0.2056
  722MOL0     H95239   0.815   9.369   8.751  1.8392  2.2288  0.5748
  722MOL0     H95240   0.579   9.342   8.709 -0.3551  1.3297  0.3232
  722MOL0     H95241   0.214   9.417   8.734 -0.2915 -2.1026  0.3529
  722MOL0     H95242   0.371   9.323   8.721  0.7084  0.9706 -0.9913
  722MOL0     H95243   0.449   9.511   8.576 -0.4502 -0.4548 -0.3321
  722MOL0     H95244   0.306   9.607   8.612 -1.1024 -0.6743 -1.9633
  722MOL0     H95245   0.163   9.485   8.488 -1.0970 -1.4464  6.0610
  722MOL0     H95246   0.253   9.337   8.487 -2.5727 -0.0002 -1.2432
  722MOL0     H95247   0.311   9.603   8.341 -1.9096 -0.0062 -0.8787
  722MOL0     H95248   0.431   9.471   8.354  0.2144  3.0895  0.2772
  722MOL0     H95249   0.254   9.331   8.232  4.7763 -0.8023 -3.0643
  722MOL0     H95250   0.314   9.454   8.146 -1.8326 -0.5267 -1.5697
  722MOL0     H95251   0.149   9.604   8.166  0.2262  0.3343  0.5458
  722MOL0     H95252   0.053   9.525   8.281 -1.2213 -0.2810 -2.0468
  722MOL0     H95253   0.115   9.431   7.997  1.3781 -2.8317  1.1646
  722MOL0     H95254   0.027   9.326   8.117 -3.3430 -0.7109 -2.1156
  722MOL0     H95255  -0.150   9.498   8.127 -2.5034  0.5386 -1.7474
  722MOL0     H95256  -0.137   9.450   7.961 -1.4008  0.6670  1.1136
  722MOL0     H95257   0.020   9.638   7.796  0.6648  0.6112 -0.4706
  722MOL0     H95258   0.084   9.880   7.715  1.5291 -0.8676 -0.4686
  722MOL0     H95259   0.087  10.011   7.837 -1.0456 -0.7042  0.9591
  722MOL0     H95260  -0.162   9.899   7.712  0.3433  0.2401 -2.0629
  722MOL0     H95261  -0.064  10.029   7.640  1.2933  1.8408  1.2844
  722MOL0     H95262  -0.217  10.002   7.893  1.1039 -0.1789  0.1702
  722MOL0     H95263  -0.114  10.151   7.863  0.1311  0.0867  0.7544
  722MOL0     H95264  -0.340  10.050   7.691 -0.9839  0.4235 -0.3399
  722MOL0     H95265  -0.249  10.206   7.675 -1.4963  0.5761  0.7517
  722MOL0     H95266  -0.535  10.295   8.000  1.1754 -3.1832  0.2284
  722MOL0     H95267  -0.794  10.328   7.975  0.8355  3.1993 -2.3571
  722MOL0     H95268  -1.154  10.519   7.641  1.4816 -3.4623 -2.3686
  722MOL0     H95269  -1.482  10.567   7.606  1.1858  0.5262 -0.7812
  722MOL0     H95270  -1.764  10.443   7.586  0.5743 -3.0284  0.9518
  722MOL0     H95271  -1.711  10.557   7.703  0.3527  0.2614 -1.0310
  722MOL0     H95272  -1.972  10.566   7.676  0.8987 -0.0967 -0.9896
  722MOL0     H95273  -1.919  10.531   7.843 -1.5975 -0.1522  1.0294
  722MOL0     H95274  -1.964  10.287   7.781 -0.0550 -0.6296 -0.2038
  722MOL0     H95275  -2.036  10.361   7.627 -0.7843  1.4299  0.4186
  722MOL0     H95276  -2.124  10.451   7.898  1.8155 -2.4206  0.5987
  722MOL0     H95277  -2.209  10.467   7.742  0.7305 -0.3579 -0.5465
  722MOL0     H95278  -2.165  10.212   7.903  1.4927 -0.8420 -1.8295
  722MOL0     H95279  -2.221  10.223   7.733  0.3490  0.1719  0.0726
  722MOL0     H95280  -2.409  10.355   7.802 -2.6496  0.2418  0.1445
  722MOL0     H95281  -2.366  10.343   7.977 -0.4379  0.1839 -0.7573
  722MOL0     H95282  -2.437  10.093   7.809 -2.2475 -0.3611  0.7533
  722MOL0     H95283  -2.377  10.092   7.969 -2.8910 -0.6370  1.0848
  722MOL0     H95284  -2.629  10.265   7.887  1.2256  2.0900  0.5440
  722MOL0     H95285  -2.564  10.218   8.050  2.0726  2.2484 -1.5822
  722MOL0     H95286  -1.554  10.134   7.948  0.3655  0.1501 -0.5324
  722MOL0     H95287  -1.244  10.113   7.990 -0.3234 -1.6294 -1.0490
  722MOL0     H95288  -0.736  10.157   7.581 -2.2471  2.5619  0.1788
  722MOL0     H95289  -0.505  10.151   7.616 -1.2485  1.9935 -1.6772
  722MOL0     H95290   0.502   9.648   9.011 -1.2226  0.9183 -1.9759
  722MOL0     H95291   0.760   9.654   9.047  1.7636 -0.2635 -0.3037
  722MOL0     H95292   1.094   9.618   9.109 -1.1895  0.1316 -2.2163
  722MOL0     H95293   1.307   9.675   9.186 -2.1255  0.8688 -1.0693
  722MOL0     H95294   1.542   9.638   9.286 -2.4194  1.9764 -0.0330
  722MOL0     H95295   1.505   9.762   9.168 -2.8439 -1.4630 -1.6940
  722MOL0     H95296   1.754   9.758   9.271  1.3817  0.6780 -2.0590
  722MOL0     H95297   1.765   9.599   9.211  1.8797  0.4681 -2.3332
  722MOL0     H95298   1.715   9.847   9.042  2.1663  1.4724 -0.1736
  722MOL0     H95299   1.789   9.686   8.987  2.4726 -2.4474  2.1434
  722MOL0     H95300   1.949   9.878   8.989  1.1530  0.3192 -0.7461
  722MOL0     H95301   1.919   9.887   9.167 -1.2606 -1.4360  0.8394
  722MOL0     H95302   2.181   9.560   9.138 -2.1907 -2.0600  0.3844
  722MOL0     H95303   1.501   9.404   8.923  0.4621 -0.3444  2.3489
  722MOL0     H95304   1.271   9.323   8.841 -2.7366 -1.0441  0.9804
  723MOL0     O95305   9.157   8.013   9.326  0.2187  0.6775 -0.2312
  723MOL0     C95306   9.174   8.123   9.272 -1.0069  0.9954  0.2883
  723MOL0     O95307   9.074   8.204   9.240  0.4569 -0.6545 -0.4497
  723MOL0     C95308   8.936   8.178   9.239 -0.3317 -0.0578 -0.6967
  723MOL0     C95309   8.882   8.048   9.239  0.3394 -0.2920 -0.3188
  723MOL0     C95310   8.743   8.038   9.252 -0.0572  0.2980  0.6809
  723MOL0     C95311   8.667   8.147   9.284 -0.2165  0.4717  0.1747
  723MOL0     O95312   8.537   8.120   9.303  0.2503  0.2560 -0.6646
  723MOL0     C95313   8.471   8.182   9.416  0.3327  0.7229 -0.3403
  723MOL0     C95314   8.314   8.186   9.406  0.5650  0.2350 -0.1266
  723MOL0     C95315   8.261   8.311   9.322  0.0264 -0.5051 -0.2338
  723MOL0     C95316   8.105   8.336   9.338 -0.3119 -0.6791  0.5897
  723MOL0     C95317   8.016   8.255   9.244 -0.3546  0.1533  0.8903
  723MOL0     C95318   7.890   8.331   9.207  0.5349  0.1317  0.2866
  723MOL0     C95319   7.800   8.355   9.327 -0.0910  0.4796 -0.3899
  723MOL0     C95320   7.688   8.446   9.302 -0.1042  0.1606 -0.0772
  723MOL0     N95321   7.596   8.435   9.417  0.3365 -0.3468  0.5646
  723MOL0     C95322   7.489   8.349   9.436  0.5299 -0.2337 -0.7147
  723MOL0     C95323   7.434   8.393   9.553 -0.5471 -0.4455 -0.2354
  723MOL0     C95324   7.326   8.319   9.623  0.3452  0.0765  0.6077
  723MOL0     C95325   7.195   8.388   9.609  0.9613  0.2923 -0.0087
  723MOL0     C95326   7.154   8.487   9.716  0.1163  0.2791 -1.0067
  723MOL0     C95327   7.010   8.531   9.712  0.0078 -0.6752  0.7651
  723MOL0     O95328   6.920   8.415   9.724  0.3814  0.2323 -0.5667
  723MOL0     C95329   6.785   8.429   9.723 -0.2446 -0.3294  0.0214
  723MOL0     C95330   6.718   8.548   9.704 -0.7143 -0.5126  0.6977
  723MOL0     C95331   6.575   8.550   9.695  0.2060 -0.5069  0.3066
  723MOL0     C95332   6.504   8.430   9.702 -0.1257  0.8921  0.4371
  723MOL0     C95333   6.356   8.437   9.715  0.2113  0.8036 -0.2248
  723MOL0     O95334   6.290   8.317   9.709 -0.0661  0.3350 -0.1231
  723MOL0     C95335   6.153   8.329   9.704 -1.0247  0.9341 -0.0695
  723MOL0     C95336   6.083   8.347   9.823 -0.2818  0.5470 -0.4765
  723MOL0     C95337   5.943   8.345   9.827 -0.2368 -0.9008  0.9111
  723MOL0     C95338   5.866   8.357   9.708 -0.8281 -0.2955 -0.2077
  723MOL0     O95339   5.729   8.371   9.703  0.3268  0.3638  0.3565
  723MOL0     C95340   5.662   8.387   9.832 -0.4520 -1.0163  0.3857
  723MOL0     C95341   5.523   8.460   9.820  0.0688  0.4712 -0.1761
  723MOL0     C95342   5.436   8.391   9.711 -0.8156 -0.1458 -0.5776
  723MOL0     C95343   5.292   8.396   9.738  0.5826  0.7352  0.4448
  723MOL0     C95344   5.208   8.406   9.612 -0.4600  0.2809 -0.3890
  723MOL0     C95345   5.224   8.282   9.530  0.2022  0.1375 -0.3105
  723MOL0     C95346   5.107   8.272   9.428  0.0120 -1.1544  0.3717
  723MOL0     C95347   5.143   8.354   9.303  0.2093 -0.5908  0.8929
  723MOL0    Cl95348   5.035   8.307   9.164  0.0263 -0.4672  0.2209
  723MOL0     C95349   5.934   8.336   9.587  0.6574 -0.4072  0.4760
  723MOL0     C95350   6.074   8.324   9.582  0.1416 -0.1252  0.1302
  723MOL0     O95351   6.301   8.550   9.722  0.3800  0.8781 -1.0069
  723MOL0     C95352   6.581   8.307   9.731  0.8721 -0.0196 -0.1181
  723MOL0     C95353   6.714   8.315   9.753  0.5564  0.1439  0.6042
  723MOL0     N95354   7.500   8.511   9.594  0.7324 -0.5554  0.2296
  723MOL0     N95355   7.604   8.528   9.516  0.0734  0.0516  0.7764
  723MOL0     C95356   8.722   8.274   9.298  0.1486 -0.6817 -0.2713
  723MOL0     C95357   8.861   8.290   9.266  0.3009  0.0962  0.0422
  723MOL0     C95358   9.305   8.174   9.251  0.2658 -0.1305  0.4059
  723MOL0     C95359   9.321   8.310   9.215 -0.4334  0.6177  0.2849
  723MOL0     C95360   9.447   8.359   9.189 -0.4818  1.1063  0.0701
  723MOL0     C95361   9.559   8.279   9.204 -0.7107  0.3443  0.0438
  723MOL0     O95362   9.686   8.339   9.178  0.2367 -0.0783  0.6975
  723MOL0     C95363   9.799   8.264   9.145  1.1399 -0.2248  0.1583
  723MOL0     C95364   9.912   8.356   9.100 -0.0771 -0.0843  0.7157
  723MOL0     C95365   9.865   8.505   9.067  0.4610  0.2131  0.1446
  723MOL0     C95366   9.967   8.590   8.995  0.5518 -0.5857 -0.2081
  723MOL0     C95367   9.925   8.726   8.988 -0.0926  0.7049 -0.7707
  723MOL0     C95368   9.901   8.844   9.004 -0.4698  0.6632  0.3407
  723MOL0     C95369   9.548   8.144   9.251  0.2440  0.6953  0.6287
  723MOL0     C95370   9.424   8.089   9.269 -0.2093  0.4062 -0.1515
  723MOL0     H95371   8.943   7.960   9.222 -0.9191 -1.5667  1.3410
  723MOL0     H95372   8.694   7.944   9.229 -1.8452  1.4743 -0.5023
  723MOL0     H95373   8.508   8.284   9.424  3.3199 -0.2980  0.0382
  723MOL0     H95374   8.508   8.133   9.506 -1.8542 -4.1670 -1.7206
  723MOL0     H95375   8.283   8.191   9.511 -2.4685 -1.7139 -0.8138
  723MOL0     H95376   8.279   8.097   9.354  2.5604 -1.0923  0.6622
  723MOL0     H95377   8.279   8.283   9.218 -1.4090 -0.9399 -0.3858
  723MOL0     H95378   8.329   8.388   9.359 -0.3449 -0.4499  0.3452
  723MOL0     H95379   8.073   8.308   9.439  1.2380  0.6872  1.5131
  723MOL0     H95380   8.086   8.443   9.329 -1.3154 -0.7156  1.9311
  723MOL0     H95381   7.993   8.155   9.281 -2.6200 -0.0909 -0.9388
  723MOL0     H95382   8.060   8.239   9.145 -2.3623 -3.9804  0.4435
  723MOL0     H95383   7.834   8.265   9.139  0.1656  0.3972  0.3307
  723MOL0     H95384   7.916   8.425   9.159  2.7123 -0.6112 -0.0975
  723MOL0     H95385   7.763   8.258   9.362  0.3983  0.9653  1.6064
  723MOL0     H95386   7.863   8.397   9.406  1.8247  0.3660 -1.7688
  723MOL0     H95387   7.636   8.420   9.209  0.4876  1.2688 -0.7526
  723MOL0     H95388   7.725   8.549   9.291  2.4306 -0.8152 -1.6635
  723MOL0     H95389   7.464   8.261   9.377  2.5274 -0.5733 -1.1317
  723MOL0     H95390   7.341   8.314   9.731 -1.5526 -1.9268  0.8371
  723MOL0     H95391   7.328   8.217   9.584 -0.5667  0.2299  0.1174
  723MOL0     H95392   7.125   8.305   9.599 -1.3616  2.3012 -1.9409
  723MOL0     H95393   7.185   8.443   9.514 -0.9456  1.8937  1.0418
  723MOL0     H95394   7.161   8.422   9.804  1.1135 -1.0317 -2.0024
  723MOL0     H95395   7.239   8.557   9.715 -0.0239  0.7317  2.8781
  723MOL0     H95396   6.991   8.583   9.617  1.1767 -2.4370 -0.4868
  723MOL0     H95397   7.000   8.596   9.799  0.6461 -2.2833  2.0795
  723MOL0     H95398   6.766   8.645   9.708  1.9667 -1.7544  0.5538
  723MOL0     H95399   6.522   8.644   9.681 -1.4339 -1.5293 -0.5933
  723MOL0     H95400   6.139   8.355   9.916 -0.2078  0.1866 -0.4911
  723MOL0     H95401   5.890   8.348   9.922 -2.3097 -1.9276 -0.1168
  723MOL0     H95402   5.710   8.448   9.909 -1.8851 -2.4205  2.5083
  723MOL0     H95403   5.652   8.286   9.872 -1.4285 -0.4738  1.5874
  723MOL0     H95404   5.551   8.560   9.786  1.1819 -0.4630 -2.2634
  723MOL0     H95405   5.465   8.468   9.912  0.5676  0.6993  0.1219
  723MOL0     H95406   5.483   8.292   9.698  0.9320  0.5838 -0.1112
  723MOL0     H95407   5.460   8.441   9.617 -1.1961 -0.0231 -0.6105
  723MOL0     H95408   5.271   8.308   9.799  1.8497  0.4751  0.5435
  723MOL0     H95409   5.273   8.488   9.796 -1.7818  1.3819 -1.2058
  723MOL0     H95410   5.244   8.493   9.556  2.3202 -0.9557 -0.6832
  723MOL0     H95411   5.102   8.417   9.637 -0.0870 -0.9497  2.0236
  723MOL0     H95412   5.223   8.188   9.586  2.4005 -0.1644 -0.6744
  723MOL0     H95413   5.328   8.284   9.494  0.9554  0.6259  1.7407
  723MOL0     H95414   5.111   8.166   9.402  0.8989 -2.1110  3.8168
  723MOL0     H95415   5.011   8.297   9.473 -0.1589 -2.3436  0.7163
  723MOL0     H95416   5.249   8.335   9.281  0.7966  1.1181  2.0256
  723MOL0     H95417   5.131   8.460   9.327 -2.2286 -1.1808  2.6075
  723MOL0     H95418   5.898   8.340   9.485  2.5314 -0.5545 -0.2243
  723MOL0     H95419   6.125   8.298   9.491  2.0593 -1.7222  1.5834
  723MOL0     H95420   6.529   8.215   9.755 -0.5647  0.1215 -2.3759
  723MOL0     H95421   6.757   8.220   9.782 -2.3946 -1.2357  0.8209
  723MOL0     H95422   8.662   8.361   9.323  0.3494 -1.3298  2.8715
  723MOL0     H95423   8.909   8.383   9.295 -0.9867  0.1337  2.1982
  723MOL0     H95424   9.236   8.377   9.201  0.2527  1.4284 -0.0513
  723MOL0     H95425   9.463   8.461   9.155 -0.7015  0.9775 -0.4293
  723MOL0     H95426   9.773   8.198   9.062 -1.4324 -0.3948  1.0091
  723MOL0     H95427   9.830   8.200   9.229 -3.3892 -3.3248 -0.2082
  723MOL0     H95428   9.989   8.372   9.176 -0.1533  3.9590  0.1675
  723MOL0     H95429   9.956   8.310   9.011 -1.5153 -0.3196  0.0848
  723MOL0     H95430   9.838   8.542   9.166 -1.9076  0.4788 -0.5298
  723MOL0     H95431   9.774   8.512   9.006  1.0840 -0.0231 -0.8340
  723MOL0     H95432  10.059   8.577   9.052 -1.0242 -1.1675  2.3953
  723MOL0     H95433   9.960   8.559   8.890 -1.6442  0.8078 -0.5347
  723MOL0     H95434   9.869   8.944   9.027  0.2937  1.0050 -0.0331
  723MOL0     H95435   9.639   8.092   9.281  0.5161 -1.9612 -3.8893
  723MOL0     H95436   9.407   7.984   9.290 -1.3095  0.5871 -0.0878
  724MOL0     O95437   6.184  11.214   3.641  1.4451  0.7445  0.0515
  724MOL0     C95438   6.188  11.334   3.629  0.0356  0.3834  0.5106
  724MOL0     O95439   6.108  11.415   3.691 -0.9727  0.0468 -0.3539
  724MOL0     C95440   5.995  11.380   3.752  0.1401 -0.0821  0.0727
  724MOL0     C95441   5.932  11.250   3.770 -0.6685 -0.0046  0.9027
  724MOL0     C95442   5.809  11.244   3.846 -0.3216 -0.1760 -0.2001
  724MOL0     C95443   5.758  11.364   3.910 -0.6565  0.4751 -0.0274
  724MOL0     O95444   5.643  11.368   3.986 -0.1659 -0.0268  0.1342
  724MOL0     C95445   5.545  11.270   3.953 -0.5980 -0.3893  0.6871
  724MOL0     C95446   5.473  11.288   3.818  0.0501 -0.4598 -0.1481
  724MOL0     C95447   5.331  11.231   3.809 -0.0238 -0.6503 -0.8089
  724MOL0     C95448   5.288  11.207   3.662 -0.5874  0.7368 -0.5868
  724MOL0     C95449   5.135  11.221   3.651  0.0759  0.6451  0.2888
  724MOL0     C95450   5.059  11.091   3.691  0.5122 -0.0932  0.0969
  724MOL0     C95451   5.083  10.972   3.600 -0.5362 -0.2050 -0.3188
  724MOL0     C95452   4.967  10.861   3.620  0.6829 -0.2200 -0.2735
  724MOL0     N95453   4.836  10.886   3.549 -0.6907 -0.1674 -1.1484
  724MOL0     C95454   4.808  10.902   3.414  0.7688  0.9473 -0.6598
  724MOL0     C95455   4.674  10.877   3.414  0.2262  0.0066  0.1897
  724MOL0     C95456   4.587  10.859   3.291 -0.1880  0.9000 -0.5096
  724MOL0     C95457   4.470  10.965   3.298  0.0176 -0.3036  0.4105
  724MOL0     C95458   4.369  10.969   3.190 -0.1715  0.2968  0.4314
  724MOL0     C95459   4.246  11.063   3.198 -0.1818  1.4028 -0.1535
  724MOL0     O95460   4.188  11.075   3.063 -0.6035 -0.7595 -0.6878
  724MOL0     C95461   4.055  11.082   3.068  0.4832 -0.3613  0.1497
  724MOL0     C95462   3.991  11.147   3.176  0.3515 -0.1569  0.0912
  724MOL0     C95463   3.852  11.160   3.174  0.1844 -0.7988 -0.6520
  724MOL0     C95464   3.779  11.122   3.057 -0.2113  0.5557 -0.3097
  724MOL0     C95465   3.636  11.155   3.041  0.3698 -0.3893 -0.4376
  724MOL0     O95466   3.580  11.136   2.921 -0.0650 -0.8563  0.2862
  724MOL0     C95467   3.445  11.103   2.911 -0.1204 -0.1856  0.3236
  724MOL0     C95468   3.370  11.039   3.005 -0.0847  0.2193 -0.0865
  724MOL0     C95469   3.235  11.002   2.985  0.5494 -0.3568 -1.3028
  724MOL0     C95470   3.180  11.028   2.856  0.4153  1.4980 -0.2546
  724MOL0     O95471   3.051  10.998   2.822 -0.7710 -0.0875  0.6066
  724MOL0     C95472   2.943  10.995   2.909  0.1205  0.1096 -0.5981
  724MOL0     C95473   2.934  11.116   2.998  0.0168  0.2810 -0.0264
  724MOL0     C95474   2.781  11.126   3.059  0.3014  0.1313 -0.2020
  724MOL0     C95475   2.782  11.222   3.177 -0.6450 -0.7331 -0.4061
  724MOL0     C95476   2.644  11.267   3.201  0.4096  1.1428  0.3746
  724MOL0     C95477   2.638  11.390   3.299 -0.0704 -0.1032  0.3736
  724MOL0     C95478   2.710  11.373   3.429 -1.0985  0.0597 -0.3567
  724MOL0     C95479   2.712  11.488   3.528 -0.1481 -1.2252 -0.5894
  724MOL0    Cl95480   2.791  11.441   3.682  0.4252  0.6202  0.6638
  724MOL0     C95481   3.252  11.095   2.761  0.1769 -0.4437 -1.1204
  724MOL0     C95482   3.387  11.135   2.790 -0.5585  0.8246  0.6107
  724MOL0     O95483   3.574  11.212   3.135 -0.2868  0.1889 -0.0808
  724MOL0     C95484   3.844  11.051   2.958 -0.6199 -0.8652 -0.5183
  724MOL0     C95485   3.982  11.034   2.957 -0.6926 -0.5804 -0.1108
  724MOL0     N95486   4.633  10.870   3.547  0.2080 -0.2348  0.2057
  724MOL0     N95487   4.731  10.871   3.627  0.5649 -0.0272  0.9615
  724MOL0     C95488   5.838  11.483   3.910  0.4446  0.5982  0.8653
  724MOL0     C95489   5.950  11.495   3.824  1.0333 -0.5132  0.5293
  724MOL0     C95490   6.308  11.395   3.563  0.7606  0.8010 -0.4131
  724MOL0     C95491   6.361  11.332   3.448  0.5132 -0.5875 -0.0558
  724MOL0     C95492   6.458  11.390   3.371 -0.6993 -0.7003 -0.8001
  724MOL0     C95493   6.501  11.527   3.396  0.3356  1.1325 -0.6034
  724MOL0     O95494   6.582  11.600   3.311 -0.1369  0.4323 -0.1011
  724MOL0     C95495   6.669  11.535   3.214 -0.1796  0.0563  0.3806
  724MOL0     C95496   6.774  11.433   3.261 -0.3237 -0.2083 -0.3830
  724MOL0     C95497   6.892  11.500   3.328 -0.6207 -0.6427 -0.2575
  724MOL0     C95498   6.857  11.566   3.465  0.4072  0.7708 -0.4563
  724MOL0     C95499   6.979  11.604   3.536 -1.2763 -0.0203  0.1530
  724MOL0     C95500   7.081  11.630   3.602 -0.3602  0.1668 -0.6155
  724MOL0     C95501   6.442  11.593   3.502 -0.4752  0.0785 -1.2537
  724MOL0     C95502   6.340  11.534   3.587  0.9951  0.3264  0.5456
  724MOL0     H95503   5.959  11.167   3.706  0.6484  3.3966 -3.5143
  724MOL0     H95504   5.759  11.151   3.869  0.5435 -0.8977 -1.1392
  724MOL0     H95505   5.465  11.284   4.027  1.2166  2.1336  2.3465
  724MOL0     H95506   5.589  11.170   3.962  1.5353  0.3385 -0.9911
  724MOL0     H95507   5.538  11.248   3.739  0.6949  2.0596 -0.9879
  724MOL0     H95508   5.462  11.395   3.797  2.0633 -0.0560  0.6620
  724MOL0     H95509   5.259  11.300   3.853  1.9105  0.1958  1.2166
  724MOL0     H95510   5.311  11.141   3.868 -0.4378  0.9171  1.5720
  724MOL0     H95511   5.327  11.285   3.595 -0.5418  2.4307  1.3207
  724MOL0     H95512   5.331  11.110   3.634 -1.5907  0.0503  0.2204
  724MOL0     H95513   5.114  11.237   3.545 -0.1268  0.4511  0.2980
  724MOL0     H95514   5.100  11.307   3.708 -2.3971 -0.3005  0.3262
  724MOL0     H95515   4.954  11.118   3.679  0.2232 -2.0475 -2.8967
  724MOL0     H95516   5.073  11.070   3.797 -1.0479 -2.9816 -0.1845
  724MOL0     H95517   5.092  10.996   3.494  0.9953  3.6907  0.4956
  724MOL0     H95518   5.176  10.925   3.632  1.4058  2.1861 -2.0448
  724MOL0     H95519   4.946  10.835   3.724  4.7619 -1.2818  0.4807
  724MOL0     H95520   5.009  10.770   3.577  1.6662  0.3392 -0.5310
  724MOL0     H95521   4.868  10.912   3.324 -1.0612 -1.9145 -2.3841
  724MOL0     H95522   4.562  10.754   3.276  0.1647  0.4761  1.5065
  724MOL0     H95523   4.652  10.882   3.206  3.4355  3.1107  2.5313
  724MOL0     H95524   4.504  11.068   3.312 -0.8374 -0.1113  1.1757
  724MOL0     H95525   4.417  10.928   3.386 -2.5809 -1.9253 -1.6946
  724MOL0     H95526   4.428  11.011   3.107  0.6471 -1.8871 -0.1480
  724MOL0     H95527   4.323  10.877   3.154 -3.0277  1.6109  0.4531
  724MOL0     H95528   4.262  11.165   3.233 -3.4847  2.6314 -1.7760
  724MOL0     H95529   4.179  11.016   3.271  0.1556 -0.7403 -1.1360
  724MOL0     H95530   4.040  11.196   3.260  1.4125  3.7843 -2.5508
  724MOL0     H95531   3.804  11.209   3.259  4.2397  1.2694  0.7285
  724MOL0     H95532   3.399  11.030   3.109 -3.2544  2.2241  1.1391
  724MOL0     H95533   3.172  10.967   3.065 -1.2298  0.8829 -2.1101
  724MOL0     H95534   2.944  10.900   2.963  2.2606 -0.2276 -1.1321
  724MOL0     H95535   2.854  11.003   2.845  0.5108  0.9027 -1.0559
  724MOL0     H95536   2.970  11.206   2.949 -1.0061  0.6499 -0.1251
  724MOL0     H95537   3.006  11.104   3.080 -0.4658 -1.5738  0.1833
  724MOL0     H95538   2.741  11.031   3.093  1.6357 -0.9800 -1.5975
  724MOL0     H95539   2.714  11.167   2.983  0.5014  2.0526  0.5907
  724MOL0     H95540   2.813  11.175   3.271  1.6219  1.0499 -0.1990
  724MOL0     H95541   2.844  11.310   3.158  0.7570 -1.9880 -1.8793
  724MOL0     H95542   2.591  11.184   3.249 -1.0236  0.4281 -2.2520
  724MOL0     H95543   2.583  11.280   3.111 -0.6583 -3.4077  0.1701
  724MOL0     H95544   2.532  11.396   3.328 -0.2165 -1.1053  0.0710
  724MOL0     H95545   2.674  11.483   3.255  2.7814 -0.3141  1.9970
  724MOL0     H95546   2.675  11.280   3.475 -0.3930  0.1954  0.4863
  724MOL0     H95547   2.813  11.350   3.402 -0.9005  0.3265  0.1623
  724MOL0     H95548   2.612  11.528   3.547  0.4553 -0.4495  1.1496
  724MOL0     H95549   2.774  11.572   3.497  3.2903 -2.9516  0.9864
  724MOL0     H95550   3.210  11.116   2.663  4.2711 -0.7570 -3.1511
  724MOL0     H95551   3.432  11.204   2.719 -1.0576  1.7080  1.1375
  724MOL0     H95552   3.799  10.994   2.877 -2.7989 -0.5356  0.3688
  724MOL0     H95553   4.034  10.982   2.877 -0.9177 -1.3169  0.2092
  724MOL0     H95554   5.806  11.564   3.975 -1.1762  0.3446  0.4351
  724MOL0     H95555   6.004  11.589   3.829  1.3603 -0.7402  1.7616
  724MOL0     H95556   6.321  11.238   3.413  0.1041 -0.5141  0.2074
  724MOL0     H95557   6.500  11.340   3.284  1.6186 -1.5955  0.7292
  724MOL0     H95558   6.708  11.605   3.139 -1.7435 -1.6116 -2.1457
  724MOL0     H95559   6.604  11.470   3.154  2.0389 -1.2490 -0.7405
  724MOL0     H95560   6.731  11.364   3.334 -2.0791 -2.5094 -3.4072
  724MOL0     H95561   6.809  11.367   3.181 -0.1299 -0.9243  0.2836
  724MOL0     H95562   6.929  11.580   3.263  1.5164  0.1077  1.7133
  724MOL0     H95563   6.968  11.422   3.340  1.0505  0.7969 -0.9966
  724MOL0     H95564   6.784  11.646   3.452 -0.1783 -0.1661 -4.4575
  724MOL0     H95565   6.805  11.488   3.520 -0.9989  0.7318 -1.7779
  724MOL0     H95566   7.163  11.660   3.664  0.1786  0.0617 -1.2574
  724MOL0     H95567   6.470  11.696   3.520 -0.3446  0.0310 -1.1845
  724MOL0     H95568   6.297  11.580   3.675  1.8159 -0.5235  1.4129
  725MOL0     O95569   9.238  10.568   6.143 -0.4933  0.0738  0.1470
  725MOL0     C95570   9.311  10.545   6.233 -0.6526  0.0024 -1.1840
  725MOL0     O95571   9.283  10.438   6.317 -1.1696  0.1610 -0.1943
  725MOL0     C95572   9.151  10.390   6.325  0.8335  1.1906 -0.4592
  725MOL0     C95573   9.040  10.472   6.367 -0.2248  0.1305  0.8447
  725MOL0     C95574   8.911  10.428   6.378  0.5477  0.2669 -0.0228
  725MOL0     C95575   8.883  10.287   6.385  0.1284 -0.7978 -0.0335
  725MOL0     O95576   8.752  10.261   6.398  0.3883  0.2522  0.3218
  725MOL0     C95577   8.698  10.152   6.321  0.2552 -0.0853  0.4183
  725MOL0     C95578   8.638  10.049   6.408  0.1434  0.2726  0.4764
  725MOL0     C95579   8.535  10.108   6.511  0.5569  0.6996  0.1423
  725MOL0     C95580   8.436   9.999   6.545 -0.6354  0.9821 -0.0605
  725MOL0     C95581   8.328  10.042   6.645 -0.4863 -0.1638 -0.0566
  725MOL0     C95582   8.382   9.997   6.782 -0.0259  0.7051 -0.0436
  725MOL0     C95583   8.309  10.068   6.890  0.9798  0.8070  0.1189
  725MOL0     C95584   8.396  10.060   7.020  0.5535  0.0584 -0.4102
  725MOL0     N95585   8.343  10.136   7.133 -0.6867  0.2593 -0.9652
  725MOL0     C95586   8.232  10.113   7.199  0.2457 -0.5907 -1.0294
  725MOL0     C95587   8.222  10.215   7.286  0.5300 -0.1063  0.2684
  725MOL0     C95588   8.093  10.234   7.362  0.1621 -0.0206  0.4104
  725MOL0     C95589   7.967  10.262   7.257  0.2884  0.3814  0.0198
  725MOL0     C95590   7.856  10.159   7.270 -1.4925  0.4063 -0.0779
  725MOL0     C95591   7.720  10.223   7.240 -0.5564  0.2194  0.4515
  725MOL0     O95592   7.698  10.325   7.329 -0.4177  0.1148  0.5124
  725MOL0     C95593   7.585  10.324   7.395 -0.1332  0.8948  0.5966
  725MOL0     C95594   7.458  10.311   7.336  0.0272 -0.4240 -0.4867
  725MOL0     C95595   7.343  10.314   7.416 -0.7398 -0.1091 -0.0693
  725MOL0     C95596   7.350  10.314   7.550 -0.0816 -0.9003 -0.5718
  725MOL0     C95597   7.231  10.280   7.633 -0.8646  0.5125  0.8245
  725MOL0     O95598   7.109  10.309   7.577  0.1354  0.2861 -0.1758
  725MOL0     C95599   6.996  10.295   7.651 -0.8055  1.2640 -1.2588
  725MOL0     C95600   6.920  10.183   7.619 -0.2783  0.2835 -0.6752
  725MOL0     C95601   6.802  10.156   7.693  0.5664 -0.2195 -0.9123
  725MOL0     C95602   6.763  10.246   7.798  0.1781  0.4057  0.6929
  725MOL0     O95603   6.656  10.203   7.882 -0.8929 -0.2872 -1.0792
  725MOL0     C95604   6.616  10.281   7.993  0.2282  0.3725  0.4824
  725MOL0     C95605   6.498  10.215   8.061  0.3201  0.7053 -0.3834
  725MOL0     C95606   6.463  10.307   8.175  0.8967 -0.3194 -0.0422
  725MOL0     C95607   6.334  10.246   8.242 -0.0753 -1.0986 -0.1234
  725MOL0     C95608   6.290  10.346   8.355  0.2173  0.1462  0.4723
  725MOL0     C95609   6.209  10.467   8.295 -1.0660  0.2609  0.8414
  725MOL0     C95610   6.151  10.559   8.399  0.5011  0.2185  0.1273
  725MOL0     C95611   6.063  10.667   8.331 -0.7194 -0.7028  0.0850
  725MOL0    Cl95612   5.907  10.585   8.294  0.2373 -0.1100  0.5766
  725MOL0     C95613   6.851  10.352   7.829  0.4298  0.4357 -0.1599
  725MOL0     C95614   6.963  10.376   7.755 -1.4475  1.7408  0.9181
  725MOL0     O95615   7.250  10.228   7.746  0.1441 -0.9254 -0.3265
  725MOL0     C95616   7.474  10.329   7.619 -0.6965 -0.2792  0.1183
  725MOL0     C95617   7.592  10.347   7.535 -0.2558  0.0981 -0.0976
  725MOL0     N95618   8.325  10.306   7.271  0.2049 -0.4411  0.6229
  725MOL0     N95619   8.396  10.258   7.171 -0.2854  0.0307 -0.2667
  725MOL0     C95620   8.990  10.198   6.355  0.0910 -0.7845 -1.1350
  725MOL0     C95621   9.126  10.251   6.331  0.1324  0.1229  0.7984
  725MOL0     C95622   9.449  10.599   6.227 -0.2448 -0.8666 -0.5723
  725MOL0     C95623   9.549  10.554   6.322  0.4379 -0.1895 -0.2457
  725MOL0     C95624   9.679  10.594   6.312  0.2994 -0.0465  0.5472
  725MOL0     C95625   9.711  10.694   6.220  0.1265  0.0165  0.4954
  725MOL0     O95626   9.836  10.745   6.212  0.3199  0.1711  0.1153
  725MOL0     C95627   9.915  10.765   6.328  0.4278  0.0493 -0.1294
  725MOL0     C95628   9.965  10.910   6.310  0.2926  1.0487 -0.2895
  725MOL0     C95629  10.050  10.948   6.436 -0.0129  1.5566  0.9272
  725MOL0     C95630  10.187  10.885   6.423 -0.5183  0.2405  0.6486
  725MOL0     C95631  10.279  10.978   6.347 -0.3781 -0.1430 -0.2200
  725MOL0     C95632  10.356  11.057   6.296 -0.2079 -0.3559  0.1184
  725MOL0     C95633   9.618  10.743   6.128 -0.9629  0.0183  0.0627
  725MOL0     C95634   9.492  10.696   6.131 -0.6109 -0.3926 -0.1532
  725MOL0     H95635   9.048  10.579   6.351 -2.5725  0.2507  0.1515
  725MOL0     H95636   8.836  10.504   6.397  2.0115  1.5135  0.9998
  725MOL0     H95637   8.756  10.107   6.240 -0.2601 -0.9936  0.5452
  725MOL0     H95638   8.614  10.197   6.268  1.3312  1.2732 -0.1928
  725MOL0     H95639   8.719   9.999   6.463  2.7763  2.2445 -1.3900
  725MOL0     H95640   8.592   9.980   6.337  6.0878 -2.9244 -0.9993
  725MOL0     H95641   8.482  10.194   6.468 -2.1115 -0.2237  1.4082
  725MOL0     H95642   8.589  10.146   6.598  1.4779 -0.9363  0.3321
  725MOL0     H95643   8.392   9.953   6.456  1.9911 -0.7492 -0.5789
  725MOL0     H95644   8.489   9.912   6.585 -0.3887 -0.8361 -3.8495
  725MOL0     H95645   8.237   9.985   6.628 -0.9035  0.8097 -1.2489
  725MOL0     H95646   8.302  10.148   6.635  3.3746  0.9275 -0.4572
  725MOL0     H95647   8.489  10.021   6.775 -0.5478  2.8188 -3.4855
  725MOL0     H95648   8.371   9.890   6.803  0.1583  0.7906  0.4985
  725MOL0     H95649   8.286  10.171   6.860 -1.3150  0.1214 -0.6937
  725MOL0     H95650   8.210  10.026   6.907  0.6307  0.4874 -2.2877
  725MOL0     H95651   8.493  10.105   6.996  1.0368 -0.8472 -0.2020
  725MOL0     H95652   8.414   9.957   7.053 -0.6460  0.5982  2.2166
  725MOL0     H95653   8.155  10.040   7.175  2.0245 -2.1871 -2.1530
  725MOL0     H95654   8.096  10.319   7.430 -0.4495 -0.5492  1.1111
  725MOL0     H95655   8.085  10.142   7.420  0.3204  0.5485  1.3428
  725MOL0     H95656   7.997  10.237   7.155 -0.1389  0.1240 -0.0425
  725MOL0     H95657   7.929  10.364   7.263 -2.5989 -0.5772 -0.4268
  725MOL0     H95658   7.865  10.081   7.194  1.5026 -0.5034  1.0992
  725MOL0     H95659   7.860  10.112   7.369 -0.6111  0.0421 -0.2870
  725MOL0     H95660   7.647  10.142   7.246  0.8006 -0.9435  2.7043
  725MOL0     H95661   7.724  10.270   7.141 -1.8830  1.4828  0.9766
  725MOL0     H95662   7.450  10.301   7.228  0.6758  2.3163 -0.8532
  725MOL0     H95663   7.249  10.292   7.367  1.1878 -2.0527 -3.2494
  725MOL0     H95664   6.949  10.118   7.537 -0.0717  0.1250 -0.4800
  725MOL0     H95665   6.739  10.071   7.670  0.1062  0.4945 -2.4631
  725MOL0     H95666   6.579  10.380   7.963 -1.7202 -0.1159  1.0893
  725MOL0     H95667   6.699  10.290   8.063 -1.1278 -0.4218  2.2985
  725MOL0     H95668   6.519  10.112   8.089  1.7291  0.0586 -3.3822
  725MOL0     H95669   6.417  10.215   7.988  2.2820 -1.2028 -2.7302
  725MOL0     H95670   6.449  10.409   8.138  0.0121 -0.2770  0.3787
  725MOL0     H95671   6.538  10.304   8.255  2.1810 -2.2815 -1.2646
  725MOL0     H95672   6.252  10.219   8.174 -0.3955  1.5594 -0.9219
  725MOL0     H95673   6.369  10.152   8.283  1.1518 -2.4676 -3.8648
  725MOL0     H95674   6.377  10.387   8.409 -0.1302  2.6721 -0.7701
  725MOL0     H95675   6.231  10.289   8.428 -0.5193 -4.6289 -3.3614
  725MOL0     H95676   6.136  10.425   8.225 -0.1353  0.4015 -0.2418
  725MOL0     H95677   6.284  10.515   8.232 -0.7718 -0.4191  0.6553
  725MOL0     H95678   6.099  10.507   8.480  2.3278  1.0662  1.9378
  725MOL0     H95679   6.232  10.603   8.459 -1.1816  2.6339  0.7999
  725MOL0     H95680   6.109  10.711   8.242  1.6656 -1.0139  1.0954
  725MOL0     H95681   6.049  10.749   8.402 -2.2171  1.8123 -2.9049
  725MOL0     H95682   6.816  10.425   7.900 -1.6689  1.2461 -1.8991
  725MOL0     H95683   7.029  10.460   7.772 -0.6791  0.9973  1.6139
  725MOL0     H95684   7.475  10.332   7.727 -1.3418  0.4609  0.1064
  725MOL0     H95685   7.692  10.367   7.571 -1.0150  1.6078  1.3019
  725MOL0     H95686   8.984  10.089   6.361 -0.0862 -0.7193  2.6615
  725MOL0     H95687   9.216  10.194   6.310  0.4420  0.9440 -0.1694
  725MOL0     H95688   9.541  10.473   6.394 -1.7975  1.1898  1.1654
  725MOL0     H95689   9.757  10.558   6.380 -0.1653 -0.0769  1.0684
  725MOL0     H95690   9.995  10.691   6.338  0.3728 -0.4574 -2.6242
  725MOL0     H95691   9.857  10.763   6.420 -0.3380  2.3216 -0.5031
  725MOL0     H95692  10.017  10.927   6.216  0.9679 -1.0952 -0.3610
  725MOL0     H95693   9.874  10.971   6.311  0.5563  1.4790 -1.4364
  725MOL0     H95694  10.009  10.903   6.527 -0.1002 -0.2863  0.0296
  725MOL0     H95695  10.068  11.055   6.451  1.0853  1.4196  0.7062
  725MOL0     H95696  10.222  10.874   6.527  3.1425 -2.7560 -0.6542
  725MOL0     H95697  10.193  10.783   6.384 -1.4756 -0.0873  1.3460
  725MOL0     H95698  10.422  11.135   6.264  1.7784 -1.2967  1.7236
  725MOL0     H95699   9.656  10.814   6.055  1.8557 -3.2658 -1.9467
  725MOL0     H95700   9.422  10.735   6.058 -1.5368  1.2954  1.5314
  726MOL0     O95701  11.318   7.137   9.335 -0.6766 -0.1145 -0.7698
  726MOL0     C95702  11.280   7.055   9.413  0.0552  0.2459  0.6413
  726MOL0     O95703  11.145   7.015   9.429  0.6242 -0.2742  0.1393
  726MOL0     C95704  11.039   7.063   9.360 -0.0654 -0.6448  0.3506
  726MOL0     C95705  11.026   7.201   9.325 -0.5191  0.5063 -0.8360
  726MOL0     C95706  10.902   7.241   9.270 -0.3497  0.2470 -0.1964
  726MOL0     C95707  10.806   7.148   9.233 -0.6292  0.2582 -0.6595
  726MOL0     O95708  10.688   7.193   9.185  0.7324 -0.3366 -1.2290
  726MOL0     C95709  10.573   7.120   9.204 -0.2518 -0.5982  0.6244
  726MOL0     C95710  10.450   7.218   9.206 -0.7761  0.2456 -0.0426
  726MOL0     C95711  10.319   7.138   9.205 -0.5548  0.6357  0.8909
  726MOL0     C95712  10.199   7.224   9.192  0.9731  0.2377 -0.9713
  726MOL0     C95713  10.202   7.317   9.070  0.2850  0.1040  0.2547
  726MOL0     C95714  10.069   7.386   9.062  0.2328 -0.4904 -0.4468
  726MOL0     C95715  10.072   7.505   8.963 -0.7392 -0.0019  0.1987
  726MOL0     C95716  10.039   7.467   8.818 -0.2354  0.7447 -0.3893
  726MOL0     N95717   9.902   7.429   8.807 -0.1874 -0.1183  0.2715
  726MOL0     C95718   9.793   7.505   8.865 -0.0976  0.0878  1.2348
  726MOL0     C95719   9.675   7.439   8.838 -0.0567 -0.6668  0.2188
  726MOL0     C95720   9.542   7.489   8.880  0.4018  0.1792  0.1962
  726MOL0     C95721   9.425   7.394   8.854  0.4080  1.0466 -0.7107
  726MOL0     C95722   9.280   7.467   8.854  0.0438 -0.6351  0.2107
  726MOL0     C95723   9.174   7.364   8.818  0.4286  0.4377  0.2061
  726MOL0     O95724   9.110   7.318   8.935  0.2364  0.1458  0.5601
  726MOL0     C95725   8.986   7.253   8.946 -0.0109  0.5103 -0.4065
  726MOL0     C95726   8.918   7.244   9.067 -0.2704  0.4345  0.2204
  726MOL0     C95727   8.795   7.161   9.077 -0.4910 -0.4717  0.2162
  726MOL0     C95728   8.743   7.096   8.960 -0.4968 -0.1693  0.4436
  726MOL0     C95729   8.613   7.020   8.962 -1.4117  0.2037  0.7201
  726MOL0     O95730   8.544   7.025   9.078 -0.8510  0.5913 -0.7010
  726MOL0     C95731   8.417   6.979   9.089  0.0024  0.7489  0.4357
  726MOL0     C95732   8.308   7.065   9.131  0.1675  0.3093  0.3483
  726MOL0     C95733   8.172   7.029   9.140 -0.3629 -0.5890 -0.8453
  726MOL0     C95734   8.143   6.904   9.112 -0.3387 -0.5409 -0.2559
  726MOL0     O95735   8.011   6.872   9.129 -0.2426  0.3129 -0.9484
  726MOL0     C95736   7.965   6.738   9.090 -0.0684  0.2100 -0.5570
  726MOL0     C95737   7.803   6.755   9.098  0.2458  0.0163  0.1761
  726MOL0     C95738   7.730   6.628   9.069 -0.2694  0.8433 -0.2391
  726MOL0     C95739   7.581   6.642   9.082  0.5674 -1.2716 -0.0489
  726MOL0     C95740   7.521   6.502   9.043  0.5030  0.1817  0.1420
  726MOL0     C95741   7.370   6.501   9.047 -0.1901  0.5601  0.1341
  726MOL0     C95742   7.298   6.376   9.084  0.1113 -0.2976 -0.5772
  726MOL0     C95743   7.145   6.384   9.067  0.2408 -0.6240  0.4226
  726MOL0    Cl95744   7.057   6.244   9.127  0.3284 -0.0619 -0.1447
  726MOL0     C95745   8.246   6.810   9.074 -0.5529  0.3269  0.5787
  726MOL0     C95746   8.384   6.844   9.054 -0.1785 -1.0567  0.1582
  726MOL0     O95747   8.571   6.960   8.857 -0.4756 -0.0767 -0.7173
  726MOL0     C95748   8.820   7.109   8.842 -0.1329 -0.5853  0.5398
  726MOL0     C95749   8.937   7.191   8.833 -0.0572  0.3197  0.3825
  726MOL0     N95750   9.713   7.321   8.777 -0.6230 -0.0282  0.0069
  726MOL0     N95751   9.846   7.315   8.759 -0.2916 -1.1900 -0.1646
  726MOL0     C95752  10.827   7.006   9.265  0.5406  0.0140  0.8359
  726MOL0     C95753  10.939   6.970   9.326 -0.2841 -0.8451 -0.3163
  726MOL0     C95754  11.373   6.976   9.493  0.4954  0.2339 -0.5257
  726MOL0     C95755  11.514   6.990   9.472 -0.4550  0.2494  0.0215
  726MOL0     C95756  11.613   6.933   9.559 -0.6027  0.1578  0.2176
  726MOL0     C95757  11.567   6.857   9.670 -0.4768  0.3120  0.8414
  726MOL0     O95758  11.654   6.791   9.757 -0.2527  0.0543  0.5490
  726MOL0     C95759  11.611   6.669   9.821  0.6334 -0.5072  0.0819
  726MOL0     C95760  11.731   6.594   9.867  0.4278 -0.2781 -0.2021
  726MOL0     C95761  11.808   6.534   9.757  0.1081 -0.3432 -0.1041
  726MOL0     C95762  11.725   6.415   9.709  0.3975  0.6541 -0.1536
  726MOL0     C95763  11.789   6.369   9.587 -0.0349 -0.1923  0.7928
  726MOL0     C95764  11.845   6.340   9.484 -0.0709  1.2780 -0.4836
  726MOL0     C95765  11.431   6.858   9.691  0.4191 -0.0290  0.1807
  726MOL0     C95766  11.327   6.917   9.611 -0.4249  0.2113 -0.5044
  726MOL0     H95767  11.107   7.269   9.350 -0.0123 -0.6406  0.7917
  726MOL0     H95768  10.875   7.346   9.258 -0.1018  0.3722  0.3024
  726MOL0     H95769  10.566   7.051   9.290 -1.9868  1.1884  2.0162
  726MOL0     H95770  10.564   7.055   9.117  1.9797 -2.3201  1.5861
  726MOL0     H95771  10.460   7.282   9.118 -1.4384  0.4505  0.0237
  726MOL0     H95772  10.457   7.281   9.296 -0.7360  0.8048 -0.4326
  726MOL0     H95773  10.315   7.081   9.299 -1.7256 -1.4927 -0.3794
  726MOL0     H95774  10.314   7.062   9.126 -0.8976 -1.3848  2.7471
  726MOL0     H95775  10.119   7.151   9.179 -0.5003  1.4159  0.8863
  726MOL0     H95776  10.199   7.281   9.286  4.3191 -1.0117 -0.0538
  726MOL0     H95777  10.221   7.260   8.978 -0.9879 -1.5398  0.9622
  726MOL0     H95778  10.279   7.393   9.083  1.4518 -0.9562 -0.2514
  726MOL0     H95779  10.046   7.431   9.159  1.7732  0.9221 -0.6926
  726MOL0     H95780   9.990   7.316   9.032  1.1606 -0.7278 -2.5447
  726MOL0     H95781   9.996   7.580   8.988 -0.4515  1.5599 -3.0367
  726MOL0     H95782  10.173   7.548   8.969 -0.5189 -0.5397  0.4049
  726MOL0     H95783  10.103   7.382   8.792  0.0445  0.7072  0.3984
  726MOL0     H95784  10.064   7.553   8.755  2.8312 -0.3436 -0.8713
  726MOL0     H95785   9.800   7.605   8.905  2.0314  0.4806  0.0439
  726MOL0     H95786   9.516   7.582   8.828  2.2483  0.8348  0.4004
  726MOL0     H95787   9.548   7.505   8.988 -1.7085 -0.3824  0.4455
  726MOL0     H95788   9.434   7.322   8.936  3.3314  2.1500  0.0739
  726MOL0     H95789   9.438   7.343   8.758 -4.6636 -0.3750 -0.9411
  726MOL0     H95790   9.267   7.497   8.958  0.5010  0.4398 -0.0304
  726MOL0     H95791   9.280   7.554   8.787  0.0615 -1.3671 -0.7555
  726MOL0     H95792   9.229   7.283   8.768 -1.1052  1.4937 -3.5430
  726MOL0     H95793   9.103   7.408   8.748  1.7391  4.7103  1.2869
  726MOL0     H95794   8.960   7.295   9.153  1.1395  0.8303 -0.6740
  726MOL0     H95795   8.750   7.157   9.175  0.9998  3.7146  1.2704
  726MOL0     H95796   8.337   7.159   9.176 -2.4620  1.9775 -1.2013
  726MOL0     H95797   8.109   7.104   9.187  0.5490  0.5481 -1.3883
  726MOL0     H95798   8.003   6.655   9.150  1.4888  0.1247 -1.6052
  726MOL0     H95799   7.994   6.722   8.985 -0.0459  1.3000 -0.7214
  726MOL0     H95800   7.763   6.836   9.038 -0.3839  0.8991  1.7244
  726MOL0     H95801   7.775   6.791   9.198 -4.3274  0.1936 -0.9548
  726MOL0     H95802   7.767   6.554   9.140 -1.0896  1.3457  0.7299
  726MOL0     H95803   7.741   6.603   8.963 -1.7088 -1.3594  0.0705
  726MOL0     H95804   7.536   6.664   9.179 -1.3395  2.4492 -1.6129
  726MOL0     H95805   7.539   6.721   9.019  1.2760 -0.8501  0.0016
  726MOL0     H95806   7.554   6.426   9.114 -1.9840 -0.0489  1.1569
  726MOL0     H95807   7.557   6.477   8.943  0.7790 -0.1841  0.3322
  726MOL0     H95808   7.330   6.530   8.949 -0.5052  2.9327  0.8840
  726MOL0     H95809   7.333   6.577   9.116  2.8822  1.2671  1.1467
  726MOL0     H95810   7.326   6.297   9.015 -1.2559 -2.4170  1.1520
  726MOL0     H95811   7.331   6.351   9.186  5.6974 -2.5161 -2.5454
  726MOL0     H95812   7.121   6.403   8.962  0.7077 -0.9984  0.2450
  726MOL0     H95813   7.096   6.466   9.121  1.6149  0.0447  0.6783
  726MOL0     H95814   8.218   6.710   9.043  4.6725 -1.0709 -0.5555
  726MOL0     H95815   8.462   6.779   9.014 -0.1546  1.0323 -3.6212
  726MOL0     H95816   8.789   7.061   8.750 -1.8908  0.1580  0.6848
  726MOL0     H95817   8.976   7.213   8.734 -0.8852  2.2573  0.4514
  726MOL0     H95818  10.761   6.929   9.226  0.0857  2.3957 -3.7486
  726MOL0     H95819  10.975   6.870   9.347  3.7351  0.3102 -0.8602
  726MOL0     H95820  11.532   7.047   9.381  2.5703 -0.8191 -0.1492
  726MOL0     H95821  11.718   6.931   9.532 -1.0592 -0.4856 -1.6649
  726MOL0     H95822  11.548   6.606   9.758  1.4487 -2.0731  0.7716
  726MOL0     H95823  11.552   6.696   9.909 -0.5284  1.2210 -1.1510
  726MOL0     H95824  11.797   6.664   9.919 -1.1391  1.0790  0.0291
  726MOL0     H95825  11.721   6.508   9.935  4.2808 -1.0774 -0.4126
  726MOL0     H95826  11.906   6.505   9.796  0.0804 -1.1533 -0.6179
  726MOL0     H95827  11.828   6.608   9.679 -1.5428 -1.3643 -1.5696
  726MOL0     H95828  11.743   6.337   9.784  3.9653  1.1189 -0.3740
  726MOL0     H95829  11.624   6.430   9.671  0.9830  0.7188 -1.7244
  726MOL0     H95830  11.889   6.315   9.389 -1.3329 -0.7855 -0.5866
  726MOL0     H95831  11.396   6.806   9.779  3.0917  1.8907  2.5398
  726MOL0     H95832  11.222   6.907   9.637 -0.6742  1.2001 -1.0752
  727MOL0     O95833   9.416   5.361  10.757 -0.0363  0.0660  1.0633
  727MOL0     C95834   9.441   5.344  10.877 -0.0044 -0.4364 -0.4270
  727MOL0     O95835   9.394   5.414  10.984 -0.1146 -0.3540 -0.6874
  727MOL0     C95836   9.294   5.517  10.980 -0.3028 -0.5916 -0.8225
  727MOL0     C95837   9.192   5.540  10.881 -0.4093 -0.1356  0.1469
  727MOL0     C95838   9.084   5.626  10.914  0.2625  0.3697  0.6198
  727MOL0     C95839   9.072   5.696  11.035  0.1571  0.1011 -0.7122
  727MOL0     O95840   8.977   5.787  11.066 -0.0292  0.1282 -1.2357
  727MOL0     C95841   8.848   5.785  11.003 -0.7886  0.4169  0.5553
  727MOL0     C95842   8.761   5.888  11.079 -0.0488  0.8347  0.2613
  727MOL0     C95843   8.615   5.893  11.022  0.8827 -0.8240 -0.0620
  727MOL0     C95844   8.538   6.003  11.099  0.1007  0.7208  1.3163
  727MOL0     C95845   8.398   6.015  11.043  0.2691  0.3670  0.2053
  727MOL0     C95846   8.306   5.892  11.059 -0.1031  0.1769 -0.8252
  727MOL0     C95847   8.160   5.946  11.084  0.1618  0.0809  0.9078
  727MOL0     C95848   8.126   5.977  11.225 -0.2628  0.5060 -0.4211
  727MOL0     N95849   8.123   5.864  11.319  0.2731 -0.0378 -0.2890
  727MOL0     C95850   8.013   5.785  11.321 -0.0216  0.6013  0.2317
  727MOL0     C95851   8.047   5.682  11.396 -0.3193 -0.0376 -0.8268
  727MOL0     C95852   7.960   5.560  11.437 -0.5691 -0.5833 -0.1398
  727MOL0     C95853   7.862   5.509  11.324 -0.4227  0.4164 -0.7370
  727MOL0     C95854   7.760   5.405  11.385  0.1338 -1.0231  0.7304
  727MOL0     C95855   7.652   5.343  11.283 -0.5087  0.4653 -0.5957
  727MOL0     O95856   7.563   5.264  11.366  0.4154  0.3274 -0.4525
  727MOL0     C95857   7.466   5.204  11.298  0.1777 -0.1683  0.0965
  727MOL0     C95858   7.390   5.117  11.377 -0.0696 -0.3269 -0.2676
  727MOL0     C95859   7.285   5.054  11.325  0.2446 -0.6999  0.4620
  727MOL0     C95860   7.254   5.058  11.188 -0.2439 -0.0973 -0.7319
  727MOL0     C95861   7.142   4.981  11.138 -0.5442 -0.2111 -0.2781
  727MOL0     O95862   7.066   4.912  11.233  0.6109 -0.0568  0.2937
  727MOL0     C95863   6.959   4.832  11.191 -0.3892 -0.0161  0.0203
  727MOL0     C95864   6.831   4.850  11.245  0.2712  0.0598  0.0122
  727MOL0     C95865   6.727   4.755  11.231 -0.0967 -0.3259  0.7750
  727MOL0     C95866   6.761   4.649  11.150  0.2457 -0.2197 -0.6449
  727MOL0     O95867   6.668   4.551  11.125 -0.2014 -0.2666  0.4365
  727MOL0     C95868   6.698   4.425  11.056  1.3365 -0.4957 -0.0234
  727MOL0     C95869   6.574   4.339  11.093  0.7732 -0.4667  0.3623
  727MOL0     C95870   6.592   4.199  11.046  0.4666  0.0307  0.2540
  727MOL0     C95871   6.458   4.122  11.058 -0.4006  0.8421 -0.2506
  727MOL0     C95872   6.456   3.981  11.004 -1.1956 -0.1120 -0.0123
  727MOL0     C95873   6.589   3.903  11.011 -0.1394  0.7407 -0.9311
  727MOL0     C95874   6.575   3.772  10.945  0.6554 -1.1840  0.2011
  727MOL0     C95875   6.699   3.690  10.966  0.7441 -0.6328  0.5205
  727MOL0    Cl95876   6.786   3.724  10.819 -0.1679  0.3150  0.1909
  727MOL0     C95877   6.889   4.632  11.093  0.1698  0.2230 -0.1697
  727MOL0     C95878   6.993   4.725  11.119 -0.7059  0.3904  0.0047
  727MOL0     O95879   7.114   4.992  11.014  0.2242  0.8259  0.1968
  727MOL0     C95880   7.347   5.131  11.105  0.2824 -0.1460  0.4517
  727MOL0     C95881   7.437   5.210  11.158 -0.8359  0.2536 -0.6405
  727MOL0     N95882   8.178   5.700  11.442  0.3736  0.1420  0.8847
  727MOL0     N95883   8.218   5.814  11.402 -0.4323 -0.4451  0.6576
  727MOL0     C95884   9.176   5.674  11.125 -0.4004 -0.3476  0.1048
  727MOL0     C95885   9.287   5.595  11.101 -0.3864 -0.1441  0.0225
  727MOL0     C95886   9.539   5.245  10.903  0.8759  0.3930 -0.5270
  727MOL0     C95887   9.609   5.192  10.792 -0.6189 -0.2587 -0.1268
  727MOL0     C95888   9.715   5.107  10.809 -0.1034 -0.1444 -0.2557
  727MOL0     C95889   9.747   5.061  10.935 -1.1109  0.1268 -0.6024
  727MOL0     O95890   9.854   4.986  10.977  0.0460 -0.0583  0.4001
  727MOL0     C95891   9.915   4.899  10.880  0.5548  0.4919  0.2797
  727MOL0     C95892  10.016   4.813  10.945  0.2637 -0.3879 -0.0303
  727MOL0     C95893  10.145   4.887  10.994  0.0706 -0.2645 -0.0510
  727MOL0     C95894  10.217   4.805  11.100 -0.7813  0.6785 -0.1851
  727MOL0     C95895  10.294   4.695  11.037 -0.4197 -0.2609  0.0148
  727MOL0     C95896  10.359   4.614  10.975 -0.0733  0.2412  0.2781
  727MOL0     C95897   9.674   5.113  11.044 -0.0420 -0.8716 -0.1694
  727MOL0     C95898   9.571   5.201  11.031 -0.4596 -0.1282  0.1014
  727MOL0     H95899   9.176   5.474  10.797 -3.1100 -0.7144  1.0148
  727MOL0     H95900   9.014   5.640  10.832  1.5716  0.4103 -0.5334
  727MOL0     H95901   8.810   5.685  11.024  3.7372 -1.2617  1.8724
  727MOL0     H95902   8.862   5.807  10.897  0.7254 -2.3333  0.0893
  727MOL0     H95903   8.804   5.989  11.088 -0.3179  0.9008  0.8759
  727MOL0     H95904   8.770   5.848  11.181 -1.1794 -1.8896 -0.6237
  727MOL0     H95905   8.560   5.799  11.029 -2.7889  1.2017  0.6459
  727MOL0     H95906   8.615   5.929  10.919  2.4956 -1.5413 -0.3518
  727MOL0     H95907   8.537   5.978  11.205  1.0884 -1.8133  0.7952
  727MOL0     H95908   8.596   6.096  11.094 -1.7948  1.8935 -0.5938
  727MOL0     H95909   8.407   6.053  10.941 -1.6884  1.2622  0.3297
  727MOL0     H95910   8.359   6.096  11.105  0.3238 -0.3227  1.1638
  727MOL0     H95911   8.334   5.822  11.138 -3.7759 -0.1741  0.3540
  727MOL0     H95912   8.300   5.833  10.968 -0.0738 -0.5058 -0.3864
  727MOL0     H95913   8.138   6.032  11.020  2.7732 -0.1459 -0.4387
  727MOL0     H95914   8.092   5.863  11.064  3.8823 -3.3269  1.0410
  727MOL0     H95915   8.030   6.030  11.222 -0.8809 -0.5850 -2.4875
  727MOL0     H95916   8.204   6.043  11.265  1.2600 -1.0056 -0.7898
  727MOL0     H95917   7.927   5.806  11.258  1.2109  0.0680 -1.7319
  727MOL0     H95918   7.898   5.600  11.518  0.6567  1.0326  0.0422
  727MOL0     H95919   8.029   5.482  11.468 -0.3960 -0.3859 -0.0238
  727MOL0     H95920   7.930   5.466  11.249 -1.2531  1.4936 -2.1659
  727MOL0     H95921   7.807   5.595  11.285 -2.9077 -1.7893 -2.4179
  727MOL0     H95922   7.814   5.315  11.418 -1.3976 -1.5970  1.7693
  727MOL0     H95923   7.705   5.455  11.466 -0.8949 -1.7098  0.4728
  727MOL0     H95924   7.700   5.289  11.202 -0.9131 -1.2087  0.2321
  727MOL0     H95925   7.602   5.427  11.235  0.8771  0.7524 -1.5899
  727MOL0     H95926   7.418   5.107  11.481  3.2775 -0.2794 -1.0669
  727MOL0     H95927   7.226   4.992  11.392  4.2246 -1.1018  4.0286
  727MOL0     H95928   6.820   4.940  11.304 -1.4692 -0.1681  0.0864
  727MOL0     H95929   6.632   4.783  11.276 -0.6639 -1.4887  0.3305
  727MOL0     H95930   6.790   4.377  11.092  1.9044  0.6028  0.0275
  727MOL0     H95931   6.697   4.443  10.948  0.0268  0.4664  0.1280
  727MOL0     H95932   6.484   4.378  11.044 -0.9210 -2.2469  1.8931
  727MOL0     H95933   6.548   4.342  11.199 -1.8653  0.9101 -0.2293
  727MOL0     H95934   6.672   4.159  11.109  0.6693  2.1151  1.3724
  727MOL0     H95935   6.618   4.192  10.939 -0.5191  4.4781 -0.4773
  727MOL0     H95936   6.431   4.114  11.164  0.4130 -0.2877 -0.1021
  727MOL0     H95937   6.377   4.178  11.011 -2.2948 -1.2248  0.3444
  727MOL0     H95938   6.429   3.992  10.899 -0.2064  0.8616 -0.1733
  727MOL0     H95939   6.379   3.923  11.055  0.8074 -0.0585  3.3688
  727MOL0     H95940   6.609   3.884  11.117  0.4313  0.5474 -1.0687
  727MOL0     H95941   6.671   3.960  10.967  1.7070  0.0812  1.4643
  727MOL0     H95942   6.491   3.713  10.981 -0.5549 -0.3115 -1.1153
  727MOL0     H95943   6.561   3.787  10.838  1.5811 -3.8542 -0.3800
  727MOL0     H95944   6.679   3.583  10.972 -2.3933 -0.0724  1.7502
  727MOL0     H95945   6.766   3.711  11.050  1.7151  0.7252 -0.5473
  727MOL0     H95946   6.932   4.544  11.045 -0.9039 -0.1214 -0.5227
  727MOL0     H95947   7.092   4.706  11.081 -1.0682 -0.2615 -0.6278
  727MOL0     H95948   7.317   5.160  11.005  0.2712  1.4584  0.9031
  727MOL0     H95949   7.477   5.291  11.098  2.2573  1.8472  3.1294
  727MOL0     H95950   9.160   5.731  11.216 -0.9274  0.0370 -0.2255
  727MOL0     H95951   9.366   5.584  11.175  0.4704 -2.4149 -1.1062
  727MOL0     H95952   9.583   5.208  10.688  1.9826 -0.0771 -0.8281
  727MOL0     H95953   9.767   5.067  10.722  2.3601 -0.6692  1.3302
  727MOL0     H95954   9.946   4.959  10.794 -1.4449 -1.0188 -1.6043
  727MOL0     H95955   9.834   4.836  10.841  1.7157 -1.9272  1.5044
  727MOL0     H95956   9.974   4.754  11.027  0.5259 -1.7784 -0.8685
  727MOL0     H95957  10.055   4.746  10.867 -0.5837 -1.8462  0.7650
  727MOL0     H95958  10.109   4.981  11.038  1.5934 -0.5886  2.0778
  727MOL0     H95959  10.222   4.913  10.921 -0.2186  2.6157  0.5334
  727MOL0     H95960  10.287   4.876  11.145 -1.8079  0.5596  1.7141
  727MOL0     H95961  10.147   4.770  11.176  2.4663  0.6988  3.1091
  727MOL0     H95962  10.412   4.529  10.938 -1.0055 -0.1926 -0.0911
  727MOL0     H95963   9.708   5.094  11.146 -0.3283 -1.4876 -0.1842
  727MOL0     H95964   9.506   5.235  11.111 -0.8986  1.8554 -1.0402
  728MOL0     O95965   8.179   6.990   0.560  0.0274 -0.3770  0.4499
  728MOL0     C95966   8.202   7.101   0.527 -0.4357 -0.8276  0.2758
  728MOL0     O95967   8.109   7.197   0.522  0.4206  0.1276  0.6564
  728MOL0     C95968   7.968   7.176   0.527  0.2176  1.0619  0.9624
  728MOL0     C95969   7.898   7.277   0.461 -0.4938 -0.2617 -0.6761
  728MOL0     C95970   7.762   7.279   0.459  0.1248  0.0844  0.2561
  728MOL0     C95971   7.684   7.178   0.533 -0.4007  0.0147  1.1772
  728MOL0     O95972   7.545   7.190   0.512  0.3684  0.6230 -0.3662
  728MOL0     C95973   7.487   7.055   0.516 -0.1046 -0.0649 -0.5763
  728MOL0     C95974   7.344   7.069   0.489  0.7199  0.3096 -0.2065
  728MOL0     C95975   7.255   7.141   0.595 -0.6030 -0.5691  0.4612
  728MOL0     C95976   7.110   7.114   0.563  0.8721  0.4777  0.2902
  728MOL0     C95977   7.019   7.183   0.657 -0.4144 -0.7185 -0.6084
  728MOL0     C95978   7.033   7.136   0.801 -0.7469  0.4861  0.2705
  728MOL0     C95979   6.924   7.214   0.889 -0.0824  0.8697  0.0576
  728MOL0     C95980   6.779   7.220   0.829 -0.0521 -0.4607 -0.3140
  728MOL0     N95981   6.681   7.293   0.921 -0.1831  0.1180 -0.1778
  728MOL0     C95982   6.563   7.351   0.874 -0.2291 -0.7493 -0.3629
  728MOL0     C95983   6.510   7.409   0.984 -0.1886  0.6166  0.5871
  728MOL0     C95984   6.395   7.498   0.991 -0.0712 -0.0938  0.3891
  728MOL0     C95985   6.293   7.500   0.875  0.6337  0.3268  0.3737
  728MOL0     C95986   6.203   7.381   0.886 -0.4245  0.3640  0.0364
  728MOL0     C95987   6.091   7.378   0.775 -0.3964 -0.5030  0.1062
  728MOL0     O95988   6.138   7.413   0.646 -0.4361  0.4195  0.4221
  728MOL0     C95989   6.212   7.314   0.589  0.4449 -0.1139  0.3201
  728MOL0     C95990   6.322   7.366   0.524 -0.4412 -0.0386 -0.6460
  728MOL0     C95991   6.414   7.280   0.463 -0.0388 -0.0492  0.2516
  728MOL0     C95992   6.404   7.137   0.484 -0.1256 -0.7038  0.5325
  728MOL0     C95993   6.514   7.055   0.429  0.3106 -0.8377  0.5670
  728MOL0     O95994   6.479   6.920   0.412 -0.5970 -0.3838 -0.4684
  728MOL0     C95995   6.570   6.841   0.352 -0.2278  0.7183  0.0633
  728MOL0     C95996   6.624   6.866   0.229  0.2967  0.3166 -0.1330
  728MOL0     C95997   6.719   6.787   0.167 -1.0333 -0.7191  0.2302
  728MOL0     C95998   6.773   6.675   0.237 -0.5268  0.5951  1.4036
  728MOL0     O95999   6.874   6.589   0.190 -0.2556 -0.3867  0.2984
  728MOL0     C96000   6.940   6.630   0.066 -0.6477 -0.5369  0.0439
  728MOL0     C96001   7.025   6.528   0.015 -0.6591  0.6590  0.5160
  728MOL0     C96002   7.126   6.592  -0.078 -0.4028  0.2220 -0.1233
  728MOL0     C96003   7.222   6.493  -0.156 -0.1523  0.1674 -0.2239
  728MOL0     C96004   7.315   6.563  -0.256 -0.2342 -0.7865  0.3724
  728MOL0     C96005   7.427   6.644  -0.192  0.0554  0.0871 -0.8421
  728MOL0     C96006   7.499   6.585  -0.067  0.7056 -0.3171 -0.0293
  728MOL0     C96007   7.609   6.487  -0.106 -0.1597 -0.2598  0.1998
  728MOL0    Cl96008   7.555   6.346  -0.194  0.0330  0.5605  0.8905
  728MOL0     C96009   6.723   6.643   0.366 -0.2470  0.2705 -0.2268
  728MOL0     C96010   6.621   6.726   0.421  0.2851  0.8054  0.8473
  728MOL0     O96011   6.625   7.107   0.410  0.4858 -0.1253 -0.0537
  728MOL0     C96012   6.296   7.082   0.555 -0.1290 -0.6522  0.4574
  728MOL0     C96013   6.204   7.171   0.600 -0.2300  0.5934 -0.4227
  728MOL0     N96014   6.580   7.360   1.094  1.0035  0.9519 -0.3742
  728MOL0     N96015   6.683   7.294   1.059  0.9237 -0.2868 -0.4435
  728MOL0     C96016   7.759   7.074   0.595 -0.4933 -0.1597  0.2542
  728MOL0     C96017   7.902   7.081   0.598  0.6061  0.6888 -0.0903
  728MOL0     C96018   8.345   7.134   0.507 -0.1694 -0.2714  0.6606
  728MOL0     C96019   8.375   7.261   0.469  0.3276 -0.3846  0.9119
  728MOL0     C96020   8.512   7.301   0.467 -0.5736 -1.1643 -0.8223
  728MOL0     C96021   8.613   7.205   0.485 -0.2883 -0.0177 -0.3149
  728MOL0     O96022   8.746   7.215   0.455 -0.0370 -0.5168  0.1579
  728MOL0     C96023   8.792   7.347   0.416  0.2537  0.8859  0.2294
  728MOL0     C96024   8.944   7.347   0.412  0.3962  0.8705  0.1424
  728MOL0     C96025   9.017   7.318   0.551  0.3765 -0.0813  0.0399
  728MOL0     C96026   9.169   7.317   0.532 -0.0757  0.1366  0.3694
  728MOL0     C96027   9.226   7.420   0.449  0.1472 -0.2024 -0.0222
  728MOL0     C96028   9.276   7.515   0.378 -0.9058  0.7730 -0.1410
  728MOL0     C96029   8.574   7.073   0.521 -0.7054 -0.4096  0.6386
  728MOL0     C96030   8.442   7.035   0.516 -0.4618  0.5380 -0.4713
  728MOL0     H96031   7.960   7.334   0.392  1.8617 -0.9125  0.8091
  728MOL0     H96032   7.719   7.358   0.398 -1.0756  1.2610  2.4918
  728MOL0     H96033   7.502   7.005   0.612 -0.0898  0.7051 -0.1688
  728MOL0     H96034   7.541   6.998   0.440  1.8687  3.1563 -1.8399
  728MOL0     H96035   7.298   6.971   0.477 -0.8296  1.1068 -1.2379
  728MOL0     H96036   7.321   7.124   0.397  1.4093  1.8650  0.4992
  728MOL0     H96037   7.276   7.249   0.588  3.3484 -1.0900  1.7279
  728MOL0     H96038   7.287   7.089   0.686 -1.2746 -0.7181  0.6217
  728MOL0     H96039   7.076   7.149   0.465 -2.3427 -1.6107  0.5002
  728MOL0     H96040   7.094   7.006   0.550  1.2979  0.4533 -0.0916
  728MOL0     H96041   6.914   7.160   0.633 -0.6825 -2.2679  1.7116
  728MOL0     H96042   7.031   7.291   0.644 -1.2726 -0.7264 -1.5775
  728MOL0     H96043   7.136   7.155   0.833 -0.2299 -1.8484  0.1604
  728MOL0     H96044   7.007   7.030   0.814  0.4892  0.1310  0.0273
  728MOL0     H96045   6.927   7.173   0.991  3.1978  1.0846  0.1793
  728MOL0     H96046   6.966   7.315   0.889  4.1537 -0.6425 -1.1913
  728MOL0     H96047   6.745   7.121   0.798  0.0565 -0.3437 -0.8220
  728MOL0     H96048   6.782   7.280   0.737 -1.5933 -0.4035 -0.3487
  728MOL0     H96049   6.527   7.369   0.773 -0.6865  2.0413  0.2199
  728MOL0     H96050   6.433   7.599   1.011 -0.6989  0.0274  1.0216
  728MOL0     H96051   6.351   7.463   1.086  0.3365  1.0894  1.0320
  728MOL0     H96052   6.339   7.495   0.776  1.9670  1.7129  0.8850
  728MOL0     H96053   6.240   7.596   0.883  3.0461  1.5905  3.4721
  728MOL0     H96054   6.250   7.283   0.896 -0.7896  0.3512  2.2533
  728MOL0     H96055   6.160   7.399   0.985  1.3845  1.4097  0.6901
  728MOL0     H96056   6.017   7.457   0.792 -0.3960 -0.5491  0.3266
  728MOL0     H96057   6.039   7.282   0.774 -1.7775  0.1723  1.6301
  728MOL0     H96058   6.335   7.474   0.515  1.7622  0.1950  3.0395
  728MOL0     H96059   6.493   7.328   0.406 -0.6728  0.6817 -0.0332
  728MOL0     H96060   6.579   6.955   0.187  2.3709  0.9073 -1.2139
  728MOL0     H96061   6.754   6.833   0.075 -0.5706 -1.9372 -0.2300
  728MOL0     H96062   7.000   6.719   0.084 -1.1645  0.5895 -3.1503
  728MOL0     H96063   6.863   6.644  -0.011 -3.0428  0.0272  2.3911
  728MOL0     H96064   6.979   6.452  -0.049  2.0198 -3.1727  2.7271
  728MOL0     H96065   7.078   6.476   0.095 -2.7841 -2.0895  0.2661
  728MOL0     H96066   7.194   6.656  -0.022 -0.7709  0.0099  0.5745
  728MOL0     H96067   7.068   6.650  -0.151  0.4334  1.3896  0.1158
  728MOL0     H96068   7.272   6.424  -0.088  1.5289  0.1804 -1.3992
  728MOL0     H96069   7.160   6.416  -0.202  0.5602 -0.5878  0.0638
  728MOL0     H96070   7.258   6.634  -0.317 -0.5208 -2.2146 -1.1028
  728MOL0     H96071   7.355   6.489  -0.326 -3.7240 -2.2369 -0.2814
  728MOL0     H96072   7.377   6.734  -0.157 -0.7324 -0.8837  0.6409
  728MOL0     H96073   7.505   6.672  -0.264  0.0147 -1.5010 -1.5468
  728MOL0     H96074   7.559   6.662  -0.019 -0.5058  0.9911 -0.5365
  728MOL0     H96075   7.426   6.536  -0.001  1.3688 -3.8588 -1.6948
  728MOL0     H96076   7.651   6.439  -0.017  0.7569  0.4559  0.1712
  728MOL0     H96077   7.691   6.537  -0.159 -0.4489  0.8128  0.7385
  728MOL0     H96078   6.753   6.546   0.404 -0.6093 -0.5358 -1.9143
  728MOL0     H96079   6.571   6.696   0.512 -3.5851 -1.7668 -1.8312
  728MOL0     H96080   6.278   6.975   0.549 -2.0406 -0.2871 -2.8698
  728MOL0     H96081   6.111   7.130   0.639  0.0235  0.5975  0.2032
  728MOL0     H96082   7.709   6.998   0.654 -1.6667 -2.5206 -3.4001
  728MOL0     H96083   7.954   7.007   0.659 -0.2468  1.6843  1.9401
  728MOL0     H96084   8.295   7.330   0.444 -0.2701 -0.5948  2.1704
  728MOL0     H96085   8.521   7.405   0.436 -3.0204 -1.2687 -2.1913
  728MOL0     H96086   8.755   7.424   0.485  0.6404  1.0019  0.3104
  728MOL0     H96087   8.758   7.368   0.314  1.5029 -1.2086 -0.6784
  728MOL0     H96088   8.979   7.287   0.327 -0.5508  1.7159 -0.8868
  728MOL0     H96089   8.965   7.452   0.387  0.4249  0.5200 -1.4430
  728MOL0     H96090   8.978   7.230   0.603  0.1098  0.4333  0.7292
  728MOL0     H96091   8.990   7.396   0.622 -0.4771 -0.5032  0.1885
  728MOL0     H96092   9.228   7.325   0.624  1.7072  1.4931 -0.8087
  728MOL0     H96093   9.196   7.224   0.481 -0.2591  0.6533 -0.6951
  728MOL0     H96094   9.320   7.595   0.322 -0.6242  0.8126  0.1336
  728MOL0     H96095   8.646   6.992   0.522  0.9201  0.8489 -1.9608
  728MOL0     H96096   8.426   6.931   0.541  3.5877  0.4531  2.9165
  729MOL0     O96097   8.619   6.214   8.005 -0.3110  0.1117 -0.2090
  729MOL0     C96098   8.704   6.300   8.013 -1.0111  0.2095 -0.2197
  729MOL0     O96099   8.679   6.436   8.018 -0.0663  0.2162  0.5567
  729MOL0     C96100   8.544   6.461   8.021  0.5754 -0.1666 -0.0428
  729MOL0     C96101   8.473   6.439   8.138 -0.2286  0.2966  0.1176
  729MOL0     C96102   8.335   6.469   8.128  0.0329 -0.3256  0.1889
  729MOL0     C96103   8.261   6.503   8.012 -0.0644  0.3814  0.3502
  729MOL0     O96104   8.126   6.510   8.028 -0.2761 -0.8923  0.9314
  729MOL0     C96105   8.047   6.567   7.915  0.4226 -0.3299 -0.6288
  729MOL0     C96106   7.911   6.521   7.921 -0.0071 -0.1883  0.5453
  729MOL0     C96107   7.821   6.593   7.817  0.0429 -1.3151  0.4908
  729MOL0     C96108   7.678   6.570   7.838 -0.1535 -0.7103  0.6517
  729MOL0     C96109   7.584   6.632   7.744  0.9206  0.4374  0.6292
  729MOL0     C96110   7.584   6.564   7.605  0.3009 -0.7179  0.2315
  729MOL0     C96111   7.462   6.577   7.522  0.6705 -0.4453  0.7491
  729MOL0     C96112   7.434   6.719   7.481 -0.4497  0.3627 -0.9395
  729MOL0     N96113   7.281   6.750   7.489 -0.5904  0.0640  0.3153
  729MOL0     C96114   7.239   6.874   7.444  0.4849 -0.0349 -0.2027
  729MOL0     C96115   7.109   6.879   7.485 -0.4229 -0.8602  0.0588
  729MOL0     C96116   7.021   7.000   7.462  0.9719  0.2451 -0.2401
  729MOL0     C96117   6.904   6.998   7.564 -0.3773  0.1582  0.0205
  729MOL0     C96118   6.825   7.126   7.540  0.9838  0.6512  0.5058
  729MOL0     C96119   6.773   7.177   7.672 -0.1790  0.3434 -0.0932
  729MOL0     O96120   6.692   7.290   7.652  0.2863  0.1165 -0.2949
  729MOL0     C96121   6.556   7.270   7.628  0.4463  0.2360 -0.4420
  729MOL0     C96122   6.494   7.149   7.607 -0.2668 -0.3919 -0.3029
  729MOL0     C96123   6.357   7.133   7.571  0.4378 -0.1338  0.4134
  729MOL0     C96124   6.282   7.251   7.542 -0.2412  0.1293 -0.2048
  729MOL0     C96125   6.149   7.225   7.492  0.4203 -0.2240 -0.0208
  729MOL0     O96126   6.053   7.312   7.534 -0.3519 -0.5373 -0.0633
  729MOL0     C96127   5.927   7.299   7.494  0.2155  0.3876 -1.0870
  729MOL0     C96128   5.857   7.178   7.504  1.0405 -1.1194  0.3701
  729MOL0     C96129   5.716   7.178   7.463 -0.0114 -0.9807  0.2962
  729MOL0     C96130   5.644   7.294   7.423 -0.0089 -1.1439 -1.0513
  729MOL0     O96131   5.521   7.286   7.378  0.5114 -0.5159 -0.5224
  729MOL0     C96132   5.471   7.386   7.293  0.2221 -0.0979  0.8787
  729MOL0     C96133   5.389   7.501   7.363 -0.3413  0.2164 -0.3789
  729MOL0     C96134   5.272   7.470   7.455 -0.0045  0.3805 -0.5860
  729MOL0     C96135   5.156   7.399   7.385 -0.7482  0.3968 -0.4921
  729MOL0     C96136   5.080   7.484   7.296  0.1092  1.2834  0.9113
  729MOL0     C96137   4.991   7.396   7.199 -0.1082  0.0040  0.6519
  729MOL0     C96138   4.857   7.463   7.168 -0.3213 -0.5270  0.0380
  729MOL0     C96139   4.873   7.607   7.143  0.2581 -0.3681 -0.9074
  729MOL0    Cl96140   4.719   7.698   7.087  0.0332 -0.6800 -0.1651
  729MOL0     C96141   5.724   7.416   7.430 -0.4822  0.2674 -0.2649
  729MOL0     C96142   5.856   7.421   7.466  0.5033 -0.0550  0.1418
  729MOL0     O96143   6.129   7.133   7.414 -0.0469 -0.0088  0.3388
  729MOL0     C96144   6.341   7.379   7.559  0.6812  1.0116 -0.3726
  729MOL0     C96145   6.474   7.375   7.605  0.1556 -0.2274 -0.7570
  729MOL0     N96146   7.074   6.769   7.545 -0.3032  0.1799  0.1982
  729MOL0     N96147   7.185   6.692   7.561 -0.2172 -0.3169 -0.6038
  729MOL0     C96148   8.335   6.519   7.892 -0.5240 -0.3297  1.1517
  729MOL0     C96149   8.479   6.510   7.902  0.1610 -0.4807 -0.1689
  729MOL0     C96150   8.853   6.252   8.003 -0.3984  0.7409 -0.1965
  729MOL0     C96151   8.953   6.351   7.998  0.1251 -0.3263 -0.6605
  729MOL0     C96152   9.092   6.312   8.012 -0.0720  0.0022 -0.2434
  729MOL0     C96153   9.133   6.182   8.007 -0.3411 -0.6389  0.0268
  729MOL0     O96154   9.259   6.130   7.995  0.0467 -0.4027 -0.2073
  729MOL0     C96155   9.376   6.217   8.008  0.0889 -0.2313 -0.3460
  729MOL0     C96156   9.404   6.254   8.160 -1.3214  0.5269 -0.6524
  729MOL0     C96157   9.503   6.158   8.215  0.1099  0.4785 -0.9698
  729MOL0     C96158   9.448   6.022   8.258 -0.7662 -0.4451  0.4985
  729MOL0     C96159   9.356   6.015   8.375  0.6185 -0.7762  0.2851
  729MOL0     C96160   9.300   6.025   8.479  0.8278 -0.0210  0.4017
  729MOL0     C96161   9.031   6.089   7.989 -0.6606  0.5450 -0.8137
  729MOL0     C96162   8.891   6.112   7.991  0.1175  0.3676  0.3810
  729MOL0     H96163   8.504   6.407   8.237 -0.9300  0.4851  0.4057
  729MOL0     H96164   8.265   6.446   8.208  1.3481  0.9223  1.7848
  729MOL0     H96165   8.092   6.542   7.819  2.3515  0.6143 -0.0230
  729MOL0     H96166   8.041   6.676   7.924 -0.9976 -0.4565  0.3800
  729MOL0     H96167   7.863   6.523   8.019 -1.0335 -0.9115  0.0690
  729MOL0     H96168   7.906   6.418   7.883  1.3398  0.0967 -0.4958
  729MOL0     H96169   7.841   6.551   7.718  0.3956 -1.6981  0.7209
  729MOL0     H96170   7.850   6.697   7.805  0.4655 -1.5795 -1.0510
  729MOL0     H96171   7.656   6.464   7.851 -3.1854 -0.1307  0.9108
  729MOL0     H96172   7.656   6.615   7.936 -0.4766 -1.3761  0.8844
  729MOL0     H96173   7.604   6.739   7.735  2.6051  0.3360  2.4835
  729MOL0     H96174   7.482   6.625   7.784  0.7048 -0.1113 -0.0021
  729MOL0     H96175   7.604   6.459   7.624  2.1592 -0.1415  1.8056
  729MOL0     H96176   7.677   6.594   7.556  1.2419  2.2176  3.4282
  729MOL0     H96177   7.490   6.515   7.437  1.9811 -1.5049  1.9018
  729MOL0     H96178   7.377   6.529   7.571  1.2325 -1.1677  1.0522
  729MOL0     H96179   7.458   6.743   7.377 -1.4704  2.3739 -0.7561
  729MOL0     H96180   7.489   6.796   7.536 -2.2750  0.9824  0.1189
  729MOL0     H96181   7.284   6.949   7.380  1.2293  0.9481  1.4221
  729MOL0     H96182   6.982   6.993   7.361 -2.0120  0.6720  0.7789
  729MOL0     H96183   7.085   7.088   7.477 -0.6075  0.8324  5.6794
  729MOL0     H96184   6.945   6.993   7.665 -1.3205 -0.3654  0.3985
  729MOL0     H96185   6.839   6.911   7.549  1.4671 -1.3845  0.6966
  729MOL0     H96186   6.897   7.196   7.496  1.2097  2.0714  2.9478
  729MOL0     H96187   6.753   7.104   7.460  1.0183 -0.5776  0.7925
  729MOL0     H96188   6.856   7.211   7.734  0.2298 -0.7139 -0.0320
  729MOL0     H96189   6.729   7.090   7.722  1.8334 -0.2812  0.6732
  729MOL0     H96190   6.562   7.065   7.598 -1.5301 -1.3995 -0.7617
  729MOL0     H96191   6.331   7.029   7.552  0.7159 -0.2761  0.7923
  729MOL0     H96192   5.922   7.104   7.549  0.7104 -0.5084  1.9027
  729MOL0     H96193   5.654   7.089   7.464 -4.3081  1.3417 -4.9714
  729MOL0     H96194   5.401   7.345   7.219  0.0993 -1.2775  1.6281
  729MOL0     H96195   5.549   7.418   7.223  0.7915 -2.4729  0.3327
  729MOL0     H96196   5.363   7.576   7.288  3.5890  1.6116 -0.5641
  729MOL0     H96197   5.461   7.566   7.414  0.2221  1.6489 -2.8603
  729MOL0     H96198   5.241   7.567   7.496  0.2954  1.2588 -2.3051
  729MOL0     H96199   5.319   7.410   7.533 -1.0347 -0.7484 -0.8183
  729MOL0     H96200   5.197   7.317   7.326 -1.8968 -1.4463  1.1517
  729MOL0     H96201   5.102   7.354   7.469 -0.7421 -2.3315 -1.8364
  729MOL0     H96202   5.146   7.540   7.229 -0.2154  0.8005  0.1732
  729MOL0     H96203   5.019   7.544   7.364 -0.7223  1.3260  0.1508
  729MOL0     H96204   4.975   7.293   7.230 -2.1079 -0.8008 -2.6352
  729MOL0     H96205   5.040   7.385   7.102 -0.0230 -1.6478  0.8663
  729MOL0     H96206   4.815   7.410   7.082 -0.1819 -4.8172  2.3414
  729MOL0     H96207   4.782   7.440   7.244 -0.4599  1.1598  0.4406
  729MOL0     H96208   4.950   7.607   7.065 -1.4561 -0.7001 -2.6844
  729MOL0     H96209   4.909   7.662   7.230 -0.7168 -2.8612  1.1782
  729MOL0     H96210   5.674   7.512   7.428 -2.8415 -0.8774 -2.3857
  729MOL0     H96211   5.911   7.515   7.466  0.8942 -0.2613  1.6426
  729MOL0     H96212   6.281   7.468   7.541  0.6035  1.0718  0.1857
  729MOL0     H96213   6.530   7.466   7.626  0.4511 -1.1223  3.1075
  729MOL0     H96214   8.297   6.523   7.790  1.1971 -1.0879  0.4504
  729MOL0     H96215   8.537   6.531   7.813  2.5106 -1.0069  1.1479
  729MOL0     H96216   8.924   6.456   8.007 -1.1396 -0.7365  0.3953
  729MOL0     H96217   9.172   6.385   8.022  3.1979 -3.2393 -0.7717
  729MOL0     H96218   9.366   6.308   7.948 -3.2898  0.2768  0.7960
  729MOL0     H96219   9.460   6.161   7.965  1.2600  0.7436  0.5768
  729MOL0     H96220   9.447   6.354   8.170  1.0560 -0.6433  2.5988
  729MOL0     H96221   9.311   6.259   8.218  0.8250 -1.3629  3.2760
  729MOL0     H96222   9.558   6.203   8.298  0.3587  2.2697 -2.0425
  729MOL0     H96223   9.588   6.129   8.152  0.8526  4.1052 -1.8791
  729MOL0     H96224   9.408   5.978   8.166  2.8874  1.8247 -2.4601
  729MOL0     H96225   9.533   5.960   8.288  0.6804  0.0679 -2.2416
  729MOL0     H96226   9.250   6.036   8.573  1.3787  0.6922  0.6232
  729MOL0     H96227   9.066   5.989   7.964 -0.0232  1.7345 -5.7669
  729MOL0     H96228   8.807   6.044   7.986  0.4921 -0.0440 -2.7241
  730MOL0     O96229   0.623   7.464   7.187  0.3571 -0.0995 -0.1305
  730MOL0     C96230   0.575   7.473   7.073 -0.2582 -0.3518 -0.8899
  730MOL0     O96231   0.452   7.516   7.042 -0.1486 -0.5464  0.0142
  730MOL0     C96232   0.399   7.601   7.131 -0.1815  0.1391  0.0206
  730MOL0     C96233   0.274   7.583   7.185  0.0181  0.3265  0.2076
  730MOL0     C96234   0.214   7.690   7.256 -0.1139  0.6042  0.7892
  730MOL0     C96235   0.280   7.813   7.271  0.5325 -0.5882  0.5536
  730MOL0     O96236   0.208   7.923   7.324  0.3356 -0.0711  0.0373
  730MOL0     C96237   0.248   8.051   7.267  0.0868 -0.4875  0.0630
  730MOL0     C96238   0.137   8.159   7.276 -0.4052  0.9828 -0.2654
  730MOL0     C96239   0.015   8.104   7.201  0.2040 -0.2353  0.2012
  730MOL0     C96240  -0.102   8.206   7.214 -0.5676  1.2949 -0.7291
  730MOL0     C96241  -0.229   8.156   7.146 -0.5871  0.3342 -0.1120
  730MOL0     C96242  -0.285   8.037   7.211  0.2336  0.2125  0.9492
  730MOL0     C96243  -0.419   8.005   7.158 -1.0547  0.1173  1.2609
  730MOL0     C96244  -0.427   7.966   7.005 -0.5663 -0.6455  0.1852
  730MOL0     N96245  -0.552   7.905   6.977 -0.0745  0.3724 -0.8438
  730MOL0     C96246  -0.673   7.960   7.001 -0.2961 -1.3857  0.2167
  730MOL0     C96247  -0.768   7.872   6.961  0.0446  1.6793 -0.7317
  730MOL0     C96248  -0.917   7.903   6.963  0.0052 -1.0437  0.2251
  730MOL0     C96249  -0.999   7.809   7.057 -0.1849 -1.5658 -0.3590
  730MOL0     C96250  -1.142   7.857   7.079 -0.3254 -0.7236 -0.1884
  730MOL0     C96251  -1.216   7.783   7.185  0.9520  1.0870  0.8417
  730MOL0     O96252  -1.352   7.740   7.142 -0.0982  0.4647 -0.2384
  730MOL0     C96253  -1.450   7.820   7.172 -0.2022  0.2866  0.5958
  730MOL0     C96254  -1.442   7.949   7.226 -0.0577  0.2996 -0.2171
  730MOL0     C96255  -1.566   8.009   7.252  0.0061 -0.7427 -0.1367
  730MOL0     C96256  -1.691   7.940   7.239  0.1618  0.1950 -0.0361
  730MOL0     C96257  -1.823   8.013   7.257  0.9650  0.0939  0.0024
  730MOL0     O96258  -1.928   7.939   7.293 -0.3893 -0.0880 -0.3028
  730MOL0     C96259  -2.054   7.993   7.282 -0.2920 -0.1309 -0.3592
  730MOL0     C96260  -2.122   8.039   7.397 -0.5257 -1.2589  0.5948
  730MOL0     C96261  -2.258   8.067   7.396 -0.5552 -0.4624  0.4456
  730MOL0     C96262  -2.327   8.063   7.265 -0.2291 -1.1751  0.3614
  730MOL0     O96263  -2.455   8.101   7.239  0.3956  0.6280  0.0595
  730MOL0     C96264  -2.527   8.149   7.353  0.7039 -0.2837  0.4142
  730MOL0     C96265  -2.670   8.183   7.301  0.5385 -0.1023 -0.8602
  730MOL0     C96266  -2.754   8.221   7.420 -0.0713 -0.2284 -0.1923
  730MOL0     C96267  -2.899   8.260   7.389 -0.1061 -0.5004 -0.9042
  730MOL0     C96268  -2.991   8.261   7.511  0.2464 -0.0403 -0.6037
  730MOL0     C96269  -3.140   8.248   7.464 -0.8364  0.1749 -0.5378
  730MOL0     C96270  -3.244   8.258   7.578 -1.4842 -0.3715  0.9374
  730MOL0     C96271  -3.370   8.334   7.555  0.1644 -0.0100 -1.0237
  730MOL0    Cl96272  -3.470   8.272   7.419 -0.1387  0.1861 -0.4843
  730MOL0     C96273  -2.254   8.029   7.150  0.8640 -0.6869  0.7815
  730MOL0     C96274  -2.120   7.996   7.154  0.3894  0.5993 -0.7149
  730MOL0     O96275  -1.821   8.124   7.205  0.1346 -1.3842  0.1086
  730MOL0     C96276  -1.690   7.808   7.181  0.7247 -0.8669 -0.3173
  730MOL0     C96277  -1.568   7.753   7.149  0.1239  0.2587 -0.3029
  730MOL0     N96278  -0.701   7.749   6.933  0.5423  0.7123 -0.9473
  730MOL0     N96279  -0.570   7.773   6.944 -0.3975  0.0446 -0.0283
  730MOL0     C96280   0.416   7.822   7.234  0.0292 -0.1258  0.5490
  730MOL0     C96281   0.474   7.716   7.158 -0.2976 -0.2275  0.7108
  730MOL0     C96282   0.667   7.453   6.960  0.2558  0.3279 -1.0607
  730MOL0     C96283   0.800   7.427   6.985 -0.0149 -0.0445 -0.5642
  730MOL0     C96284   0.877   7.370   6.880 -0.2090  0.2286  0.3939
  730MOL0     C96285   0.815   7.336   6.754  0.7929  0.0211  0.6610
  730MOL0     O96286   0.888   7.288   6.653 -1.2308 -0.0336 -0.3562
  730MOL0     C96287   0.830   7.183   6.570 -0.4535 -0.3284 -0.3826
  730MOL0     C96288   0.940   7.092   6.507  0.5010 -0.3937  0.1101
  730MOL0     C96289   1.030   7.024   6.607  0.9622  0.4155 -0.6359
  730MOL0     C96290   1.147   6.961   6.531 -1.3460 -0.5002  0.3789
  730MOL0     C96291   1.233   6.886   6.618  0.0231  1.3838  0.2651
  730MOL0     C96292   1.298   6.805   6.681  0.3273  0.0720 -0.5032
  730MOL0     C96293   0.690   7.380   6.732  1.0286  0.3369 -0.7012
  730MOL0     C96294   0.614   7.440   6.835  0.4641 -0.3808 -0.3557
  730MOL0     H96295   0.220   7.496   7.149 -1.4255  1.0560  0.5336
  730MOL0     H96296   0.109   7.679   7.282  0.1441 -0.3340  1.4709
  730MOL0     H96297   0.271   8.038   7.161 -1.1457 -1.2383 -0.1351
  730MOL0     H96298   0.339   8.078   7.321  0.0087  0.7423 -0.3888
  730MOL0     H96299   0.176   8.252   7.231 -1.5249  2.0913  0.9631
  730MOL0     H96300   0.111   8.176   7.381  1.2095 -1.7443  0.6629
  730MOL0     H96301  -0.006   8.006   7.244  1.0422 -0.2721  0.5507
  730MOL0     H96302   0.041   8.085   7.096 -1.1559  0.2455 -0.2376
  730MOL0     H96303  -0.124   8.232   7.318  1.8499 -0.4614  0.3467
  730MOL0     H96304  -0.053   8.294   7.172  0.9887 -0.2832 -2.4251
  730MOL0     H96305  -0.208   8.134   7.041  1.0082 -2.8998  0.7527
  730MOL0     H96306  -0.297   8.241   7.147 -3.4071 -1.7230 -2.0923
  730MOL0     H96307  -0.289   8.064   7.317  1.3329  0.9094  0.8243
  730MOL0     H96308  -0.224   7.951   7.185 -3.0602 -1.5339 -1.9395
  730MOL0     H96309  -0.453   7.916   7.211 -1.5553  0.6601  1.8625
  730MOL0     H96310  -0.487   8.088   7.179 -0.5321  1.3332 -1.3910
  730MOL0     H96311  -0.346   7.898   6.977  0.0179 -1.4689  3.5232
  730MOL0     H96312  -0.431   8.056   6.943  1.0362  0.4542  1.5987
  730MOL0     H96313  -0.690   8.062   7.036  2.5254 -0.0239 -2.0083
  730MOL0     H96314  -0.957   7.893   6.861 -1.4401  1.4478  0.4757
  730MOL0     H96315  -0.937   8.007   6.988 -0.6864 -0.7089 -1.6080
  730MOL0     H96316  -0.953   7.801   7.156 -1.0972 -2.3811  0.0212
  730MOL0     H96317  -0.995   7.709   7.015 -2.9980 -1.9824  0.1133
  730MOL0     H96318  -1.138   7.960   7.118  0.0527 -0.4419 -0.9505
  730MOL0     H96319  -1.195   7.844   6.984 -2.5588  0.6832  0.7794
  730MOL0     H96320  -1.213   7.832   7.282  2.0609  1.5092  0.6064
  730MOL0     H96321  -1.174   7.683   7.199  1.0798  0.9807 -0.1837
  730MOL0     H96322  -1.346   7.992   7.251  0.3685  0.5733 -2.1136
  730MOL0     H96323  -1.556   8.107   7.296 -1.2415 -0.6665  0.0124
  730MOL0     H96324  -2.072   8.043   7.493  0.7830 -0.0744 -0.1115
  730MOL0     H96325  -2.306   8.102   7.487  1.8610  0.3416  1.4998
  730MOL0     H96326  -2.481   8.243   7.385  2.3207 -1.0782  0.5182
  730MOL0     H96327  -2.537   8.078   7.435  1.3154  0.8426  1.5063
  730MOL0     H96328  -2.706   8.102   7.238 -2.1772  1.0826 -0.9663
  730MOL0     H96329  -2.665   8.270   7.234  1.8982  1.1657  0.7840
  730MOL0     H96330  -2.701   8.300   7.475  1.4959 -0.0823 -1.7998
  730MOL0     H96331  -2.763   8.142   7.495 -0.4048  0.5625  0.6172
  730MOL0     H96332  -2.903   8.362   7.349 -0.7482  0.2383  0.9598
  730MOL0     H96333  -2.938   8.200   7.307 -1.0049 -0.1593 -0.7314
  730MOL0     H96334  -2.977   8.359   7.557  2.0710  0.0523 -1.2623
  730MOL0     H96335  -2.959   8.176   7.572  2.8716 -0.8766 -2.9328
  730MOL0     H96336  -3.153   8.157   7.404  0.2886  0.0057 -0.5546
  730MOL0     H96337  -3.151   8.325   7.387  2.5354  1.5086  0.1564
  730MOL0     H96338  -3.256   8.156   7.616  2.3207 -1.8257 -1.2112
  730MOL0     H96339  -3.186   8.303   7.659 -0.4290 -2.5709  1.4709
  730MOL0     H96340  -3.347   8.437   7.526 -4.3660  1.2708 -0.9235
  730MOL0     H96341  -3.423   8.351   7.650 -0.1632  0.7746 -1.3310
  730MOL0     H96342  -2.295   8.026   7.050 -0.2390  1.5752  1.0833
  730MOL0     H96343  -2.054   7.985   7.068  0.3706 -1.2014 -0.5298
  730MOL0     H96344  -1.782   7.753   7.164 -0.4715  1.1625 -0.7940
  730MOL0     H96345  -1.565   7.653   7.106  3.6490  0.0887  0.0126
  730MOL0     H96346   0.472   7.914   7.247 -0.8411  0.1080  3.5889
  730MOL0     H96347   0.575   7.737   7.125 -0.5215 -0.7525 -0.3573
  730MOL0     H96348   0.863   7.439   7.073  0.3547  2.3607 -1.0879
  730MOL0     H96349   0.977   7.331   6.895 -0.0100  0.1193 -1.0709
  730MOL0     H96350   0.768   7.223   6.489 -1.5523 -0.9348  0.1359
  730MOL0     H96351   0.764   7.113   6.622 -0.2661 -0.8148 -0.7888
  730MOL0     H96352   0.897   7.008   6.451  2.1470  0.7055 -3.0371
  730MOL0     H96353   0.993   7.156   6.436 -0.2391 -0.1259 -0.2132
  730MOL0     H96354   0.983   6.937   6.652 -0.4766  1.5872  0.2102
  730MOL0     H96355   1.052   7.104   6.679 -1.1972  0.3665  0.1453
  730MOL0     H96356   1.090   6.896   6.463 -4.2021  0.0062  2.1087
  730MOL0     H96357   1.210   7.036   6.482  0.5676 -1.7764  0.7838
  730MOL0     H96358   1.351   6.739   6.747  2.3907  0.8792 -1.2973
  730MOL0     H96359   0.631   7.362   6.643  0.7471 -1.5880 -0.1480
  730MOL0     H96360   0.513   7.467   6.807 -0.6094 -3.9818 -0.3823
  731MOL0     O96361   3.234  10.410   3.758  0.2443 -0.0466  0.0422
  731MOL0     C96362   3.236  10.363   3.868 -0.1412 -0.1815 -0.0231
  731MOL0     O96363   3.339  10.368   3.949 -0.3289  0.3181 -0.2615
  731MOL0     C96364   3.458  10.422   3.910  1.1099 -0.1125 -0.5350
  731MOL0     C96365   3.514  10.510   4.006 -0.2725  0.0606  0.2529
  731MOL0     C96366   3.650  10.559   3.995  0.1391 -0.1434 -0.6441
  731MOL0     C96367   3.720  10.535   3.883 -0.2641 -0.2045 -0.1880
  731MOL0     O96368   3.843  10.593   3.860  0.0920  0.2455  0.1405
  731MOL0     C96369   3.954  10.506   3.821 -0.3927 -0.2527 -0.5956
  731MOL0     C96370   4.040  10.519   3.934 -1.2390 -0.1250 -0.3374
  731MOL0     C96371   4.188  10.498   3.907 -0.4175  0.6455 -0.0360
  731MOL0     C96372   4.261  10.615   3.851  0.2447  0.5394 -0.9067
  731MOL0     C96373   4.401  10.588   3.805  0.0823 -0.1181 -0.2271
  731MOL0     C96374   4.430  10.450   3.741 -0.2246  0.3782  0.5436
  731MOL0     C96375   4.374  10.405   3.604  0.6809 -0.4077  0.2796
  731MOL0     C96376   4.428  10.488   3.492  0.6576  0.3621  0.4683
  731MOL0     N96377   4.568  10.456   3.468 -1.3124 -0.8368 -0.2035
  731MOL0     C96378   4.680  10.531   3.501 -0.6233 -0.4762  0.4488
  731MOL0     C96379   4.792  10.464   3.458 -0.2575  0.9430  0.0416
  731MOL0     C96380   4.941  10.504   3.474  0.1423  0.1918  0.6287
  731MOL0     C96381   5.037  10.394   3.470 -0.3457  0.9820  0.1591
  731MOL0     C96382   5.067  10.329   3.327 -0.0265 -0.0676 -0.1243
  731MOL0     C96383   5.215  10.344   3.294  0.1351  0.4700 -0.7837
  731MOL0     O96384   5.290  10.280   3.405 -0.5061  0.2835  1.0554
  731MOL0     C96385   5.430  10.281   3.400 -0.0206  0.2558  0.0157
  731MOL0     C96386   5.494  10.195   3.484 -0.8817  0.1661 -0.6884
  731MOL0     C96387   5.636  10.185   3.479 -0.2658 -0.1698 -0.1573
  731MOL0     C96388   5.714  10.270   3.404  0.1715 -0.7260 -0.0855
  731MOL0     C96389   5.865  10.261   3.383  0.2259 -0.7477  0.0665
  731MOL0     O96390   5.935  10.362   3.321 -0.4285  0.4230  0.5114
  731MOL0     C96391   6.065  10.354   3.269  1.0488  0.2772  0.5822
  731MOL0     C96392   6.121  10.241   3.202  0.4750 -0.4182 -0.4864
  731MOL0     C96393   6.253  10.238   3.169 -0.4097  0.3634 -0.6202
  731MOL0     C96394   6.324  10.354   3.188  0.4527  0.5814 -0.0104
  731MOL0     O96395   6.449  10.367   3.136  0.3891  0.3725 -0.1944
  731MOL0     C96396   6.548  10.264   3.127  0.1428  0.0990 -0.6743
  731MOL0     C96397   6.683  10.338   3.119 -0.1757  0.0302  0.1287
  731MOL0     C96398   6.686  10.472   3.191  0.2514 -0.2274  0.0486
  731MOL0     C96399   6.824  10.528   3.210 -1.2067  0.2309 -0.1628
  731MOL0     C96400   6.829  10.671   3.284 -0.2890  1.4000  0.1619
  731MOL0     C96401   6.894  10.650   3.422 -0.3703  0.4852 -0.9627
  731MOL0     C96402   7.049  10.643   3.402  0.2871 -0.6926  0.2368
  731MOL0     C96403   7.104  10.704   3.531 -0.1661 -0.1580 -0.2624
  731MOL0    Cl96404   7.114  10.886   3.544  0.6219  0.5184  0.3232
  731MOL0     C96405   6.273  10.464   3.254 -0.2442  0.5637  0.2324
  731MOL0     C96406   6.141  10.463   3.288  0.7226 -0.5478 -0.0679
  731MOL0     O96407   5.909  10.161   3.424 -0.1007  0.5511  0.0184
  731MOL0     C96408   5.642  10.365   3.333 -0.3986  0.1105  0.0216
  731MOL0     C96409   5.505  10.375   3.334  0.1432 -0.1326  1.0852
  731MOL0     N96410   4.739  10.356   3.376  0.5773 -1.1242 -0.2501
  731MOL0     N96411   4.604  10.359   3.388  0.3857 -0.4182  0.2231
  731MOL0     C96412   3.662  10.463   3.777  0.5026  0.3574 -1.3230
  731MOL0     C96413   3.530  10.405   3.788  0.1414  0.5441 -0.5588
  731MOL0     C96414   3.106  10.297   3.907 -0.7576 -1.0180 -0.1052
  731MOL0     C96415   3.002  10.299   3.816 -0.0703 -0.6662  0.6331
  731MOL0     C96416   2.878  10.238   3.847  0.2670 -0.3696 -0.0766
  731MOL0     C96417   2.859  10.182   3.975 -0.9064 -0.2381  1.4512
  731MOL0     O96418   2.743  10.126   4.007 -0.5303 -0.5391 -0.7615
  731MOL0     C96419   2.650  10.199   4.083  0.0820 -0.2436 -0.1699
  731MOL0     C96420   2.547  10.267   3.986 -0.0668 -0.4107  0.0413
  731MOL0     C96421   2.454  10.165   3.918  0.1096 -0.4207 -0.3172
  731MOL0     C96422   2.525  10.075   3.812  0.1586 -0.6847 -0.8829
  731MOL0     C96423   2.430  10.014   3.720  0.2395  0.0859  0.7016
  731MOL0     C96424   2.362   9.944   3.644  0.3201 -0.4233  1.6842
  731MOL0     C96425   2.972  10.173   4.059 -1.0011  0.5568 -0.4459
  731MOL0     C96426   3.097  10.222   4.016 -0.4868  0.1250 -0.2150
  731MOL0     H96427   3.447  10.540   4.086 -0.5648  1.3714 -0.4616
  731MOL0     H96428   3.690  10.623   4.073  1.3099 -2.3813  0.6765
  731MOL0     H96429   4.014  10.549   3.740 -0.6708 -0.7933 -1.0927
  731MOL0     H96430   3.924  10.405   3.793 -0.0545 -0.8844  1.1877
  731MOL0     H96431   4.010  10.439   4.002 -1.1271  0.2261  0.1296
  731MOL0     H96432   4.037  10.616   3.985 -1.8439 -0.2726 -0.0937
  731MOL0     H96433   4.195  10.408   3.846  0.6459 -0.0016  1.0054
  731MOL0     H96434   4.239  10.486   4.003 -2.0266  0.9061  0.8905
  731MOL0     H96435   4.208  10.643   3.760 -0.4451 -1.0585 -1.0414
  731MOL0     H96436   4.254  10.713   3.899 -0.0529 -1.0866  2.7625
  731MOL0     H96437   4.472  10.602   3.887 -0.3350 -0.5273  0.2111
  731MOL0     H96438   4.431  10.671   3.739  2.2030 -0.0648  0.7180
  731MOL0     H96439   4.410  10.378   3.820 -2.0915 -0.0250 -0.2585
  731MOL0     H96440   4.539  10.440   3.741 -0.2237  0.2964 -0.6614
  731MOL0     H96441   4.396  10.299   3.589 -1.0909 -0.7079 -0.4350
  731MOL0     H96442   4.266  10.424   3.603  0.9631  2.5285  3.9714
  731MOL0     H96443   4.410  10.595   3.505  4.7905  1.1602  0.9872
  731MOL0     H96444   4.379  10.462   3.398  0.9897 -0.5369  0.5302
  731MOL0     H96445   4.673  10.604   3.582  1.7432  0.8948 -0.4964
  731MOL0     H96446   4.952  10.564   3.565 -1.3120 -1.7808  2.2067
  731MOL0     H96447   4.963  10.564   3.385 -0.8779  0.9203  0.8567
  731MOL0     H96448   5.015  10.322   3.550  1.7520 -1.5374 -1.3645
  731MOL0     H96449   5.132  10.435   3.503 -0.4886 -1.5380  4.3601
  731MOL0     H96450   5.043  10.223   3.315 -1.3133  0.1666  0.1854
  731MOL0     H96451   5.010  10.387   3.253  1.7757  1.4131 -0.4165
  731MOL0     H96452   5.236  10.451   3.286  2.2101  0.1406 -0.4761
  731MOL0     H96453   5.234  10.292   3.200  1.4307  1.2608 -0.9831
  731MOL0     H96454   5.437  10.117   3.533 -0.8708  0.9810  0.6805
  731MOL0     H96455   5.685  10.101   3.526  0.6369 -0.6312 -1.8547
  731MOL0     H96456   6.059  10.153   3.185 -0.6561  0.5959 -1.7693
  731MOL0     H96457   6.299  10.151   3.124  1.7802  1.4390 -0.6093
  731MOL0     H96458   6.535  10.208   3.034 -0.4855 -0.8630 -0.0173
  731MOL0     H96459   6.552  10.197   3.213 -1.2401  1.5698  0.6077
  731MOL0     H96460   6.712  10.352   3.014 -3.1757 -2.5760 -1.2266
  731MOL0     H96461   6.756  10.269   3.161  1.4554  0.3061 -2.0771
  731MOL0     H96462   6.625  10.466   3.281  4.0949 -2.9988  2.7754
  731MOL0     H96463   6.637  10.542   3.121  2.6692  0.7614 -0.7783
  731MOL0     H96464   6.898  10.463   3.258 -0.4791  0.6110 -0.7535
  731MOL0     H96465   6.859  10.540   3.107 -1.6488 -2.5121 -0.7089
  731MOL0     H96466   6.726  10.703   3.301 -0.6913 -0.6498  1.9561
  731MOL0     H96467   6.876  10.756   3.234 -2.0154  1.7903 -0.8989
  731MOL0     H96468   6.847  10.559   3.461  1.2456 -0.2230 -0.5811
  731MOL0     H96469   6.857  10.732   3.484  0.3469  0.3230 -0.3118
  731MOL0     H96470   7.081  10.538   3.399  2.2268 -0.1110 -1.7606
  731MOL0     H96471   7.089  10.690   3.312 -0.5848  1.4000  0.8837
  731MOL0     H96472   7.206  10.663   3.537 -0.1137  0.0609  0.3658
  731MOL0     H96473   7.048  10.656   3.612 -1.8853  1.9405 -0.1213
  731MOL0     H96474   6.331  10.554   3.272  1.1411  0.7336 -4.0583
  731MOL0     H96475   6.082  10.542   3.334  0.6676 -1.5280  1.6337
  731MOL0     H96476   5.694  10.425   3.259  1.7762 -0.9322  0.6191
  731MOL0     H96477   5.459  10.443   3.264 -0.3175  0.8109  2.2614
  731MOL0     H96478   3.721  10.425   3.694  2.4571  0.0870  0.1149
  731MOL0     H96479   3.493  10.333   3.715  0.6492 -0.8045  0.4643
  731MOL0     H96480   3.017  10.353   3.722  1.3682  1.7865  2.1658
  731MOL0     H96481   2.796  10.249   3.776  0.6271  4.7770 -0.1095
  731MOL0     H96482   2.705  10.283   4.126  0.7759 -0.4005 -0.7293
  731MOL0     H96483   2.612  10.134   4.162  2.3747  1.3723  2.4364
  731MOL0     H96484   2.495  10.338   4.051  3.2499 -0.5529  3.1654
  731MOL0     H96485   2.595  10.315   3.900 -0.5948 -0.5190 -0.3157
  731MOL0     H96486   2.374  10.225   3.873 -1.1789 -2.2208 -0.5524
  731MOL0     H96487   2.406  10.108   3.998 -0.9700 -1.2152 -1.4869
  731MOL0     H96488   2.585  10.138   3.745  0.7298  0.5506  0.7423
  731MOL0     H96489   2.591  10.006   3.866  0.6747  1.1837  0.9858
  731MOL0     H96490   2.304   9.885   3.576 -4.8038  3.1784  2.4474
  731MOL0     H96491   2.957  10.134   4.159  0.7244 -0.2010 -0.4445
  731MOL0     H96492   3.179  10.201   4.083 -0.7652  0.3785  0.2118
  732MOL0     O96493   7.381   5.733   8.877  0.2341  0.2294  0.0346
  732MOL0     C96494   7.469   5.694   8.792  0.0941  0.3181  0.1257
  732MOL0     O96495   7.453   5.612   8.674  0.1261 -0.5428 -0.1705
  732MOL0     C96496   7.327   5.564   8.657 -0.3243 -0.8558  0.0062
  732MOL0     C96497   7.248   5.625   8.560 -0.5207 -0.4906  0.6652
  732MOL0     C96498   7.114   5.584   8.524  0.1578 -0.4302 -0.8446
  732MOL0     C96499   7.055   5.493   8.605  0.7835 -0.1156 -1.2105
  732MOL0     O96500   6.920   5.482   8.580  0.4608  0.2180 -0.2212
  732MOL0     C96501   6.873   5.349   8.569  0.6500  0.8428 -0.2608
  732MOL0     C96502   6.726   5.334   8.547  0.0302  0.2838  0.4046
  732MOL0     C96503   6.667   5.432   8.442 -0.3188 -0.7317  0.4014
  732MOL0     C96504   6.516   5.416   8.438 -0.3382  0.1881 -0.0881
  732MOL0     C96505   6.444   5.484   8.321 -0.4905 -0.4958 -0.0363
  732MOL0     C96506   6.439   5.404   8.192  0.0310 -0.4794  0.4331
  732MOL0     C96507   6.363   5.477   8.079  0.1259  0.1553 -1.2777
  732MOL0     C96508   6.350   5.389   7.948  0.4860  0.1170 -0.4009
  732MOL0     N96509   6.463   5.307   7.904 -0.6174 -0.0889 -0.1676
  732MOL0     C96510   6.496   5.179   7.949 -0.3273  1.1932  0.4209
  732MOL0     C96511   6.586   5.138   7.865 -0.1419 -0.0178  0.8614
  732MOL0     C96512   6.656   5.005   7.853 -0.7490 -0.1296 -0.3510
  732MOL0     C96513   6.587   4.914   7.749 -0.3047  0.4794  0.0814
  732MOL0     C96514   6.448   4.877   7.794 -0.3297 -0.2393  0.3417
  732MOL0     C96515   6.368   4.803   7.685  0.9216 -0.1436 -0.0939
  732MOL0     O96516   6.301   4.693   7.752 -0.3993 -0.7217  0.3069
  732MOL0     C96517   6.212   4.613   7.684  0.0877  0.4638 -0.3508
  732MOL0     C96518   6.146   4.500   7.744  0.0717  0.7368  0.9926
  732MOL0     C96519   6.075   4.400   7.665  0.8236 -0.1545  0.5529
  732MOL0     C96520   6.061   4.428   7.526 -0.4327 -0.1807 -0.7998
  732MOL0     C96521   5.992   4.323   7.446  0.1652 -0.2661 -0.2018
  732MOL0     O96522   5.916   4.235   7.510 -1.2006  0.2842  0.2700
  732MOL0     C96523   5.888   4.128   7.434  0.2286 -0.3613 -0.3421
  732MOL0     C96524   5.757   4.107   7.388  0.0094  0.2639  0.3802
  732MOL0     C96525   5.720   3.993   7.314 -0.5169 -0.3027 -0.3101
  732MOL0     C96526   5.820   3.895   7.282  0.3879  0.4560  0.0781
  732MOL0     O96527   5.785   3.794   7.193  0.4807 -1.0944  0.2683
  732MOL0     C96528   5.788   3.658   7.243  0.5699 -0.5988  0.1906
  732MOL0     C96529   5.647   3.596   7.272  0.2987 -0.9009  0.3378
  732MOL0     C96530   5.565   3.587   7.138 -0.2174  1.5958 -0.2677
  732MOL0     C96531   5.435   3.502   7.154  0.2639  0.3890 -0.0351
  732MOL0     C96532   5.364   3.506   7.016 -0.2423  0.3511 -0.2912
  732MOL0     C96533   5.231   3.423   7.029 -0.0495  0.0500 -0.5007
  732MOL0     C96534   5.146   3.435   6.910 -0.0864  0.2809  0.4808
  732MOL0     C96535   4.999   3.438   6.933 -0.2598 -0.1299  0.0878
  732MOL0    Cl96536   4.945   3.293   7.003  0.0773 -0.4675  0.0667
  732MOL0     C96537   5.947   3.910   7.333  0.2718  0.3304  0.0772
  732MOL0     C96538   5.978   4.026   7.404 -0.1774  0.1853 -0.5476
  732MOL0     O96539   5.991   4.351   7.329  0.0309  0.0558  0.3039
  732MOL0     C96540   6.119   4.548   7.469 -0.3238 -0.2243  0.1762
  732MOL0     C96541   6.190   4.642   7.546 -0.3064 -0.4125  0.5848
  732MOL0     N96542   6.612   5.243   7.775 -0.3297 -0.4919 -0.0183
  732MOL0     N96543   6.554   5.353   7.807  0.1916  0.7042 -0.2036
  732MOL0     C96544   7.127   5.431   8.715  0.8919 -0.4115 -0.3566
  732MOL0     C96545   7.268   5.461   8.733 -0.0227  0.6583  0.2146
  732MOL0     C96546   7.603   5.737   8.809 -0.3993 -0.5075  0.2858
  732MOL0     C96547   7.648   5.792   8.930 -0.0214  0.0461 -0.0725
  732MOL0     C96548   7.779   5.844   8.940  0.0386 -0.9728 -0.2896
  732MOL0     C96549   7.864   5.853   8.826 -0.0539  0.2387 -0.0459
  732MOL0     O96550   7.988   5.910   8.827  0.0800 -0.1074  0.1550
  732MOL0     C96551   8.033   5.970   8.946  0.3035  0.7292 -0.0260
  732MOL0     C96552   8.163   6.047   8.920  0.8475  0.9348 -0.8394
  732MOL0     C96553   8.266   5.949   8.862  0.7114  0.7217  0.3006
  732MOL0     C96554   8.413   6.004   8.868  0.9328 -1.3499 -0.0862
  732MOL0     C96555   8.427   6.129   8.784  1.0503  0.2024 -0.3305
  732MOL0     C96556   8.446   6.232   8.717  0.1008  0.0519  0.1109
  732MOL0     C96557   7.817   5.789   8.706  1.3348 -0.8485  0.3107
  732MOL0     C96558   7.691   5.732   8.698  0.4539  0.2898  0.1312
  732MOL0     H96559   7.292   5.698   8.493  0.3508  0.0646  1.8134
  732MOL0     H96560   7.058   5.624   8.440  0.0252  0.9952 -0.1181
  732MOL0     H96561   6.908   5.290   8.654  2.8004  0.6012 -1.2434
  732MOL0     H96562   6.911   5.302   8.478  2.3788  1.0759  0.3098
  732MOL0     H96563   6.681   5.343   8.646 -1.2276 -1.1266  0.0037
  732MOL0     H96564   6.703   5.233   8.509  2.2606  0.0083 -0.3405
  732MOL0     H96565   6.714   5.417   8.344 -0.3896  1.2112  0.0408
  732MOL0     H96566   6.689   5.533   8.478 -1.7619  0.5956 -2.1759
  732MOL0     H96567   6.487   5.311   8.449  1.1346 -0.2458 -0.0344
  732MOL0     H96568   6.484   5.473   8.526 -1.7654 -0.2252 -0.3174
  732MOL0     H96569   6.498   5.575   8.291  0.1285 -1.0928 -0.7511
  732MOL0     H96570   6.340   5.506   8.347  0.3083  3.9392  0.1691
  732MOL0     H96571   6.389   5.308   8.211 -2.4770  0.5204 -0.6152
  732MOL0     H96572   6.538   5.379   8.154 -0.0548  0.3299 -0.3589
  732MOL0     H96573   6.267   5.502   8.126  0.9339  0.4321  0.3204
  732MOL0     H96574   6.412   5.573   8.065 -0.4565  0.8951  1.1462
  732MOL0     H96575   6.312   5.447   7.863  1.0836 -1.6853 -1.9790
  732MOL0     H96576   6.270   5.317   7.958 -0.0478  0.6738 -0.5950
  732MOL0     H96577   6.452   5.097   8.005  1.7550 -2.0026 -2.2019
  732MOL0     H96578   6.661   4.951   7.948 -0.9709  3.6951  2.0418
  732MOL0     H96579   6.760   5.025   7.823  0.3378 -0.9459  2.4862
  732MOL0     H96580   6.647   4.823   7.741  2.3907  1.9932  1.6370
  732MOL0     H96581   6.579   4.962   7.651  2.0048 -0.4810 -0.6501
  732MOL0     H96582   6.456   4.818   7.886  1.2774  0.1722  0.5027
  732MOL0     H96583   6.394   4.970   7.813 -1.3968 -0.8599  0.4130
  732MOL0     H96584   6.431   4.759   7.608 -0.9300 -4.4459  0.5499
  732MOL0     H96585   6.302   4.872   7.631  0.0787  0.2818  1.4268
  732MOL0     H96586   6.165   4.475   7.848  1.2697  0.2369  0.6615
  732MOL0     H96587   6.042   4.306   7.707 -3.3366  1.2700  0.9859
  732MOL0     H96588   5.681   4.183   7.402 -1.5146 -0.2498 -3.6841
  732MOL0     H96589   5.616   3.977   7.287 -0.7137  0.1221  0.1716
  732MOL0     H96590   5.846   3.655   7.336  0.2799 -0.8450  0.3648
  732MOL0     H96591   5.836   3.601   7.164  0.3978  0.4065 -0.6635
  732MOL0     H96592   5.594   3.635   7.359  1.1557 -2.5628  1.6621
  732MOL0     H96593   5.666   3.493   7.305 -2.0370 -1.7927 -0.8590
  732MOL0     H96594   5.622   3.536   7.061 -1.5184 -1.5890  0.7206
  732MOL0     H96595   5.527   3.686   7.111 -1.9419  1.6974  2.2481
  732MOL0     H96596   5.460   3.402   7.192  2.8098  1.0412  0.2040
  732MOL0     H96597   5.371   3.534   7.236  0.7722 -0.6815  0.8005
  732MOL0     H96598   5.415   3.455   6.934 -1.9315 -1.6177 -0.2017
  732MOL0     H96599   5.337   3.609   6.992 -0.3168  1.1551  2.8715
  732MOL0     H96600   5.179   3.443   7.123  3.4530 -1.2697  1.9477
  732MOL0     H96601   5.262   3.319   7.044 -2.0831 -0.6260 -0.6568
  732MOL0     H96602   5.178   3.524   6.854  2.5544 -0.4530  0.7082
  732MOL0     H96603   5.169   3.346   6.850 -0.8282 -1.4492  2.6476
  732MOL0     H96604   4.941   3.454   6.842  2.0915  1.8388 -1.1620
  732MOL0     H96605   4.972   3.516   7.005 -1.1168 -1.4190  1.2139
  732MOL0     H96606   6.029   3.839   7.322  1.1949  1.2439  0.8754
  732MOL0     H96607   6.077   4.056   7.438 -0.7119 -1.6882  3.1625
  732MOL0     H96608   6.115   4.564   7.362  1.6396  2.6400  0.4092
  732MOL0     H96609   6.239   4.724   7.494 -0.6811 -0.5916 -0.0533
  732MOL0     H96610   7.075   5.368   8.786 -2.4702  2.3243 -0.1617
  732MOL0     H96611   7.332   5.406   8.802  1.7365  3.4799  1.0095
  732MOL0     H96612   7.584   5.798   9.017 -3.0259  3.2024 -2.2181
  732MOL0     H96613   7.800   5.878   9.041 -0.6691 -0.4620 -0.3067
  732MOL0     H96614   8.063   5.894   9.019  1.8128  0.4037 -0.9478
  732MOL0     H96615   7.961   6.041   8.988  0.8902  1.3893 -0.1152
  732MOL0     H96616   8.144   6.128   8.848  1.5155  1.1979 -0.7287
  732MOL0     H96617   8.210   6.095   9.006  3.3983  1.3072 -2.3294
  732MOL0     H96618   8.240   5.925   8.758  0.4053  1.8128  0.1126
  732MOL0     H96619   8.270   5.851   8.911 -1.8306 -0.2146 -1.1486
  732MOL0     H96620   8.446   6.030   8.969 -0.4121 -1.7388  0.4736
  732MOL0     H96621   8.492   5.934   8.840  0.9243 -1.5414  0.3541
  732MOL0     H96622   8.452   6.319   8.656 -1.0795  0.6869  0.8491
  732MOL0     H96623   7.882   5.800   8.620  2.9430 -1.7747  1.3485
  732MOL0     H96624   7.658   5.684   8.606 -1.2439  1.4829  0.0687
  733MOL0     O96625   2.052   1.109   3.486  0.5302 -0.2254 -0.2655
  733MOL0     C96626   2.033   1.230   3.519  0.0684 -0.7076 -0.4630
  733MOL0     O96627   2.128   1.316   3.560 -0.0819  0.6053 -0.2975
  733MOL0     C96628   2.259   1.275   3.560 -0.1914 -0.5367  0.4094
  733MOL0     C96629   2.352   1.379   3.526  0.4553  0.0029  0.3640
  733MOL0     C96630   2.487   1.358   3.530 -0.1589  0.7005 -0.7413
  733MOL0     C96631   2.542   1.237   3.574  0.6396  0.0082  0.9413
  733MOL0     O96632   2.678   1.220   3.560 -0.4778  0.5409  0.1549
  733MOL0     C96633   2.741   1.116   3.636 -0.3434  0.5243  0.6936
  733MOL0     C96634   2.886   1.094   3.583 -0.2088  0.3627  0.9069
  733MOL0     C96635   2.968   1.223   3.610  0.2631  0.3247 -0.8098
  733MOL0     C96636   3.014   1.221   3.754 -0.5220  0.6076  0.4660
  733MOL0     C96637   3.116   1.328   3.766 -0.2032 -0.4787 -0.2180
  733MOL0     C96638   3.169   1.355   3.909  0.2982 -0.0355  0.3711
  733MOL0     C96639   3.292   1.438   3.894 -0.0064 -0.7582 -0.3962
  733MOL0     C96640   3.303   1.521   4.022 -0.2425  0.2210  0.2176
  733MOL0     N96641   3.419   1.613   4.001  0.3771 -0.1016  0.5533
  733MOL0     C96642   3.553   1.575   4.007 -0.1110  0.4068  0.7194
  733MOL0     C96643   3.626   1.685   4.050  0.2146  0.0285  0.3459
  733MOL0     C96644   3.772   1.692   4.088  0.3454  0.4922 -0.1146
  733MOL0     C96645   3.811   1.834   4.116 -1.2000  0.4153  0.4553
  733MOL0     C96646   3.863   1.900   3.976 -0.2173  0.5794 -0.3618
  733MOL0     C96647   3.934   2.033   4.005  0.0470 -0.0377 -0.2628
  733MOL0     O96648   4.037   2.022   4.101  0.4939  0.0398 -0.4601
  733MOL0     C96649   4.159   1.971   4.064 -0.4426  0.2244 -0.4078
  733MOL0     C96650   4.265   1.983   4.165 -0.3380 -0.0485  0.2709
  733MOL0     C96651   4.392   1.937   4.131 -0.0764  0.1077 -1.0431
  733MOL0     C96652   4.431   1.881   4.008  0.6413 -0.1446  0.3939
  733MOL0     C96653   4.564   1.837   3.980 -0.4196  0.0120  0.1182
  733MOL0     O96654   4.593   1.811   3.854  0.3211 -0.0131  0.3907
  733MOL0     C96655   4.726   1.807   3.812 -0.2485  0.6388 -0.0851
  733MOL0     C96656   4.787   1.685   3.772  0.9249  0.7235 -0.2018
  733MOL0     C96657   4.926   1.679   3.747 -0.1288 -0.2398  0.0867
  733MOL0     C96658   5.002   1.795   3.769 -0.0045  0.2925 -0.0643
  733MOL0     O96659   5.133   1.790   3.734  0.3573  0.1014  0.0897
  733MOL0     C96660   5.229   1.832   3.828 -0.0834  0.2020 -0.1116
  733MOL0     C96661   5.353   1.860   3.760 -0.3250  0.1795 -0.1150
  733MOL0     C96662   5.476   1.852   3.847  0.1217  0.2514  1.3847
  733MOL0     C96663   5.610   1.869   3.771  0.0681  0.0666  0.3611
  733MOL0     C96664   5.711   1.898   3.873 -0.0639 -0.1735 -0.5697
  733MOL0     C96665   5.743   1.768   3.955 -0.6292  0.9590  0.4741
  733MOL0     C96666   5.840   1.791   4.075  0.6583 -0.7527  0.1088
  733MOL0     C96667   5.982   1.761   4.017 -0.2881 -0.8291 -0.7001
  733MOL0    Cl96668   6.111   1.800   4.138 -0.0788  0.1951 -0.2113
  733MOL0     C96669   4.944   1.916   3.808  0.6092 -0.0818  0.7064
  733MOL0     C96670   4.806   1.925   3.815 -0.5994  0.4982 -0.5396
  733MOL0     O96671   4.641   1.837   4.076  0.3525  0.5752 -0.4825
  733MOL0     C96672   4.324   1.870   3.914  0.0235 -0.1126 -0.1170
  733MOL0     C96673   4.188   1.912   3.940  0.0954  1.3252 -0.2014
  733MOL0     N96674   3.529   1.789   4.055  0.3189 -0.7904 -0.6853
  733MOL0     N96675   3.412   1.748   4.027 -0.4558  0.1578  0.2722
  733MOL0     C96676   2.449   1.134   3.601 -0.1429 -0.1175 -0.7036
  733MOL0     C96677   2.311   1.149   3.598 -0.5064 -0.1009  0.2241
  733MOL0     C96678   1.891   1.278   3.501 -0.5614 -0.0785 -0.6062
  733MOL0     C96679   1.784   1.191   3.514  0.1875 -0.5526  0.3412
  733MOL0     C96680   1.647   1.232   3.485 -0.2484  0.7993 -0.8181
  733MOL0     C96681   1.628   1.369   3.453  1.0652 -0.0331 -0.4827
  733MOL0     O96682   1.511   1.417   3.411 -0.1382 -0.0273 -0.4768
  733MOL0     C96683   1.391   1.360   3.464  0.5552  0.3901 -0.2545
  733MOL0     C96684   1.281   1.464   3.471  0.7651 -0.0265 -0.6454
  733MOL0     C96685   1.232   1.496   3.335 -0.7489  0.4339 -0.2772
  733MOL0     C96686   1.105   1.581   3.357 -0.0345 -0.4487 -0.3983
  733MOL0     C96687   1.059   1.623   3.228 -0.3260  0.6369 -0.3068
  733MOL0     C96688   1.022   1.665   3.121 -0.1028 -0.1794  0.3066
  733MOL0     C96689   1.738   1.452   3.438 -0.1499  0.9172 -0.4872
  733MOL0     C96690   1.869   1.413   3.453  0.5422 -0.6308 -0.0332
  733MOL0     H96691   2.312   1.476   3.496  2.8725  0.1997 -2.6985
  733MOL0     H96692   2.545   1.449   3.518 -0.9226  1.3226  0.1435
  733MOL0     H96693   2.682   1.024   3.627  1.1616 -0.4713  0.5575
  733MOL0     H96694   2.750   1.137   3.742 -1.1970  0.7584  0.7221
  733MOL0     H96695   2.885   1.074   3.475 -3.7104  1.7113  0.5637
  733MOL0     H96696   2.943   1.014   3.632  2.2918  1.6006  0.1804
  733MOL0     H96697   2.918   1.318   3.590  0.6893  0.9129  0.7795
  733MOL0     H96698   3.060   1.231   3.551 -0.3127  0.9116 -1.6481
  733MOL0     H96699   2.936   1.239   3.829 -0.6152  1.2873  0.2092
  733MOL0     H96700   3.067   1.129   3.779  0.6287  1.0063 -0.4354
  733MOL0     H96701   3.064   1.416   3.727  0.2080  0.9651  2.3171
  733MOL0     H96702   3.205   1.304   3.707 -0.7338  1.0353 -1.7374
  733MOL0     H96703   3.194   1.261   3.959 -0.4859 -0.8209 -0.6633
  733MOL0     H96704   3.094   1.404   3.972  1.6703  1.2829  1.0282
  733MOL0     H96705   3.380   1.377   3.876  1.1656  0.2694  1.5100
  733MOL0     H96706   3.272   1.503   3.809 -1.4508 -1.3391 -0.5397
  733MOL0     H96707   3.322   1.451   4.104 -0.1109 -0.3306 -0.2827
  733MOL0     H96708   3.213   1.584   4.032 -0.9044 -0.8684  1.4792
  733MOL0     H96709   3.594   1.475   3.994 -0.6116  0.5778 -3.2808
  733MOL0     H96710   3.832   1.638   4.014 -0.5763 -1.4133  0.4408
  733MOL0     H96711   3.790   1.634   4.178 -1.4641 -1.6998 -1.0471
  733MOL0     H96712   3.894   1.827   4.186 -1.8192 -0.2239  1.1432
  733MOL0     H96713   3.733   1.895   4.162 -0.6887  0.8943  0.7007
  733MOL0     H96714   3.914   1.826   3.913  2.3543 -0.0223  2.2087
  733MOL0     H96715   3.775   1.920   3.914 -0.6019 -1.1856 -0.4387
  733MOL0     H96716   3.856   2.105   4.031  0.6446  1.5117 -2.4687
  733MOL0     H96717   3.972   2.090   3.919  3.1074 -0.2335  0.8412
  733MOL0     H96718   4.249   2.019   4.266 -2.0986 -0.3345  0.1286
  733MOL0     H96719   4.468   1.946   4.208  2.0302  0.5394 -3.0664
  733MOL0     H96720   4.724   1.597   3.763  2.1626 -0.7055  3.3024
  733MOL0     H96721   4.972   1.586   3.714 -0.9734 -0.9319  0.8091
  733MOL0     H96722   5.243   1.752   3.902 -1.8547 -0.6900 -0.6620
  733MOL0     H96723   5.200   1.923   3.881 -0.5219  0.2315 -0.3927
  733MOL0     H96724   5.343   1.956   3.709  0.3830  0.7790  0.8361
  733MOL0     H96725   5.363   1.793   3.674  1.3954  2.2670 -1.6646
  733MOL0     H96726   5.473   1.754   3.895  1.0564  0.0112  0.9631
  733MOL0     H96727   5.481   1.931   3.923  1.3749  0.1675  1.3993
  733MOL0     H96728   5.637   1.778   3.717 -1.3128 -0.3674  0.3686
  733MOL0     H96729   5.607   1.959   3.710  1.0625 -2.0302 -3.0359
  733MOL0     H96730   5.684   1.983   3.936 -4.0926 -1.2377 -0.6291
  733MOL0     H96731   5.804   1.930   3.825  1.4460  0.0996  2.3140
  733MOL0     H96732   5.784   1.689   3.891 -1.3758  0.3892  0.6957
  733MOL0     H96733   5.654   1.719   3.994 -0.2515 -0.4501 -0.3621
  733MOL0     H96734   5.834   1.894   4.111  0.2658 -0.5607 -0.4809
  733MOL0     H96735   5.821   1.716   4.152  1.9585 -2.5616 -1.2364
  733MOL0     H96736   5.992   1.829   3.932 -2.4411  1.9493  1.0579
  733MOL0     H96737   5.998   1.658   3.987  3.8228 -0.7136  0.5513
  733MOL0     H96738   5.008   2.003   3.805 -2.2611  2.1822 -0.6387
  733MOL0     H96739   4.760   2.019   3.844 -1.2969 -0.4951  1.8012
  733MOL0     H96740   4.343   1.837   3.812  0.9325  3.0533 -1.1170
  733MOL0     H96741   4.109   1.887   3.870 -0.1673  0.7380  0.2975
  733MOL0     H96742   2.472   1.028   3.612 -0.0173 -0.3909 -3.0877
  733MOL0     H96743   2.245   1.065   3.618  0.3264 -1.2496 -1.5676
  733MOL0     H96744   1.791   1.088   3.549 -0.6850 -0.6419  0.2662
  733MOL0     H96745   1.564   1.162   3.491 -1.0793  1.8300  0.4575
  733MOL0     H96746   1.396   1.315   3.563  0.8682 -1.1130 -0.9206
  733MOL0     H96747   1.371   1.280   3.391 -0.3334  0.2146  0.1765
  733MOL0     H96748   1.202   1.429   3.538 -0.3162 -0.4357 -2.0865
  733MOL0     H96749   1.305   1.559   3.520 -2.0368  0.4475 -0.0520
  733MOL0     H96750   1.216   1.400   3.283  2.2853 -1.8137  2.4838
  733MOL0     H96751   1.300   1.556   3.274  1.2694 -1.2605  0.1997
  733MOL0     H96752   1.025   1.521   3.402  1.9226 -1.3800  2.0888
  733MOL0     H96753   1.128   1.666   3.422 -0.7861 -1.9219  1.9050
  733MOL0     H96754   0.980   1.698   3.028 -0.5664 -2.1110 -0.2110
  733MOL0     H96755   1.711   1.551   3.401  0.8301  0.5880 -2.2034
  733MOL0     H96756   1.953   1.481   3.439  0.1166 -0.3122 -1.1957
  734MOL0     O96757   6.016   6.136   6.845  0.9453  0.5208 -0.8114
  734MOL0     C96758   6.042   6.098   6.729  0.1363  0.7120  0.1145
  734MOL0     O96759   6.162   6.097   6.665  0.2727  0.1289 -0.1434
  734MOL0     C96760   6.287   6.124   6.720  0.3574  0.5033  0.4586
  734MOL0     C96761   6.389   6.115   6.626 -0.2910  1.0764  0.0754
  734MOL0     C96762   6.525   6.164   6.651 -0.0867 -0.0288 -0.4988
  734MOL0     C96763   6.554   6.187   6.786  0.2766  0.5750 -0.0796
  734MOL0     O96764   6.679   6.224   6.830 -0.0777 -0.3689  0.3595
  734MOL0     C96765   6.788   6.169   6.751 -0.1634 -0.1059  0.0538
  734MOL0     C96766   6.920   6.234   6.802 -0.0879  0.2659  0.5475
  734MOL0     C96767   6.914   6.383   6.773  0.4826  0.1303 -0.4016
  734MOL0     C96768   7.046   6.440   6.809 -0.1987  0.4629 -0.4731
  734MOL0     C96769   7.050   6.591   6.831 -0.6928 -0.3201 -0.8591
  734MOL0     C96770   7.198   6.629   6.873  0.7375  0.1026  0.0849
  734MOL0     C96771   7.209   6.768   6.946  0.6838  0.1618  0.7177
  734MOL0     C96772   7.156   6.882   6.857 -0.9850  0.4567 -0.1263
  734MOL0     N96773   7.229   7.011   6.898  0.6161  0.3891 -0.2842
  734MOL0     C96774   7.206   7.089   7.010  0.9306 -0.1682 -0.1905
  734MOL0     C96775   7.297   7.190   7.012  0.0011 -0.0881 -0.0111
  734MOL0     C96776   7.312   7.295   7.113  0.2441  0.4795  0.5923
  734MOL0     C96777   7.216   7.277   7.231  0.3977  0.5674  0.0415
  734MOL0     C96778   7.236   7.397   7.327  0.6207  0.0902 -0.7336
  734MOL0     C96779   7.104   7.444   7.401  0.4446  0.2559 -0.5979
  734MOL0     O96780   7.035   7.492   7.287 -0.0132  0.9272 -0.0889
  734MOL0     C96781   6.908   7.542   7.315  0.1529  0.9410 -0.1623
  734MOL0     C96782   6.840   7.560   7.440  0.3153 -0.3389  0.5555
  734MOL0     C96783   6.710   7.613   7.452 -0.1885 -0.1228 -0.1832
  734MOL0     C96784   6.647   7.662   7.338 -0.5490  0.1601 -0.1949
  734MOL0     C96785   6.505   7.710   7.355 -0.6497 -0.0584 -0.2292
  734MOL0     O96786   6.441   7.697   7.473 -0.1700  0.2134 -0.9385
  734MOL0     C96787   6.340   7.787   7.490 -0.0204  0.0647  0.0843
  734MOL0     C96788   6.362   7.917   7.550  0.7868 -0.3651  0.2522
  734MOL0     C96789   6.248   8.009   7.560 -0.0459  0.1936 -0.5170
  734MOL0     C96790   6.121   7.965   7.508 -0.0457  1.0911 -0.0545
  734MOL0     O96791   6.001   8.028   7.527 -0.3929  0.1788 -0.1138
  734MOL0     C96792   5.998   8.166   7.553 -0.8619  0.1751 -0.8384
  734MOL0     C96793   5.849   8.214   7.566 -0.8555  0.6548  0.7690
  734MOL0     C96794   5.778   8.226   7.435 -0.4257  0.4151 -0.3060
  734MOL0     C96795   5.625   8.254   7.460 -1.0549 -0.9733  0.0964
  734MOL0     C96796   5.541   8.260   7.324 -0.3580  0.5608  0.2884
  734MOL0     C96797   5.400   8.311   7.347  0.3835 -0.2289  0.9227
  734MOL0     C96798   5.323   8.350   7.227  0.4503  0.1474  0.5274
  734MOL0     C96799   5.198   8.424   7.264  0.6835 -0.0686 -0.3091
  734MOL0    Cl96800   5.108   8.475   7.121 -0.0241  0.0000 -0.6590
  734MOL0     C96801   6.110   7.834   7.450 -0.5982 -0.5278 -0.8278
  734MOL0     C96802   6.215   7.750   7.436  0.6418  0.4303  0.1477
  734MOL0     O96803   6.456   7.765   7.255  0.0128  0.1143  0.9517
  734MOL0     C96804   6.716   7.664   7.215  0.1963  1.1559  0.1389
  734MOL0     C96805   6.839   7.594   7.204  0.0462  0.0807  0.3533
  734MOL0     N96806   7.373   7.171   6.896  0.3638 -0.9253 -0.0174
  734MOL0     N96807   7.338   7.059   6.839 -0.7877 -0.2275 -0.2093
  734MOL0     C96808   6.446   6.191   6.880 -0.8369  1.2245 -0.4032
  734MOL0     C96809   6.315   6.158   6.846 -0.8856  0.6961 -0.5611
  734MOL0     C96810   5.934   6.052   6.645  0.3455  0.0349 -0.2335
  734MOL0     C96811   5.807   6.046   6.704 -0.2391  0.4602  0.9270
  734MOL0     C96812   5.699   6.018   6.611 -0.1042  0.0040  0.6265
  734MOL0     C96813   5.719   5.979   6.476  0.0707 -0.4555 -0.4255
  734MOL0     O96814   5.623   5.963   6.387  0.0388  0.9396 -0.0945
  734MOL0     C96815   5.482   5.992   6.411 -0.6043  0.7049 -0.6171
  734MOL0     C96816   5.454   6.139   6.407 -0.5197  0.6514 -0.8884
  734MOL0     C96817   5.308   6.176   6.432 -0.6999  0.8892 -0.6168
  734MOL0     C96818   5.250   6.144   6.577  0.6978 -0.1545  0.4350
  734MOL0     C96819   5.109   6.145   6.554  1.1981 -1.3313  0.4927
  734MOL0     C96820   4.990   6.146   6.540  0.2693 -0.4989  0.3713
  734MOL0     C96821   5.850   5.992   6.428 -0.9670  0.7292 -0.3475
  734MOL0     C96822   5.957   6.026   6.511  0.6958  0.0853 -0.0885
  734MOL0     H96823   6.368   6.079   6.526  1.0636 -1.5769  0.6465
  734MOL0     H96824   6.596   6.162   6.569 -0.5463  0.1906 -0.9108
  734MOL0     H96825   6.775   6.189   6.644  0.2216  1.1665  0.2179
  734MOL0     H96826   6.803   6.063   6.770 -0.1498  0.3690  3.1994
  734MOL0     H96827   7.005   6.197   6.744  0.9427  0.9370  1.5712
  734MOL0     H96828   6.936   6.214   6.909 -2.3856 -1.4388  0.6545
  734MOL0     H96829   6.843   6.427   6.843  3.0873 -0.7797  3.0708
  734MOL0     H96830   6.886   6.408   6.670 -0.1088  1.1515 -0.0038
  734MOL0     H96831   7.074   6.386   6.900  1.4515 -1.4303 -2.0115
  734MOL0     H96832   7.113   6.406   6.730 -1.1100 -1.9619 -0.2827
  734MOL0     H96833   6.985   6.628   6.911  1.3929  1.9966 -0.0857
  734MOL0     H96834   7.020   6.643   6.740 -2.8789 -0.5182 -0.3149
  734MOL0     H96835   7.259   6.618   6.782 -0.2645 -1.3445 -0.4704
  734MOL0     H96836   7.228   6.561   6.953  0.0939 -0.1033  0.1607
  734MOL0     H96837   7.164   6.767   7.045  2.5918  0.5002  1.6382
  734MOL0     H96838   7.317   6.787   6.949  0.5230  1.9887 -1.6398
  734MOL0     H96839   7.054   6.884   6.895 -0.4508 -0.3541  1.4403
  734MOL0     H96840   7.176   6.866   6.750 -2.0764  2.3333 -0.6517
  734MOL0     H96841   7.125   7.082   7.081 -0.8054  0.8680 -1.9681
  734MOL0     H96842   7.305   7.389   7.057  2.6526  1.1093  1.2384
  734MOL0     H96843   7.417   7.298   7.146  1.1204  3.5526 -1.9530
  734MOL0     H96844   7.250   7.180   7.268  2.1833  0.6047 -1.3128
  734MOL0     H96845   7.114   7.280   7.193  0.5982 -2.2439 -0.9328
  734MOL0     H96846   7.319   7.375   7.394  1.0247  2.4884 -0.3770
  734MOL0     H96847   7.273   7.485   7.274 -0.9001  0.3070 -1.5207
  734MOL0     H96848   7.142   7.510   7.480  0.0420 -0.6550  0.3870
  734MOL0     H96849   7.052   7.367   7.458  1.6335  1.8793  3.0256
  734MOL0     H96850   6.890   7.549   7.536 -0.7978  2.2581  1.5206
  734MOL0     H96851   6.665   7.618   7.550  0.3439 -1.0926  0.1274
  734MOL0     H96852   6.456   7.954   7.589 -0.0333  1.3997  0.6561
  734MOL0     H96853   6.255   8.105   7.609 -0.4909  0.0564 -0.1747
  734MOL0     H96854   6.051   8.227   7.479 -1.8343  2.8486  0.5087
  734MOL0     H96855   6.058   8.184   7.642 -0.0078 -0.5923 -1.2405
  734MOL0     H96856   5.842   8.310   7.616  1.2389  0.1560  2.1676
  734MOL0     H96857   5.800   8.132   7.620  0.1090 -0.2305  0.3384
  734MOL0     H96858   5.783   8.134   7.376 -1.6346  0.2091 -0.1216
  734MOL0     H96859   5.810   8.310   7.373 -2.9222  1.6822 -0.0420
  734MOL0     H96860   5.591   8.175   7.528 -1.0693 -4.0002 -3.1093
  734MOL0     H96861   5.613   8.357   7.494  3.2940  0.0215 -0.7591
  734MOL0     H96862   5.542   8.159   7.281  2.1823  0.4112  0.5229
  734MOL0     H96863   5.595   8.320   7.250  0.4231 -0.3001  0.1366
  734MOL0     H96864   5.417   8.404   7.402  0.5728  0.6534 -0.5807
  734MOL0     H96865   5.339   8.242   7.407  0.6226 -1.3381 -0.0721
  734MOL0     H96866   5.390   8.414   7.169 -0.9165  2.4975  1.4402
  734MOL0     H96867   5.304   8.267   7.158 -0.1026 -1.0795  2.0781
  734MOL0     H96868   5.222   8.516   7.318  0.0319  0.3606 -0.7406
  734MOL0     H96869   5.128   8.363   7.323 -0.7187  2.6985  1.0816
  734MOL0     H96870   6.011   7.797   7.426  0.7970 -3.3020 -2.7444
  734MOL0     H96871   6.208   7.653   7.389  0.6624 -1.4415  3.6310
  734MOL0     H96872   6.671   7.715   7.130  0.8872 -1.0779 -1.6576
  734MOL0     H96873   6.900   7.588   7.114  0.8120 -2.1475  0.9552
  734MOL0     H96874   6.477   6.204   6.983  0.4068 -0.4960 -0.5157
  734MOL0     H96875   6.248   6.171   6.930  1.4743  1.3111  1.3287
  734MOL0     H96876   5.790   6.054   6.811  1.1010 -1.4351  1.3396
  734MOL0     H96877   5.595   6.022   6.642 -0.7938 -0.5886 -1.4123
  734MOL0     H96878   5.451   5.948   6.506 -2.4715  3.1347 -0.0125
  734MOL0     H96879   5.437   5.933   6.330  1.7031  0.0362 -1.4946
  734MOL0     H96880   5.515   6.184   6.486 -0.5890  2.0932 -1.6319
  734MOL0     H96881   5.478   6.179   6.308 -2.2711 -0.9962 -2.0483
  734MOL0     H96882   5.245   6.123   6.361 -1.8566 -1.8243  2.2167
  734MOL0     H96883   5.300   6.282   6.403  2.8875  1.2829 -0.7106
  734MOL0     H96884   5.275   6.049   6.624 -0.5807  0.6839  2.9573
  734MOL0     H96885   5.276   6.223   6.648 -1.6857 -0.6707  1.9918
  734MOL0     H96886   4.884   6.138   6.533  0.1573  0.1264  1.1707
  734MOL0     H96887   5.867   5.967   6.323 -0.8588  0.4249 -0.2587
  734MOL0     H96888   6.056   6.014   6.468  0.6131 -1.4507  0.0869
  735MOL0     O96889   3.203  10.624  10.993 -0.5606  0.3167  0.6236
  735MOL0     C96890   3.132  10.574  11.080  0.0950  0.8020 -0.7359
  735MOL0     O96891   3.164  10.488  11.177  0.3993 -0.2685 -0.5229
  735MOL0     C96892   3.289  10.443  11.185 -0.6841  0.6509 -0.0885
  735MOL0     C96893   3.339  10.370  11.079 -0.1356 -0.1075 -0.0441
  735MOL0     C96894   3.480  10.352  11.068  0.0691  0.3429  0.5352
  735MOL0     C96895   3.569  10.412  11.158  0.0655 -0.2727 -0.0586
  735MOL0     O96896   3.707  10.409  11.131  0.8179  0.2760 -0.0826
  735MOL0     C96897   3.742  10.449  11.000  0.9161  0.3430 -0.7395
  735MOL0     C96898   3.891  10.482  10.991  0.0429  0.2230  0.8831
  735MOL0     C96899   3.958  10.405  10.882  0.8640  0.1739 -0.0971
  735MOL0     C96900   4.101  10.471  10.867 -0.0564  0.2910  0.1796
  735MOL0     C96901   4.193  10.435  10.983 -0.2048  0.2468  0.2978
  735MOL0     C96902   4.339  10.475  10.950  0.5048  0.0232  0.2810
  735MOL0     C96903   4.369  10.629  10.934  0.7186  0.0478  0.4528
  735MOL0     C96904   4.513  10.661  10.918 -1.5859 -0.6247 -0.8700
  735MOL0     N96905   4.559  10.805  10.913 -0.3924  0.5857  0.1416
  735MOL0     C96906   4.499  10.904  10.843 -0.1969  0.2736 -0.7617
  735MOL0     C96907   4.561  11.014  10.881 -0.0322 -0.7213 -1.1417
  735MOL0     C96908   4.527  11.162  10.843 -0.6122  0.4254 -0.1464
  735MOL0     C96909   4.416  11.216  10.931 -0.6508 -0.3567 -0.2109
  735MOL0     C96910   4.382  11.363  10.892  0.3052  0.1594  0.2015
  735MOL0     C96911   4.347  11.386  10.748  0.0515  0.3652  0.8008
  735MOL0     O96912   4.282  11.274  10.684 -0.5116 -0.6394 -0.0470
  735MOL0     C96913   4.154  11.279  10.625  0.9984 -0.2043  0.3864
  735MOL0     C96914   4.058  11.381  10.635 -0.6837  0.8200 -0.0744
  735MOL0     C96915   3.929  11.364  10.582 -0.2368  0.4112  0.2980
  735MOL0     C96916   3.905  11.252  10.503 -0.0077  1.0272 -0.0381
  735MOL0     C96917   3.779  11.232  10.422 -0.0263 -0.7010  0.4556
  735MOL0     O96918   3.681  11.327  10.439 -0.0460 -1.2038  0.0960
  735MOL0     C96919   3.549  11.305  10.385 -0.3847  0.0913 -1.2901
  735MOL0     C96920   3.485  11.180  10.372 -0.7898  0.3680 -0.4820
  735MOL0     C96921   3.349  11.169  10.333 -0.5230 -0.5470  0.4838
  735MOL0     C96922   3.277  11.287  10.308 -0.4629  0.4327  0.8011
  735MOL0     O96923   3.150  11.261  10.276  0.2208 -0.3501 -0.3007
  735MOL0     C96924   3.053  11.365  10.302 -0.5126 -0.8579  0.1509
  735MOL0     C96925   2.915  11.311  10.264 -0.4257  0.0372 -0.0273
  735MOL0     C96926   2.793  11.396  10.295  0.3717  0.4237 -0.0904
  735MOL0     C96927   2.658  11.336  10.268  0.0034 -0.7634  0.3488
  735MOL0     C96928   2.548  11.443  10.290 -0.4881  0.0965 -0.1523
  735MOL0     C96929   2.407  11.389  10.271  0.5177 -0.4634  0.5743
  735MOL0     C96930   2.377  11.348  10.121 -0.2379 -0.0345  0.1977
  735MOL0     C96931   2.225  11.318  10.106  0.4545  0.0393  0.6220
  735MOL0    Cl96932   2.210  11.257   9.932  0.2676 -0.3536 -0.1397
  735MOL0     C96933   3.342  11.407  10.319 -1.1124 -0.8888  1.0114
  735MOL0     C96934   3.475  11.414  10.365  0.9959 -0.1652 -0.5535
  735MOL0     O96935   3.771  11.135  10.342 -0.8904 -0.0552 -0.5673
  735MOL0     C96936   3.998  11.146  10.480 -0.7211 -0.8213 -0.4472
  735MOL0     C96937   4.120  11.162  10.554  0.3466  0.8035  0.2968
  735MOL0     N96938   4.651  10.987  10.989 -0.4273  0.4144 -0.3454
  735MOL0     N96939   4.650  10.857  11.009  0.6276 -0.7014  0.2513
  735MOL0     C96940   3.509  10.485  11.269  0.4463 -0.3210  0.6999
  735MOL0     C96941   3.370  10.492  11.291  0.5543  1.0183  0.2023
  735MOL0     C96942   2.993  10.612  11.078  0.0005 -0.0160  0.1951
  735MOL0     C96943   2.906  10.569  11.178  0.1336  0.4182  0.0084
  735MOL0     C96944   2.768  10.596  11.185 -0.5028 -0.3176 -0.1248
  735MOL0     C96945   2.715  10.678  11.081 -0.8193  0.0641  0.1017
  735MOL0     O96946   2.592  10.735  11.070 -0.7366  0.2155 -0.0584
  735MOL0     C96947   2.506  10.732  11.190 -0.2612 -0.4765 -0.2626
  735MOL0     C96948   2.422  10.864  11.211  0.2140  0.2549 -0.1290
  735MOL0     C96949   2.471  10.975  11.096 -0.3031 -1.1219 -0.0623
  735MOL0     C96950   2.401  11.116  11.120 -0.4950  0.2828  0.8379
  735MOL0     C96951   2.267  11.082  11.163  0.5670  0.1737  0.5769
  735MOL0     C96952   2.152  11.067  11.204  1.0820 -0.3788  0.3153
  735MOL0     C96953   2.798  10.706  10.967 -0.0270 -0.3084 -0.3928
  735MOL0     C96954   2.936  10.683  10.970 -0.4067 -1.3617 -0.1443
  735MOL0     H96955   3.279  10.353  10.990 -2.3199  3.9274  0.4303
  735MOL0     H96956   3.508  10.303  10.975 -1.6038 -0.0464  0.1922
  735MOL0     H96957   3.678  10.532  10.969 -2.0449 -1.4062  0.3170
  735MOL0     H96958   3.719  10.363  10.937  0.3710 -0.0364 -0.0244
  735MOL0     H96959   3.943  10.478  11.087 -0.6142 -1.3084  1.2030
  735MOL0     H96960   3.890  10.588  10.961  2.7878  0.2540  0.6045
  735MOL0     H96961   3.906  10.412  10.785  2.3158 -0.1314 -0.9272
  735MOL0     H96962   3.960  10.296  10.889 -1.8061 -0.3466 -3.9724
  735MOL0     H96963   4.145  10.421  10.780  1.0977 -0.8684  1.3579
  735MOL0     H96964   4.097  10.578  10.847 -1.3561  0.0029 -1.2773
  735MOL0     H96965   4.180  10.327  10.975 -0.3668  0.3620 -1.2642
  735MOL0     H96966   4.160  10.471  11.081 -1.2053 -0.5678  0.2732
  735MOL0     H96967   4.364  10.429  10.854  1.0634 -0.5368  0.6801
  735MOL0     H96968   4.397  10.430  11.032  1.1012 -1.9502 -1.1540
  735MOL0     H96969   4.323  10.665  10.841  0.5236 -2.9700 -0.7345
  735MOL0     H96970   4.316  10.681  11.014  3.3959  0.6848  1.9292
  735MOL0     H96971   4.548  10.599  10.836 -0.7836  0.9581 -1.7655
  735MOL0     H96972   4.563  10.628  11.009 -2.1137  1.2075  0.1364
  735MOL0     H96973   4.412  10.895  10.778 -2.9733 -1.6088  2.8521
  735MOL0     H96974   4.496  11.161  10.738  1.8632  1.6641 -0.9669
  735MOL0     H96975   4.619  11.221  10.845 -1.5313  2.0227 -2.0461
  735MOL0     H96976   4.444  11.212  11.037 -1.4536  1.2498  0.1006
  735MOL0     H96977   4.321  11.165  10.918 -0.4927  0.0969 -4.3004
  735MOL0     H96978   4.306  11.393  10.965  1.1904  2.6890  0.1771
  735MOL0     H96979   4.472  11.424  10.904  1.2989 -1.1896 -0.1722
  735MOL0     H96980   4.442  11.410  10.699  0.5284 -1.1284  0.9508
  735MOL0     H96981   4.285  11.476  10.741  2.6610  2.1808 -1.2930
  735MOL0     H96982   4.077  11.477  10.682  0.7993  0.9606 -0.9182
  735MOL0     H96983   3.852  11.436  10.608 -1.1714 -1.6742  4.1116
  735MOL0     H96984   3.546  11.095  10.402  1.5214  2.6334  1.8426
  735MOL0     H96985   3.285  11.082  10.343  0.1779 -1.4333 -2.1238
  735MOL0     H96986   3.065  11.430  10.215  2.9473 -2.0193 -0.3849
  735MOL0     H96987   3.066  11.403  10.404  3.7435  1.2294 -0.9618
  735MOL0     H96988   2.893  11.225  10.329  2.1188  0.2564  1.2442
  735MOL0     H96989   2.921  11.280  10.160 -0.1737 -0.6674  0.1906
  735MOL0     H96990   2.799  11.486  10.232  0.7117  1.7412  1.7387
  735MOL0     H96991   2.798  11.423  10.401 -0.3235  0.6499 -0.1099
  735MOL0     H96992   2.661  11.294  10.167  0.9251  2.5755 -1.1638
  735MOL0     H96993   2.647  11.255  10.340  3.6245 -1.6315  0.1422
  735MOL0     H96994   2.565  11.530  10.227 -0.7509 -0.1498 -0.5662
  735MOL0     H96995   2.552  11.479  10.393  0.2605 -2.0131  0.6033
  735MOL0     H96996   2.334  11.467  10.299  0.9808  0.3854 -0.5236
  735MOL0     H96997   2.399  11.297  10.329 -0.4538  0.1489  1.4639
  735MOL0     H96998   2.407  11.423  10.047 -0.5251 -1.6684 -1.6731
  735MOL0     H96999   2.430  11.253  10.103 -4.0378 -2.1728 -0.8691
  735MOL0     H97000   2.167  11.411  10.114  1.3612  1.1740 -3.5779
  735MOL0     H97001   2.177  11.257  10.183 -0.8952  2.0512  1.4537
  735MOL0     H97002   3.287  11.501  10.311  1.5542  0.7977  1.2656
  735MOL0     H97003   3.506  11.517  10.379 -2.2583  0.6949  1.1794
  735MOL0     H97004   3.978  11.057  10.421 -3.4539 -0.6122  0.0553
  735MOL0     H97005   4.198  11.087  10.551 -1.6763 -1.5861  2.7446
  735MOL0     H97006   3.569  10.540  11.341 -0.7725 -0.5363  1.9198
  735MOL0     H97007   3.317  10.526  11.379  1.9496 -4.5643  3.6806
  735MOL0     H97008   2.936  10.505  11.261 -2.7905  0.6411  1.3572
  735MOL0     H97009   2.715  10.555  11.270  1.2057 -1.5877  0.3823
  735MOL0     H97010   2.574  10.726  11.276  1.4756  2.4482 -1.3194
  735MOL0     H97011   2.442  10.643  11.197  1.4459 -2.0104 -2.6942
  735MOL0     H97012   2.316  10.837  11.217  0.4763 -0.7432  0.1225
  735MOL0     H97013   2.439  10.907  11.310  1.2365  1.0703 -0.6313
  735MOL0     H97014   2.447  10.934  10.998 -0.6600 -1.6573  0.2446
  735MOL0     H97015   2.580  10.981  11.094 -0.1516 -2.6879  1.1060
  735MOL0     H97016   2.454  11.169  11.200 -1.5050 -0.1681  1.8334
  735MOL0     H97017   2.411  11.175  11.028  3.3136 -2.5564 -0.8197
  735MOL0     H97018   2.054  11.046  11.241  2.5012 -5.0294  2.1546
  735MOL0     H97019   2.751  10.757  10.884  0.4204  2.0320  0.7011
  735MOL0     H97020   2.999  10.723  10.891  1.4443 -2.0693  0.9201
  736MOL0     O97021   3.806  10.237   4.837 -0.5299  1.1330  0.8292
  736MOL0     C97022   3.700  10.292   4.812  0.2234  0.1677 -0.2305
  736MOL0     O97023   3.674  10.422   4.821  0.0475  0.1458 -0.4726
  736MOL0     C97024   3.775  10.518   4.809 -0.0197 -0.4332 -1.2136
  736MOL0     C97025   3.805  10.619   4.901 -1.0596 -0.0190  0.4121
  736MOL0     C97026   3.897  10.719   4.878  0.1048 -0.3173  0.9809
  736MOL0     C97027   3.976  10.715   4.767 -0.0128  0.0356 -0.7225
  736MOL0     O97028   4.071  10.807   4.734 -0.3042 -0.7427  0.4139
  736MOL0     C97029   4.122  10.890   4.839  0.3913 -0.3323  0.2432
  736MOL0     C97030   4.243  10.966   4.791 -0.1717 -1.2018 -0.2067
  736MOL0     C97031   4.357  10.882   4.738 -0.4698 -0.4545  0.1328
  736MOL0     C97032   4.464  10.977   4.695 -0.0299 -0.2737  0.4168
  736MOL0     C97033   4.578  10.905   4.625 -0.1021  0.0221  0.2499
  736MOL0     C97034   4.683  11.015   4.580  0.5913  0.2694 -0.3685
  736MOL0     C97035   4.747  11.069   4.705 -0.0470  0.4899 -0.0478
  736MOL0     C97036   4.899  11.077   4.691  0.5103 -0.1747 -0.6556
  736MOL0     N97037   4.982  10.959   4.715  0.9342  0.4996 -0.2731
  736MOL0     C97038   4.989  10.885   4.835  0.0408  0.6978  0.1130
  736MOL0     C97039   5.083  10.796   4.813  0.4708  0.3785 -0.3133
  736MOL0     C97040   5.127  10.692   4.921  0.5611  0.0775  0.0402
  736MOL0     C97041   5.170  10.757   5.054 -0.0905  0.4941 -0.7990
  736MOL0     C97042   5.181  10.643   5.160  0.0346 -0.3230 -0.6295
  736MOL0     C97043   5.066  10.631   5.253  0.4174  0.0545 -0.4096
  736MOL0     O97044   4.936  10.621   5.191 -0.1539  0.4284  0.1901
  736MOL0     C97045   4.833  10.573   5.268  0.4169  0.8209 -0.5032
  736MOL0     C97046   4.720  10.534   5.205  0.6666  0.1067 -0.6878
  736MOL0     C97047   4.604  10.496   5.274 -0.7746 -1.3774  0.8556
  736MOL0     C97048   4.608  10.498   5.415  0.2652  0.2659  0.2786
  736MOL0     C97049   4.490  10.438   5.491 -0.4378 -0.4279 -0.8087
  736MOL0     O97050   4.397  10.357   5.430  0.5598 -0.4757  0.7124
  736MOL0     C97051   4.283  10.315   5.483 -0.9608 -0.1892 -0.2205
  736MOL0     C97052   4.213  10.359   5.593 -0.2355  0.3087 -0.7312
  736MOL0     C97053   4.101  10.301   5.648 -0.0442  0.3079  0.4225
  736MOL0     C97054   4.052  10.184   5.592  0.2641 -0.1988 -0.3517
  736MOL0     O97055   3.945  10.116   5.638 -0.3536  0.1440  1.1241
  736MOL0     C97056   3.852  10.070   5.536  0.7526 -0.1851  0.7543
  736MOL0     C97057   3.724  10.038   5.613  0.2406  0.8421 -0.5929
  736MOL0     C97058   3.621   9.987   5.511  0.3622  0.0968 -0.4891
  736MOL0     C97059   3.493   9.965   5.591 -0.1111 -0.0244  1.4630
  736MOL0     C97060   3.380   9.907   5.500  0.5519 -0.2877 -0.8009
  736MOL0     C97061   3.248   9.924   5.591 -0.8238 -0.5318 -1.0937
  736MOL0     C97062   3.123   9.874   5.526  0.3882 -0.3799  0.3322
  736MOL0     C97063   3.007   9.855   5.615  0.6192  0.1721  0.9077
  736MOL0    Cl97064   3.028   9.693   5.673 -0.0900  0.4512 -0.0022
  736MOL0     C97065   4.113  10.133   5.477 -0.5566 -0.2010 -0.4439
  736MOL0     C97066   4.232  10.194   5.424  0.2259 -0.2742 -0.3592
  736MOL0     O97067   4.491  10.467   5.609  0.4649  0.0826 -0.6226
  736MOL0     C97068   4.723  10.556   5.483  0.3440  0.6830  0.3909
  736MOL0     C97069   4.843  10.581   5.409 -1.3964  0.3090  0.2696
  736MOL0     N97070   5.131  10.816   4.686 -0.5539 -0.2566 -0.2167
  736MOL0     N97071   5.076  10.914   4.623 -0.2041 -0.0393  0.3076
  736MOL0     C97072   3.952  10.613   4.679 -0.5644 -0.2960 -0.0541
  736MOL0     C97073   3.857  10.517   4.694  0.0347 -0.0088 -0.8248
  736MOL0     C97074   3.581  10.192   4.814 -0.6247 -0.2971 -0.1819
  736MOL0     C97075   3.448  10.237   4.817  0.6354  0.1458  0.9817
  736MOL0     C97076   3.341  10.150   4.801  0.1758 -0.2939 -0.1633
  736MOL0     C97077   3.363  10.014   4.786  0.4138 -0.1613  0.1609
  736MOL0     O97078   3.252   9.931   4.772 -0.4536 -0.4971 -0.0225
  736MOL0     C97079   3.267   9.806   4.699 -0.3816  0.2158 -0.4683
  736MOL0     C97080   3.121   9.764   4.664 -0.8687  0.0630 -0.0826
  736MOL0     C97081   3.107   9.631   4.592 -0.4146 -0.4690  0.1348
  736MOL0     C97082   2.963   9.603   4.541  0.0948 -0.0197 -0.1713
  736MOL0     C97083   2.945   9.473   4.465 -0.4486  0.6074  0.4792
  736MOL0     C97084   2.922   9.364   4.410 -0.4726 -0.8387  0.1458
  736MOL0     C97085   3.489   9.970   4.781 -0.4034 -0.1397  0.2758
  736MOL0     C97086   3.601  10.053   4.806  0.7363  0.1717 -0.0996
  736MOL0     H97087   3.758  10.624   4.999 -0.6206  0.0511  0.6233
  736MOL0     H97088   3.897  10.809   4.939  0.1046 -0.3996  1.1033
  736MOL0     H97089   4.136  10.828   4.928 -1.2809 -1.5450 -0.2797
  736MOL0     H97090   4.047  10.963   4.871  1.2670  2.8489 -4.0281
  736MOL0     H97091   4.268  11.026   4.879 -2.1835 -1.7408  0.7941
  736MOL0     H97092   4.207  11.038   4.717  1.2857  0.1136  0.3132
  736MOL0     H97093   4.324  10.815   4.659  2.7104  1.2044 -2.8388
  736MOL0     H97094   4.379  10.819   4.824  1.5651 -2.9942 -2.0961
  736MOL0     H97095   4.432  11.051   4.621  2.3552 -0.2135 -0.6333
  736MOL0     H97096   4.492  11.024   4.790  0.8899  2.2635 -1.0230
  736MOL0     H97097   4.538  10.861   4.533 -0.2119 -1.3910  0.9519
  736MOL0     H97098   4.621  10.823   4.683 -3.8284 -1.1701  1.5955
  736MOL0     H97099   4.652  11.104   4.525  0.6880  0.0826 -0.7358
  736MOL0     H97100   4.750  10.964   4.510 -0.8227  0.8217 -2.2075
  736MOL0     H97101   4.701  11.164   4.736  0.4297  1.4382 -2.0621
  736MOL0     H97102   4.732  10.999   4.788  2.1081 -0.6731 -0.5914
  736MOL0     H97103   4.940  11.142   4.769  0.5445 -2.3839  1.2548
  736MOL0     H97104   4.926  11.108   4.589 -0.1775 -0.6295 -0.9809
  736MOL0     H97105   4.929  10.902   4.924 -0.1759  1.7357 -0.2167
  736MOL0     H97106   5.203  10.625   4.883  0.7025 -1.5756  2.9187
  736MOL0     H97107   5.039  10.629   4.936  0.8671 -0.3047  0.2442
  736MOL0     H97108   5.104  10.833   5.096  0.5812  0.3847  0.4976
  736MOL0     H97109   5.267  10.803   5.036 -0.0214 -0.5750 -3.5565
  736MOL0     H97110   5.206  10.547   5.114 -0.2457 -1.1985  0.9526
  736MOL0     H97111   5.264  10.663   5.229 -0.4536 -1.6480  0.3920
  736MOL0     H97112   5.066  10.713   5.325 -0.6997 -1.3375  1.2578
  736MOL0     H97113   5.086  10.542   5.315  4.9538  0.7863 -0.4648
  736MOL0     H97114   4.725  10.539   5.097 -1.0866 -1.7704 -0.9135
  736MOL0     H97115   4.506  10.474   5.232 -0.8033 -1.5041  0.9851
  736MOL0     H97116   4.243  10.450   5.645 -1.2394 -0.6921  1.7922
  736MOL0     H97117   4.053  10.357   5.728 -1.0640  0.2640 -0.1388
  736MOL0     H97118   3.887   9.982   5.482 -2.3323 -1.5845  0.8073
  736MOL0     H97119   3.839  10.147   5.458 -0.7695  1.0573  2.1529
  736MOL0     H97120   3.694  10.124   5.675 -0.0780  0.6985 -0.5506
  736MOL0     H97121   3.753   9.955   5.679  0.6282 -0.1186 -1.9393
  736MOL0     H97122   3.662   9.892   5.475  2.2959  0.4568  0.5926
  736MOL0     H97123   3.599  10.054   5.427 -2.3992 -0.2330 -0.1072
  736MOL0     H97124   3.505   9.893   5.672  1.5587  0.7480  1.9392
  736MOL0     H97125   3.474  10.055   5.649 -1.8220  1.7473 -1.5779
  736MOL0     H97126   3.388   9.802   5.472 -1.0912 -0.3824 -1.0004
  736MOL0     H97127   3.369   9.968   5.410 -2.7637  0.9512  0.2758
  736MOL0     H97128   3.240  10.029   5.619  1.7835 -0.2395 -1.2227
  736MOL0     H97129   3.274   9.870   5.683  2.4067  0.2505 -1.4380
  736MOL0     H97130   3.095   9.955   5.458 -0.5939 -1.5900 -0.7759
  736MOL0     H97131   3.148   9.787   5.465  0.6133  1.8076 -2.9388
  736MOL0     H97132   2.925   9.861   5.543  0.0640 -0.6410  1.4524
  736MOL0     H97133   3.008   9.939   5.685  1.6286  0.4589  0.5659
  736MOL0     H97134   4.078  10.044   5.427  0.6558 -2.3521  2.2769
  736MOL0     H97135   4.279  10.169   5.329  0.2397  1.2276 -0.7846
  736MOL0     H97136   4.722  10.582   5.588  1.2529 -0.5579  0.7129
  736MOL0     H97137   4.931  10.621   5.459 -0.1239 -0.6971 -1.0840
  736MOL0     H97138   4.013  10.608   4.589  0.7410 -1.6962  0.8770
  736MOL0     H97139   3.856  10.446   4.611 -1.9662  1.5563 -2.2370
  736MOL0     H97140   3.431  10.344   4.821  1.4493  0.2437  2.3993
  736MOL0     H97141   3.235  10.164   4.818  0.0980 -0.1945 -0.7152
  736MOL0     H97142   3.321   9.727   4.753 -1.9741  0.0805  1.0186
  736MOL0     H97143   3.321   9.822   4.605 -2.2715  0.9409 -1.4721
  736MOL0     H97144   3.057   9.748   4.751 -1.5888 -0.9935 -0.7900
  736MOL0     H97145   3.088   9.852   4.609 -0.3584 -0.6210 -1.5255
  736MOL0     H97146   3.131   9.562   4.674 -1.3928 -1.9210 -0.7458
  736MOL0     H97147   3.174   9.627   4.505 -1.5413  2.0740 -0.9527
  736MOL0     H97148   2.897   9.599   4.629  1.7537  3.7694  1.4403
  736MOL0     H97149   2.924   9.683   4.479  1.7007  1.8632  1.1260
  736MOL0     H97150   2.903   9.274   4.355 -1.3475 -0.6812  0.1841
  736MOL0     H97151   3.509   9.863   4.779  4.8729  0.5698  1.5425
  736MOL0     H97152   3.703  10.016   4.808  0.6117 -0.1584  0.2778
  737MOL0     O97153  10.781   1.718  10.502  0.2757  0.1849  0.4616
  737MOL0     C97154  10.744   1.816  10.572 -0.6937  0.0327 -0.2765
  737MOL0     O97155  10.813   1.936  10.576 -0.1532 -0.0024 -0.1051
  737MOL0     C97156  10.945   1.927  10.542 -1.0764 -0.8724 -0.2227
  737MOL0     C97157  10.991   2.030  10.464  0.1436 -0.4583 -1.3327
  737MOL0     C97158  11.122   2.030  10.420 -0.3844 -0.7701  0.9133
  737MOL0     C97159  11.214   1.938  10.462  0.7411 -0.2472 -0.7867
  737MOL0     O97160  11.356   1.947  10.436  0.3082  0.2391 -0.2939
  737MOL0     C97161  11.393   1.860  10.336 -0.1374  0.2173  0.1680
  737MOL0     C97162  11.546   1.841  10.317  0.0284 -0.1144 -0.2532
  737MOL0     C97163  11.608   1.943  10.225 -0.4762  0.2946 -0.3730
  737MOL0     C97164  11.759   1.933  10.221 -0.0598  0.2305  0.1584
  737MOL0     C97165  11.844   2.017  10.123 -0.2599 -0.4035 -0.2078
  737MOL0     C97166  11.832   2.161  10.162  0.3100  0.2285 -0.7718
  737MOL0     C97167  11.913   2.240  10.062 -0.0862  0.2370 -0.0539
  737MOL0     C97168  11.910   2.386  10.074 -0.6818  0.3825 -0.7675
  737MOL0     N97169  11.773   2.443  10.068 -0.0085  0.2041 -0.0787
  737MOL0     C97170  11.715   2.515  10.171 -0.8197 -0.7903  0.4020
  737MOL0     C97171  11.599   2.563  10.115 -0.2965 -0.9016 -0.1036
  737MOL0     C97172  11.501   2.648  10.182  0.1307  1.2618  0.8515
  737MOL0     C97173  11.393   2.559  10.270 -1.3623 -0.1533  1.1775
  737MOL0     C97174  11.311   2.466  10.182 -0.0216  0.2871 -0.1453
  737MOL0     C97175  11.161   2.480  10.213 -0.3934  0.0721 -0.1793
  737MOL0     O97176  11.134   2.455  10.355 -0.9049 -0.4655 -0.7930
  737MOL0     C97177  11.006   2.436  10.405  0.1097 -1.2001  0.2803
  737MOL0     C97178  10.886   2.445  10.327 -0.0026 -0.8166 -0.5231
  737MOL0     C97179  10.755   2.434  10.380  0.1775  0.3787  0.3620
  737MOL0     C97180  10.743   2.409  10.512 -0.3650 -0.6229 -1.0160
  737MOL0     C97181  10.612   2.396  10.573  0.0124  0.5532 -0.0297
  737MOL0     O97182  10.527   2.304  10.520 -0.2108 -0.0997  0.1479
  737MOL0     C97183  10.411   2.289  10.595 -0.3593 -0.1240 -0.4148
  737MOL0     C97184  10.283   2.327  10.553 -0.0628  0.6125 -0.6485
  737MOL0     C97185  10.164   2.281  10.620  1.0816  0.4432 -0.1259
  737MOL0     C97186  10.178   2.185  10.722 -0.5759 -0.2587 -0.0783
  737MOL0     O97187  10.076   2.112  10.774  0.0179  0.2478  0.1808
  737MOL0     C97188   9.962   2.181  10.824 -0.2745  0.0817 -0.1724
  737MOL0     C97189   9.854   2.076  10.864  1.0602 -0.1437 -0.8671
  737MOL0     C97190   9.734   2.138  10.939  0.7477 -0.0470  1.2860
  737MOL0     C97191   9.626   2.022  10.953 -0.1328 -0.9890 -0.3796
  737MOL0     C97192   9.497   2.069  11.024 -0.5892  0.4004 -0.3496
  737MOL0     C97193   9.407   1.954  11.075  0.2142  0.1841  0.2072
  737MOL0     C97194   9.256   2.004  11.101  0.0816  0.7860  0.2306
  737MOL0     C97195   9.249   2.123  11.200 -0.5530 -0.3412 -0.2309
  737MOL0    Cl97196   9.281   2.063  11.366 -0.0448 -0.1850  0.0832
  737MOL0     C97197  10.317   2.146  10.762  0.6867 -0.6168  0.4857
  737MOL0     C97198  10.429   2.195  10.698  0.9919 -0.1776 -0.3947
  737MOL0     O97199  10.600   2.457  10.675 -0.0794  0.2402 -0.1275
  737MOL0     C97200  10.859   2.398  10.596 -0.1957  0.1708 -0.4654
  737MOL0     C97201  10.992   2.401  10.539 -0.6389  0.0177 -0.3038
  737MOL0     N97202  11.582   2.504   9.990  0.9760 -0.0711  0.5165
  737MOL0     N97203  11.688   2.440   9.960 -0.2650  0.9652  0.1327
  737MOL0     C97204  11.171   1.838  10.551  0.3394  0.1295 -0.0910
  737MOL0     C97205  11.037   1.834  10.592 -0.0347  0.1333 -0.3220
  737MOL0     C97206  10.621   1.796  10.653  0.1588  0.3771 -0.4749
  737MOL0     C97207  10.609   1.861  10.779  0.0961  0.0213  0.5213
  737MOL0     C97208  10.494   1.839  10.859  0.2216  0.0368 -0.0119
  737MOL0     C97209  10.389   1.760  10.811  1.1406  0.0135 -0.1684
  737MOL0     O97210  10.281   1.760  10.890  0.0207  0.1236  0.2771
  737MOL0     C97211  10.195   1.651  10.890 -0.5734  0.0437  0.4789
  737MOL0     C97212  10.068   1.695  10.810  0.0951 -0.6185 -0.5047
  737MOL0     C97213   9.950   1.643  10.883  0.5650  0.2796 -1.0412
  737MOL0     C97214   9.816   1.681  10.817 -0.9724  0.3266  0.0564
  737MOL0     C97215   9.700   1.660  10.913  0.4299 -0.8968  0.5148
  737MOL0     C97216   9.606   1.646  10.992  0.8072 -0.4994  0.5090
  737MOL0     C97217  10.405   1.696  10.685  0.1387 -0.7137 -0.2752
  737MOL0     C97218  10.522   1.713  10.615  0.3530  0.4214  0.6550
  737MOL0     H97219  10.929   2.118  10.452  0.7351  0.2154  0.2717
  737MOL0     H97220  11.162   2.113  10.362 -2.6811  0.5664  1.1479
  737MOL0     H97221  11.344   1.881  10.241 -1.2465  2.2677  1.1415
  737MOL0     H97222  11.358   1.762  10.371  1.1542  0.2724  1.7640
  737MOL0     H97223  11.573   1.744  10.273 -2.0250  0.3601 -2.8363
  737MOL0     H97224  11.600   1.860  10.410  1.3460 -0.9431 -0.8290
  737MOL0     H97225  11.569   2.041  10.256  0.6720  0.4600  0.6552
  737MOL0     H97226  11.578   1.914  10.124  1.3584  0.0928 -0.8960
  737MOL0     H97227  11.790   1.933  10.326  1.1488 -0.7956 -0.1679
  737MOL0     H97228  11.783   1.828  10.199  0.2338  0.3397 -0.0498
  737MOL0     H97229  11.817   1.996  10.019 -0.2299 -3.7509  0.3524
  737MOL0     H97230  11.949   1.989  10.138  0.2562 -0.4307 -3.3167
  737MOL0     H97231  11.870   2.174  10.264  0.6208 -1.0265 -0.6993
  737MOL0     H97232  11.726   2.188  10.158  0.1616  0.4707  2.3849
  737MOL0     H97233  12.017   2.208  10.077  0.2190  1.8654  1.6795
  737MOL0     H97234  11.880   2.220   9.960 -1.4297  0.8648  0.2298
  737MOL0     H97235  11.955   2.415   9.979 -0.0491 -1.0679 -0.9320
  737MOL0     H97236  11.970   2.421  10.158 -0.0731  0.6529 -1.3062
  737MOL0     H97237  11.768   2.530  10.264  1.4393 -0.8935 -0.7724
  737MOL0     H97238  11.451   2.708  10.105 -0.5274 -1.0255 -0.5781
  737MOL0     H97239  11.554   2.727  10.237  0.6880  1.3276  0.2235
  737MOL0     H97240  11.324   2.630  10.318 -2.8966 -0.6334 -0.2138
  737MOL0     H97241  11.433   2.503  10.355 -3.7427 -0.7128  2.0260
  737MOL0     H97242  11.333   2.493  10.078 -0.2086  0.4481 -0.1432
  737MOL0     H97243  11.354   2.366  10.193  1.5854  0.9548 -0.0837
  737MOL0     H97244  11.097   2.419  10.148 -0.5367 -1.9183  1.7104
  737MOL0     H97245  11.135   2.580  10.177 -0.5935 -0.0439 -0.3596
  737MOL0     H97246  10.903   2.477  10.225 -0.2082 -1.1878 -0.6750
  737MOL0     H97247  10.681   2.445  10.302  0.7935  3.7750  0.0758
  737MOL0     H97248  10.270   2.392  10.466 -1.6056 -0.8489 -1.5668
  737MOL0     H97249  10.066   2.308  10.583  1.6128 -1.2586 -3.0959
  737MOL0     H97250   9.916   2.256  10.758  0.8249  0.3224 -0.6902
  737MOL0     H97251   9.991   2.250  10.903 -0.4799  3.0157 -2.4950
  737MOL0     H97252   9.911   2.006  10.926 -1.2610 -3.0031 -1.6820
  737MOL0     H97253   9.817   2.018  10.778  0.3739 -0.7523 -0.1759
  737MOL0     H97254   9.679   2.209  10.877  0.4347 -1.7672 -0.5062
  737MOL0     H97255   9.761   2.195  11.029  0.6859 -0.4520  1.5621
  737MOL0     H97256   9.598   1.980  10.856 -2.2360 -0.1189 -0.1912
  737MOL0     H97257   9.681   1.952  11.017  3.2554  0.5635 -1.3872
  737MOL0     H97258   9.430   2.129  10.962 -1.2592  0.1808  0.1437
  737MOL0     H97259   9.518   2.128  11.114  1.0807 -2.4506  1.2904
  737MOL0     H97260   9.453   1.912  11.165 -3.4130  0.5425  2.3881
  737MOL0     H97261   9.408   1.875  10.999 -0.8144  1.3327 -1.0412
  737MOL0     H97262   9.214   2.027  11.002  2.0482  0.9720 -0.5998
  737MOL0     H97263   9.205   1.921  11.150  0.8072  0.1989 -0.0017
  737MOL0     H97264   9.146   2.160  11.205 -0.3975 -0.0386  1.2162
  737MOL0     H97265   9.315   2.206  11.173 -0.8706  0.3679  1.0866
  737MOL0     H97266  10.325   2.073  10.842  2.9495  0.0316  0.9020
  737MOL0     H97267  10.525   2.153  10.723  1.3511  1.5314  1.3854
  737MOL0     H97268  10.863   2.388  10.704  1.5004  1.5866 -0.3540
  737MOL0     H97269  11.080   2.364  10.591 -1.6676 -2.7139 -0.3414
  737MOL0     H97270  11.233   1.755  10.584 -0.9905 -0.1720  1.8248
  737MOL0     H97271  10.986   1.767  10.661  0.2727 -0.4739 -0.6721
  737MOL0     H97272  10.690   1.927  10.807 -0.6200  0.2063  2.2810
  737MOL0     H97273  10.482   1.874  10.960 -1.6791 -1.5290  0.3684
  737MOL0     H97274  10.177   1.618  10.992  2.8829  0.6777  1.4150
  737MOL0     H97275  10.239   1.565  10.838  3.7416  0.8479  2.3374
  737MOL0     H97276  10.064   1.804  10.810  0.6669 -0.5548  1.5027
  737MOL0     H97277  10.068   1.658  10.707 -3.2462  1.1165 -1.2715
  737MOL0     H97278   9.953   1.693  10.980 -0.0523  1.2099 -1.4770
  737MOL0     H97279   9.963   1.535  10.884  1.4389  0.3344  1.9176
  737MOL0     H97280   9.815   1.783  10.779  0.6660  0.2205 -0.3066
  737MOL0     H97281   9.796   1.611  10.735  1.8904 -1.2575  0.5912
  737MOL0     H97282   9.523   1.638  11.059 -1.7434  2.4002 -1.9986
  737MOL0     H97283  10.326   1.640  10.636 -1.7992 -0.7097  2.6407
  737MOL0     H97284  10.539   1.681  10.512  3.6104  0.8426  0.9264
  738MOL0     O97285   1.704   8.331   0.608  0.4333  0.0164 -0.4452
  738MOL0     C97286   1.794   8.395   0.548  0.6897 -0.3831  0.1450
  738MOL0     O97287   1.773   8.514   0.474 -0.2672  0.6733  0.4508
  738MOL0     C97288   1.658   8.545   0.414  0.6581  0.1909  1.0280
  738MOL0     C97289   1.663   8.653   0.325  0.3275 -0.4061  0.8784
  738MOL0     C97290   1.556   8.693   0.251 -0.4166  0.6804  1.1232
  738MOL0     C97291   1.430   8.635   0.265 -0.7045 -0.2779 -0.7502
  738MOL0     O97292   1.328   8.698   0.181 -0.1664 -0.4068 -0.5548
  738MOL0     C97293   1.198   8.695   0.232 -0.1783  0.4756  0.3771
  738MOL0     C97294   1.104   8.735   0.126 -0.2747 -0.0617  0.5126
  738MOL0     C97295   0.951   8.746   0.162  0.1615  0.7935 -0.0706
  738MOL0     C97296   0.866   8.812   0.062  0.1676 -1.0993 -0.2570
  738MOL0     C97297   0.723   8.848   0.102 -0.0129  0.4617 -0.8416
  738MOL0     C97298   0.650   8.916  -0.020  0.3143 -0.6092 -0.5391
  738MOL0     C97299   0.508   8.961   0.020  0.4321  0.6278 -0.0923
  738MOL0     C97300   0.437   9.054  -0.086 -0.7856 -0.4583 -0.5037
  738MOL0     N97301   0.294   9.062  -0.057  0.5849 -0.2008 -0.0715
  738MOL0     C97302   0.225   9.127   0.045 -0.4246 -0.1838  0.0238
  738MOL0     C97303   0.099   9.140   0.003 -1.0208 -0.3339  0.6850
  738MOL0     C97304  -0.019   9.202   0.071  0.0435  0.2430  1.0618
  738MOL0     C97305  -0.134   9.237  -0.010  0.3147  0.0935  0.3659
  738MOL0     C97306  -0.253   9.136  -0.006 -0.9251  0.4699 -0.2148
  738MOL0     C97307  -0.360   9.184  -0.106 -0.8196  0.5548 -0.3337
  738MOL0     O97308  -0.456   9.254  -0.029 -0.4052 -0.8755 -0.1755
  738MOL0     C97309  -0.553   9.318  -0.098 -0.5444 -0.2089 -0.1103
  738MOL0     C97310  -0.597   9.299  -0.232  0.2973 -0.3486  0.4088
  738MOL0     C97311  -0.702   9.378  -0.292 -0.2146  0.0890 -0.0344
  738MOL0     C97312  -0.754   9.488  -0.209 -0.2871 -0.2133  0.0067
  738MOL0     C97313  -0.837   9.590  -0.276  0.5485  0.3119  0.3253
  738MOL0     O97314  -0.937   9.654  -0.193  0.0288 -0.2552 -0.0516
  738MOL0     C97315  -1.026   9.743  -0.258  0.4112  0.6730  1.3243
  738MOL0     C97316  -0.970   9.867  -0.317  0.6365  0.8685 -0.7761
  738MOL0     C97317  -1.058   9.960  -0.370 -0.3824 -0.8681 -0.9245
  738MOL0     C97318  -1.201   9.947  -0.354 -0.7773  0.0485  0.2530
  738MOL0     O97319  -1.296  10.041  -0.401  0.1728 -0.2551  0.2405
  738MOL0     C97320  -1.262  10.114  -0.526 -1.0162 -0.3916 -0.3745
  738MOL0     C97321  -1.384  10.162  -0.603  0.2818 -0.4084 -0.0199
  738MOL0     C97322  -1.455  10.284  -0.539 -1.1979  0.5448  0.2004
  738MOL0     C97323  -1.539  10.369  -0.636 -0.0405  0.3741  0.8651
  738MOL0     C97324  -1.618  10.480  -0.566 -0.0570 -0.5553 -0.2322
  738MOL0     C97325  -1.751  10.455  -0.490  0.0124 -0.3805 -0.2616
  738MOL0     C97326  -1.737  10.420  -0.338 -0.5203 -0.7381  0.2555
  738MOL0     C97327  -1.878  10.420  -0.277 -0.2436  0.0204 -0.0640
  738MOL0    Cl97328  -1.859  10.432  -0.100 -0.3173 -0.2564  0.2106
  738MOL0     C97329  -1.241   9.833  -0.293 -0.1809  0.4839 -0.8802
  738MOL0     C97330  -1.158   9.738  -0.230 -0.1958 -0.1940 -0.2097
  738MOL0     O97331  -0.827   9.606  -0.400 -0.5309 -0.8250  0.1629
  738MOL0     C97332  -0.707   9.510  -0.079 -0.3613  0.3901  1.6758
  738MOL0     C97333  -0.614   9.422  -0.027  0.5052  0.0613  0.0039
  738MOL0     N97334   0.082   9.072  -0.124  0.6678  0.6918 -0.3660
  738MOL0     N97335   0.200   9.025  -0.151  0.5778 -0.5724 -0.8296
  738MOL0     C97336   1.422   8.525   0.350 -0.5254  0.6900 -0.6182
  738MOL0     C97337   1.529   8.483   0.425 -0.1646 -0.7078 -0.3007
  738MOL0     C97338   1.939   8.359   0.571 -0.0710 -0.2473 -0.0542
  738MOL0     C97339   2.051   8.440   0.543 -0.4751  0.2061  0.3361
  738MOL0     C97340   2.185   8.404   0.580 -0.1318  0.3259 -0.0018
  738MOL0     C97341   2.210   8.274   0.629 -0.5330 -0.0114  0.8693
  738MOL0     O97342   2.340   8.233   0.652 -0.6290 -0.5008 -0.3801
  738MOL0     C97343   2.375   8.206   0.796  0.5013 -0.1444 -0.1186
  738MOL0     C97344   2.375   8.343   0.866 -0.2434 -0.2731 -0.4877
  738MOL0     C97345   2.335   8.338   1.024 -0.0584  0.0168  0.6798
  738MOL0     C97346   2.369   8.472   1.096 -0.7482  0.1211 -0.5944
  738MOL0     C97347   2.498   8.457   1.164 -0.0768  0.6407 -0.0218
  738MOL0     C97348   2.608   8.429   1.206  0.3595  0.2800  0.0529
  738MOL0     C97349   2.101   8.183   0.650 -0.3184 -1.0156  0.5498
  738MOL0     C97350   1.965   8.231   0.629 -0.4193 -0.2212  0.3081
  738MOL0     H97351   1.762   8.697   0.322  0.8549 -1.5326 -2.3748
  738MOL0     H97352   1.561   8.769   0.174  1.1927 -1.5256 -1.1235
  738MOL0     H97353   1.186   8.754   0.323  2.7612  1.1149  0.4664
  738MOL0     H97354   1.173   8.590   0.251  2.4209 -0.0623  1.1868
  738MOL0     H97355   1.104   8.661   0.045 -0.2428  2.5217 -2.0003
  738MOL0     H97356   1.147   8.822   0.076  0.4107  0.9451  2.7362
  738MOL0     H97357   0.942   8.811   0.250 -1.8884  0.3162  0.1372
  738MOL0     H97358   0.910   8.647   0.185 -0.1102  0.7993 -0.5102
  738MOL0     H97359   0.916   8.897   0.014 -1.4495  0.6248  0.9927
  738MOL0     H97360   0.852   8.736  -0.015 -1.0351 -3.1815  1.8881
  738MOL0     H97361   0.720   8.919   0.185  0.7036  0.4459 -0.8001
  738MOL0     H97362   0.674   8.759   0.143  3.1392 -1.6796 -1.3906
  738MOL0     H97363   0.636   8.844  -0.101 -0.0107  0.3727 -1.3771
  738MOL0     H97364   0.708   8.998  -0.065  0.8721 -1.8755 -2.2719
  738MOL0     H97365   0.452   8.867   0.025 -0.1348  0.9685  0.1305
  738MOL0     H97366   0.504   9.012   0.117  1.6064 -2.3920  1.6806
  738MOL0     H97367   0.453   9.011  -0.185 -1.1819 -2.1102  0.1235
  738MOL0     H97368   0.473   9.157  -0.083  2.8675 -1.5166 -1.9690
  738MOL0     H97369   0.269   9.164   0.137  1.5596 -1.5810 -0.2963
  738MOL0     H97370   0.008   9.293   0.125  0.8584 -0.0692  1.2041
  738MOL0     H97371  -0.050   9.130   0.148 -3.4669  1.4543  0.9318
  738MOL0     H97372  -0.103   9.235  -0.115 -0.6022  0.2284  0.0832
  738MOL0     H97373  -0.171   9.336   0.020  1.6695 -0.1954  3.3566
  738MOL0     H97374  -0.215   9.037  -0.033  2.8257  1.8110 -0.4999
  738MOL0     H97375  -0.301   9.132   0.092  0.0129 -1.5417  0.2212
  738MOL0     H97376  -0.387   9.083  -0.138  0.3808 -0.3246  1.2376
  738MOL0     H97377  -0.316   9.236  -0.191  2.6369 -1.8416 -0.2065
  738MOL0     H97378  -0.545   9.220  -0.286  0.9628 -0.7669  1.6257
  738MOL0     H97379  -0.742   9.369  -0.392  1.4293 -4.3226 -0.5001
  738MOL0     H97380  -0.864   9.888  -0.326  1.2220 -1.1412  0.5522
  738MOL0     H97381  -1.005  10.038  -0.424 -2.1733 -0.7594 -2.6359
  738MOL0     H97382  -1.215  10.043  -0.595  1.5340  0.8259 -0.0129
  738MOL0     H97383  -1.192  10.193  -0.496 -1.3184 -0.1864 -0.2044
  738MOL0     H97384  -1.465  10.089  -0.617  1.3763 -1.3938 -1.6035
  738MOL0     H97385  -1.351  10.185  -0.705  2.9585 -0.5680  0.7422
  738MOL0     H97386  -1.366  10.344  -0.518 -0.4933  1.0535 -3.4691
  738MOL0     H97387  -1.500  10.256  -0.443 -1.0837 -0.2751  0.0166
  738MOL0     H97388  -1.479  10.413  -0.716 -0.5531  0.1815  0.3658
  738MOL0     H97389  -1.612  10.311  -0.694  1.0235  2.1904 -2.6175
  738MOL0     H97390  -1.637  10.567  -0.629 -1.7118 -0.7764 -0.0922
  738MOL0     H97391  -1.552  10.509  -0.484 -0.1123 -3.1031  0.8224
  738MOL0     H97392  -1.799  10.375  -0.547  0.0105  0.1738 -1.0353
  738MOL0     H97393  -1.807  10.548  -0.495  2.6283  1.5085  2.2523
  738MOL0     H97394  -1.692  10.321  -0.328  2.3114  0.0978 -2.7179
  738MOL0     H97395  -1.671  10.489  -0.285 -0.8837  0.1345 -0.4283
  738MOL0     H97396  -1.916  10.325  -0.315 -3.7411  1.0801  0.4366
  738MOL0     H97397  -1.942  10.505  -0.300  1.5870  1.6362  0.5426
  738MOL0     H97398  -1.349   9.820  -0.288 -0.1963  1.0222  1.0157
  738MOL0     H97399  -1.203   9.666  -0.162 -2.1345  1.6372  0.5244
  738MOL0     H97400  -0.752   9.583  -0.012  0.1886 -0.4847  3.0367
  738MOL0     H97401  -0.573   9.431   0.073 -0.0885 -0.0728  0.2586
  738MOL0     H97402   1.326   8.474   0.346 -0.8661  1.2660  0.0099
  738MOL0     H97403   1.528   8.395   0.488 -0.7448 -0.6570 -0.2378
  738MOL0     H97404   2.037   8.538   0.499 -0.0645 -0.5489 -1.5859
  738MOL0     H97405   2.272   8.465   0.560 -0.5466  1.3514  1.2070
  738MOL0     H97406   2.476   8.167   0.807  0.7956  1.2259  2.8737
  738MOL0     H97407   2.301   8.137   0.838  0.2812 -1.0751 -1.9083
  738MOL0     H97408   2.471   8.389   0.841 -1.1184  0.7890 -2.0488
  738MOL0     H97409   2.305   8.397   0.802 -0.3181 -0.8269 -0.8850
  738MOL0     H97410   2.379   8.251   1.073  1.7927  1.3544  1.5015
  738MOL0     H97411   2.227   8.325   1.021  0.0140 -0.5900 -2.1191
  738MOL0     H97412   2.386   8.554   1.025  2.1451 -1.6777 -2.1877
  738MOL0     H97413   2.292   8.496   1.169 -1.8165  0.3761 -1.7770
  738MOL0     H97414   2.697   8.395   1.255  0.9612 -2.6086 -2.6665
  738MOL0     H97415   2.107   8.085   0.696 -0.4540 -1.2064  0.1664
  738MOL0     H97416   1.884   8.166   0.662  1.5188 -4.5824 -2.6000
  739MOL0     O97417   3.822  11.224   6.896  0.6512  1.0657 -0.4368
  739MOL0     C97418   3.803  11.164   7.002 -0.3921  0.1694  0.3193
  739MOL0     O97419   3.677  11.132   7.059  0.2353  0.1628  0.2315
  739MOL0     C97420   3.561  11.184   6.996  0.1600  0.5134  0.1574
  739MOL0     C97421   3.540  11.309   6.938  0.5495  0.0937 -1.3876
  739MOL0     C97422   3.416  11.342   6.877  0.1957 -0.1475 -0.0218
  739MOL0     C97423   3.300  11.257   6.898 -0.5445 -0.6567  0.5435
  739MOL0     O97424   3.179  11.308   6.854  0.3659 -0.4638  0.1162
  739MOL0     C97425   3.064  11.226   6.860  0.6705 -0.1699 -0.5133
  739MOL0     C97426   2.939  11.297   6.807  0.0519 -0.5024  0.7890
  739MOL0     C97427   2.932  11.267   6.652 -0.1695 -0.5141 -1.2414
  739MOL0     C97428   2.793  11.313   6.597  0.3286 -0.5605 -0.1084
  739MOL0     C97429   2.769  11.249   6.452  0.8694 -0.9327 -0.2469
  739MOL0     C97430   2.624  11.272   6.399  1.1831 -0.1182  0.4580
  739MOL0     C97431   2.587  11.193   6.276  0.4135  0.2449 -0.4356
  739MOL0     C97432   2.682  11.220   6.164 -0.4966  0.6304 -0.4813
  739MOL0     N97433   2.650  11.164   6.044  0.5253 -0.7440  1.1131
  739MOL0     C97434   2.713  11.056   5.991  0.0076  0.2516  0.2438
  739MOL0     C97435   2.657  11.055   5.864 -0.9018  0.3914 -0.5172
  739MOL0     C97436   2.681  10.952   5.764 -0.0669 -0.5054  0.1183
  739MOL0     C97437   2.582  10.835   5.796  0.7022 -0.3732 -0.2146
  739MOL0     C97438   2.530  10.760   5.671 -0.3342 -0.0600  0.5528
  739MOL0     C97439   2.446  10.644   5.729  0.6394  0.1301 -0.4719
  739MOL0     O97440   2.397  10.571   5.619  0.2428 -0.2764  0.0297
  739MOL0     C97441   2.456  10.455   5.588 -0.7251 -0.0132  0.0045
  739MOL0     C97442   2.586  10.421   5.627  0.0974  0.5617  0.0888
  739MOL0     C97443   2.631  10.295   5.594  0.3506 -0.1199 -0.6205
  739MOL0     C97444   2.549  10.204   5.541 -0.1008  0.2736  0.5852
  739MOL0     C97445   2.593  10.061   5.542 -0.0404  0.1158 -0.4289
  739MOL0     O97446   2.494   9.963   5.549  0.5831 -0.2678 -0.1449
  739MOL0     C97447   2.532   9.833   5.521  1.8055  0.1593 -0.5904
  739MOL0     C97448   2.649   9.775   5.570  0.6510 -0.0146  0.5188
  739MOL0     C97449   2.689   9.649   5.534 -0.3346 -0.1172 -0.7404
  739MOL0     C97450   2.607   9.561   5.462 -0.2555  0.2719  1.1547
  739MOL0     O97451   2.643   9.430   5.419  0.0469  0.2452  0.5605
  739MOL0     C97452   2.782   9.399   5.422  0.9647  0.9615  0.1209
  739MOL0     C97453   2.796   9.252   5.350  0.5571 -0.4002 -0.2195
  739MOL0     C97454   2.700   9.149   5.418 -0.5288 -0.4338 -0.3436
  739MOL0     C97455   2.723   9.016   5.346  0.3574 -0.1408  0.0618
  739MOL0     C97456   2.657   8.904   5.436 -0.4664 -0.3311 -0.3267
  739MOL0     C97457   2.675   8.778   5.346 -0.2537  0.5916 -0.1594
  739MOL0     C97458   2.587   8.660   5.396  0.5940  0.3441  0.3232
  739MOL0     C97459   2.564   8.540   5.297 -0.1809 -0.4958  0.0731
  739MOL0    Cl97460   2.441   8.595   5.182  0.0644 -0.3299 -0.4680
  739MOL0     C97461   2.487   9.612   5.411  0.2452 -0.3703 -0.7920
  739MOL0     C97462   2.451   9.749   5.437 -0.0954  0.0028 -0.7185
  739MOL0     O97463   2.711  10.044   5.548 -0.6161  0.2382  0.6868
  739MOL0     C97464   2.418  10.232   5.492  0.6074 -0.3859 -0.8752
  739MOL0     C97465   2.378  10.365   5.514 -0.2722 -0.4102  0.8600
  739MOL0     N97466   2.556  11.142   5.849  0.2205  0.2860 -1.0037
  739MOL0     N97467   2.556  11.208   5.966  0.2823 -0.5785  0.0777
  739MOL0     C97468   3.320  11.137   6.961  1.0786  0.0448 -0.3045
  739MOL0     C97469   3.446  11.100   7.004 -0.8042  0.0903 -0.1271
  739MOL0     C97470   3.931  11.131   7.074  0.1547 -0.8460  0.1632
  739MOL0     C97471   4.052  11.149   7.006 -0.0523  0.9272  0.0564
  739MOL0     C97472   4.182  11.103   7.056  0.1521  0.0900 -0.0538
  739MOL0     C97473   4.190  11.043   7.190  0.8238 -0.7772  0.2787
  739MOL0     O97474   4.286  10.975   7.260 -0.0509 -0.9494 -0.1530
  739MOL0     C97475   4.419  11.012   7.238 -0.8066  0.1246 -0.0143
  739MOL0     C97476   4.452  11.141   7.322  0.1871 -0.2588 -0.7046
  739MOL0     C97477   4.393  11.146   7.472  0.1465 -0.3097  0.5590
  739MOL0     C97478   4.482  11.091   7.587  0.0896 -0.1691  0.8346
  739MOL0     C97479   4.516  10.946   7.562 -0.6586 -0.1314  0.3412
  739MOL0     C97480   4.555  10.830   7.559  0.3067  0.8801  1.1991
  739MOL0     C97481   4.067  11.031   7.261  0.3657  0.0852 -0.1633
  739MOL0     C97482   3.942  11.072   7.200 -0.6791 -0.4699 -0.2819
  739MOL0     H97483   3.609  11.389   6.912 -1.9027  1.8762 -2.8022
  739MOL0     H97484   3.416  11.443   6.838 -2.4752  0.8423  2.2240
  739MOL0     H97485   3.060  11.203   6.967 -0.1148 -1.3054 -0.7695
  739MOL0     H97486   3.060  11.129   6.810  2.3207 -1.0797  0.9723
  739MOL0     H97487   2.932  11.401   6.840 -1.3901 -0.5287  0.5951
  739MOL0     H97488   2.854  11.240   6.845 -0.3860 -0.3651  0.0092
  739MOL0     H97489   2.958  11.162   6.635 -0.2788 -0.8638  0.5779
  739MOL0     H97490   3.005  11.324   6.593 -0.1239  0.7134 -0.0524
  739MOL0     H97491   2.712  11.279   6.662 -0.9837  0.1443 -1.2922
  739MOL0     H97492   2.795  11.423   6.597  4.0161 -0.5149 -0.5272
  739MOL0     H97493   2.801  11.144   6.453 -0.8516 -1.6032 -3.1735
  739MOL0     H97494   2.830  11.307   6.381 -1.7192  2.8027  0.2763
  739MOL0     H97495   2.616  11.378   6.373  1.3240 -0.5073 -1.2875
  739MOL0     H97496   2.541  11.253   6.467 -1.0600 -0.0499 -2.0683
  739MOL0     H97497   2.588  11.089   6.309  2.4602  0.2537 -0.3437
  739MOL0     H97498   2.486  11.216   6.243  0.3519  0.6342  0.0003
  739MOL0     H97499   2.776  11.181   6.204 -0.4512  0.2206 -0.9797
  739MOL0     H97500   2.692  11.326   6.139 -1.4767  0.7613 -0.3357
  739MOL0     H97501   2.792  10.988   6.023  1.8069  1.7896 -0.6831
  739MOL0     H97502   2.785  10.918   5.770  0.3597  0.6117 -0.6303
  739MOL0     H97503   2.648  10.992   5.668  1.0296  1.8303  0.6426
  739MOL0     H97504   2.495  10.877   5.848 -0.2477  0.4479 -2.3465
  739MOL0     H97505   2.641  10.770   5.861  2.3611  0.3258 -0.9603
  739MOL0     H97506   2.470  10.826   5.608  1.4384  0.9542 -0.1553
  739MOL0     H97507   2.617  10.729   5.613 -2.2990 -2.3604 -1.4010
  739MOL0     H97508   2.360  10.680   5.786  0.0039 -1.8150 -0.1142
  739MOL0     H97509   2.502  10.578   5.796 -1.3940 -0.3374  0.8552
  739MOL0     H97510   2.647  10.494   5.679  0.0634  1.5776 -1.2589
  739MOL0     H97511   2.730  10.258   5.619  0.2098 -1.0531 -1.3806
  739MOL0     H97512   2.717   9.823   5.640 -0.8723  0.4480  1.7335
  739MOL0     H97513   2.789   9.627   5.568  0.7221  2.3041 -2.0269
  739MOL0     H97514   2.810   9.398   5.528  0.0556  0.0422  0.3638
  739MOL0     H97515   2.838   9.473   5.363 -1.4206  3.1716  0.4844
  739MOL0     H97516   2.901   9.221   5.353  0.5626 -0.5142 -1.3900
  739MOL0     H97517   2.771   9.266   5.245  1.9678  0.3284 -0.4742
  739MOL0     H97518   2.596   9.180   5.410 -0.4813 -0.6625 -2.7806
  739MOL0     H97519   2.729   9.143   5.523 -0.1177 -0.1664 -0.4380
  739MOL0     H97520   2.674   9.019   5.248 -0.8621  1.6679  0.6708
  739MOL0     H97521   2.831   9.000   5.338  0.8563  2.5485  0.2826
  739MOL0     H97522   2.548   8.912   5.437 -0.5492 -1.3939  0.6757
  739MOL0     H97523   2.682   8.900   5.542  0.2999  2.6503 -0.3005
  739MOL0     H97524   2.781   8.750   5.340 -0.7965 -1.3471 -1.8845
  739MOL0     H97525   2.635   8.803   5.248 -1.0673 -0.1624 -0.0285
  739MOL0     H97526   2.630   8.618   5.488  1.5487 -1.8743 -1.0528
  739MOL0     H97527   2.488   8.699   5.423  0.0734  0.4173 -1.5684
  739MOL0     H97528   2.514   8.454   5.343 -0.3715 -1.0598 -1.1557
  739MOL0     H97529   2.661   8.510   5.256  1.2362  2.2600  1.1467
  739MOL0     H97530   2.423   9.540   5.361  0.7106 -1.4293  0.0852
  739MOL0     H97531   2.349   9.778   5.414 -0.8899 -0.7350  1.5387
  739MOL0     H97532   2.345  10.160   5.457 -0.9122 -1.0143  3.0820
  739MOL0     H97533   2.283  10.414   5.494 -0.3191 -0.6476  0.4931
  739MOL0     H97534   3.240  11.063   6.958 -1.3877  2.5271 -0.8475
  739MOL0     H97535   3.452  11.002   7.049 -0.6310  0.0204 -0.3025
  739MOL0     H97536   4.058  11.183   6.903  0.1167 -1.1239 -0.6557
  739MOL0     H97537   4.274  11.111   6.999 -0.1934 -3.1108 -1.2661
  739MOL0     H97538   4.440  11.028   7.131 -0.6389  0.1648  0.0241
  739MOL0     H97539   4.497  10.942   7.268 -1.7556 -0.6094  0.8139
  739MOL0     H97540   4.558  11.149   7.348 -0.2387  1.2485  0.7577
  739MOL0     H97541   4.415  11.228   7.268 -0.4808 -1.1486 -1.7218
  739MOL0     H97542   4.296  11.096   7.476  0.4982 -1.2108 -1.0191
  739MOL0     H97543   4.390  11.253   7.489  3.0808  0.1704 -1.1692
  739MOL0     H97544   4.575  11.149   7.585 -0.0856  0.1052  0.5412
  739MOL0     H97545   4.439  11.101   7.687 -1.5750 -0.9054  0.2265
  739MOL0     H97546   4.601  10.735   7.541  2.0219  1.4786  2.1324
  739MOL0     H97547   4.050  10.979   7.355  1.3132 -0.5860 -0.3489
  739MOL0     H97548   3.850  11.041   7.247 -0.4138 -0.8749 -0.0165
  740MOL0     O97549   1.342  10.809   5.922  0.0177  0.2509 -0.6798
  740MOL0     C97550   1.352  10.723   6.015 -0.0510 -0.5144 -0.1721
  740MOL0     O97551   1.242  10.692   6.098  0.4793  0.0963  0.3242
  740MOL0     C97552   1.118  10.723   6.058  0.3564 -0.1995 -0.3260
  740MOL0     C97553   1.064  10.687   5.936 -0.0271  0.3010 -0.5973
  740MOL0     C97554   0.937  10.735   5.896  0.0983 -0.0159 -0.7434
  740MOL0     C97555   0.856  10.816   5.971 -0.2363 -0.2058  0.2845
  740MOL0     O97556   0.738  10.857   5.922  0.8642 -0.1068  0.3212
  740MOL0     C97557   0.630  10.884   6.016 -0.0167 -0.0621  1.0308
  740MOL0     C97558   0.495  10.866   5.943 -0.5944 -1.0295 -0.0966
  740MOL0     C97559   0.378  10.892   6.045  0.0840 -0.7488 -0.0081
  740MOL0     C97560   0.252  10.828   5.989  0.2539 -0.4670  0.0641
  740MOL0     C97561   0.137  10.870   6.091 -0.1497  0.2407  1.2722
  740MOL0     C97562  -0.001  10.793   6.065  0.0189 -0.0289  0.3372
  740MOL0     C97563  -0.108  10.831   6.169  0.0066 -0.0079 -0.8411
  740MOL0     C97564  -0.088  10.747   6.296 -0.2102  0.6571  0.3065
  740MOL0     N97565   0.014  10.796   6.400  0.6488 -0.2889  0.3682
  740MOL0     C97566   0.126  10.733   6.441 -0.7178 -0.3928 -0.9110
  740MOL0     C97567   0.182  10.812   6.537  0.2140 -0.0628  0.2468
  740MOL0     C97568   0.312  10.811   6.603 -0.1425 -0.3581 -0.5486
  740MOL0     C97569   0.363  10.668   6.615 -0.0866 -0.4172  0.1633
  740MOL0     C97570   0.466  10.627   6.504  0.4373  0.4079  0.3055
  740MOL0     C97571   0.601  10.696   6.528  0.2895 -0.0228 -0.2938
  740MOL0     O97572   0.703  10.632   6.448  0.6433  0.3025 -0.3707
  740MOL0     C97573   0.833  10.650   6.487 -0.0846 -0.2301 -0.1010
  740MOL0     C97574   0.873  10.750   6.576 -0.5179 -0.8136 -0.7891
  740MOL0     C97575   1.013  10.773   6.596  0.0512  1.0238  0.0923
  740MOL0     C97576   1.110  10.701   6.527 -1.1363 -0.0068 -0.9787
  740MOL0     C97577   1.253  10.739   6.542  0.0173  0.1976 -0.1131
  740MOL0     O97578   1.293  10.833   6.633 -0.2273 -0.8909 -0.9736
  740MOL0     C97579   1.424  10.869   6.659 -1.2042 -0.3185  0.4984
  740MOL0     C97580   1.538  10.793   6.623 -0.5793 -0.0012  0.3453
  740MOL0     C97581   1.668  10.836   6.650 -1.0412 -0.2785 -0.0360
  740MOL0     C97582   1.697  10.953   6.717  0.2338 -0.2238 -0.2602
  740MOL0     O97583   1.829  10.979   6.759 -0.2126  0.2130  0.1394
  740MOL0     C97584   1.865  11.090   6.835  0.5192  0.3233  0.2452
  740MOL0     C97585   1.978  11.060   6.931 -0.1855 -0.0629 -0.5131
  740MOL0     C97586   2.119  11.050   6.855  0.2636  0.1289  0.3532
  740MOL0     C97587   2.114  10.959   6.735 -0.0861 -0.1077  0.0544
  740MOL0     C97588   2.246  10.945   6.663 -0.6009 -0.2372  0.7605
  740MOL0     C97589   2.222  10.874   6.532 -0.2482  0.8207 -0.8150
  740MOL0     C97590   2.348  10.871   6.451  0.4945 -0.1216 -0.0608
  740MOL0     C97591   2.340  10.806   6.315  1.5000  0.2690 -0.5572
  740MOL0    Cl97592   2.377  10.911   6.166  0.2235 -0.4485  0.1523
  740MOL0     C97593   1.586  11.037   6.749  1.0246 -0.7076  0.4151
  740MOL0     C97594   1.454  10.991   6.718 -0.0207  0.0522  1.0576
  740MOL0     O97595   1.322  10.691   6.454  0.0801 -0.2411  0.1107
  740MOL0     C97596   1.064  10.600   6.444 -1.0393  0.8989  0.1491
  740MOL0     C97597   0.927  10.579   6.417 -0.9493  0.0081 -0.1428
  740MOL0     N97598   0.089  10.912   6.563 -0.4788 -0.0489 -0.3524
  740MOL0     N97599   0.001  10.915   6.468  0.0624  0.9735  0.2195
  740MOL0     C97600   0.899  10.847   6.096  0.6396  0.5216 -0.3685
  740MOL0     C97601   1.026  10.805   6.140 -0.1077  0.4738 -0.3765
  740MOL0     C97602   1.481  10.654   6.034 -0.6636  0.0863 -0.9983
  740MOL0     C97603   1.515  10.576   6.147  0.6868 -0.8759 -0.2456
  740MOL0     C97604   1.632  10.507   6.161 -0.8280  0.1969  0.1302
  740MOL0     C97605   1.736  10.527   6.065 -0.6862 -0.1094 -0.2598
  740MOL0     O97606   1.858  10.462   6.110 -0.2900  0.2632 -0.0638
  740MOL0     C97607   1.979  10.482   6.031 -0.2522  0.5334 -0.4345
  740MOL0     C97608   2.084  10.406   6.103  0.6701 -0.2995 -0.3480
  740MOL0     C97609   2.221  10.453   6.068 -0.9859 -1.0722  0.5075
  740MOL0     C97610   2.315  10.344   6.108 -0.4430 -0.0756  0.3259
  740MOL0     C97611   2.453  10.381   6.080  0.0552 -0.0207 -0.0923
  740MOL0     C97612   2.559  10.421   6.045 -0.6291  0.2112  0.4723
  740MOL0     C97613   1.715  10.605   5.953 -0.3575 -0.3987 -0.0864
  740MOL0     C97614   1.591  10.667   5.934 -0.1960 -1.1077 -0.7691
  740MOL0     H97615   1.127  10.623   5.874 -0.7363  1.8040 -3.0176
  740MOL0     H97616   0.903  10.721   5.794 -2.6356  1.7309 -0.1763
  740MOL0     H97617   0.632  10.986   6.055  1.7808 -0.4873  2.1982
  740MOL0     H97618   0.634  10.811   6.098  0.7397 -2.3623 -0.9282
  740MOL0     H97619   0.484  10.761   5.916  0.5334 -1.6667  1.6879
  740MOL0     H97620   0.487  10.928   5.854  0.2450 -0.7530  0.0095
  740MOL0     H97621   0.365  10.992   6.086 -1.9622 -0.1996 -1.8094
  740MOL0     H97622   0.408  10.827   6.128 -0.8761 -0.3838  0.6355
  740MOL0     H97623   0.239  10.858   5.885 -0.7337  1.4032  0.6674
  740MOL0     H97624   0.268  10.720   5.994 -1.3438 -0.6888  1.2045
  740MOL0     H97625   0.118  10.976   6.069 -0.2782 -0.2799 -1.4072
  740MOL0     H97626   0.165  10.850   6.195  1.1104 -1.9156  0.5924
  740MOL0     H97627   0.014  10.685   6.076  0.4918 -0.2440 -1.9898
  740MOL0     H97628  -0.043  10.813   5.966  0.6003 -0.2765  0.0347
  740MOL0     H97629  -0.102  10.938   6.194 -0.0194 -0.4520  1.2717
  740MOL0     H97630  -0.210  10.821   6.131  0.3464  1.6586 -2.3513
  740MOL0     H97631  -0.049  10.647   6.273  0.4378  0.1760  3.1272
  740MOL0     H97632  -0.182  10.747   6.351 -0.4384  3.6980  0.0977
  740MOL0     H97633   0.163  10.640   6.400  0.2607 -0.7369  0.6921
  740MOL0     H97634   0.307  10.845   6.707 -0.0071 -1.9045 -0.0045
  740MOL0     H97635   0.376  10.882   6.552  0.5748 -0.5663  0.0463
  740MOL0     H97636   0.278  10.600   6.624 -1.1112  0.7184 -0.5064
  740MOL0     H97637   0.413  10.656   6.712 -1.1906  1.0578  0.9579
  740MOL0     H97638   0.471  10.518   6.511 -0.1099  0.2665 -1.1542
  740MOL0     H97639   0.420  10.647   6.407 -1.0049  0.0100  0.8657
  740MOL0     H97640   0.624  10.684   6.634  2.3089 -3.3212 -0.9568
  740MOL0     H97641   0.593  10.799   6.491 -1.3656 -1.5202 -4.7225
  740MOL0     H97642   0.801  10.809   6.631  1.5988  1.8768 -0.6604
  740MOL0     H97643   1.034  10.844   6.675  0.3602 -0.1867  1.1339
  740MOL0     H97644   1.535  10.698   6.570  1.5685  0.0859 -0.0286
  740MOL0     H97645   1.759  10.777   6.637  0.3031  0.9007  3.0316
  740MOL0     H97646   1.781  11.127   6.894 -0.9646  0.2694 -1.7327
  740MOL0     H97647   1.895  11.173   6.770 -2.7838  1.4926  0.0152
  740MOL0     H97648   1.952  10.964   6.976 -1.9910  0.4381 -0.4414
  740MOL0     H97649   1.974  11.134   7.011 -1.3759 -3.4466  2.8453
  740MOL0     H97650   2.194  11.011   6.924 -0.3490 -0.0962  0.9040
  740MOL0     H97651   2.163  11.146   6.829  0.8463  1.1511  4.4831
  740MOL0     H97652   2.078  10.858   6.756  0.5021 -0.8576 -2.2242
  740MOL0     H97653   2.038  10.998   6.667 -2.8845  3.2705  4.5673
  740MOL0     H97654   2.330  10.910   6.725 -1.6251  1.1428  3.0312
  740MOL0     H97655   2.277  11.045   6.632 -1.7127 -0.4321 -1.1074
  740MOL0     H97656   2.135  10.922   6.485 -1.7505 -0.3533  0.6310
  740MOL0     H97657   2.198  10.772   6.563  0.8973  0.8459  0.2252
  740MOL0     H97658   2.407  10.962   6.461 -1.1267  1.1122 -1.1136
  740MOL0     H97659   2.416  10.805   6.506  2.8433  0.3147 -2.2083
  740MOL0     H97660   2.236  10.783   6.289  0.8069  1.3791  1.0446
  740MOL0     H97661   2.393  10.711   6.321 -2.1796 -1.8867  1.7317
  740MOL0     H97662   1.595  11.128   6.808 -0.3686 -1.0544  1.2127
  740MOL0     H97663   1.374  11.063   6.730 -1.1995 -0.9826 -0.1547
  740MOL0     H97664   1.134  10.539   6.387 -0.9124  1.3372 -0.1727
  740MOL0     H97665   0.885  10.507   6.347 -5.0027  4.3701 -2.8026
  740MOL0     H97666   0.837  10.901   6.168  0.2827 -1.7419  1.1195
  740MOL0     H97667   1.058  10.843   6.237  1.3532 -0.8498 -0.3099
  740MOL0     H97668   1.437  10.546   6.217  2.3658 -0.8907  1.7170
  740MOL0     H97669   1.649  10.433   6.238  0.8202 -0.4785 -0.8452
  740MOL0     H97670   2.025  10.581   6.024  0.1282  0.3256 -0.9909
  740MOL0     H97671   1.963  10.441   5.931 -0.4422  1.2349 -0.6973
  740MOL0     H97672   2.085  10.422   6.211  5.0395 -0.3213 -0.2016
  740MOL0     H97673   2.058  10.304   6.076 -2.2639  0.6944 -1.7287
  740MOL0     H97674   2.236  10.548   6.120  1.0992 -1.4890  0.7604
  740MOL0     H97675   2.230  10.474   5.961  2.0958  1.3849  1.0990
  740MOL0     H97676   2.307  10.302   6.209 -0.4754 -0.3588  0.2057
  740MOL0     H97677   2.291  10.259   6.045 -0.4968  1.0823 -1.2799
  740MOL0     H97678   2.658  10.446   6.011 -0.1386 -2.9297 -0.7743
  740MOL0     H97679   1.791  10.619   5.877  0.2555  0.9423  0.7518
  740MOL0     H97680   1.577  10.733   5.849  0.7374 -0.2649 -0.2848
  741MOL0     O97681   1.721  11.042   9.298  0.2394  0.1660  0.2243
  741MOL0     C97682   1.759  10.981   9.400 -0.7863 -0.8201 -0.4336
  741MOL0     O97683   1.682  10.942   9.506 -0.5405  0.6123 -0.0021
  741MOL0     C97684   1.545  10.974   9.498 -0.2311 -0.1294 -0.0437
  741MOL0     C97685   1.491  11.037   9.610 -0.1679  0.5363 -0.9767
  741MOL0     C97686   1.350  11.041   9.620 -0.2871  0.0600 -0.6415
  741MOL0     C97687   1.266  10.987   9.523  0.5884 -0.7648 -0.5405
  741MOL0     O97688   1.132  11.007   9.539 -0.0563  0.0621 -0.3067
  741MOL0     C97689   1.022  10.960   9.459 -0.6208 -0.6766  0.3344
  741MOL0     C97690   0.884  10.998   9.516  0.4858  0.0518 -0.0433
  741MOL0     C97691   0.779  10.989   9.405  0.7252  0.5244  0.6830
  741MOL0     C97692   0.781  11.113   9.309  0.4968 -0.8327 -0.3708
  741MOL0     C97693   0.667  11.104   9.197  0.4686 -0.6281 -0.7467
  741MOL0     C97694   0.529  11.092   9.248  0.2928  0.4841  0.0573
  741MOL0     C97695   0.437  11.093   9.125  0.6952 -0.1487 -0.5982
  741MOL0     C97696   0.429  10.955   9.043  0.3348 -0.1409  1.1065
  741MOL0     N97697   0.349  10.950   8.915 -0.9938  0.4659 -0.1476
  741MOL0     C97698   0.253  11.042   8.873 -1.3507 -0.0039  0.0959
  741MOL0     C97699   0.217  10.993   8.752  0.2390 -0.3533  0.2839
  741MOL0     C97700   0.120  11.034   8.641 -0.3626  0.2004 -0.0876
  741MOL0     C97701  -0.026  11.004   8.680  1.3333  0.7107  0.6163
  741MOL0     C97702  -0.114  11.096   8.609 -0.5254 -0.3174  1.2348
  741MOL0     C97703  -0.242  11.139   8.681  0.3106  0.0252  0.7042
  741MOL0     O97704  -0.312  11.237   8.595  0.0457  0.4664 -0.8667
  741MOL0     C97705  -0.446  11.258   8.587  1.0268 -0.3534 -0.2566
  741MOL0     C97706  -0.493  11.333   8.479  0.1231  0.1067  0.3669
  741MOL0     C97707  -0.628  11.365   8.473 -0.3712  0.0600 -0.1231
  741MOL0     C97708  -0.728  11.320   8.568 -0.1540  0.6837  0.1702
  741MOL0     C97709  -0.874  11.337   8.551 -0.9707 -0.6016 -0.3079
  741MOL0     O97710  -0.953  11.286   8.651 -0.4580 -0.1259  0.2796
  741MOL0     C97711  -1.085  11.318   8.642  0.0278  1.3432  0.0556
  741MOL0     C97712  -1.176  11.213   8.644 -0.8366 -0.3471 -0.3216
  741MOL0     C97713  -1.310  11.227   8.644 -0.2515 -0.1943 -0.1101
  741MOL0     C97714  -1.364  11.363   8.644  0.6188  0.6172 -0.9565
  741MOL0     O97715  -1.503  11.382   8.666  0.6983 -0.0774  0.3605
  741MOL0     C97716  -1.578  11.303   8.755  0.0464  0.1589 -0.0359
  741MOL0     C97717  -1.712  11.372   8.782  0.7665 -0.3076 -0.5122
  741MOL0     C97718  -1.795  11.304   8.896  1.0819  1.1887  0.0497
  741MOL0     C97719  -1.921  11.370   8.933  0.5625  0.3205 -0.9289
  741MOL0     C97720  -1.991  11.288   9.039  0.8692  0.5152  0.2073
  741MOL0     C97721  -2.144  11.321   9.051 -0.1299  0.0406 -0.4222
  741MOL0     C97722  -2.214  11.292   8.918 -0.6750 -0.4741  0.0114
  741MOL0     C97723  -2.366  11.276   8.937  0.0921  0.3592  0.0174
  741MOL0    Cl97724  -2.442  11.238   8.778  0.2403  0.2672 -0.2728
  741MOL0     C97725  -1.272  11.470   8.635 -0.3938 -0.6070  1.0125
  741MOL0     C97726  -1.137  11.449   8.631 -0.0386 -0.2831 -0.7732
  741MOL0     O97727  -0.904  11.421   8.464  0.0393 -0.7396 -0.2290
  741MOL0     C97728  -0.676  11.237   8.678 -0.0299 -0.9139 -0.1265
  741MOL0     C97729  -0.535  11.212   8.686 -0.2289 -0.0826 -0.3578
  741MOL0     N97730   0.291  10.873   8.737  1.0597  0.3633 -0.1177
  741MOL0     N97731   0.360  10.846   8.835 -0.6025  0.2410  0.3883
  741MOL0     C97732   1.325  10.928   9.414  0.2740  0.3739  0.6602
  741MOL0     C97733   1.461  10.911   9.404 -0.2263  0.5657 -0.1603
  741MOL0     C97734   1.909  10.959   9.419 -0.1149 -0.4034 -0.2924
  741MOL0     C97735   2.008  11.024   9.344 -0.0761 -0.3362  0.7113
  741MOL0     C97736   2.143  11.017   9.362  0.6318  0.4116 -0.5322
  741MOL0     C97737   2.189  10.931   9.460 -0.4848  0.2701  0.7491
  741MOL0     O97738   2.323  10.917   9.479  0.0169 -0.5760  0.5683
  741MOL0     C97739   2.394  10.805   9.411 -0.7549 -0.4116  0.5857
  741MOL0     C97740   2.427  10.845   9.261 -0.6113 -0.7389 -0.0211
  741MOL0     C97741   2.507  10.978   9.265 -0.2642  0.0212  0.0289
  741MOL0     C97742   2.655  10.964   9.237  1.0307  0.2969 -0.5678
  741MOL0     C97743   2.729  10.907   9.355  0.3925 -0.2936  0.4829
  741MOL0     C97744   2.800  10.849   9.434  0.2545 -0.0505  0.5090
  741MOL0     C97745   2.101  10.865   9.546 -0.4233 -0.2619  0.2331
  741MOL0     C97746   1.965  10.890   9.528  0.3289  1.0815  0.4391
  741MOL0     H97747   1.546  11.084   9.691 -1.5096 -1.0735  0.9512
  741MOL0     H97748   1.314  11.109   9.696  1.4487  2.0186 -1.4551
  741MOL0     H97749   1.028  10.851   9.450 -2.7045 -1.1951  3.4313
  741MOL0     H97750   1.027  11.001   9.358 -2.1677  1.6044  1.0804
  741MOL0     H97751   0.899  11.100   9.552  2.7245  0.3743 -1.6580
  741MOL0     H97752   0.859  10.937   9.603 -1.7032 -2.0533 -1.9818
  741MOL0     H97753   0.683  10.989   9.458  0.1718  1.0517 -0.2988
  741MOL0     H97754   0.776  10.897   9.345  0.7595  1.4043 -0.6951
  741MOL0     H97755   0.750  11.206   9.359 -3.5973 -1.1955 -1.8712
  741MOL0     H97756   0.877  11.132   9.261 -0.1782  0.8861 -1.1232
  741MOL0     H97757   0.684  11.016   9.135  0.8561 -1.6846  0.8005
  741MOL0     H97758   0.692  11.193   9.138  1.0118 -0.1646  0.1607
  741MOL0     H97759   0.500  11.180   9.307 -3.6086 -1.4356  1.3093
  741MOL0     H97760   0.508  11.013   9.321 -1.2441  2.0171  1.3631
  741MOL0     H97761   0.333  11.115   9.151  0.0749  1.0786 -3.6181
  741MOL0     H97762   0.476  11.175   9.064  1.1236  0.9100  1.0275
  741MOL0     H97763   0.370  10.885   9.103  1.5136 -0.8200  1.5149
  741MOL0     H97764   0.531  10.918   9.024 -1.5606 -4.2067 -3.1173
  741MOL0     H97765   0.219  11.120   8.940  3.9566 -0.2010  3.6593
  741MOL0     H97766   0.152  10.973   8.557  0.9158  0.2173  0.3731
  741MOL0     H97767   0.134  11.140   8.618 -0.2643  0.2891  0.3770
  741MOL0     H97768  -0.034  11.001   8.789 -0.0385  0.3179  0.5138
  741MOL0     H97769  -0.048  10.903   8.647  1.7096  1.0898 -0.8704
  741MOL0     H97770  -0.061  11.185   8.573 -2.1871  0.9558  1.8152
  741MOL0     H97771  -0.150  11.040   8.523 -3.8359  0.2601  2.1111
  741MOL0     H97772  -0.223  11.169   8.784  3.9663 -0.0281  0.1538
  741MOL0     H97773  -0.309  11.053   8.693  3.1084 -2.1916  1.3357
  741MOL0     H97774  -0.427  11.389   8.412 -0.5211  2.8253  1.8685
  741MOL0     H97775  -0.664  11.443   8.408 -2.7938  1.3300  2.4940
  741MOL0     H97776  -1.132  11.114   8.639 -0.5471 -0.2004 -0.7051
  741MOL0     H97777  -1.365  11.135   8.629 -1.4058  0.8360 -2.8195
  741MOL0     H97778  -1.526  11.289   8.850  0.9630  0.3453 -0.4984
  741MOL0     H97779  -1.599  11.201   8.719 -0.7739 -0.8081  2.9171
  741MOL0     H97780  -1.783  11.373   8.698  1.6674 -2.4193 -1.3597
  741MOL0     H97781  -1.694  11.473   8.820 -1.6315  1.3639 -3.3274
  741MOL0     H97782  -1.726  11.283   8.978  1.8166  0.5104 -0.7089
  741MOL0     H97783  -1.812  11.200   8.865  0.2159 -0.1558  4.4364
  741MOL0     H97784  -1.911  11.477   8.956  0.8426  1.1484 -4.2517
  741MOL0     H97785  -1.981  11.364   8.841  0.7401  0.1234 -1.0327
  741MOL0     H97786  -1.934  11.296   9.131  2.8758 -1.4036 -0.7752
  741MOL0     H97787  -1.983  11.187   8.997  2.1979  1.5094 -2.1150
  741MOL0     H97788  -2.167  11.426   9.071 -4.1478 -0.5333 -1.3390
  741MOL0     H97789  -2.194  11.265   9.130 -0.5497  1.3679  0.2791
  741MOL0     H97790  -2.194  11.376   8.852  1.8344 -0.8795  0.1759
  741MOL0     H97791  -2.170  11.202   8.873  1.7750  0.4525  0.3886
  741MOL0     H97792  -2.412  11.366   8.977  1.6105  0.7215  1.0562
  741MOL0     H97793  -2.386  11.201   9.013 -1.5464  0.9787  0.2300
  741MOL0     H97794  -1.319  11.565   8.609  2.9738  0.5020 -1.7229
  741MOL0     H97795  -1.066  11.530   8.627  2.4428 -1.6310  4.9919
  741MOL0     H97796  -0.736  11.199   8.761 -1.0292  0.6503 -0.0899
  741MOL0     H97797  -0.489  11.165   8.772 -1.0502  1.4323  0.9669
  741MOL0     H97798   1.256  10.886   9.341  0.9246 -0.9721  0.7779
  741MOL0     H97799   1.504  10.848   9.327 -0.9532  2.6970 -2.4172
  741MOL0     H97800   1.972  11.102   9.278  0.8872 -1.1479 -0.8430
  741MOL0     H97801   2.210  11.070   9.296  0.2012  1.2348 -0.3172
  741MOL0     H97802   2.330  10.717   9.420 -0.0235 -0.8389  1.9857
  741MOL0     H97803   2.483  10.790   9.473 -0.7127 -0.2278  0.5715
  741MOL0     H97804   2.495  10.776   9.211  2.2541  1.8827 -0.0903
  741MOL0     H97805   2.337  10.841   9.199  0.0774 -3.7669 -0.9523
  741MOL0     H97806   2.489  11.036   9.356  1.2831  1.4378 -0.5060
  741MOL0     H97807   2.485  11.036   9.176  1.5039 -3.7264 -3.1440
  741MOL0     H97808   2.671  10.918   9.139  0.9209 -1.0384  0.0141
  741MOL0     H97809   2.694  11.066   9.236 -0.1006  0.7661  0.6443
  741MOL0     H97810   2.862  10.792   9.500 -4.4317 -2.1947  3.5211
  741MOL0     H97811   2.143  10.811   9.631  0.5999  0.9336  0.5217
  741MOL0     H97812   1.899  10.849   9.604 -0.4709 -1.7540 -1.6110
  742MOL0     O97813   7.779   0.717   5.431 -0.1678 -0.4373 -0.4464
  742MOL0     C97814   7.680   0.656   5.451  1.2936 -0.6120 -0.6276
  742MOL0     O97815   7.659   0.576   5.554  0.6723  0.6565  0.1415
  742MOL0     C97816   7.743   0.552   5.659  0.3533 -0.8277 -0.4780
  742MOL0     C97817   7.737   0.425   5.721 -0.9705  0.5519 -0.5858
  742MOL0     C97818   7.825   0.396   5.827 -0.6911 -0.2180  0.8310
  742MOL0     C97819   7.895   0.497   5.894  0.0956  0.9681  0.5961
  742MOL0     O97820   7.972   0.475   6.005 -0.0209 -0.1613  0.1497
  742MOL0     C97821   7.998   0.337   6.046 -0.0219  0.1138  0.0464
  742MOL0     C97822   8.104   0.327   6.149  0.4201 -1.0940  0.4336
  742MOL0     C97823   8.090   0.423   6.273 -0.3667  0.7794  0.8216
  742MOL0     C97824   7.971   0.405   6.364  0.0676 -0.2910  0.1497
  742MOL0     C97825   7.996   0.499   6.498 -1.2024  0.2574  0.1163
  742MOL0     C97826   7.871   0.514   6.571 -0.9749 -0.7942 -0.6335
  742MOL0     C97827   7.763   0.604   6.519 -0.6472 -1.1339  0.4343
  742MOL0     C97828   7.653   0.619   6.618  0.3194  0.5944  0.6282
  742MOL0     N97829   7.516   0.623   6.549 -0.6085 -0.3887  0.0540
  742MOL0     C97830   7.477   0.694   6.444 -0.5515 -0.2919  1.1222
  742MOL0     C97831   7.345   0.672   6.425 -0.8534  0.8624  0.2681
  742MOL0     C97832   7.249   0.747   6.338 -0.1588 -0.3833  1.1655
  742MOL0     C97833   7.183   0.669   6.217 -0.1583  0.7651  0.4276
  742MOL0     C97834   7.141   0.772   6.106 -0.1606 -0.3709 -0.4110
  742MOL0     C97835   7.173   0.720   5.972 -1.0010 -0.0297 -0.0050
  742MOL0     O97836   7.315   0.718   5.952 -0.3074  0.4765  0.8496
  742MOL0     C97837   7.361   0.817   5.871  0.0039 -0.0447 -0.0009
  742MOL0     C97838   7.495   0.803   5.811 -0.0111 -0.4573  0.4419
  742MOL0     C97839   7.554   0.899   5.726  0.3252 -0.3143  0.0817
  742MOL0     C97840   7.481   1.010   5.689 -0.2221  0.4460  0.2464
  742MOL0     C97841   7.534   1.105   5.586 -0.9688  1.0881  0.2531
  742MOL0     O97842   7.646   1.068   5.509  0.3901 -0.2831 -0.6963
  742MOL0     C97843   7.700   1.138   5.402 -0.1405 -0.2888 -0.3280
  742MOL0     C97844   7.782   1.050   5.329 -0.4373  0.7262  0.8615
  742MOL0     C97845   7.837   1.083   5.202 -0.2491  0.6066  0.5328
  742MOL0     C97846   7.833   1.218   5.159  1.0505 -0.5771 -0.2943
  742MOL0     O97847   7.898   1.255   5.042 -0.0335 -0.1540  0.5347
  742MOL0     C97848   8.025   1.314   5.081  0.0735  0.7387  0.2229
  742MOL0     C97849   8.130   1.324   4.973  0.0474 -0.3318 -0.2752
  742MOL0     C97850   8.186   1.193   4.914 -0.0481 -0.5530  0.6267
  742MOL0     C97851   8.273   1.237   4.788 -1.1497  0.1568  0.7749
  742MOL0     C97852   8.348   1.123   4.737  0.7295  0.7889 -0.6227
  742MOL0     C97853   8.476   1.156   4.653  0.2319  0.0242  0.9328
  742MOL0     C97854   8.431   1.152   4.507 -0.5454 -0.2252  0.7476
  742MOL0     C97855   8.531   1.228   4.425 -0.1550 -0.2203 -0.1025
  742MOL0    Cl97856   8.575   1.397   4.480  0.0036  0.0685 -0.0887
  742MOL0     C97857   7.752   1.305   5.240  0.4120 -0.6472 -0.5903
  742MOL0     C97858   7.680   1.273   5.359  0.3371  0.7680 -0.0985
  742MOL0     O97859   7.472   1.213   5.574  0.2867  1.3048 -0.3353
  742MOL0     C97860   7.356   1.036   5.751 -0.9865 -0.0819 -0.2340
  742MOL0     C97861   7.299   0.941   5.848 -0.4434  0.0347  0.8768
  742MOL0     N97862   7.312   0.582   6.518 -0.1322 -0.2425  0.1447
  742MOL0     N97863   7.408   0.561   6.601 -0.0386 -0.1399 -0.1284
  742MOL0     C97864   7.881   0.623   5.839 -0.3429  0.0855 -0.3698
  742MOL0     C97865   7.821   0.649   5.717  0.9665  1.2709 -0.3800
  742MOL0     C97866   7.560   0.684   5.369  0.4288  0.3121  0.3822
  742MOL0     C97867   7.564   0.777   5.262  0.0649  0.1491 -0.2119
  742MOL0     C97868   7.444   0.808   5.185 -0.5051  0.0843 -0.5325
  742MOL0     C97869   7.318   0.752   5.218 -0.1984 -0.0806  0.4895
  742MOL0     O97870   7.205   0.782   5.148  1.0345  0.1739 -0.2160
  742MOL0     C97871   7.164   0.678   5.067  0.5541  0.1682  0.2833
  742MOL0     C97872   7.143   0.737   4.919  0.1602  0.0549 -0.3189
  742MOL0     C97873   7.264   0.753   4.834  0.1317  0.1001 -0.3313
  742MOL0     C97874   7.228   0.821   4.703 -0.0808  1.0732 -0.1005
  742MOL0     C97875   7.131   0.758   4.615 -0.3052  0.3055  1.1977
  742MOL0     C97876   7.057   0.722   4.527  0.3829  0.4249  0.1503
  742MOL0     C97877   7.320   0.665   5.335  0.5374  0.3616 -0.1804
  742MOL0     C97878   7.438   0.618   5.393  0.5449 -0.1490  0.1762
  742MOL0     H97879   7.679   0.350   5.667 -1.5934  0.4775  0.1747
  742MOL0     H97880   7.819   0.302   5.882 -0.7483  0.6345  2.3312
  742MOL0     H97881   8.038   0.272   5.967  1.4630 -0.2839  1.0734
  742MOL0     H97882   7.903   0.300   6.085 -1.4596  0.2712 -2.9650
  742MOL0     H97883   8.198   0.350   6.097 -2.2292  1.9980 -3.5970
  742MOL0     H97884   8.104   0.223   6.183  1.2685 -1.2461  0.0068
  742MOL0     H97885   8.088   0.528   6.240 -1.0839  0.4839 -0.1319
  742MOL0     H97886   8.174   0.411   6.341 -0.1792  0.4521  0.5330
  742MOL0     H97887   7.879   0.427   6.309 -0.0517 -2.9866 -0.8477
  742MOL0     H97888   7.964   0.299   6.390 -0.9366  0.0047  1.2008
  742MOL0     H97889   8.036   0.597   6.471 -1.8514  0.7178  0.7548
  742MOL0     H97890   8.068   0.451   6.564 -0.1713 -2.4597 -2.7439
  742MOL0     H97891   7.890   0.531   6.677 -1.1501  1.1199 -0.8810
  742MOL0     H97892   7.841   0.408   6.570 -0.1868 -1.0243 -1.5554
  742MOL0     H97893   7.797   0.707   6.499 -3.4995 -0.5294 -1.9199
  742MOL0     H97894   7.728   0.556   6.428 -0.4612 -2.8619  1.2336
  742MOL0     H97895   7.685   0.705   6.678  2.3046  0.3544  0.0142
  742MOL0     H97896   7.657   0.527   6.676 -2.1202 -0.7342 -1.1594
  742MOL0     H97897   7.535   0.771   6.394  0.8181 -1.5824  0.6525
  742MOL0     H97898   7.296   0.835   6.293 -3.9334  0.8850 -0.7292
  742MOL0     H97899   7.166   0.779   6.402 -0.7863 -2.1647  1.2868
  742MOL0     H97900   7.092   0.616   6.249  0.4710 -1.4393 -1.2340
  742MOL0     H97901   7.255   0.600   6.173 -0.9803 -1.0960  1.8329
  742MOL0     H97902   7.034   0.785   6.125 -0.6902 -2.7004 -1.4504
  742MOL0     H97903   7.195   0.867   6.113  0.7942 -0.7555 -2.0352
  742MOL0     H97904   7.112   0.774   5.900 -0.6843  0.9771  0.4601
  742MOL0     H97905   7.135   0.618   5.974 -4.1058  1.0233  1.1046
  742MOL0     H97906   7.558   0.715   5.820  2.1068  1.0834  1.4485
  742MOL0     H97907   7.657   0.901   5.692 -0.2650 -0.6792 -1.8884
  742MOL0     H97908   7.803   0.951   5.368 -1.7753  0.1529  0.1696
  742MOL0     H97909   7.908   1.017   5.153 -1.4889  0.1834 -0.7523
  742MOL0     H97910   8.064   1.246   5.157  2.4071  0.1331 -1.4191
  742MOL0     H97911   8.003   1.414   5.121  0.0661  1.4862 -1.5813
  742MOL0     H97912   8.213   1.382   5.014 -1.2319  1.4136 -0.0223
  742MOL0     H97913   8.085   1.379   4.890 -1.7982 -0.3201  0.6625
  742MOL0     H97914   8.100   1.138   4.876 -1.0986  0.0433  2.0857
  742MOL0     H97915   8.229   1.124   4.988 -1.8219 -0.9675  1.3036
  742MOL0     H97916   8.205   1.276   4.711  0.0502  0.2676 -0.2748
  742MOL0     H97917   8.342   1.314   4.825 -0.4053  1.5596 -3.0550
  742MOL0     H97918   8.280   1.057   4.682  1.0588 -0.0617 -0.0351
  742MOL0     H97919   8.362   1.058   4.824  0.1422  0.5671 -0.6866
  742MOL0     H97920   8.552   1.082   4.681 -2.2176 -1.5328  4.1574
  742MOL0     H97921   8.520   1.251   4.683 -0.3387  0.0711  1.6600
  742MOL0     H97922   8.425   1.051   4.465  0.0007  0.7212 -1.7651
  742MOL0     H97923   8.331   1.191   4.487  0.2860  0.1765 -3.5218
  742MOL0     H97924   8.486   1.244   4.326  0.5101 -0.7501 -0.5050
  742MOL0     H97925   8.621   1.167   4.411 -0.8858 -1.0047 -1.8256
  742MOL0     H97926   7.747   1.405   5.198  0.5600 -0.2726  0.2565
  742MOL0     H97927   7.607   1.342   5.400 -2.3567 -1.0793 -1.5308
  742MOL0     H97928   7.296   1.120   5.718 -0.0596 -0.4024 -2.9218
  742MOL0     H97929   7.214   0.988   5.897 -0.0073 -0.6458  2.3428
  742MOL0     H97930   7.937   0.709   5.872  0.1657 -0.5241  0.4001
  742MOL0     H97931   7.830   0.745   5.669  0.1387  1.1186 -0.8637
  742MOL0     H97932   7.663   0.805   5.229  1.5062 -2.5925  1.3937
  742MOL0     H97933   7.458   0.878   5.104  1.4130  0.6746  0.2327
  742MOL0     H97934   7.075   0.629   5.109  2.1407 -1.4739  1.8977
  742MOL0     H97935   7.238   0.599   5.057  1.8634  1.4058 -0.0561
  742MOL0     H97936   7.078   0.670   4.860 -1.0972 -0.3385  1.4396
  742MOL0     H97937   7.081   0.826   4.935  0.5004 -0.0085  1.6041
  742MOL0     H97938   7.315   0.658   4.813 -1.5366 -1.1231  0.8954
  742MOL0     H97939   7.329   0.827   4.882  0.9250 -0.9361  0.2493
  742MOL0     H97940   7.197   0.923   4.728  2.0067  1.4695  1.0975
  742MOL0     H97941   7.314   0.830   4.636  0.0093  0.7322 -0.0343
  742MOL0     H97942   7.001   0.717   4.435  1.7525  1.0783 -0.7511
  742MOL0     H97943   7.230   0.625   5.382 -0.5615  2.5335 -0.2741
  742MOL0     H97944   7.428   0.553   5.480  2.1609 -0.2097  0.3399
  743MOL0     O97945  11.096   4.778   3.935  0.4823 -0.1447  0.1363
  743MOL0     C97946  11.047   4.683   3.869  0.2468 -0.2880 -0.5613
  743MOL0     O97947  10.922   4.672   3.832 -0.1428  0.2070  0.1364
  743MOL0     C97948  10.837   4.772   3.810 -0.5104  0.5766  0.6125
  743MOL0     C97949  10.702   4.749   3.805 -0.2692 -0.2862 -0.0079
  743MOL0     C97950  10.615   4.843   3.748 -0.1730 -0.0929  0.3859
  743MOL0     C97951  10.666   4.963   3.700  0.3225  0.7492  0.0208
  743MOL0     O97952  10.576   5.051   3.643  0.6270 -0.2923  0.4062
  743MOL0     C97953  10.618   5.174   3.600 -0.9571 -0.0036 -0.3333
  743MOL0     C97954  10.498   5.246   3.543 -0.5135  0.1526  0.3149
  743MOL0     C97955  10.405   5.312   3.643  0.9329 -0.9056 -0.4628
  743MOL0     C97956  10.328   5.428   3.566 -1.0231  1.0738 -0.1841
  743MOL0     C97957  10.238   5.518   3.659 -0.0316  0.9855  0.2917
  743MOL0     C97958  10.107   5.439   3.692  0.3709  0.2241 -1.9643
  743MOL0     C97959  10.003   5.527   3.769 -0.9572 -1.5407  0.7025
  743MOL0     C97960   9.909   5.607   3.679 -0.0194 -0.4085  0.9637
  743MOL0     N97961   9.808   5.687   3.756 -0.0818  0.4916 -0.2736
  743MOL0     C97962   9.771   5.673   3.889 -0.5188 -0.9603 -0.1497
  743MOL0     C97963   9.657   5.745   3.894 -1.0292 -0.6716 -1.2295
  743MOL0     C97964   9.566   5.750   4.010  0.5746 -0.8538 -0.0422
  743MOL0     C97965   9.460   5.643   4.011  1.0497  0.0272 -0.0011
  743MOL0     C97966   9.372   5.658   4.140  1.0439  0.1149 -0.2609
  743MOL0     C97967   9.263   5.554   4.167 -0.4613 -0.0995 -0.1655
  743MOL0     O97968   9.208   5.582   4.297  0.0214 -1.0124 -0.0155
  743MOL0     C97969   9.092   5.531   4.349  0.4004  0.7746  0.4546
  743MOL0     C97970   8.997   5.456   4.270  0.4525  0.9486  0.2323
  743MOL0     C97971   8.884   5.403   4.327  0.0576 -0.1054  0.5387
  743MOL0     C97972   8.862   5.411   4.468  0.7375 -0.4218  0.1875
  743MOL0     C97973   8.751   5.340   4.526  0.6804 -0.4075 -0.2807
  743MOL0     O97974   8.664   5.281   4.441  0.3602 -0.5379 -0.8066
  743MOL0     C97975   8.559   5.194   4.482 -0.1550 -0.0782  0.1230
  743MOL0     C97976   8.526   5.131   4.605  0.6991 -0.4995 -0.3033
  743MOL0     C97977   8.414   5.047   4.619 -0.4670 -0.8561  0.2482
  743MOL0     C97978   8.328   5.022   4.519 -0.4677  0.3166  0.7369
  743MOL0     O97979   8.222   4.941   4.536  0.3822  0.3698 -0.0785
  743MOL0     C97980   8.179   4.895   4.662  0.0270 -0.3749  0.0210
  743MOL0     C97981   8.071   4.795   4.644  0.5551 -0.5750  0.0141
  743MOL0     C97982   8.023   4.749   4.785 -0.0806 -0.2033  0.5867
  743MOL0     C97983   7.881   4.670   4.764 -0.6362 -0.0062  0.1990
  743MOL0     C97984   7.823   4.631   4.895 -0.1033 -0.2047  0.5387
  743MOL0     C97985   7.919   4.528   4.963  0.7344 -1.1072 -0.9868
  743MOL0     C97986   7.867   4.484   5.097  0.6890 -0.4227 -0.1634
  743MOL0     C97987   7.849   4.594   5.198  0.0981 -0.6933  0.5201
  743MOL0    Cl97988   7.674   4.623   5.215  0.0046 -0.2694  0.1126
  743MOL0     C97989   8.361   5.074   4.399  0.4749  1.1402 -0.9914
  743MOL0     C97990   8.463   5.168   4.384 -1.5244 -0.5618 -0.1377
  743MOL0     O97991   8.747   5.333   4.649  0.5888 -0.2954 -0.4491
  743MOL0     C97992   8.948   5.488   4.541 -0.8466 -0.1416 -0.1638
  743MOL0     C97993   9.065   5.546   4.483  0.1571  0.7985  0.8340
  743MOL0     N97994   9.636   5.817   3.779  0.4865 -0.5506  0.0932
  743MOL0     N97995   9.731   5.782   3.700  0.2231  0.8414 -0.9474
  743MOL0     C97996  10.803   4.992   3.706 -0.3608 -0.4632  0.7845
  743MOL0     C97997  10.891   4.902   3.764  0.4053  0.0167  0.0168
  743MOL0     C97998  11.142   4.571   3.838  0.1888 -0.0251  0.0733
  743MOL0     C97999  11.265   4.557   3.893 -1.0272 -0.1611  0.7318
  743MOL0     C98000  11.347   4.451   3.855  0.0205  0.8867  0.6370
  743MOL0     C98001  11.315   4.358   3.754  1.1500  0.2119 -1.2034
  743MOL0     O98002  11.398   4.255   3.724 -0.6192  0.5126  0.1269
  743MOL0     C98003  11.347   4.159   3.630 -0.0855  0.2865  0.0199
  743MOL0     C98004  11.464   4.065   3.606 -0.2309  0.2064  0.0956
  743MOL0     C98005  11.439   3.963   3.494 -0.4914 -0.4124 -0.6561
  743MOL0     C98006  11.552   3.872   3.440  0.1086 -0.3798 -0.4310
  743MOL0     C98007  11.643   3.827   3.547 -0.2691  0.3940 -0.8881
  743MOL0     C98008  11.716   3.796   3.644 -0.1639 -0.6326  0.6426
  743MOL0     C98009  11.197   4.379   3.693  1.0811  0.3404 -0.4991
  743MOL0     C98010  11.106   4.485   3.739  0.1929 -0.5569  0.6645
  743MOL0     H98011  10.649   4.664   3.849 -2.4157  1.7034  1.4630
  743MOL0     H98012  10.508   4.828   3.752  0.0100 -1.2224  2.5233
  743MOL0     H98013  10.699   5.164   3.527 -0.3814 -0.9269  0.4044
  743MOL0     H98014  10.661   5.228   3.685  0.8627  1.4438 -2.0920
  743MOL0     H98015  10.435   5.170   3.496  0.2879  0.0890 -0.6962
  743MOL0     H98016  10.531   5.315   3.465 -0.6278 -0.0652  0.0719
  743MOL0     H98017  10.460   5.363   3.722 -0.3833  0.6413 -0.4920
  743MOL0     H98018  10.338   5.243   3.696  1.5556  1.0616  3.1607
  743MOL0     H98019  10.398   5.494   3.515  0.6575  0.9593  1.8520
  743MOL0     H98020  10.273   5.401   3.476 -1.2552 -1.0765  0.5281
  743MOL0     H98021  10.209   5.612   3.612 -0.1873  1.4178  1.2175
  743MOL0     H98022  10.278   5.561   3.751  0.3703 -0.1240  0.6501
  743MOL0     H98023  10.135   5.360   3.763  1.4355  1.1193 -1.3532
  743MOL0     H98024  10.061   5.383   3.610 -2.9736  0.9970 -0.7567
  743MOL0     H98025   9.942   5.455   3.824 -0.7691 -1.7500  0.6403
  743MOL0     H98026  10.052   5.594   3.840 -0.9244 -1.4973  0.6394
  743MOL0     H98027   9.849   5.550   3.607  1.1738  0.7007 -0.9823
  743MOL0     H98028   9.976   5.672   3.622 -0.1460 -0.8372  0.3117
  743MOL0     H98029   9.821   5.615   3.965  1.0992 -0.6429 -0.9290
  743MOL0     H98030   9.516   5.847   4.002  0.9688 -0.4175  2.1745
  743MOL0     H98031   9.623   5.746   4.103  2.0959 -1.9831 -0.9616
  743MOL0     H98032   9.503   5.542   4.013 -0.1770 -0.5154  0.1079
  743MOL0     H98033   9.396   5.662   3.925 -1.9133 -1.3161  1.7391
  743MOL0     H98034   9.438   5.645   4.227  0.6177  0.8673  0.1872
  743MOL0     H98035   9.327   5.757   4.139 -1.2308 -0.8576  0.7598
  743MOL0     H98036   9.315   5.458   4.166 -0.2725 -0.0317 -2.7917
  743MOL0     H98037   9.188   5.553   4.087 -0.8105  0.8174  0.1352
  743MOL0     H98038   9.009   5.441   4.163 -1.2798  3.7004 -0.4533
  743MOL0     H98039   8.834   5.343   4.252  0.1127  0.8702 -0.2991
  743MOL0     H98040   8.583   5.144   4.697 -2.9724 -0.6268  2.2206
  743MOL0     H98041   8.408   5.012   4.722 -3.7047  3.4770  1.8197
  743MOL0     H98042   8.143   4.982   4.718  0.9432  1.2141 -1.7421
  743MOL0     H98043   8.262   4.851   4.717  0.8388 -0.8705 -1.5328
  743MOL0     H98044   8.106   4.707   4.589  1.8393 -0.1120  0.0500
  743MOL0     H98045   7.988   4.834   4.583 -1.9705 -0.4270  3.2825
  743MOL0     H98046   8.001   4.830   4.855 -0.0346  1.1103 -0.8828
  743MOL0     H98047   8.099   4.686   4.832  0.0574  0.0115  0.6499
  743MOL0     H98048   7.815   4.741   4.714 -0.2490 -0.2559 -0.6924
  743MOL0     H98049   7.902   4.591   4.691  3.6914  2.9617 -2.2477
  743MOL0     H98050   7.728   4.581   4.873 -0.9701  0.7744  1.9616
  743MOL0     H98051   7.800   4.720   4.953 -2.0740  0.6142 -1.3748
  743MOL0     H98052   8.019   4.568   4.976 -0.4506  1.3431  1.8076
  743MOL0     H98053   7.928   4.441   4.897 -2.0439 -1.4623 -1.0448
  743MOL0     H98054   7.774   4.427   5.088  1.5695 -1.8564 -0.4703
  743MOL0     H98055   7.928   4.405   5.142 -0.7488 -2.1897 -1.1711
  743MOL0     H98056   7.909   4.677   5.160  2.0747 -1.5366  1.6423
  743MOL0     H98057   7.895   4.555   5.290  1.5802 -0.5885 -0.1462
  743MOL0     H98058   8.284   5.056   4.325  0.0293  0.0689 -0.2912
  743MOL0     H98059   8.480   5.212   4.286 -3.4629  0.5363 -0.0405
  743MOL0     H98060   8.927   5.510   4.645 -0.7369  4.1564 -0.8469
  743MOL0     H98061   9.138   5.606   4.537  1.8640  0.8196 -1.3468
  743MOL0     H98062  10.850   5.086   3.676  1.8581 -2.1862 -1.6185
  743MOL0     H98063  10.996   4.925   3.778  0.5353  0.5622 -1.7201
  743MOL0     H98064  11.290   4.625   3.974  4.0301 -3.6192  2.5708
  743MOL0     H98065  11.441   4.424   3.901 -0.1749 -0.7984  0.1245
  743MOL0     H98066  11.313   4.195   3.532  0.0162  0.5696  0.0870
  743MOL0     H98067  11.263   4.096   3.661  1.4046 -3.9761 -3.5493
  743MOL0     H98068  11.552   4.121   3.574  1.0764 -1.4754  0.5868
  743MOL0     H98069  11.479   4.005   3.696 -1.6268 -3.2677 -1.7982
  743MOL0     H98070  11.409   4.017   3.404  2.4841  0.7515 -1.0670
  743MOL0     H98071  11.363   3.893   3.531 -0.6138 -0.3325 -0.7560
  743MOL0     H98072  11.510   3.785   3.388  0.2380 -0.4860 -0.3621
  743MOL0     H98073  11.610   3.937   3.373 -3.2168  5.8619  1.9754
  743MOL0     H98074  11.765   3.762   3.733 -0.6172  2.7106  2.3346
  743MOL0     H98075  11.160   4.306   3.622 -1.5211 -0.0245  1.1249
  743MOL0     H98076  11.009   4.499   3.693 -0.4168  0.2345  2.1119
  744MOL0     O98077  11.076   9.927   1.536  0.4375  0.1661 -0.0559
  744MOL0     C98078  11.109  10.039   1.577 -1.0952  0.5528  0.6040
  744MOL0     O98079  11.040  10.118   1.654 -0.2903  0.0459 -0.0863
  744MOL0     C98080  10.930  10.058   1.706 -0.0654  0.1876 -0.1445
  744MOL0     C98081  10.941   9.966   1.814  0.0123 -0.2546  0.7874
  744MOL0     C98082  10.825   9.909   1.871  0.0680 -0.0733  0.2149
  744MOL0     C98083  10.697   9.956   1.829  0.4453  0.6748  0.4113
  744MOL0     O98084  10.593   9.903   1.892 -0.4088  0.0424 -0.0966
  744MOL0     C98085  10.468   9.972   1.874  0.4538  0.4613  0.9547
  744MOL0     C98086  10.372   9.898   1.969 -0.2680 -0.0111 -0.2557
  744MOL0     C98087  10.239   9.968   1.977 -0.0071 -0.6531  1.0883
  744MOL0     C98088  10.133   9.916   2.075  0.3412 -0.1291  0.0918
  744MOL0     C98089   9.996   9.976   2.048  0.4504  0.1562  0.2333
  744MOL0     C98090   9.986  10.126   2.092  0.2672  0.4483 -0.7857
  744MOL0     C98091   9.830  10.163   2.089  0.3027  0.2900 -0.0188
  744MOL0     C98092   9.803  10.314   2.077  1.8277 -0.8108  0.5937
  744MOL0     N98093   9.656  10.354   2.084 -0.0020 -0.1681 -0.4889
  744MOL0     C98094   9.559  10.331   1.995  0.1896  1.4413 -0.0035
  744MOL0     C98095   9.439  10.356   2.049 -0.0861  0.6612  0.1864
  744MOL0     C98096   9.326  10.376   1.964  0.4868 -0.1653  0.0889
  744MOL0     C98097   9.189  10.415   2.022  0.1039 -0.4344 -0.0339
  744MOL0     C98098   9.083  10.404   1.898 -0.2103  1.0539 -0.3385
  744MOL0     C98099   8.947  10.448   1.943  0.7162  0.6085  0.0590
  744MOL0     O98100   8.844  10.368   1.874 -0.2895 -0.0557 -0.1498
  744MOL0     C98101   8.720  10.415   1.896 -0.4690  0.2319  0.3860
  744MOL0     C98102   8.666  10.441   2.025  0.9520 -0.0228 -0.4045
  744MOL0     C98103   8.533  10.477   2.037 -0.7801 -0.0206  0.3998
  744MOL0     C98104   8.445  10.494   1.927  0.6566 -0.6387  0.6851
  744MOL0     C98105   8.302  10.511   1.944 -0.7123  0.4618 -0.3979
  744MOL0     O98106   8.215  10.496   1.835  0.8535 -1.5406 -0.2663
  744MOL0     C98107   8.090  10.545   1.848  0.0577 -0.5746 -1.0297
  744MOL0     C98108   8.045  10.668   1.794 -0.1326  0.6001 -0.0920
  744MOL0     C98109   7.915  10.709   1.810  0.4626  0.7351  0.1013
  744MOL0     C98110   7.828  10.642   1.900  0.5666  0.6072 -0.0359
  744MOL0     O98111   7.704  10.695   1.922  0.2924 -0.2894 -0.2766
  744MOL0     C98112   7.609  10.684   1.817  0.1447 -0.6907  0.1909
  744MOL0     C98113   7.465  10.683   1.877 -0.5672  0.2139  0.2788
  744MOL0     C98114   7.442  10.600   2.005 -0.0026  0.3645 -0.1819
  744MOL0     C98115   7.475  10.445   1.996 -0.4721 -0.6998  0.3100
  744MOL0     C98116   7.468  10.377   2.125  0.3849  0.8578 -0.5752
  744MOL0     C98117   7.575  10.404   2.225  0.0232  0.3495 -0.3717
  744MOL0     C98118   7.539  10.347   2.369  0.1227  0.4081 -0.4823
  744MOL0     C98119   7.664  10.306   2.446 -0.0273  0.0460  0.4260
  744MOL0    Cl98120   7.785  10.444   2.465 -0.0018 -0.2640  0.1554
  744MOL0     C98121   7.870  10.516   1.956 -0.3067 -0.8078 -0.7603
  744MOL0     C98122   8.001  10.467   1.932 -0.1215 -1.3225 -0.1481
  744MOL0     O98123   8.265  10.527   2.060 -0.2589 -0.5163 -0.3171
  744MOL0     C98124   8.497  10.475   1.796 -0.2332  0.1510  0.1033
  744MOL0     C98125   8.633  10.436   1.785  0.2225 -0.0241  0.8413
  744MOL0     N98126   9.463  10.409   2.173 -0.5687 -0.5170  0.4721
  744MOL0     N98127   9.590  10.401   2.196  0.1482  0.1297  0.9682
  744MOL0     C98128  10.688  10.049   1.725  0.7781  0.1056  0.5309
  744MOL0     C98129  10.799  10.102   1.668 -0.1500  0.4899  0.2322
  744MOL0     C98130  11.243  10.067   1.520  0.2386 -0.3621 -0.1679
  744MOL0     C98131  11.312  10.163   1.582  0.5132  0.2125  0.0959
  744MOL0     C98132  11.435  10.206   1.534 -0.3523  0.3251  0.3709
  744MOL0     C98133  11.507  10.119   1.444  0.7686  0.3098  0.4372
  744MOL0     O98134  11.626  10.143   1.385 -0.9227 -0.2232 -0.5558
  744MOL0     C98135  11.697  10.259   1.422  0.5956 -0.7932 -0.5434
  744MOL0     C98136  11.823  10.282   1.343 -0.4650  0.1775 -0.2975
  744MOL0     C98137  11.903  10.404   1.391 -0.0306 -0.4122  0.2622
  744MOL0     C98138  12.033  10.407   1.314 -0.3045 -0.1168  1.2370
  744MOL0     C98139  12.124  10.295   1.319 -0.3201 -0.1770  0.0806
  744MOL0     C98140  12.212  10.209   1.329  0.3212 -0.1995  0.5567
  744MOL0     C98141  11.442  10.004   1.392 -0.9217 -0.3182  0.1997
  744MOL0     C98142  11.313   9.983   1.430 -0.2113  0.2141  0.1942
  744MOL0     H98143  11.040   9.938   1.849  0.7158 -2.5486 -2.5013
  744MOL0     H98144  10.829   9.859   1.968 -1.7650  1.8659  1.3864
  744MOL0     H98145  10.432   9.976   1.770 -1.8292  2.2307  1.7264
  744MOL0     H98146  10.481  10.078   1.898  0.5139  0.6431  0.1600
  744MOL0     H98147  10.411   9.898   2.071  0.1051  2.2284 -0.3485
  744MOL0     H98148  10.359   9.793   1.941  1.2833 -0.3781  0.2849
  744MOL0     H98149  10.199   9.971   1.875 -0.2142  0.2156  1.1808
  744MOL0     H98150  10.265  10.072   1.999 -1.0287 -0.2950  0.7046
  744MOL0     H98151  10.125   9.807   2.075  1.7429 -0.4489 -4.2352
  744MOL0     H98152  10.168   9.955   2.171 -0.4335  1.5711 -0.2646
  744MOL0     H98153   9.917   9.927   2.106  0.0424  1.3073  0.6843
  744MOL0     H98154   9.973   9.962   1.942 -3.2593  5.2218 -0.0231
  744MOL0     H98155  10.041  10.192   2.024  3.6121  0.5834  1.8247
  744MOL0     H98156  10.030  10.145   2.190 -2.2057  1.8695  0.1441
  744MOL0     H98157   9.782  10.100   2.013  2.4488  2.1707 -3.1712
  744MOL0     H98158   9.788  10.132   2.185 -1.4353 -3.3251 -1.7337
  744MOL0     H98159   9.845  10.354   1.984 -0.4105  2.9164  0.9808
  744MOL0     H98160   9.856  10.356   2.164 -0.9772  1.1035  1.5042
  744MOL0     H98161   9.579  10.323   1.889 -0.8467  0.6606 -0.1619
  744MOL0     H98162   9.305  10.281   1.915  2.0798 -0.5881  0.1575
  744MOL0     H98163   9.357  10.442   1.883  0.1664 -1.1469 -0.8502
  744MOL0     H98164   9.199  10.516   2.062 -1.7731 -1.4239  3.2901
  744MOL0     H98165   9.173  10.352   2.110  0.1578 -0.1763  0.1630
  744MOL0     H98166   9.103  10.466   1.810  0.9160  0.6115 -0.4067
  744MOL0     H98167   9.076  10.302   1.861 -1.1631  2.0767 -3.2395
  744MOL0     H98168   8.935  10.554   1.920 -0.4767  0.4417 -0.1547
  744MOL0     H98169   8.938  10.439   2.052  1.2778  6.7898  0.9908
  744MOL0     H98170   8.732  10.446   2.112 -1.6701  3.8972  1.6851
  744MOL0     H98171   8.501  10.493   2.140  0.8147  0.1881  0.8952
  744MOL0     H98172   8.109  10.735   1.737 -1.6822  0.9608 -1.4936
  744MOL0     H98173   7.886  10.796   1.752  1.7453 -0.2175 -2.1039
  744MOL0     H98174   7.622  10.594   1.756  2.2175  0.1244 -0.6456
  744MOL0     H98175   7.615  10.776   1.758 -0.7363  0.2126  1.4584
  744MOL0     H98176   7.398  10.641   1.802 -0.8794 -0.1404  0.7520
  744MOL0     H98177   7.441  10.785   1.907  0.6679  0.0261  2.0522
  744MOL0     H98178   7.337  10.617   2.030  0.0345  0.2888  0.0255
  744MOL0     H98179   7.508  10.655   2.073 -1.3794  1.6443  0.1696
  744MOL0     H98180   7.396  10.394   1.941 -0.8633  1.2202 -0.9881
  744MOL0     H98181   7.575  10.438   1.953  0.0974 -2.5038  1.7732
  744MOL0     H98182   7.479  10.273   2.095  2.7272  1.7685 -3.3069
  744MOL0     H98183   7.376  10.402   2.179  1.1352 -2.1966  2.4350
  744MOL0     H98184   7.586  10.511   2.243  0.6033  0.0766  1.0278
  744MOL0     H98185   7.669  10.356   2.195 -0.3878 -0.9254  0.2644
  744MOL0     H98186   7.475  10.412   2.430 -1.1008 -1.4978  0.3848
  744MOL0     H98187   7.488  10.250   2.361  0.4445  0.0229  1.5658
  744MOL0     H98188   7.716  10.222   2.399  1.3042 -0.9653  3.4562
  744MOL0     H98189   7.635  10.271   2.546 -0.7569  4.0487  1.7916
  744MOL0     H98190   7.796  10.465   2.017 -3.2245  3.2958 -0.4539
  744MOL0     H98191   8.024  10.368   1.971 -1.4276 -1.6214 -0.0882
  744MOL0     H98192   8.438  10.478   1.704  1.9606  0.7479 -1.3587
  744MOL0     H98193   8.669  10.414   1.685 -1.5162 -1.0045  0.3812
  744MOL0     H98194  10.596  10.071   1.670 -0.3931 -3.4092  0.8158
  744MOL0     H98195  10.798  10.187   1.601  0.4664  2.5722  2.6960
  744MOL0     H98196  11.274  10.212   1.672  0.7093  2.1439 -0.8099
  744MOL0     H98197  11.468  10.305   1.562  1.7937  0.0364 -0.8911
  744MOL0     H98198  11.714  10.260   1.530 -0.1069 -3.2272 -0.3548
  744MOL0     H98199  11.636  10.346   1.396 -0.7981 -1.1283  1.3403
  744MOL0     H98200  11.880  10.189   1.344 -2.2343 -0.9568 -0.9715
  744MOL0     H98201  11.796  10.301   1.239 -0.8216  2.3491  0.1339
  744MOL0     H98202  11.909  10.404   1.500 -1.4162  1.2915  0.3782
  744MOL0     H98203  11.861  10.503   1.375  1.4009 -0.1303 -2.3984
  744MOL0     H98204  12.019  10.426   1.208  4.0521 -0.6091  0.3764
  744MOL0     H98205  12.088  10.495   1.349  0.4980  0.0962 -0.4553
  744MOL0     H98206  12.276  10.124   1.336  3.0831  1.5495 -1.6819
  744MOL0     H98207  11.485   9.944   1.312  0.3700 -0.4149  0.9409
  744MOL0     H98208  11.264   9.900   1.379  0.8948 -0.2792 -0.0831
  745MOL0     O98209  11.204  10.942  10.532  0.7454  0.1531  0.2782
  745MOL0     C98210  11.287  10.942  10.615 -0.3813  0.5810 -0.8131
  745MOL0     O98211  11.273  10.876  10.739  0.1084 -0.0230 -0.2188
  745MOL0     C98212  11.154  10.815  10.772  0.4485 -0.8488 -1.0488
  745MOL0     C98213  11.025  10.864  10.747 -0.4721  0.7512  0.0628
  745MOL0     C98214  10.910  10.790  10.782  0.0559  0.8366 -0.3400
  745MOL0     C98215  10.926  10.658  10.832 -0.6682 -0.2937  0.2153
  745MOL0     O98216  10.816  10.584  10.880  0.2432 -0.2597 -0.3196
  745MOL0     C98217  10.686  10.652  10.893 -0.5149 -1.1377  0.2891
  745MOL0     C98218  10.583  10.598  10.992  0.2963  0.8804  0.1369
  745MOL0     C98219  10.498  10.483  10.936  0.2202 -0.2582  0.6337
  745MOL0     C98220  10.433  10.392  11.039 -0.5018  0.1160 -0.0857
  745MOL0     C98221  10.534  10.287  11.092 -0.3436 -0.5743  0.6066
  745MOL0     C98222  10.470  10.224  11.219  0.5319 -0.2111  1.3960
  745MOL0     C98223  10.569  10.130  11.293  0.4258  0.1834  0.5462
  745MOL0     C98224  10.558   9.986  11.246 -0.6654 -0.3855 -0.0524
  745MOL0     N98225  10.638   9.893  11.319 -0.1019 -0.1139 -0.2607
  745MOL0     C98226  10.774   9.901  11.337 -0.6771  0.4695  0.7646
  745MOL0     C98227  10.809   9.806  11.422  0.3119 -0.0061  0.7064
  745MOL0     C98228  10.949   9.816  11.467 -0.0092  0.1599 -0.1785
  745MOL0     C98229  10.990   9.711  11.570 -0.6792 -0.3808 -0.0203
  745MOL0     C98230  11.046   9.584  11.504 -0.6516  1.1546  0.6575
  745MOL0     C98231  11.056   9.472  11.609  0.0207 -0.6754 -0.0624
  745MOL0     O98232  11.153   9.500  11.709 -0.0914  1.0123 -0.4816
  745MOL0     C98233  11.244   9.398  11.723 -0.2675  0.0665  0.1147
  745MOL0     C98234  11.386   9.426  11.700  0.5514 -0.1032  0.1125
  745MOL0     C98235  11.477   9.319  11.710  0.7522  0.4052  0.1578
  745MOL0     C98236  11.425   9.195  11.724  0.3477 -0.2500 -0.3702
  745MOL0     C98237  11.512   9.077  11.735 -0.0212  0.0370 -0.4806
  745MOL0     O98238  11.643   9.100  11.743  0.9677 -0.3188 -0.2385
  745MOL0     C98239  11.735   9.002  11.770  0.0366 -0.7821 -0.5681
  745MOL0     C98240  11.856   9.051  11.820 -0.4597 -0.4269  0.1768
  745MOL0     C98241  11.960   8.968  11.838 -1.0635 -0.9488  0.3212
  745MOL0     C98242  11.955   8.827  11.803  0.6938 -0.3136  0.2494
  745MOL0     O98243  12.064   8.752  11.823  0.7874  0.1808 -0.1379
  745MOL0     C98244  12.051   8.608  11.821  0.0266 -0.4391  0.7193
  745MOL0     C98245  12.195   8.558  11.858 -0.0179  0.8652  0.5021
  745MOL0     C98246  12.260   8.622  11.984 -0.0615 -0.0586 -0.4765
  745MOL0     C98247  12.398   8.579  12.011  0.4659  0.0865  0.5330
  745MOL0     C98248  12.466   8.672  12.109  0.1333 -0.1114  0.5514
  745MOL0     C98249  12.614   8.638  12.123  0.8596  0.6930  0.9349
  745MOL0     C98250  12.693   8.715  12.234  0.0042 -0.1079 -0.4885
  745MOL0     C98251  12.829   8.644  12.256  0.2337 -0.3157  0.0679
  745MOL0    Cl98252  12.939   8.616  12.122 -0.7275 -0.3427 -0.2188
  745MOL0     C98253  11.827   8.780  11.765 -0.1033 -0.2081 -0.4395
  745MOL0     C98254  11.725   8.866  11.748 -0.1530  0.2433 -0.1405
  745MOL0     O98255  11.460   8.963  11.730  0.2736  0.0334 -0.1202
  745MOL0     C98256  11.290   9.162  11.726 -0.7003 -0.2098  0.6413
  745MOL0     C98257  11.202   9.265  11.728  0.7032  0.7732 -0.7671
  745MOL0     N98258  10.690   9.756  11.476  0.6381  0.3732  0.0747
  745MOL0     N98259  10.595   9.801  11.404 -0.7221 -0.4271 -0.6214
  745MOL0     C98260  11.058  10.605  10.866  0.2330  0.6599  0.4871
  745MOL0     C98261  11.166  10.691  10.837 -0.3121 -0.1920 -0.5617
  745MOL0     C98262  11.406  11.022  10.583 -0.3449  0.3277 -0.6248
  745MOL0     C98263  11.501  11.028  10.682  0.4117  0.5640  0.4768
  745MOL0     C98264  11.620  11.095  10.658 -0.7169 -0.3272 -0.4230
  745MOL0     C98265  11.651  11.166  10.537  0.6771  0.7722  0.3720
  745MOL0     O98266  11.779  11.205  10.510 -0.0837 -0.1604 -0.4802
  745MOL0     C98267  11.791  11.354  10.523  0.4142  0.1263 -0.0656
  745MOL0     C98268  11.934  11.411  10.554 -0.9375  0.8126 -0.4996
  745MOL0     C98269  11.999  11.343  10.677 -0.3157 -0.7931 -0.7350
  745MOL0     C98270  12.132  11.405  10.701 -0.5738  0.6407 -0.2512
  745MOL0     C98271  12.235  11.313  10.631  0.1200 -0.5675 -0.4425
  745MOL0     C98272  12.322  11.262  10.565  0.1691  0.2554  0.1896
  745MOL0     C98273  11.552  11.155  10.434  0.6192  0.3150 -0.6748
  745MOL0     C98274  11.436  11.078  10.454  1.1991  0.1932  0.6740
  745MOL0     H98275  11.011  10.952  10.684  1.6079  0.2461 -1.1981
  745MOL0     H98276  10.811  10.832  10.772 -0.1623  0.1172 -1.3529
  745MOL0     H98277  10.638  10.654  10.794 -1.6386 -0.6916  0.8337
  745MOL0     H98278  10.704  10.758  10.914  0.0889 -1.0639 -0.5305
  745MOL0     H98279  10.531  10.681  11.039 -0.2952 -0.0484  1.1880
  745MOL0     H98280  10.643  10.554  11.073  0.8643  1.0889 -0.1616
  745MOL0     H98281  10.555  10.425  10.864  0.7072  0.5934  0.3232
  745MOL0     H98282  10.420  10.532  10.876  0.6226 -2.9065 -2.3071
  745MOL0     H98283  10.399  10.451  11.126 -1.9637  2.5687 -2.1747
  745MOL0     H98284  10.345  10.340  10.999 -0.7630 -0.8842  1.6662
  745MOL0     H98285  10.636  10.323  11.112 -0.9405  0.2029  2.5103
  745MOL0     H98286  10.552  10.212  11.015  0.1761 -1.9378  2.0104
  745MOL0     H98287  10.380  10.166  11.195  1.9316 -1.9441 -0.0086
  745MOL0     H98288  10.450  10.295  11.298 -0.5644 -0.1553  1.0811
  745MOL0     H98289  10.672  10.165  11.287  0.1985  0.7171 -0.4699
  745MOL0     H98290  10.538  10.128  11.398 -4.5690 -6.5420 -0.3116
  745MOL0     H98291  10.592   9.984  11.142  1.1840 -1.4615  0.5247
  745MOL0     H98292  10.454   9.955  11.255 -0.6755 -0.0057  1.3239
  745MOL0     H98293  10.841   9.967  11.282 -0.1322  0.1822  1.0798
  745MOL0     H98294  10.957   9.906  11.528 -0.3957  0.7124 -0.9259
  745MOL0     H98295  11.016   9.825  11.381  0.7125 -0.4147  0.3128
  745MOL0     H98296  10.909   9.681  11.637 -1.0767 -1.5531 -0.9862
  745MOL0     H98297  11.047   9.759  11.649  0.1005 -0.0254 -0.7737
  745MOL0     H98298  10.995   9.559  11.410  3.3734 -0.7449 -1.3053
  745MOL0     H98299  11.145   9.607  11.463 -1.1057  0.2129 -1.1120
  745MOL0     H98300  11.087   9.386  11.549  1.5347  0.1823 -0.5501
  745MOL0     H98301  10.965   9.455  11.667  0.4693 -0.6640  0.6616
  745MOL0     H98302  11.404   9.532  11.683  0.1776  0.4326  2.6901
  745MOL0     H98303  11.583   9.341  11.706  0.8119  0.0594 -0.3661
  745MOL0     H98304  11.866   9.157  11.844 -0.8438 -0.3313 -0.0865
  745MOL0     H98305  12.060   9.002  11.863 -1.4826 -0.2016  1.0239
  745MOL0     H98306  12.036   8.576  11.717  0.9135  3.4242 -0.7963
  745MOL0     H98307  11.980   8.575  11.897 -2.6636 -0.8243 -1.7727
  745MOL0     H98308  12.257   8.591  11.774 -0.2231  3.1979  1.2122
  745MOL0     H98309  12.196   8.448  11.861  0.7687  0.8318 -0.5640
  745MOL0     H98310  12.199   8.589  12.068 -1.2068 -0.5744 -1.4915
  745MOL0     H98311  12.261   8.731  11.970 -3.7499  0.5816  2.4916
  745MOL0     H98312  12.397   8.484  12.064 -1.4638  1.8253  3.8972
  745MOL0     H98313  12.452   8.575  11.916 -1.2954  1.8030 -0.6195
  745MOL0     H98314  12.416   8.645  12.203 -1.9156  1.3263 -0.0644
  745MOL0     H98315  12.444   8.777  12.088  0.3945 -0.2675 -0.5506
  745MOL0     H98316  12.658   8.661  12.026  0.6890  1.3601  1.0130
  745MOL0     H98317  12.627   8.530  12.135  0.7341  0.1314 -2.7231
  745MOL0     H98318  12.722   8.813  12.197 -0.9694  1.3685  2.4108
  745MOL0     H98319  12.641   8.725  12.330  0.8563  3.4732 -0.2832
  745MOL0     H98320  12.818   8.543  12.296 -0.7208 -0.2759 -0.0653
  745MOL0     H98321  12.888   8.699  12.330  0.5946 -2.1162  1.1759
  745MOL0     H98322  11.818   8.673  11.747  2.8352 -0.2786 -2.2067
  745MOL0     H98323  11.633   8.818  11.716 -0.0641 -0.6441  0.8808
  745MOL0     H98324  11.250   9.061  11.723  1.6498 -1.1810 -1.3776
  745MOL0     H98325  11.098   9.234  11.731  1.2395 -1.4626 -2.4644
  745MOL0     H98326  11.062  10.502  10.899 -1.5859 -0.0372 -1.2994
  745MOL0     H98327  11.266  10.650  10.846  0.0848  1.1042  1.5456
  745MOL0     H98328  11.485  10.983  10.779 -4.0531  0.5093 -0.0879
  745MOL0     H98329  11.700  11.092  10.732 -0.7459 -3.5464 -0.3736
  745MOL0     H98330  11.737  11.385  10.613  1.8646 -1.8529  1.5877
  745MOL0     H98331  11.748  11.409  10.439 -0.4122 -0.1332  0.1755
  745MOL0     H98332  11.996  11.405  10.464  1.8238  0.3726  1.2900
  745MOL0     H98333  11.914  11.514  10.583 -0.5148  0.5172  0.9427
  745MOL0     H98334  12.004  11.234  10.675 -0.1377 -0.8669  1.3632
  745MOL0     H98335  11.934  11.353  10.764  1.1502  1.2179  0.2048
  745MOL0     H98336  12.144  11.504  10.656  0.7567 -0.1390 -1.7147
  745MOL0     H98337  12.158  11.397  10.807 -1.7990 -2.6923 -0.0549
  745MOL0     H98338  12.399  11.205  10.517 -0.2156 -0.8504  0.8649
  745MOL0     H98339  11.569  11.184  10.331  2.2756 -1.4582 -0.9713
  745MOL0     H98340  11.371  11.057  10.369  2.4056 -0.4409 -0.1287
  746MOL0     O98341   4.423   3.411   8.859  0.2594 -0.4510 -0.3608
  746MOL0     C98342   4.462   3.484   8.765 -0.0753 -0.1334 -0.5361
  746MOL0     O98343   4.413   3.483   8.635  0.4487 -0.4489 -0.3731
  746MOL0     C98344   4.319   3.384   8.590 -1.0294 -0.0175 -0.6041
  746MOL0     C98345   4.223   3.329   8.679 -1.2533 -0.1733  0.6196
  746MOL0     C98346   4.136   3.237   8.638  0.1642 -0.2429  0.3569
  746MOL0     C98347   4.134   3.199   8.505  0.4490 -0.4561  0.1926
  746MOL0     O98348   4.034   3.109   8.483  1.5280  0.3016 -0.0902
  746MOL0     C98349   4.013   3.067   8.342  0.2353 -0.6904 -0.1210
  746MOL0     C98350   3.900   2.965   8.327 -0.2430 -0.6868  0.5063
  746MOL0     C98351   3.913   2.923   8.181  0.1906  0.3572  0.5450
  746MOL0     C98352   3.814   2.805   8.157 -1.0158 -0.5974  0.3351
  746MOL0     C98353   3.810   2.769   8.006 -0.0827  0.9345 -0.3081
  746MOL0     C98354   3.751   2.883   7.923  0.2017 -0.1745  0.0775
  746MOL0     C98355   3.723   2.829   7.780 -0.2932 -0.3940  0.6672
  746MOL0     C98356   3.696   2.948   7.686 -0.1351 -0.3447 -0.4418
  746MOL0     N98357   3.657   2.906   7.555  0.4530  0.1962  0.0688
  746MOL0     C98358   3.756   2.872   7.454 -0.0034  0.0297 -1.4862
  746MOL0     C98359   3.686   2.855   7.343  0.3786  0.7426  0.5454
  746MOL0     C98360   3.716   2.816   7.199 -0.1483  0.0359 -0.2912
  746MOL0     C98361   3.715   2.938   7.111 -0.1840  1.3674  0.3277
  746MOL0     C98362   3.824   3.030   7.151  0.8732 -0.0703 -0.2844
  746MOL0     C98363   3.840   3.147   7.050 -0.4707 -0.0759  0.3058
  746MOL0     O98364   3.813   3.093   6.920 -0.0001 -0.7765 -0.4895
  746MOL0     C98365   3.917   3.037   6.848  0.4895  0.2667 -0.4270
  746MOL0     C98366   4.053   3.059   6.872  0.2101 -0.1280 -0.8251
  746MOL0     C98367   4.155   3.002   6.802  0.3407 -0.4179 -0.2754
  746MOL0     C98368   4.117   2.929   6.695  1.1102  0.0914  0.1979
  746MOL0     C98369   4.220   2.872   6.608  0.0212 -0.2311 -0.3768
  746MOL0     O98370   4.345   2.920   6.610  0.2024  0.0342 -0.2927
  746MOL0     C98371   4.431   2.879   6.517  0.4031  0.4183  1.3250
  746MOL0     C98372   4.460   2.961   6.406  0.1467 -0.6953  0.3087
  746MOL0     C98373   4.556   2.937   6.319 -0.4950  0.1361  0.5521
  746MOL0     C98374   4.647   2.830   6.345  0.4523  0.5699 -0.2866
  746MOL0     O98375   4.747   2.806   6.259 -0.3182  0.0516  0.3339
  746MOL0     C98376   4.876   2.855   6.296 -0.0631  0.2272  0.3505
  746MOL0     C98377   4.929   2.891   6.163 -0.7178 -0.7159 -0.5877
  746MOL0     C98378   5.074   2.908   6.163 -0.0558 -0.9563  0.3133
  746MOL0     C98379   5.140   2.777   6.203  0.1362  0.7415 -0.5576
  746MOL0     C98380   5.287   2.781   6.164  0.1059  0.1413  0.3943
  746MOL0     C98381   5.381   2.897   6.219  0.2888  0.2974  0.4201
  746MOL0     C98382   5.522   2.869   6.174 -0.1584  0.2154 -0.2497
  746MOL0     C98383   5.632   2.922   6.262  0.8678 -0.4562 -0.0738
  746MOL0    Cl98384   5.660   2.811   6.403  0.1857 -0.5821  0.4096
  746MOL0     C98385   4.628   2.743   6.450 -0.0954  0.6176 -0.2320
  746MOL0     C98386   4.517   2.768   6.537  1.2759 -0.2042 -0.8172
  746MOL0     O98387   4.181   2.778   6.538  0.4006  0.9127  0.4352
  746MOL0     C98388   3.986   2.902   6.667 -0.2098 -0.9314 -0.1660
  746MOL0     C98389   3.882   2.959   6.745 -0.3750 -0.6605  0.0213
  746MOL0     N98390   3.556   2.887   7.371  1.0146  0.5288 -0.3984
  746MOL0     N98391   3.530   2.904   7.501 -0.0012 -0.0282  0.4507
  746MOL0     C98392   4.226   3.252   8.412 -0.5673 -0.1840 -0.4143
  746MOL0     C98393   4.327   3.344   8.455 -0.8729  0.5416 -0.8411
  746MOL0     C98394   4.569   3.583   8.810 -0.4307 -0.5582 -0.2208
  746MOL0     C98395   4.640   3.574   8.932  0.0765 -0.0916  0.0205
  746MOL0     C98396   4.741   3.673   8.971 -0.8837 -0.2974 -0.1983
  746MOL0     C98397   4.785   3.769   8.877 -0.5612  0.3373 -0.3249
  746MOL0     O98398   4.874   3.858   8.924 -0.1616 -0.5331  0.0055
  746MOL0     C98399   4.973   3.878   8.819 -0.0124  0.1726  0.6981
  746MOL0     C98400   5.062   3.760   8.784 -0.5825  0.5406  1.2993
  746MOL0     C98401   5.140   3.703   8.900 -0.2708  0.0975 -0.3162
  746MOL0     C98402   5.213   3.799   8.987 -0.1784  0.0089  0.4128
  746MOL0     C98403   5.308   3.878   8.908  1.1546  0.6938  1.0776
  746MOL0     C98404   5.392   3.957   8.861  0.6864 -0.7252  0.3152
  746MOL0     C98405   4.710   3.774   8.753  0.4600 -1.1076 -0.6224
  746MOL0     C98406   4.605   3.693   8.725  0.1432 -0.1448 -0.4829
  746MOL0     H98407   4.206   3.383   8.771  0.1637 -0.2551  0.9591
  746MOL0     H98408   4.057   3.201   8.703  0.0121  2.4382  1.7912
  746MOL0     H98409   4.106   3.018   8.311  1.7494  1.0905  1.3568
  746MOL0     H98410   4.011   3.156   8.279  1.3815 -0.0670  0.6628
  746MOL0     H98411   3.804   3.007   8.360  0.5987 -0.7363  3.2060
  746MOL0     H98412   3.926   2.876   8.384  1.8311 -1.0682 -0.9224
  746MOL0     H98413   4.016   2.889   8.171 -0.4421 -1.8008  0.8276
  746MOL0     H98414   3.891   3.012   8.121  0.1057 -0.3422 -0.4840
  746MOL0     H98415   3.841   2.718   8.218  0.7256 -0.4786 -0.2006
  746MOL0     H98416   3.718   2.844   8.192 -0.4622  1.9471 -0.7185
  746MOL0     H98417   3.740   2.686   8.012 -0.3642  1.2301  0.5423
  746MOL0     H98418   3.910   2.741   7.971 -0.0523  0.2103  0.3543
  746MOL0     H98419   3.820   2.967   7.908 -1.1819  0.5446 -2.9714
  746MOL0     H98420   3.666   2.932   7.972  1.5566  1.9310  0.4427
  746MOL0     H98421   3.815   2.782   7.744 -1.2305 -1.5682 -0.2976
  746MOL0     H98422   3.642   2.756   7.777 -2.3878  1.8131 -0.3198
  746MOL0     H98423   3.776   3.023   7.686 -0.5058  0.0786  1.1640
  746MOL0     H98424   3.615   3.005   7.732  0.5787 -0.4673  1.0229
  746MOL0     H98425   3.863   2.856   7.467 -0.3586 -0.5463  1.3274
  746MOL0     H98426   3.650   2.745   7.149  1.9284 -0.3332 -2.6615
  746MOL0     H98427   3.815   2.770   7.201 -1.6087 -3.3172  0.6619
  746MOL0     H98428   3.622   2.995   7.119 -0.2745  1.6416 -1.8612
  746MOL0     H98429   3.710   2.898   7.009 -0.4877  0.4712  0.6857
  746MOL0     H98430   3.798   3.075   7.247  3.1016 -1.7441  1.2045
  746MOL0     H98431   3.923   2.984   7.160 -0.1625 -2.7685 -1.5601
  746MOL0     H98432   3.933   3.204   7.058  0.1230 -1.1682  1.4996
  746MOL0     H98433   3.765   3.224   7.068 -0.1346  0.6304 -1.1607
  746MOL0     H98434   4.090   3.115   6.958  2.8369 -3.0625  0.1339
  746MOL0     H98435   4.259   3.019   6.829  0.4515 -1.0195 -0.3075
  746MOL0     H98436   4.392   3.042   6.380 -1.5651 -1.8858  0.8613
  746MOL0     H98437   4.560   3.003   6.233 -1.4673 -0.4788  0.0151
  746MOL0     H98438   4.934   2.777   6.345 -0.2683  0.1207  0.4256
  746MOL0     H98439   4.870   2.945   6.359 -1.1483  0.2955  0.1688
  746MOL0     H98440   4.897   2.991   6.134 -0.8480 -0.9116 -1.1316
  746MOL0     H98441   4.893   2.817   6.090 -0.5068  0.0392 -1.4838
  746MOL0     H98442   5.101   2.981   6.240 -0.0908 -0.3235 -0.2634
  746MOL0     H98443   5.106   2.943   6.064  1.0885  2.0293  1.6287
  746MOL0     H98444   5.128   2.762   6.310  0.4013  1.0431 -0.4837
  746MOL0     H98445   5.093   2.685   6.165  0.0707  0.2440  0.6999
  746MOL0     H98446   5.305   2.775   6.056 -0.3716 -2.4732  0.4037
  746MOL0     H98447   5.332   2.690   6.203  2.6994  1.2946  0.2923
  746MOL0     H98448   5.369   2.893   6.327 -0.4804  0.3447  0.3410
  746MOL0     H98449   5.344   2.993   6.180  0.5809  1.8097  3.5267
  746MOL0     H98450   5.547   2.763   6.188 -0.8030  0.2179  1.1076
  746MOL0     H98451   5.540   2.903   6.072  2.1039  0.1724  0.0858
  746MOL0     H98452   5.621   3.024   6.300  2.1394  0.4347 -1.9769
  746MOL0     H98453   5.723   2.919   6.202  0.3145  2.6897 -1.2413
  746MOL0     H98454   4.695   2.657   6.456 -0.3901  0.4095  0.1079
  746MOL0     H98455   4.503   2.706   6.625  1.9257  0.3383 -0.3197
  746MOL0     H98456   3.958   2.826   6.596 -0.3961  0.1677 -1.3111
  746MOL0     H98457   3.777   2.944   6.725 -0.5641  1.1537 -0.5053
  746MOL0     H98458   4.220   3.231   8.306  3.1959  0.6170 -0.9146
  746MOL0     H98459   4.402   3.381   8.387  0.5927 -1.7015 -0.5549
  746MOL0     H98460   4.617   3.499   9.007  1.9410  0.7147  1.4895
  746MOL0     H98461   4.798   3.667   9.064 -1.3762 -1.2514  0.0492
  746MOL0     H98462   5.029   3.961   8.862 -1.3150  1.4900 -0.0822
  746MOL0     H98463   4.928   3.917   8.728  1.1657  0.5635  0.2655
  746MOL0     H98464   5.002   3.680   8.739  0.0537  0.8625 -0.1622
  746MOL0     H98465   5.131   3.806   8.714 -2.4740 -0.4858 -1.4003
  746MOL0     H98466   5.220   3.641   8.860  0.1047  1.8114 -2.4162
  746MOL0     H98467   5.086   3.635   8.967 -0.1414  0.4392  0.1457
  746MOL0     H98468   5.147   3.870   9.038 -1.2755  0.4580 -1.5132
  746MOL0     H98469   5.271   3.736   9.055 -0.9236  0.7572  1.7939
  746MOL0     H98470   5.448   4.038   8.820 -1.2695  0.2456 -0.5746
  746MOL0     H98471   4.733   3.868   8.704 -2.5300  0.3435  0.5224
  746MOL0     H98472   4.549   3.720   8.636  0.4050  0.6119 -0.4251
  747MOL0     O98473   9.073   1.552   9.715  0.2898  0.3336 -0.5029
  747MOL0     C98474   9.145   1.456   9.683  0.7253 -0.0711  0.3862
  747MOL0     O98475   9.284   1.457   9.663 -0.7485  0.1939  0.3083
  747MOL0     C98476   9.348   1.573   9.680  0.0856  0.2436 -0.0924
  747MOL0     C98477   9.385   1.612   9.806  0.2291  0.6952  0.6349
  747MOL0     C98478   9.451   1.742   9.819  0.7208  0.8857 -0.7942
  747MOL0     C98479   9.491   1.820   9.715 -0.0675 -0.2129 -0.0761
  747MOL0     O98480   9.569   1.936   9.736  0.3870 -0.6533  0.0391
  747MOL0     C98481   9.622   2.010   9.624  0.8233  0.1497  1.0667
  747MOL0     C98482   9.519   2.120   9.570 -0.2085  0.2334 -0.6622
  747MOL0     C98483   9.510   2.208   9.692  0.1982  0.0751 -0.2030
  747MOL0     C98484   9.422   2.329   9.664 -0.1799 -0.3374  0.6944
  747MOL0     C98485   9.430   2.426   9.780 -0.0827  0.0902  0.7308
  747MOL0     C98486   9.334   2.543   9.770  0.4600  0.1995  0.2266
  747MOL0     C98487   9.392   2.636   9.661 -0.5942 -0.2794  0.7437
  747MOL0     C98488   9.315   2.760   9.635 -0.6857 -0.1105  0.5134
  747MOL0     N98489   9.384   2.851   9.549 -0.2531 -0.5194  0.0501
  747MOL0     C98490   9.398   2.839   9.414 -0.4054  1.0268  0.1762
  747MOL0     C98491   9.446   2.947   9.364 -0.0625 -0.0330 -1.1962
  747MOL0     C98492   9.477   2.964   9.221  0.2455 -0.0691  0.2596
  747MOL0     C98493   9.368   2.960   9.124 -0.3856  0.1510  0.5558
  747MOL0     C98494   9.278   3.082   9.155  0.8196  0.6386  0.2790
  747MOL0     C98495   9.158   3.091   9.050 -0.0697 -0.1101  0.0431
  747MOL0     O98496   9.061   3.185   9.097 -0.1536  0.1903 -0.1410
  747MOL0     C98497   8.933   3.159   9.074 -0.5149 -0.7095 -0.0411
  747MOL0     C98498   8.853   3.227   9.163 -0.0293 -0.8191  0.3701
  747MOL0     C98499   8.717   3.219   9.152 -0.1556 -0.1372  0.2742
  747MOL0     C98500   8.664   3.151   9.046 -0.4042 -0.3092 -0.2433
  747MOL0     C98501   8.529   3.130   9.041  0.7999  0.4116  0.0820
  747MOL0     O98502   8.457   3.185   9.149 -0.5796 -0.5675  0.3747
  747MOL0     C98503   8.323   3.145   9.173  0.2652  0.3186 -0.2694
  747MOL0     C98504   8.275   3.013   9.157  0.3580  0.6598 -1.3154
  747MOL0     C98505   8.137   2.989   9.170  0.1733 -0.3593  0.1318
  747MOL0     C98506   8.045   3.091   9.179 -0.0148 -0.2531  0.1460
  747MOL0     O98507   7.911   3.058   9.165 -0.2467  0.2712  1.1422
  747MOL0     C98508   7.814   3.144   9.225 -0.3941  0.4396 -0.9522
  747MOL0     C98509   7.672   3.086   9.230 -0.3626 -0.1640 -0.3746
  747MOL0     C98510   7.565   3.184   9.279  0.3043 -0.0564  0.8000
  747MOL0     C98511   7.426   3.105   9.294  0.5009 -0.3540 -0.4490
  747MOL0     C98512   7.314   3.190   9.332 -0.5019  0.3244 -0.4683
  747MOL0     C98513   7.311   3.241   9.479 -0.3148  0.2763  0.1437
  747MOL0     C98514   7.208   3.354   9.498  0.5378  0.0568  0.4612
  747MOL0     C98515   7.248   3.489   9.563  1.1197 -0.5460  0.0825
  747MOL0    Cl98516   7.096   3.597   9.582  0.2983  0.2149  0.0948
  747MOL0     C98517   8.091   3.214   9.210  0.2448 -0.3710  0.7014
  747MOL0     C98518   8.226   3.238   9.212 -0.2579  0.1616 -0.4145
  747MOL0     O98519   8.474   3.060   8.951 -0.6690  0.3525  0.1292
  747MOL0     C98520   8.747   3.095   8.942 -0.2811  0.8130 -0.3537
  747MOL0     C98521   8.889   3.105   8.955  0.1797  0.2150  0.2837
  747MOL0     N98522   9.447   3.047   9.464  0.3230 -0.2429 -0.4960
  747MOL0     N98523   9.408   2.983   9.572 -0.8129 -0.0121  0.2058
  747MOL0     C98524   9.456   1.771   9.588 -0.3242 -0.9691  0.8974
  747MOL0     C98525   9.391   1.648   9.566 -0.6700  0.6633 -0.5696
  747MOL0     C98526   9.083   1.334   9.634  0.2060  0.5327  0.1000
  747MOL0     C98527   8.956   1.292   9.683  0.2299  0.0205  0.6260
  747MOL0     C98528   8.896   1.170   9.662  0.7406  0.6934  0.0741
  747MOL0     C98529   8.950   1.093   9.556  1.1773 -0.2752 -0.7873
  747MOL0     O98530   8.894   0.979   9.516  0.1517 -0.0706  0.4589
  747MOL0     C98531   8.758   0.966   9.535  0.0590 -0.4225 -0.2357
  747MOL0     C98532   8.712   0.849   9.454 -0.2525  0.2107 -0.5399
  747MOL0     C98533   8.565   0.806   9.476 -0.4288 -0.4036  0.2120
  747MOL0     C98534   8.464   0.910   9.422  0.5394  0.8824  0.3486
  747MOL0     C98535   8.330   0.858   9.453 -0.5610 -0.5283  0.4254
  747MOL0     C98536   8.217   0.817   9.468  1.0911  0.2774  0.5606
  747MOL0     C98537   9.064   1.136   9.491  1.0284 -0.0948 -0.2065
  747MOL0     C98538   9.131   1.256   9.527 -0.1044  0.4581 -0.2051
  747MOL0     H98539   9.361   1.553   9.893 -3.8861  0.9007 -0.1443
  747MOL0     H98540   9.461   1.777   9.921 -4.6443  2.6611 -0.5867
  747MOL0     H98541   9.647   1.950   9.536 -3.2901  1.6316 -1.4125
  747MOL0     H98542   9.717   2.052   9.659  0.8560  2.8650 -1.8714
  747MOL0     H98543   9.418   2.079   9.556 -1.5400  3.0464 -0.0444
  747MOL0     H98544   9.561   2.160   9.478  0.9938  0.1999 -0.1456
  747MOL0     H98545   9.609   2.246   9.721 -0.3042  0.3809  1.1633
  747MOL0     H98546   9.465   2.158   9.777 -0.9353 -1.3587 -1.5878
  747MOL0     H98547   9.445   2.375   9.568  1.1250 -0.3050  1.0048
  747MOL0     H98548   9.315   2.304   9.660  0.1373 -1.7246  0.4487
  747MOL0     H98549   9.532   2.466   9.783 -0.9025  2.3702  0.2006
  747MOL0     H98550   9.399   2.373   9.870 -1.6698 -2.4247 -1.1690
  747MOL0     H98551   9.334   2.601   9.863  2.1995 -1.7904  1.5723
  747MOL0     H98552   9.233   2.506   9.748  0.8479 -2.7408  2.6883
  747MOL0     H98553   9.490   2.673   9.695 -0.6815 -0.8005  1.5730
  747MOL0     H98554   9.407   2.586   9.565 -4.0887  1.2074 -0.7366
  747MOL0     H98555   9.276   2.812   9.723 -0.5205 -0.5887  0.8687
  747MOL0     H98556   9.224   2.724   9.586 -0.0277 -0.4835 -0.4671
  747MOL0     H98557   9.382   2.748   9.357  0.3088  1.4171 -0.6839
  747MOL0     H98558   9.553   2.889   9.199  0.3806 -0.7870  2.7894
  747MOL0     H98559   9.514   3.065   9.202  2.6060 -0.9339 -0.0826
  747MOL0     H98560   9.311   2.867   9.122 -2.7900  1.4997  1.0757
  747MOL0     H98561   9.404   2.970   9.021 -1.3210  0.8262  0.2698
  747MOL0     H98562   9.237   3.086   9.257 -1.7526 -0.3608 -0.6195
  747MOL0     H98563   9.337   3.171   9.133 -1.9582  2.5587  0.0851
  747MOL0     H98564   9.114   2.991   9.036  2.8199 -1.6194  0.8756
  747MOL0     H98565   9.197   3.112   8.950 -5.2999  1.2235 -2.0570
  747MOL0     H98566   8.902   3.291   9.235 -0.5876 -0.6541  0.6063
  747MOL0     H98567   8.660   3.278   9.223  0.5605  1.3115 -0.3073
  747MOL0     H98568   8.343   2.932   9.130  2.4564  1.1526  1.8982
  747MOL0     H98569   8.100   2.888   9.153 -2.2457  0.5893 -0.6052
  747MOL0     H98570   7.797   3.230   9.159 -4.4586  1.6383  1.3447
  747MOL0     H98571   7.845   3.165   9.328 -1.3176 -2.7752  0.0888
  747MOL0     H98572   7.666   2.994   9.288 -3.7056 -0.9428 -1.7255
  747MOL0     H98573   7.642   3.059   9.128 -2.4970 -3.4068  0.9502
  747MOL0     H98574   7.552   3.266   9.208 -1.0452 -0.9470 -0.0172
  747MOL0     H98575   7.606   3.236   9.366 -0.9781 -1.7078  2.4704
  747MOL0     H98576   7.413   3.045   9.203 -2.5601  1.7014 -1.5309
  747MOL0     H98577   7.441   3.030   9.373  3.9671  1.2549  0.6156
  747MOL0     H98578   7.221   3.136   9.310 -1.2693  1.0180  0.9931
  747MOL0     H98579   7.308   3.277   9.266  1.6272  1.5085  0.8094
  747MOL0     H98580   7.406   3.289   9.504 -1.2629  2.7501 -0.7042
  747MOL0     H98581   7.301   3.158   9.550 -2.0856  0.4707  0.1659
  747MOL0     H98582   7.169   3.381   9.399 -0.4107  0.1007  0.8316
  747MOL0     H98583   7.121   3.318   9.554 -0.8767  1.0967 -0.9576
  747MOL0     H98584   7.320   3.538   9.496  2.8099 -0.5857  1.7826
  747MOL0     H98585   7.283   3.468   9.664  1.2310  0.1555  0.1932
  747MOL0     H98586   8.019   3.295   9.220  2.6522  1.8216  1.4044
  747MOL0     H98587   8.261   3.340   9.226 -2.5199  1.1494 -1.4750
  747MOL0     H98588   8.708   3.042   8.855 -1.6486  0.5978  0.3545
  747MOL0     H98589   8.963   3.063   8.886 -0.9196  1.5989 -1.8398
  747MOL0     H98590   9.478   1.809   9.488 -0.5722 -3.1617 -0.0385
  747MOL0     H98591   9.373   1.617   9.464  2.1412  1.0108 -1.2701
  747MOL0     H98592   8.895   1.356   9.746  0.4686  0.5364  0.3479
  747MOL0     H98593   8.813   1.131   9.721 -0.3195  1.3851 -0.9089
  747MOL0     H98594   8.697   1.051   9.502  2.7165  0.8805 -2.1062
  747MOL0     H98595   8.737   0.957   9.643  0.1246  3.7361  0.2797
  747MOL0     H98596   8.718   0.873   9.348 -0.5070  0.6544 -0.4566
  747MOL0     H98597   8.785   0.768   9.466  1.5769  1.3906 -2.8353
  747MOL0     H98598   8.538   0.783   9.580  1.6664  0.5109  1.0166
  747MOL0     H98599   8.559   0.718   9.411  1.7334 -0.1768 -0.3657
  747MOL0     H98600   8.481   1.007   9.472 -1.1033  2.3956 -1.8371
  747MOL0     H98601   8.464   0.929   9.315 -1.7220  0.9355  0.3096
  747MOL0     H98602   8.116   0.783   9.477  0.5426  2.0498  1.5330
  747MOL0     H98603   9.096   1.072   9.410  0.6296 -0.4590 -0.0805
  747MOL0     H98604   9.218   1.291   9.473  0.3687  1.4680  1.1482
  748MOL0     O98605   0.586   9.718   9.863  0.5646  0.0628 -1.0811
  748MOL0     C98606   0.643   9.642   9.944  0.2919  0.5403  0.5736
  748MOL0     O98607   0.607   9.514   9.984 -0.6358 -0.2963  0.7243
  748MOL0     C98608   0.492   9.456   9.936 -1.3436  0.4953 -0.0617
  748MOL0     C98609   0.371   9.520   9.977 -0.8554  0.4085  0.2547
  748MOL0     C98610   0.257   9.464   9.925  0.2137 -0.5961  0.2970
  748MOL0     C98611   0.265   9.366   9.817  0.4949 -0.2943 -0.0307
  748MOL0     O98612   0.148   9.323   9.756  0.1641  0.7180 -0.0901
  748MOL0     C98613   0.140   9.213   9.665 -0.7786  0.3571  0.5825
  748MOL0     C98614  -0.003   9.170   9.647  0.3856 -0.1994 -0.0114
  748MOL0     C98615  -0.076   9.274   9.557  0.3588  0.4599  0.1525
  748MOL0     C98616  -0.232   9.249   9.546 -0.2042  0.0176 -0.7897
  748MOL0     C98617  -0.318   9.345   9.456 -0.6495  0.1740 -1.1259
  748MOL0     C98618  -0.468   9.308   9.471 -0.0138 -0.3273 -0.5796
  748MOL0     C98619  -0.559   9.430   9.428  0.0976  0.2896  0.4655
  748MOL0     C98620  -0.693   9.407   9.504  0.5337  0.2470  0.9123
  748MOL0     N98621  -0.806   9.441   9.419  0.0428  0.2358  0.3410
  748MOL0     C98622  -0.838   9.566   9.359 -0.7295 -0.3556  0.0945
  748MOL0     C98623  -0.950   9.533   9.293  0.7713  0.2719 -0.2219
  748MOL0     C98624  -1.049   9.631   9.226 -1.4210  0.2796 -0.4688
  748MOL0     C98625  -1.200   9.597   9.249 -0.1233 -0.6859  0.1487
  748MOL0     C98626  -1.293   9.671   9.159 -1.4475 -0.2726  0.4331
  748MOL0     C98627  -1.433   9.612   9.183  0.9955 -0.1053 -0.1155
  748MOL0     O98628  -1.522   9.708   9.122 -0.1528 -0.0343 -0.7205
  748MOL0     C98629  -1.655   9.669   9.125  0.1461 -0.1971  0.5242
  748MOL0     C98630  -1.731   9.739   9.031  0.4725  1.2165 -0.2713
  748MOL0     C98631  -1.869   9.704   9.025 -0.7363  0.9109  0.5525
  748MOL0     C98632  -1.931   9.608   9.101 -0.0411 -0.2302 -0.3460
  748MOL0     C98633  -2.085   9.587   9.096  0.0814 -0.2756  0.2656
  748MOL0     O98634  -2.138   9.471   9.144 -0.9508 -0.2334  0.2809
  748MOL0     C98635  -2.277   9.445   9.139  0.8219 -0.2976 -0.3476
  748MOL0     C98636  -2.336   9.375   9.247  0.4967  0.5712 -0.5944
  748MOL0     C98637  -2.474   9.340   9.245 -0.0327 -0.7848 -0.0101
  748MOL0     C98638  -2.559   9.375   9.134  0.4185  1.2183 -0.8110
  748MOL0     O98639  -2.692   9.334   9.137  1.2150 -0.2770 -0.3986
  748MOL0     C98640  -2.725   9.238   9.034  0.0406 -0.0752  0.2173
  748MOL0     C98641  -2.879   9.234   9.001  0.1955  1.0169 -0.1565
  748MOL0     C98642  -2.940   9.085   8.963 -0.5976  0.5669  0.3349
  748MOL0     C98643  -3.088   9.078   8.910 -0.0699  0.5057  0.0962
  748MOL0     C98644  -3.197   9.125   9.010 -0.4852 -0.4297 -0.6007
  748MOL0     C98645  -3.340   9.059   8.985 -1.2128  0.9799 -0.6271
  748MOL0     C98646  -3.409   9.105   8.857 -0.5748  0.7785  0.8312
  748MOL0     C98647  -3.552   9.049   8.851  0.5034  1.1538 -0.4464
  748MOL0    Cl98648  -3.643   9.143   8.975 -0.0773  0.4824  0.1441
  748MOL0     C98649  -2.502   9.440   9.021  0.3360 -0.0768  0.4452
  748MOL0     C98650  -2.368   9.474   9.029 -0.2865 -0.0679  0.4242
  748MOL0     O98651  -2.150   9.679   9.041 -0.2887 -0.1639  0.0762
  748MOL0     C98652  -1.857   9.536   9.198 -0.5594  0.3478  0.3642
  748MOL0     C98653  -1.715   9.563   9.200  0.2050  0.2086 -0.7914
  748MOL0     N98654  -0.986   9.408   9.318  0.3805  0.0849  0.2606
  748MOL0     N98655  -0.905   9.351   9.391  0.5269 -1.0990  0.0351
  748MOL0     C98656   0.384   9.297   9.795 -0.5019 -0.0212  0.3788
  748MOL0     C98657   0.493   9.343   9.861 -1.2495 -0.3525 -0.2596
  748MOL0     C98658   0.769   9.692   9.995  0.1428  0.5155 -0.0194
  748MOL0     C98659   0.870   9.604  10.031  0.3483  0.6649  0.0803
  748MOL0     C98660   0.989   9.645  10.072  0.7184 -1.4017  0.6907
  748MOL0     C98661   1.020   9.784  10.082 -0.3123 -0.2359  0.6654
  748MOL0     O98662   1.157   9.818  10.114 -0.0407  0.3244  0.4791
  748MOL0     C98663   1.179   9.941  10.181 -0.5220 -0.8239  0.7454
  748MOL0     C98664   1.320   9.973  10.207 -0.3543 -0.0805 -0.2768
  748MOL0     C98665   1.387   9.872  10.310  0.4566 -0.2298  1.0247
  748MOL0     C98666   1.358   9.898  10.455 -1.1020 -0.8666  0.2938
  748MOL0     C98667   1.418  10.021  10.509  0.6296 -0.0428 -0.9957
  748MOL0     C98668   1.471  10.116  10.555 -0.0143 -0.4327  0.1925
  748MOL0     C98669   0.914   9.877  10.052 -0.2039 -0.2091 -0.3098
  748MOL0     C98670   0.784   9.832  10.015  0.5095 -0.5537  0.3319
  748MOL0     H98671   0.385   9.604  10.045  1.6216 -1.0320  1.6682
  748MOL0     H98672   0.162   9.506   9.955  0.9850  0.3218  1.5458
  748MOL0     H98673   0.193   9.138   9.724  0.1312  0.1309 -0.4933
  748MOL0     H98674   0.199   9.230   9.574 -0.8891 -0.1199  0.4179
  748MOL0     H98675  -0.061   9.166   9.739  0.0189 -0.9953 -0.2720
  748MOL0     H98676  -0.003   9.066   9.613 -0.5955 -1.3659  3.1968
  748MOL0     H98677  -0.025   9.265   9.461  0.2250 -2.0016  0.2424
  748MOL0     H98678  -0.061   9.373   9.600  0.0099  0.5902 -0.0259
  748MOL0     H98679  -0.250   9.144   9.519  2.6683 -1.6177  2.7332
  748MOL0     H98680  -0.264   9.248   9.650  2.9860 -1.6538  0.3290
  748MOL0     H98681  -0.295   9.348   9.349  0.5371  2.2223 -0.8533
  748MOL0     H98682  -0.319   9.449   9.488 -0.3849  0.2013 -1.2043
  748MOL0     H98683  -0.481   9.287   9.578  3.3672  5.2202  1.3245
  748MOL0     H98684  -0.489   9.214   9.419 -1.9762 -1.8037  2.6084
  748MOL0     H98685  -0.514   9.521   9.468  0.6274 -0.2224  1.0564
  748MOL0     H98686  -0.567   9.428   9.319 -1.7092 -3.0236  0.5276
  748MOL0     H98687  -0.701   9.469   9.594  2.0691 -1.5178  2.3626
  748MOL0     H98688  -0.712   9.300   9.520  1.6172 -0.3257 -1.2666
  748MOL0     H98689  -0.806   9.669   9.374  0.3966 -0.4718 -1.3871
  748MOL0     H98690  -1.019   9.632   9.121  2.4956 -2.5926  0.3757
  748MOL0     H98691  -1.033   9.732   9.263 -5.1325  1.1217 -0.7806
  748MOL0     H98692  -1.225   9.607   9.355  1.2848  0.5959  0.3902
  748MOL0     H98693  -1.212   9.489   9.232  3.0824 -1.0641 -0.3131
  748MOL0     H98694  -1.294   9.778   9.181  0.7570  0.4678 -2.5290
  748MOL0     H98695  -1.253   9.660   9.058 -0.0886 -1.5593  1.0795
  748MOL0     H98696  -1.455   9.593   9.289 -0.0426 -2.2691 -0.6644
  748MOL0     H98697  -1.443   9.521   9.124 -0.5401  1.1803 -1.9686
  748MOL0     H98698  -1.673   9.799   8.962  3.7890 -1.2884  0.0605
  748MOL0     H98699  -1.940   9.753   8.960 -1.8954  0.0224  1.1013
  748MOL0     H98700  -2.296   9.366   9.347 -4.2394 -0.2366  1.4895
  748MOL0     H98701  -2.515   9.285   9.329 -2.9107  0.6849 -0.3384
  748MOL0     H98702  -2.688   9.143   9.073  2.4628  0.1595 -1.3057
  748MOL0     H98703  -2.677   9.264   8.939 -3.1891  2.5937 -0.8950
  748MOL0     H98704  -2.888   9.300   8.914 -1.8079  1.1267  0.0833
  748MOL0     H98705  -2.928   9.276   9.089  0.5198  2.8606 -0.7999
  748MOL0     H98706  -2.932   9.024   9.053 -0.5229 -0.1603 -0.1558
  748MOL0     H98707  -2.873   9.040   8.889 -0.9244 -0.1587  0.4730
  748MOL0     H98708  -3.109   9.131   8.816 -1.3894 -0.7483 -0.3528
  748MOL0     H98709  -3.101   8.972   8.886  0.2011  0.9532 -2.3374
  748MOL0     H98710  -3.213   9.232   8.996 -3.2183 -0.8990 -1.6679
  748MOL0     H98711  -3.162   9.106   9.112 -0.3960  0.9976 -0.3470
  748MOL0     H98712  -3.403   9.077   9.072 -2.1373 -2.8243 -0.3220
  748MOL0     H98713  -3.320   8.951   8.990  1.5516  1.3995 -0.7208
  748MOL0     H98714  -3.414   9.214   8.848 -3.0946  0.5653 -1.6060
  748MOL0     H98715  -3.358   9.066   8.769 -2.1788 -0.8727  0.5823
  748MOL0     H98716  -3.557   8.945   8.885 -5.0108  1.1472 -0.4041
  748MOL0     H98717  -3.592   9.064   8.750 -1.5883  0.1419  0.1636
  748MOL0     H98718  -2.565   9.478   8.942 -0.3168  1.3804  1.6277
  748MOL0     H98719  -2.332   9.524   8.939 -1.7756  2.5427  1.1871
  748MOL0     H98720  -1.899   9.454   9.256  2.0971 -0.9655  0.5856
  748MOL0     H98721  -1.651   9.503   9.264 -0.1852  0.1328 -0.4720
  748MOL0     H98722   0.398   9.217   9.724 -2.6593  0.4026 -0.5936
  748MOL0     H98723   0.589   9.302   9.832 -0.3703  1.3310  0.1243
  748MOL0     H98724   0.862   9.496  10.023 -0.2998  0.8076 -1.6760
  748MOL0     H98725   1.059   9.572  10.110  0.5747 -2.1755 -0.4823
  748MOL0     H98726   1.137   9.930  10.281  0.4408  1.5702  1.4702
  748MOL0     H98727   1.125  10.027  10.139 -1.2299 -0.1666  2.8965
  748MOL0     H98728   1.376   9.980  10.113 -3.6688  0.5449 -2.3768
  748MOL0     H98729   1.325  10.077  10.240 -0.2555 -0.0864 -0.2764
  748MOL0     H98730   1.494   9.880  10.289  0.0503  0.2480 -1.0924
  748MOL0     H98731   1.360   9.770  10.282  0.2708 -0.2214  1.1739
  748MOL0     H98732   1.249   9.905  10.465 -0.9510 -0.8339  2.2278
  748MOL0     H98733   1.399   9.812  10.509  3.4287  0.2370 -0.9141
  748MOL0     H98734   1.510  10.197  10.614 -2.1855  2.7898 -2.4366
  748MOL0     H98735   0.931   9.984  10.047 -1.8003  0.0383 -1.1189
  748MOL0     H98736   0.717   9.913   9.991  1.6201  0.2546 -0.0909
  749MOL0     O98737   4.783  11.175  10.195 -0.3212  0.3613 -0.1245
  749MOL0     C98738   4.839  11.089  10.129  0.2134  0.2663 -0.3300
  749MOL0     O98739   4.770  10.992  10.056 -0.1270 -0.5528  0.4316
  749MOL0     C98740   4.634  10.995  10.052  0.5842  0.1828 -0.2090
  749MOL0     C98741   4.561  10.885  10.107 -0.0107  0.0661  0.0314
  749MOL0     C98742   4.422  10.877  10.089  0.1155  1.0945 -0.5288
  749MOL0     C98743   4.354  10.992  10.047 -0.1472  0.8994 -0.8246
  749MOL0     O98744   4.214  10.974  10.050 -0.0431 -0.3549 -0.5275
  749MOL0     C98745   4.147  11.024   9.932 -0.9238  0.1867 -0.1585
  749MOL0     C98746   4.012  10.947   9.925  0.1189  0.5714  0.3393
  749MOL0     C98747   3.946  10.955   9.792 -0.9679  0.7335  0.0307
  749MOL0     C98748   3.887  11.095   9.767  0.4764  0.1391  0.0440
  749MOL0     C98749   3.743  11.125   9.811 -0.3500  0.4384 -0.7730
  749MOL0     C98750   3.637  11.016   9.787 -0.8021 -0.2048  0.8231
  749MOL0     C98751   3.498  11.049   9.831  0.3449  0.8381 -0.4831
  749MOL0     C98752   3.472  11.008   9.979  0.9855 -0.0782 -0.5839
  749MOL0     N98753   3.401  10.879   9.993 -0.9366  0.1231 -0.1216
  749MOL0     C98754   3.263  10.869   9.983 -0.9425  0.7486 -0.1252
  749MOL0     C98755   3.243  10.729   9.983 -1.1880  0.5697 -0.5299
  749MOL0     C98756   3.126  10.656   9.967  0.3799  0.9432  0.8145
  749MOL0     C98757   3.066  10.620  10.096  0.0935  0.2409  0.2333
  749MOL0     C98758   3.140  10.502  10.166  0.3075 -0.6894  0.2628
  749MOL0     C98759   3.084  10.496  10.305 -0.9392  0.6103 -0.0636
  749MOL0     O98760   2.946  10.465  10.285 -0.6463  0.0888  0.0437
  749MOL0     C98761   2.861  10.481  10.385  0.4189 -0.1066  0.1688
  749MOL0     C98762   2.904  10.463  10.523  0.0447  0.2060 -0.1402
  749MOL0     C98763   2.814  10.498  10.624  0.3791 -1.1137  0.6090
  749MOL0     C98764   2.680  10.533  10.587 -0.4584 -0.1333  0.0188
  749MOL0     C98765   2.576  10.555  10.680  1.6951 -0.4041 -0.0539
  749MOL0     O98766   2.450  10.597  10.629 -0.2201  0.1912  0.8541
  749MOL0     C98767   2.349  10.598  10.712 -0.8101 -1.0944  0.7555
  749MOL0     C98768   2.348  10.660  10.842 -0.1219  0.6883  0.4288
  749MOL0     C98769   2.230  10.665  10.912  0.0454  0.6944  0.1984
  749MOL0     C98770   2.114  10.606  10.867  0.5042  0.1908  0.1220
  749MOL0     O98771   2.014  10.630  10.949  0.1427 -0.7041  0.1011
  749MOL0     C98772   1.882  10.601  10.910  0.0542  0.3093 -0.2499
  749MOL0     C98773   1.798  10.683  11.005  0.1970  0.3837 -0.4100
  749MOL0     C98774   1.646  10.684  10.978  0.5527  0.2427  0.0389
  749MOL0     C98775   1.570  10.553  10.964  0.0196  0.6995 -0.2671
  749MOL0     C98776   1.537  10.524  10.814 -0.1195  0.5519  0.5591
  749MOL0     C98777   1.462  10.634  10.732  1.0318  0.4481  0.1928
  749MOL0     C98778   1.344  10.693  10.810 -0.1350 -0.1140 -0.2651
  749MOL0     C98779   1.276  10.814  10.744  0.1908 -0.0257  0.5546
  749MOL0    Cl98780   1.098  10.821  10.785 -0.0557 -0.1631 -0.2804
  749MOL0     C98781   2.114  10.547  10.740 -0.4113 -0.3670  0.4532
  749MOL0     C98782   2.232  10.539  10.663  0.1516 -0.6114  0.4297
  749MOL0     O98783   2.588  10.510  10.793  0.2480 -1.4697  0.6346
  749MOL0     C98784   2.640  10.550  10.454  0.4493  0.2003 -1.0000
  749MOL0     C98785   2.739  10.535  10.359  0.1589  0.1718 -0.2624
  749MOL0     N98786   3.365  10.666  10.000 -0.6998 -0.1618  0.4487
  749MOL0     N98787   3.463  10.754  10.009  0.6583 -0.7421 -0.3736
  749MOL0     C98788   4.422  11.098   9.998 -0.2490  0.0906  0.0125
  749MOL0     C98789   4.565  11.103  10.003  0.6429  0.2749 -0.4159
  749MOL0     C98790   4.979  11.069  10.156 -0.2682  0.1547  0.3488
  749MOL0     C98791   5.036  10.945  10.115  0.6279  0.6494 -0.3592
  749MOL0     C98792   5.174  10.944  10.092 -0.5356 -0.5375 -0.3418
  749MOL0     C98793   5.255  11.056  10.121  0.3315  0.1492  0.5448
  749MOL0     O98794   5.381  11.041  10.075  0.2467 -0.6861  0.3718
  749MOL0     C98795   5.466  10.985  10.170  0.0200  0.3701 -0.6380
  749MOL0     C98796   5.595  10.929  10.103  0.1889 -0.1697  0.3468
  749MOL0     C98797   5.571  10.795  10.022 -0.4670 -0.7535 -0.1288
  749MOL0     C98798   5.692  10.761   9.928  0.8197  0.0430 -0.5963
  749MOL0     C98799   5.817  10.760  10.002 -0.5347  0.1940  0.2548
  749MOL0     C98800   5.919  10.772  10.052  0.6459 -0.3629  0.0952
  749MOL0     C98801   5.196  11.167  10.170 -0.2001 -1.3325 -0.6400
  749MOL0     C98802   5.065  11.176  10.185 -0.2108 -0.2600  0.3017
  749MOL0     H98803   4.618  10.804  10.150 -0.4411 -0.2075  0.0921
  749MOL0     H98804   4.363  10.789  10.112  0.2207  1.4313  1.1146
  749MOL0     H98805   4.201  10.985   9.844  1.1661  1.1100  0.6661
  749MOL0     H98806   4.145  11.133   9.936  0.1966  0.2418 -0.7409
  749MOL0     H98807   3.946  10.987  10.003 -0.7256  0.9955 -0.5590
  749MOL0     H98808   4.030  10.846   9.962  0.0442  0.4587  0.0724
  749MOL0     H98809   3.870  10.877   9.780  0.9281 -1.1716 -0.0947
  749MOL0     H98810   4.019  10.935   9.713  2.3643  2.2193  2.5328
  749MOL0     H98811   3.955  11.173   9.804 -0.6271  1.3880 -0.4803
  749MOL0     H98812   3.893  11.105   9.659  4.2452 -0.1298  0.0729
  749MOL0     H98813   3.712  11.222   9.770  2.6793  1.5784 -0.5840
  749MOL0     H98814   3.743  11.153   9.917 -1.4096 -1.9510 -0.0666
  749MOL0     H98815   3.668  10.915   9.817  4.2681  0.2953 -1.7746
  749MOL0     H98816   3.626  11.001   9.679 -5.1643 -0.8890  1.1577
  749MOL0     H98817   3.469  11.154   9.815 -1.1674  0.2809 -1.5953
  749MOL0     H98818   3.419  11.002   9.771  0.6414  3.0556 -2.8301
  749MOL0     H98819   3.405  11.079  10.028  1.5536  0.2575 -0.2725
  749MOL0     H98820   3.559  11.011  10.045  0.3341  1.7360  0.2343
  749MOL0     H98821   3.176  10.933   9.982 -2.7484 -1.5869 -0.6059
  749MOL0     H98822   3.151  10.566   9.909 -1.0908  1.0028  0.0324
  749MOL0     H98823   3.047  10.707   9.911 -0.3935  0.8751  1.8190
  749MOL0     H98824   2.963  10.592  10.075 -0.2153  1.3765  0.1944
  749MOL0     H98825   3.071  10.707  10.161 -0.6428 -0.0407  0.6717
  749MOL0     H98826   3.111  10.413  10.110 -0.3375 -1.6065  1.9913
  749MOL0     H98827   3.248  10.521  10.174  0.7651 -2.5186 -0.9780
  749MOL0     H98828   3.083  10.594  10.354 -2.5796 -0.2761  1.8046
  749MOL0     H98829   3.128  10.419  10.369 -0.1572  1.0683 -0.0404
  749MOL0     H98830   2.998  10.420  10.553  0.6482  1.6499  0.1314
  749MOL0     H98831   2.832  10.492  10.731 -3.8242 -0.4805  1.5246
  749MOL0     H98832   2.445  10.687  10.882  0.1743  2.1061 -1.1599
  749MOL0     H98833   2.249  10.714  11.007 -2.7576 -0.8685  1.7277
  749MOL0     H98834   1.852  10.496  10.915  3.8126 -0.9824 -1.2295
  749MOL0     H98835   1.877  10.631  10.805  4.0639  1.1735 -0.3643
  749MOL0     H98836   1.841  10.784  11.002  3.1937 -0.7569 -0.1575
  749MOL0     H98837   1.820  10.635  11.100  0.1164  0.2562 -0.4569
  749MOL0     H98838   1.617  10.748  10.895 -1.1076  2.4779  2.2066
  749MOL0     H98839   1.597  10.734  11.062 -0.7264 -0.3450 -0.3376
  749MOL0     H98840   1.627  10.473  11.010  0.5426  1.0516 -0.2986
  749MOL0     H98841   1.471  10.559  11.010  0.0896 -0.8723  0.1427
  749MOL0     H98842   1.476  10.434  10.803 -0.8400  1.3127 -2.4477
  749MOL0     H98843   1.635  10.509  10.767 -0.9491  0.3495 -1.1713
  749MOL0     H98844   1.427  10.591  10.637 -1.2709  2.5744 -0.0340
  749MOL0     H98845   1.535  10.712  10.712  2.3157 -0.9792 -1.0155
  749MOL0     H98846   1.269  10.615  10.829  0.6088 -0.7231  0.2386
  749MOL0     H98847   1.371  10.734  10.908  2.0778  1.8324 -1.6099
  749MOL0     H98848   1.290  10.819  10.636  0.2578  1.2552  0.6079
  749MOL0     H98849   1.320  10.908  10.776 -0.9892  1.2798 -1.4523
  749MOL0     H98850   2.029  10.498  10.693  0.3828 -0.7936 -0.5721
  749MOL0     H98851   2.222  10.493  10.565  0.6852  0.9268 -0.3769
  749MOL0     H98852   2.545  10.584  10.416  1.3629  0.9854 -2.6742
  749MOL0     H98853   2.700  10.565  10.262  1.8173 -1.0685 -1.3707
  749MOL0     H98854   4.362  11.172   9.945  0.1246 -0.6082 -1.4342
  749MOL0     H98855   4.635  11.174   9.960 -0.1712  1.1474 -0.3136
  749MOL0     H98856   4.993  10.852  10.081  0.3873  0.6764 -0.1319
  749MOL0     H98857   5.217  10.853  10.051 -1.6078 -2.9465  3.3428
  749MOL0     H98858   5.420  10.902  10.224  2.2134 -0.5279 -0.0751
  749MOL0     H98859   5.485  11.059  10.248 -1.2555 -0.4693  0.5064
  749MOL0     H98860   5.617  11.007  10.029 -2.3410 -0.4319 -0.7713
  749MOL0     H98861   5.675  10.918  10.177  1.2802 -0.9851 -0.8836
  749MOL0     H98862   5.476  10.809   9.971 -0.8817  0.5885  0.9346
  749MOL0     H98863   5.571  10.722  10.103  1.6401 -0.3188  0.3324
  749MOL0     H98864   5.672  10.661   9.890  0.0539 -0.1399  0.2489
  749MOL0     H98865   5.696  10.830   9.844  3.0455  0.6838 -0.0464
  749MOL0     H98866   6.007  10.794  10.109  0.4213  2.9752 -0.6652
  749MOL0     H98867   5.264  11.251  10.179 -0.7851 -0.8826 -0.2860
  749MOL0     H98868   5.021  11.272  10.209  2.3336  0.8478  0.8408
  750MOL0     O98869   3.816   5.334   5.925 -0.1841 -0.0479  0.5606
  750MOL0     C98870   3.827   5.405   5.823  0.2648  0.2833  0.5561
  750MOL0     O98871   3.729   5.483   5.771  0.4545  0.7071  0.1935
  750MOL0     C98872   3.603   5.508   5.829  0.1527 -0.2780 -0.6063
  750MOL0     C98873   3.574   5.489   5.963 -0.3102 -0.2040 -1.1397
  750MOL0     C98874   3.445   5.506   6.006  0.1236  0.0669  0.6617
  750MOL0     C98875   3.344   5.557   5.924 -0.2076  0.1559 -0.0299
  750MOL0     O98876   3.210   5.564   5.956  0.7425  0.3442  0.2955
  750MOL0     C98877   3.170   5.556   6.094  0.2042 -0.5847 -0.2797
  750MOL0     C98878   3.027   5.596   6.111  0.0688  0.0428 -0.0333
  750MOL0     C98879   2.917   5.502   6.072 -0.3401  0.3888 -0.0599
  750MOL0     C98880   2.779   5.557   6.090 -0.3282 -0.3628  0.1854
  750MOL0     C98881   2.673   5.452   6.066 -0.1216 -0.0935 -0.0875
  750MOL0     C98882   2.663   5.415   5.913  0.1783 -0.5636  0.5628
  750MOL0     C98883   2.516   5.427   5.865  0.6071 -0.6314  0.8588
  750MOL0     C98884   2.468   5.579   5.841  0.6083  0.8822 -0.3600
  750MOL0     N98885   2.334   5.584   5.786  0.9320  0.8765 -0.4155
  750MOL0     C98886   2.218   5.531   5.835  0.2640 -0.4840  0.4041
  750MOL0     C98887   2.117   5.549   5.745  0.8516  0.1589  0.8310
  750MOL0     C98888   1.970   5.512   5.735 -0.0109 -0.7387 -0.0869
  750MOL0     C98889   1.877   5.612   5.783 -0.7293  0.4073 -0.1338
  750MOL0     C98890   1.840   5.580   5.935  0.7572  0.6124 -0.4976
  750MOL0     C98891   1.763   5.692   6.008 -0.7563 -0.4442  1.0320
  750MOL0     O98892   1.629   5.697   5.953  0.4156  0.1142 -0.7111
  750MOL0     C98893   1.578   5.808   5.894 -0.4693 -0.2823  0.1040
  750MOL0     C98894   1.449   5.847   5.934 -0.5955 -0.1873 -1.0489
  750MOL0     C98895   1.401   5.972   5.888  0.6286  0.9097  0.3422
  750MOL0     C98896   1.472   6.046   5.790 -0.5056  0.0088  0.6389
  750MOL0     C98897   1.423   6.167   5.725 -0.8027  0.5859  1.0092
  750MOL0     O98898   1.284   6.178   5.748 -0.5933  0.8250  0.1808
  750MOL0     C98899   1.214   6.281   5.690  0.3641 -0.2064  0.1261
  750MOL0     C98900   1.099   6.261   5.617  0.9002 -0.2678  0.1022
  750MOL0     C98901   1.016   6.374   5.579 -0.4146  0.5520 -0.5881
  750MOL0     C98902   1.070   6.503   5.594 -0.2276 -0.1710  1.0074
  750MOL0     O98903   0.997   6.611   5.560 -0.6737 -0.4253  0.3086
  750MOL0     C98904   0.965   6.625   5.420  0.2343  0.6543 -0.2618
  750MOL0     C98905   0.882   6.755   5.397 -0.0964 -0.1943 -0.4662
  750MOL0     C98906   0.734   6.718   5.408  1.5293  0.2637  0.0219
  750MOL0     C98907   0.639   6.824   5.349 -0.6544  0.6767 -0.2824
  750MOL0     C98908   0.499   6.798   5.402  0.3259 -0.2643  0.7240
  750MOL0     C98909   0.466   6.845   5.545 -0.6472  0.1047  1.1914
  750MOL0     C98910   0.320   6.842   5.585 -0.4545 -1.2068 -0.0796
  750MOL0     C98911   0.245   6.712   5.550  0.7447  0.9230 -0.0060
  750MOL0    Cl98912   0.341   6.562   5.610 -0.2388  0.2516 -0.0417
  750MOL0     C98913   1.188   6.521   5.664  0.5776 -1.2270 -0.2039
  750MOL0     C98914   1.252   6.413   5.727  1.5332  0.2608 -0.8938
  750MOL0     O98915   1.491   6.237   5.653 -0.3981  0.1330 -0.2004
  750MOL0     C98916   1.594   6.000   5.754 -0.4057  0.4347  0.0799
  750MOL0     C98917   1.656   5.885   5.805  0.6547 -0.2291 -0.4546
  750MOL0     N98918   2.182   5.618   5.637 -0.0779 -0.6153 -0.4120
  750MOL0     N98919   2.313   5.637   5.668  0.2875  1.0383 -0.7550
  750MOL0     C98920   3.376   5.588   5.793 -0.6562  0.7622  0.4295
  750MOL0     C98921   3.510   5.569   5.751  0.4294 -0.5808  0.3481
  750MOL0     C98922   3.964   5.409   5.761  0.4440 -0.0296 -0.4892
  750MOL0     C98923   3.994   5.451   5.633 -0.0240  0.3511  0.3017
  750MOL0     C98924   4.135   5.464   5.588  0.0112  0.6853 -1.0572
  750MOL0     C98925   4.237   5.431   5.676 -0.3613 -0.3622  0.6476
  750MOL0     O98926   4.364   5.448   5.624 -0.8425  0.1533 -0.1934
  750MOL0     C98927   4.476   5.434   5.706  0.0052  0.7990 -0.6730
  750MOL0     C98928   4.598   5.488   5.628 -0.6386  0.4377  0.2852
  750MOL0     C98929   4.709   5.485   5.733  0.2210  1.0135  0.5907
  750MOL0     C98930   4.845   5.548   5.673 -0.1880 -1.3298 -0.2070
  750MOL0     C98931   4.943   5.560   5.780 -0.1483 -0.4248 -0.0061
  750MOL0     C98932   5.034   5.551   5.859  0.2470  0.3687  0.6385
  750MOL0     C98933   4.203   5.387   5.806 -0.3523 -0.3660 -0.7602
  750MOL0     C98934   4.070   5.387   5.853 -1.5290 -0.0491 -0.4419
  750MOL0     H98935   3.651   5.464   6.035 -1.4555  0.7186  0.4542
  750MOL0     H98936   3.427   5.450   6.097  1.1822 -0.8603  0.3284
  750MOL0     H98937   3.230   5.632   6.145  1.6512  0.0019 -2.6767
  750MOL0     H98938   3.192   5.461   6.142  1.3742 -0.4648 -0.5579
  750MOL0     H98939   3.015   5.694   6.063  2.2657  0.1951 -0.3608
  750MOL0     H98940   3.008   5.627   6.214  0.7015  1.6549 -0.3640
  750MOL0     H98941   2.922   5.414   6.137 -2.1034 -0.2575 -0.7277
  750MOL0     H98942   2.942   5.469   5.970 -0.1734 -1.3513  0.5027
  750MOL0     H98943   2.760   5.582   6.195 -1.7462 -1.8327  0.3326
  750MOL0     H98944   2.776   5.647   6.028 -2.3079 -0.2794  0.3203
  750MOL0     H98945   2.574   5.479   6.106 -0.1220 -2.5572  1.7967
  750MOL0     H98946   2.702   5.364   6.124 -0.5179 -0.2314 -0.0934
  750MOL0     H98947   2.679   5.307   5.908 -1.0135 -1.0567  4.0682
  750MOL0     H98948   2.736   5.476   5.860  1.3733 -2.1489  0.3423
  750MOL0     H98949   2.508   5.375   5.768 -0.9905 -0.6085  0.9489
  750MOL0     H98950   2.443   5.386   5.936 -2.2587  1.2596 -0.7797
  750MOL0     H98951   2.541   5.633   5.779 -0.1354  1.8846 -0.3804
  750MOL0     H98952   2.462   5.626   5.939  0.0589 -1.4102  0.7679
  750MOL0     H98953   2.204   5.490   5.935  4.5832  2.7681  2.6814
  750MOL0     H98954   1.967   5.422   5.796  0.3856 -1.1874 -0.7211
  750MOL0     H98955   1.935   5.481   5.636 -1.8390 -1.1972  0.6617
  750MOL0     H98956   1.786   5.614   5.724  0.2030 -1.9677 -1.8358
  750MOL0     H98957   1.930   5.708   5.787  0.5249 -0.2577 -0.0860
  750MOL0     H98958   1.772   5.494   5.940  0.9357  0.4899 -0.1768
  750MOL0     H98959   1.933   5.562   5.990  1.3906 -1.2016 -2.0385
  750MOL0     H98960   1.816   5.787   6.000  1.4472 -1.6011  1.2352
  750MOL0     H98961   1.742   5.659   6.110 -4.6121 -0.6272  0.3518
  750MOL0     H98962   1.386   5.776   5.987  1.5609 -1.3886  0.0820
  750MOL0     H98963   1.305   6.011   5.919  0.7600  0.0829  1.8844
  750MOL0     H98964   1.081   6.160   5.581 -2.4136 -0.4899  1.9869
  750MOL0     H98965   0.912   6.374   5.549 -0.8347  0.4808  0.8055
  750MOL0     H98966   0.911   6.538   5.381  0.8890  0.0049  0.2485
  750MOL0     H98967   1.066   6.627   5.377 -0.5478  0.1198 -2.2322
  750MOL0     H98968   0.918   6.801   5.305  3.5830  0.9392  1.3349
  750MOL0     H98969   0.915   6.818   5.480 -0.9757 -0.4310  0.0692
  750MOL0     H98970   0.700   6.685   5.506  1.8420 -0.3617 -0.0737
  750MOL0     H98971   0.717   6.630   5.345  0.4460  0.7802 -0.4218
  750MOL0     H98972   0.668   6.922   5.389 -0.4210  1.0537 -1.3371
  750MOL0     H98973   0.643   6.814   5.240  0.8826 -0.4382 -0.1571
  750MOL0     H98974   0.478   6.690   5.396  2.3195 -0.9417  3.7573
  750MOL0     H98975   0.421   6.846   5.342 -0.0994  0.4410  1.8202
  750MOL0     H98976   0.476   6.954   5.548 -0.7502  0.1760 -0.2178
  750MOL0     H98977   0.527   6.803   5.625 -0.7300 -0.7991  0.7895
  750MOL0     H98978   0.301   6.855   5.692 -1.6283 -2.7445 -0.0555
  750MOL0     H98979   0.258   6.916   5.534 -3.0070 -2.8886  0.3406
  750MOL0     H98980   0.229   6.688   5.444 -3.3871  0.2698  0.6343
  750MOL0     H98981   0.148   6.711   5.599  1.7960 -0.5978  2.2492
  750MOL0     H98982   1.228   6.618   5.694 -1.7608 -0.5737  1.0825
  750MOL0     H98983   1.323   6.455   5.797  1.2474  2.6531 -1.9276
  750MOL0     H98984   1.640   6.060   5.675  1.5355  1.4059  1.8535
  750MOL0     H98985   1.753   5.845   5.778  2.1730 -0.6990  4.7705
  750MOL0     H98986   3.300   5.605   5.718  0.3962 -0.8160 -1.0816
  750MOL0     H98987   3.532   5.600   5.649  1.9574 -3.1498 -0.1796
  750MOL0     H98988   3.910   5.485   5.573 -0.9016 -0.5339  0.9866
  750MOL0     H98989   4.151   5.510   5.491 -3.5418  2.3147 -1.0357
  750MOL0     H98990   4.493   5.332   5.743 -1.1307  0.2911 -1.4729
  750MOL0     H98991   4.451   5.505   5.784 -2.5162 -0.8390  0.1378
  750MOL0     H98992   4.618   5.424   5.542  3.2891  0.4384  1.0118
  750MOL0     H98993   4.578   5.591   5.597 -3.1939  0.8526  2.8655
  750MOL0     H98994   4.735   5.384   5.765  1.2965  0.7804 -0.8957
  750MOL0     H98995   4.682   5.548   5.819  1.7112  1.5241  0.7173
  750MOL0     H98996   4.876   5.497   5.581  4.8408  0.9818 -0.0828
  750MOL0     H98997   4.825   5.649   5.638 -1.8634 -2.1247 -1.7454
  750MOL0     H98998   5.105   5.539   5.939 -2.4067  0.8764  3.2339
  750MOL0     H98999   4.284   5.359   5.873  0.4397  0.1725 -1.4807
  750MOL0     H99000   4.047   5.351   5.953 -0.9809  1.3806  0.2178
  751MOL0     O99001   5.815  10.029   8.984 -0.1435  0.8902  0.6443
  751MOL0     C99002   5.731  10.102   8.940 -0.0134 -0.5758  0.0190
  751MOL0     O99003   5.698  10.222   8.996  0.2875  0.6091 -0.1963
  751MOL0     C99004   5.764  10.286   9.096  0.3954 -0.3491 -0.6921
  751MOL0     C99005   5.888  10.254   9.150  0.1003 -0.3166 -0.7136
  751MOL0     C99006   5.936  10.340   9.245 -0.9019 -0.1947 -0.0568
  751MOL0     C99007   5.876  10.452   9.304 -0.3528  0.4343  0.5596
  751MOL0     O99008   5.935  10.523   9.404 -0.1988  0.5609 -0.2524
  751MOL0     C99009   5.875  10.641   9.459 -0.0142  0.4760 -0.4206
  751MOL0     C99010   5.958  10.726   9.556 -0.0672  1.2840 -0.5182
  751MOL0     C99011   5.897  10.855   9.589  0.1983 -0.3894 -0.2461
  751MOL0     C99012   5.968  10.945   9.689 -0.0127 -0.1967 -0.5364
  751MOL0     C99013   5.888  11.053   9.751  0.6563  0.4084  0.3336
  751MOL0     C99014   5.806  11.141   9.667  0.3738  0.2908 -0.4120
  751MOL0     C99015   5.892  11.238   9.584  0.8086  0.1009  1.0502
  751MOL0     C99016   5.813  11.336   9.495  0.4495 -0.0334 -0.1594
  751MOL0     N99017   5.900  11.424   9.409 -0.3149  0.4425 -0.1193
  751MOL0     C99018   5.878  11.557   9.400 -0.4714 -0.5693 -0.6357
  751MOL0     C99019   5.951  11.591   9.290 -0.6565  0.3859  0.8434
  751MOL0     C99020   5.957  11.724   9.222 -0.2620 -0.6576  0.4282
  751MOL0     C99021   5.989  11.840   9.318  0.5142 -0.9830  0.0761
  751MOL0     C99022   5.993  11.976   9.245 -0.9857  0.5047 -0.5344
  751MOL0     C99023   5.859  12.045   9.254  0.0927 -0.2915  0.1819
  751MOL0     O99024   5.752  11.973   9.195  0.3158  0.2326  0.1876
  751MOL0     C99025   5.623  12.012   9.208  0.5900  0.1948 -0.6891
  751MOL0     C99026   5.532  11.963   9.110 -0.0675 -0.3071 -0.9499
  751MOL0     C99027   5.395  11.995   9.106  0.3351  0.0151 -0.2997
  751MOL0     C99028   5.349  12.092   9.189 -0.7002  0.3605 -0.2713
  751MOL0     C99029   5.196  12.123   9.199  0.0875 -0.2701 -0.2550
  751MOL0     O99030   5.165  12.230   9.273 -0.2234 -0.2261 -0.0353
  751MOL0     C99031   5.042  12.287   9.271 -0.0692 -0.4647 -0.2733
  751MOL0     C99032   5.032  12.405   9.347 -0.6119  0.4839 -0.0050
  751MOL0     C99033   4.907  12.472   9.350 -0.6045 -0.4088  0.5158
  751MOL0     C99034   4.793  12.441   9.273 -0.5699  1.2853  1.2565
  751MOL0     O99035   4.665  12.508   9.267 -1.2125 -0.2098  0.1530
  751MOL0     C99036   4.661  12.643   9.299 -0.9652  0.3174 -0.1497
  751MOL0     C99037   4.524  12.703   9.251  0.2933 -0.3329 -0.1311
  751MOL0     C99038   4.481  12.838   9.315 -0.5270 -0.3403 -0.1491
  751MOL0     C99039   4.585  12.950   9.339 -0.5330 -0.2959  0.4156
  751MOL0     C99040   4.545  13.050   9.443 -0.1002 -0.3558  0.5157
  751MOL0     C99041   4.418  13.126   9.391 -0.4106 -0.2857  0.8777
  751MOL0     C99042   4.396  13.247   9.486 -0.1248  1.0376 -0.0105
  751MOL0     C99043   4.339  13.207   9.619 -0.0179  0.5267 -1.0799
  751MOL0    Cl99044   4.176  13.125   9.599  0.3095 -0.0560 -0.3510
  751MOL0     C99045   4.813  12.328   9.192  0.2077  0.0378  0.2274
  751MOL0     C99046   4.918  12.246   9.201 -0.0956  0.1195  0.3858
  751MOL0     O99047   5.121  12.052   9.131 -0.1379 -0.8974  0.2663
  751MOL0     C99048   5.440  12.141   9.286  1.0530 -0.9322  0.3429
  751MOL0     C99049   5.573  12.111   9.293  0.9174  0.2374 -0.3059
  751MOL0     N99050   6.017  11.478   9.236 -0.6811  0.3056 -0.0548
  751MOL0     N99051   5.978  11.377   9.307 -0.1302 -0.1923 -0.8373
  751MOL0     C99052   5.750  10.488   9.245  0.5467 -0.4494 -0.0940
  751MOL0     C99053   5.695  10.397   9.149  0.3435  0.6074  0.1150
  751MOL0     C99054   5.647  10.067   8.823 -0.1027  0.5295  0.4091
  751MOL0     C99055   5.590  10.177   8.762 -0.7682  0.3989  0.0512
  751MOL0     C99056   5.528  10.165   8.641 -0.3956  0.0642 -0.1736
  751MOL0     C99057   5.520  10.043   8.580  0.2609  0.0129  0.2015
  751MOL0     O99058   5.459  10.016   8.457  0.1129  0.2796 -0.5876
  751MOL0     C99059   5.354  10.096   8.405 -0.2079  0.4342 -0.3030
  751MOL0     C99060   5.241   9.998   8.382  0.2849 -0.3518 -0.2194
  751MOL0     C99061   5.280   9.882   8.287  0.3667 -0.3099  0.7139
  751MOL0     C99062   5.168   9.786   8.265  0.7656  0.6136  0.7109
  751MOL0     C99063   5.213   9.681   8.173 -0.8755 -1.0652 -0.4049
  751MOL0     C99064   5.275   9.590   8.115  0.8246  0.1839  0.2583
  751MOL0     C99065   5.564   9.929   8.651  0.0678  0.7330  0.8210
  751MOL0     C99066   5.636   9.943   8.767  0.3109  0.9204  0.1306
  751MOL0     H99067   5.956  10.173   9.125  0.8214 -1.1237  3.1647
  751MOL0     H99068   6.039  10.332   9.280 -0.1399  3.3797 -1.0457
  751MOL0     H99069   5.781  10.624   9.513  0.7556  2.5023  1.7339
  751MOL0     H99070   5.852  10.699   9.369  1.0478  0.6416 -0.5907
  751MOL0     H99071   6.061  10.729   9.520  0.5693 -0.8606  0.9057
  751MOL0     H99072   5.953  10.674   9.652 -2.2081 -1.4806 -1.9559
  751MOL0     H99073   5.804  10.826   9.639 -1.3572  3.0947 -0.8188
  751MOL0     H99074   5.871  10.899   9.493 -1.5105 -0.3694  0.2012
  751MOL0     H99075   5.994  10.881   9.774  2.8218  0.5253 -0.7638
  751MOL0     H99076   6.055  10.986   9.638 -0.9013 -0.8269 -2.6657
  751MOL0     H99077   5.959  11.115   9.805  1.0399  1.8750 -1.7534
  751MOL0     H99078   5.809  11.016   9.818  1.5611 -2.7273 -0.1741
  751MOL0     H99079   5.749  11.206   9.735 -3.4097 -4.3425  1.4120
  751MOL0     H99080   5.749  11.078   9.599  1.5546  1.2256 -2.3521
  751MOL0     H99081   5.960  11.290   9.652  0.7203  1.0572  0.4248
  751MOL0     H99082   5.957  11.187   9.514 -1.9249 -1.5624 -0.4624
  751MOL0     H99083   5.738  11.390   9.554 -2.4715 -2.0093 -1.8683
  751MOL0     H99084   5.757  11.279   9.421  0.0502 -1.2638  1.0417
  751MOL0     H99085   5.837  11.635   9.464  0.8505  0.5593 -1.1111
  751MOL0     H99086   5.861  11.738   9.172 -0.1543  0.7802  0.5910
  751MOL0     H99087   6.030  11.718   9.140 -0.3366  0.7007  0.2422
  751MOL0     H99088   6.089  11.816   9.358 -0.1744 -1.1550  1.7854
  751MOL0     H99089   5.925  11.849   9.406  1.1558  0.7720  0.3920
  751MOL0     H99090   6.068  12.039   9.293  0.4771 -0.4787 -1.4114
  751MOL0     H99091   6.025  11.963   9.141 -1.3957  0.2269 -0.6299
  751MOL0     H99092   5.872  12.142   9.206 -2.2297  0.2121  0.4725
  751MOL0     H99093   5.835  12.062   9.360 -3.1589 -2.5185 -0.0733
  751MOL0     H99094   5.577  11.892   9.042 -0.3808 -0.7411 -0.7097
  751MOL0     H99095   5.326  11.938   9.044  1.4750 -0.5840 -1.0384
  751MOL0     H99096   5.118  12.443   9.402  1.4219 -1.2353 -1.7728
  751MOL0     H99097   4.907  12.569   9.398  0.7213  1.0831 -2.3014
  751MOL0     H99098   4.739  12.695   9.242 -0.5873 -0.4765 -0.3762
  751MOL0     H99099   4.667  12.660   9.407 -2.6092 -0.4612  0.0969
  751MOL0     H99100   4.454  12.626   9.287 -1.1888  1.8555  1.9468
  751MOL0     H99101   4.536  12.703   9.142  3.2146  1.0794  0.1101
  751MOL0     H99102   4.441  12.822   9.416  0.4061  1.3803  0.5315
  751MOL0     H99103   4.405  12.880   9.249 -0.9330  2.5773  1.9965
  751MOL0     H99104   4.681  12.918   9.380 -0.2637  0.5542  0.4615
  751MOL0     H99105   4.605  13.006   9.247 -1.4807 -0.4018  0.1338
  751MOL0     H99106   4.631  13.118   9.448 -0.2294 -0.0813 -0.5948
  751MOL0     H99107   4.538  12.996   9.538  1.2154  1.3303  1.6470
  751MOL0     H99108   4.326  13.067   9.400 -1.9950  1.9854  0.5270
  751MOL0     H99109   4.436  13.166   9.291  0.5114  2.4681  2.0401
  751MOL0     H99110   4.487  13.305   9.505 -0.1210  0.8790  0.4597
  751MOL0     H99111   4.315  13.315   9.457  1.1029  2.4345 -0.3167
  751MOL0     H99112   4.321  13.288   9.692 -2.1444 -0.6407 -0.2204
  751MOL0     H99113   4.402  13.128   9.659 -2.4395 -3.3201 -4.1778
  751MOL0     H99114   4.729  12.281   9.142  1.3052 -1.8267  0.0396
  751MOL0     H99115   4.911  12.167   9.127 -0.0949  3.6070 -3.7548
  751MOL0     H99116   5.398  12.214   9.354 -0.1731  1.4888 -2.7903
  751MOL0     H99117   5.632  12.167   9.364  0.5493 -0.0011  0.1941
  751MOL0     H99118   5.694  10.577   9.274  0.2718 -1.1655  1.7602
  751MOL0     H99119   5.597  10.431   9.117  0.1162  0.1123  0.2725
  751MOL0     H99120   5.611  10.278   8.795  0.9775 -0.5400  2.0442
  751MOL0     H99121   5.494  10.263   8.610  2.0245  1.2905  0.8065
  751MOL0     H99122   5.383  10.141   8.310  2.1863  2.0846  1.0951
  751MOL0     H99123   5.327  10.171   8.479  2.6200  0.0193  1.2844
  751MOL0     H99124   5.213   9.954   8.478  1.6555 -1.9279 -0.4910
  751MOL0     H99125   5.162  10.059   8.338  1.2796  1.8719  0.9448
  751MOL0     H99126   5.368   9.835   8.331 -0.6799 -1.1165  2.0729
  751MOL0     H99127   5.300   9.925   8.189  1.6872  1.3630  1.6728
  751MOL0     H99128   5.133   9.749   8.362  1.3929  0.0674  0.7355
  751MOL0     H99129   5.092   9.848   8.218 -0.7311 -0.9450  0.9593
  751MOL0     H99130   5.312   9.503   8.066 -0.1431 -0.1054  0.0215
  751MOL0     H99131   5.542   9.831   8.611 -1.2917  1.8665 -1.3912
  751MOL0     H99132   5.691   9.866   8.821 -4.4796 -1.8505  1.6579
  752MOL0     O99133   2.327   3.511   7.775  0.5889 -0.0848 -0.2282
  752MOL0     C99134   2.324   3.626   7.821 -0.8488  0.5938  0.6769
  752MOL0     O99135   2.214   3.699   7.852 -0.9413  0.3997 -0.8425
  752MOL0     C99136   2.095   3.663   7.818  1.3599  1.2385  0.7220
  752MOL0     C99137   1.998   3.769   7.810 -0.4147 -0.1621  0.1493
  752MOL0     C99138   1.859   3.742   7.792  0.5241  0.1828  0.5400
  752MOL0     C99139   1.808   3.617   7.746 -0.9639 -0.4887 -1.2230
  752MOL0     O99140   1.669   3.596   7.720 -0.4548  0.5949 -0.2760
  752MOL0     C99141   1.606   3.684   7.626 -1.2245 -0.2776  0.0638
  752MOL0     C99142   1.464   3.659   7.620 -0.5026 -1.0350  1.2909
  752MOL0     C99143   1.389   3.727   7.498 -0.1114  0.2748 -0.0740
  752MOL0     C99144   1.241   3.730   7.543  0.4785 -0.3603  0.4681
  752MOL0     C99145   1.157   3.747   7.419  0.7071 -0.2191 -0.8950
  752MOL0     C99146   1.013   3.685   7.428 -0.1459 -0.7656  0.0973
  752MOL0     C99147   0.918   3.749   7.520 -0.6078 -0.0589 -0.2521
  752MOL0     C99148   0.789   3.678   7.528  0.3447 -0.2431 -0.0609
  752MOL0     N99149   0.705   3.761   7.615 -0.8710  0.4631  0.8199
  752MOL0     C99150   0.674   3.897   7.614  0.4944 -0.0431 -0.0200
  752MOL0     C99151   0.574   3.903   7.714 -0.0435  0.9345 -0.3594
  752MOL0     C99152   0.505   4.027   7.765  0.4113  0.6135  0.2403
  752MOL0     C99153   0.360   4.020   7.718 -0.6487  0.3067 -0.6102
  752MOL0     C99154   0.325   4.132   7.637  1.1469 -0.5664  0.1210
  752MOL0     C99155   0.167   4.145   7.609 -1.1057 -0.0938 -0.2492
  752MOL0     O99156   0.138   4.289   7.606 -0.0103 -0.2768  0.0289
  752MOL0     C99157   0.038   4.336   7.691  0.2419 -0.6943 -0.6858
  752MOL0     C99158   0.069   4.438   7.790  0.0324  0.2078 -0.0091
  752MOL0     C99159  -0.036   4.515   7.836  0.2681  0.6157  1.0217
  752MOL0     C99160  -0.173   4.481   7.812 -0.0986 -0.6135  0.0259
  752MOL0     C99161  -0.277   4.569   7.863  0.6072  0.5031 -0.3043
  752MOL0     O99162  -0.399   4.520   7.879 -0.0579  0.0189  0.0370
  752MOL0     C99163  -0.505   4.572   7.951  0.2588  0.3916 -0.6152
  752MOL0     C99164  -0.633   4.536   7.921  0.7280 -0.2604  0.4158
  752MOL0     C99165  -0.743   4.591   7.980 -0.1451 -0.8072  0.2478
  752MOL0     C99166  -0.728   4.653   8.110 -1.7407  0.5059  1.3573
  752MOL0     O99167  -0.842   4.683   8.178  0.1290  0.7718  0.2545
  752MOL0     C99168  -0.841   4.779   8.275 -0.0030 -0.1231 -0.0990
  752MOL0     C99169  -0.984   4.832   8.279  1.0055 -0.9815  0.0626
  752MOL0     C99170  -1.072   4.716   8.338  0.5022  0.2972 -0.6005
  752MOL0     C99171  -1.214   4.763   8.351 -0.5901 -0.5134 -0.0165
  752MOL0     C99172  -1.289   4.683   8.453  0.4051 -0.9435 -0.3933
  752MOL0     C99173  -1.446   4.717   8.453  0.7716  0.3531  0.0916
  752MOL0     C99174  -1.487   4.867   8.484 -0.0126 -0.3537  0.2445
  752MOL0     C99175  -1.642   4.881   8.464 -0.2703 -0.1013  0.0686
  752MOL0    Cl99176  -1.712   4.784   8.591  0.5168  0.3667  0.0505
  752MOL0     C99177  -0.591   4.678   8.148 -0.2602  0.0978 -0.3011
  752MOL0     C99178  -0.485   4.648   8.067 -0.2901  0.7239 -0.0898
  752MOL0     O99179  -0.246   4.684   7.906  0.1142  0.3119  0.3247
  752MOL0     C99180  -0.202   4.367   7.735  0.2071 -0.9897  0.1272
  752MOL0     C99181  -0.101   4.291   7.674  0.0261 -0.0708  0.0502
  752MOL0     N99182   0.567   3.780   7.776  0.6460  0.0499  1.1815
  752MOL0     N99183   0.644   3.700   7.709 -0.0236  0.8733 -0.3513
  752MOL0     C99184   1.914   3.520   7.731  1.7444  0.0471  0.3652
  752MOL0     C99185   2.047   3.533   7.773  0.5437 -0.6519 -0.3022
  752MOL0     C99186   2.453   3.694   7.848 -0.3131  0.1094 -0.4268
  752MOL0     C99187   2.459   3.796   7.941 -0.7512  0.5552  0.0126
  752MOL0     C99188   2.586   3.850   7.968  0.1906 -0.3290 -1.0062
  752MOL0     C99189   2.702   3.812   7.900  0.2808 -0.4613  0.6350
  752MOL0     O99190   2.824   3.874   7.912 -0.2397 -0.4177  0.1162
  752MOL0     C99191   2.923   3.876   7.814  1.1667  0.9385  0.5075
  752MOL0     C99192   3.008   4.002   7.848 -0.3117  0.2387  0.3308
  752MOL0     C99193   3.099   3.965   7.963 -0.1620 -0.2051 -0.0739
  752MOL0     C99194   3.200   4.077   8.010 -0.3821 -0.2011  0.2770
  752MOL0     C99195   3.307   4.102   7.913 -0.3917 -0.3875 -0.2242
  752MOL0     C99196   3.388   4.130   7.830 -0.2767  0.9368 -0.1480
  752MOL0     C99197   2.691   3.719   7.798  0.2073  0.1916  0.5352
  752MOL0     C99198   2.569   3.654   7.785 -0.1402  0.5265  0.6191
  752MOL0     H99199   2.026   3.871   7.834  0.4330  0.2774 -2.3904
  752MOL0     H99200   1.781   3.812   7.822 -1.6879 -0.8491 -2.3797
  752MOL0     H99201   1.643   3.666   7.524 -1.9174 -0.5473 -0.1458
  752MOL0     H99202   1.619   3.788   7.656 -0.0975 -0.2251 -0.5395
  752MOL0     H99203   1.428   3.710   7.710  3.6983  0.2364  2.5187
  752MOL0     H99204   1.441   3.552   7.618  0.5349 -1.2597  0.2127
  752MOL0     H99205   1.405   3.658   7.415 -0.3420 -1.3254  1.1576
  752MOL0     H99206   1.439   3.823   7.480 -1.7669  1.5298  1.5806
  752MOL0     H99207   1.206   3.640   7.595 -0.3883 -0.5456 -0.4012
  752MOL0     H99208   1.227   3.815   7.610  1.9725 -0.3193  0.7631
  752MOL0     H99209   1.199   3.692   7.334 -0.7918 -1.1508 -1.0790
  752MOL0     H99210   1.159   3.853   7.393  0.2590  1.2613  4.0161
  752MOL0     H99211   1.011   3.578   7.454 -0.2294 -0.3235  2.0802
  752MOL0     H99212   0.980   3.692   7.324  3.3129 -0.3386 -1.0799
  752MOL0     H99213   0.964   3.757   7.619 -0.6567 -0.2278 -0.2160
  752MOL0     H99214   0.906   3.848   7.474  1.1195  1.0072  1.4237
  752MOL0     H99215   0.795   3.579   7.574 -1.4946 -0.3686 -0.0002
  752MOL0     H99216   0.733   3.670   7.434  0.6471  0.4265 -0.3006
  752MOL0     H99217   0.702   3.978   7.547  0.8085  2.1528  2.6201
  752MOL0     H99218   0.549   4.124   7.740  0.8232 -0.4054 -3.7757
  752MOL0     H99219   0.501   4.018   7.874 -0.2832  2.5700  0.4055
  752MOL0     H99220   0.301   4.017   7.810  2.6537 -0.1810  1.6682
  752MOL0     H99221   0.338   3.929   7.662  3.1618 -1.1456 -0.0549
  752MOL0     H99222   0.349   4.219   7.698  1.5475  0.2904 -1.1949
  752MOL0     H99223   0.372   4.133   7.538 -1.7324 -3.1555 -1.4565
  752MOL0     H99224   0.097   4.102   7.681 -3.6182  0.1601 -2.3924
  752MOL0     H99225   0.138   4.100   7.514 -0.0445  2.5783 -1.9600
  752MOL0     H99226   0.173   4.462   7.807 -0.7037  3.9056  0.1505
  752MOL0     H99227  -0.014   4.600   7.900  3.0739  3.4205 -3.1153
  752MOL0     H99228  -0.660   4.479   7.832  0.4655 -1.1740  1.0659
  752MOL0     H99229  -0.843   4.570   7.944 -0.7016 -2.3667  2.4497
  752MOL0     H99230  -0.770   4.861   8.257  0.1612 -0.5968 -1.7201
  752MOL0     H99231  -0.804   4.718   8.358 -0.8552 -2.6994 -1.5140
  752MOL0     H99232  -1.020   4.862   8.181 -3.8582 -2.8133  0.9911
  752MOL0     H99233  -1.002   4.918   8.344 -1.4431 -2.1846  1.0958
  752MOL0     H99234  -1.030   4.690   8.436  0.1096  0.2584 -0.4429
  752MOL0     H99235  -1.075   4.625   8.278 -0.9268  0.1894 -0.4042
  752MOL0     H99236  -1.216   4.865   8.393 -3.6306 -0.5884  0.2228
  752MOL0     H99237  -1.248   4.774   8.248 -0.0424  2.2608 -0.0012
  752MOL0     H99238  -1.254   4.719   8.549  1.0724 -1.1193 -0.5673
  752MOL0     H99239  -1.270   4.576   8.441 -1.0981 -1.2545 -0.2710
  752MOL0     H99240  -1.500   4.652   8.521  0.2015  0.9003  0.1673
  752MOL0     H99241  -1.475   4.688   8.351  0.9350  0.3456  0.0474
  752MOL0     H99242  -1.469   4.885   8.590  4.6298 -0.9768 -0.2272
  752MOL0     H99243  -1.453   4.938   8.408 -2.3614 -2.1344 -2.6907
  752MOL0     H99244  -1.660   4.836   8.366  0.3072  0.2163 -0.1877
  752MOL0     H99245  -1.674   4.986   8.465  1.0043  0.3009  1.2370
  752MOL0     H99246  -0.554   4.727   8.238  1.7001 -0.9344 -0.4979
  752MOL0     H99247  -0.388   4.683   8.100  0.2537  2.0370 -2.7644
  752MOL0     H99248  -0.307   4.357   7.709  0.3753  1.0236 -1.6644
  752MOL0     H99249  -0.130   4.206   7.613  0.3769  0.1349 -0.4135
  752MOL0     H99250   1.866   3.431   7.695 -2.0391  1.7431  0.7491
  752MOL0     H99251   2.100   3.439   7.779 -4.6613 -3.8884  1.0374
  752MOL0     H99252   2.372   3.833   7.993  0.6352  3.2528  0.6046
  752MOL0     H99253   2.603   3.928   8.041 -0.8510  0.6415 -1.7636
  752MOL0     H99254   2.873   3.888   7.717 -0.1206 -0.2936  0.9694
  752MOL0     H99255   2.976   3.781   7.821  0.3729 -0.0275 -3.7418
  752MOL0     H99256   3.066   4.039   7.763  0.2122  1.8486  1.3249
  752MOL0     H99257   2.942   4.081   7.886 -0.7720  0.0839 -0.1596
  752MOL0     H99258   3.165   3.882   7.937 -1.9204 -3.0435  3.5518
  752MOL0     H99259   3.045   3.936   8.053  0.4317 -0.3313  0.2454
  752MOL0     H99260   3.149   4.171   8.033  0.0605 -0.2846  1.6581
  752MOL0     H99261   3.251   4.051   8.103 -1.0915 -2.6533  0.0706
  752MOL0     H99262   3.465   4.158   7.761 -1.2237 -0.0631 -1.6863
  752MOL0     H99263   2.770   3.681   7.735 -1.3618 -0.1326 -1.3670
  752MOL0     H99264   2.555   3.571   7.716 -2.1869  2.1326 -1.0567
  753MOL0     O99265   1.936   0.001   1.308 -0.0601 -0.4837 -0.2193
  753MOL0     C99266   1.951  -0.021   1.429 -0.7820 -0.5060 -0.1845
  753MOL0     O99267   1.858   0.004   1.527 -0.7590 -0.1834  0.1655
  753MOL0     C99268   1.756   0.085   1.500 -0.6395  0.8208 -0.2804
  753MOL0     C99269   1.771   0.228   1.487  0.0710 -0.0186  0.9746
  753MOL0     C99270   1.655   0.311   1.462 -0.3717  0.4900 -0.6377
  753MOL0     C99271   1.526   0.249   1.450 -0.0839  0.3577  0.2150
  753MOL0     O99272   1.418   0.337   1.429 -0.0987  0.1200 -0.4135
  753MOL0     C99273   1.291   0.277   1.405  0.1906 -0.4835  0.5756
  753MOL0     C99274   1.193   0.393   1.352  0.5488  0.4273  0.0398
  753MOL0     C99275   1.094   0.326   1.263  1.1539  0.4857 -0.5056
  753MOL0     C99276   1.003   0.207   1.331 -0.0330  0.4912 -0.1273
  753MOL0     C99277   0.886   0.155   1.243  0.2761 -0.3520  0.4913
  753MOL0     C99278   0.917   0.090   1.110 -0.0036 -0.5232  0.3407
  753MOL0     C99279   1.003  -0.043   1.125 -0.4584 -0.9165  0.1462
  753MOL0     C99280   1.025  -0.119   0.997  0.6803 -0.6814  0.4937
  753MOL0     N99281   1.059  -0.038   0.883  0.2651 -1.2111  0.2617
  753MOL0     C99282   0.962   0.016   0.802 -0.3326  0.8449  0.1333
  753MOL0     C99283   1.046   0.090   0.715 -1.3476 -0.3658 -0.0543
  753MOL0     C99284   0.989   0.183   0.606  1.1595 -0.1317  0.5700
  753MOL0     C99285   0.968   0.322   0.674 -0.2879  0.4940  0.4925
  753MOL0     C99286   0.905   0.430   0.573 -0.4725  0.6660  0.3090
  753MOL0     C99287   0.756   0.412   0.546 -0.6831  0.1874 -0.7983
  753MOL0     O99288   0.695   0.430   0.681 -0.1376  0.3623  0.1842
  753MOL0     C99289   0.562   0.407   0.668  0.1239 -0.6289 -0.2137
  753MOL0     C99290   0.510   0.290   0.717 -0.1161  0.1970 -0.3602
  753MOL0     C99291   0.370   0.267   0.698  0.5983 -0.2497  0.2789
  753MOL0     C99292   0.280   0.371   0.665 -1.0495  0.1418 -0.0856
  753MOL0     C99293   0.140   0.351   0.685  0.1518 -0.3533  0.0770
  753MOL0     O99294   0.059   0.447   0.627  0.2798  0.5769 -0.3469
  753MOL0     C99295  -0.082   0.434   0.636 -0.6903 -0.4927  0.1295
  753MOL0     C99296  -0.147   0.417   0.512 -0.1237  0.9246  0.0449
  753MOL0     C99297  -0.288   0.423   0.502 -0.3817 -0.2751  0.0706
  753MOL0     C99298  -0.361   0.445   0.618  0.0677 -0.4064  0.0736
  753MOL0     O99299  -0.492   0.463   0.606  0.8261  0.4788  0.7424
  753MOL0     C99300  -0.562   0.557   0.695  0.7855  0.3792  0.4868
  753MOL0     C99301  -0.672   0.625   0.614 -0.9647 -0.5873 -0.6629
  753MOL0     C99302  -0.756   0.720   0.694  0.4448 -0.5785 -0.0549
  753MOL0     C99303  -0.850   0.658   0.805 -0.5622  0.4549  0.2432
  753MOL0     C99304  -0.959   0.757   0.849 -0.0429 -0.3368 -0.2451
  753MOL0     C99305  -0.906   0.847   0.952  1.0702  0.0146  0.1844
  753MOL0     C99306  -1.007   0.957   0.994 -0.5867 -0.2138  0.4686
  753MOL0     C99307  -0.962   1.017   1.129 -0.6083  0.0408 -0.4058
  753MOL0    Cl99308  -0.968   0.909   1.270 -0.2000 -0.1211 -0.0611
  753MOL0     C99309  -0.287   0.456   0.736 -0.0871 -0.4945 -0.0601
  753MOL0     C99310  -0.156   0.441   0.746  0.0078  0.1612 -0.0598
  753MOL0     O99311   0.097   0.249   0.745  0.0198 -0.5150 -0.3238
  753MOL0     C99312   0.334   0.491   0.634 -0.5189  0.8570 -0.2913
  753MOL0     C99313   0.474   0.512   0.628  1.2351  0.9057 -1.4193
  753MOL0     N99314   1.183   0.076   0.739 -0.6211  0.7275 -0.0878
  753MOL0     N99315   1.187   0.002   0.854  0.2521 -0.9267  0.1238
  753MOL0     C99316   1.512   0.110   1.457  0.0828  0.5491 -0.3231
  753MOL0     C99317   1.627   0.032   1.478 -0.3310  0.0948  0.1811
  753MOL0     C99318   2.080  -0.085   1.465 -0.7502 -1.0947 -0.7457
  753MOL0     C99319   2.195  -0.046   1.391  0.0083  1.2994  0.3990
  753MOL0     C99320   2.324  -0.094   1.411 -0.2786  0.2932 -0.2138
  753MOL0     C99321   2.325  -0.184   1.530  1.3109 -0.3711 -0.3492
  753MOL0     O99322   2.442  -0.233   1.583 -0.6980  0.2661 -0.2104
  753MOL0     C99323   2.562  -0.162   1.550 -0.7134 -1.1301  0.5400
  753MOL0     C99324   2.584  -0.026   1.610  0.1321 -0.2025  0.9077
  753MOL0     C99325   2.552  -0.025   1.763  0.4871 -0.9862  0.9107
  753MOL0     C99326   2.618   0.094   1.834 -0.1417  0.3716 -0.4144
  753MOL0     C99327   2.556   0.216   1.792  0.2448  0.3980  0.2721
  753MOL0     C99328   2.499   0.309   1.746 -1.0570 -0.0046 -0.2522
  753MOL0     C99329   2.213  -0.214   1.606  0.8876 -0.1647 -0.0784
  753MOL0     C99330   2.086  -0.164   1.579 -0.1218  0.4514 -0.0232
  753MOL0     H99331   1.870   0.272   1.499 -0.0719  1.4841 -2.1886
  753MOL0     H99332   1.655   0.420   1.459  3.0416  0.6073 -0.4978
  753MOL0     H99333   1.244   0.236   1.494 -0.4682 -0.9214  0.0322
  753MOL0     H99334   1.303   0.201   1.327 -4.2813  0.3581 -1.2758
  753MOL0     H99335   1.252   0.462   1.290 -1.6700  1.4098 -1.0698
  753MOL0     H99336   1.140   0.449   1.430  0.5945 -0.3189  0.6151
  753MOL0     H99337   1.142   0.282   1.176  1.2585  2.0983 -1.2958
  753MOL0     H99338   1.022   0.402   1.232 -0.8665 -1.6283 -1.3030
  753MOL0     H99339   1.058   0.120   1.367 -1.3323 -0.5036 -0.4693
  753MOL0     H99340   0.950   0.252   1.415  2.1592  1.2071  0.9445
  753MOL0     H99341   0.835   0.245   1.207  3.7404  1.2614 -0.8161
  753MOL0     H99342   0.814   0.094   1.299 -0.9642  0.9268  0.3237
  753MOL0     H99343   0.979   0.160   1.055 -0.6564 -0.4802 -0.3509
  753MOL0     H99344   0.826   0.075   1.051 -0.2423 -2.6656  1.1438
  753MOL0     H99345   1.100  -0.013   1.166 -0.4528 -0.3348 -0.2710
  753MOL0     H99346   0.959  -0.110   1.199 -4.0429  0.3309 -0.6031
  753MOL0     H99347   0.939  -0.184   0.981  0.7287 -0.4322 -0.8592
  753MOL0     H99348   1.113  -0.180   1.018  3.3572  2.2797 -1.1807
  753MOL0     H99349   0.854   0.021   0.806 -0.2775  4.3508  0.0679
  753MOL0     H99350   0.897   0.131   0.577  0.7719  0.8304  0.0266
  753MOL0     H99351   1.056   0.188   0.521 -1.8952 -1.1495 -2.1024
  753MOL0     H99352   1.065   0.365   0.700 -0.1114  1.6292 -1.8133
  753MOL0     H99353   0.920   0.311   0.772  1.6955 -1.9588  1.2921
  753MOL0     H99354   0.927   0.530   0.609  2.2601 -0.7381  2.9248
  753MOL0     H99355   0.955   0.412   0.477  1.0989 -0.3494  1.2755
  753MOL0     H99356   0.745   0.309   0.512  0.1789 -0.1804 -0.0179
  753MOL0     H99357   0.726   0.488   0.473  0.1205  1.0288 -0.2677
  753MOL0     H99358   0.585   0.234   0.771  0.3275  0.9455 -0.1908
  753MOL0     H99359   0.324   0.173   0.728 -4.0210  2.0218  1.1216
  753MOL0     H99360  -0.095   0.412   0.417 -0.8643  2.4730 -0.4734
  753MOL0     H99361  -0.321   0.412   0.399  5.1963 -2.1060 -1.9055
  753MOL0     H99362  -0.493   0.634   0.732 -0.1467  3.1097 -2.9528
  753MOL0     H99363  -0.613   0.499   0.772 -1.9369  1.3939 -0.4389
  753MOL0     H99364  -0.735   0.553   0.561 -0.7990 -0.2564 -1.3077
  753MOL0     H99365  -0.618   0.684   0.540 -0.5273 -2.0978 -1.5672
  753MOL0     H99366  -0.816   0.789   0.635  0.4927 -0.7998 -0.3595
  753MOL0     H99367  -0.693   0.790   0.750  0.4445 -0.1881 -0.5368
  753MOL0     H99368  -0.890   0.571   0.753  3.1529 -3.5129  3.3330
  753MOL0     H99369  -0.794   0.623   0.892 -0.0519 -1.3747 -0.7852
  753MOL0     H99370  -1.043   0.710   0.902  1.8712 -1.9885  1.5105
  753MOL0     H99371  -0.991   0.816   0.763  1.2320 -2.7166 -2.5125
  753MOL0     H99372  -0.816   0.896   0.915 -0.1773  2.4942  0.2199
  753MOL0     H99373  -0.863   0.790   1.035  0.1233 -1.2679 -0.1814
  753MOL0     H99374  -1.005   1.035   0.918  0.0999 -1.0817 -0.4186
  753MOL0     H99375  -1.110   0.920   0.998 -0.2810 -1.3107 -0.9891
  753MOL0     H99376  -1.028   1.100   1.155  2.7417  2.7941 -0.0311
  753MOL0     H99377  -0.858   1.049   1.128 -1.3462  2.6707  0.0385
  753MOL0     H99378  -0.351   0.464   0.823 -2.0836  2.4944 -1.6399
  753MOL0     H99379  -0.111   0.444   0.845 -0.3610 -2.1159  0.2437
  753MOL0     H99380   0.273   0.575   0.603 -1.3380 -0.6025 -2.9715
  753MOL0     H99381   0.512   0.609   0.597  1.4826  1.2664 -0.0322
  753MOL0     H99382   1.418   0.058   1.440  0.0291  0.9930 -1.4645
  753MOL0     H99383   1.614  -0.074   1.492  1.5790 -0.4932 -1.8170
  753MOL0     H99384   2.185   0.014   1.300 -1.4995 -0.7798 -0.8820
  753MOL0     H99385   2.415  -0.080   1.354 -1.2276 -0.8771 -2.1420
  753MOL0     H99386   2.575  -0.153   1.442 -1.6235  1.9159  0.5702
  753MOL0     H99387   2.644  -0.219   1.594 -0.6947 -0.3709  1.5291
  753MOL0     H99388   2.687  -0.003   1.584  0.8183 -2.2161  1.7341
  753MOL0     H99389   2.527   0.049   1.553  1.0785  0.9705  1.4666
  753MOL0     H99390   2.581  -0.115   1.817  2.6061 -1.1975 -0.4761
  753MOL0     H99391   2.442  -0.024   1.764  0.2156  3.1598 -2.3093
  753MOL0     H99392   2.606   0.086   1.943  1.0037  0.7540 -0.2508
  753MOL0     H99393   2.723   0.097   1.803  0.1899  0.8922  0.6901
  753MOL0     H99394   2.457   0.383   1.681 -1.3335 -0.7863 -0.9871
  753MOL0     H99395   2.239  -0.275   1.692  2.0778 -1.0557 -1.0357
  753MOL0     H99396   2.006  -0.191   1.647  0.7843  0.5329  1.1033
  754MOL0     O99397   4.431   6.573  10.697  0.2669 -0.0829 -0.1053
  754MOL0     C99398   4.458   6.688  10.651 -0.4567  0.2667 -0.0245
  754MOL0     O99399   4.377   6.762  10.566  0.2021 -0.7373  0.1040
  754MOL0     C99400   4.279   6.717  10.491  0.3308  0.8419  0.6352
  754MOL0     C99401   4.186   6.811  10.444  0.2667 -0.2909 -0.0243
  754MOL0     C99402   4.071   6.766  10.369 -1.2684 -0.1784  0.2001
  754MOL0     C99403   4.050   6.630  10.339 -0.0872  0.1758  0.1773
  754MOL0     O99404   3.955   6.597  10.246 -0.8753 -0.5886  0.0643
  754MOL0     C99405   3.805   6.617  10.252 -0.2529 -0.5526 -0.0495
  754MOL0     C99406   3.752   6.608  10.395 -0.2424 -0.3834  0.3610
  754MOL0     C99407   3.618   6.544  10.416  0.0167  0.2991  0.3162
  754MOL0     C99408   3.501   6.596  10.338 -0.5776  0.4841  0.1098
  754MOL0     C99409   3.374   6.507  10.353  0.1163  0.1432  0.2348
  754MOL0     C99410   3.266   6.575  10.265  0.9189  0.5835  0.0955
  754MOL0     C99411   3.127   6.521  10.300 -0.1020 -0.2651 -0.7130
  754MOL0     C99412   3.101   6.373  10.273 -0.7207 -0.4211  0.6111
  754MOL0     N99413   3.008   6.314  10.371  0.4967  0.3331  0.2773
  754MOL0     C99414   2.873   6.294  10.348  0.5720  0.9203 -0.2543
  754MOL0     C99415   2.837   6.199  10.445 -0.2757 -0.1979  0.6237
  754MOL0     C99416   2.710   6.122  10.450 -1.1262 -0.3704  0.3495
  754MOL0     C99417   2.604   6.188  10.355 -0.2857 -0.5864 -1.5672
  754MOL0     C99418   2.470   6.123  10.379  0.3937  0.3318  0.1996
  754MOL0     C99419   2.422   6.046  10.253 -0.3345 -0.1720  0.2627
  754MOL0     O99420   2.380   6.140  10.155 -0.2713  0.4709  0.7040
  754MOL0     C99421   2.252   6.177  10.165 -0.4923  0.3450 -0.5521
  754MOL0     C99422   2.164   6.100  10.100  1.0956  0.0468  0.6022
  754MOL0     C99423   2.025   6.124  10.106  0.1016  0.1782  0.3834
  754MOL0     C99424   1.978   6.226  10.195 -0.2084 -0.7974  0.2880
  754MOL0     C99425   1.836   6.263  10.196 -0.1505 -0.2849  0.1994
  754MOL0     O99426   1.745   6.191  10.129  0.0180  0.2869 -0.6188
  754MOL0     C99427   1.611   6.218  10.142  0.2920 -0.2145 -1.4867
  754MOL0     C99428   1.554   6.347  10.127  0.4956  0.1658  0.0246
  754MOL0     C99429   1.424   6.371  10.145  0.0880 -0.5666 -1.1030
  754MOL0     C99430   1.341   6.263  10.166 -0.6232  0.4890  0.2319
  754MOL0     O99431   1.217   6.294  10.175  0.0121  0.4919 -0.3338
  754MOL0     C99432   1.123   6.185  10.162  0.7230  0.0018  0.2514
  754MOL0     C99433   0.975   6.245  10.171 -1.0126  0.6449  0.3787
  754MOL0     C99434   0.909   6.217  10.035 -0.2026  0.3336 -0.7026
  754MOL0     C99435   0.760   6.263  10.045  0.3164  1.0112 -0.1933
  754MOL0     C99436   0.678   6.229   9.914  0.3354  0.5824 -0.7085
  754MOL0     C99437   0.658   6.086   9.884 -0.2578 -0.7366  0.0096
  754MOL0     C99438   0.541   6.052   9.786  0.3133  0.2734 -0.7924
  754MOL0     C99439   0.491   5.906   9.767  0.7645 -0.8135 -0.6660
  754MOL0    Cl99440   0.431   5.859   9.939 -0.3019  0.0839 -0.3422
  754MOL0     C99441   1.393   6.131  10.156 -1.0117 -0.6928 -0.1581
  754MOL0     C99442   1.531   6.109  10.145 -0.8883  0.0998 -0.1323
  754MOL0     O99443   1.809   6.371  10.253 -0.2413 -0.3380  0.1597
  754MOL0     C99444   2.074   6.308  10.268  0.2933 -0.2428  0.8036
  754MOL0     C99445   2.210   6.280  10.250 -0.5835 -0.0537  0.6823
  754MOL0     N99446   2.951   6.176  10.527  0.4359 -0.3505  0.9394
  754MOL0     N99447   3.049   6.246  10.479  0.4147 -0.0927  0.2948
  754MOL0     C99448   4.144   6.539  10.386 -0.3810  0.4538  0.2207
  754MOL0     C99449   4.258   6.580  10.453  0.0909 -0.0249 -0.1430
  754MOL0     C99450   4.582   6.757  10.694 -0.7711 -0.1835  0.2772
  754MOL0     C99451   4.610   6.885  10.648  0.1318  0.2299 -0.3538
  754MOL0     C99452   4.722   6.954  10.713  0.1123 -0.4039  0.2456
  754MOL0     C99453   4.816   6.880  10.786 -0.7288 -0.3601 -0.5117
  754MOL0     O99454   4.916   6.948  10.846 -0.6741 -0.3096  0.4439
  754MOL0     C99455   4.999   6.902  10.960  0.1371  0.2649  0.0710
  754MOL0     C99456   5.145   6.902  10.919 -0.1426  0.1988 -0.0567
  754MOL0     C99457   5.169   6.787  10.813  0.0367  0.2671 -1.3608
  754MOL0     C99458   5.311   6.786  10.778 -0.7355 -0.2326 -0.4988
  754MOL0     C99459   5.411   6.756  10.894  0.6269  0.1656 -0.4169
  754MOL0     C99460   5.474   6.738  10.996  0.3565  0.7406  0.3344
  754MOL0     C99461   4.789   6.751  10.814 -0.0082 -0.3830  0.1876
  754MOL0     C99462   4.673   6.696  10.779 -0.3174 -0.3148  0.1340
  754MOL0     H99463   4.199   6.915  10.470  3.1266 -0.7789  0.9038
  754MOL0     H99464   3.993   6.833  10.334  0.1220  0.8084 -1.1160
  754MOL0     H99465   3.771   6.528  10.198  0.1201 -0.2373 -0.8184
  754MOL0     H99466   3.763   6.700  10.195 -1.4296 -0.4174  0.9879
  754MOL0     H99467   3.767   6.708  10.438 -0.2262  0.3996 -1.3735
  754MOL0     H99468   3.817   6.543  10.453 -0.3085 -0.0240  0.8459
  754MOL0     H99469   3.598   6.562  10.522 -1.8602  0.9093 -0.0932
  754MOL0     H99470   3.619   6.435  10.408  0.6169  0.2422  1.1268
  754MOL0     H99471   3.477   6.700  10.364 -1.4620  0.2205  0.3632
  754MOL0     H99472   3.524   6.579  10.232 -0.5386  0.7214  0.0794
  754MOL0     H99473   3.345   6.493  10.458  0.9560 -0.9369  0.3460
  754MOL0     H99474   3.403   6.406  10.324 -0.5838  0.3833 -1.4118
  754MOL0     H99475   3.290   6.568  10.159 -2.3644  2.5842 -0.9367
  754MOL0     H99476   3.265   6.683  10.284  0.5672  0.4068  1.1818
  754MOL0     H99477   3.110   6.548  10.405  4.0933  1.0062 -0.1655
  754MOL0     H99478   3.055   6.579  10.242 -0.3361  1.8781  1.5509
  754MOL0     H99479   3.201   6.328  10.273  1.5316  3.9225 -0.9395
  754MOL0     H99480   3.070   6.358  10.170  0.4907 -3.9608  0.6398
  754MOL0     H99481   2.809   6.328  10.267 -2.2628 -2.8785  0.1613
  754MOL0     H99482   2.671   6.136  10.551  0.9962  3.4273  0.8082
  754MOL0     H99483   2.715   6.020  10.411 -1.0695  0.1162 -0.9716
  754MOL0     H99484   2.640   6.168  10.254  0.2362  1.6020 -1.8585
  754MOL0     H99485   2.599   6.297  10.361 -0.4773 -0.6365 -0.6991
  754MOL0     H99486   2.480   6.037  10.446  1.8065  0.7151  0.4956
  754MOL0     H99487   2.407   6.197  10.429  3.8235  0.8278  4.3117
  754MOL0     H99488   2.340   5.981  10.283  0.0277  0.3954  2.6566
  754MOL0     H99489   2.502   5.984  10.211  2.2921  2.4614  1.0052
  754MOL0     H99490   2.208   6.022  10.039  2.7330  0.4803  1.1729
  754MOL0     H99491   1.952   6.064  10.052  0.8978  1.3138 -2.1027
  754MOL0     H99492   1.628   6.423  10.103  0.2452  0.7829  1.1271
  754MOL0     H99493   1.386   6.473  10.150  0.8869 -0.3270  2.3850
  754MOL0     H99494   1.136   6.107  10.238  1.3141  0.0094  0.1639
  754MOL0     H99495   1.132   6.148  10.060 -0.9621  3.0988 -1.1700
  754MOL0     H99496   0.983   6.348  10.206  2.2303  0.9850 -1.0230
  754MOL0     H99497   0.923   6.182  10.243 -0.1601 -0.3177  0.1764
  754MOL0     H99498   0.913   6.111  10.009  0.0412 -0.4773  2.2770
  754MOL0     H99499   0.953   6.273   9.952  0.1361  0.9931 -0.0889
  754MOL0     H99500   0.707   6.223  10.131 -1.1541  0.7112 -1.2076
  754MOL0     H99501   0.749   6.370  10.066  0.9428  1.2072 -0.7991
  754MOL0     H99502   0.728   6.283   9.832 -2.7006  2.7232 -1.3449
  754MOL0     H99503   0.578   6.273   9.921 -0.0916 -0.5372  0.5163
  754MOL0     H99504   0.626   6.031   9.973  0.6592 -1.9544 -0.3950
  754MOL0     H99505   0.745   6.043   9.834 -1.8506 -0.2234 -3.4652
  754MOL0     H99506   0.459   6.119   9.813 -0.5761 -0.4081 -1.7062
  754MOL0     H99507   0.574   6.090   9.690 -1.3587 -3.1547 -2.9231
  754MOL0     H99508   0.576   5.850   9.729 -0.0021 -1.3543 -1.6378
  754MOL0     H99509   0.405   5.906   9.699 -1.1420 -0.6312  1.6166
  754MOL0     H99510   1.326   6.046  10.166  1.2978 -2.6896 -0.6790
  754MOL0     H99511   1.573   6.010  10.155  1.2702  1.0803  1.0245
  754MOL0     H99512   2.049   6.399  10.321  3.4802  0.6785  0.9414
  754MOL0     H99513   2.288   6.335  10.301  0.3908  0.6833 -1.4906
  754MOL0     H99514   4.135   6.432  10.368  3.0325 -0.0240  0.7960
  754MOL0     H99515   4.322   6.499  10.489 -0.2016 -0.1765  0.0381
  754MOL0     H99516   4.558   6.954  10.583  1.2230 -0.1800 -1.7155
  754MOL0     H99517   4.747   7.059  10.701  4.8470 -1.2915  0.4791
  754MOL0     H99518   4.951   6.811  10.999 -2.2478  1.8446  1.0764
  754MOL0     H99519   4.976   6.973  11.040  0.1578 -0.2932  0.5758
  754MOL0     H99520   5.184   6.994  10.876  0.9293 -0.5837 -0.7957
  754MOL0     H99521   5.207   6.878  11.006  1.0252  2.3069 -0.2404
  754MOL0     H99522   5.105   6.805  10.726 -1.4460 -2.0472 -0.8350
  754MOL0     H99523   5.148   6.692  10.863  0.9700  1.2899  1.1274
  754MOL0     H99524   5.332   6.702  10.712  0.6342 -1.7949  1.7885
  754MOL0     H99525   5.338   6.875  10.721  2.6709 -0.7008  0.2039
  754MOL0     H99526   5.540   6.724  11.079 -2.1317 -1.3156  2.1606
  754MOL0     H99527   4.847   6.693  10.885  2.7404 -0.3839 -1.9010
  754MOL0     H99528   4.652   6.602  10.829  1.8375 -0.8882  0.0448
  755MOL0     O99529   6.812   2.011   9.074  0.2702 -0.2235  0.3541
  755MOL0     C99530   6.769   1.990   9.186 -0.9967 -0.0351 -0.0187
  755MOL0     O99531   6.640   1.976   9.231 -0.2651  0.3728 -0.1725
  755MOL0     C99532   6.536   1.956   9.138  0.7833  0.1062  0.7289
  755MOL0     C99533   6.531   2.037   9.021 -0.3326  0.5126 -0.2000
  755MOL0     C99534   6.426   2.011   8.926  0.1751 -0.4018 -0.1309
  755MOL0     C99535   6.329   1.921   8.950 -1.1515  0.0736  0.3904
  755MOL0     O99536   6.234   1.907   8.846 -1.0313  0.7255  0.1682
  755MOL0     C99537   6.095   1.910   8.880  0.1585  0.5382 -0.3071
  755MOL0     C99538   6.053   2.046   8.913  0.8536 -0.5799  0.0856
  755MOL0     C99539   5.936   2.044   9.010  0.0835  1.5817  1.1093
  755MOL0     C99540   5.800   2.023   8.935 -0.7624 -0.9599  0.4959
  755MOL0     C99541   5.685   2.027   9.026  0.7430  1.1230  0.3973
  755MOL0     C99542   5.573   2.110   8.961 -0.7635 -0.1983 -0.6952
  755MOL0     C99543   5.463   2.155   9.065 -0.4865 -0.7887 -0.5006
  755MOL0     C99544   5.350   2.224   8.985  0.3413 -0.6930  0.1017
  755MOL0     N99545   5.256   2.294   9.068  0.0614 -0.1943  0.0555
  755MOL0     C99546   5.130   2.249   9.114 -0.0386  0.2668 -0.3109
  755MOL0     C99547   5.070   2.350   9.169 -1.1180 -0.2582 -1.0967
  755MOL0     C99548   4.942   2.355   9.236  0.4779 -0.9094  0.9529
  755MOL0     C99549   4.950   2.466   9.352 -0.4915  0.1486  0.3324
  755MOL0     C99550   4.851   2.460   9.459  0.0937 -0.2970 -0.7574
  755MOL0     C99551   4.856   2.337   9.541 -0.1518  0.8750 -0.4711
  755MOL0     O99552   4.784   2.359   9.656  0.2706 -0.0642  0.4007
  755MOL0     C99553   4.714   2.251   9.710 -0.1682 -0.5976 -0.0503
  755MOL0     C99554   4.758   2.121   9.706 -0.5023 -0.6347  0.0518
  755MOL0     C99555   4.688   2.017   9.774  0.5637  0.7682  0.3815
  755MOL0     C99556   4.579   2.042   9.857 -0.6920 -0.0475 -0.9996
  755MOL0     C99557   4.500   1.938   9.923 -0.6806  0.4234  0.6476
  755MOL0     O99558   4.378   1.975   9.986 -0.2982  0.8618  0.5475
  755MOL0     C99559   4.295   1.883  10.042  0.0506  0.3929  0.1289
  755MOL0     C99560   4.338   1.770  10.109 -0.5858 -0.7441 -0.0101
  755MOL0     C99561   4.242   1.684  10.158 -0.3154 -0.0161 -0.7669
  755MOL0     C99562   4.107   1.700  10.128  0.6463 -0.0584 -0.1543
  755MOL0     O99563   4.003   1.610  10.169 -0.2778  0.1466  0.5749
  755MOL0     C99564   4.027   1.512  10.271 -0.1965  0.4538 -0.7388
  755MOL0     C99565   3.905   1.411  10.263  0.2563  0.4283  0.2013
  755MOL0     C99566   3.916   1.287  10.361 -0.3128 -0.0966  0.0618
  755MOL0     C99567   3.934   1.334  10.504  0.1026 -0.1868  0.0948
  755MOL0     C99568   3.927   1.205  10.591 -0.1093 -0.1765  0.7709
  755MOL0     C99569   3.962   1.223  10.728 -0.3831  0.3395 -0.1552
  755MOL0     C99570   3.862   1.297  10.807  1.1228 -0.0213 -0.1742
  755MOL0     C99571   3.890   1.277  10.957  0.0405  0.1397 -0.6235
  755MOL0    Cl99572   3.758   1.358  11.055 -0.3095 -0.4594  0.3141
  755MOL0     C99573   4.062   1.818  10.059 -0.4554 -0.0526  0.1652
  755MOL0     C99574   4.152   1.905  10.012 -0.4249  0.0925  0.2133
  755MOL0     O99575   4.543   1.826   9.917 -0.0745 -0.2780  0.8653
  755MOL0     C99576   4.533   2.176   9.858 -0.7331  0.7308 -0.3998
  755MOL0     C99577   4.604   2.278   9.791  0.6539 -1.0407  1.0900
  755MOL0     N99578   5.156   2.458   9.150  0.3628 -0.0702  0.0072
  755MOL0     N99579   5.260   2.423   9.084 -0.6244 -0.5654  1.0697
  755MOL0     C99580   6.330   1.844   9.072 -0.2773  0.0880  0.8370
  755MOL0     C99581   6.438   1.861   9.162  0.1935  0.1411  0.4914
  755MOL0     C99582   6.876   1.944   9.277  0.6308  0.3112 -0.6672
  755MOL0     C99583   6.866   1.842   9.375 -1.0274 -0.3220 -0.7338
  755MOL0     C99584   6.968   1.804   9.455  0.4523 -0.6363  0.3799
  755MOL0     C99585   7.095   1.856   9.428  0.5828  0.0672  0.2082
  755MOL0     O99586   7.213   1.806   9.488  0.3784  0.1083 -0.1878
  755MOL0     C99587   7.227   1.774   9.625  0.7328  1.3319 -0.1008
  755MOL0     C99588   7.380   1.785   9.674 -0.1090  0.2106  0.6335
  755MOL0     C99589   7.455   1.668   9.617  0.2916  0.6733 -0.4240
  755MOL0     C99590   7.603   1.709   9.608  0.3753 -0.3435 -0.6132
  755MOL0     C99591   7.674   1.588   9.561  0.6736  0.1439 -0.9796
  755MOL0     C99592   7.727   1.492   9.528  0.0757  0.5828 -0.2723
  755MOL0     C99593   7.112   1.962   9.339 -0.1197  0.0792 -0.0590
  755MOL0     C99594   7.001   2.001   9.261  0.2620 -0.4011  0.7902
  755MOL0     H99595   6.600   2.120   9.013  0.8975 -0.5543 -1.0063
  755MOL0     H99596   6.416   2.071   8.836 -5.2116  1.3583  1.2497
  755MOL0     H99597   6.071   1.848   8.968  0.9118 -0.4807 -0.8065
  755MOL0     H99598   6.041   1.877   8.791  0.0314 -1.2955  0.3841
  755MOL0     H99599   6.016   2.099   8.824 -4.4567 -0.7460  1.8488
  755MOL0     H99600   6.135   2.104   8.957 -1.4471  0.8921  2.7166
  755MOL0     H99601   5.940   2.142   9.060  0.1870  3.8258 -2.8469
  755MOL0     H99602   5.946   1.962   9.080  1.6838 -0.6220 -1.4842
  755MOL0     H99603   5.795   2.082   8.843  1.2266 -0.6734  0.5130
  755MOL0     H99604   5.806   1.922   8.894  0.5236 -2.2469  3.5633
  755MOL0     H99605   5.714   2.080   9.117  0.5826  0.9009  0.5797
  755MOL0     H99606   5.652   1.927   9.055 -0.0280  1.6924  1.5715
  755MOL0     H99607   5.517   2.050   8.888 -2.8543  0.9789 -0.1313
  755MOL0     H99608   5.624   2.198   8.921  1.3807 -0.2475  1.6419
  755MOL0     H99609   5.427   2.064   9.114  0.5737 -2.3583 -2.4676
  755MOL0     H99610   5.504   2.222   9.141  0.9053 -0.7568 -1.2415
  755MOL0     H99611   5.297   2.141   8.938  3.5215 -2.3643 -0.7679
  755MOL0     H99612   5.387   2.281   8.900 -2.7372 -0.1171 -0.9853
  755MOL0     H99613   5.093   2.148   9.124  1.6720 -0.1192  4.7901
  755MOL0     H99614   4.930   2.254   9.274 -0.5519 -0.8778  0.7397
  755MOL0     H99615   4.858   2.371   9.167 -1.8229 -2.6129  3.2097
  755MOL0     H99616   4.945   2.561   9.299  1.7866  0.5927  0.7973
  755MOL0     H99617   5.048   2.464   9.402  1.4237  1.2071 -3.0834
  755MOL0     H99618   4.891   2.546   9.513  2.2648 -2.0654  0.5952
  755MOL0     H99619   4.748   2.485   9.432  0.6279  0.8283 -1.8638
  755MOL0     H99620   4.960   2.314   9.567 -0.4542  2.6321  2.8566
  755MOL0     H99621   4.809   2.257   9.483 -0.9140  1.0127 -0.0596
  755MOL0     H99622   4.851   2.092   9.658  0.2051  1.2740  0.1906
  755MOL0     H99623   4.717   1.914   9.756 -0.5236  0.6199 -0.6851
  755MOL0     H99624   4.442   1.755  10.137 -0.5525 -0.3707  0.0808
  755MOL0     H99625   4.276   1.593  10.206 -2.1046  0.0838  0.8304
  755MOL0     H99626   4.035   1.562  10.368  0.3143 -0.4297 -0.3097
  755MOL0     H99627   4.119   1.455  10.253 -0.9325 -1.3961  0.9593
  755MOL0     H99628   3.908   1.381  10.158 -2.1541 -0.1672  0.2244
  755MOL0     H99629   3.812   1.463  10.289  0.3724  0.6542  0.1683
  755MOL0     H99630   3.997   1.227  10.318 -2.5474 -1.8749 -1.8638
  755MOL0     H99631   3.832   1.218  10.357 -1.0423  0.6805  1.3629
  755MOL0     H99632   4.031   1.384  10.509 -0.3563  0.7161  0.1896
  755MOL0     H99633   3.860   1.408  10.536 -0.1029 -0.2190 -0.3144
  755MOL0     H99634   4.006   1.145  10.545 -1.0589 -2.2358  1.6697
  755MOL0     H99635   3.827   1.159  10.589  0.0265 -0.5190 -1.5334
  755MOL0     H99636   4.055   1.280  10.740 -1.5079  2.4427 -0.8576
  755MOL0     H99637   3.974   1.123  10.770 -1.2947  0.7888  1.2515
  755MOL0     H99638   3.853   1.404  10.786 -4.6691  0.2042  1.5920
  755MOL0     H99639   3.761   1.266  10.777  0.7868  0.3923  0.4941
  755MOL0     H99640   3.979   1.331  10.990 -0.4693 -0.3459  1.7071
  755MOL0     H99641   3.905   1.171  10.980  2.2104  1.0797  3.0676
  755MOL0     H99642   3.955   1.824  10.039 -1.0893 -3.4209  1.8968
  755MOL0     H99643   4.121   1.996   9.962 -0.3976  2.1354  3.6029
  755MOL0     H99644   4.450   2.186   9.927 -0.1262 -1.3230  0.7247
  755MOL0     H99645   4.566   2.375   9.820 -1.7070 -1.9847  1.3878
  755MOL0     H99646   6.250   1.772   9.087 -0.2118  0.2388  1.9916
  755MOL0     H99647   6.445   1.804   9.254 -0.1395 -0.4156  0.1836
  755MOL0     H99648   6.767   1.802   9.395 -1.4359  1.1527  0.3626
  755MOL0     H99649   6.950   1.714   9.513  1.2634 -3.1937 -2.9465
  755MOL0     H99650   7.192   1.674   9.652 -1.6616  1.5162 -2.2046
  755MOL0     H99651   7.170   1.844   9.687  1.1316 -1.8408  4.3052
  755MOL0     H99652   7.416   1.882   9.639  0.5179  0.4241  1.8150
  755MOL0     H99653   7.393   1.780   9.783 -3.2671 -0.8267  1.0863
  755MOL0     H99654   7.418   1.641   9.518  0.1095 -3.2886  0.5587
  755MOL0     H99655   7.437   1.584   9.685  0.7516  0.2459 -0.8176
  755MOL0     H99656   7.602   1.795   9.541 -3.3160  0.5243  0.3109
  755MOL0     H99657   7.643   1.735   9.707 -0.3678  0.8212 -0.5982
  755MOL0     H99658   7.763   1.397   9.494  0.4171  1.5039 -2.6776
  755MOL0     H99659   7.208   2.010   9.324 -0.6532  0.3051 -3.6947
  755MOL0     H99660   7.033   2.072   9.186  0.6323 -0.9271  0.4427
  756MOL0     O99661  10.565   2.224   7.287 -0.2964 -0.1046 -0.6923
  756MOL0     C99662  10.585   2.342   7.274  0.3547 -0.3099  0.7336
  756MOL0     O99663  10.545   2.447   7.350 -0.1452  0.5056  0.3327
  756MOL0     C99664  10.435   2.418   7.430 -0.1059 -0.6029  0.7116
  756MOL0     C99665  10.454   2.438   7.562 -0.4052 -0.2735  0.1599
  756MOL0     C99666  10.358   2.402   7.656 -0.6353  0.4416 -0.9042
  756MOL0     C99667  10.252   2.327   7.617 -0.0434 -0.4640 -0.3977
  756MOL0     O99668  10.185   2.272   7.732 -0.1920 -0.1736  0.1078
  756MOL0     C99669  10.070   2.197   7.710  1.3724 -0.0599  0.1117
  756MOL0     C99670   9.952   2.279   7.742 -0.2942  0.7634 -0.2006
  756MOL0     C99671   9.822   2.204   7.703 -0.3628  0.2657 -1.1023
  756MOL0     C99672   9.690   2.269   7.749 -0.6166 -0.1431  0.0322
  756MOL0     C99673   9.693   2.328   7.895  0.7677 -0.6010 -0.0234
  756MOL0     C99674   9.559   2.364   7.951  0.2385 -0.9927  0.5002
  756MOL0     C99675   9.435   2.280   7.915  0.3479 -0.0815 -0.5272
  756MOL0     C99676   9.448   2.134   7.954 -1.0568 -0.3243 -0.4626
  756MOL0     N99677   9.328   2.048   7.920 -0.0301 -0.2270  0.0431
  756MOL0     C99678   9.335   1.929   7.859 -0.4447 -0.1529  0.6115
  756MOL0     C99679   9.208   1.893   7.833 -0.0067  1.0456 -0.5792
  756MOL0     C99680   9.163   1.793   7.734  0.1540 -0.3634 -0.5779
  756MOL0     C99681   9.221   1.647   7.746  0.0491 -0.9476 -0.8188
  756MOL0     C99682   9.144   1.563   7.848 -0.3315 -0.5053 -0.0305
  756MOL0     C99683   9.146   1.614   7.985 -0.2819 -0.4469 -0.1631
  756MOL0     O99684   9.052   1.550   8.067  0.5314  0.0540 -0.0444
  756MOL0     C99685   8.925   1.596   8.068 -1.0449  1.3679  0.8190
  756MOL0     C99686   8.839   1.537   8.157 -0.5478  0.5496  0.4028
  756MOL0     C99687   8.708   1.586   8.173 -0.0360  1.5494  0.2169
  756MOL0     C99688   8.654   1.691   8.099  0.1015  0.6497  0.7647
  756MOL0     C99689   8.519   1.743   8.138 -0.2247 -0.6949 -0.9205
  756MOL0     O99690   8.418   1.667   8.188 -0.2811  0.7978 -0.3272
  756MOL0     C99691   8.298   1.720   8.212  0.2466 -0.3669 -0.0046
  756MOL0     C99692   8.237   1.683   8.330 -0.0185 -0.2680 -0.3066
  756MOL0     C99693   8.121   1.732   8.372 -0.7122 -0.0820 -0.7420
  756MOL0     C99694   8.049   1.826   8.300  0.3656 -0.2152  0.1475
  756MOL0     O99695   7.946   1.883   8.367  0.4240 -0.7250  0.7785
  756MOL0     C99696   7.851   1.954   8.276 -0.0918  0.0040 -0.1938
  756MOL0     C99697   7.735   1.984   8.370  0.3828 -0.1912 -0.2093
  756MOL0     C99698   7.607   2.042   8.303 -0.5548  0.2853 -0.3635
  756MOL0     C99699   7.494   2.049   8.401 -0.4873 -0.5765 -0.2487
  756MOL0     C99700   7.424   1.920   8.433 -0.0577 -1.2206 -0.1368
  756MOL0     C99701   7.299   1.951   8.524 -0.6913  0.3897 -0.1431
  756MOL0     C99702   7.177   1.981   8.434  0.5343 -0.6076 -0.7083
  756MOL0     C99703   7.044   1.965   8.507 -0.2595  0.3157  0.1185
  756MOL0    Cl99704   6.984   1.798   8.547  0.1641 -0.1879 -0.4368
  756MOL0     C99705   8.107   1.868   8.179 -0.0481 -0.5998  0.5248
  756MOL0     C99706   8.228   1.816   8.133 -0.7074 -0.6008 -0.2436
  756MOL0     O99707   8.507   1.867   8.111 -0.1183  0.1819 -0.0002
  756MOL0     C99708   8.735   1.744   8.002  0.5628  0.1670 -0.3048
  756MOL0     C99709   8.872   1.702   7.987 -0.4070  0.4364 -0.1749
  756MOL0     N99710   9.119   1.975   7.899  0.8402  0.2769  0.0740
  756MOL0     N99711   9.198   2.073   7.953 -0.7871 -0.0285  0.6678
  756MOL0     C99712  10.228   2.309   7.476  0.0265 -0.9373 -0.1383
  756MOL0     C99713  10.316   2.363   7.381  0.5524 -0.7294  0.4394
  756MOL0     C99714  10.691   2.381   7.179 -0.2977  0.7692 -0.2654
  756MOL0     C99715  10.733   2.512   7.154  0.1022 -0.3318  0.3546
  756MOL0     C99716  10.835   2.545   7.062  0.6488  0.5540 -0.3556
  756MOL0     C99717  10.905   2.440   6.998  0.7265 -0.4382  0.1381
  756MOL0     O99718  11.018   2.460   6.921  0.1087  1.1401  0.5739
  756MOL0     C99719  11.102   2.361   6.866  0.0920 -0.0423  0.1159
  756MOL0     C99720  11.207   2.430   6.785 -0.3629  1.2737  0.8566
  756MOL0     C99721  11.300   2.346   6.704  0.3048  0.2151 -0.4651
  756MOL0     C99722  11.388   2.446   6.619 -0.1342  0.4652  0.3049
  756MOL0     C99723  11.516   2.374   6.582  0.1523  0.0707  0.0290
  756MOL0     C99724  11.622   2.321   6.563 -0.5939  0.5486  0.0997
  756MOL0     C99725  10.872   2.309   7.028 -0.1005 -0.0187  0.0005
  756MOL0     C99726  10.766   2.284   7.115 -0.7446  0.6775 -0.5955
  756MOL0     H99727  10.552   2.477   7.591 -0.6809 -0.0008  0.7424
  756MOL0     H99728  10.383   2.417   7.761 -0.0929  1.1178 -1.1224
  756MOL0     H99729  10.068   2.117   7.785  4.3923 -0.1592  0.2467
  756MOL0     H99730  10.073   2.149   7.612 -0.5606  0.0943 -0.0454
  756MOL0     H99731   9.974   2.376   7.696  3.7944 -0.3355 -0.9374
  756MOL0     H99732   9.949   2.290   7.851  2.3494  0.1045  0.0097
  756MOL0     H99733   9.816   2.111   7.760  1.5550  1.1400  0.6442
  756MOL0     H99734   9.821   2.173   7.598 -1.6855 -1.2247 -0.6963
  756MOL0     H99735   9.678   2.357   7.685 -0.7206 -0.5630 -0.5374
  756MOL0     H99736   9.601   2.209   7.726  0.4449 -1.9441  0.4326
  756MOL0     H99737   9.755   2.419   7.893  0.8051 -0.6350 -0.4105
  756MOL0     H99738   9.733   2.250   7.960 -1.8131  0.1843  2.7469
  756MOL0     H99739   9.547   2.465   7.911  1.8960 -0.4161  1.3741
  756MOL0     H99740   9.554   2.378   8.059 -1.3676  2.6988  0.1141
  756MOL0     H99741   9.345   2.314   7.967  0.1073  0.0725 -1.0421
  756MOL0     H99742   9.413   2.292   7.809  0.8926  3.5085 -0.3546
  756MOL0     H99743   9.475   2.117   8.058 -0.9548  3.5622  0.2915
  756MOL0     H99744   9.530   2.090   7.897  0.8363  2.5758 -0.2039
  756MOL0     H99745   9.429   1.883   7.830  1.9194  4.9889 -1.1264
  756MOL0     H99746   9.172   1.841   7.636 -1.5891 -2.1767 -1.7221
  756MOL0     H99747   9.053   1.790   7.736  0.1694 -0.4290  0.6854
  756MOL0     H99748   9.329   1.644   7.758 -0.1032 -0.6317  0.8987
  756MOL0     H99749   9.211   1.602   7.647  1.4941 -0.0249 -1.4158
  756MOL0     H99750   9.040   1.572   7.814 -0.7143 -2.4568  0.4787
  756MOL0     H99751   9.178   1.459   7.849  0.9296 -0.1143  1.0610
  756MOL0     H99752   9.123   1.721   7.993  0.6585 -0.3131  1.0398
  756MOL0     H99753   9.244   1.592   8.029 -0.5101  3.2572  2.6999
  756MOL0     H99754   8.879   1.458   8.221  1.7836  0.1591 -1.4068
  756MOL0     H99755   8.656   1.543   8.258 -2.4176  0.1096 -1.8356
  756MOL0     H99756   8.283   1.622   8.407  0.6070  0.3121 -0.2168
  756MOL0     H99757   8.084   1.697   8.467 -0.1755  1.0616 -0.0822
  756MOL0     H99758   7.834   1.898   8.184  0.4272  1.0284 -0.9251
  756MOL0     H99759   7.890   2.049   8.239 -0.3989 -0.3119 -1.3800
  756MOL0     H99760   7.769   2.061   8.439  0.8713 -1.1688  0.6606
  756MOL0     H99761   7.716   1.892   8.425 -1.0506 -0.6319 -1.3542
  756MOL0     H99762   7.581   1.972   8.223  0.8202  1.3621 -1.8186
  756MOL0     H99763   7.623   2.139   8.256 -0.3150  1.0563  1.2348
  756MOL0     H99764   7.528   2.095   8.494 -1.6911 -1.7354  0.7994
  756MOL0     H99765   7.428   2.119   8.349 -0.7226 -0.5080  0.1366
  756MOL0     H99766   7.489   1.848   8.484  0.9272 -2.1816 -2.5622
  756MOL0     H99767   7.401   1.859   8.345  0.2093 -1.3068 -0.1499
  756MOL0     H99768   7.319   2.047   8.572  1.2546 -0.5355  1.0154
  756MOL0     H99769   7.280   1.872   8.598  0.0406 -0.0553 -0.4180
  756MOL0     H99770   7.193   2.084   8.403  1.3818  0.3369  2.4912
  756MOL0     H99771   7.167   1.923   8.341 -0.1547 -0.4544 -0.7325
  756MOL0     H99772   6.965   2.014   8.449  0.2429 -0.4181 -1.2355
  756MOL0     H99773   7.049   2.027   8.597  1.7265  3.3621 -1.9102
  756MOL0     H99774   8.056   1.944   8.121 -2.5113 -1.8453  0.9496
  756MOL0     H99775   8.272   1.856   8.042 -0.8404  0.2009  0.0362
  756MOL0     H99776   8.689   1.822   7.942 -2.7413 -0.8616  0.6538
  756MOL0     H99777   8.919   1.753   7.904 -0.1685 -0.5705 -0.6726
  756MOL0     H99778  10.147   2.252   7.432 -0.5433 -0.7304  0.6169
  756MOL0     H99779  10.305   2.334   7.277 -0.8586 -0.5929  0.5281
  756MOL0     H99780  10.682   2.595   7.202  0.9519 -0.1170  0.9186
  756MOL0     H99781  10.847   2.647   7.027 -0.9643  0.8665 -0.0593
  756MOL0     H99782  11.047   2.282   6.814  0.7528 -2.1328  2.4064
  756MOL0     H99783  11.154   2.305   6.945 -1.0744  0.1671  1.0572
  756MOL0     H99784  11.137   2.473   6.713  1.9200  1.8242 -1.1720
  756MOL0     H99785  11.261   2.510   6.838  3.0866  1.0755 -1.9628
  756MOL0     H99786  11.246   2.282   6.635 -1.1929  3.0960 -2.1713
  756MOL0     H99787  11.345   2.270   6.768 -1.3076  0.4207  0.9680
  756MOL0     H99788  11.329   2.486   6.536 -1.1176 -2.1076 -0.3243
  756MOL0     H99789  11.413   2.539   6.672  0.1695  2.1166 -2.5299
  756MOL0     H99790  11.717   2.280   6.538 -1.1151  1.3324 -3.8220
  756MOL0     H99791  10.921   2.218   6.994  1.1498 -0.2977  2.3287
  756MOL0     H99792  10.742   2.180   7.136  0.9669  0.1722 -1.0673
  757MOL0     O99793   9.336   4.647   3.876 -1.0159  0.0405  0.3530
  757MOL0     C99794   9.351   4.558   3.798  0.1777  0.2072 -0.5542
  757MOL0     O99795   9.272   4.532   3.697  0.9269  0.4227  0.0473
  757MOL0     C99796   9.150   4.593   3.686 -0.0333  0.6011 -0.4893
  757MOL0     C99797   9.113   4.663   3.577  1.2577 -1.2508  0.3339
  757MOL0     C99798   8.986   4.729   3.566  0.2547 -0.3821 -0.3541
  757MOL0     C99799   8.898   4.735   3.678 -0.7425  0.8131 -1.2595
  757MOL0     O99800   8.775   4.791   3.695  0.6702 -0.0761 -0.5069
  757MOL0     C99801   8.737   4.886   3.595 -0.3819 -0.6276 -0.6868
  757MOL0     C99802   8.659   4.826   3.471 -0.0959 -0.2181 -0.0620
  757MOL0     C99803   8.510   4.798   3.488  0.2704  0.3952 -0.3710
  757MOL0     C99804   8.475   4.723   3.613  2.0137 -0.1311  0.1951
  757MOL0     C99805   8.326   4.691   3.615 -0.0967  0.4373  0.8924
  757MOL0     C99806   8.270   4.593   3.713  0.4308 -0.2530 -1.3786
  757MOL0     C99807   8.115   4.617   3.716  0.1643  0.1995 -0.1901
  757MOL0     C99808   8.055   4.544   3.839  0.5180  1.2526  0.1874
  757MOL0     N99809   7.906   4.545   3.831 -0.4913 -0.1059  0.2813
  757MOL0     C99810   7.830   4.653   3.817  1.0336  0.0717 -0.4661
  757MOL0     C99811   7.700   4.612   3.824  0.1581  0.2225 -0.1008
  757MOL0     C99812   7.596   4.706   3.799 -0.3494 -0.2474 -0.0432
  757MOL0     C99813   7.488   4.633   3.700  0.0429 -0.0588 -0.4043
  757MOL0     C99814   7.399   4.548   3.791  0.0946  0.9869 -0.2088
  757MOL0     C99815   7.293   4.500   3.693 -0.4567  0.9123 -0.5597
  757MOL0     O99816   7.197   4.416   3.760 -0.0812 -0.0081  0.3564
  757MOL0     C99817   7.073   4.404   3.705  0.1884  0.7486  0.7437
  757MOL0     C99818   7.019   4.470   3.585  0.1224  0.3408 -1.4176
  757MOL0     C99819   6.884   4.462   3.552 -0.1793  0.1185  0.8255
  757MOL0     C99820   6.796   4.376   3.623 -0.1216 -0.5922  0.2623
  757MOL0     C99821   6.651   4.358   3.583  0.1558  0.1713  0.0919
  757MOL0     O99822   6.597   4.429   3.476 -0.6533 -0.1161 -0.3732
  757MOL0     C99823   6.463   4.436   3.452  0.4643 -0.5739  0.8364
  757MOL0     C99824   6.389   4.332   3.410  0.2187  0.3206  0.6437
  757MOL0     C99825   6.247   4.350   3.379 -0.6078 -0.0598 -1.0888
  757MOL0     C99826   6.186   4.481   3.407 -0.5444  0.0260  0.3250
  757MOL0     O99827   6.060   4.521   3.368 -0.1293  0.4581 -0.4806
  757MOL0     C99828   5.972   4.414   3.384  0.1058 -0.4566  0.9725
  757MOL0     C99829   5.830   4.473   3.349 -1.2135 -0.0453  0.1704
  757MOL0     C99830   5.732   4.356   3.299  0.8447 -0.2115  0.4845
  757MOL0     C99831   5.697   4.268   3.421 -0.8189  0.4005 -0.4292
  757MOL0     C99832   5.557   4.214   3.398  0.0607 -0.1955  0.6493
  757MOL0     C99833   5.538   4.126   3.279 -0.1570 -0.8146  0.4927
  757MOL0     C99834   5.632   4.007   3.296 -1.2678 -0.0316 -0.8371
  757MOL0     C99835   5.588   3.887   3.221  0.1521  0.6909  0.1607
  757MOL0    Cl99836   5.431   3.850   3.297 -0.3734  0.3946  0.1979
  757MOL0     C99837   6.266   4.579   3.459 -0.8352 -1.0211  0.5059
  757MOL0     C99838   6.401   4.554   3.480 -0.1887  0.3132  0.0645
  757MOL0     O99839   6.583   4.282   3.651  0.9856 -0.3388  0.0582
  757MOL0     C99840   6.855   4.306   3.728 -0.0490 -0.0606 -0.2782
  757MOL0     C99841   6.996   4.316   3.765 -0.0460 -0.4812  0.2557
  757MOL0     N99842   7.703   4.477   3.845  0.0808  0.0729  0.1247
  757MOL0     N99843   7.826   4.443   3.857 -0.3983  0.1336 -0.4577
  757MOL0     C99844   8.942   4.661   3.790  0.4671 -0.3678  0.5514
  757MOL0     C99845   9.066   4.595   3.789  0.3189 -1.0615 -1.7373
  757MOL0     C99846   9.469   4.482   3.814 -0.0976 -0.0317 -0.5329
  757MOL0     C99847   9.492   4.368   3.733 -0.7682 -0.9670 -0.6142
  757MOL0     C99848   9.605   4.289   3.749  0.0478 -0.1396 -0.1195
  757MOL0     C99849   9.700   4.329   3.841 -0.2699  0.3013  0.7523
  757MOL0     O99850   9.809   4.250   3.863  0.0142  0.4961 -0.5808
  757MOL0     C99851   9.866   4.234   3.998 -0.5080  0.3520  0.1896
  757MOL0     C99852   9.793   4.130   4.084  0.5716 -0.3536 -0.4957
  757MOL0     C99853   9.694   4.197   4.183 -0.1554 -0.7660  0.1770
  757MOL0     C99854   9.648   4.103   4.300 -0.7755 -0.1122  0.0171
  757MOL0     C99855   9.767   4.065   4.381  0.3696 -0.9954  0.3179
  757MOL0     C99856   9.876   4.040   4.432  0.3714 -0.2594 -0.5821
  757MOL0     C99857   9.684   4.442   3.913 -0.1640 -0.5006 -1.0889
  757MOL0     C99858   9.570   4.513   3.905  0.6573 -0.4503 -0.1268
  757MOL0     H99859   9.181   4.659   3.493  0.8263  0.1664 -0.1144
  757MOL0     H99860   8.962   4.797   3.484 -2.3585  0.0258  0.6557
  757MOL0     H99861   8.818   4.951   3.562 -0.7107 -1.2720 -2.9536
  757MOL0     H99862   8.661   4.945   3.647 -0.0477 -0.6093 -0.2142
  757MOL0     H99863   8.700   4.730   3.438  3.1336  0.7376  0.8265
  757MOL0     H99864   8.672   4.896   3.388 -2.1183  0.9396  0.5232
  757MOL0     H99865   8.473   4.749   3.397  3.0873 -0.9278 -0.8984
  757MOL0     H99866   8.457   4.894   3.488  1.2047  0.9523 -1.8713
  757MOL0     H99867   8.533   4.631   3.623 -1.4852 -2.3975  1.1817
  757MOL0     H99868   8.490   4.788   3.699  0.6584  1.3942 -0.6513
  757MOL0     H99869   8.292   4.650   3.519  1.9057 -0.4082  0.5004
  757MOL0     H99870   8.278   4.788   3.633 -1.2773  0.3144 -1.2167
  757MOL0     H99871   8.305   4.628   3.811 -0.8592  1.8394 -1.6130
  757MOL0     H99872   8.281   4.485   3.698 -4.1271 -0.7104 -3.1350
  757MOL0     H99873   8.088   4.723   3.716  1.1811  0.4774 -1.2536
  757MOL0     H99874   8.078   4.564   3.628 -0.4288  2.2352 -1.2281
  757MOL0     H99875   8.082   4.591   3.934 -0.4770  0.5286  0.8464
  757MOL0     H99876   8.087   4.439   3.847  1.9978  1.8485  4.7919
  757MOL0     H99877   7.868   4.751   3.793  3.4454 -1.2529 -2.6047
  757MOL0     H99878   7.639   4.802   3.770  1.0804 -1.1550 -1.0926
  757MOL0     H99879   7.547   4.718   3.896  0.5815  0.9960  0.2859
  757MOL0     H99880   7.537   4.585   3.616 -2.8947 -2.0845 -1.1040
  757MOL0     H99881   7.433   4.718   3.659  3.5833  2.7438  0.1481
  757MOL0     H99882   7.451   4.469   3.846  0.3249  0.0656 -1.6864
  757MOL0     H99883   7.356   4.610   3.869  0.5028  1.0462 -0.0269
  757MOL0     H99884   7.346   4.454   3.609  1.8710  0.4889  1.0133
  757MOL0     H99885   7.246   4.590   3.652 -0.2359  3.0081  3.3193
  757MOL0     H99886   7.083   4.547   3.543 -1.6240  3.2669  0.9145
  757MOL0     H99887   6.841   4.503   3.462 -1.1685 -0.3725  1.0623
  757MOL0     H99888   6.431   4.237   3.378 -0.8143  0.8466 -2.6789
  757MOL0     H99889   6.193   4.262   3.346  1.4487 -1.7112 -0.2474
  757MOL0     H99890   5.969   4.374   3.486 -0.1007 -0.7089  0.8691
  757MOL0     H99891   5.996   4.326   3.323 -2.9287 -1.1231  0.5679
  757MOL0     H99892   5.840   4.555   3.277 -0.5570  0.6924  1.0753
  757MOL0     H99893   5.791   4.513   3.443 -0.0176 -2.4304  1.7739
  757MOL0     H99894   5.789   4.304   3.221 -0.5506  3.5198 -3.4118
  757MOL0     H99895   5.646   4.399   3.247  0.1846 -1.4413  0.5179
  757MOL0     H99896   5.764   4.183   3.436 -0.0005  0.8790 -1.2313
  757MOL0     H99897   5.694   4.322   3.516  0.2147  2.1538 -1.3287
  757MOL0     H99898   5.490   4.299   3.380 -0.3829 -0.4240  1.1912
  757MOL0     H99899   5.516   4.165   3.487 -0.9100  1.6827  1.2920
  757MOL0     H99900   5.584   4.187   3.201  0.5173 -2.0705 -0.1233
  757MOL0     H99901   5.435   4.104   3.251 -0.5300 -0.0745  1.2591
  757MOL0     H99902   5.730   4.043   3.263 -0.4280 -0.2530  1.2181
  757MOL0     H99903   5.634   3.980   3.402  0.0339 -1.7451 -1.2633
  757MOL0     H99904   5.647   3.796   3.236 -2.3280 -0.9379  0.7685
  757MOL0     H99905   5.576   3.909   3.115  3.5846  2.8169  0.0740
  757MOL0     H99906   6.219   4.672   3.489 -0.5493 -1.0489  1.0650
  757MOL0     H99907   6.456   4.622   3.543 -0.5384  1.7561 -1.1186
  757MOL0     H99908   6.800   4.229   3.782 -1.0118  1.5902  1.1817
  757MOL0     H99909   7.035   4.259   3.848  0.5063  0.8033  0.8956
  757MOL0     H99910   8.885   4.666   3.882  1.6115  3.5301  1.2210
  757MOL0     H99911   9.091   4.551   3.885 -4.4910 -0.4566  0.1051
  757MOL0     H99912   9.406   4.340   3.673 -1.7624 -0.3216  0.4427
  757MOL0     H99913   9.609   4.198   3.690  1.9784  0.6954 -1.3817
  757MOL0     H99914   9.870   4.330   4.050 -2.0130  0.0981  0.8128
  757MOL0     H99915   9.961   4.180   3.987 -0.1319  1.2539 -1.1916
  757MOL0     H99916   9.745   4.059   4.017 -0.3781  0.5018 -0.7387
  757MOL0     H99917   9.869   4.078   4.143 -0.9803 -2.4294 -0.1972
  757MOL0     H99918   9.607   4.227   4.123  2.5540 -0.1827 -3.8203
  757MOL0     H99919   9.740   4.289   4.221 -0.9289 -0.4805  0.4447
  757MOL0     H99920   9.588   4.171   4.362  1.5101  1.3616  0.7627
  757MOL0     H99921   9.595   4.016   4.261 -2.0630  0.3223  0.7191
  757MOL0     H99922   9.968   4.013   4.479  0.2116 -0.0506 -0.1393
  757MOL0     H99923   9.748   4.498   3.981  1.6740  1.9651 -4.5150
  757MOL0     H99924   9.566   4.592   3.979  1.1830 -1.7901  1.3902
  758MOL0     O99925   5.539   2.043   1.663  0.0697  0.2012  0.2918
  758MOL0     C99926   5.567   2.161   1.629  0.5261 -0.5501 -0.3659
  758MOL0     O99927   5.481   2.270   1.639  1.2160 -0.3217 -0.3374
  758MOL0     C99928   5.352   2.260   1.683 -0.6124 -0.0097 -0.5452
  758MOL0     C99929   5.287   2.377   1.707 -0.2712  0.1467 -0.5186
  758MOL0     C99930   5.156   2.388   1.747 -0.8050  0.2971 -0.9162
  758MOL0     C99931   5.076   2.277   1.751 -0.5679  0.2143  0.5482
  758MOL0     O99932   4.946   2.292   1.790  0.2018 -0.4100  0.5379
  758MOL0     C99933   4.861   2.173   1.774 -0.8839 -0.0253 -0.5930
  758MOL0     C99934   4.721   2.202   1.796  0.5542 -0.3401  0.2862
  758MOL0     C99935   4.648   2.091   1.873  0.0755  0.1424 -0.4157
  758MOL0     C99936   4.577   1.980   1.784  0.2469  0.5201 -1.0145
  758MOL0     C99937   4.654   1.914   1.673 -0.3359  0.4418  0.0163
  758MOL0     C99938   4.602   1.777   1.643 -0.4967 -1.1101  0.7084
  758MOL0     C99939   4.445   1.771   1.606  0.1071 -0.8425 -0.1606
  758MOL0     C99940   4.404   1.861   1.484  0.7940 -0.7308 -0.2183
  758MOL0     N99941   4.483   1.825   1.366 -0.5659  0.8377 -0.2005
  758MOL0     C99942   4.455   1.745   1.255  0.9267 -0.0598 -0.2235
  758MOL0     C99943   4.541   1.774   1.158  0.1515  0.2519  0.3287
  758MOL0     C99944   4.554   1.705   1.014 -0.0864 -0.2627 -1.3773
  758MOL0     C99945   4.419   1.707   0.943 -0.6040  0.4265  0.0971
  758MOL0     C99946   4.435   1.670   0.799 -0.2162 -0.1990  0.1812
  758MOL0     C99947   4.316   1.604   0.733  0.7163 -0.0314 -0.5389
  758MOL0     O99948   4.195   1.672   0.782  0.5291  0.2323 -0.6999
  758MOL0     C99949   4.098   1.683   0.688 -0.0450 -0.4562 -0.2148
  758MOL0     C99950   4.004   1.589   0.671  0.9324 -0.8225  0.3005
  758MOL0     C99951   3.901   1.613   0.574 -0.1784  0.2638  1.0227
  758MOL0     C99952   3.910   1.716   0.485 -0.5059  0.0724  0.0738
  758MOL0     C99953   3.817   1.732   0.371 -0.0896  0.0424  0.3025
  758MOL0     O99954   3.716   1.652   0.370  0.0437  0.2240 -0.2895
  758MOL0     C99955   3.634   1.652   0.258 -0.0672 -0.3072  0.8093
  758MOL0     C99956   3.502   1.690   0.273 -0.1306  0.2672  0.1067
  758MOL0     C99957   3.414   1.683   0.165 -0.4054  0.4515  0.0489
  758MOL0     C99958   3.464   1.635   0.037 -0.1683 -0.6045 -0.5335
  758MOL0     O99959   3.377   1.623  -0.073 -1.2772 -0.6287 -0.2442
  758MOL0     C99960   3.340   1.756  -0.119 -0.6163 -0.1086  0.3152
  758MOL0     C99961   3.390   1.794  -0.264 -0.4489  0.4123  0.2518
  758MOL0     C99962   3.368   1.678  -0.360  0.0852 -0.4514 -0.5133
  758MOL0     C99963   3.430   1.710  -0.497 -0.3162 -0.0107  0.5769
  758MOL0     C99964   3.453   1.574  -0.573 -0.3902 -0.0242  0.4685
  758MOL0     C99965   3.528   1.594  -0.706 -0.5826 -0.4395 -0.4002
  758MOL0     C99966   3.674   1.659  -0.693  0.1173  1.2121  0.7715
  758MOL0     C99967   3.739   1.693  -0.834 -0.0909 -0.3104 -0.5493
  758MOL0    Cl99968   3.887   1.799  -0.798 -0.2537 -0.0258 -0.0103
  758MOL0     C99969   3.592   1.598   0.027  0.4659 -0.2837 -0.0235
  758MOL0     C99970   3.678   1.599   0.131 -0.0409  0.5495 -1.1491
  758MOL0     O99971   3.837   1.815   0.279 -0.4389  0.5158  0.1685
  758MOL0     C99972   4.003   1.812   0.509 -1.4646  1.0849 -0.3886
  758MOL0     C99973   4.092   1.801   0.618  0.2502  0.1737  0.2540
  758MOL0     N99974   4.621   1.870   1.203  0.2186  0.1977  0.0577
  758MOL0     N99975   4.586   1.900   1.326  0.9647  0.3293 -0.1554
  758MOL0     C99976   5.135   2.156   1.713 -0.1780  0.2319  0.0305
  758MOL0     C99977   5.271   2.140   1.683  0.6869 -0.1914  0.0800
  758MOL0     C99978   5.705   2.184   1.586  0.5231  0.9619 -0.0097
  758MOL0     C99979   5.749   2.310   1.552 -0.2743 -0.2126  0.2572
  758MOL0     C99980   5.880   2.329   1.516  0.0440  0.2924 -0.6897
  758MOL0     C99981   5.977   2.230   1.520  0.9365 -0.2470  0.2734
  758MOL0     O99982   6.107   2.261   1.486 -0.3742 -0.3650  0.3543
  758MOL0     C99983   6.181   2.355   1.566 -0.6035 -0.6914  0.0232
  758MOL0     C99984   6.205   2.486   1.493 -0.2171 -0.6750 -0.1006
  758MOL0     C99985   6.316   2.471   1.403  0.0830  0.1859  0.3848
  758MOL0     C99986   6.357   2.592   1.318 -0.3519 -0.3189 -0.1578
  758MOL0     C99987   6.249   2.623   1.223  0.5790  0.3532 -0.7707
  758MOL0     C99988   6.145   2.659   1.169 -0.1025 -0.3551  0.1455
  758MOL0     C99989   5.936   2.103   1.568 -0.6776 -0.0425  0.4757
  758MOL0     C99990   5.801   2.079   1.597  0.2373  0.0299 -0.1199
  758MOL0     H99991   5.352   2.464   1.704  1.1717 -0.9044 -1.2766
  758MOL0     H99992   5.123   2.484   1.785  3.0847  2.8967 -3.3358
  758MOL0     H99993   4.892   2.105   1.854 -0.8651  0.3507 -0.2828
  758MOL0     H99994   4.884   2.135   1.673 -0.8203  1.4032 -1.1423
  758MOL0     H99995   4.666   2.225   1.704 -0.8660  1.6330  1.5484
  758MOL0     H99996   4.716   2.296   1.852 -2.4056  2.4097 -3.9443
  758MOL0     H99997   4.575   2.124   1.946  0.7844 -3.7235  2.3693
  758MOL0     H99998   4.705   2.027   1.941  0.4051 -2.2929 -2.7988
  758MOL0     H99999   4.531   1.912   1.857 -0.8804 -1.9692 -3.8087
  758MOL0     H    0   4.483   2.026   1.750 -0.8719 -0.7020  0.3112
  758MOL0     H    1   4.756   1.899   1.709 -1.1550 -1.4053  1.7408
  758MOL0     H    2   4.663   1.976   1.583 -0.0907 -1.5161 -1.3638
  758MOL0     H    3   4.626   1.713   1.728 -0.5144 -2.0022  0.0659
  758MOL0     H    4   4.650   1.734   1.554  1.3639 -0.3542  1.3057
  758MOL0     H    5   4.414   1.667   1.591 -1.1780 -0.4680 -0.1877
  758MOL0     H    6   4.391   1.808   1.693 -0.1593  2.7370 -1.6854
  758MOL0     H    7   4.409   1.966   1.513  0.2090 -0.7545 -0.0222
  758MOL0     H    8   4.303   1.826   1.463  0.3217 -0.0527  0.8298
  758MOL0     H    9   4.378   1.669   1.246  1.3176 -0.8149  2.1066
  758MOL0     H   10   4.591   1.606   1.042  0.9175  0.2223 -0.9408
  758MOL0     H   11   4.627   1.757   0.952 -1.5157  1.0943 -1.9969
  758MOL0     H   12   4.364   1.801   0.955  3.0936  3.2147 -2.6790
  758MOL0     H   13   4.362   1.620   0.976  1.7998 -1.9246 -1.5474
  758MOL0     H   14   4.461   1.768   0.757 -0.1310  0.6423  2.0793
  758MOL0     H   15   4.523   1.607   0.785  0.0697 -0.8713  4.0194
  758MOL0     H   16   4.307   1.497   0.753  0.3820  0.1855  0.4965
  758MOL0     H   17   4.312   1.611   0.623 -2.9424  0.0285 -0.5355
  758MOL0     H   18   3.995   1.500   0.732 -2.8981  0.8114  2.5079
  758MOL0     H   19   3.827   1.535   0.565  0.7147 -1.4228  5.5484
  758MOL0     H   20   3.464   1.717   0.371  1.8956  0.7679  0.8015
  758MOL0     H   21   3.306   1.692   0.172 -0.4999 -1.4059  2.5185
  758MOL0     H   22   3.386   1.829  -0.052  0.4098 -1.7893  1.5363
  758MOL0     H   23   3.233   1.767  -0.100 -0.5721 -2.3875  2.4329
  758MOL0     H   24   3.496   1.822  -0.272 -0.8001  1.3429 -2.4549
  758MOL0     H   25   3.337   1.880  -0.306  0.0952  0.3741 -0.5284
  758MOL0     H   26   3.260   1.665  -0.372 -0.0851  1.6116 -1.5425
  758MOL0     H   27   3.407   1.586  -0.316  2.2703  0.6506 -0.0022
  758MOL0     H   28   3.372   1.781  -0.557  0.7745 -1.4795 -2.4309
  758MOL0     H   29   3.530   1.751  -0.488 -0.1198  0.9923 -3.8373
  758MOL0     H   30   3.359   1.535  -0.614 -0.4823  2.4929 -2.1159
  758MOL0     H   31   3.521   1.512  -0.515  0.5821  2.1720  1.8119
  758MOL0     H   32   3.460   1.660  -0.760 -2.7875 -1.7895  0.5792
  758MOL0     H   33   3.540   1.502  -0.764 -0.0944 -2.4955  2.7348
  758MOL0     H   34   3.656   1.757  -0.648  0.3057  0.9258  1.4901
  758MOL0     H   35   3.736   1.595  -0.630 -0.5242 -0.3301 -0.1070
  758MOL0     H   36   3.675   1.760  -0.891  0.0001 -1.8717 -2.6253
  758MOL0     H   37   3.757   1.596  -0.881 -2.4184 -1.6187  1.0653
  758MOL0     H   38   3.641   1.582  -0.069  1.4422  0.7657  0.2827
  758MOL0     H   39   3.782   1.574   0.114 -0.3615 -2.9934  1.0454
  758MOL0     H   40   4.022   1.896   0.444  3.6544 -0.0574 -0.8313
  758MOL0     H   41   4.171   1.872   0.641  0.1882 -0.0392  1.1607
  758MOL0     H   42   5.088   2.059   1.706  1.1199 -0.4495  0.3893
  758MOL0     H   43   5.312   2.041   1.667  3.1735  0.7369  0.2658
  758MOL0     H   44   5.690   2.400   1.556  3.6955  3.0752 -3.8990
  758MOL0     H   45   5.912   2.430   1.490  5.0101 -0.4106  1.4568
  758MOL0     H   46   6.279   2.316   1.595 -0.5881 -1.4978 -1.0840
  758MOL0     H   47   6.125   2.374   1.659 -0.4702 -0.4249  0.0500
  758MOL0     H   48   6.113   2.508   1.438  0.0572 -0.6561 -0.5543
  758MOL0     H   49   6.218   2.562   1.570 -5.1208 -1.0607  1.4741
  758MOL0     H   50   6.299   2.381   1.343  0.8647 -1.2485  2.1833
  758MOL0     H   51   6.408   2.446   1.457  1.5487  0.6569 -1.8133
  758MOL0     H   52   6.392   2.671   1.384  0.4351 -0.8536  0.0876
  758MOL0     H   53   6.442   2.568   1.253 -1.0029  2.0140 -1.9752
  758MOL0     H   54   6.062   2.694   1.112 -0.0729 -1.3452 -0.5366
  758MOL0     H   55   6.008   2.027   1.595  1.1534  2.0637  1.9328
  758MOL0     H   56   5.778   1.978   1.629  1.1082 -0.4129 -0.8494
  759MOL0     O   57   9.567  10.112   8.634  0.2457  0.1167  0.1217
  759MOL0     C   58   9.620  10.014   8.577 -0.1059  0.3114 -0.5780
  759MOL0     O   59   9.550   9.909   8.513 -1.0910  0.2057  0.8396
  759MOL0     C   60   9.410   9.921   8.520  0.0415 -0.6198 -0.0401
  759MOL0     C   61   9.339   9.908   8.643  0.2366 -0.1420  0.0521
  759MOL0     C   62   9.208   9.943   8.654  1.2699  0.8758 -0.1419
  759MOL0     C   63   9.129   9.982   8.543  0.4146  0.3129  0.1660
  759MOL0     O   64   9.000  10.019   8.554 -0.8175 -0.2592 -0.3523
  759MOL0     C   65   8.935  10.021   8.682 -0.2993  0.6644  0.6712
  759MOL0     C   66   8.783  10.038   8.666 -0.7061 -0.2295 -0.2549
  759MOL0     C   67   8.715  10.062   8.804  0.7700 -0.2790 -0.1521
  759MOL0     C   68   8.751  10.180   8.890  0.6163 -0.1238 -0.3516
  759MOL0     C   69   8.628  10.235   8.976 -0.0136  0.4515  0.1253
  759MOL0     C   70   8.506  10.288   8.906 -0.3850 -0.0505  0.6179
  759MOL0     C   71   8.545  10.419   8.833 -0.8334 -0.5562 -0.1825
  759MOL0     C   72   8.472  10.426   8.701  0.2456 -0.4780  0.2937
  759MOL0     N   73   8.330  10.443   8.702  0.4070 -0.0746  0.2211
  759MOL0     C   74   8.244  10.352   8.650  0.5999  0.3540  0.2785
  759MOL0     C   75   8.120  10.410   8.653 -0.5520  0.7847  0.1962
  759MOL0     C   76   7.994  10.333   8.613 -0.2873  0.7438  0.4810
  759MOL0     C   77   7.965  10.343   8.458 -0.6207 -0.4940  0.7470
  759MOL0     C   78   7.839  10.253   8.406 -0.8831 -0.2636 -0.3360
  759MOL0     C   79   7.712  10.335   8.440 -0.4302 -0.4150 -0.0762
  759MOL0     O   80   7.598  10.266   8.389  0.1856 -0.2278 -0.5436
  759MOL0     C   81   7.477  10.268   8.450 -0.0726 -0.3171  0.2198
  759MOL0     C   82   7.389  10.185   8.387  0.5985 -0.9229 -0.3648
  759MOL0     C   83   7.257  10.177   8.433  0.2312  0.0399  0.0853
  759MOL0     C   84   7.208  10.251   8.537  0.0456  0.3467  0.0740
  759MOL0     C   85   7.062  10.245   8.570 -0.5431 -0.0320 -0.2920
  759MOL0     O   86   7.012  10.351   8.636 -0.2795  0.9372  0.5729
  759MOL0     C   87   6.879  10.349   8.666  0.4988 -0.5174 -0.3807
  759MOL0     C   88   6.825  10.393   8.790 -0.5370 -0.1263 -0.2271
  759MOL0     C   89   6.684  10.406   8.804  0.3120 -0.4973  0.7639
  759MOL0     C   90   6.599  10.402   8.693  0.4516 -0.4807 -0.7920
  759MOL0     O   91   6.460  10.418   8.705 -0.0465  0.7129 -0.2273
  759MOL0     C   92   6.407  10.505   8.808 -0.1661  0.5250 -0.3689
  759MOL0     C   93   6.254  10.514   8.794 -0.1304 -1.1413  0.2754
  759MOL0     C   94   6.197  10.597   8.906  0.4326 -0.0201 -0.3610
  759MOL0     C   95   6.043  10.574   8.938 -0.4687  0.1990  0.3005
  759MOL0     C   96   5.950  10.620   8.828  0.4702  0.9586  0.5061
  759MOL0     C   97   5.807  10.572   8.859  0.3697  0.1111  0.3851
  759MOL0     C   98   5.704  10.640   8.760 -0.1728  0.6246  1.3062
  759MOL0     C   99   5.572  10.638   8.822 -0.2900  0.4742  0.3502
  759MOL0    Cl  100   5.456  10.737   8.733  0.0714  0.1852 -0.4318
  759MOL0     C  101   6.649  10.350   8.574  0.4017  0.3648 -0.5015
  759MOL0     C  102   6.787  10.326   8.562 -0.0863  0.6631  0.7431
  759MOL0     O  103   6.997  10.149   8.533  0.6542 -0.9318 -0.1139
  759MOL0     C  104   7.293  10.339   8.598  0.2924 -1.2127 -0.4785
  759MOL0     C  105   7.430  10.343   8.565  0.0407  0.4232  0.1860
  759MOL0     N  106   8.132  10.541   8.699  0.2383 -0.0764 -0.8468
  759MOL0     N  107   8.261  10.558   8.723 -0.1039 -0.4073 -0.4561
  759MOL0     C  108   9.192   9.990   8.416 -0.2314  0.2256 -1.1136
  759MOL0     C  109   9.333   9.952   8.410  0.7364  0.6349 -0.3390
  759MOL0     C  110   9.768  10.022   8.551  1.0659 -0.4802  0.0836
  759MOL0     C  111   9.841   9.917   8.494  0.3911  0.6444 -0.3341
  759MOL0     C  112   9.978   9.904   8.501  0.5434 -0.0903 -0.9125
  759MOL0     C  113  10.054  10.002   8.564  0.7470 -0.5527  0.2637
  759MOL0     O  114  10.186  10.006   8.580 -0.1813 -0.1064  0.7004
  759MOL0     C  115  10.264   9.891   8.553 -0.4451 -0.3904  0.4703
  759MOL0     C  116  10.409   9.927   8.563 -0.0359 -0.7628 -0.2620
  759MOL0     C  117  10.443   9.966   8.708 -0.4650 -0.7872  0.0657
  759MOL0     C  118  10.586  10.027   8.721  0.4313 -0.2168  0.6164
  759MOL0     C  119  10.681   9.921   8.701 -0.0844  0.9877 -0.2745
  759MOL0     C  120  10.752   9.829   8.675 -0.1686  0.0282 -1.0692
  759MOL0     C  121   9.982  10.112   8.613 -0.4575 -0.3387  0.2469
  759MOL0     C  122   9.844  10.123   8.604  0.1447 -0.4118  0.0076
  759MOL0     H  123   9.399   9.892   8.732 -1.1819  0.4949  1.1630
  759MOL0     H  124   9.163   9.943   8.752 -1.1042  2.2605 -1.1492
  759MOL0     H  125   8.980  10.105   8.735 -3.9030  2.6066  1.0161
  759MOL0     H  126   8.952   9.924   8.728  1.8598  1.5408  1.8189
  759MOL0     H  127   8.746   9.945   8.623  1.1431 -1.1237  0.0116
  759MOL0     H  128   8.763  10.124   8.602  0.3922  0.5418  0.3938
  759MOL0     H  129   8.724   9.972   8.866 -1.6911 -0.1897  0.4415
  759MOL0     H  130   8.610  10.067   8.775 -0.0231  1.2339  2.6580
  759MOL0     H  131   8.846  10.164   8.943  0.9351  2.2094 -0.1187
  759MOL0     H  132   8.784  10.250   8.813  0.2233 -0.0963 -0.4965
  759MOL0     H  133   8.676  10.313   9.035  0.6187  1.2261 -1.3662
  759MOL0     H  134   8.601  10.153   9.044  0.6680  0.5673  0.5502
  759MOL0     H  135   8.428  10.310   8.980 -1.2670 -1.1401  0.0328
  759MOL0     H  136   8.470  10.219   8.830 -0.0797  1.7316 -1.2083
  759MOL0     H  137   8.512  10.495   8.904  0.0749  0.1681 -0.5061
  759MOL0     H  138   8.653  10.432   8.820 -0.5346  0.1238  2.4659
  759MOL0     H  139   8.506  10.335   8.649 -0.7779 -0.1449 -0.9991
  759MOL0     H  140   8.513  10.510   8.644  0.5309 -0.5126  0.4424
  759MOL0     H  141   8.259  10.249   8.620  2.4142  0.8825 -0.7396
  759MOL0     H  142   7.905  10.374   8.663 -4.3527 -0.0594 -5.1902
  759MOL0     H  143   7.997  10.230   8.652 -0.9323  0.2620 -0.6959
  759MOL0     H  144   8.048  10.297   8.404 -1.7928 -0.8392 -0.8561
  759MOL0     H  145   7.957  10.450   8.437 -0.1494 -0.3458  1.2924
  759MOL0     H  146   7.839  10.248   8.297 -0.8841  0.5542 -0.3847
  759MOL0     H  147   7.824  10.159   8.458 -3.9718  1.2579  1.8449
  759MOL0     H  148   7.715  10.439   8.405 -1.1546  1.3974  4.5083
  759MOL0     H  149   7.713  10.351   8.549 -0.4360  0.9198 -0.2581
  759MOL0     H  150   7.413  10.124   8.300 -2.5014 -1.8918 -0.6638
  759MOL0     H  151   7.184  10.120   8.377  0.5701  1.0026 -1.3852
  759MOL0     H  152   6.893  10.419   8.870 -0.0679 -0.0935 -0.6302
  759MOL0     H  153   6.641  10.429   8.901 -2.4678 -3.0410  0.2654
  759MOL0     H  154   6.446  10.605   8.790  0.7808 -0.2809 -3.4245
  759MOL0     H  155   6.440  10.461   8.903 -1.9076  1.8476  0.9077
  759MOL0     H  156   6.214  10.413   8.807 -2.3142 -0.3919 -0.2517
  759MOL0     H  157   6.229  10.565   8.700 -2.4199 -1.5094  0.6216
  759MOL0     H  158   6.216  10.701   8.877  0.8518 -0.1318 -0.5012
  759MOL0     H  159   6.253  10.574   8.997  1.4160 -0.0287 -0.9574
  759MOL0     H  160   6.033  10.470   8.970  2.1923 -0.1344  0.2969
  759MOL0     H  161   6.010  10.630   9.026 -3.4577  1.6000 -1.5392
  759MOL0     H  162   5.978  10.583   8.729 -3.1877 -3.4052  0.7177
  759MOL0     H  163   5.955  10.729   8.837  1.2603  0.7597  3.5665
  759MOL0     H  164   5.797  10.588   8.967  3.2379 -2.3968  1.1776
  759MOL0     H  165   5.805  10.465   8.836  1.1149  0.5218 -1.8357
  759MOL0     H  166   5.726  10.745   8.739 -0.9669  0.4079 -0.9631
  759MOL0     H  167   5.712  10.582   8.667  0.7798  4.0011 -0.8860
  759MOL0     H  168   5.580  10.680   8.923  1.4569  1.5547 -0.1927
  759MOL0     H  169   5.541  10.533   8.828  1.3941 -0.2385 -2.1957
  759MOL0     H  170   6.585  10.307   8.497  0.5725  0.6275 -0.7910
  759MOL0     H  171   6.823  10.292   8.465  0.2016 -0.5434  1.2492
  759MOL0     H  172   7.262  10.408   8.676 -3.0219 -1.9971 -0.9438
  759MOL0     H  173   7.497  10.398   8.631 -0.4627 -1.1635  2.1245
  759MOL0     H  174   9.142  10.023   8.326 -0.2175  0.4903 -1.0258
  759MOL0     H  175   9.387   9.933   8.318 -3.5376 -1.8878 -2.6967
  759MOL0     H  176   9.779   9.838   8.452  3.7550 -1.0293 -2.5296
  759MOL0     H  177  10.023   9.823   8.445 -1.1790 -1.7944  0.0127
  759MOL0     H  178  10.244   9.854   8.452 -1.3351  2.9618 -0.7176
  759MOL0     H  179  10.236   9.812   8.624  0.0757 -0.7505  0.2768
  759MOL0     H  180  10.475   9.844   8.536  2.2166  1.0014 -0.5293
  759MOL0     H  181  10.434  10.003   8.488 -0.4631  0.6119  0.9464
  759MOL0     H  182  10.437   9.885   8.781  1.3033  2.8716  4.8566
  759MOL0     H  183  10.368  10.037   8.743  0.9957 -0.4839  2.9061
  759MOL0     H  184  10.604  10.104   8.645 -2.6802 -0.0417 -0.0547
  759MOL0     H  185  10.585  10.083   8.816 -1.0589  0.6983  0.0998
  759MOL0     H  186  10.825   9.751   8.670 -0.7065 -0.4952 -0.8105
  759MOL0     H  187  10.037  10.187   8.669 -0.6442  2.1884 -2.6771
  759MOL0     H  188   9.795  10.200   8.663  1.2629  0.8955 -0.7043
  760MOL0     O  189   4.351   1.471  10.481 -0.5270 -0.3913 -0.6105
  760MOL0     C  190   4.451   1.545  10.503  0.9888 -0.6181  0.5486
  760MOL0     O  191   4.470   1.625  10.606  0.3461  0.9728  0.6942
  760MOL0     C  192   4.384   1.602  10.709 -0.1424 -0.0095 -0.2055
  760MOL0     C  193   4.243   1.635  10.708  0.1510 -0.1532 -0.2016
  760MOL0     C  194   4.166   1.639  10.822  0.4456  0.2531 -0.8182
  760MOL0     C  195   4.225   1.610  10.944 -0.0846  0.0750  0.4817
  760MOL0     O  196   4.162   1.600  11.070  0.6526  0.7959  0.6940
  760MOL0     C  197   4.024   1.635  11.082  1.0742 -0.2376 -0.4243
  760MOL0     C  198   4.021   1.784  11.121  0.4022 -0.2133  0.8459
  760MOL0     C  199   3.877   1.838  11.094 -0.1793  0.6544 -0.5659
  760MOL0     C  200   3.868   1.969  11.165  0.9135  0.1439 -0.4203
  760MOL0     C  201   3.719   1.988  11.196 -0.0197  0.0201 -0.1783
  760MOL0     C  202   3.707   2.130  11.269  0.2016  0.7122  0.6053
  760MOL0     C  203   3.559   2.166  11.310 -0.5325 -0.3981  0.5339
  760MOL0     C  204   3.554   2.308  11.367  0.2134  0.2519  0.4776
  760MOL0     N  205   3.532   2.419  11.260 -0.4914  0.5879 -0.3977
  760MOL0     C  206   3.628   2.465  11.172  0.7983 -0.5969 -0.6076
  760MOL0     C  207   3.557   2.541  11.087  0.1135  0.4670 -0.5045
  760MOL0     C  208   3.609   2.609  10.957 -0.4451 -1.4518 -0.2788
  760MOL0     C  209   3.576   2.520  10.837 -0.1664 -0.5481  0.4243
  760MOL0     C  210   3.595   2.599  10.713  0.1257  0.9982 -0.0248
  760MOL0     C  211   3.589   2.504  10.590  0.0849  0.0430  0.4089
  760MOL0     O  212   3.463   2.433  10.584  1.3022 -0.2318  0.1888
  760MOL0     C  213   3.348   2.500  10.543 -0.1413 -0.3080  0.5742
  760MOL0     C  214   3.349   2.616  10.465 -0.1560  0.2251 -0.6869
  760MOL0     C  215   3.227   2.679  10.425 -0.6269  0.1517  1.3782
  760MOL0     C  216   3.106   2.607  10.451  0.4334 -0.1874 -0.3810
  760MOL0     C  217   2.970   2.658  10.419  0.3843 -0.6219  0.1888
  760MOL0     O  218   2.965   2.782  10.351 -0.1486  0.0288 -0.2523
  760MOL0     C  219   2.841   2.835  10.319 -0.0058 -0.1381  0.1552
  760MOL0     C  220   2.822   2.867  10.184 -0.1199 -0.4570  0.4042
  760MOL0     C  221   2.703   2.912  10.143  1.3067  0.2207  1.0154
  760MOL0     C  222   2.588   2.911  10.233  1.1912  0.2682  0.9198
  760MOL0     O  223   2.462   2.934  10.184  0.4686  0.1446  0.0252
  760MOL0     C  224   2.442   3.077  10.183 -0.3205 -0.4941 -0.3865
  760MOL0     C  225   2.320   3.099  10.095 -0.3458 -0.1891 -0.1373
  760MOL0     C  226   2.200   3.131  10.171 -1.0552 -0.5270 -0.0869
  760MOL0     C  227   2.084   3.157  10.087 -0.3130  0.4081  0.8085
  760MOL0     C  228   1.962   3.207  10.177 -0.6920  0.3519 -0.2646
  760MOL0     C  229   1.823   3.232  10.107  0.2849 -0.0410 -0.4546
  760MOL0     C  230   1.773   3.115  10.023 -0.3338 -0.1621  0.8221
  760MOL0     C  231   1.620   3.106  10.001 -0.0164 -0.0741  1.0922
  760MOL0    Cl  232   1.558   3.260   9.947  0.5932  0.3558 -0.5423
  760MOL0     C  233   2.612   2.894  10.372 -0.2134  0.5629  0.4211
  760MOL0     C  234   2.738   2.848  10.413  0.1688 -0.8989 -0.1321
  760MOL0     O  235   2.869   2.585  10.431  0.0917  0.0859  0.1151
  760MOL0     C  236   3.104   2.487  10.528 -0.2610  0.0616  0.4126
  760MOL0     C  237   3.223   2.438  10.569 -0.1130  0.3972 -0.2477
  760MOL0     N  238   3.424   2.534  11.131 -0.4001 -0.2644 -0.4240
  760MOL0     N  239   3.406   2.464  11.231 -0.2304  0.0347 -1.0452
  760MOL0     C  240   4.365   1.590  10.954  0.3729  0.3181  0.0000
  760MOL0     C  241   4.440   1.580  10.835  0.5956 -0.2048  0.3062
  760MOL0     C  242   4.551   1.560  10.397 -0.5784 -0.0899 -0.5381
  760MOL0     C  243   4.676   1.626  10.424  0.7264  0.0989  0.4204
  760MOL0     C  244   4.792   1.628  10.335 -0.0379 -0.3763  0.1086
  760MOL0     C  245   4.766   1.570  10.208 -0.1454 -0.5579 -0.2168
  760MOL0     O  246   4.869   1.548  10.117  0.6707 -0.0873  0.0448
  760MOL0     C  247   5.000   1.597  10.113 -0.1877 -0.1316 -0.0797
  760MOL0     C  248   5.007   1.745  10.081 -0.3712 -0.3396  1.1017
  760MOL0     C  249   4.961   1.784   9.942 -0.3066  0.0120  0.5926
  760MOL0     C  250   5.012   1.690   9.838 -0.1482 -0.0223  0.2527
  760MOL0     C  251   4.971   1.724   9.701 -1.1122  0.1095 -0.7290
  760MOL0     C  252   4.943   1.728   9.577  0.9268 -0.9505  0.2089
  760MOL0     C  253   4.645   1.511  10.172 -0.0872 -0.1872  0.1552
  760MOL0     C  254   4.542   1.503  10.268 -0.0243  0.3378  0.3032
  760MOL0     H  255   4.198   1.665  10.614 -1.1987  0.1864  0.5338
  760MOL0     H  256   4.061   1.660  10.808  0.4549  2.4307  1.5484
  760MOL0     H  257   3.981   1.581  11.167 -0.3819  1.4271 -0.0472
  760MOL0     H  258   3.972   1.610  10.989  2.8112 -0.9437 -1.2571
  760MOL0     H  259   4.085   1.841  11.053  1.9007  0.1975  2.5411
  760MOL0     H  260   4.060   1.801  11.221  2.6006 -2.9045  0.5737
  760MOL0     H  261   3.801   1.765  11.125  0.0722  0.0802 -1.2727
  760MOL0     H  262   3.874   1.861  10.987 -2.4739 -0.7431 -0.8735
  760MOL0     H  263   3.928   1.968  11.257 -0.6349 -3.7566  0.7436
  760MOL0     H  264   3.909   2.054  11.110 -1.9280  2.6857  1.0972
  760MOL0     H  265   3.693   1.901  11.257  2.5107 -0.4753  0.3185
  760MOL0     H  266   3.655   1.982  11.108 -0.4041 -1.7297  0.1938
  760MOL0     H  267   3.750   2.216  11.216 -0.4105  3.5744  4.2615
  760MOL0     H  268   3.771   2.131  11.358  1.4081  0.5658 -0.2315
  760MOL0     H  269   3.501   2.153  11.218  2.5795 -3.6762 -1.2228
  760MOL0     H  270   3.537   2.084  11.379 -0.3215 -2.0186 -1.2471
  760MOL0     H  271   3.648   2.329  11.419  0.1803 -0.4599  0.8246
  760MOL0     H  272   3.468   2.326  11.432  0.5552  0.2049  0.9411
  760MOL0     H  273   3.733   2.437  11.167  0.3353 -3.3263  2.0190
  760MOL0     H  274   3.716   2.628  10.971 -0.8625 -0.8240  3.0136
  760MOL0     H  275   3.568   2.710  10.954 -2.4504 -2.1967  0.2667
  760MOL0     H  276   3.469   2.500  10.849 -0.3762  0.8106  0.9466
  760MOL0     H  277   3.638   2.431  10.818 -0.9783 -0.3846 -4.1010
  760MOL0     H  278   3.526   2.683  10.704 -1.1574 -0.0087  0.1273
  760MOL0     H  279   3.692   2.649  10.708  1.8640 -2.1344 -0.2658
  760MOL0     H  280   3.681   2.445  10.590  0.4363  0.4964  2.7969
  760MOL0     H  281   3.596   2.573  10.506 -1.8254  1.0546  1.0236
  760MOL0     H  282   3.434   2.675  10.433 -1.1521  1.6194 -0.8572
  760MOL0     H  283   3.238   2.762  10.356  1.5205 -3.0332 -2.5243
  760MOL0     H  284   2.902   2.852  10.112 -1.4832  1.0920 -1.5507
  760MOL0     H  285   2.684   2.943  10.040  1.6995 -3.8796 -0.4990
  760MOL0     H  286   2.515   3.145  10.139 -1.0669  1.8999  1.8057
  760MOL0     H  287   2.426   3.105  10.288  1.2462 -3.7153  0.8516
  760MOL0     H  288   2.292   3.011  10.036 -1.5182 -0.4129  0.7010
  760MOL0     H  289   2.343   3.184  10.031 -2.0254  0.7153  0.4009
  760MOL0     H  290   2.231   3.223  10.222  1.6858 -2.0957  1.2833
  760MOL0     H  291   2.190   3.050  10.244  3.2182 -0.6969  0.5500
  760MOL0     H  292   2.114   3.230  10.011  0.3002  0.3834  1.0183
  760MOL0     H  293   2.050   3.064  10.040 -3.1228  1.0141  1.4398
  760MOL0     H  294   1.997   3.297  10.227 -0.3680 -1.0571  2.2173
  760MOL0     H  295   1.955   3.134  10.259 -0.2625  2.1579  1.4708
  760MOL0     H  296   1.817   3.319  10.042 -0.0135  1.3094  1.3044
  760MOL0     H  297   1.748   3.252  10.185  2.5940  0.9808  1.6199
  760MOL0     H  298   1.815   3.127   9.923  0.9183 -3.1885  0.8780
  760MOL0     H  299   1.804   3.020  10.067  1.6752  0.5988  1.1208
  760MOL0     H  300   1.566   3.062  10.086 -1.1688 -3.4859 -1.2047
  760MOL0     H  301   1.597   3.038   9.919 -0.1045  1.6836 -0.4223
  760MOL0     H  302   2.529   2.917  10.437  0.5273  3.1508  0.5545
  760MOL0     H  303   2.756   2.825  10.517 -0.5533  1.0270  0.4704
  760MOL0     H  304   3.017   2.426  10.550  0.3641 -0.8072  0.5412
  760MOL0     H  305   3.214   2.341  10.617  2.2489  0.4518  0.4267
  760MOL0     H  306   4.414   1.580  11.050  0.2132  0.6962  0.1235
  760MOL0     H  307   4.544   1.550  10.827  0.1898 -1.2679 -1.6397
  760MOL0     H  308   4.701   1.675  10.517 -1.2520 -0.7753  1.4654
  760MOL0     H  309   4.888   1.672  10.358  0.2544 -1.1373  0.3499
  760MOL0     H  310   5.053   1.531  10.043 -1.1920 -1.3241  0.2427
  760MOL0     H  311   5.049   1.600  10.211 -0.6615  0.2764  0.1511
  760MOL0     H  312   4.950   1.806  10.152 -0.2067  1.4842 -0.2988
  760MOL0     H  313   5.111   1.774  10.093 -1.0369  1.6622  2.7181
  760MOL0     H  314   4.992   1.888   9.933  1.3395 -0.2796  2.4796
  760MOL0     H  315   4.852   1.794   9.936 -0.2944 -0.4223 -0.7051
  760MOL0     H  316   5.121   1.695   9.843 -0.2479  1.8728  1.3901
  760MOL0     H  317   4.966   1.591   9.850 -2.3147  0.5798 -2.2353
  760MOL0     H  318   4.928   1.742   9.472  0.5375  2.3341  0.6110
  760MOL0     H  319   4.632   1.484  10.067  0.4286 -2.3559  0.6033
  760MOL0     H  320   4.446   1.456  10.247 -1.2671  1.6556  2.6486
  761MOL0     O  321   6.077   0.365   1.541 -0.1809  0.7614 -0.3635
  761MOL0     C  322   6.076   0.490   1.523  0.4354 -1.1099  0.6389
  761MOL0     O  323   5.967   0.560   1.466 -0.3668  0.2509 -0.3874
  761MOL0     C  324   5.848   0.495   1.452  0.3406  0.4162  0.5344
  761MOL0     C  325   5.733   0.527   1.531  0.5823 -0.0789  0.6427
  761MOL0     C  326   5.620   0.445   1.517 -0.6522  0.0097 -0.1889
  761MOL0     C  327   5.607   0.351   1.417  0.4723  0.9499 -1.1428
  761MOL0     O  328   5.492   0.282   1.418 -0.0914 -0.1272  0.0746
  761MOL0     C  329   5.459   0.201   1.304  0.8619 -0.0302  1.0976
  761MOL0     C  330   5.319   0.126   1.329  0.6363 -1.4260  0.7792
  761MOL0     C  331   5.311  -0.001   1.239 -0.0163 -0.1233 -0.3376
  761MOL0     C  332   5.175  -0.067   1.252 -0.0581 -0.0878  0.3823
  761MOL0     C  333   5.174  -0.214   1.187  0.4644 -0.8640 -0.5951
  761MOL0     C  334   5.209  -0.316   1.287  0.7610  0.2369 -0.4452
  761MOL0     C  335   5.185  -0.463   1.243  0.2498 -0.1307  0.6607
  761MOL0     C  336   5.243  -0.497   1.110  0.3951  0.3604 -0.9261
  761MOL0     N  337   5.218  -0.640   1.090 -0.5882  0.4328 -0.5216
  761MOL0     C  338   5.100  -0.699   1.074  0.1598  0.1869  0.6535
  761MOL0     C  339   5.124  -0.829   1.115 -0.4361  0.3503 -0.7816
  761MOL0     C  340   5.018  -0.940   1.115  0.4153  0.6059  0.1191
  761MOL0     C  341   4.939  -0.949   1.253 -0.1276 -0.3960 -0.3297
  761MOL0     C  342   4.821  -1.054   1.258 -0.3585 -0.7326  0.6952
  761MOL0     C  343   4.780  -1.064   1.405  0.1093  0.5204  0.2035
  761MOL0     O  344   4.711  -1.180   1.426  0.2552  1.1488 -0.0461
  761MOL0     C  345   4.578  -1.180   1.419 -0.5298  0.4487  1.0429
  761MOL0     C  346   4.526  -1.297   1.470  0.3314  0.4695  0.3018
  761MOL0     C  347   4.383  -1.318   1.461  0.6582 -0.9760 -0.4390
  761MOL0     C  348   4.299  -1.215   1.398  0.2694  0.4677  0.1489
  761MOL0     C  349   4.157  -1.246   1.366 -0.0058  0.8671 -1.0513
  761MOL0     O  350   4.133  -1.362   1.303 -0.0450 -0.5011  0.0447
  761MOL0     C  351   4.005  -1.402   1.283  0.1194 -0.2410  0.1697
  761MOL0     C  352   3.906  -1.315   1.226  0.3933  0.6699 -0.0585
  761MOL0     C  353   3.780  -1.372   1.198  0.3430 -0.6664  0.4606
  761MOL0     C  354   3.745  -1.502   1.232 -0.1681 -1.6731 -0.7151
  761MOL0     O  355   3.615  -1.532   1.232 -0.0231  0.2406  0.0344
  761MOL0     C  356   3.584  -1.672   1.203  0.8645 -0.4723 -1.1227
  761MOL0     C  357   3.438  -1.673   1.140 -0.2267 -0.6212  0.2597
  761MOL0     C  358   3.448  -1.633   0.999 -0.5975 -0.0957 -0.1761
  761MOL0     C  359   3.308  -1.620   0.942  0.1962 -0.3664  0.2108
  761MOL0     C  360   3.317  -1.612   0.796  0.0192  0.0001  0.3640
  761MOL0     C  361   3.177  -1.608   0.725 -0.4730 -0.1983  1.0734
  761MOL0     C  362   3.135  -1.749   0.673 -0.5759 -0.1398  0.7751
  761MOL0     C  363   3.014  -1.748   0.574 -0.4333 -0.0245  0.9850
  761MOL0    Cl  364   2.845  -1.704   0.651 -0.2303  0.1240  0.1213
  761MOL0     C  365   3.845  -1.573   1.302 -0.3555  0.3922  0.2936
  761MOL0     C  366   3.977  -1.529   1.315  0.3662 -0.1628  0.0735
  761MOL0     O  367   4.072  -1.179   1.425 -0.0925  0.3473  0.0756
  761MOL0     C  368   4.358  -1.100   1.347 -0.1271  0.5156 -0.4178
  761MOL0     C  369   4.496  -1.081   1.351 -0.1597 -0.3168  0.1204
  761MOL0     N  370   5.257  -0.843   1.167 -0.0408  0.0436 -0.5868
  761MOL0     N  371   5.310  -0.731   1.144 -0.3434  0.2759  0.8453
  761MOL0     C  372   5.717   0.323   1.340  1.4953  0.0690  0.0228
  761MOL0     C  373   5.836   0.391   1.358  0.4722  0.0191  0.7911
  761MOL0     C  374   6.198   0.565   1.539  0.4813 -0.1538 -0.4162
  761MOL0     C  375   6.319   0.504   1.585  0.1372  0.4680 -0.7866
  761MOL0     C  376   6.441   0.576   1.602  0.1620 -0.4320  0.2627
  761MOL0     C  377   6.446   0.713   1.562 -1.1203 -0.0348  0.6764
  761MOL0     O  378   6.557   0.792   1.559 -0.8510 -0.2225 -0.3156
  761MOL0     C  379   6.690   0.746   1.586  0.7007  0.0255 -0.8911
  761MOL0     C  380   6.769   0.856   1.656  1.1090  0.2398 -0.2840
  761MOL0     C  381   6.753   0.850   1.814  0.4554  0.0289 -0.1664
  761MOL0     C  382   6.837   0.961   1.889  0.3387  0.1285  0.4948
  761MOL0     C  383   6.978   0.977   1.857 -0.3043  0.2561 -0.1149
  761MOL0     C  384   7.100   0.984   1.835  0.4161 -0.2828 -0.1170
  761MOL0     C  385   6.329   0.760   1.504  0.6069 -0.4848  0.5259
  761MOL0     C  386   6.208   0.699   1.492 -0.5601 -0.6684  0.3973
  761MOL0     H  387   5.731   0.598   1.613 -1.4546 -0.5239  1.0361
  761MOL0     H  388   5.541   0.447   1.593  3.2069  2.1722  4.2992
  761MOL0     H  389   5.527   0.115   1.295 -1.9529 -2.3021  0.0648
  761MOL0     H  390   5.459   0.251   1.207 -3.0134 -2.1444 -0.1848
  761MOL0     H  391   5.250   0.207   1.303  4.8263  1.9995 -0.9406
  761MOL0     H  392   5.310   0.109   1.437 -2.5973 -0.0504  0.8252
  761MOL0     H  393   5.382  -0.070   1.285 -1.1991 -0.1646  1.5387
  761MOL0     H  394   5.342   0.014   1.135  0.0392 -1.1178 -0.4809
  761MOL0     H  395   5.137  -0.074   1.354 -3.5577 -1.4346 -0.8487
  761MOL0     H  396   5.104  -0.003   1.200 -0.2671 -1.8954 -1.7057
  761MOL0     H  397   5.229  -0.214   1.092 -2.5613  1.7305 -2.5551
  761MOL0     H  398   5.070  -0.228   1.155  0.1731 -0.3294  0.0937
  761MOL0     H  399   5.150  -0.296   1.376 -2.3711 -0.4732 -2.2064
  761MOL0     H  400   5.314  -0.305   1.313  1.3893 -0.4054 -2.4592
  761MOL0     H  401   5.235  -0.525   1.318  1.3899  2.3458  2.1112
  761MOL0     H  402   5.076  -0.472   1.244  0.2667 -0.7826  3.1595
  761MOL0     H  403   5.349  -0.472   1.099  0.9779 -1.7763 -0.5696
  761MOL0     H  404   5.179  -0.441   1.041 -0.6390  0.6204  0.2080
  761MOL0     H  405   5.014  -0.650   1.028  0.5123  1.8353  1.6924
  761MOL0     H  406   5.071  -1.035   1.105 -1.5885 -0.3439 -2.7251
  761MOL0     H  407   4.946  -0.932   1.033 -1.4068 -1.5654  1.3727
  761MOL0     H  408   4.898  -0.848   1.268 -1.2828 -0.8131 -0.6188
  761MOL0     H  409   5.006  -0.973   1.336 -1.0882 -3.9113 -0.3970
  761MOL0     H  410   4.744  -1.001   1.200  1.7452 -0.1269 -1.7038
  761MOL0     H  411   4.845  -1.145   1.203 -4.1197 -0.2540 -2.2090
  761MOL0     H  412   4.724  -0.975   1.436  0.5188  0.1310  2.2137
  761MOL0     H  413   4.865  -1.062   1.474  0.7431  1.6411 -0.5729
  761MOL0     H  414   4.589  -1.369   1.523  0.6375  0.3371 -0.2336
  761MOL0     H  415   4.345  -1.414   1.492  0.7246 -0.9880 -0.3939
  761MOL0     H  416   3.916  -1.214   1.188 -1.4313  0.0719 -2.3810
  761MOL0     H  417   3.714  -1.313   1.135  0.6725  0.0168  0.7550
  761MOL0     H  418   3.580  -1.733   1.294 -1.8433 -0.3348 -1.0839
  761MOL0     H  419   3.659  -1.710   1.133  5.1569  5.4014 -0.4839
  761MOL0     H  420   3.379  -1.601   1.197  1.7339  2.2619 -1.0883
  761MOL0     H  421   3.386  -1.769   1.144 -3.3157  0.6962 -2.9606
  761MOL0     H  422   3.494  -1.717   0.946 -1.7895 -1.2769  0.5949
  761MOL0     H  423   3.503  -1.540   0.986 -0.2461  0.0428  1.8908
  761MOL0     H  424   3.253  -1.712   0.965 -3.4697  2.1639  2.7389
  761MOL0     H  425   3.265  -1.530   0.986 -1.8196 -0.6555 -1.0307
  761MOL0     H  426   3.375  -1.693   0.750 -0.6516  0.5208 -1.5176
  761MOL0     H  427   3.380  -1.526   0.768 -0.3367  1.0722  2.6542
  761MOL0     H  428   3.196  -1.534   0.647  3.8873 -0.2324  1.8392
  761MOL0     H  429   3.099  -1.569   0.791 -2.0819 -0.8619 -0.3491
  761MOL0     H  430   3.224  -1.797   0.630  0.8807 -0.7269  4.1469
  761MOL0     H  431   3.108  -1.814   0.756 -0.1369 -1.5734 -0.1835
  761MOL0     H  432   3.003  -1.853   0.548  1.8522  0.0407 -0.5550
  761MOL0     H  433   3.034  -1.691   0.483  0.9034 -0.9353  0.6785
  761MOL0     H  434   3.832  -1.670   1.347  2.3219 -0.5397 -0.6990
  761MOL0     H  435   4.053  -1.592   1.360  3.1643  3.1574  0.4183
  761MOL0     H  436   4.295  -1.026   1.300  0.2753 -1.1955 -3.9640
  761MOL0     H  437   4.537  -0.990   1.308 -0.7995  0.4741  1.1233
  761MOL0     H  438   5.723   0.249   1.261  0.9549  1.5888 -1.5014
  761MOL0     H  439   5.915   0.354   1.293 -1.5882 -2.0922 -0.7202
  761MOL0     H  440   6.310   0.397   1.601 -1.3927  0.7020  0.0447
  761MOL0     H  441   6.528   0.522   1.639 -1.2738 -0.0820  4.6533
  761MOL0     H  442   6.734   0.732   1.487  2.0707  0.9964 -0.4389
  761MOL0     H  443   6.694   0.656   1.648 -0.3558 -0.5677 -1.6358
  761MOL0     H  444   6.877   0.849   1.644  1.3151 -2.3482  2.1385
  761MOL0     H  445   6.730   0.951   1.618 -0.1207  1.3878  3.4428
  761MOL0     H  446   6.783   0.748   1.837 -3.0591 -1.3867 -1.3110
  761MOL0     H  447   6.647   0.868   1.836  0.0093  3.6314 -3.9166
  761MOL0     H  448   6.777   1.052   1.885  0.2127  0.0227 -0.2473
  761MOL0     H  449   6.839   0.919   1.990  2.7636 -0.0652  0.4164
  761MOL0     H  450   7.207   0.988   1.833  0.3848  2.7888 -0.1744
  761MOL0     H  451   6.326   0.866   1.479 -3.0967 -1.0945 -2.4528
  761MOL0     H  452   6.116   0.746   1.459  1.1013  1.9648 -0.7212
  762MOL0     O  453   8.226   4.680   3.134 -1.1748  0.1116  0.0790
  762MOL0     C  454   8.202   4.580   3.069  1.2532  0.3417  0.4591
  762MOL0     O  455   8.290   4.494   3.017  0.4278  1.0992  0.2339
  762MOL0     C  456   8.426   4.496   3.047 -1.1734  0.3427  0.7169
  762MOL0     C  457   8.483   4.533   3.162 -0.0559 -0.8289  0.2114
  762MOL0     C  458   8.625   4.521   3.186 -0.2578  0.5335 -0.4680
  762MOL0     C  459   8.713   4.476   3.088  0.4579  0.3021 -0.0471
  762MOL0     O  460   8.848   4.472   3.117 -0.1587 -0.8049 -0.0353
  762MOL0     C  461   8.935   4.430   3.016 -0.9920  1.0212 -0.0136
  762MOL0     C  462   9.072   4.461   3.058 -0.3929  0.0236  0.8169
  762MOL0     C  463   9.128   4.399   3.186 -0.8101 -0.2021  0.0802
  762MOL0     C  464   9.256   4.465   3.249  0.6679 -0.0536  0.1873
  762MOL0     C  465   9.360   4.477   3.138  0.8107  0.1399  0.7890
  762MOL0     C  466   9.496   4.515   3.181 -0.4350 -0.2661 -0.1485
  762MOL0     C  467   9.601   4.505   3.072  0.5105 -0.8680 -0.5819
  762MOL0     C  468   9.593   4.615   2.970  0.2312  0.5314  2.2711
  762MOL0     N  469   9.623   4.742   3.029  0.0666  0.1326  1.0296
  762MOL0     C  470   9.729   4.766   3.108 -0.2687  0.0881 -0.9298
  762MOL0     C  471   9.727   4.902   3.134  0.7303  0.0695  0.5770
  762MOL0     C  472   9.812   4.976   3.223 -0.1588  0.7470  0.0035
  762MOL0     C  473   9.959   4.942   3.233 -0.1891  1.2616 -0.4169
  762MOL0     C  474  10.041   5.048   3.303 -0.3884  0.1822 -0.2107
  762MOL0     C  475   9.998   5.104   3.443  0.0535 -0.2510 -0.5826
  762MOL0     O  476  10.099   5.097   3.548  0.5653  0.7116 -0.5275
  762MOL0     C  477  10.045   5.060   3.670 -0.5783  0.5141  0.0743
  762MOL0     C  478  10.122   5.003   3.773 -0.3105  0.0027  0.2085
  762MOL0     C  479  10.075   4.984   3.901 -0.8794  0.8865  0.2779
  762MOL0     C  480   9.942   5.008   3.925 -0.0562 -0.1177 -0.1089
  762MOL0     C  481   9.887   4.970   4.062 -0.2439  0.2437 -0.3960
  762MOL0     O  482   9.967   4.908   4.157  0.3398  0.6468 -0.0755
  762MOL0     C  483   9.930   4.910   4.294 -0.5863  0.0725  1.1854
  762MOL0     C  484   9.907   4.787   4.363 -0.4980  0.2411 -0.5899
  762MOL0     C  485   9.828   4.777   4.480 -0.6066 -0.9609  0.2151
  762MOL0     C  486   9.782   4.889   4.548  0.1832 -0.9219  0.5441
  762MOL0     O  487   9.708   4.886   4.662  0.3170  0.5845  0.1234
  762MOL0     C  488   9.575   4.933   4.648  0.8531 -0.0360 -0.2244
  762MOL0     C  489   9.470   4.818   4.617  0.0879  0.4144 -1.1317
  762MOL0     C  490   9.327   4.872   4.575 -0.4377  0.3558 -0.2531
  762MOL0     C  491   9.202   4.783   4.595 -0.2281  0.7000 -0.0600
  762MOL0     C  492   9.159   4.784   4.747  0.3390 -0.4151 -0.4222
  762MOL0     C  493   9.036   4.676   4.773  0.8398  0.6818 -0.1792
  762MOL0     C  494   8.992   4.697   4.917 -0.1587 -0.0417 -0.6256
  762MOL0     C  495   8.877   4.801   4.918  0.4005  0.0201  0.7905
  762MOL0    Cl  496   8.831   4.819   5.087 -0.6723 -0.1716 -0.4444
  762MOL0     C  497   9.818   5.015   4.484  0.7837  0.6756 -0.5002
  762MOL0     C  498   9.885   5.025   4.357  0.6658 -0.3147  0.0294
  762MOL0     O  499   9.773   5.015   4.087 -0.7178 -0.3453  0.2390
  762MOL0     C  500   9.855   5.062   3.829 -0.1797 -0.0437  0.2698
  762MOL0     C  501   9.915   5.084   3.709 -0.0253 -0.1092 -0.4277
  762MOL0     N  502   9.616   4.950   3.070  0.1571 -0.8694 -0.1719
  762MOL0     N  503   9.554   4.857   3.008  0.1891  0.0172 -0.1602
  762MOL0     C  504   8.651   4.435   2.969  0.4830 -0.7731 -0.3625
  762MOL0     C  505   8.514   4.445   2.947 -0.0629 -0.6422  0.6423
  762MOL0     C  506   8.058   4.567   3.036 -0.4403  0.6698  0.3987
  762MOL0     C  507   8.029   4.468   2.938 -0.7441 -1.0095  0.8462
  762MOL0     C  508   7.900   4.443   2.902 -0.0556  0.4359  0.2417
  762MOL0     C  509   7.794   4.520   2.950  0.4554  0.2399  0.3336
  762MOL0     O  510   7.669   4.483   2.912 -0.2606 -0.1991 -0.2596
  762MOL0     C  511   7.561   4.567   2.951 -1.0315 -0.0575 -0.6292
  762MOL0     C  512   7.437   4.498   2.906  0.1332 -0.5255 -0.9106
  762MOL0     C  513   7.423   4.482   2.758 -0.9858 -0.3654 -0.4369
  762MOL0     C  514   7.291   4.504   2.693  1.0032  0.0359  0.2424
  762MOL0     C  515   7.177   4.437   2.756  0.4294 -0.2974 -0.5335
  762MOL0     C  516   7.081   4.375   2.804  0.0826  0.5003  0.1761
  762MOL0     C  517   7.821   4.621   3.039 -1.3150 -0.7437  0.0338
  762MOL0     C  518   7.954   4.649   3.078  0.8889  0.2298 -0.1083
  762MOL0     H  519   8.416   4.571   3.239 -3.4574  2.0404 -3.7067
  762MOL0     H  520   8.659   4.523   3.289 -3.8900 -2.9265  1.0619
  762MOL0     H  521   8.920   4.474   2.917  1.2976 -1.5364 -1.6386
  762MOL0     H  522   8.921   4.323   2.996 -2.8532  1.2341 -0.0566
  762MOL0     H  523   9.069   4.571   3.064 -0.8080 -0.0181  1.5941
  762MOL0     H  524   9.138   4.431   2.976 -1.8033  0.4145 -0.5046
  762MOL0     H  525   9.146   4.291   3.183  2.9843  0.2713  1.0335
  762MOL0     H  526   9.050   4.416   3.261  0.3607 -0.9732  1.5197
  762MOL0     H  527   9.231   4.564   3.289  1.2220  0.2136 -0.1120
  762MOL0     H  528   9.294   4.408   3.334  0.6117 -1.4386 -0.7040
  762MOL0     H  529   9.328   4.559   3.074  2.3535 -0.4698 -0.8795
  762MOL0     H  530   9.366   4.386   3.077  1.1555  1.7564 -1.6993
  762MOL0     H  531   9.533   4.462   3.269  3.0370 -0.9515 -1.8330
  762MOL0     H  532   9.485   4.614   3.225 -0.9614 -1.0760  1.6371
  762MOL0     H  533   9.701   4.503   3.116  0.1872  2.7802  0.6973
  762MOL0     H  534   9.602   4.408   3.022  0.8016 -1.6848  0.9592
  762MOL0     H  535   9.494   4.626   2.924  1.2913  2.0569  0.2063
  762MOL0     H  536   9.666   4.598   2.891 -0.9015  0.3442  1.2389
  762MOL0     H  537   9.797   4.688   3.141 -0.3611  0.4667  0.1812
  762MOL0     H  538   9.768   4.959   3.321  1.9732  2.5791  1.3651
  762MOL0     H  539   9.802   5.077   3.182 -1.4930 -0.4681 -3.0481
  762MOL0     H  540  10.007   4.940   3.135  0.2581 -1.6607 -0.2479
  762MOL0     H  541   9.974   4.847   3.285  0.6278  0.8328 -1.3819
  762MOL0     H  542  10.146   5.018   3.314  1.1644  4.8177 -0.0322
  762MOL0     H  543  10.048   5.133   3.233  2.2781  1.0583  0.9980
  762MOL0     H  544   9.910   5.045   3.467 -2.5360  3.3351 -0.4438
  762MOL0     H  545   9.962   5.207   3.433  1.3872  0.6691  2.8062
  762MOL0     H  546  10.229   4.995   3.753 -0.5029  0.6162 -1.2571
  762MOL0     H  547  10.144   4.949   3.977  3.4662 -1.6896 -4.2048
  762MOL0     H  548   9.955   4.699   4.322 -0.6578 -0.9598  1.6672
  762MOL0     H  549   9.813   4.682   4.530  2.2107 -1.0064  1.1329
  762MOL0     H  550   9.575   5.006   4.567  2.2118  3.7283  2.8735
  762MOL0     H  551   9.537   4.986   4.735  0.1765 -0.6649 -0.1309
  762MOL0     H  552   9.458   4.755   4.706 -0.9683 -3.0688 -3.4987
  762MOL0     H  553   9.506   4.756   4.535  0.6184  1.4588 -1.7064
  762MOL0     H  554   9.329   4.919   4.476 -2.5707  2.1392  0.4695
  762MOL0     H  555   9.300   4.945   4.651 -0.8880 -1.6566  1.6209
  762MOL0     H  556   9.113   4.790   4.532  1.5002 -1.1125 -2.9453
  762MOL0     H  557   9.237   4.681   4.573 -2.1139 -0.0754  0.3331
  762MOL0     H  558   9.124   4.886   4.765 -0.5572 -1.1057  2.0963
  762MOL0     H  559   9.238   4.759   4.817 -1.6881 -0.0655  2.1590
  762MOL0     H  560   9.074   4.576   4.750 -0.3805 -0.2566  1.6922
  762MOL0     H  561   8.950   4.689   4.707 -1.4867  3.8737  3.0826
  762MOL0     H  562   8.955   4.600   4.949  1.4413 -1.2612 -2.2204
  762MOL0     H  563   9.081   4.724   4.975  1.6647 -1.4252 -2.5920
  762MOL0     H  564   8.790   4.771   4.858  1.1520  2.2580 -1.6274
  762MOL0     H  565   8.913   4.896   4.877 -1.6894  0.0168 -1.3113
  762MOL0     H  566   9.777   5.101   4.536  0.2418  0.8569 -1.2045
  762MOL0     H  567   9.879   5.120   4.304 -2.6281 -0.7371 -0.5731
  762MOL0     H  568   9.752   5.086   3.853 -0.4424 -3.7001  3.7758
  762MOL0     H  569   9.846   5.141   3.648  1.4288 -0.0695 -2.0967
  762MOL0     H  570   8.724   4.389   2.903  3.3271  0.4111  1.7146
  762MOL0     H  571   8.471   4.395   2.861 -3.4723  0.4513  1.5381
  762MOL0     H  572   8.109   4.407   2.898  1.5472  1.5467  1.1912
  762MOL0     H  573   7.897   4.364   2.828 -0.8171 -0.0474  0.7621
  762MOL0     H  574   7.572   4.666   2.907  0.3011  0.0931  0.0061
  762MOL0     H  575   7.560   4.582   3.060  2.9811  1.2522 -0.6208
  762MOL0     H  576   7.429   4.399   2.951 -1.7698 -0.1098 -0.2312
  762MOL0     H  577   7.359   4.558   2.954  1.2560 -2.0939  3.3435
  762MOL0     H  578   7.460   4.380   2.743  1.0611  0.1580  0.6284
  762MOL0     H  579   7.497   4.553   2.720  0.7134  0.1806  3.3539
  762MOL0     H  580   7.278   4.613   2.692  1.6846  0.1215 -0.3466
  762MOL0     H  581   7.298   4.486   2.586  0.3724  2.8067 -0.3389
  762MOL0     H  582   6.995   4.328   2.847 -0.1909 -0.3772 -1.2646
  762MOL0     H  583   7.738   4.680   3.079 -1.3401  0.4837 -1.7011
  762MOL0     H  584   7.954   4.731   3.149  2.3468  0.4250 -0.3064
  763MOL0     O  585   1.969   7.959   6.221 -0.5434  0.2075  0.2251
  763MOL0     C  586   2.022   8.065   6.199  1.0317  0.5518  0.2377
  763MOL0     O  587   1.953   8.166   6.134 -0.4011 -0.6566 -0.3596
  763MOL0     C  588   1.816   8.183   6.120 -0.7201  0.3456 -0.5757
  763MOL0     C  589   1.771   8.280   6.032  0.2848 -1.1021  0.2598
  763MOL0     C  590   1.632   8.305   6.020 -0.5529 -1.1369  0.5378
  763MOL0     C  591   1.538   8.222   6.076  0.1588  0.0102  0.3512
  763MOL0     O  592   1.408   8.220   6.031 -0.0338 -0.8800 -0.4922
  763MOL0     C  593   1.339   8.343   6.009 -0.7259  0.8498  0.3536
  763MOL0     C  594   1.190   8.323   6.013 -0.6504 -0.0082 -0.5625
  763MOL0     C  595   1.147   8.204   5.920 -0.4070 -0.2802  0.6503
  763MOL0     C  596   0.996   8.207   5.939  1.4307 -0.7580  0.3004
  763MOL0     C  597   0.946   8.103   5.842 -0.1887  0.1640  0.1760
  763MOL0     C  598   0.962   7.955   5.892 -0.4500 -0.2210  0.2549
  763MOL0     C  599   0.896   7.859   5.797 -0.2210  0.6732 -0.1426
  763MOL0     C  600   0.878   7.727   5.864 -0.4081 -0.5399 -0.7275
  763MOL0     N  601   0.985   7.634   5.852  0.2879 -0.9963 -0.8600
  763MOL0     C  602   1.028   7.573   5.745  0.0081 -1.2707  0.2687
  763MOL0     C  603   1.149   7.518   5.769  0.9707 -0.1409 -0.2062
  763MOL0     C  604   1.232   7.426   5.684  0.6605  0.6833 -0.8037
  763MOL0     C  605   1.364   7.383   5.755  0.5817  0.6575  0.3856
  763MOL0     C  606   1.496   7.408   5.663  0.8817 -0.8090  0.6624
  763MOL0     C  607   1.494   7.319   5.539  0.0502 -0.9291 -0.1486
  763MOL0     O  608   1.488   7.183   5.585  0.1924 -0.2143  1.1181
  763MOL0     C  609   1.607   7.120   5.609 -0.1340  0.3345 -0.7992
  763MOL0     C  610   1.726   7.124   5.520 -1.1286 -0.0567 -0.5953
  763MOL0     C  611   1.845   7.056   5.552  0.3828  0.3671 -1.0419
  763MOL0     C  612   1.860   6.994   5.676 -0.8382 -0.2104  1.0211
  763MOL0     C  613   1.990   6.938   5.718  0.2720  0.7355  0.1288
  763MOL0     O  614   2.092   6.975   5.628 -0.7425  0.3341  0.3362
  763MOL0     C  615   2.224   6.948   5.669 -0.2705 -0.2927 -0.3627
  763MOL0     C  616   2.304   7.050   5.726 -0.2397 -0.2515 -0.1111
  763MOL0     C  617   2.439   7.030   5.772  0.6577  0.0891  0.0456
  763MOL0     C  618   2.487   6.903   5.774 -0.4779 -0.2817  0.0208
  763MOL0     O  619   2.618   6.899   5.822 -0.4160 -0.6997 -0.3448
  763MOL0     C  620   2.712   6.797   5.781  0.0228 -0.2634  0.2058
  763MOL0     C  621   2.696   6.668   5.861 -0.0518 -0.9381  1.2838
  763MOL0     C  622   2.739   6.688   6.009 -0.1672 -0.2103 -0.1616
  763MOL0     C  623   2.730   6.559   6.085 -0.4205  0.0966  0.0892
  763MOL0     C  624   2.847   6.527   6.183  0.5481 -0.1370  1.2987
  763MOL0     C  625   2.845   6.626   6.300 -0.0242  0.5421 -0.0704
  763MOL0     C  626   2.984   6.627   6.349 -0.4899 -0.0497 -0.0728
  763MOL0     C  627   2.999   6.733   6.463  0.0234 -0.3652 -0.0436
  763MOL0    Cl  628   2.939   6.663   6.621  0.4495 -0.3587  0.7963
  763MOL0     C  629   2.412   6.795   5.720 -1.0123  0.1427 -0.0597
  763MOL0     C  630   2.285   6.818   5.674 -0.4478 -0.3248 -0.9676
  763MOL0     O  631   2.001   6.867   5.819  0.5000 -0.9169 -1.0586
  763MOL0     C  632   1.751   7.000   5.763 -1.1496  0.0597  0.0854
  763MOL0     C  633   1.624   7.047   5.731 -0.3268 -0.0776 -0.2047
  763MOL0     N  634   1.188   7.563   5.898  0.0621 -0.2494 -0.6288
  763MOL0     N  635   1.093   7.638   5.941  0.3722 -0.2594  0.4989
  763MOL0     C  636   1.577   8.124   6.158  0.2282  0.2498  0.6614
  763MOL0     C  637   1.716   8.106   6.196 -0.6426 -0.2692  0.7277
  763MOL0     C  638   2.160   8.064   6.239 -0.0017 -0.1183 -0.3624
  763MOL0     C  639   2.228   7.952   6.290 -0.2143 -0.1373 -0.8818
  763MOL0     C  640   2.355   7.966   6.350  0.3821 -0.4448  0.0803
  763MOL0     C  641   2.419   8.092   6.362  0.3856  0.0180  0.1761
  763MOL0     O  642   2.545   8.110   6.404 -0.3279 -0.4637 -0.1251
  763MOL0     C  643   2.620   7.996   6.442 -0.1904  0.1744  0.1732
  763MOL0     C  644   2.753   8.050   6.497 -1.3704  0.7352  0.0461
  763MOL0     C  645   2.737   8.129   6.629  0.2215 -0.3243  0.4506
  763MOL0     C  646   2.881   8.157   6.687  0.4531  0.1020 -0.7628
  763MOL0     C  647   2.963   8.246   6.609  0.0121  0.5951 -0.7072
  763MOL0     C  648   3.048   8.296   6.547 -0.5892 -0.0473  0.0010
  763MOL0     C  649   2.350   8.197   6.300 -0.6291 -0.1626  0.0030
  763MOL0     C  650   2.226   8.188   6.248 -0.7035  0.0942 -0.5318
  763MOL0     H  651   1.847   8.328   5.972  0.7943 -0.6621  1.2421
  763MOL0     H  652   1.613   8.395   5.963 -2.9143  0.4590  3.5589
  763MOL0     H  653   1.369   8.365   5.906  2.9538 -1.1188  0.8412
  763MOL0     H  654   1.369   8.428   6.071  1.3594  0.0548  0.5159
  763MOL0     H  655   1.140   8.406   5.964 -0.1350 -1.4522 -3.7707
  763MOL0     H  656   1.154   8.303   6.114  0.3287 -1.3983 -0.4579
  763MOL0     H  657   1.196   8.108   5.940 -0.5941 -0.9495 -1.7945
  763MOL0     H  658   1.170   8.233   5.817 -0.6868 -1.2789  0.2939
  763MOL0     H  659   0.969   8.184   6.043  1.6679  1.5992  0.9593
  763MOL0     H  660   0.951   8.306   5.921  1.7056 -0.9738 -1.8062
  763MOL0     H  661   0.980   8.116   5.738 -1.2898  0.9079 -0.1090
  763MOL0     H  662   0.840   8.121   5.822  0.5278  1.5627 -3.0386
  763MOL0     H  663   0.926   7.942   5.995 -1.7615  0.2919 -0.1179
  763MOL0     H  664   1.069   7.935   5.884 -0.3397  0.6568 -0.6364
  763MOL0     H  665   0.800   7.895   5.760 -0.1411 -3.0780 -5.1230
  763MOL0     H  666   0.948   7.852   5.701 -2.6004 -1.6049 -1.4029
  763MOL0     H  667   0.787   7.697   5.811 -2.6861  4.8735 -0.4941
  763MOL0     H  668   0.847   7.744   5.967 -1.1284 -1.2391 -0.8193
  763MOL0     H  669   0.989   7.571   5.644 -1.3352 -0.5080  0.7469
  763MOL0     H  670   1.254   7.492   5.599 -1.0857  2.8886  0.3636
  763MOL0     H  671   1.181   7.340   5.639 -1.2816  2.0048 -1.2298
  763MOL0     H  672   1.359   7.278   5.783  3.8866  0.9847  2.8516
  763MOL0     H  673   1.380   7.445   5.844  0.8060  0.9967  0.1087
  763MOL0     H  674   1.499   7.514   5.635 -1.0559  0.0094  3.2357
  763MOL0     H  675   1.582   7.378   5.723  2.3401  0.0552 -0.9019
  763MOL0     H  676   1.587   7.349   5.491  1.1413 -2.8255  0.6604
  763MOL0     H  677   1.412   7.346   5.473 -1.5681 -1.2893  1.6182
  763MOL0     H  678   1.732   7.190   5.434  1.5210  0.1123 -0.3591
  763MOL0     H  679   1.926   7.063   5.480  0.7920  2.1846 -0.4477
  763MOL0     H  680   2.272   7.152   5.743 -1.3866 -0.7992  1.3715
  763MOL0     H  681   2.488   7.120   5.809  2.0182 -1.1544  1.4229
  763MOL0     H  682   2.811   6.844   5.784 -0.7415  1.5396 -1.0898
  763MOL0     H  683   2.698   6.780   5.674  0.6629 -0.7753  0.1979
  763MOL0     H  684   2.757   6.592   5.811 -1.7063 -0.1539 -2.2259
  763MOL0     H  685   2.591   6.640   5.867 -0.2950 -0.2133  0.5827
  763MOL0     H  686   2.674   6.764   6.054  1.0865  0.5294  0.4776
  763MOL0     H  687   2.842   6.726   6.010 -0.3730  0.7340 -3.3752
  763MOL0     H  688   2.639   6.565   6.145  0.9330  2.6664  2.0862
  763MOL0     H  689   2.722   6.476   6.014  0.2387  1.2311 -1.3865
  763MOL0     H  690   2.941   6.542   6.129 -0.0083  2.6558  0.9465
  763MOL0     H  691   2.847   6.424   6.219  4.3220 -0.7989 -0.1476
  763MOL0     H  692   2.772   6.600   6.377 -2.8019  1.8697 -2.1071
  763MOL0     H  693   2.801   6.720   6.268 -2.4778 -0.2045  0.8962
  763MOL0     H  694   3.007   6.531   6.396  2.2356  0.6376  0.1617
  763MOL0     H  695   3.050   6.634   6.263 -1.8332 -1.2748 -1.2561
  763MOL0     H  696   2.948   6.826   6.436  0.1477 -0.0509  0.7711
  763MOL0     H  697   3.105   6.756   6.477  0.1476 -2.0301  2.1643
  763MOL0     H  698   2.444   6.694   5.747  1.1006  0.2139 -1.9960
  763MOL0     H  699   2.234   6.729   5.638 -0.5934 -1.7208  2.3272
  763MOL0     H  700   1.765   6.964   5.865 -4.0225 -1.2049  0.1147
  763MOL0     H  701   1.540   7.037   5.798  1.0677 -2.5624  1.3194
  763MOL0     H  702   1.507   8.048   6.188  1.8710 -0.4483  3.0244
  763MOL0     H  703   1.745   8.016   6.251 -0.7924 -1.4470 -1.0541
  763MOL0     H  704   2.183   7.853   6.290 -0.8749  0.1550  0.1572
  763MOL0     H  705   2.394   7.874   6.394 -2.4463 -0.3673  3.1093
  763MOL0     H  706   2.639   7.933   6.354 -4.4429 -2.3242  0.7640
  763MOL0     H  707   2.572   7.926   6.511  2.5227 -2.1183 -0.0650
  763MOL0     H  708   2.821   7.965   6.511  1.3378  2.4002 -1.9815
  763MOL0     H  709   2.787   8.119   6.419 -0.6752 -1.4715 -1.7216
  763MOL0     H  710   2.679   8.073   6.702  1.1745 -2.1404 -0.1132
  763MOL0     H  711   2.690   8.225   6.605 -0.0660 -0.8876 -1.4028
  763MOL0     H  712   2.872   8.202   6.786  1.3570  1.7838 -1.4038
  763MOL0     H  713   2.941   8.066   6.704  2.7778  0.9003 -3.6578
  763MOL0     H  714   3.131   8.329   6.489 -0.3966 -2.4461 -1.2033
  763MOL0     H  715   2.412   8.285   6.291 -2.0825  0.8671 -0.2965
  763MOL0     H  716   2.182   8.280   6.210  1.2578  1.7935  1.0699
  764MOL0     O  717   1.288  10.862   3.900 -0.6921 -0.0509 -0.5398
  764MOL0     C  718   1.328  10.770   3.824  1.0021  0.2287 -1.0975
  764MOL0     O  719   1.245  10.684   3.756  0.2225  0.6416  0.4984
  764MOL0     C  720   1.112  10.717   3.757  0.2934 -0.2052  0.4120
  764MOL0     C  721   0.998  10.647   3.809 -0.4241 -0.7873 -0.9033
  764MOL0     C  722   0.866  10.698   3.795  0.1626 -0.3847 -0.2790
  764MOL0     C  723   0.842  10.810   3.729  0.8172 -0.7278  0.1414
  764MOL0     O  724   0.714  10.840   3.708 -0.1567 -0.1484 -0.0489
  764MOL0     C  725   0.665  10.793   3.580  0.0825 -1.0973 -0.0161
  764MOL0     C  726   0.602  10.906   3.486 -0.2937 -1.4484  0.7160
  764MOL0     C  727   0.464  10.947   3.526  0.2359 -1.0243  0.6115
  764MOL0     C  728   0.429  11.075   3.448  0.0412  0.4058 -0.2815
  764MOL0     C  729   0.505  11.205   3.485  0.0869  0.2230 -0.5120
  764MOL0     C  730   0.447  11.340   3.435  0.4347 -0.3656  1.5992
  764MOL0     C  731   0.446  11.352   3.281 -0.0502 -0.0507  0.6830
  764MOL0     C  732   0.444  11.493   3.224 -0.1680 -0.2211 -0.2088
  764MOL0     N  733   0.422  11.497   3.080  0.5987  0.0271  0.3483
  764MOL0     C  734   0.493  11.440   2.973  0.0008 -0.5145  1.0031
  764MOL0     C  735   0.451  11.509   2.861 -0.5099 -0.3176  1.0465
  764MOL0     C  736   0.497  11.496   2.715  0.6371  0.9494 -0.1203
  764MOL0     C  737   0.650  11.505   2.694 -0.6302 -0.7598  0.2160
  764MOL0     C  738   0.705  11.651   2.704 -0.3945  0.1160 -0.0180
  764MOL0     C  739   0.685  11.726   2.572  0.3320  0.8084 -0.1091
  764MOL0     O  740   0.770  11.667   2.472 -0.5721  0.4016  0.7869
  764MOL0     C  741   0.835  11.759   2.391 -0.0373 -0.4272 -0.5142
  764MOL0     C  742   0.768  11.823   2.295  0.6169 -1.1102  0.2687
  764MOL0     C  743   0.848  11.914   2.222  0.1993  0.4106  0.2597
  764MOL0     C  744   0.982  11.936   2.253 -1.0152 -0.3665  0.9960
  764MOL0     C  745   1.067  12.034   2.181 -0.6616 -0.3468 -0.3561
  764MOL0     O  746   1.209  12.023   2.196  0.2047 -1.1426  0.4069
  764MOL0     C  747   1.300  12.105   2.122 -0.2459  0.9527 -0.2028
  764MOL0     C  748   1.274  12.181   2.007  0.4110  0.2758 -0.1568
  764MOL0     C  749   1.371  12.258   1.951 -0.9516  0.1769 -0.4546
  764MOL0     C  750   1.493  12.280   2.011 -0.6099  0.2466  0.1233
  764MOL0     O  751   1.562  12.382   1.956  0.3335 -0.9592  0.9887
  764MOL0     C  752   1.701  12.391   1.991  0.2712  0.2649 -0.0827
  764MOL0     C  753   1.794  12.284   1.934  0.2578  1.2271  0.2347
  764MOL0     C  754   1.775  12.279   1.779 -0.0703 -0.5042 -0.0281
  764MOL0     C  755   1.883  12.201   1.709 -0.8005 -0.6213 -0.3030
  764MOL0     C  756   1.886  12.049   1.748 -0.9192 -0.0188 -0.3342
  764MOL0     C  757   1.994  11.955   1.664  0.4914 -0.3394 -0.1153
  764MOL0     C  758   2.148  11.982   1.686  0.3835 -0.8666 -0.6235
  764MOL0     C  759   2.212  11.880   1.779  0.2281  0.5506  0.7680
  764MOL0    Cl  760   2.382  11.925   1.831  0.1976 -0.1318 -0.0099
  764MOL0     C  761   1.527  12.202   2.118  0.1963 -0.0235  0.9937
  764MOL0     C  762   1.433  12.116   2.176 -0.0534 -1.0638  0.0456
  764MOL0     O  763   1.010  12.130   2.128 -0.8695 -0.0085  0.2667
  764MOL0     C  764   1.043  11.867   2.360  0.2340 -1.3010 -0.6958
  764MOL0     C  765   0.970  11.770   2.421  0.8486 -0.2895  1.0786
  764MOL0     N  766   0.372  11.611   2.902 -0.5180  0.5249  0.7019
  764MOL0     N  767   0.355  11.607   3.030  0.1302 -0.1560 -0.1338
  764MOL0     C  768   0.952  10.892   3.681  0.4002  0.3846 -0.0940
  764MOL0     C  769   1.077  10.837   3.683 -0.0155 -0.5266  1.0174
  764MOL0     C  770   1.474  10.757   3.800 -0.5810 -0.4047  0.4535
  764MOL0     C  771   1.513  10.661   3.703  0.4569 -0.4009  0.1772
  764MOL0     C  772   1.647  10.642   3.681 -0.3210 -0.2719  0.0378
  764MOL0     C  773   1.753  10.728   3.721 -0.1857  0.6089  0.0071
  764MOL0     O  774   1.891  10.712   3.699  0.7064 -0.6658  0.2742
  764MOL0     C  775   1.936  10.599   3.625  0.0883  0.4420  0.1269
  764MOL0     C  776   2.081  10.633   3.583 -0.0281 -0.1744  0.3883
  764MOL0     C  777   2.180  10.639   3.709 -0.2381  0.3724 -0.7321
  764MOL0     C  778   2.255  10.502   3.731 -0.1447 -1.1097 -0.5269
  764MOL0     C  779   2.169  10.414   3.817  0.3008 -0.2168  0.2843
  764MOL0     C  780   2.094  10.352   3.886  0.1440  0.3758 -0.2583
  764MOL0     C  781   1.707  10.835   3.800 -0.6578 -0.1994 -0.8760
  764MOL0     C  782   1.572  10.850   3.840  0.3095  0.7458 -0.3440
  764MOL0     H  783   1.023  10.551   3.853 -1.4479 -0.0761  1.3846
  764MOL0     H  784   0.778  10.638   3.818 -1.7857  1.7291 -1.7954
  764MOL0     H  785   0.582  10.724   3.599  0.5871 -1.6505  0.2230
  764MOL0     H  786   0.745  10.728   3.542 -0.4284 -1.4590 -0.4859
  764MOL0     H  787   0.589  10.862   3.386  1.8051  1.7170 -1.1263
  764MOL0     H  788   0.670  10.991   3.480 -1.8128 -0.2444 -0.1744
  764MOL0     H  789   0.468  10.966   3.634 -0.6690  2.1484  0.1941
  764MOL0     H  790   0.386  10.875   3.501 -0.6256  0.2069 -0.3833
  764MOL0     H  791   0.441  11.052   3.342  2.2030 -1.0768  0.2260
  764MOL0     H  792   0.321  11.094   3.452 -0.7196 -2.6294 -2.8947
  764MOL0     H  793   0.599  11.198   3.431 -1.6468  0.8389 -3.8680
  764MOL0     H  794   0.517  11.216   3.593 -1.8199 -0.5921 -0.1718
  764MOL0     H  795   0.524  11.408   3.474  0.1098  0.7211  0.3968
  764MOL0     H  796   0.345  11.357   3.469 -1.1473 -1.6350 -1.9768
  764MOL0     H  797   0.538  11.319   3.231 -0.4227  2.6814 -2.1447
  764MOL0     H  798   0.358  11.309   3.232 -0.5161 -0.2286  1.6495
  764MOL0     H  799   0.540  11.534   3.257  0.2279 -2.5955  1.9310
  764MOL0     H  800   0.379  11.562   3.278 -1.3501 -1.0194 -0.5546
  764MOL0     H  801   0.569  11.363   2.976 -1.9446 -2.5636  0.7235
  764MOL0     H  802   0.447  11.571   2.654 -3.3301  1.0691  2.8409
  764MOL0     H  803   0.473  11.396   2.679  3.7034  0.4936 -1.2121
  764MOL0     H  804   0.684  11.469   2.596  0.6320  3.1374 -0.9330
  764MOL0     H  805   0.693  11.447   2.776 -0.0294 -1.7811 -0.7914
  764MOL0     H  806   0.656  11.718   2.775 -2.1546 -2.1292  1.0131
  764MOL0     H  807   0.811  11.662   2.726 -0.5507 -2.0863  2.1928
  764MOL0     H  808   0.713  11.831   2.586  0.3145  1.0263 -1.6118
  764MOL0     H  809   0.577  11.724   2.559 -0.1069  0.9824  2.7838
  764MOL0     H  810   0.661  11.812   2.283 -0.2933  4.5467  0.4254
  764MOL0     H  811   0.800  11.966   2.140 -1.5744 -0.7207  0.5426
  764MOL0     H  812   1.176  12.188   1.963  2.3959 -2.0088 -5.8472
  764MOL0     H  813   1.342  12.315   1.864  0.1397 -1.1126 -1.7043
  764MOL0     H  814   1.707  12.399   2.100  0.6275 -1.9008  0.0896
  764MOL0     H  815   1.733  12.488   1.952 -1.0121  0.4487 -0.7483
  764MOL0     H  816   1.765  12.187   1.976 -2.3720  1.3394 -1.1150
  764MOL0     H  817   1.900  12.312   1.945  0.2980  3.0164 -3.3445
  764MOL0     H  818   1.763  12.385   1.753  0.6299  0.3086  2.6594
  764MOL0     H  819   1.680  12.233   1.752 -1.4376  1.9013  0.4407
  764MOL0     H  820   1.871  12.230   1.604  0.4261 -0.8899 -0.5256
  764MOL0     H  821   1.973  12.247   1.751 -2.2593 -0.3342  2.8568
  764MOL0     H  822   1.787  12.005   1.733 -0.2520 -0.7679 -3.2880
  764MOL0     H  823   1.912  12.035   1.853 -2.9428  0.6357  0.3185
  764MOL0     H  824   1.959  11.976   1.563 -1.8652 -1.2987  0.4360
  764MOL0     H  825   1.975  11.849   1.683  2.7997 -1.3324 -2.6904
  764MOL0     H  826   2.197  11.984   1.589  3.5647  2.9828  0.8034
  764MOL0     H  827   2.164  12.075   1.741 -1.0307 -1.7555  1.4426
  764MOL0     H  828   2.214  11.785   1.724 -0.3130  0.2285  1.2920
  764MOL0     H  829   2.149  11.877   1.869 -2.0692 -0.9960 -0.7764
  764MOL0     H  830   1.619  12.210   2.175  1.7053 -0.8547 -1.1586
  764MOL0     H  831   1.444  12.070   2.274 -4.0223 -1.2531  0.5623
  764MOL0     H  832   1.142  11.893   2.394 -0.1050 -1.1336  0.2052
  764MOL0     H  833   1.024  11.711   2.495  2.1107 -0.4778  0.0562
  764MOL0     H  834   0.936  10.993   3.645 -1.8284  0.2536  0.3910
  764MOL0     H  835   1.145  10.905   3.634  2.1285 -2.3474  1.3267
  764MOL0     H  836   1.457  10.583   3.652  0.5318 -0.3517  0.0195
  764MOL0     H  837   1.684  10.567   3.612 -0.3339  0.1300 -0.4181
  764MOL0     H  838   1.880  10.576   3.534 -0.7757 -4.1876  1.5409
  764MOL0     H  839   1.938  10.512   3.691  0.9803  0.5396  0.2461
  764MOL0     H  840   2.114  10.571   3.498 -1.2943  3.2338 -2.8728
  764MOL0     H  841   2.072  10.732   3.536 -1.1007 -0.0961  0.7537
  764MOL0     H  842   2.136  10.667   3.805  2.1546  0.3308  0.4533
  764MOL0     H  843   2.259  10.713   3.694 -1.4369  2.3831  2.1838
  764MOL0     H  844   2.301  10.454   3.644  1.8367  1.2759 -0.8947
  764MOL0     H  845   2.351  10.519   3.780 -0.5092  2.9132 -0.8682
  764MOL0     H  846   2.054  10.292   3.965  0.8371  0.5052  0.1982
  764MOL0     H  847   1.763  10.923   3.832 -4.2643  1.4779  1.4231
  764MOL0     H  848   1.531  10.920   3.911  1.9937 -0.6912  2.2057
  765MOL0     O  849   0.957   0.325   9.751  0.2857  0.0614 -0.0491
  765MOL0     C  850   0.944   0.432   9.814 -0.1382  1.6994  0.3228
  765MOL0     O  851   0.847   0.523   9.800  0.3599 -0.4460  0.4448
  765MOL0     C  852   0.739   0.508   9.721 -0.0308  0.1269  0.1215
  765MOL0     C  853   0.662   0.391   9.719 -0.1989  0.4018 -0.2621
  765MOL0     C  854   0.539   0.392   9.647 -0.0732  0.6582 -0.5564
  765MOL0     C  855   0.496   0.495   9.565 -0.1366  0.2179 -0.1886
  765MOL0     O  856   0.372   0.486   9.511 -0.3036 -1.3071  0.2042
  765MOL0     C  857   0.352   0.557   9.379 -0.9953 -0.8023  0.1921
  765MOL0     C  858   0.228   0.511   9.313  0.3022 -0.2774 -0.2834
  765MOL0     C  859   0.100   0.542   9.399  0.2945 -0.1189  0.1217
  765MOL0     C  860  -0.032   0.518   9.324  0.0087  0.2283  0.2541
  765MOL0     C  861  -0.159   0.526   9.419 -0.6329 -0.1557 -0.7056
  765MOL0     C  862  -0.155   0.638   9.518  0.0456 -0.3070  0.9341
  765MOL0     C  863  -0.295   0.648   9.594 -0.0467  0.4074 -0.5793
  765MOL0     C  864  -0.280   0.780   9.676  0.2958  0.4174 -0.1059
  765MOL0     N  865  -0.421   0.816   9.708 -0.8193 -0.1889  0.2300
  765MOL0     C  866  -0.490   0.771   9.819 -0.1647 -0.2425 -0.7394
  765MOL0     C  867  -0.608   0.834   9.820 -0.2792 -0.6345 -0.2549
  765MOL0     C  868  -0.695   0.825   9.949 -0.9627  0.2880  0.8788
  765MOL0     C  869  -0.804   0.932   9.952 -0.4024  0.3167 -0.2008
  765MOL0     C  870  -0.853   0.969  10.097  0.0170 -0.0407  0.4672
  765MOL0     C  871  -0.922   0.857  10.165 -0.4278 -0.5605 -0.8732
  765MOL0     O  872  -1.024   0.799  10.084 -0.3213  0.4809 -0.4933
  765MOL0     C  873  -1.150   0.837  10.113  0.4148  0.1506  0.1996
  765MOL0     C  874  -1.191   0.969  10.166 -0.3744 -1.0962 -0.4495
  765MOL0     C  875  -1.326   0.993  10.175  0.8183 -0.6884 -0.4206
  765MOL0     C  876  -1.426   0.897  10.148  0.4631 -0.0570  0.0491
  765MOL0     C  877  -1.565   0.924  10.158  0.3417 -0.0127  0.0926
  765MOL0     O  878  -1.639   0.843  10.077 -0.0328  0.0213  0.1412
  765MOL0     C  879  -1.780   0.819  10.090 -0.3026 -0.0454  0.1986
  765MOL0     C  880  -1.847   0.744   9.987 -0.1618  0.1892  0.8320
  765MOL0     C  881  -1.984   0.713   9.986 -0.6039  0.2016 -0.1353
  765MOL0     C  882  -2.057   0.748  10.097 -0.1929 -0.3226 -0.3744
  765MOL0     O  883  -2.196   0.706  10.092 -0.1468 -0.5903 -0.5243
  765MOL0     C  884  -2.266   0.707  10.218 -0.1882 -0.0379 -0.1850
  765MOL0     C  885  -2.379   0.611  10.207 -0.2020 -0.7080 -0.9581
  765MOL0     C  886  -2.463   0.607  10.333  0.7459  0.3381  0.0484
  765MOL0     C  887  -2.555   0.494  10.328  0.3706  1.0421 -0.1521
  765MOL0     C  888  -2.642   0.485  10.454  0.1602 -0.7988  1.0080
  765MOL0     C  889  -2.750   0.585  10.485  0.5164 -0.6413  0.5687
  765MOL0     C  890  -2.872   0.536  10.574  0.5380  0.8322  0.9448
  765MOL0     C  891  -2.823   0.486  10.710 -0.0819 -0.1328  0.4342
  765MOL0    Cl  892  -2.762   0.319  10.696  0.1335 -0.0467  0.1509
  765MOL0     C  893  -2.001   0.822  10.203  0.7247 -0.8635 -1.0360
  765MOL0     C  894  -1.858   0.857  10.196 -0.2131 -0.2085 -0.1578
  765MOL0     O  895  -1.603   1.020  10.228  0.0006 -0.1987 -0.2134
  765MOL0     C  896  -1.386   0.779  10.094  0.5608  0.3659 -0.7208
  765MOL0     C  897  -1.250   0.747  10.082 -0.9134 -0.8281 -0.7785
  765MOL0     N  898  -0.601   0.926   9.714  0.1999  0.0050  0.4983
  765MOL0     N  899  -0.495   0.903   9.644  0.1450  0.4757  0.1792
  765MOL0     C  900   0.574   0.611   9.575 -0.7831  0.4339  0.0221
  765MOL0     C  901   0.694   0.621   9.655 -0.5108  0.6969  0.2892
  765MOL0     C  902   1.053   0.461   9.909 -0.7811 -0.9392  0.3103
  765MOL0     C  903   1.149   0.365   9.956 -0.6734  0.5921 -0.5841
  765MOL0     C  904   1.252   0.404  10.042 -0.1440  0.4481  0.0606
  765MOL0     C  905   1.258   0.537  10.079 -0.9836  0.3315 -0.2326
  765MOL0     O  906   1.351   0.590  10.165 -0.1832 -0.7578  0.0794
  765MOL0     C  907   1.360   0.507  10.279 -0.2672  0.8081  0.7088
  765MOL0     C  908   1.393   0.593  10.404 -0.1370  0.8188 -0.4092
  765MOL0     C  909   1.539   0.636  10.397  0.1042 -0.7774  0.4309
  765MOL0     C  910   1.572   0.765  10.318 -0.1022  0.7466 -0.3881
  765MOL0     C  911   1.518   0.892  10.365 -0.4846 -0.6688  0.0008
  765MOL0     C  912   1.483   1.005  10.404  0.3056 -0.7558 -0.6827
  765MOL0     C  913   1.160   0.626  10.037 -0.2689  0.1713  0.4100
  765MOL0     C  914   1.057   0.591   9.954  0.0220 -0.1386 -0.4762
  765MOL0     H  915   0.709   0.317   9.784  1.1888  0.2862 -1.3453
  765MOL0     H  916   0.486   0.297   9.658  2.9556 -0.8201  4.9246
  765MOL0     H  917   0.442   0.533   9.322 -1.4239 -3.7374  0.5651
  765MOL0     H  918   0.359   0.664   9.398 -0.0642 -0.5745 -1.2738
  765MOL0     H  919   0.229   0.404   9.293  1.2181 -0.1737 -0.8230
  765MOL0     H  920   0.210   0.557   9.215  2.7289  2.6948  0.5043
  765MOL0     H  921   0.092   0.650   9.417 -1.2687 -0.2374  0.2881
  765MOL0     H  922   0.101   0.491   9.496  1.7077 -0.7912 -0.2188
  765MOL0     H  923  -0.045   0.606   9.259 -0.6569  3.2433  4.0772
  765MOL0     H  924  -0.029   0.429   9.261  1.7352  0.6801 -0.3555
  765MOL0     H  925  -0.175   0.428   9.466  2.2311  0.5172  2.0412
  765MOL0     H  926  -0.239   0.540   9.346 -0.3698  2.4552 -0.5675
  765MOL0     H  927  -0.142   0.729   9.459  1.8083 -0.0421  1.6619
  765MOL0     H  928  -0.074   0.632   9.592 -0.6520 -0.3086  1.7136
  765MOL0     H  929  -0.385   0.639   9.533 -1.0672  0.3740  0.8661
  765MOL0     H  930  -0.290   0.567   9.668 -2.7342 -2.6027 -3.3728
  765MOL0     H  931  -0.244   0.861   9.612  0.1299 -0.5226 -1.4305
  765MOL0     H  932  -0.218   0.771   9.765  1.2476  4.5849 -0.1392
  765MOL0     H  933  -0.450   0.713   9.902 -1.7026  1.1057  1.0254
  765MOL0     H  934  -0.615   0.846  10.021 -0.2303  0.8411 -0.0740
  765MOL0     H  935  -0.745   0.728   9.963  2.3673 -1.7627 -0.1933
  765MOL0     H  936  -0.897   0.906   9.900 -1.0483  0.7518  0.7158
  765MOL0     H  937  -0.780   1.033   9.918 -4.2116  1.4698  0.0463
  765MOL0     H  938  -0.762   1.005  10.146 -0.2059  0.3394  0.6020
  765MOL0     H  939  -0.913   1.058  10.072 -2.7364 -1.8895  0.0136
  765MOL0     H  940  -0.963   0.886  10.262  1.7041 -1.0719  0.2325
  765MOL0     H  941  -0.854   0.776  10.195  0.9372  1.5029  2.1989
  765MOL0     H  942  -1.129   1.058  10.176 -1.3326 -0.3667 -0.8114
  765MOL0     H  943  -1.361   1.087  10.216 -0.1953 -0.6653 -1.2995
  765MOL0     H  944  -1.791   0.710   9.901 -2.5993  2.4408 -1.8620
  765MOL0     H  945  -2.034   0.656   9.909 -0.5197 -0.8096  0.5393
  765MOL0     H  946  -2.309   0.805  10.239  0.2443 -0.3919  2.7124
  765MOL0     H  947  -2.200   0.677  10.299  0.6833  0.8087 -0.5610
  765MOL0     H  948  -2.344   0.514  10.170 -1.8999 -0.9079 -2.1551
  765MOL0     H  949  -2.436   0.653  10.123 -0.1463  1.6246  0.0844
  765MOL0     H  950  -2.534   0.690  10.331 -2.5902 -2.2875  0.6878
  765MOL0     H  951  -2.403   0.605  10.425  0.5035 -1.1935  0.1916
  765MOL0     H  952  -2.608   0.498  10.232  2.4695 -0.4374 -1.4638
  765MOL0     H  953  -2.504   0.397  10.316 -0.8930  0.2702  0.4965
  765MOL0     H  954  -2.572   0.475  10.537  1.8993 -0.4136 -0.3421
  765MOL0     H  955  -2.693   0.391  10.433  0.4668 -0.7353 -0.1049
  765MOL0     H  956  -2.796   0.629  10.396 -1.0011 -0.3032  1.4822
  765MOL0     H  957  -2.704   0.670  10.537 -2.2531  1.6109 -0.3889
  765MOL0     H  958  -2.925   0.628  10.602  2.0491  2.1018 -0.1177
  765MOL0     H  959  -2.933   0.468  10.513  1.7700  0.3680  0.2002
  765MOL0     H  960  -2.902   0.489  10.785  1.5721 -2.0738  2.4010
  765MOL0     H  961  -2.745   0.554  10.746 -1.5649  2.1675 -0.4727
  765MOL0     H  962  -2.051   0.860  10.292  1.5298  0.8510 -1.2642
  765MOL0     H  963  -1.813   0.923  10.269  1.0269 -0.9830 -0.1960
  765MOL0     H  964  -1.463   0.703  10.079  1.2790 -0.9388  1.5761
  765MOL0     H  965  -1.211   0.660  10.030 -0.4212 -1.2805  0.3141
  765MOL0     H  966   0.542   0.698   9.519  0.4732  0.8294 -0.0999
  765MOL0     H  967   0.750   0.713   9.667  1.0936 -0.1851 -0.0361
  765MOL0     H  968   1.139   0.260   9.932  0.3980 -0.8021  4.0636
  765MOL0     H  969   1.324   0.332  10.079 -1.3676 -0.1711  1.3541
  765MOL0     H  970   1.427   0.422  10.263 -3.8173 -2.5800  2.1112
  765MOL0     H  971   1.263   0.458  10.294 -0.0119  0.7084  2.1691
  765MOL0     H  972   1.333   0.682  10.425  1.6881  1.5149  2.4556
  765MOL0     H  973   1.398   0.528  10.492  1.0532  1.9025  0.3702
  765MOL0     H  974   1.587   0.551  10.348  0.6949  0.2736 -0.8592
  765MOL0     H  975   1.575   0.645  10.500 -1.1225 -1.2283  0.9294
  765MOL0     H  976   1.680   0.779  10.326 -0.0106  0.1791 -0.6085
  765MOL0     H  977   1.546   0.763  10.212  0.8310 -1.2039 -0.6193
  765MOL0     H  978   1.457   1.096  10.456  0.9850  0.0721 -1.7467
  765MOL0     H  979   1.174   0.722  10.086  1.4149 -1.2693  3.0410
  765MOL0     H  980   0.996   0.675   9.922 -0.6809 -0.2138  0.6065
  766MOL0     O  981   0.124   0.089  10.166 -0.3407  0.6532  0.1171
  766MOL0     C  982   0.183   0.153  10.252 -1.0572  0.0028 -0.0852
  766MOL0     O  983   0.141   0.181  10.380 -0.8243 -0.4413  0.3137
  766MOL0     C  984   0.004   0.178  10.398  0.5795 -0.2780  0.0442
  766MOL0     C  985  -0.075   0.292  10.364 -0.5113  0.4633 -0.7545
  766MOL0     C  986  -0.212   0.295  10.380  0.1852 -0.3283  0.7492
  766MOL0     C  987  -0.275   0.178  10.425 -0.1828 -0.0399  0.1205
  766MOL0     O  988  -0.413   0.186  10.425 -0.8721 -0.0424  0.4054
  766MOL0     C  989  -0.481   0.065  10.381  0.4987 -0.7280  0.5258
  766MOL0     C  990  -0.627   0.076  10.357  0.1986 -0.5500 -0.3730
  766MOL0     C  991  -0.707   0.077  10.487 -0.9482  0.9519  0.3452
  766MOL0     C  992  -0.854   0.083  10.468 -0.5910 -0.2307  0.6768
  766MOL0     C  993  -0.934   0.031  10.586 -0.2269  0.4586  0.5770
  766MOL0     C  994  -1.087   0.036  10.554  0.5501  0.0817 -0.4719
  766MOL0     C  995  -1.172   0.040  10.682  0.6531 -0.7688 -0.2726
  766MOL0     C  996  -1.154  -0.078  10.781  0.2346 -0.1093 -0.1007
  766MOL0     N  997  -1.235  -0.047  10.894  0.7477 -0.2319  0.3080
  766MOL0     C  998  -1.230  -0.110  11.017  1.4775  0.0839 -0.3784
  766MOL0     C  999  -1.320  -0.047  11.093 -0.2515 -1.1087  0.2240
  766MOL0     C 1000  -1.371  -0.087  11.224  0.2992  0.2185 -0.2404
  766MOL0     C 1001  -1.412  -0.234  11.222  0.1361  0.6251  0.7112
  766MOL0     C 1002  -1.478  -0.271  11.356  0.5751  0.2180 -0.4222
  766MOL0     C 1003  -1.520  -0.413  11.369  0.8164 -0.3442  0.3268
  766MOL0     O 1004  -1.619  -0.425  11.474  0.5521  0.6183 -0.9692
  766MOL0     C 1005  -1.672  -0.543  11.506 -0.0030 -0.3829  0.4255
  766MOL0     C 1006  -1.757  -0.541  11.610  0.6685  0.7097 -0.6133
  766MOL0     C 1007  -1.812  -0.660  11.654  0.2902  0.1133 -0.6290
  766MOL0     C 1008  -1.794  -0.778  11.589  0.4686 -0.8313 -0.7289
  766MOL0     C 1009  -1.864  -0.892  11.638  0.0275  0.4183 -1.3283
  766MOL0     O 1010  -1.963  -0.883  11.738 -0.2747 -0.6944  0.1846
  766MOL0     C 1011  -1.985  -0.996  11.801 -0.0679  0.8944  0.1940
  766MOL0     C 1012  -2.087  -1.086  11.753 -0.0949  0.2524 -0.1144
  766MOL0     C 1013  -2.116  -1.201  11.829 -0.3957 -1.5054  0.0174
  766MOL0     C 1014  -2.036  -1.235  11.943 -0.1456 -0.2909 -0.2204
  766MOL0     O 1015  -2.056  -1.346  12.016 -0.5266  0.6959  0.5369
  766MOL0     C 1016  -2.123  -1.462  11.960 -0.4928  0.0672  0.9550
  766MOL0     C 1017  -2.075  -1.596  12.016 -0.3735 -0.5289 -0.0856
  766MOL0     C 1018  -1.922  -1.624  12.010 -0.6030 -0.0820 -1.0677
  766MOL0     C 1019  -1.873  -1.680  11.878 -0.4370  0.7576 -0.3903
  766MOL0     C 1020  -1.740  -1.740  11.902  0.1610 -0.1098 -0.9597
  766MOL0     C 1021  -1.676  -1.799  11.773 -0.4002 -0.7849 -0.8277
  766MOL0     C 1022  -1.750  -1.918  11.703 -0.3546 -0.2995  0.1345
  766MOL0     C 1023  -1.767  -2.045  11.793 -0.3462 -0.3088 -0.4860
  766MOL0    Cl 1024  -1.608  -2.105  11.862  0.0152  0.0906 -0.3376
  766MOL0     C 1025  -1.946  -1.152  11.996  0.7709 -0.8275  0.1317
  766MOL0     C 1026  -1.921  -1.025  11.923 -0.2593  0.0867 -0.0036
  766MOL0     O 1027  -1.828  -0.995  11.581  0.2526 -0.0868  1.1654
  766MOL0     C 1028  -1.690  -0.791  11.498 -0.6613  0.3175  0.1043
  766MOL0     C 1029  -1.621  -0.665  11.457  0.0650  0.2038  0.4154
  766MOL0     N 1030  -1.374   0.057  11.022  0.5936 -0.4718 -0.5389
  766MOL0     N 1031  -1.327   0.059  10.904  0.0373  0.4295 -0.0244
  766MOL0     C 1032  -0.191   0.069  10.466 -0.0485 -0.5449 -0.1698
  766MOL0     C 1033  -0.061   0.068  10.445 -0.2126  0.0692 -0.3916
  766MOL0     C 1034   0.322   0.202  10.224 -0.3309  1.3427  0.5245
  766MOL0     C 1035   0.377   0.306  10.302 -0.2878  0.0016  0.2763
  766MOL0     C 1036   0.503   0.347  10.274  0.4114  0.1588  0.4784
  766MOL0     C 1037   0.575   0.289  10.173  0.3339  0.4181  0.6138
  766MOL0     O 1038   0.698   0.339  10.151 -0.8622 -0.5294 -0.4822
  766MOL0     C 1039   0.814   0.258  10.168 -0.3008  0.0657 -0.2171
  766MOL0     C 1040   0.916   0.313  10.264 -0.7901 -0.3911  0.3466
  766MOL0     C 1041   0.872   0.352  10.403 -0.6639 -0.2361  0.2542
  766MOL0     C 1042   0.983   0.423  10.488 -0.0878 -0.0862  0.9022
  766MOL0     C 1043   1.110   0.356  10.485  0.4705 -1.2814 -0.2349
  766MOL0     C 1044   1.208   0.285  10.467  0.3258 -0.3239 -0.8550
  766MOL0     C 1045   0.532   0.180  10.106 -0.7236 -0.0749 -0.1693
  766MOL0     C 1046   0.406   0.132  10.128 -0.5053 -0.3165 -0.6944
  766MOL0     H 1047  -0.013   0.374  10.328  0.7180  0.6038  1.4376
  766MOL0     H 1048  -0.251   0.394  10.360  0.1012  0.0072  2.4706
  766MOL0     H 1049  -0.459  -0.014  10.454 -3.8556 -2.5093  0.1826
  766MOL0     H 1050  -0.436   0.016  10.294  1.4319 -2.0620  1.7105
  766MOL0     H 1051  -0.663  -0.005  10.292 -1.7519 -1.2622  1.4968
  766MOL0     H 1052  -0.648   0.170  10.305 -4.0806 -1.1421 -0.1240
  766MOL0     H 1053  -0.672   0.157  10.554  2.6952  1.0089 -1.3994
  766MOL0     H 1054  -0.683  -0.014  10.543 -3.2413  0.9281  1.3795
  766MOL0     H 1055  -0.881   0.187  10.449  0.0031 -0.0471  0.8218
  766MOL0     H 1056  -0.877   0.037  10.372 -1.8057 -0.5997  1.1338
  766MOL0     H 1057  -0.901   0.085  10.675 -0.2354 -0.2785  1.0309
  766MOL0     H 1058  -0.908  -0.072  10.612  1.0203  0.6286  0.0521
  766MOL0     H 1059  -1.101  -0.046  10.484  3.9156 -1.1542  0.1212
  766MOL0     H 1060  -1.120   0.128  10.504 -2.1072 -1.3141 -1.4936
  766MOL0     H 1061  -1.148   0.139  10.722  0.5868 -1.0825  0.5738
  766MOL0     H 1062  -1.277   0.044  10.651  1.0462 -0.3069 -1.6231
  766MOL0     H 1063  -1.050  -0.095  10.810  0.2289 -1.1380 -0.6112
  766MOL0     H 1064  -1.182  -0.175  10.739 -0.0297 -0.4602  0.8451
  766MOL0     H 1065  -1.177  -0.199  11.050  0.1125 -1.7480 -2.8488
  766MOL0     H 1066  -1.458  -0.024  11.244  0.4751  0.7608 -1.1328
  766MOL0     H 1067  -1.290  -0.069  11.295 -0.5567  0.0650  0.8145
  766MOL0     H 1068  -1.322  -0.295  11.207  2.2536  2.5688  4.0403
  766MOL0     H 1069  -1.477  -0.245  11.135  1.3806 -3.5197  0.0835
  766MOL0     H 1070  -1.408  -0.239  11.434  0.7537 -0.0217 -0.4832
  766MOL0     H 1071  -1.567  -0.208  11.364  1.1850  1.0237  0.2372
  766MOL0     H 1072  -1.428  -0.470  11.385  2.5688  1.8700 -1.1778
  766MOL0     H 1073  -1.566  -0.454  11.278  2.4813 -1.6777  0.0254
  766MOL0     H 1074  -1.798  -0.459  11.667  0.8039 -1.1470  2.3894
  766MOL0     H 1075  -1.878  -0.628  11.734  3.2301  3.0221  0.8422
  766MOL0     H 1076  -2.137  -1.067  11.659 -3.2550 -2.5318  0.8268
  766MOL0     H 1077  -2.186  -1.272  11.783 -1.9651 -1.3326  1.9894
  766MOL0     H 1078  -2.103  -1.458  11.852  0.0855 -0.6973  1.0270
  766MOL0     H 1079  -2.231  -1.450  11.975 -0.5073  1.2296  0.1192
  766MOL0     H 1080  -2.134  -1.669  11.959 -0.7035 -0.5987  0.3394
  766MOL0     H 1081  -2.101  -1.595  12.122  0.4375  1.5058  0.1369
  766MOL0     H 1082  -1.903  -1.692  12.093 -3.4080 -2.8043 -2.4887
  766MOL0     H 1083  -1.853  -1.543  12.035  1.9277 -2.1558 -0.9055
  766MOL0     H 1084  -1.940  -1.756  11.836  0.4931 -1.6805  2.2311
  766MOL0     H 1085  -1.870  -1.604  11.800 -1.5175  1.5724  0.3258
  766MOL0     H 1086  -1.747  -1.818  11.979 -2.6474  1.8515  1.0023
  766MOL0     H 1087  -1.669  -1.662  11.931 -0.8254 -0.0741  1.6801
  766MOL0     H 1088  -1.579  -1.827  11.814  0.3690  1.2650 -1.1206
  766MOL0     H 1089  -1.655  -1.725  11.695 -0.7700  0.4196  0.1829
  766MOL0     H 1090  -1.849  -1.884  11.673  0.0844  1.1469  0.2492
  766MOL0     H 1091  -1.702  -1.941  11.608 -2.2660  0.3754 -1.0470
  766MOL0     H 1092  -1.808  -2.126  11.731  1.5650  0.4438 -2.8680
  766MOL0     H 1093  -1.838  -2.029  11.874 -1.0121  1.1984 -1.3195
  766MOL0     H 1094  -1.893  -1.184  12.085  2.0998  0.4159 -0.1703
  766MOL0     H 1095  -1.850  -0.953  11.964  1.4591 -0.0408 -2.5430
  766MOL0     H 1096  -1.654  -0.882  11.451  2.7269  0.5579  1.9363
  766MOL0     H 1097  -1.538  -0.673  11.388  0.5319 -1.2433  1.0872
  766MOL0     H 1098  -0.235  -0.021  10.509 -0.8802 -0.0521  0.0291
  766MOL0     H 1099   0.008  -0.011  10.474 -0.3076 -0.0221 -0.4113
  766MOL0     H 1100   0.325   0.358  10.382 -1.4827 -0.4945 -0.1629
  766MOL0     H 1101   0.543   0.429  10.332 -1.4029 -0.4909  2.7787
  766MOL0     H 1102   0.865   0.255  10.071  1.8262  3.5842  0.5900
  766MOL0     H 1103   0.789   0.156  10.199 -1.8533 -0.6681 -3.4426
  766MOL0     H 1104   1.006   0.250  10.259  0.5687  1.5726 -2.1833
  766MOL0     H 1105   0.959   0.396  10.209 -0.7145 -1.3983 -1.1636
  766MOL0     H 1106   0.831   0.268  10.460  2.1159 -1.5516  0.4578
  766MOL0     H 1107   0.790   0.422  10.386 -0.6171 -0.5899 -1.6074
  766MOL0     H 1108   0.999   0.526  10.454 -2.8433 -0.3474 -1.5610
  766MOL0     H 1109   0.956   0.413  10.593 -1.0490 -0.2660  0.6446
  766MOL0     H 1110   1.296   0.225  10.463 -1.0385 -2.5408  0.1620
  766MOL0     H 1111   0.598   0.127  10.037 -1.4691 -0.7241 -0.3960
  766MOL0     H 1112   0.371   0.046  10.072  0.2533 -1.0691 -0.0275
  767MOL0     O 1113   3.302   2.875   0.324 -0.8806  0.7879 -0.7968
  767MOL0     C 1114   3.331   2.846   0.215 -0.0696 -0.0875  0.8604
  767MOL0     O 1115   3.432   2.890   0.146 -0.2999 -0.2709  0.4910
  767MOL0     C 1116   3.517   2.972   0.207 -0.2777 -0.8351 -0.3070
  767MOL0     C 1117   3.572   2.955   0.338 -0.1871  0.6230 -0.5666
  767MOL0     C 1118   3.645   3.050   0.403 -0.5310  0.2231  0.1754
  767MOL0     C 1119   3.698   3.159   0.332 -0.2682 -0.0121 -0.4074
  767MOL0     O 1120   3.798   3.241   0.388 -0.2621  0.3185 -0.9893
  767MOL0     C 1121   3.819   3.368   0.335  0.7261 -1.0518  0.0199
  767MOL0     C 1122   3.913   3.464   0.419 -0.8519 -0.7349  0.0744
  767MOL0     C 1123   3.913   3.610   0.372  0.4207  0.7105 -0.0715
  767MOL0     C 1124   3.979   3.628   0.232  0.6026  0.1739 -0.5317
  767MOL0     C 1125   4.003   3.780   0.201 -1.0486  0.0907 -0.1424
  767MOL0     C 1126   3.866   3.859   0.172  0.3052  0.3031 -0.2652
  767MOL0     C 1127   3.872   4.013   0.173 -0.2897 -0.4960 -0.1092
  767MOL0     C 1128   3.898   4.064   0.314  0.4025  0.1837 -0.4508
  767MOL0     N 1129   3.865   4.210   0.324 -0.4993  0.4515 -0.2541
  767MOL0     C 1130   3.866   4.313   0.232 -0.2594  0.0563 -0.1858
  767MOL0     C 1131   3.803   4.418   0.293 -0.2021  0.2454  0.0801
  767MOL0     C 1132   3.771   4.554   0.237  0.0553 -0.3722 -0.1886
  767MOL0     C 1133   3.624   4.577   0.175 -0.1632 -0.6956  0.6340
  767MOL0     C 1134   3.599   4.714   0.105 -0.2320  0.0617 -0.1688
  767MOL0     C 1135   3.452   4.726   0.055 -0.4464 -1.3192  0.3021
  767MOL0     O 1136   3.396   4.610   0.002 -0.0008  0.2503 -0.4657
  767MOL0     C 1137   3.264   4.630  -0.041 -0.3752  0.2592  0.4011
  767MOL0     C 1138   3.192   4.516  -0.056  0.7579  0.0175  0.5221
  767MOL0     C 1139   3.064   4.526  -0.117 -0.0062 -0.6313  0.6144
  767MOL0     C 1140   3.012   4.650  -0.168  0.0587 -0.1161  0.2220
  767MOL0     C 1141   2.882   4.661  -0.231  0.2388  0.4079 -0.4948
  767MOL0     O 1142   2.826   4.784  -0.249  0.5283 -0.4807  0.0447
  767MOL0     C 1143   2.690   4.785  -0.278  0.7682  0.5842 -0.1186
  767MOL0     C 1144   2.601   4.760  -0.173 -0.4612  0.4922  0.7846
  767MOL0     C 1145   2.461   4.759  -0.193 -0.5989  0.1107  0.2466
  767MOL0     C 1146   2.400   4.794  -0.315 -0.1840 -0.5502 -0.1701
  767MOL0     O 1147   2.267   4.788  -0.323 -0.2697 -0.3399 -0.3999
  767MOL0     C 1148   2.209   4.724  -0.436  0.4397 -0.7329 -0.3316
  767MOL0     C 1149   2.063   4.759  -0.426 -0.0494 -0.2694  0.0687
  767MOL0     C 1150   1.986   4.713  -0.554  0.1335 -0.2867  0.4754
  767MOL0     C 1151   1.843   4.743  -0.532  1.1664  0.0586 -0.3941
  767MOL0     C 1152   1.761   4.696  -0.664 -0.0385  0.7979 -0.5614
  767MOL0     C 1153   1.617   4.705  -0.656 -0.4689 -0.1316 -0.8034
  767MOL0     C 1154   1.547   4.656  -0.785 -0.4551  0.1914 -0.7019
  767MOL0     C 1155   1.403   4.679  -0.762 -0.0735  0.0695  0.7216
  767MOL0    Cl 1156   1.312   4.664  -0.913 -0.0315 -0.6123  0.2207
  767MOL0     C 1157   2.495   4.824  -0.418  0.9607 -0.0194  0.2156
  767MOL0     C 1158   2.630   4.812  -0.400  0.8364  0.7299  0.0974
  767MOL0     O 1159   2.837   4.550  -0.262 -0.2666 -1.5618  0.4721
  767MOL0     C 1160   3.086   4.763  -0.157  0.3050 -0.6632 -0.6793
  767MOL0     C 1161   3.209   4.750  -0.089 -0.1901 -0.7381 -0.3718
  767MOL0     N 1162   3.765   4.371   0.417  0.3390 -1.1134 -0.2451
  767MOL0     N 1163   3.805   4.254   0.443 -0.7442 -0.8168 -0.4967
  767MOL0     C 1164   3.638   3.193   0.214 -0.0933 -0.0693  0.1163
  767MOL0     C 1165   3.556   3.095   0.146 -0.3041 -0.0962  0.0677
  767MOL0     C 1166   3.234   2.762   0.143  0.1488  0.1066 -0.2742
  767MOL0     C 1167   3.256   2.738  -0.001 -0.1434 -0.0632 -0.6642
  767MOL0     C 1168   3.162   2.652  -0.072 -0.1607 -0.5922  0.2471
  767MOL0     C 1169   3.050   2.596  -0.009 -0.3840  0.1980 -0.6127
  767MOL0     O 1170   2.942   2.526  -0.065 -0.1844 -0.5120 -0.1747
  767MOL0     C 1171   2.953   2.492  -0.207 -0.1189  0.2449 -0.8318
  767MOL0     C 1172   2.914   2.612  -0.297 -0.2268 -0.6351  0.3578
  767MOL0     C 1173   2.888   2.575  -0.437  0.7551 -0.6641 -0.6041
  767MOL0     C 1174   2.946   2.684  -0.535 -0.1027 -0.6530  0.3045
  767MOL0     C 1175   3.089   2.701  -0.518 -0.3485 -0.3302  0.3724
  767MOL0     C 1176   3.213   2.721  -0.509  0.0802 -0.2101  1.1692
  767MOL0     C 1177   3.033   2.625   0.128 -0.0654  0.1631 -0.1238
  767MOL0     C 1178   3.117   2.704   0.196 -0.4571  0.0211 -0.7497
  767MOL0     H 1179   3.545   2.862   0.386 -1.8910 -0.1359 -2.8269
  767MOL0     H 1180   3.693   3.027   0.498  0.9324  1.7617 -0.1449
  767MOL0     H 1181   3.720   3.413   0.336  0.6520 -1.2076 -0.2638
  767MOL0     H 1182   3.868   3.354   0.238  0.6928 -1.2987  0.0393
  767MOL0     H 1183   4.015   3.425   0.426 -0.3228  0.7397  1.1003
  767MOL0     H 1184   3.886   3.475   0.525  2.2979  0.6202  0.8649
  767MOL0     H 1185   3.978   3.674   0.433 -0.5080  3.7888 -2.0738
  767MOL0     H 1186   3.807   3.634   0.378  0.3852  0.3470  0.9149
  767MOL0     H 1187   4.068   3.565   0.229 -0.6092 -1.9400  2.7402
  767MOL0     H 1188   3.911   3.583   0.159  1.2627 -0.1073 -0.9900
  767MOL0     H 1189   4.065   3.771   0.112  1.6559 -2.8313  1.8254
  767MOL0     H 1190   4.061   3.825   0.283  1.7151 -0.9692 -1.3987
  767MOL0     H 1191   3.795   3.843   0.254 -2.1906 -1.7869 -2.6347
  767MOL0     H 1192   3.818   3.820   0.082 -1.1330  1.6009 -0.0871
  767MOL0     H 1193   3.949   4.058   0.109  0.7507 -0.7311  0.9494
  767MOL0     H 1194   3.780   4.070   0.154  1.7658  2.9520 -0.6623
  767MOL0     H 1195   4.001   4.045   0.347 -0.4896 -0.7977  2.0046
  767MOL0     H 1196   3.839   4.006   0.386 -0.1070  0.8748 -0.3062
  767MOL0     H 1197   3.907   4.311   0.132  0.3033  0.6963  0.0249
  767MOL0     H 1198   3.847   4.570   0.160  2.1024 -3.7405  0.9401
  767MOL0     H 1199   3.782   4.619   0.325 -2.3614 -1.2825  0.8720
  767MOL0     H 1200   3.546   4.561   0.251 -0.2242 -0.2568  0.6659
  767MOL0     H 1201   3.608   4.504   0.095 -4.2510  2.9142 -2.3537
  767MOL0     H 1202   3.609   4.788   0.184 -0.5628  0.1742 -0.2292
  767MOL0     H 1203   3.671   4.735   0.025  2.8235  0.6286  2.5344
  767MOL0     H 1204   3.444   4.813  -0.011  0.5485 -1.4656 -0.0258
  767MOL0     H 1205   3.393   4.742   0.146  1.2641  0.8260  1.1100
  767MOL0     H 1206   3.239   4.420  -0.033  2.7892 -0.0935 -3.3401
  767MOL0     H 1207   3.003   4.437  -0.116 -1.8318  0.5322 -0.7991
  767MOL0     H 1208   2.643   4.732  -0.077 -0.0368 -2.5597 -0.2036
  767MOL0     H 1209   2.394   4.742  -0.109 -0.9558 -1.1742 -0.2704
  767MOL0     H 1210   2.224   4.616  -0.434  1.2807 -0.6543 -1.2650
  767MOL0     H 1211   2.250   4.759  -0.531  0.8161  0.4409  0.2452
  767MOL0     H 1212   2.037   4.863  -0.406 -3.6981 -0.2062 -3.5534
  767MOL0     H 1213   2.016   4.703  -0.344  0.0280 -1.6041 -0.7541
  767MOL0     H 1214   2.013   4.610  -0.580  0.9019  0.4145 -1.7837
  767MOL0     H 1215   2.026   4.771  -0.638  0.8182 -1.0219  0.2758
  767MOL0     H 1216   1.810   4.696  -0.439 -1.2909  0.4187 -1.0173
  767MOL0     H 1217   1.820   4.849  -0.514  1.5649  0.5833 -2.6320
  767MOL0     H 1218   1.800   4.594  -0.673  1.2411  1.3234 -1.2477
  767MOL0     H 1219   1.786   4.756  -0.752 -4.0548  0.1622 -2.3639
  767MOL0     H 1220   1.597   4.813  -0.653  0.3290  0.1243 -3.0141
  767MOL0     H 1221   1.569   4.656  -0.571 -1.1758  0.8731 -0.6081
  767MOL0     H 1222   1.591   4.717  -0.865  1.5916 -0.7594 -0.3734
  767MOL0     H 1223   1.559   4.550  -0.806 -1.4545 -0.1239  0.2048
  767MOL0     H 1224   1.400   4.778  -0.715  1.1636 -0.2138  1.4285
  767MOL0     H 1225   1.367   4.607  -0.687 -0.5478 -0.6971 -0.2274
  767MOL0     H 1226   2.460   4.845  -0.519  3.2387 -1.7025 -1.0162
  767MOL0     H 1227   2.689   4.816  -0.491  1.0453 -0.5481  0.1572
  767MOL0     H 1228   3.042   4.859  -0.179 -2.3319 -1.4235  0.8460
  767MOL0     H 1229   3.250   4.847  -0.062 -2.6707  0.4388 -0.4728
  767MOL0     H 1230   3.670   3.280   0.157  0.4361 -0.5084 -0.2820
  767MOL0     H 1231   3.514   3.116   0.048 -1.8908 -0.9009  0.5435
  767MOL0     H 1232   3.342   2.772  -0.056  1.1544 -1.6273  0.3038
  767MOL0     H 1233   3.178   2.628  -0.176 -0.0666  3.1463 -0.7571
  767MOL0     H 1234   2.889   2.406  -0.228  2.1089 -1.1722 -2.1528
  767MOL0     H 1235   3.053   2.453  -0.227  0.1835 -0.8341  2.3179
  767MOL0     H 1236   2.819   2.644  -0.254 -0.8029 -2.3032  0.3952
  767MOL0     H 1237   2.990   2.690  -0.290  0.5894 -1.2533 -1.0749
  767MOL0     H 1238   2.780   2.576  -0.455  1.0478  2.3463 -3.0936
  767MOL0     H 1239   2.938   2.480  -0.461  1.3368 -0.1135 -1.6240
  767MOL0     H 1240   2.923   2.652  -0.637  1.6551 -1.5106  0.1361
  767MOL0     H 1241   2.891   2.777  -0.519 -2.4174 -1.7265 -0.9871
  767MOL0     H 1242   3.316   2.748  -0.511 -0.5174  3.1640 -3.7845
  767MOL0     H 1243   2.949   2.575   0.176  0.7000 -1.6559 -0.5966
  767MOL0     H 1244   3.107   2.722   0.302  0.5218 -1.6803 -0.3234
  768MOL0     O 1245   7.119   1.188   3.690 -0.3728  0.7627  0.9306
  768MOL0     C 1246   7.126   1.310   3.669  0.3619 -0.8364  0.8903
  768MOL0     O 1247   7.043   1.413   3.718  1.0831  0.6062  0.1156
  768MOL0     C 1248   6.945   1.378   3.806 -1.1007 -0.6642 -0.6995
  768MOL0     C 1249   6.948   1.450   3.929  0.9816  0.0297 -0.4848
  768MOL0     C 1250   6.852   1.431   4.029 -0.2251 -1.1228  0.2613
  768MOL0     C 1251   6.747   1.345   4.012 -0.0182 -0.0376  0.2358
  768MOL0     O 1252   6.661   1.335   4.116 -0.1763 -0.0710 -0.7028
  768MOL0     C 1253   6.551   1.241   4.114 -0.8525  0.3881  0.1863
  768MOL0     C 1254   6.433   1.315   4.039  0.7460 -0.9893 -0.1974
  768MOL0     C 1255   6.306   1.272   4.106  0.0259  0.1492  0.8414
  768MOL0     C 1256   6.274   1.121   4.075  0.5049  0.5885 -0.5846
  768MOL0     C 1257   6.246   1.085   3.938  0.1837 -0.1724 -0.6857
  768MOL0     C 1258   6.189   0.949   3.930  0.1741 -0.5012 -0.6074
  768MOL0     C 1259   6.114   0.943   3.794 -0.2601  0.2444  0.0222
  768MOL0     C 1260   6.062   0.801   3.766 -0.7403 -0.3688  0.3422
  768MOL0     N 1261   5.980   0.742   3.867 -0.4188  0.0574  0.6530
  768MOL0     C 1262   6.006   0.642   3.962 -0.5625 -0.5890  0.7504
  768MOL0     C 1263   5.886   0.620   4.016 -0.2776  0.2471 -0.4885
  768MOL0     C 1264   5.862   0.506   4.113  0.1898  0.2577 -0.7253
  768MOL0     C 1265   5.712   0.489   4.142  0.0674 -0.4765  0.2583
  768MOL0     C 1266   5.658   0.599   4.236 -0.4592 -0.1124 -0.6672
  768MOL0     C 1267   5.608   0.538   4.371 -0.3695 -0.6566  0.0634
  768MOL0     O 1268   5.496   0.451   4.358  1.1807 -0.1586 -0.1189
  768MOL0     C 1269   5.368   0.489   4.383 -0.9014 -0.1815  0.0505
  768MOL0     C 1270   5.335   0.617   4.428 -0.7901  0.1871 -0.3734
  768MOL0     C 1271   5.201   0.657   4.436  0.8102 -0.8669 -0.5311
  768MOL0     C 1272   5.095   0.566   4.417 -0.5393 -0.3767 -0.2598
  768MOL0     C 1273   4.961   0.601   4.437  0.0348 -0.5495  0.0995
  768MOL0     O 1274   4.884   0.500   4.457  0.5021  0.2347  0.0398
  768MOL0     C 1275   4.751   0.524   4.473 -0.8727 -0.3887 -0.7094
  768MOL0     C 1276   4.707   0.481   4.599  0.2875  0.2393 -0.0356
  768MOL0     C 1277   4.568   0.498   4.625 -0.4807  0.3127  0.3657
  768MOL0     C 1278   4.479   0.553   4.530 -0.1914 -0.3390 -0.0285
  768MOL0     O 1279   4.348   0.577   4.564  0.1907  0.3734 -0.1438
  768MOL0     C 1280   4.258   0.669   4.501 -0.0208  0.2772  0.5588
  768MOL0     C 1281   4.175   0.607   4.385 -0.4044 -0.0144 -0.6234
  768MOL0     C 1282   4.102   0.477   4.424 -0.1719  1.3718 -0.4923
  768MOL0     C 1283   4.015   0.492   4.547  0.1432 -0.4193 -0.1823
  768MOL0     C 1284   3.893   0.394   4.527  0.0415 -0.4910  1.3711
  768MOL0     C 1285   3.821   0.355   4.655 -0.5295  0.3875  0.0823
  768MOL0     C 1286   3.701   0.264   4.633 -0.2367 -0.5270 -0.1314
  768MOL0     C 1287   3.624   0.233   4.762 -0.2779 -0.2057 -0.5124
  768MOL0    Cl 1288   3.543   0.373   4.840  0.0041 -0.3077  0.0717
  768MOL0     C 1289   4.532   0.592   4.405 -0.2729 -0.5260  0.2993
  768MOL0     C 1290   4.669   0.575   4.376  0.6058  0.5890 -0.6602
  768MOL0     O 1291   4.929   0.716   4.451  0.0742  0.2727 -0.0609
  768MOL0     C 1292   5.129   0.439   4.366  0.0329  0.3868  0.8005
  768MOL0     C 1293   5.259   0.407   4.349 -0.3770  0.5243  0.3628
  768MOL0     N 1294   5.788   0.696   3.948  0.5052  0.0981  0.2029
  768MOL0     N 1295   5.849   0.770   3.867  0.0910 -0.0024 -0.1307
  768MOL0     C 1296   6.746   1.260   3.901 -0.2338  0.6521  0.4906
  768MOL0     C 1297   6.848   1.280   3.801  0.9769  0.4980  0.8596
  768MOL0     C 1298   7.233   1.352   3.569  0.5178  0.5815 -0.3071
  768MOL0     C 1299   7.228   1.478   3.509  0.5173  0.6325 -0.5894
  768MOL0     C 1300   7.314   1.504   3.401  0.3817  0.0451  0.2672
  768MOL0     C 1301   7.413   1.415   3.370 -0.1016  0.3307  0.1079
  768MOL0     O 1302   7.494   1.459   3.271  0.2152  0.2271  0.1600
  768MOL0     C 1303   7.604   1.374   3.222 -0.3387  0.4998 -0.4435
  768MOL0     C 1304   7.567   1.279   3.115  0.1158  0.3194 -0.6948
  768MOL0     C 1305   7.698   1.224   3.055 -0.1305 -0.8967 -0.5522
  768MOL0     C 1306   7.683   1.146   2.926  0.4415 -0.1368 -0.4053
  768MOL0     C 1307   7.659   1.244   2.817 -0.2336  0.3148  0.2207
  768MOL0     C 1308   7.630   1.330   2.735  1.1851  0.3356  0.6438
  768MOL0     C 1309   7.429   1.286   3.433  0.9713  0.3664  0.1015
  768MOL0     C 1310   7.335   1.259   3.537 -0.0092 -0.7990 -0.1730
  768MOL0     H 1311   7.017   1.533   3.942 -0.2047  0.7279  1.9999
  768MOL0     H 1312   6.853   1.492   4.118  0.1981 -0.7079 -0.0177
  768MOL0     H 1313   6.525   1.225   4.219 -0.3174 -3.7361 -0.1520
  768MOL0     H 1314   6.571   1.142   4.074  0.1185 -0.4001  2.4838
  768MOL0     H 1315   6.446   1.292   3.933  1.8920  0.3378 -0.3560
  768MOL0     H 1316   6.435   1.423   4.053 -2.1311 -0.7649 -0.8113
  768MOL0     H 1317   6.228   1.334   4.061  3.2238  3.5184 -0.5833
  768MOL0     H 1318   6.305   1.296   4.213 -1.1962  0.9993  0.6710
  768MOL0     H 1319   6.359   1.061   4.110  0.1098  0.4252  0.0958
  768MOL0     H 1320   6.190   1.084   4.134 -0.5246  2.5914 -0.7100
  768MOL0     H 1321   6.338   1.093   3.878  0.5730 -2.2143 -0.4292
  768MOL0     H 1322   6.171   1.156   3.903 -0.2631 -1.5050 -2.5930
  768MOL0     H 1323   6.118   0.939   4.013  0.5056 -0.0404 -0.2560
  768MOL0     H 1324   6.268   0.875   3.941 -0.3705 -0.8917  0.9534
  768MOL0     H 1325   6.034   1.018   3.796  0.4795  1.1030 -1.2924
  768MOL0     H 1326   6.186   0.963   3.714  0.3925 -0.3598  0.4484
  768MOL0     H 1327   6.142   0.731   3.740  0.1295  1.0347 -0.9213
  768MOL0     H 1328   6.000   0.821   3.678 -0.8004 -0.1642  0.4308
  768MOL0     H 1329   6.102   0.607   3.996  0.7466 -0.2920 -2.2979
  768MOL0     H 1330   5.916   0.515   4.208 -1.9265  0.9413  0.4858
  768MOL0     H 1331   5.900   0.411   4.075 -0.0913  0.4095 -1.3929
  768MOL0     H 1332   5.705   0.389   4.188  0.1158 -1.2763 -1.3966
  768MOL0     H 1333   5.647   0.498   4.054  0.5914  3.4061  0.0980
  768MOL0     H 1334   5.744   0.667   4.245  2.5406 -3.7015  0.5246
  768MOL0     H 1335   5.573   0.649   4.189 -0.2372  3.0277  1.9151
  768MOL0     H 1336   5.601   0.609   4.454  0.1854 -0.2235 -0.2553
  768MOL0     H 1337   5.694   0.475   4.396 -0.4063 -1.5894 -1.9482
  768MOL0     H 1338   5.407   0.695   4.449 -0.2623 -0.4800  0.3884
  768MOL0     H 1339   5.171   0.758   4.462 -0.5857 -1.4268  0.1186
  768MOL0     H 1340   4.781   0.454   4.673  0.6283  2.5910  0.5788
  768MOL0     H 1341   4.535   0.464   4.723  0.2891  0.0520  0.5388
  768MOL0     H 1342   4.321   0.746   4.456 -0.6649  0.5206  0.0578
  768MOL0     H 1343   4.179   0.706   4.567 -1.0521 -1.9324  0.6676
  768MOL0     H 1344   4.252   0.589   4.308  2.6960  0.3149  2.1743
  768MOL0     H 1345   4.104   0.680   4.347 -0.7006  0.7823  1.3518
  768MOL0     H 1346   4.176   0.397   4.438  0.2666  1.8301 -0.1197
  768MOL0     H 1347   4.035   0.452   4.341  0.8932 -0.6683 -0.8189
  768MOL0     H 1348   4.068   0.470   4.641  0.9855 -0.1292 -0.5804
  768MOL0     H 1349   3.971   0.592   4.548  3.2909  1.1357 -1.7719
  768MOL0     H 1350   3.932   0.306   4.475  1.2823  2.2347 -2.8920
  768MOL0     H 1351   3.819   0.438   4.459 -0.0067 -4.4217 -1.5050
  768MOL0     H 1352   3.781   0.442   4.708 -3.0456 -0.0095 -1.0211
  768MOL0     H 1353   3.890   0.307   4.725 -3.8884 -1.2619  2.5664
  768MOL0     H 1354   3.635   0.310   4.559  1.6134  2.0813 -0.3038
  768MOL0     H 1355   3.733   0.162   4.612 -2.2704 -1.5009  1.2242
  768MOL0     H 1356   3.697   0.190   4.831  1.1754  2.8445  0.0295
  768MOL0     H 1357   3.539   0.169   4.734  1.2465 -1.5881 -2.2055
  768MOL0     H 1358   4.464   0.614   4.324  0.3036 -4.5643 -1.5518
  768MOL0     H 1359   4.695   0.593   4.272 -3.9343 -1.4371 -2.4405
  768MOL0     H 1360   5.051   0.364   4.365 -0.4033  0.7259  2.9905
  768MOL0     H 1361   5.289   0.311   4.308  0.1648  1.3199 -1.1993
  768MOL0     H 1362   6.659   1.196   3.887  0.2430  0.0755  0.1317
  768MOL0     H 1363   6.839   1.221   3.710  0.2742  0.9711  0.6127
  768MOL0     H 1364   7.168   1.555   3.556  0.0168  0.0337 -0.2267
  768MOL0     H 1365   7.306   1.596   3.344  1.7103  1.8605  2.8238
  768MOL0     H 1366   7.656   1.325   3.305  0.2088  2.6610  0.5757
  768MOL0     H 1367   7.674   1.450   3.186 -3.6247  4.8904  1.4827
  768MOL0     H 1368   7.510   1.197   3.159 -0.4294  2.6984  3.5820
  768MOL0     H 1369   7.514   1.335   3.037  1.0062 -0.3259 -1.7956
  768MOL0     H 1370   7.751   1.167   3.132  0.2154 -1.3576 -1.1208
  768MOL0     H 1371   7.768   1.307   3.037 -0.5162 -0.7260 -1.2994
  768MOL0     H 1372   7.776   1.088   2.914  1.6874  0.6837  3.7319
  768MOL0     H 1373   7.596   1.080   2.931 -0.7517  1.0988 -2.9062
  768MOL0     H 1374   7.601   1.414   2.674 -3.9729 -0.5825  1.3362
  768MOL0     H 1375   7.499   1.205   3.415  1.0077 -0.0325  1.8529
  768MOL0     H 1376   7.356   1.176   3.604  3.6200  1.2095  1.4481
  769MOL0     O 1377   3.427   8.424   8.347  0.0987  0.3799  0.0951
  769MOL0     C 1378   3.462   8.404   8.462  0.7517  0.0776  0.1322
  769MOL0     O 1379   3.404   8.456   8.575  0.7316 -0.0600  0.3585
  769MOL0     C 1380   3.277   8.518   8.571  0.9429  0.1306  0.0872
  769MOL0     C 1381   3.247   8.626   8.658  0.5630 -0.3967  0.1260
  769MOL0     C 1382   3.117   8.678   8.672  0.0980 -0.4655 -0.5196
  769MOL0     C 1383   3.014   8.639   8.587  0.0658  0.2627  0.0582
  769MOL0     O 1384   2.885   8.689   8.600  0.1994 -0.6150 -0.4967
  769MOL0     C 1385   2.776   8.641   8.518  0.5634 -0.2334  0.0619
  769MOL0     C 1386   2.660   8.717   8.587 -0.4937  0.8456 -0.2080
  769MOL0     C 1387   2.527   8.648   8.572 -0.0699 -0.0755  1.3098
  769MOL0     C 1388   2.462   8.665   8.439  0.0695  0.5535 -0.3601
  769MOL0     C 1389   2.312   8.677   8.439 -0.4441  0.6180  0.2433
  769MOL0     C 1390   2.238   8.569   8.526 -0.0787 -0.0847  0.3934
  769MOL0     C 1391   2.088   8.591   8.512  1.3801 -0.6028 -0.0292
  769MOL0     C 1392   2.014   8.551   8.644 -0.1609 -0.1784 -0.5269
  769MOL0     N 1393   2.033   8.653   8.748  0.9987 -0.5304  0.2538
  769MOL0     C 1394   2.123   8.651   8.850  0.1600 -0.2170 -0.2181
  769MOL0     C 1395   2.134   8.779   8.893  0.1910  0.7089 -0.0129
  769MOL0     C 1396   2.224   8.817   9.005 -0.2160 -0.1139  0.1695
  769MOL0     C 1397   2.373   8.828   8.958  0.2210 -0.2168  1.4161
  769MOL0     C 1398   2.457   8.821   9.087  0.4367  0.8114  0.5872
  769MOL0     C 1399   2.603   8.797   9.043  0.1056 -0.6010 -1.3736
  769MOL0     O 1400   2.695   8.824   9.146 -0.0892  0.2964  0.5964
  769MOL0     C 1401   2.811   8.748   9.143  0.2154  0.0040 -1.3492
  769MOL0     C 1402   2.905   8.762   9.049  0.0722  0.4086 -0.7473
  769MOL0     C 1403   3.031   8.697   9.052  0.0272 -0.8422  0.0150
  769MOL0     C 1404   3.064   8.633   9.166  0.1856  0.5364  1.0045
  769MOL0     C 1405   3.189   8.567   9.170 -0.3579 -0.5769  0.2726
  769MOL0     O 1406   3.250   8.541   9.047 -0.0092  0.5458 -0.3069
  769MOL0     C 1407   3.380   8.492   9.057  0.1085 -0.5133 -0.3684
  769MOL0     C 1408   3.407   8.361   9.095  0.0247  0.6366  0.0764
  769MOL0     C 1409   3.533   8.304   9.070  0.0957 -0.0090  0.0526
  769MOL0     C 1410   3.635   8.383   9.005  0.1599 -0.2447  1.2759
  769MOL0     O 1411   3.758   8.329   8.963 -0.5435  0.0346  0.1484
  769MOL0     C 1412   3.821   8.253   9.062  0.0371 -0.0718 -0.5612
  769MOL0     C 1413   3.975   8.284   9.074 -0.3423 -0.3048  0.0804
  769MOL0     C 1414   4.051   8.201   8.973  0.0179  0.1587 -0.2093
  769MOL0     C 1415   4.200   8.216   8.997 -0.3162 -0.7444  0.8105
  769MOL0     C 1416   4.271   8.138   8.893 -0.9105  0.4298  0.0561
  769MOL0     C 1417   4.421   8.176   8.886  0.4654 -0.4219  0.4292
  769MOL0     C 1418   4.498   8.086   8.790  0.0590 -0.0688  0.0090
  769MOL0     C 1419   4.637   8.079   8.831 -0.3736  0.2482  0.8255
  769MOL0    Cl 1420   4.716   8.238   8.864  0.7179 -0.1321 -0.2909
  769MOL0     C 1421   3.614   8.514   8.974  0.3349  0.1948  0.2288
  769MOL0     C 1422   3.478   8.564   8.996 -0.4825  0.3675  0.0206
  769MOL0     O 1423   3.222   8.520   9.276 -0.3056  0.1496  0.1030
  769MOL0     C 1424   2.976   8.624   9.280  0.6137  0.5903  0.0470
  769MOL0     C 1425   2.848   8.683   9.269 -0.6708 -0.2228  0.1840
  769MOL0     N 1426   2.033   8.852   8.824 -0.1584 -0.8264 -0.7366
  769MOL0     N 1427   1.966   8.777   8.746  0.2381  0.4062  0.2961
  769MOL0     C 1428   3.039   8.534   8.494 -1.5247 -0.4514  0.5652
  769MOL0     C 1429   3.172   8.472   8.486  0.4842 -0.0502  1.2769
  769MOL0     C 1430   3.587   8.316   8.475 -0.1898 -0.7216  0.4386
  769MOL0     C 1431   3.640   8.298   8.603  0.0141  0.3738 -0.4502
  769MOL0     C 1432   3.723   8.188   8.634 -0.1793  0.4271  0.0572
  769MOL0     C 1433   3.785   8.119   8.529  0.3986  0.0167 -0.4946
  769MOL0     O 1434   3.855   7.999   8.546  0.3384  0.4300 -0.4375
  769MOL0     C 1435   3.903   7.955   8.677 -0.1068 -0.2712  0.8735
  769MOL0     C 1436   3.989   7.824   8.659  0.2122  0.4909  0.7955
  769MOL0     C 1437   4.116   7.851   8.578  0.1823 -0.0872 -0.4744
  769MOL0     C 1438   4.185   7.718   8.541 -0.8007  0.2891 -0.1026
  769MOL0     C 1439   4.247   7.654   8.659 -0.6809 -0.5298  0.1646
  769MOL0     C 1440   4.293   7.623   8.760 -0.0874  0.2517 -0.4264
  769MOL0     C 1441   3.752   8.156   8.396  0.0712 -0.6846 -1.4164
  769MOL0     C 1442   3.650   8.248   8.367  0.1973  0.7273 -0.4749
  769MOL0     H 1443   3.310   8.688   8.720 -1.5864  2.8097 -0.6664
  769MOL0     H 1444   3.101   8.771   8.727  3.0408 -0.5065  0.6059
  769MOL0     H 1445   2.757   8.534   8.530  1.0345 -0.5793 -1.8726
  769MOL0     H 1446   2.782   8.682   8.417  0.5988  1.0512  0.5754
  769MOL0     H 1447   2.664   8.819   8.549  2.1022  0.5907 -0.8085
  769MOL0     H 1448   2.680   8.716   8.695  1.2922 -0.2823 -0.5041
  769MOL0     H 1449   2.460   8.679   8.652  1.0569 -0.7805  2.5768
  769MOL0     H 1450   2.547   8.544   8.596  0.3913 -0.2288  0.3326
  769MOL0     H 1451   2.485   8.758   8.386  0.8156  2.1410  2.5684
  769MOL0     H 1452   2.493   8.579   8.379 -1.4461  0.5460 -1.2083
  769MOL0     H 1453   2.285   8.666   8.334  3.7646 -0.7293 -0.9212
  769MOL0     H 1454   2.281   8.776   8.474  1.7848  0.8853  1.6700
  769MOL0     H 1455   2.269   8.581   8.630  1.4066  0.8622 -0.1119
  769MOL0     H 1456   2.259   8.468   8.490 -4.0672 -0.9477  0.0086
  769MOL0     H 1457   2.066   8.694   8.482  0.4834 -0.3933  1.2426
  769MOL0     H 1458   2.054   8.523   8.433 -0.6357 -0.4315  0.6167
  769MOL0     H 1459   2.055   8.457   8.683 -1.5181  0.0891  1.7212
  769MOL0     H 1460   1.905   8.541   8.634 -1.2688  6.6544  0.0095
  769MOL0     H 1461   2.187   8.571   8.885 -1.1371 -1.8427 -1.4131
  769MOL0     H 1462   2.221   8.724   9.064  0.5902 -1.2555 -1.5078
  769MOL0     H 1463   2.191   8.905   9.060 -1.5480 -0.3048 -0.2974
  769MOL0     H 1464   2.386   8.924   8.907  0.4655 -1.0511 -0.1664
  769MOL0     H 1465   2.405   8.752   8.886  1.5208  1.5343  0.0379
  769MOL0     H 1466   2.455   8.919   9.137 -0.3915  0.2868  1.6198
  769MOL0     H 1467   2.415   8.745   9.153 -1.1077  0.6361 -0.5477
  769MOL0     H 1468   2.621   8.868   8.961 -1.2210  1.1756 -0.1921
  769MOL0     H 1469   2.620   8.696   9.005  0.1113 -0.7805 -0.8920
  769MOL0     H 1470   2.887   8.820   8.958 -0.4956  0.2238 -0.7593
  769MOL0     H 1471   3.102   8.709   8.970 -1.2650  1.5641 -0.8356
  769MOL0     H 1472   3.325   8.302   9.135  0.4938  0.3384  0.6002
  769MOL0     H 1473   3.551   8.204   9.108 -1.3083 -0.0467  0.6797
  769MOL0     H 1474   3.795   8.148   9.047 -1.2375  0.0891  0.3699
  769MOL0     H 1475   3.779   8.278   9.160  0.5308  5.2634 -1.3966
  769MOL0     H 1476   3.996   8.252   9.176 -1.3040  1.9563  1.0390
  769MOL0     H 1477   3.995   8.391   9.074 -1.2795 -0.1220 -0.0032
  769MOL0     H 1478   4.016   8.243   8.879 -1.4938  0.9467  0.6700
  769MOL0     H 1479   4.020   8.097   8.988 -1.2017  0.7608  1.9821
  769MOL0     H 1480   4.226   8.322   8.991 -1.3248 -0.2982  3.3204
  769MOL0     H 1481   4.228   8.180   9.096  1.3608 -1.0243  0.2723
  769MOL0     H 1482   4.222   8.135   8.795  2.1750 -2.4974 -1.5929
  769MOL0     H 1483   4.274   8.032   8.920  1.0170  0.1694 -1.0100
  769MOL0     H 1484   4.466   8.167   8.985  2.4451 -0.4509 -0.4219
  769MOL0     H 1485   4.442   8.280   8.858  1.0120 -0.2050  1.5803
  769MOL0     H 1486   4.473   7.980   8.785 -2.0562  0.3012  1.4170
  769MOL0     H 1487   4.485   8.114   8.685 -0.6786 -1.3047 -0.2503
  769MOL0     H 1488   4.704   8.036   8.757 -1.1683  2.7950 -1.5663
  769MOL0     H 1489   4.644   8.014   8.919 -0.6919 -0.5861  0.2518
  769MOL0     H 1490   3.690   8.567   8.918  0.9991 -3.1928 -2.4031
  769MOL0     H 1491   3.445   8.666   8.978 -0.6255  0.3694  0.2854
  769MOL0     H 1492   3.006   8.567   9.367  0.5701 -0.5789 -0.6807
  769MOL0     H 1493   2.792   8.673   9.362 -0.5115 -1.3386  0.1779
  769MOL0     H 1494   2.959   8.506   8.426  1.6786 -0.4951 -3.5700
  769MOL0     H 1495   3.179   8.413   8.395 -0.0551  2.2229 -0.3504
  769MOL0     H 1496   3.602   8.344   8.693  2.0976 -3.1727  2.5545
  769MOL0     H 1497   3.735   8.161   8.739  0.1154 -2.2496 -0.5968
  769MOL0     H 1498   3.817   7.924   8.737  1.9978 -2.0928  3.1435
  769MOL0     H 1499   3.950   8.037   8.732  0.2892  1.9684 -2.5270
  769MOL0     H 1500   4.021   7.786   8.757 -3.4869 -0.7221  1.6900
  769MOL0     H 1501   3.941   7.744   8.603  0.8996  1.0986 -0.7104
  769MOL0     H 1502   4.185   7.914   8.636 -1.3177  0.0265  1.2803
  769MOL0     H 1503   4.090   7.895   8.481 -0.2488 -1.5034 -1.0171
  769MOL0     H 1504   4.108   7.646   8.511 -0.8712  0.2031  0.2772
  769MOL0     H 1505   4.269   7.729   8.472 -0.1984  0.1391  0.5846
  769MOL0     H 1506   4.329   7.590   8.856 -0.8266  1.2477  0.1999
  769MOL0     H 1507   3.793   8.089   8.320  0.7933 -0.8836 -0.8512
  769MOL0     H 1508   3.603   8.264   8.270  0.5686  0.9588 -0.6187
  770MOL0     O 1509   4.538  10.772   5.020 -0.1438 -0.4018 -0.2849
  770MOL0     C 1510   4.480  10.836   5.107 -0.5403  0.4542 -0.2024
  770MOL0     O 1511   4.516  10.952   5.165  0.3324 -0.4341  0.1900
  770MOL0     C 1512   4.636  10.994   5.136  1.1536 -0.2980  0.0583
  770MOL0     C 1513   4.651  11.118   5.068 -0.0064 -1.0621 -0.2536
  770MOL0     C 1514   4.785  11.175   5.061 -0.0073 -0.2067  0.4032
  770MOL0     C 1515   4.892  11.102   5.111  0.7677  0.4916  0.6468
  770MOL0     O 1516   5.021  11.133   5.077 -0.0405  0.6291 -0.1872
  770MOL0     C 1517   5.112  11.166   5.181  0.9389 -0.3238 -1.2197
  770MOL0     C 1518   5.248  11.137   5.124  0.8068 -0.6634  0.3296
  770MOL0     C 1519   5.289  11.254   5.027  0.0018  0.7980  0.4554
  770MOL0     C 1520   5.423  11.226   4.966 -0.4720  0.4716 -0.1197
  770MOL0     C 1521   5.472  11.338   4.880  0.2805  0.5252  0.0312
  770MOL0     C 1522   5.402  11.350   4.743  0.7023  0.3696  0.3373
  770MOL0     C 1523   5.454  11.470   4.667  0.5121  0.0336  0.1050
  770MOL0     C 1524   5.440  11.442   4.516  0.6191  0.4089 -0.0521
  770MOL0     N 1525   5.308  11.389   4.460 -0.1374 -0.3368 -0.6294
  770MOL0     C 1526   5.290  11.323   4.348 -0.5224 -0.4681  0.4491
  770MOL0     C 1527   5.167  11.279   4.359  1.1002 -0.0362  0.7330
  770MOL0     C 1528   5.100  11.195   4.254 -0.6977 -0.0001 -0.1234
  770MOL0     C 1529   5.090  11.282   4.126  0.8698  0.0386  0.5290
  770MOL0     C 1530   4.985  11.227   4.026 -0.9038 -0.3398  0.3107
  770MOL0     C 1531   4.840  11.219   4.070 -0.1306 -0.2115 -0.5291
  770MOL0     O 1532   4.769  11.178   3.954 -0.5113  0.4455  0.2557
  770MOL0     C 1533   4.635  11.172   3.944 -0.2708 -0.0602 -0.4936
  770MOL0     C 1534   4.580  11.076   3.862 -0.4649  0.5780  0.3352
  770MOL0     C 1535   4.446  11.048   3.857  0.1253  1.3397  0.0131
  770MOL0     C 1536   4.358  11.124   3.936 -0.0020 -0.3482 -0.2361
  770MOL0     C 1537   4.207  11.105   3.931 -0.4590 -0.5319 -0.1659
  770MOL0     O 1538   4.126  11.208   3.951 -0.3051 -0.0099 -0.0501
  770MOL0     C 1539   3.990  11.182   3.950 -0.4464  0.3457 -0.4659
  770MOL0     C 1540   3.925  11.098   3.852 -0.9111 -0.5753  0.1627
  770MOL0     C 1541   3.792  11.063   3.861  0.4201  0.4938  0.2093
  770MOL0     C 1542   3.711  11.107   3.966 -0.1267 -0.6220  0.8581
  770MOL0     O 1543   3.582  11.070   3.994 -0.3344 -0.2334  0.0924
  770MOL0     C 1544   3.544  10.948   3.934 -0.3258 -0.2082 -0.0134
  770MOL0     C 1545   3.402  10.912   3.983  0.5744  0.5465 -0.0200
  770MOL0     C 1546   3.406  10.902   4.140 -0.0146 -0.6453  0.2918
  770MOL0     C 1547   3.278  10.840   4.198 -0.2450  0.9094 -0.1621
  770MOL0     C 1548   3.281  10.839   4.349  0.5812  0.5910 -0.4270
  770MOL0     C 1549   3.393  10.755   4.403  0.1581 -0.6695 -0.6479
  770MOL0     C 1550   3.342  10.686   4.535  0.2721 -0.3275  0.0241
  770MOL0     C 1551   3.447  10.589   4.602  0.3441 -0.5240 -0.2835
  770MOL0    Cl 1552   3.472  10.445   4.499  0.3712  0.3965 -0.3041
  770MOL0     C 1553   3.777  11.178   4.073 -0.6313 -0.1658  0.3588
  770MOL0     C 1554   3.913  11.215   4.062 -1.1025  0.0254 -0.4216
  770MOL0     O 1555   4.177  10.989   3.902 -0.1343 -0.7960 -0.5163
  770MOL0     C 1556   4.414  11.232   4.016 -0.0487 -0.0778 -0.6278
  770MOL0     C 1557   4.551  11.256   4.017 -0.0514 -0.9564 -0.3563
  770MOL0     N 1558   5.116  11.296   4.486  0.6850  0.0947 -0.4034
  770MOL0     N 1559   5.200  11.384   4.541  0.2961  0.0388 -0.1446
  770MOL0     C 1560   4.875  10.984   5.185 -0.8647 -0.2741 -0.1803
  770MOL0     C 1561   4.746  10.926   5.186 -0.5823 -0.4424 -0.1990
  770MOL0     C 1562   4.364  10.761   5.151  0.8982  0.6106  0.3651
  770MOL0     C 1563   4.318  10.639   5.088 -0.0935  0.1403 -0.0835
  770MOL0     C 1564   4.195  10.587   5.128  0.2358  0.4518 -0.8886
  770MOL0     C 1565   4.117  10.634   5.232 -0.2403 -0.6115  0.0217
  770MOL0     O 1566   3.999  10.579   5.260  0.0627 -1.1898  0.4328
  770MOL0     C 1567   3.938  10.599   5.392 -1.4948  0.0033  0.4740
  770MOL0     C 1568   3.839  10.487   5.405 -0.4291  0.2146 -0.1716
  770MOL0     C 1569   3.794  10.491   5.556  0.0200 -0.2477 -0.1597
  770MOL0     C 1570   3.674  10.396   5.562 -0.7736 -0.3920 -0.8588
  770MOL0     C 1571   3.550  10.470   5.553  0.2019 -0.2806  0.3562
  770MOL0     C 1572   3.438  10.529   5.583 -0.5184 -0.0950  0.7630
  770MOL0     C 1573   4.167  10.752   5.298  0.3517 -0.2730  0.3603
  770MOL0     C 1574   4.288  10.812   5.258 -0.4027 -0.5148  0.1877
  770MOL0     H 1575   4.576  11.169   5.008 -0.4692 -2.4143 -0.8661
  770MOL0     H 1576   4.789  11.253   4.985  0.4810 -2.8430 -2.4852
  770MOL0     H 1577   5.105  11.119   5.279  1.9238 -0.6803 -1.3093
  770MOL0     H 1578   5.109  11.276   5.182 -0.7197 -0.3353  0.3350
  770MOL0     H 1579   5.234  11.041   5.073 -3.1917 -0.5958  0.9947
  770MOL0     H 1580   5.322  11.118   5.203  0.1048 -1.8615  0.7149
  770MOL0     H 1581   5.295  11.350   5.079 -1.3377  0.0976  2.0131
  770MOL0     H 1582   5.222  11.279   4.945  2.1676  1.7500 -1.1241
  770MOL0     H 1583   5.495  11.208   5.046  1.0169 -0.8371 -1.6636
  770MOL0     H 1584   5.427  11.135   4.906  0.6650  0.2493  0.2752
  770MOL0     H 1585   5.577  11.326   4.851  0.5055  0.6123  0.7756
  770MOL0     H 1586   5.459  11.430   4.938  0.7673  1.2183 -0.9335
  770MOL0     H 1587   5.293  11.350   4.753  0.6362  0.4126 -0.3483
  770MOL0     H 1588   5.421  11.252   4.699 -2.7019 -0.5145  0.5601
  770MOL0     H 1589   5.396  11.560   4.687 -0.3016 -0.3467 -0.4757
  770MOL0     H 1590   5.558  11.493   4.691  1.9396 -3.1981 -2.2117
  770MOL0     H 1591   5.515  11.369   4.483 -0.1950 -0.4407 -0.0499
  770MOL0     H 1592   5.460  11.535   4.461  0.9700  2.5953  3.4819
  770MOL0     H 1593   5.346  11.295   4.259 -1.4158 -1.3655  0.1578
  770MOL0     H 1594   5.009  11.142   4.284  0.7773 -2.7265 -0.1840
  770MOL0     H 1595   5.168  11.116   4.223  0.8760  0.7151  1.3428
  770MOL0     H 1596   5.187  11.286   4.076  0.4548 -0.5062 -0.3286
  770MOL0     H 1597   5.052  11.383   4.149 -0.2500  0.0383 -1.1333
  770MOL0     H 1598   4.998  11.270   3.926 -0.8890 -0.1678  0.3866
  770MOL0     H 1599   5.008  11.122   4.004 -1.2626  0.4034 -5.0306
  770MOL0     H 1600   4.816  11.324   4.094 -3.2678 -0.9561  0.0253
  770MOL0     H 1601   4.823  11.147   4.150  1.5163  0.2880  0.3207
  770MOL0     H 1602   4.649  11.015   3.806 -0.3025  0.8657  0.2230
  770MOL0     H 1603   4.411  10.963   3.800 -1.6048  1.6375  0.5727
  770MOL0     H 1604   3.983  11.068   3.765 -0.3004  2.3103 -0.5169
  770MOL0     H 1605   3.747  11.010   3.778  1.4070 -0.2927  0.1729
  770MOL0     H 1606   3.613  10.864   3.948 -0.8999 -0.8451 -0.9383
  770MOL0     H 1607   3.532  10.955   3.826 -3.4684 -3.0430 -0.0027
  770MOL0     H 1608   3.379  10.814   3.941 -0.6265  2.1493 -3.5061
  770MOL0     H 1609   3.331  10.987   3.947 -0.1601  0.2751  0.8463
  770MOL0     H 1610   3.417  11.005   4.173  1.0213 -0.1068 -1.6235
  770MOL0     H 1611   3.490  10.835   4.160  0.4633 -0.5447 -1.2379
  770MOL0     H 1612   3.201  10.904   4.154  1.1139  2.4841 -0.3306
  770MOL0     H 1613   3.253  10.742   4.156 -3.1211  2.5640 -2.7476
  770MOL0     H 1614   3.188  10.796   4.387  1.7553 -0.3488  1.5705
  770MOL0     H 1615   3.292  10.940   4.388  0.8044  0.2532  0.4214
  770MOL0     H 1616   3.484  10.810   4.432 -0.1916 -0.1658 -0.4952
  770MOL0     H 1617   3.422  10.671   4.339  2.5019  0.4622 -1.1817
  770MOL0     H 1618   3.321  10.766   4.607  1.6565  1.1374 -1.1108
  770MOL0     H 1619   3.255  10.625   4.511  0.7132  0.3522 -3.9517
  770MOL0     H 1620   3.412  10.557   4.700 -0.4363 -1.3146 -0.8101
  770MOL0     H 1621   3.545  10.639   4.603  0.1358  0.0851 -2.6556
  770MOL0     H 1622   3.723  11.206   4.163 -1.8633 -1.5471  0.0819
  770MOL0     H 1623   3.956  11.280   4.137 -1.2011  1.4749 -1.5732
  770MOL0     H 1624   4.343  11.303   4.057  0.0882  0.2609 -0.9779
  770MOL0     H 1625   4.584  11.331   4.089  1.8956  0.8255 -2.8997
  770MOL0     H 1626   4.960  10.928   5.223 -0.3327  0.9270  0.4400
  770MOL0     H 1627   4.719  10.826   5.220 -1.3967 -0.6806 -1.4809
  770MOL0     H 1628   4.372  10.593   5.006  2.8464  3.1863 -0.0610
  770MOL0     H 1629   4.166  10.493   5.084 -1.3608  0.4507  0.0934
  770MOL0     H 1630   3.896  10.700   5.401  1.6086  1.4638 -0.0628
  770MOL0     H 1631   4.009  10.582   5.473 -0.1675 -0.6642 -0.7733
  770MOL0     H 1632   3.756  10.514   5.338 -3.5572 -1.7350  2.5858
  770MOL0     H 1633   3.890  10.394   5.379  1.2288  0.7543  1.0347
  770MOL0     H 1634   3.783  10.591   5.599  2.8204  1.5597 -3.1505
  770MOL0     H 1635   3.882  10.454   5.610  2.5574  1.9656 -2.4380
  770MOL0     H 1636   3.682  10.318   5.485  1.0282 -1.6151  0.4864
  770MOL0     H 1637   3.676  10.341   5.657  1.6114  2.9286  1.1997
  770MOL0     H 1638   3.351  10.566   5.632  0.0237 -0.4311  2.0377
  770MOL0     H 1639   4.103  10.798   5.372 -1.9128  0.3873 -1.8835
  770MOL0     H 1640   4.337  10.893   5.311  3.5834 -2.2032 -0.5159
  771MOL0     O 1641   2.344   7.273  10.861 -0.1981  0.9411  0.0399
  771MOL0     C 1642   2.364   7.354  10.946  0.5302 -0.7948 -0.2336
  771MOL0     O 1643   2.277   7.387  11.039 -1.0643 -0.7650  0.2307
  771MOL0     C 1644   2.164   7.312  11.065  0.2529 -0.4989  0.1222
  771MOL0     C 1645   2.072   7.383  11.148 -0.0641  0.4007  0.1053
  771MOL0     C 1646   1.945   7.337  11.197  0.2080 -0.7941  0.2495
  771MOL0     C 1647   1.916   7.208  11.156  0.3759  0.0808  0.1208
  771MOL0     O 1648   1.797   7.144  11.189  0.3490 -0.0597  0.0910
  771MOL0     C 1649   1.758   7.155  11.327  0.4731 -0.9625  0.4112
  771MOL0     C 1650   1.676   7.031  11.365  0.4278  0.0567  0.0092
  771MOL0     C 1651   1.734   6.895  11.311 -0.2198  0.4150  0.1640
  771MOL0     C 1652   1.646   6.789  11.373  1.0868 -0.2154 -1.0334
  771MOL0     C 1653   1.696   6.657  11.329  0.6400  0.4732 -0.5098
  771MOL0     C 1654   1.630   6.542  11.406  0.6600 -1.0905 -1.2405
  771MOL0     C 1655   1.476   6.564  11.417  0.9571 -0.1747 -0.5894
  771MOL0     C 1656   1.425   6.444  11.499  0.0458  0.0924 -0.8518
  771MOL0     N 1657   1.288   6.476  11.534 -0.2473 -0.4045  0.4790
  771MOL0     C 1658   1.236   6.537  11.642 -0.2149  0.3492  0.8117
  771MOL0     C 1659   1.100   6.544  11.616 -1.3859  0.3631 -0.3858
  771MOL0     C 1660   0.997   6.618  11.693  0.3363  0.5080  0.5821
  771MOL0     C 1661   0.885   6.527  11.748  0.5363 -0.1709 -0.5796
  771MOL0     C 1662   0.758   6.615  11.776 -0.3897 -1.1891  0.0991
  771MOL0     C 1663   0.635   6.523  11.808 -0.7838  0.8912  0.2742
  771MOL0     O 1664   0.520   6.610  11.812  0.5185  0.0655 -0.0048
  771MOL0     C 1665   0.395   6.565  11.816 -0.0732  0.0899 -0.8823
  771MOL0     C 1666   0.353   6.439  11.848 -0.1512  0.5284  0.5280
  771MOL0     C 1667   0.219   6.416  11.883  0.5473  0.0640  0.4531
  771MOL0     C 1668   0.124   6.524  11.870  1.5529 -0.5440 -0.6077
  771MOL0     C 1669  -0.022   6.508  11.883 -0.7418 -0.0463 -0.5613
  771MOL0     O 1670  -0.093   6.620  11.867  0.1853 -0.1557 -0.2207
  771MOL0     C 1671  -0.225   6.630  11.906 -0.7403  0.5546  0.4654
  771MOL0     C 1672  -0.280   6.750  11.953 -0.6280 -0.5080 -0.4465
  771MOL0     C 1673  -0.415   6.764  11.968 -0.0175  0.9073  0.1592
  771MOL0     C 1674  -0.500   6.658  11.948  0.2543 -0.1422  0.4083
  771MOL0     O 1675  -0.635   6.680  11.944  0.3334 -0.0350  0.2541
  771MOL0     C 1676  -0.709   6.598  12.031  0.9606  0.3015  0.2836
  771MOL0     C 1677  -0.841   6.645  12.064 -0.6429 -1.1781  0.1678
  771MOL0     C 1678  -0.947   6.599  11.967 -0.2340 -0.3162  0.5434
  771MOL0     C 1679  -1.086   6.658  11.997 -0.1237 -0.2571 -0.1098
  771MOL0     C 1680  -1.205   6.590  11.940 -0.3167 -0.2306 -0.3182
  771MOL0     C 1681  -1.248   6.481  12.044  0.6504  0.0890 -0.4749
  771MOL0     C 1682  -1.299   6.355  11.969 -0.4656 -0.4712  0.2366
  771MOL0     C 1683  -1.447   6.365  11.928 -0.3019 -0.0673 -0.4196
  771MOL0    Cl 1684  -1.457   6.507  11.810  0.1148  0.6345  0.3766
  771MOL0     C 1685  -0.451   6.546  11.893  1.2626 -0.9472 -0.3085
  771MOL0     C 1686  -0.314   6.529  11.874 -0.0838  0.7876 -0.1703
  771MOL0     O 1687  -0.064   6.399  11.925  0.2922 -0.1857 -0.3865
  771MOL0     C 1688   0.172   6.645  11.837 -0.1655 -0.4484  0.2708
  771MOL0     C 1689   0.311   6.666  11.820  0.9221  0.3898 -0.3888
  771MOL0     N 1690   1.074   6.438  11.517  0.4611 -0.8733  0.0574
  771MOL0     N 1691   1.188   6.404  11.471  0.2438 -0.3546 -0.2401
  771MOL0     C 1692   2.000   7.139  11.067  0.9985 -0.0608 -0.0095
  771MOL0     C 1693   2.117   7.189  11.023  0.1540  0.7834 -0.2695
  771MOL0     C 1694   2.499   7.424  10.950  0.3305 -0.6369 -0.4502
  771MOL0     C 1695   2.597   7.392  10.852 -0.5715 -0.2982  0.0029
  771MOL0     C 1696   2.730   7.450  10.874  0.0593 -0.0594  0.2805
  771MOL0     C 1697   2.760   7.546  10.970 -0.9521 -0.0958  0.3505
  771MOL0     O 1698   2.890   7.599  10.966  0.0667  0.0492  0.1239
  771MOL0     C 1699   2.910   7.688  11.072 -0.4264 -0.1898  0.0834
  771MOL0     C 1700   3.052   7.742  11.051  0.2125  0.2865 -0.3457
  771MOL0     C 1701   3.068   7.839  10.938  0.5589  0.1676  0.8204
  771MOL0     C 1702   3.212   7.899  10.932  0.3383 -0.2097  0.0870
  771MOL0     C 1703   3.318   7.798  10.959  0.4549 -0.3498  0.1281
  771MOL0     C 1704   3.404   7.717  10.981 -0.7100 -0.0626 -0.3715
  771MOL0     C 1705   2.654   7.572  11.066  0.0988 -0.3868 -0.0044
  771MOL0     C 1706   2.530   7.505  11.059 -0.5604 -1.0464  0.3065
  771MOL0     H 1707   2.113   7.481  11.170 -0.8103  0.4627  1.3011
  771MOL0     H 1708   1.880   7.402  11.255 -2.3742 -3.1780  0.2172
  771MOL0     H 1709   1.681   7.232  11.327  1.1524 -0.2549 -1.4051
  771MOL0     H 1710   1.831   7.180  11.405 -1.8775  1.9051  1.8920
  771MOL0     H 1711   1.578   7.046  11.317 -0.7276 -2.8059  1.2328
  771MOL0     H 1712   1.656   7.026  11.473  1.5368 -1.8818  0.1646
  771MOL0     H 1713   1.833   6.871  11.349 -0.0232 -1.4411 -1.3266
  771MOL0     H 1714   1.738   6.889  11.201  0.2747 -1.0895  0.2435
  771MOL0     H 1715   1.656   6.797  11.482 -0.1312 -1.4548 -0.8002
  771MOL0     H 1716   1.543   6.808  11.341  0.6320  1.4196  1.1559
  771MOL0     H 1717   1.805   6.645  11.328  1.1534  3.1619  3.0413
  771MOL0     H 1718   1.644   6.647  11.234  0.1608  2.2051 -0.4582
  771MOL0     H 1719   1.683   6.546  11.502  3.4221  0.0635 -2.6922
  771MOL0     H 1720   1.660   6.444  11.367 -0.3935 -1.8924 -0.1175
  771MOL0     H 1721   1.440   6.652  11.472 -2.7513 -1.1281 -1.2170
  771MOL0     H 1722   1.433   6.582  11.318 -0.3891 -0.0192  0.0046
  771MOL0     H 1723   1.476   6.428  11.595 -0.0290 -3.7111 -1.3160
  771MOL0     H 1724   1.436   6.343  11.458 -1.1672  0.1755 -1.4094
  771MOL0     H 1725   1.302   6.582  11.716  5.1886 -0.0192 -3.2258
  771MOL0     H 1726   0.949   6.691  11.627 -3.9871 -1.7666  0.8930
  771MOL0     H 1727   1.044   6.671  11.776  0.8122  2.6351 -0.9674
  771MOL0     H 1728   0.911   6.486  11.846 -1.8216  2.3623  1.2579
  771MOL0     H 1729   0.862   6.444  11.681 -1.5324 -1.0040  1.0672
  771MOL0     H 1730   0.777   6.696  11.847 -0.1215  3.0448 -4.2509
  771MOL0     H 1731   0.729   6.670  11.686  0.2524 -2.8621 -1.1868
  771MOL0     H 1732   0.647   6.477  11.907  2.0186 -1.4593 -1.0035
  771MOL0     H 1733   0.619   6.449  11.730 -4.5120  1.3199  0.4812
  771MOL0     H 1734   0.421   6.354  11.852  0.6134  1.1292  0.5182
  771MOL0     H 1735   0.189   6.312  11.893 -1.2444  0.3203 -1.4962
  771MOL0     H 1736  -0.209   6.831  11.966 -1.1079 -0.0601 -0.5462
  771MOL0     H 1737  -0.468   6.856  11.991 -0.1540  0.3459  2.3028
  771MOL0     H 1738  -0.656   6.604  12.126  0.2229  0.5802  0.6871
  771MOL0     H 1739  -0.712   6.495  11.993 -0.8308  0.4671 -0.1263
  771MOL0     H 1740  -0.830   6.752  12.041  2.3629 -1.5581 -0.5693
  771MOL0     H 1741  -0.876   6.628  12.166 -1.5414 -1.0109 -0.1094
  771MOL0     H 1742  -0.958   6.490  11.963  1.5619 -0.4792 -1.5432
  771MOL0     H 1743  -0.908   6.641  11.874  2.0034  1.4892  2.1777
  771MOL0     H 1744  -1.099   6.662  12.105 -1.6852  0.7220 -0.2958
  771MOL0     H 1745  -1.085   6.760  11.958  2.5783 -0.0933  0.2017
  771MOL0     H 1746  -1.188   6.557  11.837 -2.6027 -0.8483 -0.5335
  771MOL0     H 1747  -1.287   6.660  11.926 -1.3887 -1.3286  0.3420
  771MOL0     H 1748  -1.322   6.526  12.112  1.8812  3.5269 -1.2540
  771MOL0     H 1749  -1.165   6.454  12.109  0.6668  0.9395 -0.1320
  771MOL0     H 1750  -1.245   6.351  11.874  1.4659  0.3895  1.2326
  771MOL0     H 1751  -1.270   6.266  12.025  3.0355  1.0870  1.1507
  771MOL0     H 1752  -1.508   6.388  12.016  0.7524 -1.5808  0.7706
  771MOL0     H 1753  -1.479   6.269  11.886 -1.3538 -0.2622  0.7818
  771MOL0     H 1754  -0.518   6.472  11.851 -0.5892 -0.8937  2.2437
  771MOL0     H 1755  -0.276   6.441  11.822  0.1981  1.1859 -0.6438
  771MOL0     H 1756   0.109   6.734  11.836 -1.0596 -1.0698 -0.3999
  771MOL0     H 1757   0.346   6.769  11.821  0.2283  0.7797 -3.8801
  771MOL0     H 1758   1.966   7.039  11.041  2.7404 -1.4005  2.5138
  771MOL0     H 1759   2.179   7.130  10.957 -0.6863  1.7401 -1.9583
  771MOL0     H 1760   2.572   7.337  10.762  0.7722  0.5028 -0.9021
  771MOL0     H 1761   2.811   7.414  10.811  0.4229  0.7514  0.2714
  771MOL0     H 1762   2.921   7.640  11.170 -0.2126  1.0964  0.7153
  771MOL0     H 1763   2.840   7.771  11.079 -2.2706 -1.5853 -0.7688
  771MOL0     H 1764   3.071   7.790  11.147  2.0795 -2.9669  1.0668
  771MOL0     H 1765   3.124   7.661  11.037 -1.5447 -1.0945 -2.1013
  771MOL0     H 1766   2.993   7.917  10.952 -0.0175 -0.2257 -0.0077
  771MOL0     H 1767   3.033   7.787  10.848 -0.1932  0.0109  1.1953
  771MOL0     H 1768   3.235   7.945  10.836 -0.1734 -0.0070  0.0577
  771MOL0     H 1769   3.208   7.983  11.002  2.6004  0.1348 -0.1476
  771MOL0     H 1770   3.490   7.659  11.009 -1.0038 -0.4286 -0.2196
  771MOL0     H 1771   2.679   7.631  11.154 -1.7331  0.6824 -0.1385
  771MOL0     H 1772   2.448   7.525  11.128 -1.9173  1.0265 -1.7580
  772MOL0     O 1773   3.480  10.521   5.925  0.3150  0.2879 -0.0667
  772MOL0     C 1774   3.478  10.573   6.034  0.1063  0.2121 -0.8501
  772MOL0     O 1775   3.572  10.658   6.088 -0.1328 -0.2583 -0.2303
  772MOL0     C 1776   3.685  10.691   6.017 -0.5138  0.1287  0.2488
  772MOL0     C 1777   3.766  10.599   5.951  0.8584  0.1903 -0.4989
  772MOL0     C 1778   3.894  10.626   5.901  0.3535  0.6788  0.1564
  772MOL0     C 1779   3.936  10.760   5.906  0.6930  0.3348  0.5000
  772MOL0     O 1780   4.064  10.776   5.859  0.1705  0.5029  0.1838
  772MOL0     C 1781   4.072  10.874   5.759 -0.2360  0.2994  0.4276
  772MOL0     C 1782   4.162  10.812   5.655 -0.0998  0.5702 -0.1352
  772MOL0     C 1783   4.304  10.827   5.704 -0.7467  0.1182  0.7914
  772MOL0     C 1784   4.405  10.823   5.589 -0.3487  0.1607 -0.2011
  772MOL0     C 1785   4.556  10.824   5.641  0.2061  0.0263 -0.4511
  772MOL0     C 1786   4.605  10.962   5.684  0.1582  0.1302  0.9629
  772MOL0     C 1787   4.760  10.969   5.691  0.2592 -0.6275 -0.3576
  772MOL0     C 1788   4.821  10.980   5.553 -0.2190  0.4711  0.2566
  772MOL0     N 1789   4.968  11.001   5.549  0.2145  0.1376 -1.4311
  772MOL0     C 1790   5.040  11.123   5.562 -0.1741 -0.2677 -0.1789
  772MOL0     C 1791   5.172  11.084   5.555 -0.0003  0.0085 -0.0798
  772MOL0     C 1792   5.293  11.176   5.554  0.1148 -0.0793  0.7256
  772MOL0     C 1793   5.279  11.310   5.635  0.4567 -0.0829  0.2808
  772MOL0     C 1794   5.281  11.269   5.778  0.1180 -0.3185 -0.4614
  772MOL0     C 1795   5.274  11.392   5.882  0.7593  0.9295  0.1771
  772MOL0     O 1796   5.150  11.463   5.859 -0.0589  0.0227  0.6114
  772MOL0     C 1797   5.027  11.402   5.892  0.4084  0.1748 -0.6968
  772MOL0     C 1798   5.005  11.303   5.989  0.3482  0.5040 -0.0461
  772MOL0     C 1799   4.873  11.262   6.020 -0.3742 -0.9173  1.1175
  772MOL0     C 1800   4.768  11.304   5.934  1.5776  0.9899  0.1795
  772MOL0     C 1801   4.623  11.272   5.957  0.0605 -0.8785 -0.3429
  772MOL0     O 1802   4.586  11.247   6.085  1.2069 -0.1477  0.0765
  772MOL0     C 1803   4.450  11.240   6.096 -0.0594  0.3473 -0.7678
  772MOL0     C 1804   4.382  11.326   6.189  0.4596  0.6114 -0.6633
  772MOL0     C 1805   4.242  11.314   6.206  0.6115  0.7527  0.4611
  772MOL0     C 1806   4.171  11.219   6.133 -0.1100 -0.3487  0.2166
  772MOL0     O 1807   4.034  11.197   6.138 -0.3847  0.3868  0.2574
  772MOL0     C 1808   3.954  11.317   6.186 -0.6820  0.5998  0.1552
  772MOL0     C 1809   3.815  11.303   6.136  0.0773  1.1113  0.0408
  772MOL0     C 1810   3.758  11.178   6.202 -0.3824  0.1529 -1.1454
  772MOL0     C 1811   3.606  11.167   6.185 -0.1266 -0.7934  0.6312
  772MOL0     C 1812   3.550  11.061   6.280 -0.8448 -0.4783  0.0830
  772MOL0     C 1813   3.410  11.016   6.241  0.5733  0.3308 -0.0869
  772MOL0     C 1814   3.340  10.932   6.349 -0.1245  0.3479 -0.8121
  772MOL0     C 1815   3.202  10.888   6.292 -0.7760  0.5765  0.4958
  772MOL0    Cl 1816   3.093  11.015   6.234  0.1354 -0.3428  0.2459
  772MOL0     C 1817   4.234  11.138   6.037 -1.1790  0.0639  0.1415
  772MOL0     C 1818   4.369  11.140   6.023  0.4594 -0.2009 -0.1527
  772MOL0     O 1819   4.543  11.293   5.865  0.2880  1.1549 -0.1560
  772MOL0     C 1820   4.787  11.390   5.826 -0.0599 -0.0694 -1.3899
  772MOL0     C 1821   4.917  11.434   5.811 -0.2630 -0.9650  0.3926
  772MOL0     N 1822   5.176  10.939   5.521 -0.3654 -0.3127 -0.5028
  772MOL0     N 1823   5.051  10.902   5.530 -0.1212  0.2509 -0.8980
  772MOL0     C 1824   3.850  10.859   5.961  0.1818 -0.0036 -0.0785
  772MOL0     C 1825   3.730  10.821   6.015 -0.0809  0.8338 -0.1886
  772MOL0     C 1826   3.390  10.511   6.133 -0.3308 -0.2496 -0.0995
  772MOL0     C 1827   3.381  10.576   6.265 -0.8532 -0.2484  0.0166
  772MOL0     C 1828   3.291  10.535   6.355 -0.3418 -0.3644  0.0393
  772MOL0     C 1829   3.210  10.427   6.329  0.6569 -0.9290 -0.2530
  772MOL0     O 1830   3.118  10.416   6.431  0.0480 -0.7543 -0.7485
  772MOL0     C 1831   2.977  10.387   6.391  0.5329  1.2850  0.3496
  772MOL0     C 1832   2.885  10.509   6.367 -0.1524 -0.8496 -0.2525
  772MOL0     C 1833   2.923  10.579   6.234 -0.2590  0.9614  0.1945
  772MOL0     C 1834   2.816  10.666   6.177 -0.3638 -0.6502  0.4286
  772MOL0     C 1835   2.775  10.775   6.272 -0.6387 -0.1973 -0.3277
  772MOL0     C 1836   2.735  10.857   6.359 -0.3750 -0.5329  0.5114
  772MOL0     C 1837   3.201  10.365   6.205 -1.3024  0.4144  0.8547
  772MOL0     C 1838   3.297  10.406   6.113 -0.0504  0.0692  0.6521
  772MOL0     H 1839   3.755  10.491   5.956  1.0186  0.1084 -1.6747
  772MOL0     H 1840   3.957  10.547   5.863 -3.8232 -2.0693 -1.7822
  772MOL0     H 1841   4.106  10.973   5.792  1.5378 -0.1821  0.1122
  772MOL0     H 1842   3.973  10.903   5.722 -0.4829  1.6837  2.0288
  772MOL0     H 1843   4.156  10.868   5.561 -1.0555 -0.3170 -0.6234
  772MOL0     H 1844   4.133  10.709   5.630  2.3178  0.1613 -1.6231
  772MOL0     H 1845   4.332  10.749   5.776  2.4493  2.9991  3.0501
  772MOL0     H 1846   4.315  10.921   5.758 -2.0343 -0.3957  2.0220
  772MOL0     H 1847   4.382  10.736   5.526  1.1651  0.4935 -1.2853
  772MOL0     H 1848   4.390  10.911   5.526 -1.8761  0.2176  0.2207
  772MOL0     H 1849   4.621  10.790   5.560 -0.5225  0.7554 -1.3741
  772MOL0     H 1850   4.570  10.763   5.730 -1.5595  1.8736  1.1833
  772MOL0     H 1851   4.570  10.971   5.787 -2.2708 -0.8039  0.2971
  772MOL0     H 1852   4.550  11.035   5.623  0.7134  0.0715  0.3860
  772MOL0     H 1853   4.797  11.051   5.752  1.2709 -2.3472  1.4673
  772MOL0     H 1854   4.797  10.874   5.730  0.2135 -1.5486 -2.3811
  772MOL0     H 1855   4.771  11.059   5.497  0.7154  1.3924  0.6997
  772MOL0     H 1856   4.801  10.886   5.500 -2.3720 -0.3193  2.3053
  772MOL0     H 1857   5.006  11.226   5.570  4.1758  1.3533  0.4419
  772MOL0     H 1858   5.279  11.208   5.450 -2.3625 -1.2956  0.6089
  772MOL0     H 1859   5.389  11.125   5.558  0.6345  0.9422  3.7903
  772MOL0     H 1860   5.181  11.354   5.615  0.2346  0.6208  2.6848
  772MOL0     H 1861   5.347  11.392   5.613 -2.0751  1.4897 -2.4076
  772MOL0     H 1862   5.198  11.200   5.791 -1.1663  1.4927  1.8808
  772MOL0     H 1863   5.376  11.216   5.788  0.5672  0.5892  0.2997
  772MOL0     H 1864   5.354  11.462   5.857  2.3380 -0.8283  0.1061
  772MOL0     H 1865   5.290  11.357   5.984  1.3399 -0.9776 -0.5336
  772MOL0     H 1866   5.094  11.281   6.048 -0.6990  1.2816  1.9199
  772MOL0     H 1867   4.868  11.189   6.100 -1.3034 -1.9563  0.1529
  772MOL0     H 1868   4.436  11.392   6.256 -1.3741  1.3818  0.1306
  772MOL0     H 1869   4.197  11.379   6.281  0.5542  0.5707  0.5858
  772MOL0     H 1870   3.996  11.408   6.142  0.2607  0.5284  0.8587
  772MOL0     H 1871   3.964  11.331   6.294 -3.0282  0.6478  0.4148
  772MOL0     H 1872   3.815  11.282   6.029  0.9424  3.5680 -0.5078
  772MOL0     H 1873   3.763  11.396   6.164 -0.8605  0.7577 -0.4984
  772MOL0     H 1874   3.770  11.175   6.311  2.3999 -1.2163 -1.3942
  772MOL0     H 1875   3.812  11.089   6.169  1.8472  1.4582 -1.2049
  772MOL0     H 1876   3.577  11.272   6.195  0.2877 -0.2711 -2.5137
  772MOL0     H 1877   3.567  11.136   6.087  2.3958 -1.0848 -0.3668
  772MOL0     H 1878   3.556  11.105   6.380  1.9930  0.7930 -0.5175
  772MOL0     H 1879   3.627  10.984   6.274  1.6152  1.8464 -0.5270
  772MOL0     H 1880   3.418  10.963   6.145  0.9020  2.8233 -1.5012
  772MOL0     H 1881   3.346  11.101   6.218 -0.9671 -0.7359  0.0694
  772MOL0     H 1882   3.404  10.845   6.370  0.9652  1.3200  0.0837
  772MOL0     H 1883   3.310  10.987   6.439  0.1615  1.1864 -1.2175
  772MOL0     H 1884   3.152  10.824   6.365 -1.7981 -1.4560 -1.8397
  772MOL0     H 1885   3.230  10.823   6.209  0.3964  2.1580 -0.4199
  772MOL0     H 1886   4.184  11.050   5.997  1.9613 -0.8951 -2.0932
  772MOL0     H 1887   4.410  11.062   5.960 -2.4433  0.0033 -2.5216
  772MOL0     H 1888   4.719  11.435   5.755 -1.2353  1.9636  0.9034
  772MOL0     H 1889   4.939  11.495   5.724 -2.3108  0.8115  1.0202
  772MOL0     H 1890   3.878  10.964   5.968 -0.2362  0.2343 -1.6902
  772MOL0     H 1891   3.668  10.901   6.055 -2.0346 -0.3282 -0.7069
  772MOL0     H 1892   3.438  10.668   6.278 -2.4682  0.8166 -0.0942
  772MOL0     H 1893   3.299  10.582   6.453 -5.3617  2.1485 -0.4545
  772MOL0     H 1894   2.936  10.341   6.481  0.9867 -0.3970 -0.2677
  772MOL0     H 1895   2.968  10.314   6.311  2.4735 -1.1264  2.1755
  772MOL0     H 1896   2.780  10.479   6.362  0.6040 -4.8382  2.8456
  772MOL0     H 1897   2.905  10.573   6.453  2.2634 -2.7085  0.6687
  772MOL0     H 1898   2.942  10.501   6.159 -1.2743  0.8277  0.0568
  772MOL0     H 1899   3.014  10.638   6.249  1.1946 -1.5753  2.2596
  772MOL0     H 1900   2.862  10.706   6.086 -0.5727  0.9088  0.9670
  772MOL0     H 1901   2.731  10.599   6.163  0.3781 -1.6881  0.7561
  772MOL0     H 1902   2.705  10.929   6.433 -1.9490 -0.8825  0.2539
  772MOL0     H 1903   3.140  10.281   6.175 -2.0189  1.3769 -0.4514
  772MOL0     H 1904   3.297  10.371   6.010 -2.0145  1.3210  0.1729
  773MOL0     O 1905   0.255   4.874   1.633 -0.3318 -0.4948  0.0270
  773MOL0     C 1906   0.320   4.961   1.692 -0.0979  0.7214 -0.4256
  773MOL0     O 1907   0.283   5.033   1.799 -0.3016 -0.2491 -0.6850
  773MOL0     C 1908   0.162   4.992   1.857 -1.0272  0.3294  0.4162
  773MOL0     C 1909   0.054   5.074   1.864  0.2704 -0.2328  0.3193
  773MOL0     C 1910  -0.060   5.032   1.923 -0.0328  0.7384 -0.4418
  773MOL0     C 1911  -0.074   4.903   1.990 -0.4458 -1.0892  0.7401
  773MOL0     O 1912  -0.192   4.863   2.037  0.1876  0.1376  0.6414
  773MOL0     C 1913  -0.269   4.768   1.966  0.2630  0.6446  0.2799
  773MOL0     C 1914  -0.318   4.825   1.828  0.0313  0.6028 -1.2412
  773MOL0     C 1915  -0.405   4.952   1.848 -0.1758 -0.5131 -0.9347
  773MOL0     C 1916  -0.558   4.927   1.827  0.4237  0.5035  0.1479
  773MOL0     C 1917  -0.639   5.056   1.792 -0.1269  0.4393 -0.6076
  773MOL0     C 1918  -0.785   5.022   1.741 -0.3795 -0.1452 -1.0115
  773MOL0     C 1919  -0.845   5.153   1.701  0.2102  0.1503 -0.0591
  773MOL0     C 1920  -1.004   5.138   1.680 -0.8050 -0.3331 -0.2819
  773MOL0     N 1921  -1.063   5.118   1.811  0.1150  0.5300 -0.7615
  773MOL0     C 1922  -1.079   5.220   1.906  0.4805 -1.0217 -1.0701
  773MOL0     C 1923  -1.161   5.173   2.002 -0.7939 -0.4810 -0.1302
  773MOL0     C 1924  -1.221   5.238   2.124  0.6738 -0.3215 -0.0444
  773MOL0     C 1925  -1.374   5.238   2.120  1.1735  0.3012 -0.2043
  773MOL0     C 1926  -1.421   5.308   1.991  0.5646  0.3182 -0.1469
  773MOL0     C 1927  -1.580   5.325   1.996 -0.3008  0.4831 -0.4319
  773MOL0     O 1928  -1.629   5.393   2.113 -1.0195 -0.2991  0.6696
  773MOL0     C 1929  -1.767   5.414   2.113  0.1258 -0.0100  0.1127
  773MOL0     C 1930  -1.823   5.543   2.100  0.2367  0.3608  0.0191
  773MOL0     C 1931  -1.964   5.556   2.099  0.0992 -0.2086  0.0338
  773MOL0     C 1932  -2.051   5.446   2.127  0.8602  0.5825 -0.5091
  773MOL0     C 1933  -2.201   5.462   2.134  0.1979 -0.4763  0.1614
  773MOL0     O 1934  -2.269   5.336   2.143  0.5026 -0.5670 -0.2800
  773MOL0     C 1935  -2.403   5.335   2.115 -0.6257  0.0099  0.2454
  773MOL0     C 1936  -2.446   5.376   1.984 -0.1633  1.1147  0.2325
  773MOL0     C 1937  -2.579   5.350   1.947  0.0771 -0.4320 -0.2228
  773MOL0     C 1938  -2.667   5.276   2.030  0.2216 -0.4403  0.1771
  773MOL0     O 1939  -2.785   5.229   1.976 -0.5885 -1.1372 -0.0489
  773MOL0     C 1940  -2.840   5.110   2.030 -0.4256  0.9615  0.0643
  773MOL0     C 1941  -2.958   5.076   1.949  0.2292 -0.2170  0.5535
  773MOL0     C 1942  -3.061   5.194   1.970  0.1959 -0.8599  0.0476
  773MOL0     C 1943  -3.170   5.183   1.865 -0.7796 -0.5527 -0.3668
  773MOL0     C 1944  -3.284   5.284   1.906 -0.1407  0.3889 -0.3995
  773MOL0     C 1945  -3.399   5.306   1.797 -0.4583 -0.8241 -0.7213
  773MOL0     C 1946  -3.503   5.402   1.867 -0.1339 -0.2970  0.9561
  773MOL0     C 1947  -3.634   5.419   1.791  0.1849  0.3112  0.4626
  773MOL0    Cl 1948  -3.750   5.292   1.815 -0.2548  0.1051 -0.1920
  773MOL0     C 1949  -2.626   5.254   2.164  0.2099  0.5347 -0.0615
  773MOL0     C 1950  -2.496   5.280   2.212 -0.0910  0.0171  0.5684
  773MOL0     O 1951  -2.252   5.571   2.106 -0.3351  0.5002 -0.4423
  773MOL0     C 1952  -1.993   5.318   2.144  0.2178  0.5161  0.7606
  773MOL0     C 1953  -1.855   5.306   2.132 -0.7618 -0.2705 -0.0118
  773MOL0     N 1954  -1.186   5.044   1.974  0.1090 -0.0809  0.2183
  773MOL0     N 1955  -1.123   5.004   1.868  0.7327 -0.6065  0.4371
  773MOL0     C 1956   0.038   4.818   1.979 -1.0475 -0.2700  0.1848
  773MOL0     C 1957   0.159   4.866   1.911  0.5272  0.3606  0.3086
  773MOL0     C 1958   0.457   4.981   1.652  0.0339 -0.3278  0.4833
  773MOL0     C 1959   0.500   4.927   1.531  0.0246 -0.1892  0.0637
  773MOL0     C 1960   0.629   4.943   1.499 -0.2317  0.6273  0.0874
  773MOL0     C 1961   0.725   5.017   1.571 -0.2721  0.0342  0.3423
  773MOL0     O 1962   0.853   5.043   1.530  0.0629 -0.0310 -0.5996
  773MOL0     C 1963   0.952   5.086   1.626 -0.1113 -0.0695  0.7197
  773MOL0     C 1964   1.099   5.084   1.571  1.0508 -0.4521  0.2134
  773MOL0     C 1965   1.205   5.133   1.676  0.1619  0.1894  0.0540
  773MOL0     C 1966   1.345   5.114   1.613 -0.6132  0.1595  0.0278
  773MOL0     C 1967   1.456   5.184   1.682  0.3016  0.1532 -0.5600
  773MOL0     C 1968   1.543   5.242   1.748  0.8313  0.1978 -0.0788
  773MOL0     C 1969   0.676   5.076   1.688 -0.4744 -0.6269 -0.6193
  773MOL0     C 1970   0.547   5.050   1.732  0.4807 -0.5854  0.8972
  773MOL0     H 1971   0.063   5.172   1.818  0.2327  0.4341  1.6865
  773MOL0     H 1972  -0.145   5.099   1.917 -0.1829  0.8231  1.7052
  773MOL0     H 1973  -0.355   4.738   2.026  1.3666 -3.6774  0.0247
  773MOL0     H 1974  -0.220   4.670   1.957 -0.4568  0.4268 -2.3360
  773MOL0     H 1975  -0.380   4.747   1.783 -0.9842  1.5016 -1.4529
  773MOL0     H 1976  -0.231   4.828   1.762  0.4527 -2.4081 -0.9821
  773MOL0     H 1977  -0.364   5.026   1.779  1.9135 -1.8012 -1.1898
  773MOL0     H 1978  -0.388   4.991   1.949  2.8716  2.5744 -2.4244
  773MOL0     H 1979  -0.559   4.859   1.741  0.8339 -2.4958  2.3658
  773MOL0     H 1980  -0.604   4.879   1.914  3.0446  1.8581  2.4602
  773MOL0     H 1981  -0.591   5.115   1.714  0.9303  1.0378  0.4596
  773MOL0     H 1982  -0.631   5.114   1.884  1.1403 -1.2134  0.3860
  773MOL0     H 1983  -0.842   4.972   1.819  1.0797 -0.5948 -0.1938
  773MOL0     H 1984  -0.785   4.952   1.657 -2.0716 -0.5424 -0.7129
  773MOL0     H 1985  -0.830   5.226   1.782  1.8850 -0.6457  0.3990
  773MOL0     H 1986  -0.798   5.188   1.609  0.8942  1.2620  0.6866
  773MOL0     H 1987  -1.024   5.067   1.599 -3.2461 -0.2908  0.2039
  773MOL0     H 1988  -1.041   5.233   1.642  1.3465  0.0146 -1.6512
  773MOL0     H 1989  -1.056   5.326   1.908  0.5092 -1.0381  0.3059
  773MOL0     H 1990  -1.203   5.346   2.118 -1.1098 -0.0122 -0.6056
  773MOL0     H 1991  -1.176   5.185   2.208 -1.9234 -0.7592  1.1922
  773MOL0     H 1992  -1.415   5.274   2.215  1.2771 -0.2603  0.0585
  773MOL0     H 1993  -1.405   5.133   2.120 -0.0829  0.5813  3.0036
  773MOL0     H 1994  -1.366   5.401   1.976  1.3570  0.3347  2.3697
  773MOL0     H 1995  -1.411   5.239   1.907 -0.6373 -1.6201  1.2098
  773MOL0     H 1996  -1.627   5.226   1.998  2.3405 -0.8534  0.5557
  773MOL0     H 1997  -1.617   5.370   1.903 -0.3366 -1.2938 -1.3354
  773MOL0     H 1998  -1.753   5.626   2.086  1.5978 -0.8634 -0.7030
  773MOL0     H 1999  -2.003   5.654   2.071  0.7750 -0.0169 -0.2487
  773MOL0     H 2000  -2.372   5.419   1.917  2.8527 -1.7127  1.4725
  773MOL0     H 2001  -2.610   5.375   1.847  5.0037 -2.1763 -2.5211
  773MOL0     H 2002  -2.871   5.123   2.134 -4.4019  2.5229 -1.1206
  773MOL0     H 2003  -2.770   5.027   2.016 -0.4537  0.4971  2.2897
  773MOL0     H 2004  -3.001   4.983   1.986 -1.0469 -0.1413 -0.6616
  773MOL0     H 2005  -2.925   5.060   1.846  0.5668  0.9407  0.4667
  773MOL0     H 2006  -3.010   5.289   1.951 -1.3414 -0.3793 -1.9444
  773MOL0     H 2007  -3.099   5.203   2.072 -0.5207 -1.5741 -0.1473
  773MOL0     H 2008  -3.137   5.211   1.765  1.1312  0.2836  0.4392
  773MOL0     H 2009  -3.211   5.083   1.851  2.2164 -1.5801 -2.7709
  773MOL0     H 2010  -3.234   5.379   1.926  1.5980 -0.6646  0.5364
  773MOL0     H 2011  -3.340   5.259   1.996  0.4133  0.0436 -0.1451
  773MOL0     H 2012  -3.458   5.216   1.780 -2.0290 -0.1957  1.1165
  773MOL0     H 2013  -3.364   5.347   1.702 -1.1211  3.0852  0.5195
  773MOL0     H 2014  -3.527   5.394   1.973 -2.3503  0.7323  0.5902
  773MOL0     H 2015  -3.447   5.496   1.853  1.5940 -1.2422  1.2838
  773MOL0     H 2016  -3.616   5.430   1.684 -2.0902  1.5128  0.1303
  773MOL0     H 2017  -3.688   5.508   1.826  0.2307  1.1483 -1.4411
  773MOL0     H 2018  -2.690   5.219   2.244 -0.5540  0.1054 -0.8474
  773MOL0     H 2019  -2.482   5.248   2.315  0.4770 -0.5348  0.3232
  773MOL0     H 2020  -2.060   5.232   2.145  1.8895 -0.9007 -1.0926
  773MOL0     H 2021  -1.803   5.215   2.161 -1.2233 -0.5429 -0.0317
  773MOL0     H 2022   0.029   4.718   2.020 -0.6684 -0.3902 -0.0216
  773MOL0     H 2023   0.240   4.794   1.911 -0.3154 -0.6552  2.1384
  773MOL0     H 2024   0.439   4.888   1.450  0.9857  0.3093 -0.9230
  773MOL0     H 2025   0.665   4.898   1.407  0.6586  1.0357  0.2236
  773MOL0     H 2026   0.943   5.015   1.708 -0.4162 -1.4308 -0.4540
  773MOL0     H 2027   0.936   5.186   1.667  2.6676 -1.0413  4.7579
  773MOL0     H 2028   1.120   4.980   1.544 -1.4785 -0.8946 -0.2530
  773MOL0     H 2029   1.103   5.152   1.486  1.2075  1.0067  1.3436
  773MOL0     H 2030   1.191   5.079   1.770  1.4605  0.2033  0.2663
  773MOL0     H 2031   1.182   5.237   1.699 -0.1993 -0.5787  3.8639
  773MOL0     H 2032   1.380   5.012   1.630 -1.7220 -0.1024  0.9041
  773MOL0     H 2033   1.329   5.141   1.508 -1.6511  0.3959  0.2368
  773MOL0     H 2034   1.622   5.289   1.802  0.6982  2.8310 -1.9825
  773MOL0     H 2035   0.738   5.137   1.753  0.9276 -2.8368  0.2283
  773MOL0     H 2036   0.521   5.102   1.824  2.9096  0.5788  0.9999
  774MOL0     O 2037   2.970  10.064   6.424 -0.6949  0.8797  0.1640
  774MOL0     C 2038   2.998   9.966   6.495  0.9313  0.2511  0.7788
  774MOL0     O 2039   2.917   9.891   6.571  0.7825  0.3052  0.2200
  774MOL0     C 2040   2.786   9.902   6.550 -0.5074  0.3096  1.3219
  774MOL0     C 2041   2.737   9.895   6.415  0.7285  0.2940  0.1721
  774MOL0     C 2042   2.601   9.928   6.391  0.8670  0.2003  0.3909
  774MOL0     C 2043   2.517   9.957   6.496  0.7748 -0.3063 -0.5734
  774MOL0     O 2044   2.384   9.985   6.458 -0.1472 -0.6933  0.1358
  774MOL0     C 2045   2.294  10.010   6.569 -0.2571 -0.1442  0.8674
  774MOL0     C 2046   2.145   9.989   6.518  0.5599  0.1800 -0.0281
  774MOL0     C 2047   2.111  10.081   6.400 -0.0194  0.4797 -0.2616
  774MOL0     C 2048   1.954  10.065   6.379  0.4227  0.8038 -0.1390
  774MOL0     C 2049   1.891  10.142   6.265 -1.1215 -0.6541 -0.4852
  774MOL0     C 2050   1.737  10.129   6.262  0.7189  0.5320  0.2566
  774MOL0     C 2051   1.682  10.155   6.124  1.0149 -0.5712 -0.5827
  774MOL0     C 2052   1.679  10.031   6.037  0.2023 -0.3957 -0.1975
  774MOL0     N 2053   1.597  10.051   5.913 -0.3417 -0.4445 -0.3294
  774MOL0     C 2054   1.601  10.157   5.827 -0.1067 -0.7747 -0.1556
  774MOL0     C 2055   1.478  10.171   5.772 -0.2749  0.2440 -0.0779
  774MOL0     C 2056   1.420  10.288   5.696  0.0535 -0.6424 -0.0172
  774MOL0     C 2057   1.382  10.385   5.800 -0.2076  0.4234 -0.1187
  774MOL0     C 2058   1.246  10.344   5.854  0.0253 -0.0144 -0.3750
  774MOL0     C 2059   1.138  10.345   5.742  0.5823  0.1240  0.2294
  774MOL0     O 2060   1.021  10.405   5.797 -0.1771 -0.0906 -0.0694
  774MOL0     C 2061   0.899  10.375   5.749 -0.4065  0.1251  0.4380
  774MOL0     C 2062   0.795  10.437   5.822 -0.1391  0.8949  0.4599
  774MOL0     C 2063   0.657  10.413   5.800  0.2985  0.6064  0.6688
  774MOL0     C 2064   0.618  10.327   5.703  1.4483  0.7091  0.4310
  774MOL0     C 2065   0.472  10.304   5.680 -0.7773 -0.4665 -0.0703
  774MOL0     O 2066   0.393  10.396   5.734  1.1735 -0.6211  0.1296
  774MOL0     C 2067   0.254  10.404   5.704  0.2181 -0.2128 -0.1112
  774MOL0     C 2068   0.172  10.291   5.681 -0.1833  0.6235 -0.0668
  774MOL0     C 2069   0.031  10.304   5.664  0.1454 -0.0320 -0.0970
  774MOL0     C 2070  -0.032  10.426   5.692 -0.5655  0.1621  0.1153
  774MOL0     O 2071  -0.166  10.423   5.726  0.0398  0.4075 -0.3716
  774MOL0     C 2072  -0.243  10.543   5.711 -0.3211  0.0601 -0.3019
  774MOL0     C 2073  -0.392  10.510   5.708  0.5685 -0.0194 -0.1546
  774MOL0     C 2074  -0.474  10.624   5.650 -0.9818  0.0584  0.2782
  774MOL0     C 2075  -0.627  10.573   5.645  0.4759 -0.0487 -0.6371
  774MOL0     C 2076  -0.721  10.673   5.577  0.3408 -0.0959  1.0355
  774MOL0     C 2077  -0.879  10.644   5.581 -0.7561  0.5169 -0.4155
  774MOL0     C 2078  -0.955  10.757   5.509 -0.3928 -0.3431 -0.1529
  774MOL0     C 2079  -1.100  10.717   5.474  0.4275 -0.4279  0.3153
  774MOL0    Cl 2080  -1.176  10.694   5.627  0.1785  0.3333  0.3580
  774MOL0     C 2081   0.047  10.538   5.720  0.2857 -0.5164 -0.5310
  774MOL0     C 2082   0.182  10.527   5.727 -0.3704  0.5793  0.5974
  774MOL0     O 2083   0.437  10.219   5.594  0.4844 -0.0438 -0.1075
  774MOL0     C 2084   0.717  10.268   5.624 -0.7762 -0.1390 -0.3327
  774MOL0     C 2085   0.858  10.295   5.648  0.1313  0.0745  0.1820
  774MOL0     N 2086   1.397  10.064   5.819 -0.1803 -0.7881 -1.1162
  774MOL0     N 2087   1.470   9.995   5.906  0.7791 -0.2827  0.1815
  774MOL0     C 2088   2.573   9.965   6.631  0.6992 -0.3535 -0.1423
  774MOL0     C 2089   2.706   9.939   6.661  0.2162  0.7978 -0.7324
  774MOL0     C 2090   3.143   9.937   6.501 -0.0995  0.4699  0.6964
  774MOL0     C 2091   3.193   9.863   6.606 -0.4451 -0.1838 -0.0987
  774MOL0     C 2092   3.338   9.856   6.632 -0.4753  0.7686 -0.0159
  774MOL0     C 2093   3.431   9.922   6.547  0.5259  0.1661 -0.1706
  774MOL0     O 2094   3.568   9.909   6.575 -0.1243 -0.6407 -0.6387
  774MOL0     C 2095   3.649   9.891   6.466  0.0893 -0.7665 -0.1404
  774MOL0     C 2096   3.736   9.768   6.482 -0.1269  0.4481  0.1451
  774MOL0     C 2097   3.850   9.802   6.582  0.4150 -0.9722 -0.8780
  774MOL0     C 2098   3.992   9.800   6.524  0.6416  1.3695  0.0013
  774MOL0     C 2099   4.010   9.921   6.449  0.7100  0.1075 -0.0087
  774MOL0     C 2100   4.023  10.030   6.395  1.0077  0.5510 -0.3218
  774MOL0     C 2101   3.380   9.993   6.431 -0.3046 -0.5120  0.2394
  774MOL0     C 2102   3.238   9.996   6.410  1.0518  0.7418  0.3068
  774MOL0     H 2103   2.799   9.871   6.329 -1.0069 -0.8282 -0.8419
  774MOL0     H 2104   2.559   9.926   6.291 -2.3607 -0.6955  1.6626
  774MOL0     H 2105   2.305  10.114   6.601 -0.4403  0.1516  0.0042
  774MOL0     H 2106   2.309   9.948   6.657  2.6498 -0.8636 -0.0370
  774MOL0     H 2107   2.084  10.027   6.600 -0.3605 -2.6660  0.7421
  774MOL0     H 2108   2.127   9.885   6.488  1.4100  0.4886 -1.7387
  774MOL0     H 2109   2.167  10.061   6.309 -0.4437 -3.0201  0.1029
  774MOL0     H 2110   2.127  10.185   6.429 -0.3296  0.5618 -0.3803
  774MOL0     H 2111   1.933   9.958   6.365 -0.8825  0.6225  2.5754
  774MOL0     H 2112   1.902  10.086   6.472 -3.0153  0.7601 -1.8879
  774MOL0     H 2113   1.938  10.092   6.179 -2.0965 -3.2971  0.4066
  774MOL0     H 2114   1.923  10.247   6.267 -0.2848 -0.8931 -0.8369
  774MOL0     H 2115   1.698  10.214   6.320  1.4044  0.5277  0.7365
  774MOL0     H 2116   1.693  10.037   6.302 -0.7074  0.7413 -0.7589
  774MOL0     H 2117   1.583  10.198   6.140  1.0520  0.5891 -3.0170
  774MOL0     H 2118   1.741  10.233   6.076  1.6556 -0.6081  0.1223
  774MOL0     H 2119   1.657   9.948   6.104  1.2149 -2.2283 -2.0108
  774MOL0     H 2120   1.778  10.001   6.000  0.7898  1.8307 -0.5474
  774MOL0     H 2121   1.681  10.230   5.823  0.9787 -1.7533  1.9307
  774MOL0     H 2122   1.330  10.257   5.642 -1.9279 -2.7418  4.0197
  774MOL0     H 2123   1.494  10.320   5.623  1.5502 -2.4600  0.6071
  774MOL0     H 2124   1.385  10.487   5.760  2.5231  0.1383 -0.8982
  774MOL0     H 2125   1.460  10.394   5.877  0.5658  2.4702 -1.0722
  774MOL0     H 2126   1.251  10.243   5.896  2.9150 -0.0645 -0.6178
  774MOL0     H 2127   1.229  10.415   5.935  1.4500  1.2332 -1.1251
  774MOL0     H 2128   1.111  10.244   5.710 -2.3339  1.0353 -0.5060
  774MOL0     H 2129   1.157  10.418   5.663 -3.7503  0.7447 -0.4570
  774MOL0     H 2130   0.813  10.511   5.899  2.5817 -0.8592  1.6574
  774MOL0     H 2131   0.587  10.475   5.854 -1.5385 -3.3393  3.2795
  774MOL0     H 2132   0.209  10.189   5.688 -1.7811  0.0793  1.0530
  774MOL0     H 2133  -0.034  10.220   5.642  3.2609 -2.2677 -1.5903
  774MOL0     H 2134  -0.201  10.598   5.626  0.4912  1.0140  0.6752
  774MOL0     H 2135  -0.228  10.612   5.796  0.7229  0.2662 -0.6300
  774MOL0     H 2136  -0.415  10.475   5.809 -0.2135  1.3774  0.1784
  774MOL0     H 2137  -0.404  10.421   5.646  0.5146 -0.3050  0.2594
  774MOL0     H 2138  -0.435  10.638   5.549  2.7775 -0.6751  1.4784
  774MOL0     H 2139  -0.456  10.720   5.698  1.3402 -1.7203  3.3449
  774MOL0     H 2140  -0.628  10.478   5.592 -0.7541  0.7126 -2.0704
  774MOL0     H 2141  -0.651  10.556   5.750  5.8403  0.4217  0.9984
  774MOL0     H 2142  -0.696  10.676   5.470  0.9408 -0.9605  1.1454
  774MOL0     H 2143  -0.695  10.768   5.625 -1.6926  1.2342 -0.3296
  774MOL0     H 2144  -0.914  10.647   5.685  0.0429  2.4455 -0.1497
  774MOL0     H 2145  -0.899  10.540   5.554 -1.9755  0.4301  0.6884
  774MOL0     H 2146  -0.954  10.851   5.565 -0.1635 -0.5293  0.1629
  774MOL0     H 2147  -0.900  10.774   5.416  1.2072 -0.7874  0.6725
  774MOL0     H 2148  -1.096  10.627   5.412  2.8374  0.2854 -0.6754
  774MOL0     H 2149  -1.149  10.784   5.404 -1.1151 -1.6559  0.1486
  774MOL0     H 2150   0.005  10.634   5.748  1.4187 -0.4685  1.2305
  774MOL0     H 2151   0.245  10.614   5.745  1.9912 -0.0828 -3.4607
  774MOL0     H 2152   0.696  10.208   5.536 -0.4889  0.2341 -0.6586
  774MOL0     H 2153   0.932  10.253   5.581 -1.5878 -0.2649 -1.6292
  774MOL0     H 2154   2.506   9.993   6.711 -0.0701  0.8939 -1.1722
  774MOL0     H 2155   2.732   9.938   6.766 -3.4464  1.9430  0.3422
  774MOL0     H 2156   3.121   9.810   6.668 -1.7284  1.5392 -0.0474
  774MOL0     H 2157   3.384   9.801   6.714  0.2356 -0.6147 -1.2928
  774MOL0     H 2158   3.711   9.980   6.451 -1.3016  0.3410  0.4311
  774MOL0     H 2159   3.591   9.877   6.374  2.1220 -0.6766 -1.4857
  774MOL0     H 2160   3.682   9.678   6.512  1.2536 -0.6943 -0.6871
  774MOL0     H 2161   3.774   9.736   6.385  2.5186 -1.0647  1.5632
  774MOL0     H 2162   3.857   9.721   6.654  1.6985 -0.7096 -0.6849
  774MOL0     H 2163   3.817   9.885   6.646 -2.7799 -2.1205 -0.8249
  774MOL0     H 2164   4.066   9.800   6.604 -2.2297  4.0691  2.9795
  774MOL0     H 2165   3.999   9.712   6.460 -2.7413 -1.2321  2.8467
  774MOL0     H 2166   4.015  10.131   6.360  1.2000  0.8307  0.4165
  774MOL0     H 2167   3.455  10.038   6.367 -1.2246 -1.2584 -1.4549
  774MOL0     H 2168   3.202  10.050   6.323 -2.2691 -2.5739 -0.6559
  775MOL0     O 2169   8.272   1.336   7.663  0.5224 -0.2117 -0.0024
  775MOL0     C 2170   8.341   1.336   7.770  0.4092  0.1539 -0.5882
  775MOL0     O 2171   8.301   1.354   7.900  0.3499 -0.2309  0.2528
  775MOL0     C 2172   8.172   1.375   7.932 -0.4849  0.5972  0.3448
  775MOL0     C 2173   8.158   1.441   8.053  0.4490  0.1865  0.3086
  775MOL0     C 2174   8.031   1.483   8.097  0.9434 -0.0751  0.7099
  775MOL0     C 2175   7.911   1.456   8.025 -0.2095  0.3224 -0.4336
  775MOL0     O 2176   7.783   1.482   8.070 -0.7897  0.0445  0.4967
  775MOL0     C 2177   7.766   1.558   8.195 -0.0067 -0.1017  0.2453
  775MOL0     C 2178   7.636   1.615   8.204 -0.1615 -0.2368  0.1651
  775MOL0     C 2179   7.524   1.508   8.244 -0.0306 -0.7474  0.0533
  775MOL0     C 2180   7.394   1.580   8.266 -1.0401  0.2399 -0.3408
  775MOL0     C 2181   7.286   1.487   8.335 -0.0840 -0.9694  0.4534
  775MOL0     C 2182   7.307   1.442   8.485 -0.7678 -0.2820  0.1027
  775MOL0     C 2183   7.202   1.353   8.538 -0.1343 -0.3971  0.9082
  775MOL0     C 2184   7.080   1.424   8.596 -0.2022  0.1449  0.0322
  775MOL0     N 2185   7.002   1.337   8.688  0.0682  0.4396 -0.1343
  775MOL0     C 2186   6.871   1.296   8.653  1.0759  0.3625  0.6614
  775MOL0     C 2187   6.831   1.238   8.767 -0.5444  0.3044  0.6748
  775MOL0     C 2188   6.697   1.189   8.793  0.1089 -0.0776  0.1267
  775MOL0     C 2189   6.599   1.221   8.677  0.3037 -0.1256 -0.6974
  775MOL0     C 2190   6.456   1.158   8.675 -0.1664  0.1044 -0.1042
  775MOL0     C 2191   6.378   1.168   8.808 -0.8651 -1.1012  0.4595
  775MOL0     O 2192   6.357   1.318   8.816 -0.5208 -0.1347  0.3937
  775MOL0     C 2193   6.245   1.378   8.761 -0.1556 -0.2146 -0.3484
  775MOL0     C 2194   6.240   1.518   8.766  0.6277  0.3659 -0.3306
  775MOL0     C 2195   6.131   1.586   8.708  0.5419 -0.0011 -0.1327
  775MOL0     C 2196   6.027   1.517   8.654 -0.4499  0.9481  1.0343
  775MOL0     C 2197   5.899   1.584   8.614 -0.1843  0.1318  0.7288
  775MOL0     O 2198   5.796   1.495   8.584 -0.8534  0.5232 -0.5949
  775MOL0     C 2199   5.669   1.528   8.541 -0.6502 -0.0412 -0.4268
  775MOL0     C 2200   5.619   1.651   8.510 -0.0257 -0.3869  0.1142
  775MOL0     C 2201   5.483   1.663   8.491  0.5400 -0.1151  0.2650
  775MOL0     C 2202   5.399   1.554   8.497  0.5666  0.3338  0.7068
  775MOL0     O 2203   5.268   1.577   8.452  0.4199  0.1573  0.1179
  775MOL0     C 2204   5.170   1.465   8.468  0.1832 -0.6560  0.1681
  775MOL0     C 2205   5.032   1.526   8.470 -0.1641 -0.9489 -1.0101
  775MOL0     C 2206   4.938   1.430   8.530  0.3208  0.2482 -0.3218
  775MOL0     C 2207   4.929   1.296   8.464  0.0558  0.1442  0.9580
  775MOL0     C 2208   4.802   1.219   8.504 -1.0099  0.1479  1.4100
  775MOL0     C 2209   4.811   1.164   8.652  0.4493  0.6481  0.2739
  775MOL0     C 2210   4.689   1.090   8.701 -0.1431 -0.5685  0.1333
  775MOL0     C 2211   4.706   1.049   8.850 -1.0239 -0.5994 -0.9338
  775MOL0    Cl 2212   4.576   0.937   8.910 -0.1719 -0.0393  0.2747
  775MOL0     C 2213   5.451   1.423   8.507  0.1322  0.0953  1.0461
  775MOL0     C 2214   5.587   1.410   8.535 -0.6113 -0.3133 -0.2114
  775MOL0     O 2215   5.882   1.708   8.640 -0.5726  0.7365  0.2187
  775MOL0     C 2216   6.028   1.370   8.651  0.3489  1.4404 -0.3922
  775MOL0     C 2217   6.144   1.299   8.701  0.7774 -0.3350 -0.0380
  775MOL0     N 2218   6.925   1.244   8.865 -0.4879  0.5785  0.2148
  775MOL0     N 2219   7.035   1.307   8.816 -0.1291  0.0628  0.1698
  775MOL0     C 2220   7.928   1.382   7.909 -0.0454  0.2019  0.1775
  775MOL0     C 2221   8.055   1.350   7.857 -0.3501  0.5416 -0.1604
  775MOL0     C 2222   8.485   1.307   7.749 -0.3942  0.1386 -1.1425
  775MOL0     C 2223   8.552   1.302   7.625 -0.2442 -0.2348 -0.8716
  775MOL0     C 2224   8.689   1.282   7.617  0.8840  0.2556  0.4289
  775MOL0     C 2225   8.768   1.253   7.728 -0.1063 -0.0099  0.1082
  775MOL0     O 2226   8.901   1.215   7.710 -0.7105 -0.7831 -0.2589
  775MOL0     C 2227   8.987   1.171   7.821  0.7374  0.3620 -0.5607
  775MOL0     C 2228   9.113   1.085   7.781 -0.3806  0.2127  0.2658
  775MOL0     C 2229   9.091   0.973   7.664  0.3534 -0.0069 -0.5886
  775MOL0     C 2230   9.180   1.006   7.547 -0.1593 -0.6268 -0.3656
  775MOL0     C 2231   9.321   0.990   7.590 -0.3971 -0.5532  0.9507
  775MOL0     C 2232   9.441   1.006   7.606  0.0511  0.5527  0.5260
  775MOL0     C 2233   8.708   1.279   7.859 -0.0320  1.1803  0.7285
  775MOL0     C 2234   8.568   1.293   7.866 -0.2670 -0.2811 -0.1921
  775MOL0     H 2235   8.248   1.458   8.112  1.3053 -0.7627 -0.6701
  775MOL0     H 2236   8.029   1.536   8.192 -3.8352  0.8607  0.3054
  775MOL0     H 2237   7.831   1.646   8.196 -2.1169  1.5607  1.9696
  775MOL0     H 2238   7.788   1.492   8.280  1.3015  0.0333  0.0284
  775MOL0     H 2239   7.612   1.660   8.107 -1.0880  1.3766  1.1137
  775MOL0     H 2240   7.632   1.696   8.277 -0.5712 -0.1639  0.0665
  775MOL0     H 2241   7.562   1.453   8.331  1.5102 -1.0872 -0.7936
  775MOL0     H 2242   7.509   1.431   8.168 -2.0836 -2.6414  2.2251
  775MOL0     H 2243   7.409   1.659   8.340 -0.6115  0.2192 -0.4034
  775MOL0     H 2244   7.352   1.604   8.168  1.1662  2.6143 -0.8147
  775MOL0     H 2245   7.263   1.404   8.268  0.7617  0.1891 -1.3345
  775MOL0     H 2246   7.200   1.555   8.333  0.1123 -0.7470 -0.6102
  775MOL0     H 2247   7.337   1.520   8.556  1.4970 -1.5418  0.6366
  775MOL0     H 2248   7.395   1.377   8.476 -1.5296 -1.2974 -0.1944
  775MOL0     H 2249   7.182   1.286   8.454 -0.6542 -0.5631  1.1651
  775MOL0     H 2250   7.237   1.287   8.618 -1.2420 -1.5366  0.4790
  775MOL0     H 2251   7.013   1.450   8.514  0.8100  1.4132 -0.4194
  775MOL0     H 2252   7.118   1.515   8.642 -1.8037  0.7262  0.2533
  775MOL0     H 2253   6.810   1.318   8.566 -0.8056 -0.1409  1.8014
  775MOL0     H 2254   6.657   1.245   8.878  0.4767  3.4696 -1.8643
  775MOL0     H 2255   6.702   1.081   8.815 -0.0176 -0.3631 -1.1781
  775MOL0     H 2256   6.653   1.186   8.588  2.3999  2.0121 -0.3598
  775MOL0     H 2257   6.587   1.329   8.686 -0.3765 -0.3169  0.9989
  775MOL0     H 2258   6.386   1.197   8.601  0.7064  1.5791 -0.1902
  775MOL0     H 2259   6.457   1.051   8.654 -1.3601 -0.4883  2.4011
  775MOL0     H 2260   6.445   1.125   8.884 -0.4269 -2.8573 -0.8429
  775MOL0     H 2261   6.284   1.112   8.807 -0.0004 -2.6578 -1.4947
  775MOL0     H 2262   6.321   1.581   8.801 -0.3207  0.9119  0.9774
  775MOL0     H 2263   6.131   1.695   8.710 -0.7894  0.1703 -3.2619
  775MOL0     H 2264   5.687   1.730   8.483  1.5501 -1.8873 -0.4461
  775MOL0     H 2265   5.451   1.762   8.462  0.6821 -0.9074 -3.0231
  775MOL0     H 2266   5.185   1.423   8.568 -5.4102  0.0852  1.6177
  775MOL0     H 2267   5.180   1.385   8.394 -0.9828 -0.8918  0.2424
  775MOL0     H 2268   5.004   1.558   8.369  0.8743  0.4429 -0.8801
  775MOL0     H 2269   5.034   1.619   8.527 -0.9177 -0.2340 -2.1137
  775MOL0     H 2270   4.836   1.470   8.530  1.3638  3.4161  2.6520
  775MOL0     H 2271   4.957   1.429   8.638 -1.7595  2.1020  0.1268
  775MOL0     H 2272   4.942   1.299   8.355  0.7756 -1.2301  0.9809
  775MOL0     H 2273   5.016   1.238   8.495  1.3242  0.2842 -1.9438
  775MOL0     H 2274   4.797   1.134   8.435  3.1773  1.3978 -0.7940
  775MOL0     H 2275   4.717   1.285   8.484  1.7038  3.4441 -0.3286
  775MOL0     H 2276   4.828   1.239   8.729  2.2016 -1.4510  2.0697
  775MOL0     H 2277   4.896   1.095   8.646  1.1457  1.5841 -1.1974
  775MOL0     H 2278   4.598   1.148   8.685 -0.1449 -0.0966  1.6475
  775MOL0     H 2279   4.686   0.993   8.650  2.9573  0.2587 -1.8976
  775MOL0     H 2280   4.699   1.127   8.926 -1.0574 -3.3695  2.1542
  775MOL0     H 2281   4.803   1.001   8.870 -2.2672 -2.5496  0.8358
  775MOL0     H 2282   5.389   1.337   8.487  1.1102 -0.5872  0.8953
  775MOL0     H 2283   5.636   1.314   8.549  0.9048  0.7400  2.4356
  775MOL0     H 2284   5.937   1.316   8.624  0.8613 -0.3127  1.1586
  775MOL0     H 2285   6.136   1.194   8.677 -0.9044 -0.5136  1.0952
  775MOL0     H 2286   7.835   1.353   7.860  0.6247 -0.4143 -0.7817
  775MOL0     H 2287   8.065   1.314   7.755  0.7297 -0.7241  0.3813
  775MOL0     H 2288   8.501   1.323   7.532  1.0520  1.3071 -1.2928
  775MOL0     H 2289   8.731   1.289   7.517 -2.6667  2.2708 -1.0894
  775MOL0     H 2290   8.928   1.102   7.882  0.7417  1.0069  0.1925
  775MOL0     H 2291   9.027   1.249   7.887  0.9742 -0.4754  0.3261
  775MOL0     H 2292   9.194   1.151   7.748  1.0951 -1.8103 -0.3670
  775MOL0     H 2293   9.156   1.037   7.869 -0.9997 -1.5748 -0.3727
  775MOL0     H 2294   8.990   0.979   7.621  0.4112 -0.0480 -0.7342
  775MOL0     H 2295   9.103   0.869   7.695  1.0345  0.7347  1.8492
  775MOL0     H 2296   9.162   0.946   7.458  1.2390  0.2649 -1.2864
  775MOL0     H 2297   9.165   1.106   7.505  0.5872 -0.3648 -0.0363
  775MOL0     H 2298   9.547   1.024   7.603  0.3417 -1.1787 -0.9679
  775MOL0     H 2299   8.765   1.267   7.950  0.8354  2.5479  0.3926
  775MOL0     H 2300   8.520   1.291   7.964 -0.5387 -4.2103 -0.2790
  776MOL0     O 2301   9.732   5.006  10.457  0.4348 -0.0877 -0.5621
  776MOL0     C 2302   9.720   4.892  10.504  0.6169 -0.1105  0.7720
  776MOL0     O 2303   9.816   4.794  10.499  0.6863  0.1951  0.2809
  776MOL0     C 2304   9.950   4.808  10.469  0.3028  0.1705  0.1527
  776MOL0     C 2305  10.018   4.933  10.475 -0.2267 -0.1147 -0.6286
  776MOL0     C 2306  10.159   4.942  10.457  0.3864  0.2632  0.7462
  776MOL0     C 2307  10.232   4.826  10.439 -0.2172  0.8212 -0.4370
  776MOL0     O 2308  10.366   4.844  10.413 -0.2416  0.3667 -0.5240
  776MOL0     C 2309  10.454   4.755  10.484  0.2106 -0.4773  1.3330
  776MOL0     C 2310  10.580   4.821  10.488 -0.8341 -0.4499 -0.3087
  776MOL0     C 2311  10.676   4.722  10.554 -1.3168 -0.0316  0.0020
  776MOL0     C 2312  10.812   4.783  10.570  0.8179 -0.1307  0.3263
  776MOL0     C 2313  10.922   4.691  10.602  0.4267 -0.6770 -0.5930
  776MOL0     C 2314  11.000   4.644  10.477 -0.0692 -0.5972  0.1643
  776MOL0     C 2315  11.100   4.535  10.515 -0.7521 -0.4739 -0.5893
  776MOL0     C 2316  11.239   4.600  10.535  0.1241  1.3065 -0.2620
  776MOL0     N 2317  11.345   4.499  10.541 -0.0061  0.3062 -0.4367
  776MOL0     C 2318  11.366   4.414  10.649  0.6723  0.2905 -0.1001
  776MOL0     C 2319  11.493   4.370  10.635 -0.0492 -0.2742  0.3282
  776MOL0     C 2320  11.570   4.294  10.740  0.3904 -0.5706  0.1254
  776MOL0     C 2321  11.711   4.240  10.702  0.4343 -0.9554  0.7925
  776MOL0     C 2322  11.756   4.134  10.804 -0.7215  0.1453  0.7199
  776MOL0     C 2323  11.888   4.056  10.772 -0.7385 -0.5672 -0.3268
  776MOL0     O 2324  12.015   4.123  10.798  0.0626 -0.5598 -0.1419
  776MOL0     C 2325  12.124   4.037  10.823  0.3756  0.6202 -0.1735
  776MOL0     C 2326  12.236   4.091  10.887  0.0295 -0.5168 -0.9663
  776MOL0     C 2327  12.347   4.012  10.916  0.1281 -0.0623  1.2852
  776MOL0     C 2328  12.356   3.871  10.877 -0.1792  0.1654 -0.2073
  776MOL0     C 2329  12.479   3.784  10.911 -0.1095 -0.2173  0.8864
  776MOL0     O 2330  12.483   3.657  10.867 -0.1768 -0.3914  0.0787
  776MOL0     C 2331  12.592   3.579  10.907 -0.0777  0.7519 -0.0920
  776MOL0     C 2332  12.574   3.450  10.952  0.2275 -0.6598  0.2965
  776MOL0     C 2333  12.687   3.371  10.988 -0.1536  0.1213  0.1671
  776MOL0     C 2334  12.814   3.393  10.933  0.1772  0.1732  0.1412
  776MOL0     O 2335  12.920   3.305  10.942  0.3102  0.8339  1.0156
  776MOL0     C 2336  12.926   3.217  11.052  0.8632  0.8993 -0.1521
  776MOL0     C 2337  13.060   3.149  11.073  0.3951 -0.0491 -0.0801
  776MOL0     C 2338  13.080   3.060  10.947 -0.1291 -0.4406 -0.4539
  776MOL0     C 2339  13.222   3.011  10.940  0.8829 -0.0138  0.0618
  776MOL0     C 2340  13.244   2.927  10.802 -1.4635 -0.4587 -0.0703
  776MOL0     C 2341  13.394   2.890  10.784  0.0224  0.3044  0.6394
  776MOL0     C 2342  13.410   2.793  10.658 -0.7315  0.0866 -0.4977
  776MOL0     C 2343  13.364   2.653  10.684  0.4755 -0.1461 -0.0222
  776MOL0    Cl 2344  13.470   2.563  10.795  0.6309  0.3882 -0.0892
  776MOL0     C 2345  12.825   3.521  10.870 -0.4963 -0.2981  0.2988
  776MOL0     C 2346  12.716   3.609  10.850 -0.7230 -1.0013 -0.9322
  776MOL0     O 2347  12.550   3.829  10.995 -0.3610 -0.0122 -0.4602
  776MOL0     C 2348  12.249   3.820  10.803  0.1639  0.3538  0.0877
  776MOL0     C 2349  12.136   3.902  10.775  0.2767  0.1029  0.4493
  776MOL0     N 2350  11.559   4.435  10.532  0.2710 -0.1073  0.8855
  776MOL0     N 2351  11.466   4.504  10.476 -1.0290 -0.1205  0.9758
  776MOL0     C 2352  10.169   4.706  10.445  0.1783  1.7802 -0.8242
  776MOL0     C 2353  10.032   4.694  10.454 -0.5772 -0.1282 -0.1542
  776MOL0     C 2354   9.582   4.860  10.551 -0.3255  0.1181  0.6145
  776MOL0     C 2355   9.544   4.721  10.580 -0.6269 -0.0803 -0.4580
  776MOL0     C 2356   9.413   4.698  10.631  0.1277  0.1132 -0.0565
  776MOL0     C 2357   9.312   4.800  10.634 -1.2565  0.0681  1.2651
  776MOL0     O 2358   9.182   4.759  10.658  0.0107 -0.4354  0.3638
  776MOL0     C 2359   9.085   4.872  10.649  0.0241  0.5453 -1.2630
  776MOL0     C 2360   8.956   4.833  10.703 -0.1508  0.4726  0.4408
  776MOL0     C 2361   8.884   4.751  10.596  0.2157 -0.0599  0.3460
  776MOL0     C 2362   8.816   4.832  10.482  0.8007 -0.3608  0.4437
  776MOL0     C 2363   8.676   4.858  10.535 -1.2658  0.8256  0.1798
  776MOL0     C 2364   8.567   4.879  10.589  0.2982 -0.3513 -0.2364
  776MOL0     C 2365   9.362   4.924  10.615  0.2026 -1.1271 -0.8329
  776MOL0     C 2366   9.489   4.954  10.571  0.4335 -0.0337  1.0011
  776MOL0     H 2367   9.961   5.024  10.493  1.6912  1.2234 -1.0177
  776MOL0     H 2368  10.207   5.040  10.463 -0.5378  0.6744  1.7890
  776MOL0     H 2369  10.453   4.664  10.423  1.8052  1.1641 -1.3219
  776MOL0     H 2370  10.419   4.744  10.587 -0.2124  0.8958  1.3475
  776MOL0     H 2371  10.576   4.905  10.558  0.9043 -0.5971  0.0121
  776MOL0     H 2372  10.619   4.862  10.395 -2.8766  1.4611 -0.3992
  776MOL0     H 2373  10.682   4.631  10.493 -0.6401  0.6347 -0.9610
  776MOL0     H 2374  10.649   4.695  10.656  3.1987  1.8284  1.9411
  776MOL0     H 2375  10.835   4.831  10.475  1.3227 -1.4017 -0.1970
  776MOL0     H 2376  10.815   4.858  10.650  2.0368  0.1052  0.0792
  776MOL0     H 2377  10.882   4.605  10.656  2.0343 -0.9298  0.2694
  776MOL0     H 2378  10.987   4.729  10.682 -2.3796 -0.0109  1.5048
  776MOL0     H 2379  11.038   4.726  10.415  0.2571 -1.1387 -0.3627
  776MOL0     H 2380  10.933   4.589  10.410  0.5315  0.8410 -1.7038
  776MOL0     H 2381  11.071   4.487  10.609 -0.3389  1.5138  0.6174
  776MOL0     H 2382  11.102   4.456  10.438  0.3220 -0.9297 -0.1197
  776MOL0     H 2383  11.236   4.668  10.621 -1.9237  2.3524 -1.0888
  776MOL0     H 2384  11.264   4.654  10.443 -3.1722  2.1106 -0.8007
  776MOL0     H 2385  11.296   4.383  10.726  2.0513 -1.0915  0.6749
  776MOL0     H 2386  11.498   4.213  10.756  0.0020  0.4247  4.4820
  776MOL0     H 2387  11.569   4.346  10.836  0.5888  1.7184 -1.0195
  776MOL0     H 2388  11.784   4.321  10.705 -2.3470  1.6925  3.3803
  776MOL0     H 2389  11.709   4.191  10.604  1.3166 -0.0938  0.3277
  776MOL0     H 2390  11.754   4.170  10.907  0.8242  0.1034  0.7872
  776MOL0     H 2391  11.678   4.057  10.801  0.6457 -1.2674 -0.3606
  776MOL0     H 2392  11.907   4.020  10.670  1.0543 -0.9649  0.1053
  776MOL0     H 2393  11.883   3.962  10.827 -0.6441 -1.1083 -1.2129
  776MOL0     H 2394  12.232   4.192  10.927  1.9824  0.6073 -3.3346
  776MOL0     H 2395  12.429   4.057  10.970 -0.2546  1.1884  0.8600
  776MOL0     H 2396  12.473   3.425  10.983 -0.2122  0.3292 -0.2827
  776MOL0     H 2397  12.664   3.284  11.049 -1.6505 -1.4316 -2.4386
  776MOL0     H 2398  12.854   3.141  11.019  1.7565  0.5178 -1.2591
  776MOL0     H 2399  12.902   3.270  11.145  1.3951  2.3198 -0.8020
  776MOL0     H 2400  13.063   3.080  11.158  2.2510  0.8382  0.6201
  776MOL0     H 2401  13.141   3.219  11.096  1.8558 -1.1870 -1.5167
  776MOL0     H 2402  13.061   3.120  10.857 -1.5029  0.6469  0.5291
  776MOL0     H 2403  13.013   2.974  10.938 -2.0856  1.1724 -3.0694
  776MOL0     H 2404  13.290   3.096  10.954  2.6109 -1.3070 -0.1845
  776MOL0     H 2405  13.239   2.943  11.024  0.0074 -1.9254 -1.2400
  776MOL0     H 2406  13.206   2.980  10.714  2.5835  0.3320 -1.5426
  776MOL0     H 2407  13.188   2.833  10.808 -2.5281  0.1819  0.2755
  776MOL0     H 2408  13.427   2.833  10.871 -0.1116  1.5938  1.5589
  776MOL0     H 2409  13.464   2.973  10.769  1.4955 -1.0547 -0.3315
  776MOL0     H 2410  13.352   2.832  10.573 -0.5533  1.7392  0.0904
  776MOL0     H 2411  13.511   2.799  10.616 -0.5896 -0.9927 -0.3339
  776MOL0     H 2412  13.366   2.595  10.591 -0.7756 -0.5847  0.1994
  776MOL0     H 2413  13.260   2.653  10.717  0.8263 -1.4501  1.1910
  776MOL0     H 2414  12.922   3.554  10.834 -1.2104  1.0793 -0.4251
  776MOL0     H 2415  12.742   3.701  10.798 -0.2747 -0.0404  0.8907
  776MOL0     H 2416  12.253   3.723  10.754  0.8049  0.5061 -0.1641
  776MOL0     H 2417  12.059   3.867  10.706  0.4191  0.9543 -0.1546
  776MOL0     H 2418  10.219   4.610  10.457 -3.3591  0.0586  1.7147
  776MOL0     H 2419   9.985   4.597  10.443  0.9021 -0.7687 -1.0368
  776MOL0     H 2420   9.609   4.635  10.572 -1.1471 -0.4978 -0.2374
  776MOL0     H 2421   9.384   4.600  10.668 -1.0662 -0.5662 -2.5565
  776MOL0     H 2422   9.079   4.917  10.550  1.0994 -0.3002 -1.7254
  776MOL0     H 2423   9.118   4.946  10.723  1.1624 -0.1479 -1.0529
  776MOL0     H 2424   8.974   4.778  10.796  0.5069 -2.5587 -1.3320
  776MOL0     H 2425   8.900   4.925  10.724 -1.5601 -1.0124  3.8081
  776MOL0     H 2426   8.812   4.685  10.646  0.7692 -0.3676  0.7469
  776MOL0     H 2427   8.959   4.678  10.564  2.5089  1.9923  0.7233
  776MOL0     H 2428   8.871   4.926  10.474 -1.5520  1.1616  0.8462
  776MOL0     H 2429   8.795   4.786  10.386 -0.4625 -2.8351  1.7938
  776MOL0     H 2430   8.483   4.904  10.651  3.2207  1.5269  3.3497
  776MOL0     H 2431   9.301   5.013  10.628  0.8832 -0.5118 -1.7277
  776MOL0     H 2432   9.518   5.056  10.547  0.5777 -0.6923 -2.0418
  777MOL0     O 2433   3.401   1.307   8.588  0.0596  0.6421 -0.5734
  777MOL0     C 2434   3.427   1.430   8.595  0.2884 -0.1782  0.6594
  777MOL0     O 2435   3.546   1.490   8.588  0.2484  0.4601  0.0615
  777MOL0     C 2436   3.659   1.413   8.560  0.3188 -0.5273 -0.7218
  777MOL0     C 2437   3.731   1.425   8.443 -0.2426  1.2321  0.8418
  777MOL0     C 2438   3.834   1.340   8.417 -0.5494  0.6026 -0.3473
  777MOL0     C 2439   3.888   1.253   8.514  0.9831 -0.0613  0.2308
  777MOL0     O 2440   4.004   1.179   8.478  0.3732 -1.2129  0.0306
  777MOL0     C 2441   4.088   1.134   8.594 -0.1754 -0.4608  0.7793
  777MOL0     C 2442   4.214   1.065   8.535 -0.2646 -0.1022  0.5893
  777MOL0     C 2443   4.331   1.158   8.503 -0.0581 -0.3831 -0.0910
  777MOL0     C 2444   4.317   1.256   8.378  2.1143  1.1049 -0.4116
  777MOL0     C 2445   4.260   1.389   8.424  0.0062  0.4724 -0.3697
  777MOL0     C 2446   4.361   1.478   8.497  1.0372 -0.3619  0.8406
  777MOL0     C 2447   4.461   1.543   8.399  0.2608 -1.1565 -0.3668
  777MOL0     C 2448   4.588   1.587   8.473 -0.5310 -0.2932  0.3108
  777MOL0     N 2449   4.559   1.703   8.559 -0.8504  0.2916  0.2497
  777MOL0     C 2450   4.537   1.837   8.522 -0.0172  0.4580 -0.1223
  777MOL0     C 2451   4.501   1.891   8.641  0.7523 -0.0048  0.7336
  777MOL0     C 2452   4.450   2.035   8.651  0.6698  0.0867  0.6318
  777MOL0     C 2453   4.319   2.041   8.573  1.1203  0.4316 -0.4003
  777MOL0     C 2454   4.255   2.181   8.577 -0.1303  0.0411  0.2297
  777MOL0     C 2455   4.117   2.192   8.513 -0.3010  0.8344  1.0961
  777MOL0     O 2456   4.037   2.081   8.547  0.0548  0.9897 -0.8613
  777MOL0     C 2457   3.902   2.099   8.549  0.1395  0.4077 -0.2937
  777MOL0     C 2458   3.828   2.166   8.457 -0.4934 -0.1120 -0.3100
  777MOL0     C 2459   3.689   2.168   8.468  1.2461 -0.1820  0.5957
  777MOL0     C 2460   3.618   2.092   8.565  0.7789 -0.0915 -0.4292
  777MOL0     C 2461   3.463   2.103   8.551 -0.3118 -1.1203  0.3743
  777MOL0     O 2462   3.402   2.179   8.454 -0.5745 -0.3205  0.3688
  777MOL0     C 2463   3.266   2.207   8.468  0.7209 -0.1007  0.4047
  777MOL0     C 2464   3.190   2.184   8.353 -0.2686  0.9298 -0.6502
  777MOL0     C 2465   3.054   2.196   8.363  0.3827  1.3815 -0.7968
  777MOL0     C 2466   2.981   2.222   8.478 -0.6412  0.0299  0.8734
  777MOL0     O 2467   2.840   2.231   8.463  0.4025 -0.2376 -0.1809
  777MOL0     C 2468   2.770   2.258   8.582  0.2625 -0.4270  0.2236
  777MOL0     C 2469   2.617   2.223   8.571 -0.2267  0.0248  0.5881
  777MOL0     C 2470   2.541   2.320   8.481 -0.3002  0.1091  0.3676
  777MOL0     C 2471   2.394   2.276   8.457  0.5688  0.3444  0.4481
  777MOL0     C 2472   2.307   2.374   8.374 -0.8785 -0.5891 -0.9061
  777MOL0     C 2473   2.275   2.499   8.455 -0.4197 -0.2413  0.3472
  777MOL0     C 2474   2.147   2.565   8.407  0.4792  1.0984 -0.2344
  777MOL0     C 2475   2.106   2.693   8.487 -0.1932 -0.4611  0.1707
  777MOL0    Cl 2476   2.075   2.672   8.659  0.4293  0.0175 -0.4368
  777MOL0     C 2477   3.061   2.247   8.597  1.2543 -0.4153 -1.0162
  777MOL0     C 2478   3.202   2.238   8.590 -0.6754  0.0517 -0.0832
  777MOL0     O 2479   3.408   2.018   8.621  0.1220 -0.4076  0.1127
  777MOL0     C 2480   3.694   2.039   8.667 -0.2905 -0.5774  0.2477
  777MOL0     C 2481   3.835   2.035   8.650  0.5088  0.8420 -0.2407
  777MOL0     N 2482   4.511   1.797   8.743 -0.4020 -0.3140  0.0045
  777MOL0     N 2483   4.548   1.682   8.694 -0.0843 -0.7203  0.7224
  777MOL0     C 2484   3.814   1.240   8.639  0.0024 -0.0718 -0.2296
  777MOL0     C 2485   3.703   1.327   8.662 -0.2227 -0.3339  0.3838
  777MOL0     C 2486   3.310   1.516   8.633 -0.1907  0.3412  0.6250
  777MOL0     C 2487   3.321   1.659   8.643  0.0648  0.4785  0.0350
  777MOL0     C 2488   3.214   1.734   8.677  0.4636 -1.4740  0.5183
  777MOL0     C 2489   3.091   1.671   8.697  0.3827  0.0479  0.5077
  777MOL0     O 2490   2.970   1.741   8.716  0.4023  0.0309 -0.5977
  777MOL0     C 2491   2.976   1.871   8.775  1.1503 -0.4314  0.6247
  777MOL0     C 2492   2.833   1.898   8.805 -0.0438 -0.1666 -0.2526
  777MOL0     C 2493   2.735   1.873   8.695 -0.0640  0.7114 -0.2956
  777MOL0     C 2494   2.600   1.906   8.750  0.1089  0.4914 -0.3241
  777MOL0     C 2495   2.483   1.897   8.654  0.7096 -0.3324  0.6754
  777MOL0     C 2496   2.399   1.889   8.563 -0.9889  0.0733 -0.4074
  777MOL0     C 2497   3.077   1.539   8.683  0.1268  0.9499  0.0702
  777MOL0     C 2498   3.190   1.465   8.653  0.3427  0.5161 -0.1075
  777MOL0     H 2499   3.692   1.505   8.380 -1.1277 -2.0161 -3.1861
  777MOL0     H 2500   3.875   1.342   8.316 -1.1440 -1.1367 -0.6451
  777MOL0     H 2501   4.034   1.066   8.661 -1.0285  0.6474  1.2506
  777MOL0     H 2502   4.115   1.224   8.649  0.9025  1.8941 -3.2031
  777MOL0     H 2503   4.187   1.001   8.451  2.6269  1.8133 -2.0288
  777MOL0     H 2504   4.262   1.002   8.611  0.9892  0.2333  0.1082
  777MOL0     H 2505   4.411   1.085   8.488 -1.3784 -1.9239  0.2041
  777MOL0     H 2506   4.344   1.224   8.590  0.0335 -1.0222  0.3826
  777MOL0     H 2507   4.416   1.272   8.334  2.5878 -0.3340  0.0622
  777MOL0     H 2508   4.252   1.203   8.307 -0.7768  0.4104  2.5253
  777MOL0     H 2509   4.172   1.374   8.488  1.7171  0.5078  2.1322
  777MOL0     H 2510   4.220   1.438   8.335  1.2919 -1.1815 -1.9514
  777MOL0     H 2511   4.404   1.421   8.580 -2.5328 -0.8611  2.5316
  777MOL0     H 2512   4.307   1.564   8.539  2.1938  0.8088  0.0015
  777MOL0     H 2513   4.491   1.470   8.323  0.8707  0.8515 -2.1300
  777MOL0     H 2514   4.417   1.630   8.350  0.2145 -0.5782  0.6556
  777MOL0     H 2515   4.661   1.615   8.397 -1.0601 -0.0820 -0.1232
  777MOL0     H 2516   4.635   1.516   8.542  3.2528  3.2398  1.8292
  777MOL0     H 2517   4.548   1.890   8.428 -0.9963  0.7182 -0.1051
  777MOL0     H 2518   4.526   2.104   8.613  0.2943 -0.4833 -1.2844
  777MOL0     H 2519   4.425   2.055   8.755 -1.3962  0.5945  0.0866
  777MOL0     H 2520   4.242   1.979   8.619 -0.2389  1.5846 -1.0041
  777MOL0     H 2521   4.338   2.006   8.471  4.2407  1.4917 -0.2785
  777MOL0     H 2522   4.237   2.212   8.680  2.1105 -0.8494  0.9363
  777MOL0     H 2523   4.330   2.246   8.531  0.6269 -2.4477 -2.3831
  777MOL0     H 2524   4.109   2.212   8.406 -3.6758 -0.6678  0.9533
  777MOL0     H 2525   4.075   2.280   8.561  0.8008  2.6491 -1.0744
  777MOL0     H 2526   3.869   2.225   8.375 -1.1305 -0.0245 -0.5711
  777MOL0     H 2527   3.645   2.234   8.394  2.0348 -1.3889 -1.0366
  777MOL0     H 2528   3.236   2.158   8.258  1.8884  0.0112  0.5892
  777MOL0     H 2529   2.994   2.196   8.272 -0.2847  3.0071 -0.3992
  777MOL0     H 2530   2.794   2.364   8.597 -2.5756  0.8812 -3.1200
  777MOL0     H 2531   2.816   2.206   8.666  2.3533  0.4533 -0.3013
  777MOL0     H 2532   2.575   2.210   8.671  2.6699 -0.9093  1.8031
  777MOL0     H 2533   2.607   2.130   8.513 -0.4980 -0.0479  0.7510
  777MOL0     H 2534   2.594   2.326   8.386  3.1018  0.1491  2.1026
  777MOL0     H 2535   2.551   2.418   8.530  2.5090 -0.0509  0.2587
  777MOL0     H 2536   2.402   2.173   8.422 -1.2646 -0.3918  2.0113
  777MOL0     H 2537   2.342   2.261   8.553 -2.7670  0.7117 -1.1653
  777MOL0     H 2538   2.218   2.316   8.346  0.9611 -3.3210 -1.4412
  777MOL0     H 2539   2.359   2.400   8.282 -0.8290  2.7582 -0.0585
  777MOL0     H 2540   2.355   2.573   8.455 -0.1055 -0.3601  4.3081
  777MOL0     H 2541   2.264   2.479   8.562  1.5557 -0.2343  0.5752
  777MOL0     H 2542   2.162   2.593   8.302  2.3022 -0.8122 -0.5544
  777MOL0     H 2543   2.067   2.490   8.413 -0.9282  2.5536  0.0685
  777MOL0     H 2544   2.024   2.747   8.439  0.8901  0.5071 -0.6357
  777MOL0     H 2545   2.190   2.762   8.492 -0.2961  0.2388 -4.1152
  777MOL0     H 2546   3.006   2.270   8.687 -0.1061  1.2117 -2.2167
  777MOL0     H 2547   3.260   2.247   8.682  0.1571  1.6790 -0.7223
  777MOL0     H 2548   3.639   1.991   8.747 -1.6906  2.3867  1.2137
  777MOL0     H 2549   3.886   1.981   8.729 -2.7476 -4.7400 -1.4597
  777MOL0     H 2550   3.843   1.176   8.721 -0.0088  0.2272  0.0111
  777MOL0     H 2551   3.648   1.329   8.755  1.7707  1.0108  1.5964
  777MOL0     H 2552   3.419   1.702   8.625  0.3383 -0.3374 -0.5002
  777MOL0     H 2553   3.239   1.840   8.679  2.0270 -1.6420 -3.0485
  777MOL0     H 2554   3.017   1.947   8.709  1.3163  0.6467  1.9375
  777MOL0     H 2555   3.041   1.872   8.863  0.5688 -2.4777  1.1385
  777MOL0     H 2556   2.803   1.834   8.888 -1.6999  2.1433  1.0414
  777MOL0     H 2557   2.831   2.003   8.836  2.3216  0.3025 -1.4429
  777MOL0     H 2558   2.730   1.766   8.674 -1.2433  0.5590  0.6349
  777MOL0     H 2559   2.749   1.930   8.603 -0.3309 -1.0397 -1.4729
  777MOL0     H 2560   2.576   1.828   8.823 -4.0992  1.4540 -0.4129
  777MOL0     H 2561   2.610   2.001   8.803 -1.1257  0.6424 -0.3130
  777MOL0     H 2562   2.332   1.890   8.479  1.0959  1.1842 -2.1251
  777MOL0     H 2563   2.979   1.494   8.691  0.3415  0.5039  0.2213
  777MOL0     H 2564   3.174   1.358   8.652  1.2066  0.3820 -0.3812
  778MOL0     O 2565   5.020  10.792   0.723  0.5550 -0.0264 -0.3575
  778MOL0     C 2566   5.095  10.821   0.626  0.1352 -0.0029  0.2748
  778MOL0     O 2567   5.056  10.867   0.501 -0.7333 -0.0350 -0.5592
  778MOL0     C 2568   4.921  10.876   0.472 -0.6444 -0.5936 -0.0910
  778MOL0     C 2569   4.857  10.998   0.490 -0.5752 -0.3436 -0.1259
  778MOL0     C 2570   4.718  11.001   0.469 -0.0063 -0.0222 -0.3805
  778MOL0     C 2571   4.644  10.893   0.427 -0.0829  0.5301 -0.8022
  778MOL0     O 2572   4.508  10.900   0.408  0.1371  0.1002 -0.0930
  778MOL0     C 2573   4.426  11.007   0.453  0.7386  0.0032 -0.1630
  778MOL0     C 2574   4.283  10.951   0.428  0.2244  0.1931 -0.4969
  778MOL0     C 2575   4.175  11.061   0.421 -0.4789  0.0586 -0.1003
  778MOL0     C 2576   4.038  11.010   0.406  0.2952  0.3391  0.2718
  778MOL0     C 2577   3.937  11.125   0.417 -1.2369  0.4485 -0.0406
  778MOL0     C 2578   3.795  11.076   0.401 -0.6934  0.4217 -0.6113
  778MOL0     C 2579   3.685  11.172   0.387 -0.6071 -0.0139  0.9202
  778MOL0     C 2580   3.723  11.270   0.273  0.2330 -0.0925 -1.1110
  778MOL0     N 2581   3.604  11.347   0.258  0.1316 -1.1162  0.0794
  778MOL0     C 2582   3.525  11.434   0.341 -1.0796  0.0768 -0.8350
  778MOL0     C 2583   3.415  11.468   0.280 -0.0604  0.0774 -0.2716
  778MOL0     C 2584   3.314  11.563   0.340  0.6509  0.0014  0.2172
  778MOL0     C 2585   3.253  11.542   0.484  0.4405  0.1125 -0.0397
  778MOL0     C 2586   3.137  11.445   0.475  0.0186 -0.1635  0.8025
  778MOL0     C 2587   3.127  11.386   0.610 -1.1462  0.4828  0.5045
  778MOL0     O 2588   3.063  11.476   0.698 -0.3394 -0.5326 -0.0999
  778MOL0     C 2589   2.934  11.467   0.724 -0.1514 -0.2036  0.0300
  778MOL0     C 2590   2.838  11.423   0.631  0.6477  0.2822 -0.4942
  778MOL0     C 2591   2.705  11.397   0.677  0.0964 -0.0856  0.0748
  778MOL0     C 2592   2.664  11.439   0.808  0.5820  0.4398 -0.3265
  778MOL0     C 2593   2.525  11.451   0.845  0.0403 -1.0062  0.5175
  778MOL0     O 2594   2.447  11.349   0.802 -0.5102  0.2894 -0.2491
  778MOL0     C 2595   2.309  11.353   0.817 -0.3683 -0.1965  0.8153
  778MOL0     C 2596   2.262  11.308   0.934 -0.2103  0.1813 -0.1541
  778MOL0     C 2597   2.122  11.315   0.959 -0.2396 -0.0176 -1.0841
  778MOL0     C 2598   2.033  11.377   0.869  0.1941  0.2738 -0.0083
  778MOL0     O 2599   1.899  11.410   0.881 -0.3710 -0.1484  0.7311
  778MOL0     C 2600   1.830  11.369   1.005 -0.3099  0.9003  0.3679
  778MOL0     C 2601   1.693  11.443   1.002 -0.1585  1.2955 -0.1036
  778MOL0     C 2602   1.690  11.552   1.094  0.2133 -0.6961  1.0940
  778MOL0     C 2603   1.544  11.614   1.108 -0.2248  0.0488  0.3502
  778MOL0     C 2604   1.502  11.699   0.984  0.1042  1.3690  0.8839
  778MOL0     C 2605   1.356  11.737   1.003 -0.0735  0.5590 -0.7455
  778MOL0     C 2606   1.300  11.819   0.887  0.0237  0.3489 -0.8707
  778MOL0     C 2607   1.155  11.862   0.919 -0.3093  0.5774 -0.1825
  778MOL0    Cl 2608   1.160  11.974   1.065  0.3639  0.7547  0.0453
  778MOL0     C 2609   2.085  11.415   0.748 -0.5779  0.1810  0.1979
  778MOL0     C 2610   2.224  11.401   0.720  0.5985  0.0310  0.0645
  778MOL0     O 2611   2.485  11.542   0.921 -0.6983  0.3581 -0.7886
  778MOL0     C 2612   2.759  11.478   0.902  1.1917 -0.1593  0.2883
  778MOL0     C 2613   2.886  11.494   0.859  0.2371  0.3845 -0.3818
  778MOL0     N 2614   3.416  11.408   0.156 -0.1813 -0.3372  0.5232
  778MOL0     N 2615   3.532  11.345   0.138 -0.0698 -0.0587  0.0979
  778MOL0     C 2616   4.710  10.777   0.408  0.6741  0.0717  0.6288
  778MOL0     C 2617   4.847  10.766   0.443  0.4119  0.2543  0.7109
  778MOL0     C 2618   5.243  10.818   0.644 -0.1502 -0.6111  0.6685
  778MOL0     C 2619   5.336  10.893   0.566 -0.5951  0.3775  0.2415
  778MOL0     C 2620   5.483  10.888   0.593  0.5429  0.7945 -0.3098
  778MOL0     C 2621   5.524  10.811   0.710  0.5270 -0.7363 -0.2499
  778MOL0     O 2622   5.650  10.807   0.753 -0.7185  0.2924  0.1809
  778MOL0     C 2623   5.714  10.937   0.794 -0.0197  1.3289 -0.0555
  778MOL0     C 2624   5.646  11.012   0.916  0.4767 -0.6829  0.1840
  778MOL0     C 2625   5.677  10.938   1.051 -0.2672 -0.3296  0.1398
  778MOL0     C 2626   5.632  11.008   1.174  0.2511 -0.7781 -0.4873
  778MOL0     C 2627   5.657  11.154   1.180  0.3360  0.2322 -0.9549
  778MOL0     C 2628   5.691  11.267   1.168  0.4716  0.3054 -0.3507
  778MOL0     C 2629   5.437  10.738   0.783  0.3484 -0.5526 -0.3810
  778MOL0     C 2630   5.298  10.741   0.751 -0.0533  0.8497  0.2734
  778MOL0     H 2631   4.897  11.096   0.512  2.1997 -0.8889 -2.1077
  778MOL0     H 2632   4.670  11.096   0.493 -0.9010 -1.1288  2.6912
  778MOL0     H 2633   4.439  11.097   0.392  1.3888 -0.8035 -1.2637
  778MOL0     H 2634   4.444  11.030   0.559  1.4350 -0.5912 -0.1351
  778MOL0     H 2635   4.258  10.883   0.510  1.2352  2.6337  1.9718
  778MOL0     H 2636   4.283  10.900   0.331 -0.4948  3.4804 -2.3794
  778MOL0     H 2637   4.203  11.127   0.338  1.0890  2.1023  1.9272
  778MOL0     H 2638   4.191  11.125   0.508 -1.3901  1.8766 -1.2032
  778MOL0     H 2639   4.032  10.970   0.304 -2.9320  0.8117  0.1652
  778MOL0     H 2640   4.023  10.922   0.469  0.1309 -1.1208 -1.7011
  778MOL0     H 2641   3.959  11.202   0.343  1.1327  0.5332  0.6710
  778MOL0     H 2642   3.950  11.165   0.518 -5.8813 -2.1138  1.8729
  778MOL0     H 2643   3.764  11.029   0.495  0.4592  0.7231 -0.0614
  778MOL0     H 2644   3.797  11.014   0.311  2.6511  1.7475 -1.6339
  778MOL0     H 2645   3.586  11.129   0.372 -0.2605 -1.3712  2.3313
  778MOL0     H 2646   3.674  11.222   0.484  0.6432 -1.9477  2.1283
  778MOL0     H 2647   3.752  11.221   0.180 -1.5953  1.0091 -2.3416
  778MOL0     H 2648   3.809  11.327   0.309  0.4733 -1.1999  0.1343
  778MOL0     H 2649   3.555  11.473   0.438 -3.6393  0.1302  0.0127
  778MOL0     H 2650   3.234  11.577   0.266 -0.9150 -1.2884  1.6042
  778MOL0     H 2651   3.369  11.657   0.338  1.7189 -0.6005  0.6742
  778MOL0     H 2652   3.215  11.639   0.515 -0.3254 -0.1504 -0.1304
  778MOL0     H 2653   3.334  11.503   0.547 -1.1423 -2.1383  0.7519
  778MOL0     H 2654   3.045  11.501   0.460  0.7419  1.0390  0.7209
  778MOL0     H 2655   3.145  11.367   0.399 -1.5667  1.4994 -1.1691
  778MOL0     H 2656   3.224  11.355   0.652 -1.2715  1.6938  1.7497
  778MOL0     H 2657   3.067  11.294   0.612 -4.3339  2.3980 -0.3293
  778MOL0     H 2658   2.854  11.397   0.527  0.5686 -0.8820 -0.2228
  778MOL0     H 2659   2.636  11.360   0.602 -0.8186 -0.2941  0.9874
  778MOL0     H 2660   2.327  11.274   1.014  0.0325 -0.0934 -0.4650
  778MOL0     H 2661   2.087  11.288   1.058  0.9479 -3.4737 -1.4710
  778MOL0     H 2662   1.881  11.395   1.098  0.1332  0.8391  0.1455
  778MOL0     H 2663   1.811  11.262   1.015 -1.6160  1.3107  3.3669
  778MOL0     H 2664   1.628  11.361   1.036  1.8682 -1.2254 -1.8857
  778MOL0     H 2665   1.662  11.463   0.899  2.3197 -0.1961 -1.2463
  778MOL0     H 2666   1.764  11.631   1.078 -0.7006  0.5233  2.6157
  778MOL0     H 2667   1.708  11.500   1.188  0.8859 -3.2251 -0.3365
  778MOL0     H 2668   1.480  11.525   1.109  0.3399 -0.5442 -3.1930
  778MOL0     H 2669   1.539  11.679   1.197 -0.4926 -2.2322  2.0937
  778MOL0     H 2670   1.521  11.640   0.893  1.5454  2.2964  0.5508
  778MOL0     H 2671   1.572  11.783   0.984  1.0482  0.5900  1.0356
  778MOL0     H 2672   1.340  11.791   1.097  0.8415 -0.9555  0.3299
  778MOL0     H 2673   1.291  11.649   1.011  1.6741 -0.7503 -0.5600
  778MOL0     H 2674   1.350  11.911   0.856 -2.1293  0.8204 -3.1996
  778MOL0     H 2675   1.292  11.751   0.802 -0.6652  1.0484 -1.3748
  778MOL0     H 2676   1.100  11.768   0.933  0.9200 -0.2092 -0.4781
  778MOL0     H 2677   1.111  11.919   0.837 -0.1507  0.2124 -0.5203
  778MOL0     H 2678   2.026  11.470   0.675 -0.3120  0.5241  0.2360
  778MOL0     H 2679   2.266  11.425   0.623 -2.0844  1.9063 -0.7488
  778MOL0     H 2680   2.725  11.485   1.005 -1.0815 -1.1793 -0.3451
  778MOL0     H 2681   2.950  11.534   0.937  2.0920 -3.3718  0.2525
  778MOL0     H 2682   4.645  10.698   0.373  1.7726 -1.0401  1.0016
  778MOL0     H 2683   4.909  10.678   0.433  1.7552  1.3716 -1.4779
  778MOL0     H 2684   5.300  10.953   0.484  3.2590 -0.5378 -2.3867
  778MOL0     H 2685   5.557  10.938   0.531  0.7893  1.1321  0.2468
  778MOL0     H 2686   5.705  11.006   0.709  0.6295  2.0917  0.4781
  778MOL0     H 2687   5.822  10.928   0.803 -0.3942 -2.6930  3.0554
  778MOL0     H 2688   5.692  11.111   0.913  1.9168 -1.3316 -0.6235
  778MOL0     H 2689   5.539  11.018   0.895  1.0579  0.9618 -2.9885
  778MOL0     H 2690   5.784  10.918   1.057 -0.4779 -1.2369  1.4269
  778MOL0     H 2691   5.631  10.838   1.049 -0.8363 -0.1259  1.6928
  778MOL0     H 2692   5.524  10.996   1.183  0.0733 -0.6330 -2.1365
  778MOL0     H 2693   5.677  10.951   1.256 -2.2092 -1.9774  0.1120
  778MOL0     H 2694   5.703  11.370   1.142 -3.5045  1.6518  2.1833
  778MOL0     H 2695   5.464  10.679   0.870 -1.6451 -0.7019  0.1826
  778MOL0     H 2696   5.231  10.689   0.819 -0.4169  1.4298  0.3673
  779MOL0     O 2697   1.110   4.331   5.747  0.1824 -1.0557 -0.0765
  779MOL0     C 2698   1.081   4.227   5.688  0.0922  0.1935  0.7743
  779MOL0     O 2699   1.145   4.181   5.582 -0.0317  0.2747  0.1227
  779MOL0     C 2700   1.245   4.262   5.528 -0.5554  0.2343  0.5396
  779MOL0     C 2701   1.354   4.312   5.587 -0.2758  0.4151  0.5627
  779MOL0     C 2702   1.446   4.391   5.517 -0.4518 -0.8710 -0.5385
  779MOL0     C 2703   1.419   4.437   5.388 -0.4370 -0.0654 -0.3547
  779MOL0     O 2704   1.506   4.511   5.307  0.8650 -0.0061  0.1161
  779MOL0     C 2705   1.646   4.519   5.333 -0.4005 -0.1782  0.4619
  779MOL0     C 2706   1.720   4.488   5.199  0.4541  0.4798  0.0857
  779MOL0     C 2707   1.870   4.496   5.214 -1.0075  0.1727  0.1282
  779MOL0     C 2708   1.924   4.636   5.245 -0.1136 -0.1628 -0.1730
  779MOL0     C 2709   2.069   4.641   5.276 -0.0854 -0.0053  0.4601
  779MOL0     C 2710   2.148   4.584   5.154  0.0024 -0.2338 -0.0157
  779MOL0     C 2711   2.296   4.560   5.189 -0.2944  0.5024 -0.7968
  779MOL0     C 2712   2.376   4.689   5.215 -0.2049  0.3363 -0.2594
  779MOL0     N 2713   2.517   4.657   5.265  0.0811  0.4411  0.4419
  779MOL0     C 2714   2.571   4.575   5.362  0.1848  0.4193 -0.2602
  779MOL0     C 2715   2.711   4.599   5.359  0.6395 -0.4853 -0.2325
  779MOL0     C 2716   2.808   4.566   5.467 -1.1322 -0.0811 -0.5536
  779MOL0     C 2717   2.860   4.416   5.459  0.1707 -0.8768  0.5384
  779MOL0     C 2718   2.986   4.410   5.553 -0.2920 -0.7648  0.1451
  779MOL0     C 2719   3.022   4.260   5.572  0.3831 -0.1983  0.3712
  779MOL0     O 2720   2.918   4.186   5.643 -0.7873  0.1451 -0.0773
  779MOL0     C 2721   2.876   4.068   5.600 -0.2425  0.1042  0.0939
  779MOL0     C 2722   2.758   4.011   5.636  0.3953 -0.9989  0.3324
  779MOL0     C 2723   2.704   3.889   5.585  0.4049  0.0506 -0.6215
  779MOL0     C 2724   2.793   3.810   5.502 -0.0905 -0.7774  0.3606
  779MOL0     C 2725   2.750   3.686   5.431  0.0751 -0.6745 -0.4945
  779MOL0     O 2726   2.829   3.640   5.329  0.2105  0.7180  0.1118
  779MOL0     C 2727   2.805   3.519   5.260  0.0145  0.1805 -0.6804
  779MOL0     C 2728   2.836   3.501   5.133  1.0606  0.5414 -1.0565
  779MOL0     C 2729   2.829   3.374   5.071 -0.7416 -1.1153  0.7438
  779MOL0     C 2730   2.793   3.262   5.139  0.0209 -0.1382 -0.2255
  779MOL0     O 2731   2.789   3.147   5.062  0.5095 -0.4480  0.4837
  779MOL0     C 2732   2.792   3.010   5.131 -0.7183  0.2189 -0.2841
  779MOL0     C 2733   2.910   2.930   5.082 -0.1526 -0.1158  0.1269
  779MOL0     C 2734   3.040   2.997   5.143  0.1239  0.4755 -0.1107
  779MOL0     C 2735   3.161   2.907   5.119  0.5491 -0.1186 -0.3771
  779MOL0     C 2736   3.286   2.951   5.186 -0.3428  0.0306 -0.4742
  779MOL0     C 2737   3.404   2.845   5.167  0.2149 -0.5697  0.4547
  779MOL0     C 2738   3.538   2.900   5.203 -0.7299 -0.2365  0.0151
  779MOL0     C 2739   3.648   2.812   5.143 -0.4884 -0.5673  0.1320
  779MOL0    Cl 2740   3.795   2.884   5.211 -0.0904  0.3236 -0.5328
  779MOL0     C 2741   2.756   3.281   5.273 -0.2144 -0.2803  0.1412
  779MOL0     C 2742   2.762   3.410   5.329 -0.3316  0.1753  0.0210
  779MOL0     O 2743   2.642   3.646   5.468  0.3770  0.3878  0.7407
  779MOL0     C 2744   2.923   3.853   5.479 -1.2499 -0.3918 -0.6683
  779MOL0     C 2745   2.961   3.981   5.529 -0.1911  0.3228 -0.2113
  779MOL0     N 2746   2.743   4.676   5.248 -0.0796  0.4300 -0.3374
  779MOL0     N 2747   2.626   4.704   5.195 -0.1816 -0.3910 -1.2639
  779MOL0     C 2748   1.293   4.400   5.338  0.4781 -0.6542 -0.1041
  779MOL0     C 2749   1.211   4.307   5.399 -0.8691  0.2055  0.5874
  779MOL0     C 2750   0.992   4.126   5.765 -0.3806 -0.3452 -0.1275
  779MOL0     C 2751   0.978   3.995   5.713 -0.1387  0.0036 -0.8872
  779MOL0     C 2752   0.920   3.902   5.790 -0.7920 -0.0352  0.2656
  779MOL0     C 2753   0.871   3.926   5.914  0.6730 -0.1388  0.3209
  779MOL0     O 2754   0.827   3.815   5.977 -0.0437 -1.0099  0.0697
  779MOL0     C 2755   0.743   3.844   6.089  0.8045  0.0399  0.0473
  779MOL0     C 2756   0.652   3.723   6.107  0.1758  0.5819  0.1650
  779MOL0     C 2757   0.590   3.665   5.969  0.1065 -0.4241 -0.1492
  779MOL0     C 2758   0.505   3.777   5.895  0.2446 -0.8608 -0.7110
  779MOL0     C 2759   0.394   3.829   5.978  0.3861 -0.5002 -0.4825
  779MOL0     C 2760   0.293   3.872   6.032  0.2411  0.2820  0.1275
  779MOL0     C 2761   0.880   4.060   5.968  0.6474 -0.0847 -0.4997
  779MOL0     C 2762   0.935   4.162   5.890 -0.2398  0.3204  0.0419
  779MOL0     H 2763   1.364   4.286   5.692 -0.2648 -0.9332  0.2451
  779MOL0     H 2764   1.529   4.421   5.580  0.1881 -3.4202 -0.0895
  779MOL0     H 2765   1.673   4.454   5.416 -4.0776 -4.2820 -1.1961
  779MOL0     H 2766   1.661   4.624   5.362 -1.2739 -0.0527  0.5017
  779MOL0     H 2767   1.684   4.566   5.131  0.2208 -0.3004 -0.6954
  779MOL0     H 2768   1.699   4.387   5.162  0.9754  0.2542  0.3853
  779MOL0     H 2769   1.914   4.458   5.121 -1.3874 -1.5397  0.6201
  779MOL0     H 2770   1.907   4.435   5.297  1.4202  1.4165  0.0740
  779MOL0     H 2771   1.906   4.706   5.163 -3.7494  3.5973  3.3424
  779MOL0     H 2772   1.862   4.667   5.330  1.0612  1.7864  0.0266
  779MOL0     H 2773   2.093   4.585   5.367  0.7337  0.6364  0.6465
  779MOL0     H 2774   2.095   4.746   5.292  1.1038 -0.3625  1.0021
  779MOL0     H 2775   2.151   4.659   5.074 -0.6328 -2.2892 -2.0554
  779MOL0     H 2776   2.109   4.495   5.106  0.7256 -0.9275  0.6450
  779MOL0     H 2777   2.307   4.488   5.270 -0.1654  1.3659 -0.0255
  779MOL0     H 2778   2.341   4.510   5.103  0.0655  0.4017 -0.5528
  779MOL0     H 2779   2.319   4.758   5.279  0.6461  0.9553 -0.1467
  779MOL0     H 2780   2.386   4.744   5.121 -1.9001 -1.4717 -1.5840
  779MOL0     H 2781   2.510   4.527   5.438  0.8252 -3.0135 -1.7097
  779MOL0     H 2782   2.764   4.577   5.567 -3.4595 -1.8366 -1.2885
  779MOL0     H 2783   2.900   4.622   5.455 -1.1075 -0.4679 -2.4740
  779MOL0     H 2784   2.889   4.403   5.355  1.5441  1.1548  0.5901
  779MOL0     H 2785   2.776   4.355   5.491 -1.8857  1.8418  0.7232
  779MOL0     H 2786   3.060   4.471   5.501  0.6609 -1.7899  0.2552
  779MOL0     H 2787   2.962   4.457   5.649  0.7329  0.7747 -0.3098
  779MOL0     H 2788   3.115   4.254   5.629  0.7042 -0.0964 -0.1406
  779MOL0     H 2789   3.045   4.222   5.472 -3.2697 -3.0755  0.3975
  779MOL0     H 2790   2.689   4.067   5.697  1.9440 -2.0631  3.2566
  779MOL0     H 2791   2.613   3.837   5.615  1.8337 -1.0929  2.1338
  779MOL0     H 2792   2.885   3.589   5.092  1.4168  3.6267  4.8671
  779MOL0     H 2793   2.878   3.355   4.976  1.1652  0.8296  1.2514
  779MOL0     H 2794   2.703   2.948   5.115 -1.2630  1.1115 -0.8143
  779MOL0     H 2795   2.800   3.036   5.237  1.8464 -3.6681  0.7002
  779MOL0     H 2796   2.925   2.939   4.974  1.1440  0.1278  0.3178
  779MOL0     H 2797   2.890   2.825   5.107  0.7876 -0.5097 -0.7102
  779MOL0     H 2798   3.029   3.019   5.250  0.2873 -0.8985  0.2013
  779MOL0     H 2799   3.060   3.092   5.093  0.7545  4.1172  6.0557
  779MOL0     H 2800   3.153   2.803   5.149  3.8576 -0.2869  0.3496
  779MOL0     H 2801   3.175   2.906   5.010 -0.2548 -0.7169 -0.4830
  779MOL0     H 2802   3.278   2.956   5.295  0.2971 -0.7602 -0.3793
  779MOL0     H 2803   3.305   3.052   5.149  0.5179  0.4453  1.0181
  779MOL0     H 2804   3.403   2.826   5.060 -2.3569  0.5697  0.2055
  779MOL0     H 2805   3.392   2.757   5.230  0.0739 -0.0608  1.1556
  779MOL0     H 2806   3.538   3.004   5.169 -1.9661  1.0874  3.6149
  779MOL0     H 2807   3.554   2.901   5.311 -1.0870 -0.6025  0.0731
  779MOL0     H 2808   3.657   2.816   5.034  0.8850  1.0802  0.2589
  779MOL0     H 2809   3.635   2.707   5.168  0.3148 -1.6429 -3.4484
  779MOL0     H 2810   2.720   3.198   5.333  0.0147  0.1479  0.8810
  779MOL0     H 2811   2.729   3.422   5.432 -1.5296 -0.0021 -0.3244
  779MOL0     H 2812   3.003   3.803   5.424 -0.4543 -0.0597  0.1625
  779MOL0     H 2813   3.062   4.013   5.506 -1.3526  3.0344 -2.0330
  779MOL0     H 2814   1.256   4.450   5.249 -0.2489 -1.3207 -0.1927
  779MOL0     H 2815   1.121   4.276   5.345 -3.3932 -2.3846  5.5727
  779MOL0     H 2816   1.033   3.959   5.627  1.7538 -2.4155  1.1792
  779MOL0     H 2817   0.929   3.803   5.747  2.1796  0.0964  0.3490
  779MOL0     H 2818   0.678   3.932   6.078  1.7091  0.9158  1.4457
  779MOL0     H 2819   0.794   3.861   6.184 -1.9954  0.2512  1.6230
  779MOL0     H 2820   0.720   3.646   6.145 -0.5223  0.0196  0.3050
  779MOL0     H 2821   0.570   3.746   6.175  1.8075  3.6058  1.3116
  779MOL0     H 2822   0.529   3.576   5.988  0.1789 -0.2690  0.8768
  779MOL0     H 2823   0.673   3.632   5.905 -0.5902 -3.6577  0.4187
  779MOL0     H 2824   0.569   3.861   5.868 -2.3154  1.7789  0.8621
  779MOL0     H 2825   0.459   3.724   5.811 -0.5331 -1.1744 -0.1120
  779MOL0     H 2826   0.203   3.898   6.085  0.7236 -0.0163  1.1349
  779MOL0     H 2827   0.846   4.096   6.065  1.5750 -1.8821  0.5666
  779MOL0     H 2828   0.948   4.260   5.933 -0.0173  0.9185 -1.3278
  780MOL0     O 2829   3.368   4.571   6.605  0.1348  0.1528  0.5872
  780MOL0     C 2830   3.485   4.532   6.604 -0.3556 -1.1520  0.5340
  780MOL0     O 2831   3.519   4.403   6.604 -0.3522  0.4865  0.3266
  780MOL0     C 2832   3.419   4.311   6.566  0.3211  0.2123 -1.0221
  780MOL0     C 2833   3.420   4.273   6.433  0.5162  0.4358  0.2415
  780MOL0     C 2834   3.315   4.176   6.389  0.0841 -0.5486 -0.6271
  780MOL0     C 2835   3.217   4.126   6.479  0.2048 -0.5612  0.7542
  780MOL0     O 2836   3.116   4.047   6.430  0.5122 -0.0455  0.2157
  780MOL0     C 2837   3.053   3.951   6.521 -0.1703 -0.0550  0.9293
  780MOL0     C 2838   2.939   3.872   6.448  0.4499 -0.0660 -0.1208
  780MOL0     C 2839   2.804   3.954   6.435  0.4338 -0.1057 -0.1226
  780MOL0     C 2840   2.693   3.880   6.352  0.1472  0.0153 -0.2949
  780MOL0     C 2841   2.581   3.978   6.289 -0.9721 -0.3979 -0.4637
  780MOL0     C 2842   2.472   4.016   6.386 -0.7287 -0.0919 -0.5499
  780MOL0     C 2843   2.391   4.143   6.331  0.0683 -0.8691 -0.4050
  780MOL0     C 2844   2.295   4.106   6.223 -0.1495 -0.1322 -0.2223
  780MOL0     N 2845   2.164   4.051   6.272 -0.0823  0.6571  0.5809
  780MOL0     C 2846   2.135   3.916   6.280  0.0532 -0.3911 -0.9659
  780MOL0     C 2847   2.002   3.901   6.322  0.2472  0.1905 -0.4469
  780MOL0     C 2848   1.923   3.773   6.350  0.5099 -0.4482 -0.6825
  780MOL0     C 2849   1.769   3.795   6.370 -0.6475  0.7392 -0.7966
  780MOL0     C 2850   1.719   3.851   6.503 -1.0441  0.0712 -0.5220
  780MOL0     C 2851   1.568   3.868   6.512  0.6648  0.2734  0.2562
  780MOL0     O 2852   1.530   3.913   6.642  0.3216  0.3829 -0.0757
  780MOL0     C 2853   1.458   3.836   6.729  0.1816  0.1753  0.0679
  780MOL0     C 2854   1.447   3.691   6.729 -0.3090 -0.3523  0.3973
  780MOL0     C 2855   1.368   3.620   6.821  0.5361 -0.9471 -0.8348
  780MOL0     C 2856   1.288   3.681   6.924 -0.3659 -0.4424  1.3207
  780MOL0     C 2857   1.198   3.601   7.002 -0.0682  0.6471 -0.7757
  780MOL0     O 2858   1.184   3.474   6.972 -0.6889  0.3963  0.6392
  780MOL0     C 2859   1.094   3.401   7.050  0.0001 -0.0149 -0.0065
  780MOL0     C 2860   1.137   3.311   7.145 -0.9132  0.3418 -1.1013
  780MOL0     C 2861   1.047   3.236   7.217 -0.3875 -0.3495 -0.5536
  780MOL0     C 2862   0.913   3.261   7.210 -0.5078 -0.0619 -1.1601
  780MOL0     O 2863   0.808   3.214   7.289  0.3325  0.6035  0.5988
  780MOL0     C 2864   0.850   3.100   7.369 -0.5625  0.4575 -0.5274
  780MOL0     C 2865   0.735   3.020   7.416  0.5472 -0.6450  0.2788
  780MOL0     C 2866   0.781   2.873   7.442  0.6815 -0.0915  0.6422
  780MOL0     C 2867   0.686   2.813   7.543  0.6243 -0.0588  0.4453
  780MOL0     C 2868   0.552   2.766   7.476  0.6036 -0.0004  0.2942
  780MOL0     C 2869   0.441   2.732   7.576 -0.1708  0.3867  0.0416
  780MOL0     C 2870   0.312   2.699   7.510  0.4892 -0.6130  0.3964
  780MOL0     C 2871   0.239   2.588   7.576 -0.4891 -0.9315 -0.4791
  780MOL0    Cl 2872   0.206   2.613   7.756  0.2397  0.0503 -0.5999
  780MOL0     C 2873   0.872   3.357   7.117 -0.8194 -0.0976  0.6383
  780MOL0     C 2874   0.960   3.422   7.033 -0.1098  0.1198 -0.5178
  780MOL0     O 2875   1.135   3.662   7.096 -0.8224  0.5397 -0.3190
  780MOL0     C 2876   1.297   3.831   6.927  0.0274  0.2958  0.0478
  780MOL0     C 2877   1.383   3.905   6.832  0.3826  0.3084 -0.1251
  780MOL0     N 2878   1.966   4.029   6.350  0.2319  0.0624 -0.3012
  780MOL0     N 2879   2.059   4.115   6.326 -0.3724  0.4170  0.3229
  780MOL0     C 2880   3.227   4.169   6.614 -0.1190 -0.3311  0.1031
  780MOL0     C 2881   3.331   4.258   6.657  0.6498 -0.9894 -0.1351
  780MOL0     C 2882   3.589   4.641   6.588  0.0446  0.1577  0.9778
  780MOL0     C 2883   3.549   4.776   6.568 -0.9991 -0.3079 -0.9318
  780MOL0     C 2884   3.647   4.876   6.562  0.4192 -0.7004 -0.3529
  780MOL0     C 2885   3.783   4.837   6.553  0.0421 -0.9811  0.0188
  780MOL0     O 2886   3.871   4.936   6.519 -0.5066  0.0079  0.5262
  780MOL0     C 2887   4.012   4.903   6.517  0.2172 -0.2446 -0.0649
  780MOL0     C 2888   4.046   4.851   6.378 -0.6047  0.4044  0.2447
  780MOL0     C 2889   3.987   4.917   6.252  0.7186  0.1310 -0.2994
  780MOL0     C 2890   4.036   5.064   6.228  0.9184 -0.5220 -0.3734
  780MOL0     C 2891   4.149   5.076   6.134  0.0627 -0.0342  0.0791
  780MOL0     C 2892   4.254   5.108   6.074  0.5393  0.2645  0.2255
  780MOL0     C 2893   3.821   4.710   6.588  0.1043  0.8061 -0.0332
  780MOL0     C 2894   3.725   4.607   6.606 -0.8461 -0.3827  1.7344
  780MOL0     H 2895   3.482   4.310   6.352 -1.5395  2.3279 -0.5755
  780MOL0     H 2896   3.317   4.158   6.282  1.0856  1.5827 -1.0339
  780MOL0     H 2897   3.020   3.989   6.619  0.9281  3.1804  0.1932
  780MOL0     H 2898   3.124   3.869   6.534  0.6992  0.5468  0.1324
  780MOL0     H 2899   2.937   3.786   6.516  2.5381  0.5127  0.7582
  780MOL0     H 2900   2.976   3.840   6.350  3.2215 -0.8479  1.0834
  780MOL0     H 2901   2.830   4.051   6.393 -0.3035 -1.0097 -2.9002
  780MOL0     H 2902   2.752   3.973   6.529 -1.2360 -0.8223 -0.8554
  780MOL0     H 2903   2.745   3.831   6.269 -1.2825  0.0954 -1.2586
  780MOL0     H 2904   2.651   3.807   6.422 -1.6901  1.7815  0.5271
  780MOL0     H 2905   2.539   3.916   6.208 -0.4867  1.2973 -2.0702
  780MOL0     H 2906   2.624   4.070   6.249 -0.8846 -0.6078 -0.8677
  780MOL0     H 2907   2.516   4.043   6.483 -1.2680  0.8295 -0.5477
  780MOL0     H 2908   2.411   3.926   6.395  3.5911 -3.3676 -0.8002
  780MOL0     H 2909   2.342   4.202   6.409 -1.0797 -2.3490  0.0405
  780MOL0     H 2910   2.458   4.215   6.284  0.0441 -2.2248 -2.6899
  780MOL0     H 2911   2.347   4.040   6.153  1.3022 -0.5294  1.1904
  780MOL0     H 2912   2.269   4.199   6.172  0.1750  0.4188  0.5970
  780MOL0     H 2913   2.205   3.837   6.254  0.6739 -0.2369  0.1649
  780MOL0     H 2914   1.964   3.737   6.444 -0.7038  3.0075  1.3792
  780MOL0     H 2915   1.933   3.696   6.273  0.9581 -2.1026  0.9764
  780MOL0     H 2916   1.726   3.695   6.359 -1.3769  1.1559 -1.8258
  780MOL0     H 2917   1.728   3.845   6.282 -3.9781 -0.3616 -0.0140
  780MOL0     H 2918   1.755   3.784   6.581 -1.0154  1.1378  0.4086
  780MOL0     H 2919   1.767   3.945   6.532  0.8003 -0.9687 -0.1093
  780MOL0     H 2920   1.508   3.782   6.481  1.1829 -0.3318  0.9108
  780MOL0     H 2921   1.532   3.942   6.439 -1.4470 -0.8168  0.1131
  780MOL0     H 2922   1.515   3.647   6.657  1.1341  2.0838  0.1501
  780MOL0     H 2923   1.377   3.512   6.819  1.3847 -0.9097  0.3275
  780MOL0     H 2924   1.240   3.289   7.169 -1.5938 -1.1499  0.6583
  780MOL0     H 2925   1.093   3.150   7.267  1.2683 -0.5775 -2.3625
  780MOL0     H 2926   0.904   3.143   7.454  2.0972  0.8934 -2.3120
  780MOL0     H 2927   0.919   3.039   7.311 -1.5561  0.6009 -1.8914
  780MOL0     H 2928   0.654   3.022   7.343 -1.9121  1.1472  2.8465
  780MOL0     H 2929   0.688   3.060   7.506  0.8844 -0.8200  0.5395
  780MOL0     H 2930   0.879   2.877   7.490  0.8049  1.8113  0.3177
  780MOL0     H 2931   0.778   2.826   7.343 -1.5055  1.2932 -0.0363
  780MOL0     H 2932   0.736   2.731   7.595  0.6693  0.8383  1.8529
  780MOL0     H 2933   0.666   2.885   7.623  0.7555  0.5011 -0.0196
  780MOL0     H 2934   0.570   2.681   7.410  0.5866  1.2612 -1.4358
  780MOL0     H 2935   0.511   2.847   7.414 -1.0944 -2.1466 -1.5949
  780MOL0     H 2936   0.406   2.807   7.648 -1.6693 -1.7995  1.7475
  780MOL0     H 2937   0.473   2.653   7.644 -1.1824  0.2852  0.4071
  780MOL0     H 2938   0.248   2.787   7.497  0.4325 -0.8528 -1.0726
  780MOL0     H 2939   0.325   2.663   7.408 -0.9092  2.1630 -0.8847
  780MOL0     H 2940   0.289   2.491   7.562 -1.9268 -1.5424 -1.7719
  780MOL0     H 2941   0.146   2.581   7.518 -0.5462  0.3396 -0.5677
  780MOL0     H 2942   0.766   3.378   7.113 -1.0618 -1.3298  0.2200
  780MOL0     H 2943   0.927   3.492   6.956 -0.4368  3.0918  2.1152
  780MOL0     H 2944   1.242   3.876   7.008 -0.0579  0.3106 -0.0182
  780MOL0     H 2945   1.383   4.013   6.827  1.8562  0.2847 -1.4026
  780MOL0     H 2946   3.149   4.144   6.685 -0.7406 -0.7063 -0.7040
  780MOL0     H 2947   3.346   4.269   6.764  1.4898 -4.1232  0.1568
  780MOL0     H 2948   3.444   4.804   6.570 -0.7285  0.8230  1.8874
  780MOL0     H 2949   3.622   4.979   6.539 -0.1256 -0.7901 -0.1815
  780MOL0     H 2950   4.047   4.829   6.589  0.8986  0.6828  0.5848
  780MOL0     H 2951   4.071   4.993   6.538 -0.0721  0.2684 -1.3635
  780MOL0     H 2952   4.155   4.855   6.363 -0.3588  2.1430  2.0891
  780MOL0     H 2953   4.010   4.749   6.364  0.5502 -0.0152  0.2551
  780MOL0     H 2954   3.878   4.919   6.260  0.7920 -0.8846  1.5402
  780MOL0     H 2955   4.018   4.852   6.170  0.8871  0.4188 -0.4654
  780MOL0     H 2956   3.952   5.113   6.177  2.0347  0.7259 -1.0610
  780MOL0     H 2957   4.064   5.109   6.323 -0.7738 -0.8824  0.3387
  780MOL0     H 2958   4.344   5.128   6.019 -0.1460 -0.5357 -1.2673
  780MOL0     H 2959   3.924   4.681   6.603 -0.4359 -0.4320  1.6521
  780MOL0     H 2960   3.766   4.507   6.616 -0.3312 -0.5018 -0.8621
  781MOL0     O 2961  10.061   7.516  10.817 -0.3833  0.3277 -0.4936
  781MOL0     C 2962  10.080   7.396  10.803  0.5878 -0.4711  0.1202
  781MOL0     O 2963   9.993   7.302  10.758  0.2670  0.2703  0.1030
  781MOL0     C 2964   9.870   7.335  10.707 -0.3007  0.0017  0.5594
  781MOL0     C 2965   9.824   7.453  10.647 -0.2352 -0.2327  0.3380
  781MOL0     C 2966   9.687   7.455  10.590 -0.1847  0.2941  0.2826
  781MOL0     C 2967   9.608   7.342  10.594 -0.1016  0.9795  0.9096
  781MOL0     O 2968   9.480   7.350  10.546  0.8331  0.6226 -0.6343
  781MOL0     C 2969   9.453   7.410  10.414  0.3658  0.5625  0.0661
  781MOL0     C 2970   9.302   7.465  10.384  0.0133 -0.3463  0.3340
  781MOL0     C 2971   9.224   7.515  10.504  0.1923  1.2673  0.1068
  781MOL0     C 2972   9.092   7.582  10.460 -1.0253 -0.6001 -0.2718
  781MOL0     C 2973   9.108   7.732  10.432 -0.9331  0.7421 -0.1188
  781MOL0     C 2974   9.008   7.807  10.350  0.1617 -0.1052  0.0924
  781MOL0     C 2975   8.865   7.783  10.390 -0.5783 -0.4695 -0.2665
  781MOL0     C 2976   8.776   7.899  10.337  0.2080 -0.6779  0.4146
  781MOL0     N 2977   8.634   7.860  10.351 -0.9474  0.2982  0.5271
  781MOL0     C 2978   8.543   7.926  10.430 -1.1242  0.2854 -0.1896
  781MOL0     C 2979   8.424   7.867  10.403  0.1076 -0.4689 -0.3666
  781MOL0     C 2980   8.297   7.896  10.466  1.0471 -0.0549 -0.7094
  781MOL0     C 2981   8.203   7.987  10.385 -0.8122  0.2814 -0.1302
  781MOL0     C 2982   8.055   7.978  10.432 -0.3758  1.1805  0.2394
  781MOL0     C 2983   7.950   8.058  10.344  0.1363 -0.1129 -0.3530
  781MOL0     O 2984   7.938   7.998  10.218 -0.2317 -0.1300 -0.2505
  781MOL0     C 2985   7.842   7.905  10.203  0.8133  0.8720 -0.5749
  781MOL0     C 2986   7.717   7.934  10.139  0.0162 -0.2365  0.1602
  781MOL0     C 2987   7.625   7.835  10.111 -0.6560 -0.2413  0.0023
  781MOL0     C 2988   7.657   7.699  10.152  0.9610  0.0567 -0.3880
  781MOL0     C 2989   7.558   7.596  10.122 -0.4433  0.1416  0.4019
  781MOL0     O 2990   7.443   7.641  10.059  0.4287 -0.8206 -0.1589
  781MOL0     C 2991   7.343   7.564  10.024  0.8469 -0.1346 -0.3142
  781MOL0     C 2992   7.335   7.423  10.015 -0.2376 -1.0480  0.2483
  781MOL0     C 2993   7.223   7.361   9.990  0.1664  0.4469  0.3531
  781MOL0     C 2994   7.100   7.427   9.962  0.0707  0.3756  0.1901
  781MOL0     O 2995   6.996   7.348   9.930 -0.2538  0.4221 -0.4444
  781MOL0     C 2996   6.865   7.411   9.929  0.5966 -0.4344 -0.8458
  781MOL0     C 2997   6.750   7.310   9.938  0.1539  0.2815  0.4232
  781MOL0     C 2998   6.609   7.378   9.923  1.1831  0.0712 -0.0855
  781MOL0     C 2999   6.494   7.274   9.907  0.1488 -0.2244 -0.0208
  781MOL0     C 3000   6.357   7.346   9.892 -0.7056  0.0790 -0.2697
  781MOL0     C 3001   6.248   7.245   9.858 -0.3544  0.6692 -0.0976
  781MOL0     C 3002   6.112   7.302   9.860  0.7565 -0.7020 -0.3058
  781MOL0     C 3003   6.062   7.330  10.004 -0.8056 -0.5188  0.3228
  781MOL0    Cl 3004   5.926   7.446   9.996 -0.0435  0.2874 -0.2902
  781MOL0     C 3005   7.101   7.567   9.961 -0.0106 -0.0184  0.4244
  781MOL0     C 3006   7.216   7.629   9.983 -0.2278 -0.6414 -0.0948
  781MOL0     O 3007   7.580   7.483  10.157 -0.5050 -0.0556 -0.9987
  781MOL0     C 3008   7.779   7.668  10.201 -0.0050  0.1096 -0.1517
  781MOL0     C 3009   7.869   7.767  10.226  0.4486 -0.0662  0.4093
  781MOL0     N 3010   8.445   7.776  10.300 -0.0328 -0.0565  0.4279
  781MOL0     N 3011   8.571   7.761  10.279 -0.4403 -0.0384  0.1232
  781MOL0     C 3012   9.651   7.229  10.658 -0.0504 -0.6681 -0.1253
  781MOL0     C 3013   9.783   7.233  10.709  1.1819  0.4015  0.8133
  781MOL0     C 3014  10.214   7.367  10.838 -0.6220  0.4190 -0.2398
  781MOL0     C 3015  10.242   7.241  10.878 -0.3481 -0.2709  0.4819
  781MOL0     C 3016  10.376   7.206  10.919 -0.7339 -0.7642 -0.3325
  781MOL0     C 3017  10.477   7.306  10.937  0.5747  0.1189 -0.0115
  781MOL0     O 3018  10.608   7.298  10.971 -0.0747 -0.9338 -0.3128
  781MOL0     C 3019  10.702   7.206  10.901  0.5932 -0.1661  0.4236
  781MOL0     C 3020  10.746   7.094  10.992 -0.2483  0.1372 -0.6569
  781MOL0     C 3021  10.832   6.997  10.907  1.1373  0.6553 -1.0995
  781MOL0     C 3022  10.894   6.900  11.006  0.3954 -0.5170  1.0435
  781MOL0     C 3023  10.932   6.785  10.932  0.5618  0.7850  0.8303
  781MOL0     C 3024  10.964   6.681  10.880  0.4555 -0.5966  0.2951
  781MOL0     C 3025  10.439   7.436  10.906 -0.4057 -0.1329  0.9704
  781MOL0     C 3026  10.319   7.461  10.842  0.6856  0.0560 -0.5502
  781MOL0     H 3027   9.880   7.544  10.633 -0.7006 -0.1706 -1.3579
  781MOL0     H 3028   9.661   7.552  10.547 -0.4562  1.4980  2.9505
  781MOL0     H 3029   9.482   7.342  10.334 -1.9061 -2.3068  1.4792
  781MOL0     H 3030   9.505   7.506  10.404  1.2682  0.1769  0.8709
  781MOL0     H 3031   9.237   7.390  10.339 -0.6546 -0.6792  1.7911
  781MOL0     H 3032   9.312   7.543  10.308 -3.7041 -1.6196 -1.6865
  781MOL0     H 3033   9.279   7.577  10.575  1.1328  0.3734  0.1713
  781MOL0     H 3034   9.201   7.422  10.557  0.5554  1.4927  0.6688
  781MOL0     H 3035   9.045   7.525  10.379  0.5426  0.2880 -1.8800
  781MOL0     H 3036   9.011   7.587  10.533 -0.5213  1.6376  0.1923
  781MOL0     H 3037   9.205   7.745  10.383 -1.0170 -0.8109 -0.7412
  781MOL0     H 3038   9.109   7.781  10.530  0.1095  0.7556 -0.1259
  781MOL0     H 3039   9.019   7.778  10.245 -1.2216 -0.7049  0.0883
  781MOL0     H 3040   9.034   7.913  10.362  3.8008 -0.9236  0.6572
  781MOL0     H 3041   8.836   7.681  10.361  0.7343 -0.4946 -1.5759
  781MOL0     H 3042   8.846   7.780  10.498 -1.2955 -1.5670 -0.4009
  781MOL0     H 3043   8.797   7.906  10.230 -1.2886 -0.7621  0.0915
  781MOL0     H 3044   8.801   7.992  10.390 -3.6306  0.1467  1.0695
  781MOL0     H 3045   8.564   7.997  10.509 -2.2604 -1.6486  2.0019
  781MOL0     H 3046   8.329   7.933  10.564  1.0686 -1.3524 -0.1987
  781MOL0     H 3047   8.241   7.803  10.484 -0.4046  1.2652  2.3237
  781MOL0     H 3048   8.208   7.959  10.280 -0.0841  2.7475 -0.8170
  781MOL0     H 3049   8.233   8.092  10.394  1.1572 -0.2165 -0.4844
  781MOL0     H 3050   8.037   7.872  10.414  2.1422  0.9651 -1.6182
  781MOL0     H 3051   8.044   8.008  10.537  1.4666  0.6155  0.6232
  781MOL0     H 3052   7.992   8.159  10.336  2.3720 -0.5742  3.4303
  781MOL0     H 3053   7.851   8.057  10.389 -0.7020 -2.1702 -2.0536
  781MOL0     H 3054   7.695   8.040  10.135 -1.1912 -0.5193 -1.0672
  781MOL0     H 3055   7.537   7.867  10.056 -2.0499 -3.4174  0.1354
  781MOL0     H 3056   7.423   7.360  10.021  0.8114 -0.0017 -2.4426
  781MOL0     H 3057   7.232   7.253   9.986 -0.9648  0.1529  3.2801
  781MOL0     H 3058   6.855   7.478   9.843 -1.7819 -0.4366 -0.6338
  781MOL0     H 3059   6.857   7.485  10.009  0.1709  0.1671 -1.4289
  781MOL0     H 3060   6.754   7.264  10.037  4.5048 -2.4033 -0.7609
  781MOL0     H 3061   6.764   7.235   9.860  0.9290  0.7614  0.0883
  781MOL0     H 3062   6.601   7.444   9.836 -1.0665 -2.1142 -1.6520
  781MOL0     H 3063   6.587   7.433  10.015 -0.3682 -1.0164  0.2410
  781MOL0     H 3064   6.511   7.208   9.821  0.2063 -1.1914  0.7136
  781MOL0     H 3065   6.497   7.219  10.001 -0.3283 -1.1760 -0.5456
  781MOL0     H 3066   6.362   7.405   9.799  0.1595  0.3858 -0.0347
  781MOL0     H 3067   6.339   7.419   9.971  1.5955 -0.9043  1.2746
  781MOL0     H 3068   6.251   7.154   9.918  1.0208 -0.8862 -2.3432
  781MOL0     H 3069   6.273   7.197   9.762  0.3906 -2.8287  1.6867
  781MOL0     H 3070   6.105   7.390   9.795 -0.1880  0.6651  1.5170
  781MOL0     H 3071   6.037   7.227   9.835  1.0045 -1.0139 -0.1218
  781MOL0     H 3072   6.126   7.390  10.069 -1.6052  1.4913 -0.6887
  781MOL0     H 3073   6.033   7.234  10.048 -2.0479 -0.3964 -0.1965
  781MOL0     H 3074   7.020   7.637   9.941 -0.1251 -0.7151 -1.7154
  781MOL0     H 3075   7.218   7.737   9.976 -2.6485 -0.6536 -2.6725
  781MOL0     H 3076   7.799   7.563  10.218 -0.4731  0.4731  3.2982
  781MOL0     H 3077   7.965   7.741  10.270  1.2093 -0.3449 -1.3345
  781MOL0     H 3078   9.587   7.150  10.694 -0.7611 -0.4490 -0.8685
  781MOL0     H 3079   9.820   7.140  10.752  1.3614 -1.9160 -3.7336
  781MOL0     H 3080  10.169   7.164  10.856  1.0376 -1.4309 -0.2950
  781MOL0     H 3081  10.398   7.104  10.947 -2.2568 -1.2046 -0.6467
  781MOL0     H 3082  10.785   7.268  10.866  0.0675 -0.7528 -2.0679
  781MOL0     H 3083  10.641   7.158  10.824 -1.0303  1.3352  0.6949
  781MOL0     H 3084  10.788   7.132  11.085 -1.8937 -0.0247  0.1864
  781MOL0     H 3085  10.659   7.036  11.024  0.5259 -1.3768 -1.1935
  781MOL0     H 3086  10.909   7.057  10.858  0.5335  3.1806  0.8358
  781MOL0     H 3087  10.784   6.954  10.818  0.7230 -0.8401 -0.1883
  781MOL0     H 3088  10.979   6.954  11.050  2.2867 -1.4741 -1.2130
  781MOL0     H 3089  10.820   6.865  11.078 -2.2232 -0.6367 -1.5598
  781MOL0     H 3090  10.995   6.588  10.837 -3.7971 -2.4857  0.8141
  781MOL0     H 3091  10.518   7.511  10.905 -1.0110  0.5071  0.7212
  781MOL0     H 3092  10.293   7.557  10.797 -0.7062 -0.4290 -0.8516
  782MOL0     O 3093   6.962   8.347   1.886  0.3367  0.6861 -0.3930
  782MOL0     C 3094   7.002   8.265   1.968 -0.0281  1.0994  0.2235
  782MOL0     O 3095   6.917   8.181   2.029 -0.1379  0.2287  0.0189
  782MOL0     C 3096   6.782   8.168   1.998  0.4350 -0.1835  0.5638
  782MOL0     C 3097   6.742   8.137   1.870 -0.0647  0.5225 -0.2303
  782MOL0     C 3098   6.604   8.143   1.835  0.3160  0.2467 -0.2194
  782MOL0     C 3099   6.506   8.182   1.939 -0.0566  0.4018 -0.0143
  782MOL0     O 3100   6.371   8.205   1.920 -0.9457 -0.7153  0.1140
  782MOL0     C 3101   6.287   8.113   1.850 -0.5350  0.4567  1.3209
  782MOL0     C 3102   6.140   8.150   1.871 -1.2217  0.8940  0.0541
  782MOL0     C 3103   6.056   8.037   1.812  0.7616 -0.3486 -0.9328
  782MOL0     C 3104   5.906   8.087   1.824  0.2743  0.2821 -0.0205
  782MOL0     C 3105   5.813   7.984   1.760 -0.9591 -0.0301 -0.1269
  782MOL0     C 3106   5.679   8.051   1.746  0.3564  0.3074  0.2333
  782MOL0     C 3107   5.574   7.957   1.685  0.8165  0.0574  0.5223
  782MOL0     C 3108   5.429   8.021   1.707 -0.0335  0.7084  0.8292
  782MOL0     N 3109   5.339   7.907   1.673  0.1942 -0.7272  0.6757
  782MOL0     C 3110   5.285   7.877   1.552  0.4731 -0.1886 -0.1214
  782MOL0     C 3111   5.207   7.769   1.573  0.6689 -0.2497  0.4314
  782MOL0     C 3112   5.168   7.693   1.444  0.2237  0.5196 -0.0260
  782MOL0     C 3113   5.029   7.734   1.391  0.0434 -1.3552  0.4520
  782MOL0     C 3114   4.998   7.666   1.263  0.4374 -0.3815 -0.4298
  782MOL0     C 3115   5.080   7.716   1.138  0.3216 -0.0227 -0.0216
  782MOL0     O 3116   5.065   7.856   1.132  0.1082 -0.3999 -0.3074
  782MOL0     C 3117   5.174   7.931   1.151 -0.3896 -0.6144 -0.3431
  782MOL0     C 3118   5.278   7.914   1.062 -0.6809  0.2475 -0.0423
  782MOL0     C 3119   5.390   7.997   1.064 -0.1257  0.6232 -0.2331
  782MOL0     C 3120   5.397   8.105   1.163 -1.2634 -0.6009  0.0917
  782MOL0     C 3121   5.523   8.195   1.162  0.7162 -0.1227  0.5195
  782MOL0     O 3122   5.613   8.169   1.068 -0.1602 -0.5532 -0.5900
  782MOL0     C 3123   5.740   8.237   1.057 -0.2876 -0.0166 -0.4837
  782MOL0     C 3124   5.772   8.356   1.124 -0.5825 -0.1326 -0.1825
  782MOL0     C 3125   5.908   8.398   1.099 -0.1521  0.5034 -0.1539
  782MOL0     C 3126   5.998   8.332   1.012 -0.4107 -0.9134 -0.3450
  782MOL0     O 3127   6.130   8.389   1.012 -0.3754 -0.0114 -0.2686
  782MOL0     C 3128   6.237   8.312   0.957  0.3491 -0.2049  0.2923
  782MOL0     C 3129   6.361   8.393   0.906  0.0395  0.3541 -0.2588
  782MOL0     C 3130   6.425   8.445   1.037 -0.4005 -0.4811 -0.5545
  782MOL0     C 3131   6.547   8.533   1.008  0.5161  0.3956 -0.6802
  782MOL0     C 3132   6.643   8.519   1.120  0.6128 -0.0990  0.6471
  782MOL0     C 3133   6.774   8.581   1.076 -0.7552  0.6926 -0.5493
  782MOL0     C 3134   6.867   8.581   1.196 -0.0263 -0.0566  0.3899
  782MOL0     C 3135   6.881   8.699   1.284  0.5159  0.2221 -0.5937
  782MOL0    Cl 3136   7.025   8.681   1.384 -0.0693  0.0170  0.0671
  782MOL0     C 3137   5.963   8.214   0.945  0.5415  1.4583  0.2283
  782MOL0     C 3138   5.832   8.173   0.966 -0.0880 -0.0190 -0.3972
  782MOL0     O 3139   5.535   8.268   1.262 -0.0754  0.8890  1.2138
  782MOL0     C 3140   5.289   8.122   1.248 -0.7341 -0.9299 -0.7423
  782MOL0     C 3141   5.176   8.035   1.243 -0.0245 -0.1770  0.1398
  782MOL0     N 3142   5.191   7.743   1.712 -0.1801  0.3837  0.1474
  782MOL0     N 3143   5.281   7.818   1.759 -0.7869  0.1603 -0.6110
  782MOL0     C 3144   6.552   8.210   2.066 -0.0579  0.6557  0.1532
  782MOL0     C 3145   6.689   8.203   2.103  0.7380  0.2436 -0.1393
  782MOL0     C 3146   7.145   8.248   1.993 -0.4893  0.0104  0.4358
  782MOL0     C 3147   7.198   8.182   2.101 -0.4559  0.2852  0.0247
  782MOL0     C 3148   7.330   8.165   2.123  0.1954  0.0984  0.4813
  782MOL0     C 3149   7.416   8.227   2.035  0.0300  0.0601 -0.2184
  782MOL0     O 3150   7.553   8.226   2.036  0.5535  0.3436 -0.2629
  782MOL0     C 3151   7.628   8.176   2.148 -1.0613 -0.5746 -0.3108
  782MOL0     C 3152   7.776   8.219   2.130  0.5738 -0.3496 -0.3997
  782MOL0     C 3153   7.848   8.152   2.003 -0.0762 -0.1399 -0.2155
  782MOL0     C 3154   7.855   7.997   2.009 -0.3525  0.9007  0.1040
  782MOL0     C 3155   7.962   7.935   1.923  0.3411  0.5340 -0.5882
  782MOL0     C 3156   8.046   7.897   1.847 -0.3262 -0.2490  0.4237
  782MOL0     C 3157   7.365   8.285   1.921  1.0084 -0.2855  0.1512
  782MOL0     C 3158   7.235   8.294   1.903  0.6544 -0.4581  0.3376
  782MOL0     H 3159   6.806   8.116   1.785  0.1281  0.3432 -0.0434
  782MOL0     H 3160   6.560   8.141   1.736 -2.3614 -0.3359  0.8971
  782MOL0     H 3161   6.298   8.008   1.879 -3.1863 -0.5168 -0.7561
  782MOL0     H 3162   6.323   8.116   1.747 -0.1730 -1.5470  1.3347
  782MOL0     H 3163   6.121   8.249   1.827  0.6529  2.5967  2.7827
  782MOL0     H 3164   6.122   8.155   1.978 -0.4405  0.0931  0.2284
  782MOL0     H 3165   6.073   7.946   1.871  0.5261  1.8452  2.7934
  782MOL0     H 3166   6.082   8.026   1.706  0.7242 -0.1066 -0.9669
  782MOL0     H 3167   5.874   8.109   1.926  1.9123  1.8688  0.1907
  782MOL0     H 3168   5.898   8.184   1.773  1.5166  1.8834  2.6083
  782MOL0     H 3169   5.804   7.895   1.823  0.0863 -0.2487 -0.2714
  782MOL0     H 3170   5.855   7.946   1.666  1.4736 -1.4252  1.4159
  782MOL0     H 3171   5.681   8.139   1.681 -1.5493  0.8031  0.7981
  782MOL0     H 3172   5.643   8.090   1.842  1.6969  0.6975  0.6087
  782MOL0     H 3173   5.593   7.927   1.581 -0.2118 -1.9317  0.8561
  782MOL0     H 3174   5.582   7.862   1.738 -0.2596 -0.6676 -0.5447
  782MOL0     H 3175   5.409   8.104   1.639 -0.6330 -0.8658 -1.0141
  782MOL0     H 3176   5.417   8.039   1.814  0.7233 -0.9215  1.2215
  782MOL0     H 3177   5.302   7.931   1.459  0.1562  0.0346 -0.0541
  782MOL0     H 3178   5.171   7.584   1.458 -2.1239  0.6104  2.0320
  782MOL0     H 3179   5.236   7.719   1.363 -0.0544 -0.1554 -0.4858
  782MOL0     H 3180   5.033   7.844   1.390  0.5014 -1.3664  0.6751
  782MOL0     H 3181   4.962   7.695   1.467  0.4613 -2.3779  0.3172
  782MOL0     H 3182   5.030   7.562   1.269  0.5320 -0.3972 -1.1198
  782MOL0     H 3183   4.893   7.666   1.236 -0.8552  2.3748  3.6091
  782MOL0     H 3184   5.034   7.674   1.049 -2.2079  0.1893  1.0920
  782MOL0     H 3185   5.183   7.678   1.143  1.2323  2.3529  0.6147
  782MOL0     H 3186   5.280   7.831   0.993  0.1056  0.1958  0.0260
  782MOL0     H 3187   5.471   7.991   0.993  3.5407  1.3396  3.5013
  782MOL0     H 3188   5.711   8.420   1.187 -0.6394 -0.7519  0.4093
  782MOL0     H 3189   5.931   8.498   1.134  1.3170  0.5882 -1.2547
  782MOL0     H 3190   6.210   8.263   0.863  1.7924 -0.4405 -0.0227
  782MOL0     H 3191   6.272   8.240   1.032  1.6217 -0.8174 -0.8500
  782MOL0     H 3192   6.321   8.475   0.846 -1.0785  1.2503  1.6172
  782MOL0     H 3193   6.423   8.325   0.847  1.6960  0.7008  1.0319
  782MOL0     H 3194   6.455   8.355   1.092  0.1216 -0.1718 -0.3224
  782MOL0     H 3195   6.356   8.501   1.101 -1.4453 -0.1783 -1.9162
  782MOL0     H 3196   6.600   8.481   0.927  0.8934 -0.3202  0.0139
  782MOL0     H 3197   6.516   8.631   0.969 -1.3085  0.8205  1.6421
  782MOL0     H 3198   6.662   8.420   1.163 -1.2341  0.0213  1.8393
  782MOL0     H 3199   6.600   8.584   1.197 -3.0340 -0.1340 -1.1563
  782MOL0     H 3200   6.764   8.684   1.041  0.2414  1.6422  1.7149
  782MOL0     H 3201   6.799   8.499   1.008 -1.5093 -0.5404  0.6098
  782MOL0     H 3202   6.830   8.508   1.269  0.0621  0.2337  0.7300
  782MOL0     H 3203   6.964   8.543   1.162  0.6310  2.1200 -0.3308
  782MOL0     H 3204   6.796   8.700   1.353 -1.5752  0.5503 -2.9939
  782MOL0     H 3205   6.883   8.797   1.234 -0.4832  0.3548 -0.3894
  782MOL0     H 3206   6.032   8.165   0.876  0.7009  1.7633  0.1693
  782MOL0     H 3207   5.791   8.105   0.891 -1.3760 -0.6985  0.8603
  782MOL0     H 3208   5.276   8.196   1.326 -2.2961 -0.7310 -1.1494
  782MOL0     H 3209   5.085   8.059   1.297  0.3787  2.1084 -0.1032
  782MOL0     H 3210   6.476   8.220   2.143 -0.6974 -2.6878  0.0992
  782MOL0     H 3211   6.716   8.227   2.205  1.5101 -2.3816  0.3419
  782MOL0     H 3212   7.138   8.144   2.183 -2.7260  2.4720 -0.5136
  782MOL0     H 3213   7.381   8.119   2.207 -0.9846  0.0126  1.1804
  782MOL0     H 3214   7.621   8.067   2.151 -0.3790 -0.6122  2.0112
  782MOL0     H 3215   7.590   8.224   2.239  1.7900  0.3777  0.5209
  782MOL0     H 3216   7.762   8.328   2.127  1.6640 -0.0537  2.3646
  782MOL0     H 3217   7.833   8.198   2.221  0.5037 -0.1937 -0.3191
  782MOL0     H 3218   7.951   8.190   1.993  0.9736 -2.1092  2.0456
  782MOL0     H 3219   7.797   8.181   1.911  1.4616  2.2337 -0.4131
  782MOL0     H 3220   7.884   7.965   2.110  1.5763  0.4462 -0.5541
  782MOL0     H 3221   7.761   7.952   1.976  1.2049 -1.9246 -0.7842
  782MOL0     H 3222   8.116   7.864   1.773 -0.6286 -1.6116  0.7310
  782MOL0     H 3223   7.433   8.323   1.846  0.3993 -1.7722 -1.2239
  782MOL0     H 3224   7.201   8.345   1.813 -1.2136 -1.1007  0.6200
  783MOL0     O 3225   5.324   5.278   4.279 -0.1937  0.0370 -0.6287
  783MOL0     C 3226   5.351   5.289   4.399 -0.3249 -0.6032  0.0231
  783MOL0     O 3227   5.310   5.394   4.491  0.0475  0.6040  0.5593
  783MOL0     C 3228   5.221   5.478   4.435 -1.2812  0.8155 -0.1344
  783MOL0     C 3229   5.273   5.555   4.327 -0.2714  0.5489 -0.1707
  783MOL0     C 3230   5.194   5.653   4.270  0.3648  0.2031  0.1539
  783MOL0     C 3231   5.055   5.669   4.315  0.0567  0.8380  0.1365
  783MOL0     O 3232   4.982   5.763   4.247 -0.8357 -0.5493  0.1653
  783MOL0     C 3233   4.846   5.766   4.272  0.1289 -0.0455 -0.3966
  783MOL0     C 3234   4.785   5.893   4.217  0.7148  0.6282 -1.1760
  783MOL0     C 3235   4.784   5.899   4.065  0.0611 -0.1029 -1.0023
  783MOL0     C 3236   4.666   5.976   4.008  0.7773  0.2346 -0.9629
  783MOL0     C 3237   4.678   6.130   3.983  0.4330 -0.4383 -0.0912
  783MOL0     C 3238   4.542   6.192   3.951  0.1304 -0.7406  0.2299
  783MOL0     C 3239   4.554   6.341   3.913 -0.2221 -0.4118 -0.1845
  783MOL0     C 3240   4.588   6.445   4.019  0.4939 -0.5051 -0.2035
  783MOL0     N 3241   4.475   6.447   4.115 -0.1322 -0.4093 -0.8689
  783MOL0     C 3242   4.364   6.539   4.111 -0.8574 -0.2497  0.1678
  783MOL0     C 3243   4.290   6.522   4.220 -0.1912 -0.0731  0.2509
  783MOL0     C 3244   4.162   6.600   4.253  0.8141  0.4483 -0.4047
  783MOL0     C 3245   4.141   6.605   4.406  0.1375 -0.7174  0.0417
  783MOL0     C 3246   4.044   6.712   4.458  0.9114 -0.2830  0.5653
  783MOL0     C 3247   4.101   6.861   4.459 -0.1576  1.3218  0.1599
  783MOL0     O 3248   4.109   6.915   4.327  0.1290 -0.3142  0.5924
  783MOL0     C 3249   3.991   6.956   4.257 -0.1886  0.2000  0.1178
  783MOL0     C 3250   4.009   6.929   4.118  0.3919  0.1381 -0.2288
  783MOL0     C 3251   3.900   6.921   4.039  0.5076  0.9266 -0.1201
  783MOL0     C 3252   3.772   6.951   4.081  0.1360 -0.6598 -1.0298
  783MOL0     C 3253   3.663   6.969   3.985  0.2056  1.3421  0.2930
  783MOL0     O 3254   3.541   6.959   4.039  0.1512  0.3539  0.2507
  783MOL0     C 3255   3.429   6.993   3.967  0.8150  0.1478 -0.1673
  783MOL0     C 3256   3.408   6.999   3.833 -0.1332 -0.5166  0.3624
  783MOL0     C 3257   3.288   7.039   3.765 -0.3679  1.3875 -1.1135
  783MOL0     C 3258   3.183   7.069   3.857 -0.5860  0.2825  0.0919
  783MOL0     O 3259   3.058   7.095   3.809  0.2557  0.1342 -0.2717
  783MOL0     C 3260   2.994   7.222   3.850 -0.2051 -0.1594  0.3398
  783MOL0     C 3261   2.867   7.257   3.785 -0.4242 -0.1722  0.5180
  783MOL0     C 3262   2.804   7.374   3.856  1.0650  0.3831  0.0759
  783MOL0     C 3263   2.668   7.408   3.784 -0.5376  0.3747  0.1480
  783MOL0     C 3264   2.539   7.320   3.799 -0.5555  0.2964  0.2926
  783MOL0     C 3265   2.480   7.313   3.944 -0.4105  0.8600 -0.5642
  783MOL0     C 3266   2.392   7.181   3.944  0.1044 -0.1761  0.0586
  783MOL0     C 3267   2.310   7.174   4.070  0.8162  0.3474 -0.3967
  783MOL0    Cl 3268   2.191   7.035   4.069  0.0687  0.4203 -0.3722
  783MOL0     C 3269   3.201   7.078   3.994 -0.0090  0.5389 -0.3345
  783MOL0     C 3270   3.325   7.036   4.053 -0.3697 -0.0585  0.3767
  783MOL0     O 3271   3.700   7.002   3.872 -0.1342  0.5248 -0.6925
  783MOL0     C 3272   3.750   6.976   4.217  0.2453 -0.9653 -0.3573
  783MOL0     C 3273   3.863   6.974   4.306 -0.1335 -0.2266  0.9454
  783MOL0     N 3274   4.331   6.415   4.291 -0.6516  0.1512 -0.3536
  783MOL0     N 3275   4.442   6.369   4.225  0.0750 -0.4621 -0.8845
  783MOL0     C 3276   5.006   5.585   4.416  0.5766 -0.0324 -0.6127
  783MOL0     C 3277   5.086   5.480   4.474  0.5409  0.3300 -0.2153
  783MOL0     C 3278   5.433   5.192   4.471 -0.3181 -0.5692 -0.3791
  783MOL0     C 3279   5.454   5.181   4.608 -0.0897  0.4082 -0.1910
  783MOL0     C 3280   5.547   5.097   4.663  0.3568 -0.3241  0.2941
  783MOL0     C 3281   5.619   5.000   4.586  0.1177 -0.6401  0.8536
  783MOL0     O 3282   5.705   4.914   4.641 -0.1921  0.5248 -0.4315
  783MOL0     C 3283   5.831   4.975   4.678  0.0498  0.2143  0.2982
  783MOL0     C 3284   5.949   4.902   4.603 -0.4385 -1.2994 -0.2968
  783MOL0     C 3285   5.962   4.939   4.461 -0.2622  0.9356  0.8624
  783MOL0     C 3286   6.095   4.870   4.402  0.6359  0.3018  0.8318
  783MOL0     C 3287   6.118   4.930   4.266 -0.4461  1.5289 -0.5562
  783MOL0     C 3288   6.133   4.984   4.160 -0.8443  0.1623 -0.1227
  783MOL0     C 3289   5.604   5.012   4.445 -0.6099  0.2184 -0.6903
  783MOL0     C 3290   5.512   5.101   4.397 -0.1093 -1.0830  0.6435
  783MOL0     H 3291   5.377   5.547   4.295 -0.5055 -2.5324 -0.4190
  783MOL0     H 3292   5.239   5.717   4.194  0.3981  1.0458  0.8659
  783MOL0     H 3293   4.813   5.764   4.376 -1.4709 -0.8933 -0.8794
  783MOL0     H 3294   4.795   5.681   4.226  0.6445 -0.2766 -0.5534
  783MOL0     H 3295   4.834   5.982   4.259  0.3000 -0.7364  2.6605
  783MOL0     H 3296   4.681   5.895   4.250  1.2423  1.9615  0.5881
  783MOL0     H 3297   4.781   5.797   4.024 -1.5765 -0.0631 -1.0730
  783MOL0     H 3298   4.872   5.951   4.028 -0.1553  0.0395 -1.3151
  783MOL0     H 3299   4.632   5.919   3.921 -1.3985 -0.5478  0.3094
  783MOL0     H 3300   4.579   5.964   4.074  1.8894  1.0521  0.7182
  783MOL0     H 3301   4.755   6.160   3.912  0.5917 -2.7245 -0.9835
  783MOL0     H 3302   4.717   6.181   4.071  0.7445  0.3968 -0.7060
  783MOL0     H 3303   4.481   6.183   4.042  0.1980 -0.0625  0.3433
  783MOL0     H 3304   4.490   6.153   3.863 -1.0168  0.3897  0.3742
  783MOL0     H 3305   4.643   6.339   3.848 -0.1128 -0.1766 -0.0439
  783MOL0     H 3306   4.462   6.369   3.863 -0.2846  0.8436  0.6113
  783MOL0     H 3307   4.602   6.543   3.972 -3.0466 -0.5526 -1.6630
  783MOL0     H 3308   4.674   6.416   4.080 -0.8746 -1.7077  1.2359
  783MOL0     H 3309   4.337   6.613   4.036  0.1878 -0.3561 -0.3275
  783MOL0     H 3310   4.077   6.542   4.217  0.3480  1.5612 -1.1347
  783MOL0     H 3311   4.168   6.698   4.205 -1.6839  0.7696 -0.2009
  783MOL0     H 3312   4.236   6.619   4.459  1.0475 -2.2285 -1.1104
  783MOL0     H 3313   4.109   6.509   4.449  1.8801 -0.5921  1.7672
  783MOL0     H 3314   3.952   6.702   4.400 -1.3026  2.6893  3.1851
  783MOL0     H 3315   4.011   6.682   4.558 -1.3910  0.5981  0.1316
  783MOL0     H 3316   4.201   6.865   4.504  0.3117  0.0927 -0.6990
  783MOL0     H 3317   4.025   6.912   4.518 -2.2972 -0.2436 -1.1121
  783MOL0     H 3318   4.108   6.910   4.079  0.2587  0.1990 -0.6064
  783MOL0     H 3319   3.903   6.897   3.934 -0.5475  0.4826 -0.0569
  783MOL0     H 3320   3.488   6.953   3.777 -1.2554 -2.7856  0.4938
  783MOL0     H 3321   3.270   7.030   3.658 -0.7292 -2.9900 -0.8512
  783MOL0     H 3322   3.064   7.303   3.828 -2.4883  1.5966 -0.9022
  783MOL0     H 3323   2.975   7.228   3.958  0.2812  1.9802  0.3389
  783MOL0     H 3324   2.799   7.172   3.777 -1.5810  0.7647  0.2220
  783MOL0     H 3325   2.890   7.293   3.684 -0.4941  1.3204  1.0145
  783MOL0     H 3326   2.872   7.460   3.857  3.6667 -1.4577  2.9987
  783MOL0     H 3327   2.790   7.354   3.963  2.4357 -0.0367  0.2019
  783MOL0     H 3328   2.642   7.507   3.821 -1.7971 -0.1523  0.7215
  783MOL0     H 3329   2.696   7.403   3.678  2.4176 -0.7040  0.8795
  783MOL0     H 3330   2.563   7.220   3.761 -1.4871  0.2737 -0.2537
  783MOL0     H 3331   2.471   7.365   3.727  0.4718  0.2455 -0.7423
  783MOL0     H 3332   2.407   7.390   3.969 -1.2548 -0.4480  1.2079
  783MOL0     H 3333   2.540   7.324   4.035  1.2472  2.1002 -1.7317
  783MOL0     H 3334   2.312   7.187   3.870  2.0761  1.0430 -2.1116
  783MOL0     H 3335   2.447   7.087   3.937 -1.5622 -1.1636 -0.3185
  783MOL0     H 3336   2.261   7.272   4.075  2.0285  1.3029 -4.0370
  783MOL0     H 3337   2.373   7.173   4.159 -0.5420  4.1698  0.8008
  783MOL0     H 3338   3.118   7.092   4.063  0.3749  0.2104  0.1970
  783MOL0     H 3339   3.339   7.029   4.160  0.8970 -0.7128  0.1785
  783MOL0     H 3340   3.654   7.008   4.254  0.3407 -0.2516 -0.7060
  783MOL0     H 3341   3.847   6.982   4.413 -0.9233  2.4090  0.6986
  783MOL0     H 3342   4.904   5.586   4.456  0.4167 -1.7386 -0.9217
  783MOL0     H 3343   5.052   5.411   4.550  2.3557 -0.4716 -0.0955
  783MOL0     H 3344   5.401   5.260   4.661  1.0651  1.2124 -0.1869
  783MOL0     H 3345   5.541   5.083   4.771 -3.3985 -4.1590 -0.1088
  783MOL0     H 3346   5.856   4.976   4.785  0.7343 -1.9343  0.2087
  783MOL0     H 3347   5.819   5.078   4.643 -2.1096 -0.0791  0.0358
  783MOL0     H 3348   6.045   4.928   4.649 -1.1639  1.4305 -0.1787
  783MOL0     H 3349   5.925   4.796   4.615 -1.0905 -1.1543 -0.3160
  783MOL0     H 3350   5.964   5.048   4.447  0.2449  0.8663  0.3310
  783MOL0     H 3351   5.868   4.914   4.411  0.6010 -1.2958  0.2438
  783MOL0     H 3352   6.182   4.894   4.464  0.5698 -0.5390  1.2575
  783MOL0     H 3353   6.076   4.762   4.401  4.5418 -0.5313 -0.7001
  783MOL0     H 3354   6.164   5.037   4.072  0.1381 -0.1119  0.0475
  783MOL0     H 3355   5.658   4.954   4.371 -3.0399 -0.5521 -1.9673
  783MOL0     H 3356   5.493   5.096   4.290 -2.5789  1.8094  0.8043
  784MOL0     O 3357   3.554   8.583   5.648 -0.7040  0.4124 -0.9603
  784MOL0     C 3358   3.615   8.542   5.756  0.4958 -0.6544 -0.1645
  784MOL0     O 3359   3.577   8.421   5.826  0.7225  0.1823  0.0753
  784MOL0     C 3360   3.470   8.342   5.795 -0.8449 -1.6142  0.1133
  784MOL0     C 3361   3.353   8.395   5.742 -0.0815 -0.3232  0.0813
  784MOL0     C 3362   3.253   8.305   5.727 -0.5103  0.1855  0.2677
  784MOL0     C 3363   3.260   8.175   5.767 -0.6645 -0.1097  0.5217
  784MOL0     O 3364   3.150   8.092   5.748 -0.6397  0.4121  0.0872
  784MOL0     C 3365   3.117   8.005   5.860 -0.5531 -0.5273 -0.3992
  784MOL0     C 3366   3.031   7.886   5.812  0.0460  0.3306  0.3677
  784MOL0     C 3367   2.964   7.901   5.676  0.1711  0.0443  0.5898
  784MOL0     C 3368   2.863   7.790   5.649 -0.5283  0.1989 -0.2119
  784MOL0     C 3369   2.808   7.795   5.508  0.1846  0.0699 -0.9497
  784MOL0     C 3370   2.685   7.699   5.492  0.0986 -0.4151 -0.2443
  784MOL0     C 3371   2.633   7.695   5.347  0.1197 -0.0085 -0.0993
  784MOL0     C 3372   2.561   7.812   5.296 -0.3698 -0.6932  0.2539
  784MOL0     N 3373   2.541   7.787   5.156  0.5947 -0.0802 -0.5040
  784MOL0     C 3374   2.623   7.823   5.053 -0.8685  0.3197  0.1220
  784MOL0     C 3375   2.557   7.797   4.938 -0.4712  0.3201  0.5030
  784MOL0     C 3376   2.615   7.833   4.807  0.3271  0.0745  0.5191
  784MOL0     C 3377   2.592   7.729   4.694 -0.4349 -0.6548  0.1485
  784MOL0     C 3378   2.642   7.590   4.726 -0.7000  0.2757  0.0505
  784MOL0     C 3379   2.786   7.580   4.773 -0.0283 -0.6338  0.7454
  784MOL0     O 3380   2.838   7.454   4.810 -0.0638  0.7370  0.1735
  784MOL0     C 3381   2.918   7.381   4.719 -0.0541  0.3732 -0.3807
  784MOL0     C 3382   2.954   7.414   4.594  0.8176  0.5102 -0.4113
  784MOL0     C 3383   3.038   7.342   4.511 -0.7022  0.2661 -0.9252
  784MOL0     C 3384   3.098   7.220   4.566 -0.5399 -0.2477  0.4998
  784MOL0     C 3385   3.166   7.122   4.474 -0.7882 -0.5450 -0.3730
  784MOL0     O 3386   3.194   7.001   4.528 -0.3443 -0.2025 -0.1518
  784MOL0     C 3387   3.264   6.910   4.454  0.2944  0.0041  0.1477
  784MOL0     C 3388   3.399   6.926   4.439  0.6930 -0.3080 -0.8174
  784MOL0     C 3389   3.466   6.826   4.367 -0.6216  0.2131  0.0844
  784MOL0     C 3390   3.406   6.720   4.307  0.1182  0.7974  0.5439
  784MOL0     O 3391   3.489   6.637   4.234 -0.6762  0.0452 -0.2002
  784MOL0     C 3392   3.425   6.567   4.129  0.2060 -0.6534  0.2440
  784MOL0     C 3393   3.507   6.602   4.005 -0.9752 -0.1483 -0.1599
  784MOL0     C 3394   3.421   6.585   3.872  0.2491  1.9161  0.0791
  784MOL0     C 3395   3.497   6.612   3.737 -0.6744 -0.3548 -0.2157
  784MOL0     C 3396   3.415   6.648   3.608  1.0530  1.3303  0.3109
  784MOL0     C 3397   3.307   6.542   3.572  0.9806 -0.0744  0.3411
  784MOL0     C 3398   3.357   6.427   3.478  0.4571 -0.0804  0.0901
  784MOL0     C 3399   3.258   6.347   3.390 -0.3357  0.0432 -0.7343
  784MOL0    Cl 3400   3.141   6.269   3.504  0.2494 -0.5343  0.2121
  784MOL0     C 3401   3.272   6.694   4.335 -0.3684 -1.0260  1.1479
  784MOL0     C 3402   3.202   6.794   4.402  0.3341  0.0569  1.1458
  784MOL0     O 3403   3.207   7.161   4.361  0.2074 -0.3917 -0.3608
  784MOL0     C 3404   3.058   7.179   4.695 -0.4455 -0.6771  1.1150
  784MOL0     C 3405   2.977   7.261   4.772  0.1950 -0.1131  0.6220
  784MOL0     N 3406   2.445   7.725   4.973  0.9258 -0.7848 -0.0606
  784MOL0     N 3407   2.436   7.730   5.102  0.7516  0.8720 -0.3594
  784MOL0     C 3408   3.383   8.126   5.805  0.4480 -0.6780 -0.5413
  784MOL0     C 3409   3.488   8.215   5.829  0.0088  1.3378 -0.0421
  784MOL0     C 3410   3.729   8.620   5.801 -0.0670  0.0602 -0.6446
  784MOL0     C 3411   3.765   8.609   5.933  0.5324 -0.2347 -0.4727
  784MOL0     C 3412   3.877   8.664   5.982 -1.1345  0.1467 -1.0562
  784MOL0     C 3413   3.958   8.740   5.905  0.0748 -0.7159  1.2327
  784MOL0     O 3414   4.062   8.796   5.961 -0.1587 -0.7578  0.0139
  784MOL0     C 3415   4.162   8.877   5.900  0.1179 -0.4808  0.1175
  784MOL0     C 3416   4.285   8.897   5.984 -0.7511 -0.1084  0.2110
  784MOL0     C 3417   4.393   8.975   5.900  0.1599 -0.2831  0.0578
  784MOL0     C 3418   4.524   8.999   5.968  0.1506  0.2167  0.1441
  784MOL0     C 3419   4.623   9.066   5.885  0.2073  0.0713  0.6976
  784MOL0     C 3420   4.701   9.121   5.806 -0.8019  0.7749 -0.5158
  784MOL0     C 3421   3.929   8.749   5.769  0.3797  1.0545  0.8687
  784MOL0     C 3422   3.804   8.694   5.717  1.0130  0.4500 -0.0564
  784MOL0     H 3423   3.333   8.502   5.748  0.3976 -0.3089  2.2372
  784MOL0     H 3424   3.161   8.347   5.686 -0.0797  1.1004  0.1999
  784MOL0     H 3425   3.061   8.055   5.940 -0.8795 -0.4601 -0.6686
  784MOL0     H 3426   3.210   7.971   5.905  0.1365  2.6792  0.9253
  784MOL0     H 3427   2.955   7.860   5.887  1.3852  1.5326  2.2071
  784MOL0     H 3428   3.096   7.801   5.791 -1.6560 -0.2136 -3.4696
  784MOL0     H 3429   3.037   7.903   5.595 -0.0244  1.5974  0.4324
  784MOL0     H 3430   2.903   7.992   5.675  1.4495  0.9374  1.1169
  784MOL0     H 3431   2.910   7.692   5.660 -2.9767 -0.9183  1.2530
  784MOL0     H 3432   2.787   7.808   5.726 -1.4974  1.3423 -1.3862
  784MOL0     H 3433   2.894   7.768   5.446 -0.0848  0.4544 -1.4980
  784MOL0     H 3434   2.773   7.896   5.482 -0.0270 -0.5626 -3.3682
  784MOL0     H 3435   2.593   7.722   5.548  0.3971  0.0513  0.0573
  784MOL0     H 3436   2.709   7.598   5.526  0.7718  0.5557  2.4029
  784MOL0     H 3437   2.721   7.666   5.289  1.6982  0.2348  2.0144
  784MOL0     H 3438   2.569   7.606   5.339  2.6230 -2.3012  2.7311
  784MOL0     H 3439   2.628   7.898   5.296 -1.5338  0.3660 -3.0012
  784MOL0     H 3440   2.463   7.837   5.338 -0.0848  1.4176 -0.1797
  784MOL0     H 3441   2.725   7.858   5.061 -0.3616 -1.2858  1.0806
  784MOL0     H 3442   2.721   7.852   4.824  1.0936 -0.9317 -2.4606
  784MOL0     H 3443   2.559   7.922   4.776 -0.1739 -0.8940 -1.5068
  784MOL0     H 3444   2.651   7.757   4.607  2.8616 -1.5280  1.8929
  784MOL0     H 3445   2.486   7.735   4.670 -0.8681  1.8290  2.2669
  784MOL0     H 3446   2.574   7.550   4.802  0.3235 -1.1311  0.2870
  784MOL0     H 3447   2.619   7.534   4.635 -0.7622  1.5765 -0.7500
  784MOL0     H 3448   2.789   7.643   4.863 -0.1784  0.7141 -0.1529
  784MOL0     H 3449   2.847   7.644   4.709 -3.1783  3.2744  1.2185
  784MOL0     H 3450   2.930   7.512   4.554 -0.3588  1.0832  1.5833
  784MOL0     H 3451   3.051   7.372   4.407  1.2737  1.6571 -0.3267
  784MOL0     H 3452   3.452   7.004   4.494 -1.5627 -0.8614  2.4132
  784MOL0     H 3453   3.574   6.824   4.351 -0.7427  0.2952 -0.7471
  784MOL0     H 3454   3.319   6.585   4.113  0.7217  0.4838 -2.4316
  784MOL0     H 3455   3.433   6.458   4.120  0.8007 -0.7425  1.5614
  784MOL0     H 3456   3.606   6.555   3.999  1.0198  3.6491 -0.1414
  784MOL0     H 3457   3.532   6.708   3.998 -1.4349 -0.1053 -1.2727
  784MOL0     H 3458   3.329   6.643   3.867 -0.7610  0.3168 -0.5176
  784MOL0     H 3459   3.383   6.483   3.868 -1.2518  2.4321  0.4872
  784MOL0     H 3460   3.569   6.691   3.760 -0.2538 -1.0198  0.8822
  784MOL0     H 3461   3.573   6.534   3.721 -1.7814 -1.2208 -1.4999
  784MOL0     H 3462   3.480   6.673   3.523  3.7242 -2.2179  1.0732
  784MOL0     H 3463   3.362   6.742   3.628 -1.6576 -0.0798  0.1720
  784MOL0     H 3464   3.224   6.597   3.526  1.1154 -0.2422 -0.0986
  784MOL0     H 3465   3.266   6.496   3.662 -0.0632  3.5454  1.9329
  784MOL0     H 3466   3.423   6.457   3.397 -1.4646 -0.3079 -1.6557
  784MOL0     H 3467   3.402   6.353   3.545 -2.5307  0.2330  2.6708
  784MOL0     H 3468   3.306   6.286   3.313 -0.9789 -1.2905 -0.1024
  784MOL0     H 3469   3.195   6.420   3.336  1.7973  2.5413 -0.0343
  784MOL0     H 3470   3.223   6.603   4.302  0.7009 -0.8035 -1.2865
  784MOL0     H 3471   3.095   6.785   4.415  0.5484 -0.7956  2.4771
  784MOL0     H 3472   3.098   7.086   4.734 -1.9247 -1.4918  0.7509
  784MOL0     H 3473   2.942   7.243   4.873 -1.4978  0.8267  0.2263
  784MOL0     H 3474   3.395   8.019   5.823 -0.0485 -0.5117  0.8756
  784MOL0     H 3475   3.577   8.195   5.888 -0.1903 -0.2270 -0.2337
  784MOL0     H 3476   3.703   8.563   6.010 -0.9397  1.8438 -0.3202
  784MOL0     H 3477   3.903   8.652   6.087 -0.3961  0.5606 -1.1800
  784MOL0     H 3478   4.125   8.979   5.886  2.9819  0.2805 -3.6553
  784MOL0     H 3479   4.190   8.850   5.798  1.6938  0.0797  0.3697
  784MOL0     H 3480   4.264   8.944   6.080  1.1559 -2.1789  1.7477
  784MOL0     H 3481   4.328   8.802   6.016  2.9942  0.9215 -1.2134
  784MOL0     H 3482   4.357   9.073   5.868 -0.5516  0.6585  3.3556
  784MOL0     H 3483   4.411   8.928   5.803  4.7082  0.9649  0.0406
  784MOL0     H 3484   4.514   9.061   6.058 -2.1934 -0.7590  0.6444
  784MOL0     H 3485   4.575   8.904   5.984  2.1161  1.2411  0.2803
  784MOL0     H 3486   4.774   9.153   5.734 -1.2055 -0.2999 -1.4364
  784MOL0     H 3487   3.992   8.810   5.705  2.2158  0.2812  1.8631
  784MOL0     H 3488   3.776   8.710   5.614 -3.2877  3.0486  1.2669
  785MOL0     O 3489  10.719   2.892   7.183 -0.4472  0.2784 -0.5083
  785MOL0     C 3490  10.687   2.916   7.298 -0.2333 -0.2989 -0.0323
  785MOL0     O 3491  10.752   3.006   7.383  0.0751 -0.1226 -1.0952
  785MOL0     C 3492  10.878   3.034   7.356 -0.5611 -0.6022 -0.8760
  785MOL0     C 3493  10.927   3.151   7.424 -0.2353  0.5285  0.2086
  785MOL0     C 3494  11.066   3.183   7.411  0.9919 -0.4018  0.2159
  785MOL0     C 3495  11.158   3.107   7.338 -0.7430 -0.1489 -0.2541
  785MOL0     O 3496  11.294   3.139   7.324 -0.5373  0.3945 -0.0110
  785MOL0     C 3497  11.356   3.249   7.386  0.1180  0.8980 -0.2323
  785MOL0     C 3498  11.393   3.236   7.534  0.2797 -0.0599  0.0696
  785MOL0     C 3499  11.466   3.370   7.581 -0.1978 -0.5400  0.6334
  785MOL0     C 3500  11.542   3.348   7.711 -0.6005 -1.0947 -0.3153
  785MOL0     C 3501  11.632   3.462   7.744  0.1165 -0.5651 -0.0503
  785MOL0     C 3502  11.659   3.487   7.892  0.3612  0.1958 -0.4832
  785MOL0     C 3503  11.763   3.392   7.947  0.1008  0.1998 -0.0704
  785MOL0     C 3504  11.761   3.408   8.102 -0.4695  0.0568 -0.4715
  785MOL0     N 3505  11.864   3.505   8.158  0.2204 -0.9260 -0.2495
  785MOL0     C 3506  11.859   3.636   8.139 -0.1775  0.6993  0.2782
  785MOL0     C 3507  11.956   3.691   8.219  0.0683  0.4892 -0.4235
  785MOL0     C 3508  12.007   3.833   8.224  0.0660  0.3970  0.8316
  785MOL0     C 3509  11.950   3.910   8.343 -0.8544 -0.6414 -0.1451
  785MOL0     C 3510  11.962   3.830   8.473 -0.1795  0.8438 -0.5128
  785MOL0     C 3511  12.111   3.809   8.524 -0.3465  0.9357  0.5129
  785MOL0     O 3512  12.178   3.924   8.525  0.0214 -0.4073  0.1815
  785MOL0     C 3513  12.294   3.935   8.455 -0.4050  0.3651 -1.5115
  785MOL0     C 3514  12.303   4.006   8.340  0.0149 -0.3260 -0.7325
  785MOL0     C 3515  12.409   4.007   8.257 -0.5466 -0.2284  0.1430
  785MOL0     C 3516  12.527   3.943   8.295  0.8532  0.2808 -0.7067
  785MOL0     C 3517  12.653   3.937   8.211  0.8974  0.1967 -0.0277
  785MOL0     O 3518  12.769   3.908   8.282  0.2906  0.2262  0.3264
  785MOL0     C 3519  12.891   3.933   8.220 -0.0823  0.1725  0.1449
  785MOL0     C 3520  12.983   3.836   8.217  0.4563  0.0878  0.1093
  785MOL0     C 3521  13.111   3.858   8.170 -0.9412 -0.1880  0.2812
  785MOL0     C 3522  13.154   3.985   8.122  0.3896 -0.4287  0.7686
  785MOL0     O 3523  13.287   4.002   8.082  0.1568  0.4175  0.1428
  785MOL0     C 3524  13.319   4.131   8.026 -0.0258 -0.0838  0.3679
  785MOL0     C 3525  13.454   4.145   7.976 -0.1301  0.5000  0.0527
  785MOL0     C 3526  13.567   4.188   8.081  0.1660 -0.4164 -0.1634
  785MOL0     C 3527  13.688   4.242   8.002 -0.0636  0.6478  0.8703
  785MOL0     C 3528  13.810   4.239   8.092 -0.9380 -0.0011  0.0127
  785MOL0     C 3529  13.927   4.324   8.032 -0.7160 -0.1200  0.1618
  785MOL0     C 3530  14.061   4.335   8.115 -0.4041  0.2699  0.5087
  785MOL0     C 3531  14.176   4.403   8.030  1.0747 -0.2729  1.1044
  785MOL0    Cl 3532  14.319   4.450   8.124  0.2756  0.2162 -0.4618
  785MOL0     C 3533  13.057   4.086   8.126 -0.4613 -0.3277  0.4476
  785MOL0     C 3534  12.926   4.061   8.165 -0.2736 -0.3162  0.0120
  785MOL0     O 3535  12.644   3.963   8.093  0.6212 -0.2806  0.1147
  785MOL0     C 3536  12.529   3.885   8.425  0.9640  0.1725 -0.7064
  785MOL0     C 3537  12.410   3.876   8.509 -0.5535  0.5441  0.8968
  785MOL0     N 3538  12.006   3.585   8.283 -0.0296  0.2391 -1.0896
  785MOL0     N 3539  11.962   3.467   8.240 -0.5041 -0.7108 -0.1324
  785MOL0     C 3540  11.114   2.986   7.279 -0.7081 -0.0250  0.8702
  785MOL0     C 3541  10.978   2.955   7.282 -0.3405  0.2530 -0.2276
  785MOL0     C 3542  10.568   2.867   7.353  0.5920  0.9240 -0.0178
  785MOL0     C 3543  10.452   2.870   7.267 -0.2441 -0.9275 -0.4381
  785MOL0     C 3544  10.327   2.821   7.308  0.4392  0.2968 -0.6606
  785MOL0     C 3545  10.302   2.795   7.445  0.0222 -0.0517 -0.8237
  785MOL0     O 3546  10.173   2.762   7.484  0.3018 -0.5276 -0.0677
  785MOL0     C 3547  10.145   2.710   7.614 -0.1002 -0.9580  0.4600
  785MOL0     C 3548  10.000   2.748   7.662  0.5743  0.7068  0.3681
  785MOL0     C 3549   9.898   2.687   7.569 -0.0249 -0.3731  0.3531
  785MOL0     C 3550   9.775   2.776   7.574 -0.2241  0.5512 -1.2258
  785MOL0     C 3551   9.672   2.721   7.488  0.3549  0.4669 -0.1865
  785MOL0     C 3552   9.603   2.668   7.413  0.4711  0.0880 -0.1670
  785MOL0     C 3553  10.422   2.797   7.529 -0.5994 -1.1430 -0.0270
  785MOL0     C 3554  10.554   2.833   7.493  0.7808 -0.7068  0.8553
  785MOL0     H 3555  10.854   3.211   7.478  0.9813  0.4135  2.0627
  785MOL0     H 3556  11.096   3.273   7.465 -2.0048  2.5782 -2.5459
  785MOL0     H 3557  11.279   3.326   7.399 -0.5333  0.5293 -1.6936
  785MOL0     H 3558  11.440   3.293   7.332  1.4925 -0.4757  0.7192
  785MOL0     H 3559  11.465   3.154   7.534  3.7607  2.7243  1.2528
  785MOL0     H 3560  11.300   3.215   7.587  1.7620 -0.4069  2.7354
  785MOL0     H 3561  11.385   3.444   7.589  0.6972  0.7239 -1.3245
  785MOL0     H 3562  11.539   3.397   7.504 -1.1096 -2.8066 -1.1463
  785MOL0     H 3563  11.473   3.333   7.795 -0.4598 -0.4079 -0.0718
  785MOL0     H 3564  11.604   3.259   7.700  0.4440 -0.3704 -0.4661
  785MOL0     H 3565  11.588   3.555   7.707 -2.5559 -1.8267 -0.2604
  785MOL0     H 3566  11.727   3.459   7.691 -0.1210 -1.6737 -0.4352
  785MOL0     H 3567  11.565   3.481   7.948  0.3618  0.4810 -0.4503
  785MOL0     H 3568  11.688   3.592   7.903 -0.5728  0.3327  0.9151
  785MOL0     H 3569  11.719   3.294   7.925  0.4779  0.2143 -0.8946
  785MOL0     H 3570  11.862   3.411   7.905 -0.3654  1.4311 -0.6655
  785MOL0     H 3571  11.772   3.307   8.142 -1.0479 -0.5916 -1.8655
  785MOL0     H 3572  11.660   3.443   8.127 -1.0026 -0.0361 -2.3194
  785MOL0     H 3573  11.787   3.689   8.076  1.2581  0.0960 -1.9817
  785MOL0     H 3574  11.979   3.881   8.129 -0.0087  0.6079  0.9600
  785MOL0     H 3575  12.116   3.830   8.235  0.2805  2.4841 -0.3224
  785MOL0     H 3576  11.843   3.926   8.327 -1.3267 -0.0280  2.9241
  785MOL0     H 3577  11.992   4.009   8.360 -1.6031 -0.6278  1.8660
  785MOL0     H 3578  11.910   3.884   8.553 -1.1143 -0.1159 -0.4583
  785MOL0     H 3579  11.923   3.728   8.468  4.1913 -1.0108 -1.4226
  785MOL0     H 3580  12.157   3.727   8.468 -1.6400  0.2841  0.3687
  785MOL0     H 3581  12.098   3.789   8.630 -3.5737 -0.6892 -0.0750
  785MOL0     H 3582  12.228   4.073   8.299  2.8705  3.0052 -0.9886
  785MOL0     H 3583  12.401   4.049   8.157  1.4301 -0.0870  0.0034
  785MOL0     H 3584  12.958   3.739   8.259  0.2259  0.7376  1.5246
  785MOL0     H 3585  13.178   3.774   8.187  0.2314  0.5462 -0.5301
  785MOL0     H 3586  13.304   4.211   8.100  2.0152  2.0371 -1.3570
  785MOL0     H 3587  13.259   4.138   7.934  1.0886  0.6107 -0.3260
  785MOL0     H 3588  13.440   4.219   7.898 -1.5810 -1.0936 -1.2948
  785MOL0     H 3589  13.475   4.055   7.917  1.5659  0.4263  0.7183
  785MOL0     H 3590  13.593   4.103   8.145  2.5997 -0.5417 -1.2096
  785MOL0     H 3591  13.526   4.266   8.146 -2.2192 -2.0240  0.3995
  785MOL0     H 3592  13.692   4.173   7.917  0.8098  0.7891  0.7909
  785MOL0     H 3593  13.668   4.342   7.962  2.6587  0.8437 -0.2681
  785MOL0     H 3594  13.837   4.134   8.103  1.6726  0.7889  2.1047
  785MOL0     H 3595  13.775   4.272   8.190 -1.8860  1.3313 -0.7510
  785MOL0     H 3596  13.889   4.424   8.009 -1.0183 -0.8394 -3.0122
  785MOL0     H 3597  13.955   4.282   7.935  1.1031  1.5357 -0.0956
  785MOL0     H 3598  14.051   4.387   8.211 -0.4274 -1.0201  1.2319
  785MOL0     H 3599  14.092   4.235   8.148 -0.5653 -0.2751 -0.9341
  785MOL0     H 3600  14.131   4.494   7.989 -0.2159 -1.6241 -0.6461
  785MOL0     H 3601  14.208   4.327   7.959 -3.0122 -0.6342 -0.6511
  785MOL0     H 3602  13.071   4.190   8.096 -2.1270 -0.5751 -1.4750
  785MOL0     H 3603  12.841   4.128   8.164  0.0963  0.2228 -2.9841
  785MOL0     H 3604  12.624   3.838   8.450  1.5233 -0.6179 -3.8017
  785MOL0     H 3605  12.400   3.813   8.597 -1.0669  0.7345  0.9733
  785MOL0     H 3606  11.193   2.922   7.241  0.6128  2.5218 -1.0117
  785MOL0     H 3607  10.969   2.856   7.237 -3.0645 -1.0525  2.7875
  785MOL0     H 3608  10.467   2.915   7.170 -2.2561 -0.3737 -0.5284
  785MOL0     H 3609  10.247   2.827   7.235  0.3312  1.1106 -0.4908
  785MOL0     H 3610  10.213   2.755   7.686  0.6028 -3.4498  1.4815
  785MOL0     H 3611  10.154   2.601   7.618 -1.7200 -1.1639 -0.4271
  785MOL0     H 3612   9.982   2.702   7.760 -1.0930 -0.4200 -0.4228
  785MOL0     H 3613   9.986   2.857   7.659 -2.2566  0.4041  0.1209
  785MOL0     H 3614   9.869   2.584   7.589 -1.3335 -0.0136  0.3702
  785MOL0     H 3615   9.925   2.685   7.463 -1.2763 -0.3561  0.0162
  785MOL0     H 3616   9.737   2.783   7.676  3.9528  1.9658  0.4599
  785MOL0     H 3617   9.800   2.882   7.558 -1.1592  1.6172  3.2349
  785MOL0     H 3618   9.534   2.631   7.340 -0.6921 -2.5076  2.0736
  785MOL0     H 3619  10.419   2.765   7.633  0.5206  1.5981  0.9275
  785MOL0     H 3620  10.634   2.832   7.567  3.2063 -2.1929 -1.5754
  786MOL0     O 3621   0.401   9.474  11.084  0.6100 -0.8133 -0.0893
  786MOL0     C 3622   0.482   9.434  11.004 -0.3822  0.6911 -0.5477
  786MOL0     O 3623   0.453   9.403  10.875  0.5571 -0.0542 -0.8291
  786MOL0     C 3624   0.320   9.365  10.842 -0.1983  0.5867 -0.2959
  786MOL0     C 3625   0.219   9.307  10.929 -0.1205 -0.6010 -0.5765
  786MOL0     C 3626   0.093   9.276  10.888 -0.1746  0.2136  0.0825
  786MOL0     C 3627   0.049   9.302  10.756  0.0879 -0.8865 -0.1502
  786MOL0     O 3628  -0.076   9.290  10.694 -0.2175  0.1507 -0.2749
  786MOL0     C 3629  -0.167   9.182  10.732 -0.0861 -0.3033  0.3627
  786MOL0     C 3630  -0.258   9.228  10.844 -0.3234 -0.2624 -0.0556
  786MOL0     C 3631  -0.391   9.295  10.783 -1.0737 -0.1327  1.2682
  786MOL0     C 3632  -0.363   9.407  10.678  0.8280  0.0221  0.6213
  786MOL0     C 3633  -0.480   9.498  10.637  0.2792  0.2940  0.2813
  786MOL0     C 3634  -0.597   9.410  10.595  0.1130 -0.4167  0.2826
  786MOL0     C 3635  -0.693   9.498  10.524  0.0517 -0.2943  0.5158
  786MOL0     C 3636  -0.779   9.589  10.616  0.1374 -0.0170 -0.1134
  786MOL0     N 3637  -0.892   9.654  10.543  0.5252  0.4730  0.4833
  786MOL0     C 3638  -1.022   9.669  10.580  0.0249  0.0522  0.0399
  786MOL0     C 3639  -1.068   9.762  10.498 -0.1748  0.9479  0.3554
  786MOL0     C 3640  -1.214   9.815  10.477 -0.7133  0.6197 -0.6297
  786MOL0     C 3641  -1.329   9.734  10.515 -0.2811  0.4460 -0.4373
  786MOL0     C 3642  -1.341   9.604  10.439 -0.1167  0.4255 -0.4014
  786MOL0     C 3643  -1.468   9.517  10.478 -0.3435 -0.2008 -0.3081
  786MOL0     O 3644  -1.502   9.520  10.622 -0.9507  0.1434  0.0081
  786MOL0     C 3645  -1.621   9.482  10.669 -0.9475 -0.1085 -0.7774
  786MOL0     C 3646  -1.657   9.542  10.791 -0.1208  0.2447  1.0186
  786MOL0     C 3647  -1.786   9.530  10.838 -0.4485 -0.2170  0.7443
  786MOL0     C 3648  -1.882   9.434  10.790 -0.1573 -0.5258  0.4752
  786MOL0     C 3649  -2.017   9.431  10.838  0.4280 -0.6447  0.3853
  786MOL0     O 3650  -2.097   9.333  10.789 -0.6302 -0.2999 -0.3367
  786MOL0     C 3651  -2.224   9.322  10.854 -0.2757  0.6074  0.2190
  786MOL0     C 3652  -2.330   9.287  10.766 -0.0574  0.1943  0.6761
  786MOL0     C 3653  -2.459   9.273  10.796  0.3472 -0.3702  0.6809
  786MOL0     C 3654  -2.495   9.281  10.926  0.9175 -0.2737  0.0882
  786MOL0     O 3655  -2.629   9.271  10.968 -0.4783 -0.3196  0.2504
  786MOL0     C 3656  -2.711   9.178  10.897  0.5414  0.5695  1.2967
  786MOL0     C 3657  -2.832   9.136  10.986 -0.3251 -0.1161  0.7768
  786MOL0     C 3658  -2.935   9.243  11.020  0.8152 -0.1838  0.0440
  786MOL0     C 3659  -2.999   9.327  10.906 -0.1499 -0.2393  1.0189
  786MOL0     C 3660  -3.121   9.405  10.946  0.5490 -0.2058 -0.1804
  786MOL0     C 3661  -3.087   9.509  11.055 -0.5784  0.2394 -0.1107
  786MOL0     C 3662  -3.212   9.587  11.087  0.1898 -0.0117  0.1067
  786MOL0     C 3663  -3.207   9.739  11.074  0.0870  0.1984 -0.0509
  786MOL0    Cl 3664  -3.357   9.824  11.119 -0.2076 -0.4147 -0.3148
  786MOL0     C 3665  -2.397   9.309  11.026 -0.2668 -1.0334  0.7218
  786MOL0     C 3666  -2.262   9.337  10.992 -0.3740  0.0987  0.3288
  786MOL0     O 3667  -2.051   9.517  10.918 -0.0578 -0.9089 -0.6241
  786MOL0     C 3668  -1.839   9.369  10.675  0.3554  0.5925  0.2225
  786MOL0     C 3669  -1.708   9.394  10.619 -0.0495 -0.0345 -0.5349
  786MOL0     N 3670  -0.962   9.813  10.430  0.4246  0.7899  0.0101
  786MOL0     N 3671  -0.858   9.740  10.444 -0.5990 -0.5791  0.3917
  786MOL0     C 3672   0.139   9.355  10.668  0.4698 -0.7984  1.6684
  786MOL0     C 3673   0.274   9.385  10.709  1.4742  0.3302 -0.1874
  786MOL0     C 3674   0.621   9.417  11.048 -0.2604 -0.4181  0.3055
  786MOL0     C 3675   0.723   9.411  10.946 -0.1630 -0.7914  0.7856
  786MOL0     C 3676   0.857   9.407  10.987  0.0389 -0.4329 -0.0832
  786MOL0     C 3677   0.883   9.374  11.119 -0.9806  0.6446  0.2335
  786MOL0     O 3678   1.017   9.350  11.146 -0.0164  0.2808 -0.0635
  786MOL0     C 3679   1.054   9.293  11.271 -0.3437 -0.7898 -0.6888
  786MOL0     C 3680   1.208   9.309  11.302 -0.4773 -0.0137  0.2311
  786MOL0     C 3681   1.289   9.253  11.182  0.7246 -0.7959 -0.1429
  786MOL0     C 3682   1.291   9.095  11.158  0.3828 -0.3870  0.5920
  786MOL0     C 3683   1.336   9.036  11.293 -0.3230 -0.0580  0.5704
  786MOL0     C 3684   1.360   8.975  11.400 -0.4513  0.0371  0.2571
  786MOL0     C 3685   0.782   9.366  11.214 -1.2877  0.1685 -0.9391
  786MOL0     C 3686   0.653   9.388  11.180 -0.0550  0.1807 -0.2062
  786MOL0     H 3687   0.242   9.279  11.031 -4.5372 -0.4563  0.6381
  786MOL0     H 3688   0.031   9.226  10.961  2.2083 -0.7199  1.5894
  786MOL0     H 3689  -0.106   9.099  10.769  1.1198 -0.6834 -2.2178
  786MOL0     H 3690  -0.217   9.159  10.638  1.6041 -0.8155 -0.4660
  786MOL0     H 3691  -0.207   9.289  10.918 -0.9507 -0.7080  0.7591
  786MOL0     H 3692  -0.287   9.135  10.894 -0.6931  0.9716  2.1245
  786MOL0     H 3693  -0.454   9.332  10.865  0.3073 -0.7158  2.6578
  786MOL0     H 3694  -0.445   9.214  10.735 -1.8336  0.3047  1.3780
  786MOL0     H 3695  -0.284   9.463  10.729  1.9556 -3.3958  3.0322
  786MOL0     H 3696  -0.323   9.356  10.590  0.1355 -1.6677  1.2502
  786MOL0     H 3697  -0.444   9.547  10.546  1.9345 -2.3852 -0.6217
  786MOL0     H 3698  -0.501   9.579  10.707 -1.4567  2.3585 -2.3800
  786MOL0     H 3699  -0.644   9.345  10.669 -1.0433  1.8112  1.6062
  786MOL0     H 3700  -0.550   9.345  10.521 -2.2509 -0.1046 -1.5754
  786MOL0     H 3701  -0.639   9.568  10.459 -0.7385  1.9897  2.1809
  786MOL0     H 3702  -0.761   9.436  10.464  1.8844 -1.6203 -0.2755
  786MOL0     H 3703  -0.710   9.659  10.663 -1.1950  4.1580 -3.6333
  786MOL0     H 3704  -0.832   9.530  10.691 -0.3012  0.0096 -0.3927
  786MOL0     H 3705  -1.080   9.618  10.656 -1.6542  0.4170 -0.9542
  786MOL0     H 3706  -1.213   9.828  10.368  1.9472  2.0730 -0.5109
  786MOL0     H 3707  -1.216   9.914  10.523  2.2951  0.3327  0.2984
  786MOL0     H 3708  -1.410   9.799  10.480  0.5654  0.6402 -2.1294
  786MOL0     H 3709  -1.329   9.719  10.623 -1.3571 -0.9135 -0.5974
  786MOL0     H 3710  -1.341   9.618  10.330 -0.8132  0.8652 -0.3532
  786MOL0     H 3711  -1.261   9.536  10.469 -1.3213  0.8861  4.7645
  786MOL0     H 3712  -1.458   9.412  10.448 -1.2395 -0.9604  1.8511
  786MOL0     H 3713  -1.554   9.558  10.426 -1.1055 -0.2065  0.9049
  786MOL0     H 3714  -1.590   9.611  10.841  2.4602 -1.1476 -0.2944
  786MOL0     H 3715  -1.809   9.600  10.917 -0.1281  1.7164 -0.7885
  786MOL0     H 3716  -2.307   9.307  10.662 -2.3051  3.3458  0.6588
  786MOL0     H 3717  -2.527   9.252  10.713  0.0458 -0.7892  1.0238
  786MOL0     H 3718  -2.659   9.085  10.871 -0.9235 -0.4453  1.9160
  786MOL0     H 3719  -2.740   9.230  10.805  3.1089 -1.6575 -0.9724
  786MOL0     H 3720  -2.790   9.097  11.079 -0.3965 -0.3413  0.7169
  786MOL0     H 3721  -2.885   9.055  10.933 -1.9239  2.2564 -1.5319
  786MOL0     H 3722  -2.893   9.304  11.100 -0.1455  0.5774 -0.0077
  786MOL0     H 3723  -3.020   9.200  11.073  0.8674  0.3086  0.5382
  786MOL0     H 3724  -2.918   9.394  10.874 -0.5513 -0.4897 -0.6160
  786MOL0     H 3725  -3.031   9.262  10.824  1.4132  0.9114 -0.5795
  786MOL0     H 3726  -3.200   9.341  10.987  0.6593 -1.3274 -1.6275
  786MOL0     H 3727  -3.174   9.451  10.862  0.5165 -0.4277 -0.2831
  786MOL0     H 3728  -3.001   9.573  11.037  2.0386 -2.4352  1.8387
  786MOL0     H 3729  -3.064   9.455  11.148 -0.6302  2.2176  1.0988
  786MOL0     H 3730  -3.293   9.565  11.016 -0.7126 -0.7476  1.3276
  786MOL0     H 3731  -3.244   9.547  11.184 -3.2010 -2.7167 -1.8604
  786MOL0     H 3732  -3.179   9.770  10.973  0.8909  1.7547  0.6134
  786MOL0     H 3733  -3.140   9.783  11.149  1.2650 -4.1522  1.7989
  786MOL0     H 3734  -2.434   9.312  11.128 -3.1681  2.5879 -0.1948
  786MOL0     H 3735  -2.199   9.363  11.077  1.7369  0.4417 -1.2563
  786MOL0     H 3736  -1.913   9.305  10.629 -1.4214  3.2639 -0.8758
  786MOL0     H 3737  -1.683   9.342  10.528 -1.2413  3.2261 -2.9251
  786MOL0     H 3738   0.105   9.374  10.567  1.8176  2.0828  1.6371
  786MOL0     H 3739   0.349   9.422  10.639  0.7789  1.1556 -0.5101
  786MOL0     H 3740   0.700   9.431  10.842 -0.9707  3.7129  1.6164
  786MOL0     H 3741   0.933   9.412  10.910 -1.6401 -1.2683 -1.8719
  786MOL0     H 3742   1.041   9.185  11.262  1.3418 -1.1679  0.8927
  786MOL0     H 3743   0.996   9.335  11.354 -0.3853  0.5750 -1.3833
  786MOL0     H 3744   1.239   9.412  11.318  1.9928 -0.9785  2.2395
  786MOL0     H 3745   1.231   9.250  11.391 -1.0131  0.4536  0.6881
  786MOL0     H 3746   1.392   9.284  11.204  0.0632 -0.3497  2.8324
  786MOL0     H 3747   1.262   9.294  11.085  2.0119  0.0649 -0.1676
  786MOL0     H 3748   1.192   9.049  11.141  2.2639 -4.0215 -1.9626
  786MOL0     H 3749   1.353   9.066  11.073 -2.6078  2.0213 -2.7226
  786MOL0     H 3750   1.373   8.930  11.496 -3.0186 -1.2176  0.0843
  786MOL0     H 3751   0.798   9.326  11.314 -0.8531 -0.0806 -1.1077
  786MOL0     H 3752   0.573   9.375  11.252  0.8216  2.1869  1.2243
  787MOL0     O 3753   7.554   0.485  10.491  0.3202  0.0448 -0.0520
  787MOL0     C 3754   7.613   0.549  10.402  0.3227  0.4401 -0.3652
  787MOL0     O 3755   7.747   0.566  10.388  0.0774  0.7219 -0.8040
  787MOL0     C 3756   7.841   0.500  10.471  0.0572  0.4169  1.0134
  787MOL0     C 3757   7.947   0.572  10.523 -0.3805  0.0300 -0.6966
  787MOL0     C 3758   8.041   0.504  10.597 -0.8015 -0.1662  0.7101
  787MOL0     C 3759   8.043   0.369  10.635  0.2214 -0.1005  1.0833
  787MOL0     O 3760   8.149   0.322  10.711 -0.8357  0.1319 -0.1295
  787MOL0     C 3761   8.141   0.191  10.760  1.1240  0.3601 -0.4210
  787MOL0     C 3762   8.265   0.151  10.833 -0.0465 -0.1107  0.5491
  787MOL0     C 3763   8.261   0.004  10.869 -0.5784  0.3569  0.0284
  787MOL0     C 3764   8.393  -0.049  10.921 -0.2423 -0.0865 -0.4241
  787MOL0     C 3765   8.419   0.005  11.058  0.2462 -0.2250  0.0943
  787MOL0     C 3766   8.566  -0.009  11.097 -0.1125  0.2200  0.6631
  787MOL0     C 3767   8.605   0.032  11.243  0.3004 -0.0836  0.3961
  787MOL0     C 3768   8.514  -0.040  11.346  0.0095  0.3407 -0.0257
  787MOL0     N 3769   8.382   0.010  11.376 -0.1396  0.1398 -0.1410
  787MOL0     C 3770   8.343   0.135  11.394  0.3054  0.6712 -0.5089
  787MOL0     C 3771   8.217   0.139  11.448  0.4437 -0.7201  0.0847
  787MOL0     C 3772   8.145   0.270  11.481  0.0674 -0.1494 -0.0704
  787MOL0     C 3773   7.997   0.259  11.512 -0.3759 -0.6741 -0.2845
  787MOL0     C 3774   7.948   0.385  11.590 -0.5364  0.4267  1.0314
  787MOL0     C 3775   7.794   0.374  11.601 -0.1639  0.0588  0.1383
  787MOL0     O 3776   7.756   0.249  11.670  0.2615 -0.0476 -0.0974
  787MOL0     C 3777   7.617   0.245  11.693  0.0457  0.4206 -0.9182
  787MOL0     C 3778   7.571   0.297  11.821  0.2305 -0.8530 -0.6898
  787MOL0     C 3779   7.437   0.312  11.845 -0.1713 -0.2375 -0.2894
  787MOL0     C 3780   7.343   0.260  11.747 -0.5345 -0.2143  0.2736
  787MOL0     C 3781   7.197   0.267  11.757  0.5166 -0.0831  0.1471
  787MOL0     O 3782   7.124   0.220  11.659  0.1207  1.0236  0.3212
  787MOL0     C 3783   6.987   0.202  11.693 -0.0358 -0.4038  0.0284
  787MOL0     C 3784   6.941   0.071  11.721  0.0277  0.2817 -0.5944
  787MOL0     C 3785   6.805   0.053  11.740  0.3854 -0.3183  0.2202
  787MOL0     C 3786   6.717   0.160  11.721  0.6106 -0.0248  0.7253
  787MOL0     O 3787   6.580   0.142  11.733 -0.1869  0.1228  0.1202
  787MOL0     C 3788   6.525   0.009  11.752  0.3801  0.2432 -0.2629
  787MOL0     C 3789   6.385   0.056  11.758  0.4260  0.1918  0.4103
  787MOL0     C 3790   6.315   0.094  11.629  0.2120 -0.7514  0.9118
  787MOL0     C 3791   6.167   0.100  11.657 -0.3113  0.8186  0.0391
  787MOL0     C 3792   6.086   0.140  11.530  0.4922  0.2049  0.5503
  787MOL0     C 3793   5.935   0.141  11.562 -0.2065 -0.9664 -0.1006
  787MOL0     C 3794   5.900   0.257  11.658  0.4035  0.8412  0.3512
  787MOL0     C 3795   5.762   0.302  11.647  0.9463 -0.0505  0.4357
  787MOL0    Cl 3796   5.656   0.155  11.645  0.1378 -0.1468 -0.1069
  787MOL0     C 3797   6.766   0.284  11.684 -0.3132  0.5089 -0.2093
  787MOL0     C 3798   6.901   0.312  11.671  0.3465  0.7548 -0.0491
  787MOL0     O 3799   7.151   0.326  11.855  0.2347 -0.4702  0.1500
  787MOL0     C 3800   7.392   0.195  11.634 -0.2160  0.2637  0.1726
  787MOL0     C 3801   7.532   0.198  11.594  1.1096 -0.1976 -1.5733
  787MOL0     N 3802   8.178   0.007  11.456  0.5005  0.1805 -0.8807
  787MOL0     N 3803   8.275  -0.067  11.409  0.3968 -0.8432  0.2619
  787MOL0     C 3804   7.933   0.298  10.577  0.3447 -0.2688 -0.8736
  787MOL0     C 3805   7.834   0.363  10.499  0.1665  0.5935  0.5009
  787MOL0     C 3806   7.517   0.612  10.315 -0.2174  0.7774 -0.4544
  787MOL0     C 3807   7.383   0.614  10.354  0.2765  0.6281  0.6759
  787MOL0     C 3808   7.290   0.662  10.257  0.3445  0.8102 -0.6324
  787MOL0     C 3809   7.334   0.724  10.139  0.0682  0.0672 -1.0981
  787MOL0     O 3810   7.245   0.782  10.051 -0.4218 -0.5402  0.9486
  787MOL0     C 3811   7.102   0.786  10.085 -0.4058  0.0583  0.5190
  787MOL0     C 3812   7.034   0.875   9.978  0.2627  0.4614 -0.9883
  787MOL0     C 3813   7.082   1.018  10.003  0.1053  0.1753  0.5292
  787MOL0     C 3814   7.001   1.111   9.909  0.2285 -0.0460 -0.2915
  787MOL0     C 3815   6.855   1.106   9.934 -1.1032 -0.6958  0.1094
  787MOL0     C 3816   6.735   1.093   9.938 -0.1153 -0.3223 -0.4517
  787MOL0     C 3817   7.469   0.727  10.105 -0.4361 -0.5862 -0.4297
  787MOL0     C 3818   7.562   0.666  10.194 -0.8321  0.0425  0.3406
  787MOL0     H 3819   7.967   0.678  10.512 -0.6754 -0.0900 -2.8746
  787MOL0     H 3820   8.117   0.570  10.638 -1.6979 -0.4191  2.8837
  787MOL0     H 3821   8.138   0.120  10.677  0.3350  0.0442 -0.1325
  787MOL0     H 3822   8.049   0.187  10.819 -0.0963  2.5148 -2.0751
  787MOL0     H 3823   8.266   0.217  10.921 -3.2724 -0.8615  1.2740
  787MOL0     H 3824   8.353   0.167  10.770  0.8907 -1.8270  1.3412
  787MOL0     H 3825   8.241  -0.056  10.779 -0.6186 -1.7894  1.4079
  787MOL0     H 3826   8.188  -0.014  10.948  0.3459 -0.6750  0.6595
  787MOL0     H 3827   8.407  -0.156  10.940 -2.1059 -0.2903 -0.0151
  787MOL0     H 3828   8.466  -0.017  10.847 -1.5184  0.3243 -1.5478
  787MOL0     H 3829   8.348  -0.053  11.118 -3.0877  3.2456 -0.0504
  787MOL0     H 3830   8.382   0.107  11.075  1.6888  0.4596 -0.7182
  787MOL0     H 3831   8.623   0.051  11.025 -0.2902 -0.0269  0.3129
  787MOL0     H 3832   8.598  -0.114  11.100 -0.3792  0.1568  3.0907
  787MOL0     H 3833   8.708   0.016  11.278  0.7214  1.8534  0.1289
  787MOL0     H 3834   8.590   0.140  11.249 -0.6098 -0.2361  1.0748
  787MOL0     H 3835   8.566  -0.036  11.443 -0.5983 -0.3919  0.3398
  787MOL0     H 3836   8.501  -0.146  11.322 -2.4412  0.4383  0.5788
  787MOL0     H 3837   8.407   0.220  11.373  1.0820 -0.1993 -1.8440
  787MOL0     H 3838   8.157   0.343  11.400 -1.3065  0.4472  0.2310
  787MOL0     H 3839   8.201   0.305  11.569 -1.5009 -3.0849  2.2768
  787MOL0     H 3840   7.975   0.184  11.588 -2.5875  1.8581  1.7583
  787MOL0     H 3841   7.931   0.254  11.424  0.6011  1.4525 -1.2168
  787MOL0     H 3842   7.993   0.380  11.689  0.4512  0.6184  0.5956
  787MOL0     H 3843   7.967   0.483  11.546  2.7476 -0.5169  0.0926
  787MOL0     H 3844   7.745   0.370  11.503 -0.4372  2.8548  0.0689
  787MOL0     H 3845   7.774   0.466  11.658  3.3037 -0.5375  2.5888
  787MOL0     H 3846   7.651   0.319  11.892  0.2725  1.2684 -1.3362
  787MOL0     H 3847   7.419   0.376  11.931 -0.0829  1.0225 -1.1721
  787MOL0     H 3848   7.015  -0.009  11.727 -1.9550 -1.6616 -1.0118
  787MOL0     H 3849   6.760  -0.039  11.776 -0.1967  0.1231  0.6620
  787MOL0     H 3850   6.555  -0.033  11.849 -1.0963  1.2889  0.6877
  787MOL0     H 3851   6.535  -0.065  11.673 -2.6989  1.8602 -2.3716
  787MOL0     H 3852   6.372   0.131  11.836 -0.1555 -1.1084  1.6161
  787MOL0     H 3853   6.331  -0.031  11.798  0.4698 -0.6239 -1.2113
  787MOL0     H 3854   6.316   0.013  11.556 -2.2863 -3.1190  3.2831
  787MOL0     H 3855   6.355   0.187  11.587  0.9621 -1.9219 -1.0927
  787MOL0     H 3856   6.138  -0.000  11.690  0.2826  0.3305 -0.8679
  787MOL0     H 3857   6.137   0.160  11.743  0.7656 -0.0987  1.0861
  787MOL0     H 3858   6.097   0.065  11.450 -0.8186  0.4430  0.1264
  787MOL0     H 3859   6.131   0.232  11.492  0.8403 -0.2816 -0.2683
  787MOL0     H 3860   5.894   0.049  11.605 -1.2577 -0.9806 -1.0805
  787MOL0     H 3861   5.890   0.161  11.464  4.8895 -2.1238 -3.0642
  787MOL0     H 3862   5.916   0.228  11.762  2.4617  0.6161  0.0180
  787MOL0     H 3863   5.966   0.343  11.643 -1.2721  2.0086 -0.6371
  787MOL0     H 3864   5.753   0.358  11.553 -1.7423  1.9667  1.7522
  787MOL0     H 3865   5.730   0.377  11.720  1.1953  3.3582 -2.6310
  787MOL0     H 3866   6.693   0.364  11.677 -2.4047 -1.3273 -0.3496
  787MOL0     H 3867   6.949   0.409  11.660  2.2671 -0.3091 -2.0180
  787MOL0     H 3868   7.332   0.157  11.551  2.4681 -0.5305 -1.5292
  787MOL0     H 3869   7.568   0.154  11.502  0.1136 -1.9296 -1.2006
  787MOL0     H 3870   7.929   0.192  10.597 -4.2354 -0.8941 -3.7823
  787MOL0     H 3871   7.744   0.318  10.458 -1.0160  2.6608  0.6952
  787MOL0     H 3872   7.343   0.578  10.448 -2.0657  0.3130 -0.3786
  787MOL0     H 3873   7.186   0.642  10.281  0.6851  0.9733  1.1750
  787MOL0     H 3874   7.088   0.838  10.180 -1.3721 -0.3057  0.5945
  787MOL0     H 3875   7.064   0.683  10.091  1.0989 -1.0905 -4.6659
  787MOL0     H 3876   7.041   0.843   9.873 -0.0580 -0.2868 -0.7898
  787MOL0     H 3877   6.928   0.875  10.005  0.9823 -2.3900  2.6348
  787MOL0     H 3878   7.187   1.022   9.972 -0.2684 -0.7350 -0.9145
  787MOL0     H 3879   7.060   1.048  10.106 -1.4547 -0.6616  0.4714
  787MOL0     H 3880   7.038   1.211   9.931  0.1519 -0.6065  2.9758
  787MOL0     H 3881   7.041   1.102   9.808  2.9127 -1.1902  0.7653
  787MOL0     H 3882   6.628   1.090   9.940 -0.0891 -1.0767  1.6036
  787MOL0     H 3883   7.497   0.771  10.010  1.2802  1.2843  0.8696
  787MOL0     H 3884   7.670   0.673  10.185 -0.9201  1.6343  0.2436
  788MOL0     O 3885   5.209   3.386  10.295 -0.6609 -0.2052 -0.3290
  788MOL0     C 3886   5.264   3.278  10.307 -0.4781  0.2230  0.6473
  788MOL0     O 3887   5.220   3.158  10.259  0.7996  0.8078 -0.2760
  788MOL0     C 3888   5.116   3.145  10.176 -0.3071  0.1196 -0.0181
  788MOL0     C 3889   5.018   3.073  10.224 -1.0003  0.9147  0.7146
  788MOL0     C 3890   4.904   3.054  10.149  0.3331 -0.2304 -0.3588
  788MOL0     C 3891   4.886   3.121  10.027  0.5194 -0.0947  0.6747
  788MOL0     O 3892   4.774   3.084   9.953  0.0293  0.0074 -0.7094
  788MOL0     C 3893   4.728   3.177   9.850 -0.3186  0.4039  0.6937
  788MOL0     C 3894   4.595   3.129   9.793 -0.0445  0.2074 -0.3308
  788MOL0     C 3895   4.605   2.981   9.761 -0.8970 -0.1404 -1.0187
  788MOL0     C 3896   4.467   2.931   9.704  0.4048 -0.3370 -0.7080
  788MOL0     C 3897   4.353   2.945   9.801 -0.3556 -0.2531  0.1598
  788MOL0     C 3898   4.255   2.817   9.782  0.3159  0.4078  0.3345
  788MOL0     C 3899   4.152   2.819   9.897  0.8860  0.5466  0.3308
  788MOL0     C 3900   4.119   2.675   9.938 -0.1205 -0.0349  0.1767
  788MOL0     N 3901   4.069   2.595   9.826  0.8916  0.5749  0.0723
  788MOL0     C 3902   4.115   2.478   9.772 -0.2633  0.0465 -0.4825
  788MOL0     C 3903   4.033   2.445   9.670 -0.6825  0.0432  0.2020
  788MOL0     C 3904   4.028   2.323   9.595 -0.2432 -0.0671 -0.4090
  788MOL0     C 3905   3.953   2.210   9.670 -0.0760  0.1419  0.1853
  788MOL0     C 3906   3.969   2.084   9.593  0.4137  0.2233  0.3088
  788MOL0     C 3907   3.927   1.963   9.681  1.2904 -0.0156 -0.0634
  788MOL0     O 3908   3.803   1.982   9.738  0.3531 -0.9750 -0.2037
  788MOL0     C 3909   3.739   1.880   9.796  0.4205 -0.6372  0.1428
  788MOL0     C 3910   3.598   1.911   9.806  0.1496  0.6426 -0.2674
  788MOL0     C 3911   3.519   1.811   9.866  0.1834 -0.6463 -0.0738
  788MOL0     C 3912   3.576   1.695   9.915  0.3342 -0.1072  0.5426
  788MOL0     C 3913   3.485   1.608  10.001 -1.1741  0.4102 -0.2444
  788MOL0     O 3914   3.375   1.668  10.045 -0.3539  0.7228  0.3981
  788MOL0     C 3915   3.274   1.592  10.094 -0.4956  0.6782 -0.0519
  788MOL0     C 3916   3.235   1.633  10.218 -0.0376  0.2996  0.0056
  788MOL0     C 3917   3.134   1.558  10.280 -0.5845 -0.5889  0.3469
  788MOL0     C 3918   3.081   1.441  10.220 -0.2521  0.5317  0.0450
  788MOL0     O 3919   2.990   1.356  10.272 -0.0981 -0.1282  0.2022
  788MOL0     C 3920   2.868   1.408  10.323  0.1346  0.1828 -0.6568
  788MOL0     C 3921   2.835   1.338  10.462  0.1444  0.5027 -0.4948
  788MOL0     C 3922   2.944   1.379  10.556 -0.1294  0.3445 -0.2540
  788MOL0     C 3923   2.901   1.337  10.697 -0.7068 -0.1688  1.0295
  788MOL0     C 3924   3.015   1.353  10.799 -0.8155 -0.1692  0.0714
  788MOL0     C 3925   3.139   1.275  10.762 -0.4098 -0.2569 -0.2654
  788MOL0     C 3926   3.246   1.285  10.871 -0.0796  0.0057  0.6902
  788MOL0     C 3927   3.375   1.207  10.844  0.5811  0.4686  0.3863
  788MOL0    Cl 3928   3.441   1.259  10.681 -0.3773  0.3135  0.0319
  788MOL0     C 3929   3.123   1.399  10.092 -0.4236  0.6543 -0.2523
  788MOL0     C 3930   3.219   1.476  10.025  0.2900  0.2114  0.3993
  788MOL0     O 3931   3.521   1.494  10.027 -0.9291 -0.6637 -0.6575
  788MOL0     C 3932   3.704   1.659   9.890 -0.6909  0.3652 -0.0957
  788MOL0     C 3933   3.793   1.749   9.830  0.2016 -0.3487 -0.2430
  788MOL0     N 3934   3.933   2.543   9.660 -0.5982 -0.0282 -0.0556
  788MOL0     N 3935   3.957   2.626   9.754  0.2084 -0.3824  0.2485
  788MOL0     C 3936   4.984   3.202   9.978 -0.1916  0.3693  0.4905
  788MOL0     C 3937   5.105   3.219  10.055 -0.0520 -0.2072 -0.2028
  788MOL0     C 3938   5.370   3.275  10.415  0.6381  0.9528  0.2550
  788MOL0     C 3939   5.405   3.389  10.487  0.0861 -0.1423  0.1984
  788MOL0     C 3940   5.503   3.380  10.593  0.2117  0.3705  0.4225
  788MOL0     C 3941   5.565   3.256  10.619  0.6501  0.6216  0.3140
  788MOL0     O 3942   5.669   3.246  10.709 -1.1822 -0.4176 -0.0919
  788MOL0     C 3943   5.721   3.122  10.771  0.4298  0.4495 -0.3210
  788MOL0     C 3944   5.831   3.073  10.673  0.9090 -0.1863  0.1751
  788MOL0     C 3945   5.954   3.011  10.743 -0.4738 -0.5147  0.0995
  788MOL0     C 3946   6.049   3.118  10.802  0.4233 -0.1023  0.0899
  788MOL0     C 3947   6.187   3.070  10.814  0.6385 -1.0769  0.2843
  788MOL0     C 3948   6.308   3.048  10.815 -0.5844 -0.3905  0.1038
  788MOL0     C 3949   5.525   3.143  10.552  0.8112  0.5552 -0.1110
  788MOL0     C 3950   5.423   3.149  10.450 -0.4986  0.3248  0.0948
  788MOL0     H 3951   5.032   3.023  10.320 -2.0400  1.4712  1.1697
  788MOL0     H 3952   4.820   2.990  10.174 -2.0823  2.8264  0.0715
  788MOL0     H 3953   4.799   3.172   9.767  0.9227 -3.2270  1.7796
  788MOL0     H 3954   4.728   3.279   9.889 -1.1010  0.2448  1.1336
  788MOL0     H 3955   4.564   3.194   9.711 -0.8653 -0.1785 -0.3396
  788MOL0     H 3956   4.524   3.143   9.875  2.4761 -0.0844  2.0776
  788MOL0     H 3957   4.638   2.924   9.849 -1.0042 -0.6142 -1.2852
  788MOL0     H 3958   4.677   2.968   9.680 -0.9436 -2.8736 -0.7285
  788MOL0     H 3959   4.439   2.992   9.617 -2.8583  0.1353  0.5180
  788MOL0     H 3960   4.473   2.828   9.669 -2.4231 -1.2497  1.1469
  788MOL0     H 3961   4.312   3.041   9.770 -0.9914 -0.7859 -0.6857
  788MOL0     H 3962   4.401   2.961   9.898  1.3767  2.6826 -1.0511
  788MOL0     H 3963   4.307   2.721   9.775 -0.6292  0.0278 -3.3348
  788MOL0     H 3964   4.207   2.827   9.685 -1.7595 -1.2387  1.1115
  788MOL0     H 3965   4.200   2.875   9.978  2.0374 -1.9178  1.4632
  788MOL0     H 3966   4.069   2.877   9.856  0.4519  1.0709  1.8927
  788MOL0     H 3967   4.047   2.679  10.020 -1.9171  1.7360 -1.3492
  788MOL0     H 3968   4.207   2.620   9.971  0.2767 -0.0130 -0.8169
  788MOL0     H 3969   4.198   2.417   9.808  0.6574 -0.0375 -2.5573
  788MOL0     H 3970   4.122   2.284   9.554 -1.1147 -2.0658 -0.6251
  788MOL0     H 3971   3.963   2.355   9.513 -2.0816  3.3042  2.1281
  788MOL0     H 3972   3.852   2.246   9.693 -0.6006 -0.5733 -0.9051
  788MOL0     H 3973   4.014   2.197   9.760  2.4717  1.7598 -1.1700
  788MOL0     H 3974   3.909   2.100   9.503  0.1851  0.1250  0.4442
  788MOL0     H 3975   4.069   2.049   9.565 -0.1670 -0.1903 -1.3929
  788MOL0     H 3976   4.006   1.945   9.755  1.8492 -2.6970 -1.1892
  788MOL0     H 3977   3.922   1.872   9.620 -3.3193 -0.4241  0.5292
  788MOL0     H 3978   3.569   2.008   9.768 -0.0030  0.5187 -0.4637
  788MOL0     H 3979   3.411   1.817   9.875  0.2347 -1.5996  1.4788
  788MOL0     H 3980   3.289   1.716  10.264  1.2152 -1.3052  1.5936
  788MOL0     H 3981   3.093   1.600  10.371  1.6668  1.4601  0.5064
  788MOL0     H 3982   2.786   1.379  10.256  0.7502 -2.5816 -0.3157
  788MOL0     H 3983   2.868   1.517  10.324  1.7031  0.2847 -3.3992
  788MOL0     H 3984   2.837   1.229  10.455 -3.1621  0.2727  0.4790
  788MOL0     H 3985   2.736   1.372  10.493 -1.2759 -2.9633 -0.7531
  788MOL0     H 3986   2.988   1.479  10.546  3.6851 -1.0492  0.5128
  788MOL0     H 3987   3.035   1.321  10.538 -0.0145 -1.0928  3.8555
  788MOL0     H 3988   2.808   1.386  10.727 -1.4885  0.5374 -2.1569
  788MOL0     H 3989   2.879   1.230  10.702 -0.0536 -0.4310 -0.9354
  788MOL0     H 3990   2.979   1.317  10.896 -1.3713 -0.3784 -0.2124
  788MOL0     H 3991   3.046   1.457  10.816 -0.3597 -0.2807 -0.0534
  788MOL0     H 3992   3.179   1.323  10.672  1.3508 -1.8885 -0.4132
  788MOL0     H 3993   3.108   1.173  10.736 -1.9198  0.1505 -0.1774
  788MOL0     H 3994   3.283   1.386  10.893  1.5407 -0.6613  1.1788
  788MOL0     H 3995   3.206   1.246  10.965  2.8214 -0.7855  1.6886
  788MOL0     H 3996   3.354   1.099  10.847 -1.5106  0.7698 -1.0872
  788MOL0     H 3997   3.451   1.231  10.918  1.3730 -0.0401 -0.2479
  788MOL0     H 3998   3.088   1.308  10.046  3.1213  0.2802 -2.5806
  788MOL0     H 3999   3.247   1.443   9.926  1.4242  0.5265  0.5973
  788MOL0     H 4000   3.739   1.567   9.937 -2.1600 -0.3816 -0.4075
  788MOL0     H 4001   3.898   1.725   9.829  0.1974 -0.3933  0.1686
  788MOL0     H 4002   4.970   3.256   9.885 -0.1168  0.8957  0.7786
  788MOL0     H 4003   5.180   3.289  10.020  0.1828 -1.5611 -2.6628
  788MOL0     H 4004   5.357   3.483  10.464  0.2828 -0.2789 -0.7868
  788MOL0     H 4005   5.532   3.466  10.653  1.7876  1.7720 -2.1381
  788MOL0     H 4006   5.648   3.044  10.793 -0.1205  0.6380 -1.4010
  788MOL0     H 4007   5.763   3.146  10.869  1.7194 -2.7908  0.0291
  788MOL0     H 4008   5.779   2.998  10.614  0.0725 -0.2364  0.9468
  788MOL0     H 4009   5.877   3.139  10.599 -0.9079  1.1164  0.1382
  788MOL0     H 4010   6.015   2.954  10.673 -1.8845 -0.3634 -1.3062
  788MOL0     H 4011   5.927   2.957  10.834  0.2044  0.7453  1.0783
  788MOL0     H 4012   6.057   3.208  10.740  0.1373 -0.3481 -0.3133
  788MOL0     H 4013   6.012   3.155  10.898 -0.5851  0.0597 -0.3495
  788MOL0     H 4014   6.410   3.017  10.822 -1.2257 -3.1023 -1.1766
  788MOL0     H 4015   5.568   3.048  10.581  0.2518  0.0513 -0.8909
  788MOL0     H 4016   5.413   3.055  10.396 -0.4948 -0.3776  1.2563
  789MOL0     O 4017   0.568   9.911  10.259  0.0211 -0.0644  0.2155
  789MOL0     C 4018   0.596  10.027  10.256 -0.1072 -0.6468 -0.8995
  789MOL0     O 4019   0.516  10.118  10.205  0.1277  0.5867 -0.1782
  789MOL0     C 4020   0.423  10.105  10.098 -0.6213 -0.6048 -0.4070
  789MOL0     C 4021   0.311  10.188  10.104  0.3095 -0.0350 -0.1378
  789MOL0     C 4022   0.217  10.188   9.998  0.6045 -0.0372  0.6322
  789MOL0     C 4023   0.235  10.113   9.883 -0.1719  0.2357  0.0055
  789MOL0     O 4024   0.160  10.120   9.769 -1.0641  0.5759 -0.1360
  789MOL0     C 4025   0.094  10.245   9.743 -0.1192 -0.8330 -0.2981
  789MOL0     C 4026   0.037  10.231   9.605 -0.4524 -1.2209  0.2453
  789MOL0     C 4027  -0.021  10.366   9.557 -0.8914  0.4286 -0.4511
  789MOL0     C 4028  -0.086  10.364   9.423  0.5230 -0.8247  0.4449
  789MOL0     C 4029  -0.151  10.503   9.392 -0.1019  0.9432  0.5381
  789MOL0     C 4030  -0.210  10.500   9.252 -0.4616  0.4521  0.6315
  789MOL0     C 4031  -0.346  10.553   9.248 -0.8117 -0.0777 -0.4337
  789MOL0     C 4032  -0.441  10.453   9.304  0.6626 -0.2922  0.5653
  789MOL0     N 4033  -0.576  10.514   9.328 -0.1977  0.1648 -0.3581
  789MOL0     C 4034  -0.690  10.495   9.254 -0.3555 -0.4382  0.3245
  789MOL0     C 4035  -0.786  10.565   9.329 -0.1860  0.8054  0.1571
  789MOL0     C 4036  -0.918  10.609   9.281  0.0080 -0.3329  0.4781
  789MOL0     C 4037  -1.020  10.566   9.384  0.6291 -0.9783 -0.3922
  789MOL0     C 4038  -1.156  10.552   9.306 -0.4984 -1.0825 -0.2638
  789MOL0     C 4039  -1.275  10.534   9.399 -0.0205  0.2926  0.0117
  789MOL0     O 4040  -1.389  10.560   9.314 -1.0537  0.0463  0.0107
  789MOL0     C 4041  -1.509  10.510   9.350  0.4656  0.1914 -0.2799
  789MOL0     C 4042  -1.608  10.515   9.248 -0.3843 -0.3648  0.1506
  789MOL0     C 4043  -1.745  10.487   9.272  0.1109  0.0056 -0.0434
  789MOL0     C 4044  -1.784  10.433   9.388  0.4729  0.0231  0.5403
  789MOL0     C 4045  -1.921  10.393   9.413 -0.1506 -0.7917 -0.1763
  789MOL0     O 4046  -1.942  10.308   9.515  0.4996 -0.8269  0.0410
  789MOL0     C 4047  -2.076  10.299   9.552  0.0530  0.6750 -0.2019
  789MOL0     C 4048  -2.142  10.175   9.552 -0.0766 -0.0538 -1.1326
  789MOL0     C 4049  -2.267  10.160   9.600 -1.2217  0.3043  0.5083
  789MOL0     C 4050  -2.337  10.270   9.656 -0.1970 -0.5938 -0.2407
  789MOL0     O 4051  -2.454  10.267   9.731 -0.7264 -0.4556 -0.2229
  789MOL0     C 4052  -2.543  10.155   9.730 -0.0258  1.2300 -1.0671
  789MOL0     C 4053  -2.676  10.180   9.807  0.1726  0.5081  0.9133
  789MOL0     C 4054  -2.789  10.252   9.725 -0.0882  0.1408  0.1005
  789MOL0     C 4055  -2.840  10.154   9.622  0.1624  0.2199  0.2556
  789MOL0     C 4056  -2.986  10.199   9.588  0.0158  0.1268 -0.1173
  789MOL0     C 4057  -3.047  10.113   9.475 -0.6812 -0.1918 -0.0788
  789MOL0     C 4058  -3.181  10.169   9.417  0.1855  0.9411 -1.1010
  789MOL0     C 4059  -3.167  10.297   9.342 -0.3048  0.2293 -0.5291
  789MOL0    Cl 4060  -3.079  10.243   9.194  0.0161 -0.0711 -0.2433
  789MOL0     C 4061  -2.269  10.386   9.665  0.1036 -0.1291 -0.0587
  789MOL0     C 4062  -2.143  10.409   9.597  0.3817  0.4005 -0.4355
  789MOL0     O 4063  -2.008  10.429   9.339  0.4655 -0.1151  0.4815
  789MOL0     C 4064  -1.681  10.407   9.487  0.3513 -0.2003 -1.0504
  789MOL0     C 4065  -1.550  10.450   9.467  0.6759  1.0169 -0.3932
  789MOL0     N 4066  -0.725  10.612   9.441  0.8443  0.0003  0.2219
  789MOL0     N 4067  -0.599  10.578   9.445 -0.3873  0.1460  0.6206
  789MOL0     C 4068   0.344  10.023   9.886 -0.8661  0.3656  0.6242
  789MOL0     C 4069   0.439  10.015   9.987 -0.3436  0.1946  0.3818
  789MOL0     C 4070   0.720  10.074  10.330 -0.5764  0.6864  0.0577
  789MOL0     C 4071   0.735  10.211  10.373  0.7316  0.3342 -0.0193
  789MOL0     C 4072   0.844  10.260  10.424 -0.2137 -0.4054 -0.6341
  789MOL0     C 4073   0.949  10.167  10.455 -1.4341 -0.9335 -0.3567
  789MOL0     O 4074   1.058  10.207  10.527 -0.1690  0.4932  0.3967
  789MOL0     C 4075   1.160  10.265  10.441 -0.4788 -0.3259 -0.2491
  789MOL0     C 4076   1.247  10.367  10.519 -0.6109  0.0291  0.8402
  789MOL0     C 4077   1.155  10.495  10.543 -0.3969 -0.2224 -0.2748
  789MOL0     C 4078   1.137  10.577  10.415  0.9389  0.7612  0.0176
  789MOL0     C 4079   1.088  10.717  10.432  0.7214  0.6214  1.1720
  789MOL0     C 4080   1.067  10.835  10.451 -0.3112  0.4147  0.6707
  789MOL0     C 4081   0.943  10.041  10.423 -0.4235 -0.2817  0.4824
  789MOL0     C 4082   0.834   9.986  10.353 -0.6343  0.2892 -0.2630
  789MOL0     H 4083   0.297  10.264  10.180  0.2460 -0.1367 -0.0464
  789MOL0     H 4084   0.133  10.256   9.991  1.5882  1.0476 -1.5089
  789MOL0     H 4085   0.152  10.337   9.757 -1.8156 -0.0229  1.9889
  789MOL0     H 4086   0.016  10.273   9.814 -0.7195 -3.6060  0.2388
  789MOL0     H 4087  -0.044  10.158   9.604 -0.3485 -1.3643 -1.5820
  789MOL0     H 4088   0.121  10.204   9.540 -0.2808 -0.1443  0.0031
  789MOL0     H 4089   0.057  10.442   9.562 -0.4615  0.0315 -1.0192
  789MOL0     H 4090  -0.102  10.398   9.623 -1.3236  2.2136 -1.7567
  789MOL0     H 4091  -0.013  10.324   9.352 -1.6175  0.9155 -3.0652
  789MOL0     H 4092  -0.164  10.288   9.412  0.7137 -0.8935 -0.5697
  789MOL0     H 4093  -0.087  10.588   9.415 -2.9085  2.6023  3.0400
  789MOL0     H 4094  -0.234  10.518   9.462 -2.6413  0.5388 -2.1766
  789MOL0     H 4095  -0.207  10.397   9.215  0.1599  0.7383 -0.1612
  789MOL0     H 4096  -0.147  10.559   9.184 -0.0326 -1.9221 -1.1304
  789MOL0     H 4097  -0.354  10.645   9.307 -0.6072 -0.9061  0.9226
  789MOL0     H 4098  -0.373  10.580   9.145 -0.3553 -0.8824 -0.7776
  789MOL0     H 4099  -0.406  10.409   9.398  0.8628  1.0880  1.1658
  789MOL0     H 4100  -0.456  10.374   9.230 -0.2115  1.5022 -1.2749
  789MOL0     H 4101  -0.703  10.443   9.160  1.6391  1.1957 -0.9414
  789MOL0     H 4102  -0.935  10.577   9.178 -1.3502 -1.5510  1.0505
  789MOL0     H 4103  -0.905  10.718   9.282  1.1811 -0.4209 -1.1139
  789MOL0     H 4104  -1.031  10.648   9.455  1.6426  0.8584 -2.2570
  789MOL0     H 4105  -0.980  10.478   9.435 -1.4145 -0.6397  1.9844
  789MOL0     H 4106  -1.165  10.647   9.253  2.5733  0.0599  1.0757
  789MOL0     H 4107  -1.165  10.465   9.240 -0.5567 -3.5856  2.8066
  789MOL0     H 4108  -1.267  10.602   9.485  2.5797  0.3421 -0.1841
  789MOL0     H 4109  -1.277  10.429   9.429 -1.3769  0.7382  1.6353
  789MOL0     H 4110  -1.569  10.559   9.157 -3.5416 -1.3499 -1.8437
  789MOL0     H 4111  -1.810  10.505   9.187 -1.9137 -3.0800  0.6614
  789MOL0     H 4112  -2.083  10.091   9.514 -1.7755 -1.9878  0.3012
  789MOL0     H 4113  -2.306  10.059   9.601  2.9292 -1.5182 -0.3539
  789MOL0     H 4114  -2.497  10.067   9.777 -4.2872 -1.4071 -1.2702
  789MOL0     H 4115  -2.574  10.119   9.631 -4.5292  0.2979  0.4438
  789MOL0     H 4116  -2.656  10.237   9.898  1.3917  2.8354 -0.7259
  789MOL0     H 4117  -2.716  10.084   9.841 -0.3360 -0.6546 -2.5606
  789MOL0     H 4118  -2.741  10.341   9.683 -0.3050  0.7384  1.0744
  789MOL0     H 4119  -2.872  10.273   9.793 -0.4286  2.1880 -0.8640
  789MOL0     H 4120  -2.768  10.152   9.541 -1.7921 -3.5619 -1.6662
  789MOL0     H 4121  -2.844  10.057   9.674  0.9782 -0.4484 -0.8891
  789MOL0     H 4122  -2.975  10.300   9.547  0.2660 -0.6649 -2.0817
  789MOL0     H 4123  -3.054  10.197   9.674  0.8860  3.1413  0.7463
  789MOL0     H 4124  -3.043  10.009   9.508  1.7569  0.3056  1.4794
  789MOL0     H 4125  -2.978  10.118   9.391  1.2097 -2.5469  1.2204
  789MOL0     H 4126  -3.225  10.092   9.353 -0.9353  0.6787 -0.0404
  789MOL0     H 4127  -3.252  10.180   9.500  3.3516  1.9304  1.6918
  789MOL0     H 4128  -3.125  10.375   9.405 -2.8904  0.2871  1.2932
  789MOL0     H 4129  -3.264  10.341   9.318 -1.7415 -3.4461 -2.2685
  789MOL0     H 4130  -2.331  10.467   9.700 -0.7450  0.8607 -3.5496
  789MOL0     H 4131  -2.095  10.506   9.590  0.1916  0.6034  0.8520
  789MOL0     H 4132  -1.711  10.352   9.575  0.8429 -1.5491 -1.7017
  789MOL0     H 4133  -1.484  10.437   9.553  1.0736 -0.3419 -0.8786
  789MOL0     H 4134   0.350   9.947   9.808 -1.2666 -2.5764  3.2666
  789MOL0     H 4135   0.519   9.947   9.961 -1.2009  0.9064 -5.2264
  789MOL0     H 4136   0.659  10.286  10.356  1.2009  1.4883  2.4942
  789MOL0     H 4137   0.843  10.366  10.448  0.5103 -0.0148 -2.1912
  789MOL0     H 4138   1.121  10.312  10.350 -3.4173 -0.7113  0.6824
  789MOL0     H 4139   1.232  10.186  10.416  1.8066  1.9856 -1.4173
  789MOL0     H 4140   1.289  10.343  10.617  1.1253  1.2984  0.4399
  789MOL0     H 4141   1.337  10.391  10.462 -0.5918 -1.5600  0.1502
  789MOL0     H 4142   1.215  10.561  10.606 -0.9328 -2.4908  2.8628
  789MOL0     H 4143   1.056  10.481  10.588 -0.4599 -2.4558 -0.9454
  789MOL0     H 4144   1.231  10.589  10.360 -1.3778 -0.7422 -4.8105
  789MOL0     H 4145   1.062  10.528  10.352  0.5067  0.6188  0.6292
  789MOL0     H 4146   1.058  10.941  10.468  0.1320  0.8756 -1.6067
  789MOL0     H 4147   1.024   9.974  10.448 -0.0803 -1.0051 -2.2756
  789MOL0     H 4148   0.830   9.879  10.338  1.9431  0.1031 -0.0001
  790MOL0     O 4149   7.095   0.376   9.375  0.1998  0.2262  0.0644
  790MOL0     C 4150   7.027   0.277   9.380 -0.7729  0.8414 -0.9471
  790MOL0     O 4151   7.062   0.156   9.423 -0.1604 -0.3314  0.3882
  790MOL0     C 4152   7.200   0.140   9.438  0.8821  0.4427  1.0834
  790MOL0     C 4153   7.241   0.126   9.573 -0.5677  0.5733  0.3956
  790MOL0     C 4154   7.378   0.105   9.599 -0.5574  0.1691 -1.4489
  790MOL0     C 4155   7.468   0.101   9.492  0.6062  0.8507 -0.5250
  790MOL0     O 4156   7.600   0.091   9.508  0.4899 -0.5846 -0.3745
  790MOL0     C 4157   7.635  -0.039   9.563  0.3068  0.0396  0.2730
  790MOL0     C 4158   7.779  -0.017   9.609  0.7680 -0.0632 -0.0902
  790MOL0     C 4159   7.834  -0.145   9.684 -0.0108 -0.6948  0.5889
  790MOL0     C 4160   7.976  -0.103   9.725  0.0751 -0.3205  1.0408
  790MOL0     C 4161   8.065  -0.208   9.778  0.1473 -0.5361  0.2955
  790MOL0     C 4162   8.105  -0.315   9.681  0.5186  1.0958 -0.1421
  790MOL0     C 4163   8.195  -0.410   9.751 -0.8940 -0.1633 -0.2060
  790MOL0     C 4164   8.211  -0.536   9.662 -0.3101  0.1896 -0.3924
  790MOL0     N 4165   8.320  -0.616   9.710 -0.3327 -0.1977  0.2725
  790MOL0     C 4166   8.446  -0.599   9.672 -0.0406  0.0852 -0.1351
  790MOL0     C 4167   8.521  -0.686   9.754  0.5368  0.5780 -0.0983
  790MOL0     C 4168   8.665  -0.697   9.751  0.0345 -0.3123 -0.3693
  790MOL0     C 4169   8.739  -0.577   9.812 -0.6200 -1.0346 -0.3092
  790MOL0     C 4170   8.897  -0.586   9.789 -0.2359 -0.8693 -0.4808
  790MOL0     C 4171   8.977  -0.484   9.871  0.0199 -1.1365  0.4628
  790MOL0     O 4172   8.950  -0.352   9.846 -0.1377  0.2095 -0.1486
  790MOL0     C 4173   8.991  -0.258   9.934  0.5901  0.4914  0.3711
  790MOL0     C 4174   9.056  -0.287  10.058  0.0836  0.7580 -0.7825
  790MOL0     C 4175   9.109  -0.190  10.135 -0.6808 -0.1677  1.0453
  790MOL0     C 4176   9.100  -0.053  10.100 -0.6697  1.2219 -1.3181
  790MOL0     C 4177   9.155   0.052  10.189  0.6217 -1.0055  0.5900
  790MOL0     O 4178   9.083   0.168  10.185 -0.3823  1.0003  0.0975
  790MOL0     C 4179   9.147   0.268  10.267  0.0917 -0.9132 -0.0827
  790MOL0     C 4180   9.080   0.298  10.384 -0.1759  0.8285 -0.4653
  790MOL0     C 4181   9.131   0.407  10.470  0.4752 -1.0656 -0.1719
  790MOL0     C 4182   9.251   0.474  10.443  0.0215  0.4555  0.4497
  790MOL0     O 4183   9.306   0.567  10.528 -0.6753 -0.1370 -0.8770
  790MOL0     C 4184   9.348   0.528  10.653 -0.1289  0.3707 -0.0714
  790MOL0     C 4185   9.488   0.471  10.662  0.4780 -0.6036  0.8565
  790MOL0     C 4186   9.541   0.478  10.809 -0.2926 -0.0463 -0.5608
  790MOL0     C 4187   9.669   0.402  10.830  1.2814  0.0597 -0.5908
  790MOL0     C 4188   9.729   0.415  10.966 -0.9766  0.3334 -0.3115
  790MOL0     C 4189   9.661   0.356  11.088  0.9317 -0.5070  0.9056
  790MOL0     C 4190   9.729   0.408  11.211 -0.5907  0.2757  0.0651
  790MOL0     C 4191   9.698   0.336  11.343  0.5268 -0.7575 -0.5043
  790MOL0    Cl 4192   9.803   0.403  11.475 -0.2319  0.4243 -0.2074
  790MOL0     C 4193   9.310   0.443  10.312  0.5163  0.3768 -0.4076
  790MOL0     C 4194   9.258   0.345  10.224  0.9919 -0.7669 -0.1341
  790MOL0     O 4195   9.250   0.028  10.265 -0.0395 -0.2717  0.1926
  790MOL0     C 4196   9.013  -0.016   9.990  0.7573  0.6267  0.2162
  790MOL0     C 4197   8.957  -0.123   9.911  0.5161 -0.1347 -0.0635
  790MOL0     N 4198   8.433  -0.753   9.854  0.1331 -0.0914 -0.1112
  790MOL0     N 4199   8.318  -0.700   9.817 -0.0509 -0.4029 -0.4528
  790MOL0     C 4200   7.427   0.121   9.360  0.8692 -0.1983 -0.3353
  790MOL0     C 4201   7.290   0.129   9.329  0.1846  0.7575 -0.5043
  790MOL0     C 4202   6.889   0.276   9.337 -0.7669 -0.6154 -0.1002
  790MOL0     C 4203   6.814   0.156   9.329 -0.4177 -0.8562  0.2891
  790MOL0     C 4204   6.684   0.161   9.285  0.1897 -0.1227  0.6764
  790MOL0     C 4205   6.620   0.275   9.237  0.8787  0.1844  0.1200
  790MOL0     O 4206   6.509   0.255   9.157  0.5040 -0.4973  0.0315
  790MOL0     C 4207   6.468   0.374   9.065 -0.0885  0.0263 -0.7267
  790MOL0     C 4208   6.327   0.356   9.014  0.0941  0.5920 -0.1952
  790MOL0     C 4209   6.315   0.302   8.868 -0.0876 -0.2552  0.0083
  790MOL0     C 4210   6.173   0.252   8.844 -0.1410 -0.1060  0.1704
  790MOL0     C 4211   6.083   0.369   8.859  0.3524 -1.1855  0.3768
  790MOL0     C 4212   6.001   0.467   8.866 -0.4754 -0.1113 -0.1047
  790MOL0     C 4213   6.688   0.395   9.262  0.2525  0.0948 -0.1249
  790MOL0     C 4214   6.817   0.398   9.308 -0.6300 -0.3639 -0.9597
  790MOL0     H 4215   7.169   0.122   9.653  0.3613  2.3732  1.3790
  790MOL0     H 4216   7.405   0.084   9.702  1.5144 -1.2356 -2.2214
  790MOL0     H 4217   7.641  -0.120   9.490  0.9060  1.1791 -0.9791
  790MOL0     H 4218   7.579  -0.064   9.653  1.5814  1.0698  1.4036
  790MOL0     H 4219   7.777   0.071   9.674 -2.2154  0.5441 -0.8243
  790MOL0     H 4220   7.847   0.001   9.526  1.5475 -0.4529  0.4533
  790MOL0     H 4221   7.841  -0.221   9.605 -1.8432  2.2573 -2.6551
  790MOL0     H 4222   7.776  -0.160   9.775 -0.4439 -0.2562  0.3845
  790MOL0     H 4223   8.024  -0.058   9.638 -2.3690 -0.1169 -0.2912
  790MOL0     H 4224   7.969  -0.022   9.799 -0.3937  1.4860 -0.8609
  790MOL0     H 4225   8.022  -0.249   9.869  3.2780  2.3756  3.3797
  790MOL0     H 4226   8.155  -0.165   9.823 -0.3155 -0.6672  1.3619
  790MOL0     H 4227   8.152  -0.283   9.588  1.6762  0.8394  0.3254
  790MOL0     H 4228   8.017  -0.373   9.653  0.9176 -0.4615  1.5974
  790MOL0     H 4229   8.296  -0.375   9.775  0.0835 -0.9460 -2.8324
  790MOL0     H 4230   8.156  -0.439   9.849  1.0548  2.6150  1.5522
  790MOL0     H 4231   8.238  -0.502   9.562  0.5701 -0.4665 -0.3877
  790MOL0     H 4232   8.113  -0.583   9.655 -1.1721  1.9171 -0.5637
  790MOL0     H 4233   8.486  -0.532   9.596 -0.2143 -0.5398 -0.7788
  790MOL0     H 4234   8.707  -0.704   9.650  0.0595 -1.5156 -0.2861
  790MOL0     H 4235   8.695  -0.788   9.803  1.6063 -0.8114 -2.0575
  790MOL0     H 4236   8.732  -0.558   9.919 -1.4590  1.4728 -0.7558
  790MOL0     H 4237   8.711  -0.491   9.751  0.1595 -1.0141 -0.6544
  790MOL0     H 4238   8.934  -0.686   9.814 -0.7339 -0.5559  1.7293
  790MOL0     H 4239   8.920  -0.559   9.685  0.5629 -0.7346 -0.2726
  790MOL0     H 4240   9.081  -0.506   9.845  0.4219  0.1948  0.8758
  790MOL0     H 4241   8.949  -0.502   9.975 -2.1011  0.7441  0.2958
  790MOL0     H 4242   9.074  -0.386  10.097  0.6162  0.6938 -1.1911
  790MOL0     H 4243   9.168  -0.217  10.222 -1.0414 -0.8785  1.0785
  790MOL0     H 4244   8.988   0.247  10.409 -1.2286  1.7577 -2.2718
  790MOL0     H 4245   9.067   0.405  10.558 -0.3772 -2.6147 -0.7869
  790MOL0     H 4246   9.265   0.473  10.698 -1.5635  2.5652  0.1258
  790MOL0     H 4247   9.352   0.618  10.715 -4.1004  0.5284  0.2374
  790MOL0     H 4248   9.550   0.526  10.590 -0.2067 -1.7837 -0.7068
  790MOL0     H 4249   9.495   0.369  10.623 -2.9249  0.3329 -2.8651
  790MOL0     H 4250   9.460   0.452  10.878  0.7826  2.2405  1.7377
  790MOL0     H 4251   9.555   0.584  10.830  0.9411  0.1977 -2.3803
  790MOL0     H 4252   9.648   0.295  10.819 -0.5034  0.4896 -1.8216
  790MOL0     H 4253   9.747   0.441  10.764  2.0345 -1.0250 -0.3710
  790MOL0     H 4254   9.722   0.521  10.993  0.3669 -0.0951  1.9488
  790MOL0     H 4255   9.833   0.384  10.971 -0.3795  2.2210  3.7858
  790MOL0     H 4256   9.685   0.250  11.085  4.2472  0.0990 -2.9886
  790MOL0     H 4257   9.553   0.377  11.090  0.8010 -0.7395 -1.4009
  790MOL0     H 4258   9.837   0.414  11.203 -0.4815 -0.2062  1.0385
  790MOL0     H 4259   9.698   0.513  11.213  2.1262  1.1801 -0.9291
  790MOL0     H 4260   9.715   0.228  11.340  1.0603 -0.6870 -0.2645
  790MOL0     H 4261   9.592   0.352  11.365  1.1399  1.5209  1.2950
  790MOL0     H 4262   9.389   0.508  10.276  0.5008  0.9474  0.5764
  790MOL0     H 4263   9.290   0.330  10.121 -2.1353 -0.3802 -1.2647
  790MOL0     H 4264   8.988   0.089   9.975 -1.3589 -0.0128 -1.2135
  790MOL0     H 4265   8.900  -0.106   9.820 -1.3017  0.4728  1.1557
  790MOL0     H 4266   7.503   0.130   9.282  0.6593 -0.5495 -0.5832
  790MOL0     H 4267   7.259   0.119   9.226 -0.3855  0.1577 -0.2856
  790MOL0     H 4268   6.864   0.060   9.325 -0.4433 -0.8161 -1.7752
  790MOL0     H 4269   6.628   0.069   9.271  1.4903 -0.5010 -3.4596
  790MOL0     H 4270   6.548   0.378   8.991  0.1438 -0.0470 -0.4791
  790MOL0     H 4271   6.460   0.472   9.113  1.8379 -0.1740  0.0840
  790MOL0     H 4272   6.275   0.287   9.081 -0.6903  1.9384  0.6370
  790MOL0     H 4273   6.272   0.450   9.028 -0.7821 -0.1597  1.7837
  790MOL0     H 4274   6.391   0.224   8.865 -2.7902 -3.0322 -1.2200
  790MOL0     H 4275   6.334   0.392   8.808 -1.6947  0.0561 -0.0921
  790MOL0     H 4276   6.167   0.199   8.748 -0.7991  3.4242 -1.9339
  790MOL0     H 4277   6.148   0.194   8.933 -1.2472 -0.4683 -0.3503
  790MOL0     H 4278   5.927   0.544   8.856 -2.0552 -1.1687  2.2728
  790MOL0     H 4279   6.641   0.487   9.228 -0.2552 -0.8742 -2.1609
  790MOL0     H 4280   6.872   0.492   9.312 -0.7040 -0.3550  0.4216
  791MOL0     O 4281   6.558  11.162   4.311 -0.2984  0.0297 -0.4531
  791MOL0     C 4282   6.455  11.219   4.276 -0.8235 -0.6449  0.0965
  791MOL0     O 4283   6.444  11.357   4.231 -0.8937 -0.4031 -0.1750
  791MOL0     C 4284   6.559  11.425   4.212 -0.5260  0.4372  0.7841
  791MOL0     C 4285   6.678  11.375   4.162 -0.9181  0.9815  0.1232
  791MOL0     C 4286   6.777  11.461   4.111  0.1109 -0.1406 -0.6143
  791MOL0     C 4287   6.762  11.602   4.134  0.1486 -0.2437 -0.9362
  791MOL0     O 4288   6.855  11.696   4.113  0.2419 -0.4492  0.2594
  791MOL0     C 4289   6.971  11.663   4.028  0.2232  0.0376 -1.3597
  791MOL0     C 4290   7.067  11.774   4.015 -0.7505  1.2433  0.0007
  791MOL0     C 4291   7.134  11.822   4.150 -0.6848  0.8698  0.1689
  791MOL0     C 4292   7.240  11.938   4.121 -0.4246 -0.1007 -0.0352
  791MOL0     C 4293   7.337  11.944   4.239 -1.0984 -0.6632  0.1902
  791MOL0     C 4294   7.433  12.061   4.261  0.0660 -0.0132 -0.3659
  791MOL0     C 4295   7.473  12.060   4.410 -0.2160  0.2956  0.8188
  791MOL0     C 4296   7.615  12.114   4.427  0.3076  0.2436 -0.5981
  791MOL0     N 4297   7.658  12.116   4.565 -0.2135  0.4144 -0.9628
  791MOL0     C 4298   7.781  12.168   4.610  0.0638  0.0408  0.0408
  791MOL0     C 4299   7.770  12.153   4.749 -0.1817 -0.9754 -0.2535
  791MOL0     C 4300   7.887  12.193   4.845  0.8731  0.4059 -0.0999
  791MOL0     C 4301   8.011  12.108   4.799 -0.6556  0.0464  0.4123
  791MOL0     C 4302   8.119  12.114   4.908  0.2337  0.1351  0.2550
  791MOL0     C 4303   8.232  12.007   4.878 -0.1149  0.8905  0.4840
  791MOL0     O 4304   8.316  12.051   4.775 -0.7879 -0.0347 -0.1836
  791MOL0     C 4305   8.437  11.993   4.726  0.5452  0.3563  0.4410
  791MOL0     C 4306   8.509  12.072   4.637  0.8667  0.9863 -0.5858
  791MOL0     C 4307   8.643  12.041   4.608  0.1154  0.3331  0.7433
  791MOL0     C 4308   8.696  11.917   4.648  0.1096 -0.6776 -0.3520
  791MOL0     C 4309   8.848  11.889   4.637 -0.1839 -0.2517 -0.2871
  791MOL0     O 4310   8.935  11.978   4.588 -0.0637 -0.0972 -0.1221
  791MOL0     C 4311   9.065  11.932   4.560  0.2592 -1.1928  0.1049
  791MOL0     C 4312   9.181  11.988   4.626  0.3272  0.0830 -0.3635
  791MOL0     C 4313   9.303  11.915   4.615 -0.9389 -0.1466  0.0527
  791MOL0     C 4314   9.321  11.807   4.527 -0.7586 -0.1383 -0.6418
  791MOL0     O 4315   9.443  11.746   4.522  0.4055 -0.1633  0.4609
  791MOL0     C 4316   9.456  11.624   4.450  0.3787  0.0318  0.2750
  791MOL0     C 4317   9.576  11.549   4.488  0.0707  0.5944  0.4790
  791MOL0     C 4318   9.699  11.610   4.431  0.2290  0.4887  0.2221
  791MOL0     C 4319   9.824  11.528   4.467  0.7798 -0.9723  0.1103
  791MOL0     C 4320   9.956  11.586   4.421 -0.1889  0.5828 -0.9252
  791MOL0     C 4321  10.073  11.529   4.504  0.8529  0.6566  0.2740
  791MOL0     C 4322  10.202  11.613   4.498  0.2839  0.3390  0.6328
  791MOL0     C 4323  10.304  11.570   4.605 -0.4978  0.1243 -0.8658
  791MOL0    Cl 4324  10.398  11.429   4.534 -0.1114 -0.4962  0.2230
  791MOL0     C 4325   9.218  11.778   4.429 -0.1165 -0.4917  0.6497
  791MOL0     C 4326   9.091  11.825   4.462  0.6264 -0.1631  0.4778
  791MOL0     O 4327   8.871  11.769   4.654 -0.7423  0.1952  0.3086
  791MOL0     C 4328   8.618  11.830   4.730 -0.0928  0.2936 -0.3319
  791MOL0     C 4329   8.489  11.871   4.769  0.7514  0.1926 -0.6165
  791MOL0     N 4330   7.658  12.076   4.780 -1.5372  0.5049 -0.7413
  791MOL0     N 4331   7.597  12.057   4.671  0.7139  0.3771  0.8625
  791MOL0     C 4332   6.652  11.648   4.195 -0.6249  0.4641 -0.1428
  791MOL0     C 4333   6.551  11.559   4.242  0.1587 -0.3131  1.1664
  791MOL0     C 4334   6.330  11.152   4.280  1.2805  0.0534 -0.5295
  791MOL0     C 4335   6.306  11.053   4.380  0.2245  0.2382 -0.1598
  791MOL0     C 4336   6.188  10.990   4.403 -0.1623  0.7995 -0.3939
  791MOL0     C 4337   6.072  11.040   4.347  0.3743 -0.4710 -0.6646
  791MOL0     O 4338   5.945  10.999   4.392  0.2925 -0.2423  0.0525
  791MOL0     C 4339   5.921  11.048   4.524  1.1004 -0.1153  0.0532
  791MOL0     C 4340   5.780  11.010   4.581 -0.4990 -0.0940  0.8925
  791MOL0     C 4341   5.665  11.093   4.534 -0.6080 -0.9931 -0.7617
  791MOL0     C 4342   5.534  11.017   4.508 -0.2598 -0.0704  0.8209
  791MOL0     C 4343   5.474  10.956   4.629 -0.2448  0.4010 -0.4643
  791MOL0     C 4344   5.413  10.918   4.721  0.0159  0.1231  0.6343
  791MOL0     C 4345   6.076  11.144   4.252  1.0779 -0.0535  0.2111
  791MOL0     C 4346   6.199  11.203   4.215  0.2824  0.9190  0.2215
  791MOL0     H 4347   6.690  11.268   4.145 -1.7364  1.1633 -1.7451
  791MOL0     H 4348   6.869  11.417   4.074  1.3485  1.6232  0.2503
  791MOL0     H 4349   6.936  11.640   3.927  1.7763  1.3637 -2.2629
  791MOL0     H 4350   7.032  11.586   4.076 -1.4290  0.0008  0.8315
  791MOL0     H 4351   7.008  11.851   3.965 -0.2673 -0.0413 -2.7099
  791MOL0     H 4352   7.144  11.747   3.943 -0.7455  0.7658  0.1849
  791MOL0     H 4353   7.176  11.725   4.180 -1.4834  0.1322 -0.9975
  791MOL0     H 4354   7.059  11.844   4.226  1.4268  0.1981  2.5845
  791MOL0     H 4355   7.286  11.926   4.023  0.2557 -0.8829  0.3746
  791MOL0     H 4356   7.199  12.040   4.114  3.7669  1.6535 -2.1306
  791MOL0     H 4357   7.396  11.852   4.235  1.5898  0.9657 -0.3199
  791MOL0     H 4358   7.266  11.937   4.322 -3.0645  0.8165 -1.2841
  791MOL0     H 4359   7.393  12.160   4.239  0.5805  0.3525  0.2965
  791MOL0     H 4360   7.522  12.041   4.201 -0.5979  1.8230 -2.0500
  791MOL0     H 4361   7.396  12.123   4.456 -0.4316  4.3229 -4.1811
  791MOL0     H 4362   7.461  11.957   4.445 -1.4012  0.6446  1.4940
  791MOL0     H 4363   7.619  12.218   4.393 -2.2470  0.3115 -0.8791
  791MOL0     H 4364   7.690  12.062   4.367  0.1302 -0.2812 -0.3678
  791MOL0     H 4365   7.848  12.224   4.547  0.1065 -0.2328 -0.1586
  791MOL0     H 4366   7.845  12.174   4.944 -2.0674 -2.0547 -1.6322
  791MOL0     H 4367   7.914  12.299   4.838  0.1236  0.6369  0.4069
  791MOL0     H 4368   8.042  12.146   4.702 -0.6375  0.1797  0.4707
  791MOL0     H 4369   7.996  11.999   4.794 -0.5540 -0.1631  2.9929
  791MOL0     H 4370   8.174  12.209   4.906  1.6778 -0.6767  0.1204
  791MOL0     H 4371   8.090  12.109   5.013  1.9208 -1.2915  0.6983
  791MOL0     H 4372   8.195  11.905   4.869 -0.1512  0.9535 -0.1742
  791MOL0     H 4373   8.301  11.997   4.962  2.0550 -0.5771 -1.3646
  791MOL0     H 4374   8.467  12.168   4.608 -1.0529  0.2174 -0.5040
  791MOL0     H 4375   8.701  12.116   4.556  0.9137 -0.2761  0.7441
  791MOL0     H 4376   9.181  12.076   4.688  1.5175  0.7720 -1.3123
  791MOL0     H 4377   9.385  11.952   4.675 -1.4010 -0.5512  0.9412
  791MOL0     H 4378   9.457  11.650   4.343 -0.3037  1.1717  0.5337
  791MOL0     H 4379   9.366  11.564   4.467 -0.5170  1.7182  1.6757
  791MOL0     H 4380   9.558  11.450   4.444 -0.3196  1.0530 -0.4101
  791MOL0     H 4381   9.578  11.526   4.595 -2.4706 -0.7139  0.3336
  791MOL0     H 4382   9.720  11.708   4.474 -0.1000  0.0507  1.4273
  791MOL0     H 4383   9.688  11.623   4.323 -0.6820 -0.7020  0.1545
  791MOL0     H 4384   9.820  11.525   4.576  0.8851 -0.0533  0.1470
  791MOL0     H 4385   9.821  11.424   4.434  3.7119 -0.9454 -0.5395
  791MOL0     H 4386   9.946  11.695   4.429  1.4574  0.6431  1.8207
  791MOL0     H 4387   9.974  11.560   4.317 -0.4778 -0.6260 -0.6824
  791MOL0     H 4388  10.081  11.427   4.466 -6.0513 -0.3135  0.1111
  791MOL0     H 4389  10.041  11.515   4.608  0.1578  0.9038  0.0961
  791MOL0     H 4390  10.248  11.587   4.401 -2.8219 -0.1821 -0.8115
  791MOL0     H 4391  10.172  11.718   4.502 -4.2890 -0.6396 -1.4455
  791MOL0     H 4392  10.252  11.552   4.699  0.7911  1.1358  0.0767
  791MOL0     H 4393  10.374  11.652   4.627 -4.3488  3.5008  0.1623
  791MOL0     H 4394   9.238  11.702   4.354  5.1979 -0.1490  1.3426
  791MOL0     H 4395   9.000  11.784   4.421  0.2785  0.0176  1.0580
  791MOL0     H 4396   8.664  11.743   4.775  1.4724  1.2167 -0.0395
  791MOL0     H 4397   8.433  11.805   4.834  0.0576 -0.1337 -1.5246
  791MOL0     H 4398   6.641  11.753   4.222 -2.3289  0.2962 -0.0880
  791MOL0     H 4399   6.465  11.615   4.279 -0.9684 -1.6681  0.6699
  791MOL0     H 4400   6.402  11.028   4.425  1.7169  1.1594 -2.6159
  791MOL0     H 4401   6.187  10.911   4.477  3.7399  1.0494  0.1143
  791MOL0     H 4402   5.951  11.153   4.535  2.7006 -0.1996 -2.5738
  791MOL0     H 4403   5.988  10.987   4.584 -1.6499 -1.5551  1.8774
  791MOL0     H 4404   5.759  10.903   4.571 -0.9274 -0.0222  0.9862
  791MOL0     H 4405   5.796  11.013   4.689  0.3296 -3.7305  0.9938
  791MOL0     H 4406   5.690  11.146   4.442 -0.7462  0.5695  0.0476
  791MOL0     H 4407   5.657  11.170   4.612 -0.2386 -0.5208 -1.1827
  791MOL0     H 4408   5.458  11.077   4.457  2.9975  2.9274 -0.9415
  791MOL0     H 4409   5.565  10.944   4.433  1.5603  1.5649 -0.1089
  791MOL0     H 4410   5.359  10.881   4.806  1.5212 -1.3913  0.9770
  791MOL0     H 4411   5.994  11.204   4.214  1.2969  2.8248  3.6768
  791MOL0     H 4412   6.195  11.285   4.143  2.0833 -1.0079 -2.2614
  792MOL0     O 4413  10.345   7.886   4.195  0.3742  0.1014 -0.4282
  792MOL0     C 4414  10.367   7.817   4.291  0.2431  0.6054  0.0668
  792MOL0     O 4415  10.266   7.770   4.376 -0.4308 -0.4818 -0.4206
  792MOL0     C 4416  10.126   7.764   4.347 -0.3798  0.8901 -0.2462
  792MOL0     C 4417  10.061   7.640   4.340  0.0169 -0.0064  0.0806
  792MOL0     C 4418   9.922   7.639   4.327 -0.2353 -0.2651  0.4530
  792MOL0     C 4419   9.853   7.755   4.296 -0.3063 -0.4113 -1.2688
  792MOL0     O 4420   9.718   7.743   4.297  0.0137  0.1019 -0.3095
  792MOL0     C 4421   9.644   7.801   4.181  0.0325 -0.5996  0.5235
  792MOL0     C 4422   9.562   7.688   4.119  1.0565 -0.7754 -1.0948
  792MOL0     C 4423   9.465   7.731   4.013  1.1909 -0.3610 -0.7901
  792MOL0     C 4424   9.362   7.630   3.987 -0.3537  0.0192  0.4857
  792MOL0     C 4425   9.245   7.688   3.905  0.7618 -0.7509 -0.0817
  792MOL0     C 4426   9.146   7.577   3.868  0.3866 -0.1851  0.2126
  792MOL0     C 4427   9.013   7.636   3.819  0.6630  0.1450 -0.1875
  792MOL0     C 4428   8.927   7.524   3.761  0.3590  0.0404  0.7754
  792MOL0     N 4429   8.808   7.592   3.698  1.0320  0.7519  0.3722
  792MOL0     C 4430   8.695   7.620   3.759 -0.4696 -0.3540 -0.1425
  792MOL0     C 4431   8.603   7.645   3.665 -0.2217  0.9939  1.0131
  792MOL0     C 4432   8.460   7.627   3.685 -0.0220  0.0974 -0.0117
  792MOL0     C 4433   8.381   7.621   3.549 -0.2905 -0.2074 -0.1802
  792MOL0     C 4434   8.226   7.610   3.579 -0.0054  0.4204  0.4978
  792MOL0     C 4435   8.143   7.597   3.457  0.5022  0.1953 -0.1639
  792MOL0     O 4436   8.158   7.471   3.388 -0.0217  0.3206 -0.2931
  792MOL0     C 4437   8.060   7.429   3.304  0.7907  0.6733 -0.3966
  792MOL0     C 4438   7.980   7.515   3.219  0.4686  0.1306 -0.1186
  792MOL0     C 4439   7.891   7.463   3.120  0.8325  0.0141 -0.2244
  792MOL0     C 4440   7.881   7.327   3.099  0.3784  0.0951  0.6567
  792MOL0     C 4441   7.778   7.280   3.009 -0.1938  0.1877  0.7536
  792MOL0     O 4442   7.765   7.356   2.897  0.9227  0.0526 -0.7634
  792MOL0     C 4443   7.655   7.343   2.822 -0.6465 -0.7166  0.0798
  792MOL0     C 4444   7.527   7.378   2.866  0.7606  0.2793 -0.5758
  792MOL0     C 4445   7.422   7.387   2.772  0.4983  0.5271  0.5530
  792MOL0     C 4446   7.439   7.373   2.638  0.5199  0.0684  0.0769
  792MOL0     O 4447   7.339   7.423   2.561  0.4831 -0.2094  0.0968
  792MOL0     C 4448   7.311   7.344   2.448  0.4587 -0.2821  0.7534
  792MOL0     C 4449   7.169   7.369   2.409  0.8124 -0.6938  0.0442
  792MOL0     C 4450   7.096   7.269   2.321  0.4280  0.1657  0.5414
  792MOL0     C 4451   6.948   7.304   2.292 -0.6766  1.7506  1.0471
  792MOL0     C 4452   6.884   7.338   2.426  0.6301 -0.1778  0.3595
  792MOL0     C 4453   6.735   7.372   2.418  0.2563 -0.4478  0.8859
  792MOL0     C 4454   6.700   7.506   2.348 -0.8781  0.1123  0.5400
  792MOL0     C 4455   6.552   7.537   2.359  0.0297 -0.1226  0.1077
  792MOL0    Cl 4456   6.490   7.528   2.531 -0.1029  0.4142 -0.0090
  792MOL0     C 4457   7.560   7.343   2.600  0.2214 -0.2908 -0.1941
  792MOL0     C 4458   7.667   7.330   2.683 -0.4104  0.3230 -0.3987
  792MOL0     O 4459   7.720   7.165   3.017 -0.0458  0.1379 -0.1028
  792MOL0     C 4460   7.956   7.238   3.177  0.1096 -0.9053 -0.1641
  792MOL0     C 4461   8.049   7.290   3.273 -0.1975 -0.3129 -0.3117
  792MOL0     N 4462   8.665   7.637   3.542  0.2046 -0.3470  0.0625
  792MOL0     N 4463   8.785   7.601   3.560 -0.1169  0.6213  0.5064
  792MOL0     C 4464   9.919   7.882   4.290 -0.2977  0.3685  0.7206
  792MOL0     C 4465  10.062   7.880   4.313  0.7752 -0.3542 -0.2427
  792MOL0     C 4466  10.506   7.788   4.327 -0.0745  0.1358  0.2560
  792MOL0     C 4467  10.540   7.693   4.425 -0.0449 -0.3485  0.1458
  792MOL0     C 4468  10.668   7.642   4.439 -0.9527  0.0581 -1.0152
  792MOL0     C 4469  10.776   7.691   4.365  0.0539  0.0682 -0.2312
  792MOL0     O 4470  10.904   7.653   4.375 -0.1428  0.2315 -0.7905
  792MOL0     C 4471  10.970   7.687   4.498 -0.5908 -0.0408 -0.6139
  792MOL0     C 4472  11.050   7.813   4.486  0.6288  0.1350 -0.4606
  792MOL0     C 4473  11.164   7.801   4.384  0.4264  0.1644 -0.4379
  792MOL0     C 4474  11.259   7.911   4.392 -0.0638 -0.2377 -0.2411
  792MOL0     C 4475  11.312   7.936   4.260  0.1775  0.6681 -0.3128
  792MOL0     C 4476  11.352   7.955   4.149 -0.0535  0.0784  0.2709
  792MOL0     C 4477  10.751   7.790   4.267  0.0511  0.4138 -0.0421
  792MOL0     C 4478  10.615   7.829   4.246 -0.0828 -0.4984 -0.4157
  792MOL0     H 4479  10.116   7.548   4.358  0.2704 -0.4820 -2.6468
  792MOL0     H 4480   9.870   7.544   4.333 -1.6094  0.5340  1.8298
  792MOL0     H 4481   9.714   7.844   4.108  1.6404  1.4442  3.1103
  792MOL0     H 4482   9.581   7.886   4.205 -1.9303 -0.4378 -4.1554
  792MOL0     H 4483   9.508   7.650   4.207  1.3543  4.0258  1.4760
  792MOL0     H 4484   9.635   7.619   4.075  1.2880  0.5749 -2.9285
  792MOL0     H 4485   9.520   7.758   3.923 -1.1839 -0.8199 -2.4513
  792MOL0     H 4486   9.407   7.818   4.048 -1.6377 -2.5671  0.3956
  792MOL0     H 4487   9.409   7.548   3.931  0.0542 -2.2586  3.8785
  792MOL0     H 4488   9.313   7.580   4.071  0.4882 -1.4101  0.1610
  792MOL0     H 4489   9.286   7.740   3.818 -1.6318 -0.8825 -1.3668
  792MOL0     H 4490   9.196   7.759   3.972 -1.0037 -1.1979 -0.8381
  792MOL0     H 4491   9.134   7.512   3.955 -1.7815 -0.0125  0.0853
  792MOL0     H 4492   9.193   7.514   3.792  2.2804  0.8593  0.4299
  792MOL0     H 4493   8.954   7.691   3.893  1.8107  0.4632  0.5205
  792MOL0     H 4494   9.027   7.700   3.731 -0.4591  0.2070 -0.3327
  792MOL0     H 4495   8.890   7.448   3.831 -1.9660 -0.0404 -0.4580
  792MOL0     H 4496   8.983   7.472   3.683 -2.6690  1.1617 -2.3586
  792MOL0     H 4497   8.688   7.604   3.866  3.2124  1.0824  0.4404
  792MOL0     H 4498   8.417   7.708   3.745  0.3622 -1.2225  2.1443
  792MOL0     H 4499   8.444   7.531   3.734 -1.7217  0.2913 -0.1257
  792MOL0     H 4500   8.406   7.542   3.479 -2.5577  1.5988 -3.2720
  792MOL0     H 4501   8.412   7.704   3.485  1.1592  2.0220  3.1157
  792MOL0     H 4502   8.203   7.534   3.654  0.7063 -0.2127  0.0844
  792MOL0     H 4503   8.202   7.707   3.623 -1.1122  1.1158 -1.4812
  792MOL0     H 4504   8.170   7.682   3.393 -0.4742 -0.7184 -1.8812
  792MOL0     H 4505   8.038   7.608   3.487  0.2669 -1.0607 -0.4690
  792MOL0     H 4506   7.982   7.621   3.239  1.1319 -0.1850  1.7682
  792MOL0     H 4507   7.826   7.524   3.058 -0.1543 -0.0166  0.7511
  792MOL0     H 4508   7.520   7.403   2.972 -2.0535 -1.0412 -0.3393
  792MOL0     H 4509   7.321   7.412   2.803  0.2217  0.2312 -0.0990
  792MOL0     H 4510   7.315   7.240   2.480 -1.8953 -1.4065 -2.0792
  792MOL0     H 4511   7.372   7.364   2.360 -0.1802 -0.4970  0.2530
  792MOL0     H 4512   7.176   7.462   2.352  1.5588  0.5577  2.1084
  792MOL0     H 4513   7.111   7.385   2.500 -4.3402 -3.5924 -2.2479
  792MOL0     H 4514   7.093   7.168   2.363  0.0749  0.6534  1.7361
  792MOL0     H 4515   7.151   7.259   2.227 -0.7663 -1.3816 -0.0341
  792MOL0     H 4516   6.953   7.390   2.224 -1.4331 -0.8695 -2.5997
  792MOL0     H 4517   6.894   7.221   2.247  2.6251 -0.4890  0.9241
  792MOL0     H 4518   6.917   7.426   2.483 -0.4991  1.1747 -0.9754
  792MOL0     H 4519   6.888   7.253   2.494  0.4948 -0.3406  0.1657
  792MOL0     H 4520   6.683   7.371   2.514 -1.9067  0.2441 -0.2139
  792MOL0     H 4521   6.686   7.293   2.362  2.0128  0.3131 -1.9762
  792MOL0     H 4522   6.765   7.585   2.387 -3.1295  1.4135  1.8740
  792MOL0     H 4523   6.727   7.493   2.243 -0.2586  1.3617  0.5262
  792MOL0     H 4524   6.484   7.481   2.293 -0.6123  1.9701 -1.1075
  792MOL0     H 4525   6.535   7.637   2.319 -1.5981 -0.4990 -0.2458
  792MOL0     H 4526   7.574   7.332   2.492 -2.4404  2.6601 -0.9979
  792MOL0     H 4527   7.765   7.317   2.640  0.0202 -0.4035  0.7512
  792MOL0     H 4528   7.925   7.134   3.173  0.7909 -1.0812 -1.0577
  792MOL0     H 4529   8.120   7.228   3.329 -1.0486 -0.4648  0.6311
  792MOL0     H 4530   9.872   7.978   4.276 -1.3638 -0.0864  1.0932
  792MOL0     H 4531  10.107   7.979   4.313  0.8205 -0.3573 -1.3270
  792MOL0     H 4532  10.460   7.657   4.489  0.7147 -1.3330  0.5770
  792MOL0     H 4533  10.697   7.570   4.515  0.3620 -0.5741 -2.0778
  792MOL0     H 4534  11.031   7.601   4.525  0.7009  0.3905 -2.0341
  792MOL0     H 4535  10.895   7.701   4.577 -2.9977 -3.2937 -2.0857
  792MOL0     H 4536  10.982   7.892   4.453 -0.8218 -1.0353 -0.3877
  792MOL0     H 4537  11.085   7.839   4.587  2.7229 -3.1866 -0.1472
  792MOL0     H 4538  11.121   7.796   4.284  1.8149  3.0529 -1.2755
  792MOL0     H 4539  11.220   7.708   4.396  1.4922  0.4266 -2.8137
  792MOL0     H 4540  11.203   8.003   4.411 -0.8497 -0.7967  0.2146
  792MOL0     H 4541  11.331   7.898   4.473  1.0138  3.0494 -0.5147
  792MOL0     H 4542  11.393   7.968   4.051  1.7126 -0.0475  0.9542
  792MOL0     H 4543  10.829   7.827   4.202  0.6558  1.7403  1.3651
  792MOL0     H 4544  10.608   7.896   4.161 -0.1391 -1.9383 -1.5668
  793MOL0     O 4545   6.784   1.968   9.692  0.3944  0.1086 -0.3074
  793MOL0     C 4546   6.791   2.074   9.632  1.3749 -0.5543 -0.4213
  793MOL0     O 4547   6.680   2.144   9.581  1.0761  0.3930 -0.4701
  793MOL0     C 4548   6.552   2.089   9.609 -1.4580  0.0949 -0.5487
  793MOL0     C 4549   6.470   2.045   9.505 -1.9976 -0.4538  0.7997
  793MOL0     C 4550   6.353   1.983   9.526 -0.2243  0.7666  0.9267
  793MOL0     C 4551   6.303   1.964   9.651  0.2655  0.7800  0.3650
  793MOL0     O 4552   6.177   1.901   9.658 -0.2741 -0.0332 -0.3344
  793MOL0     C 4553   6.154   1.815   9.769 -0.5008 -0.8252 -0.5270
  793MOL0     C 4554   6.026   1.739   9.749  0.6254 -0.5533 -0.1848
  793MOL0     C 4555   6.012   1.652   9.869 -0.4456 -0.3407  0.4117
  793MOL0     C 4556   5.874   1.603   9.899 -0.7967  0.2379  0.4327
  793MOL0     C 4557   5.858   1.544  10.040 -0.1526  0.3035 -0.1085
  793MOL0     C 4558   5.948   1.420  10.055  0.3841 -0.9071 -0.7807
  793MOL0     C 4559   5.972   1.382  10.207  0.5859 -0.4858  0.0099
  793MOL0     C 4560   6.060   1.497  10.271  0.0503 -0.6886 -0.0922
  793MOL0     N 4561   6.187   1.528  10.197  0.1637 -0.0995 -0.4623
  793MOL0     C 4562   6.268   1.423  10.156 -0.1531 -0.9251 -0.0089
  793MOL0     C 4563   6.364   1.483  10.089 -0.7646  0.2483  0.3593
  793MOL0     C 4564   6.477   1.424  10.007  1.1648  0.7199 -0.4291
  793MOL0     C 4565   6.543   1.529   9.914 -0.1828  0.1664  1.1112
  793MOL0     C 4566   6.633   1.640   9.984 -0.4312  0.2695  0.1846
  793MOL0     C 4567   6.689   1.729   9.874 -0.3568 -0.2308  0.0641
  793MOL0     O 4568   6.783   1.675   9.783 -0.2099  0.2126  0.5695
  793MOL0     C 4569   6.903   1.624   9.827 -0.1154 -0.4059 -0.4610
  793MOL0     C 4570   6.988   1.674   9.926 -0.4023 -0.5772 -0.3350
  793MOL0     C 4571   7.107   1.608   9.946 -0.8838  0.7084  0.0213
  793MOL0     C 4572   7.133   1.475   9.895 -0.5050  0.0510 -0.6503
  793MOL0     C 4573   7.265   1.407   9.915  0.0075 -0.0244 -0.5291
  793MOL0     O 4574   7.282   1.292   9.846  0.3112  0.1748  0.3817
  793MOL0     C 4575   7.404   1.240   9.841  0.7082 -0.5845 -0.3272
  793MOL0     C 4576   7.487   1.255   9.723  0.8209  0.1868 -0.0342
  793MOL0     C 4577   7.603   1.175   9.721  0.3972  0.1426  0.1379
  793MOL0     C 4578   7.647   1.096   9.825 -0.0756 -0.2766  0.1331
  793MOL0     O 4579   7.762   1.024   9.806  0.1576 -0.1575  0.4589
  793MOL0     C 4580   7.790   0.905   9.878 -0.3179 -0.1257  0.5519
  793MOL0     C 4581   7.932   0.858   9.848 -0.0346  1.3021  0.2730
  793MOL0     C 4582   7.955   0.719   9.924  0.1634  0.2069  0.6370
  793MOL0     C 4583   8.111   0.706   9.937 -0.8230 -0.7436  1.1790
  793MOL0     C 4584   8.120   0.593  10.042 -0.8511  0.2510 -0.4343
  793MOL0     C 4585   8.267   0.547  10.055  0.4400 -0.4310 -0.1123
  793MOL0     C 4586   8.269   0.464  10.185 -0.1199  0.0751  0.7321
  793MOL0     C 4587   8.405   0.407  10.227  0.0124 -0.3869  0.8032
  793MOL0    Cl 4588   8.475   0.328  10.086 -0.9176  0.1662  0.5336
  793MOL0     C 4589   7.569   1.093   9.937 -0.2997 -0.9126  0.0872
  793MOL0     C 4590   7.443   1.155   9.942  0.1255 -0.3376  1.0359
  793MOL0     O 4591   7.354   1.464   9.983 -0.5133 -0.5675 -0.2699
  793MOL0     C 4592   7.041   1.427   9.799  0.1257 -0.3246 -0.2161
  793MOL0     C 4593   6.921   1.497   9.767 -0.7113 -0.3886  0.1749
  793MOL0     N 4594   6.348   1.617  10.098  0.2820 -0.2716 -0.6021
  793MOL0     N 4595   6.231   1.645  10.155 -0.4579 -0.4406 -0.1222
  793MOL0     C 4596   6.385   2.009   9.758 -0.0492  0.6028 -0.5394
  793MOL0     C 4597   6.509   2.075   9.734 -0.1625 -0.2229  0.1994
  793MOL0     C 4598   6.921   2.132   9.614  0.5372  0.9393  0.8860
  793MOL0     C 4599   7.034   2.091   9.681  0.4528 -0.4164  1.0267
  793MOL0     C 4600   7.154   2.148   9.649 -0.4333  0.3276  0.0979
  793MOL0     C 4601   7.171   2.238   9.550  0.1571 -0.7332 -0.1469
  793MOL0     O 4602   7.290   2.291   9.495 -0.2742 -0.5674  0.6279
  793MOL0     C 4603   7.394   2.306   9.586 -0.0192  0.3229  0.1030
  793MOL0     C 4604   7.509   2.257   9.494 -0.4510 -0.5447 -0.9879
  793MOL0     C 4605   7.512   2.105   9.478 -0.2513  0.4068  0.0396
  793MOL0     C 4606   7.501   2.054   9.330  0.2072 -0.0975 -0.0228
  793MOL0     C 4607   7.635   2.089   9.267  0.7072 -0.0415  0.6104
  793MOL0     C 4608   7.734   2.116   9.198  0.7424 -0.2145  0.9509
  793MOL0     C 4609   7.058   2.278   9.474 -0.2807  0.4373  0.0991
  793MOL0     C 4610   6.938   2.220   9.504 -0.3945 -0.4691 -0.4644
  793MOL0     H 4611   6.508   2.059   9.405 -4.3467  0.7088 -0.0085
  793MOL0     H 4612   6.296   1.948   9.441 -0.8474 -1.0139  2.0230
  793MOL0     H 4613   6.169   1.867   9.864  1.1813 -0.9817 -0.6784
  793MOL0     H 4614   6.233   1.740   9.774  1.4028  1.0177 -1.5326
  793MOL0     H 4615   6.022   1.674   9.660 -1.7416  0.0376 -0.5735
  793MOL0     H 4616   5.946   1.813   9.747  1.4352  0.3318 -1.0820
  793MOL0     H 4617   6.041   1.714   9.954 -2.6822 -1.5002  2.1125
  793MOL0     H 4618   6.084   1.570   9.860  3.6509  2.7120  2.5731
  793MOL0     H 4619   5.811   1.691   9.884  0.0994  0.5700 -1.7436
  793MOL0     H 4620   5.842   1.518   9.838  0.5527 -0.7752  1.0893
  793MOL0     H 4621   5.757   1.516  10.072  0.0687  0.7882  1.0553
  793MOL0     H 4622   5.901   1.624  10.100  3.5568 -1.3116 -0.3114
  793MOL0     H 4623   6.047   1.441  10.013  1.2295  1.0182  1.9183
  793MOL0     H 4624   5.898   1.348   9.989  0.8713 -2.7497  0.7782
  793MOL0     H 4625   5.878   1.368  10.261  1.4198  0.7049  1.8683
  793MOL0     H 4626   6.023   1.287  10.227 -1.9552 -1.9184  0.1187
  793MOL0     H 4627   6.097   1.476  10.371  0.5365  3.9723  0.9278
  793MOL0     H 4628   6.007   1.593  10.271  3.0823  1.1158 -0.4801
  793MOL0     H 4629   6.263   1.317  10.179 -0.3148 -0.8830  0.1483
  793MOL0     H 4630   6.425   1.354   9.942 -1.3602  1.2278  0.9376
  793MOL0     H 4631   6.562   1.376  10.056  1.4659  1.5867 -0.0739
  793MOL0     H 4632   6.466   1.583   9.857  1.1469  0.5184 -0.4156
  793MOL0     H 4633   6.600   1.473   9.840  0.4273  0.4103  1.3875
  793MOL0     H 4634   6.574   1.699  10.055  0.2175 -0.5304  1.4219
  793MOL0     H 4635   6.718   1.588  10.030  1.0086  1.1886 -1.2901
  793MOL0     H 4636   6.734   1.820   9.915 -1.0712  0.7748 -1.2999
  793MOL0     H 4637   6.601   1.763   9.820 -2.0928  3.2940  4.4380
  793MOL0     H 4638   6.962   1.772   9.965 -0.2666 -0.7183  0.1254
  793MOL0     H 4639   7.179   1.653  10.014  0.2374 -0.6017 -0.2470
  793MOL0     H 4640   7.454   1.311   9.636  1.2070 -1.1875 -1.1143
  793MOL0     H 4641   7.667   1.180   9.634  2.5067 -2.0184  1.4283
  793MOL0     H 4642   7.708   0.836   9.855 -1.1028  0.2442  2.0641
  793MOL0     H 4643   7.790   0.941   9.982  1.3490  1.8218 -0.0394
  793MOL0     H 4644   8.006   0.928   9.887  1.2504  0.1214  0.0338
  793MOL0     H 4645   7.947   0.845   9.740  2.1720  0.3544  0.6450
  793MOL0     H 4646   7.899   0.635   9.883 -0.3051  2.1734 -3.1174
  793MOL0     H 4647   7.911   0.723  10.024 -2.0359 -0.9212 -0.2253
  793MOL0     H 4648   8.150   0.676   9.839 -0.1380 -1.0666  1.5450
  793MOL0     H 4649   8.158   0.801   9.963 -0.8562  0.4011 -2.3910
  793MOL0     H 4650   8.067   0.503  10.010  0.6460 -0.6463 -0.4734
  793MOL0     H 4651   8.093   0.630  10.141  2.9261 -0.8013  1.1721
  793MOL0     H 4652   8.336   0.632  10.061 -0.9615  0.6494  1.4432
  793MOL0     H 4653   8.303   0.490   9.969  2.5677 -0.8301  0.9926
  793MOL0     H 4654   8.228   0.519  10.270 -2.2857  0.4340 -0.4535
  793MOL0     H 4655   8.201   0.379  10.171 -0.8300  0.9255 -1.3135
  793MOL0     H 4656   8.393   0.329  10.302  2.6079 -0.4986  1.2065
  793MOL0     H 4657   8.476   0.484  10.258 -0.0545 -0.1044  0.2713
  793MOL0     H 4658   7.596   1.039  10.028 -3.2452 -1.6697  0.6161
  793MOL0     H 4659   7.377   1.135  10.026  0.8205  1.4437  2.0712
  793MOL0     H 4660   7.062   1.334   9.746  1.2636  0.6177 -1.4827
  793MOL0     H 4661   6.855   1.462   9.688 -1.7636 -0.5556  1.0980
  793MOL0     H 4662   6.357   2.001   9.863 -0.7405  0.1575 -0.7495
  793MOL0     H 4663   6.563   2.123   9.815  1.5500  0.1497 -1.1217
  793MOL0     H 4664   7.024   2.011   9.754 -0.3748  0.6007  2.0523
  793MOL0     H 4665   7.241   2.104   9.696 -1.0855 -1.5759 -0.3842
  793MOL0     H 4666   7.374   2.248   9.677 -3.0302  0.1135 -0.5924
  793MOL0     H 4667   7.397   2.413   9.608  1.4015  0.4806 -0.7277
  793MOL0     H 4668   7.504   2.302   9.394 -3.2866 -2.1391 -1.6657
  793MOL0     H 4669   7.601   2.303   9.531 -2.0460  2.8040 -0.8274
  793MOL0     H 4670   7.433   2.057   9.538 -0.9277 -0.2661 -1.3516
  793MOL0     H 4671   7.603   2.061   9.520 -1.4589 -1.3663  0.9314
  793MOL0     H 4672   7.489   1.947   9.313  5.7234 -0.9013 -0.7394
  793MOL0     H 4673   7.420   2.106   9.278 -1.3194 -0.9229  1.4535
  793MOL0     H 4674   7.815   2.144   9.133 -0.0199 -2.7286 -1.2335
  793MOL0     H 4675   7.064   2.354   9.397 -2.1017  1.1267  0.5812
  793MOL0     H 4676   6.853   2.257   9.448 -1.2491 -0.1296  1.0060
  794MOL0     O 4677   1.531   9.564   3.168 -0.1510 -0.2124  0.6821
  794MOL0     C 4678   1.578   9.451   3.179 -0.1386  0.1205 -0.3827
  794MOL0     O 4679   1.507   9.336   3.165 -0.9389 -0.2746  0.8125
  794MOL0     C 4680   1.370   9.332   3.134 -0.4565 -0.0229  0.4991
  794MOL0     C 4681   1.271   9.431   3.124 -0.4313 -0.1233 -0.4623
  794MOL0     C 4682   1.136   9.396   3.092  0.2245 -0.0883  0.4959
  794MOL0     C 4683   1.101   9.271   3.059  0.3318  0.4329 -0.5912
  794MOL0     O 4684   0.983   9.257   2.997  0.5594 -0.0022 -0.0945
  794MOL0     C 4685   0.924   9.124   3.012  0.6577 -0.5027  0.0586
  794MOL0     C 4686   0.772   9.143   2.973  0.2081 -0.1824 -0.0822
  794MOL0     C 4687   0.688   9.014   2.956  0.2561  0.4695  0.3215
  794MOL0     C 4688   0.544   9.043   2.943 -0.5645  0.2621  0.5102
  794MOL0     C 4689   0.465   8.911   2.976  0.1521 -0.6571 -0.5711
  794MOL0     C 4690   0.320   8.929   2.932  0.0705 -0.3121  0.2950
  794MOL0     C 4691   0.251   8.793   2.912 -0.0239 -0.3179 -0.6827
  794MOL0     C 4692   0.121   8.807   2.849  0.4692 -0.1312 -0.3292
  794MOL0     N 4693   0.017   8.858   2.951 -0.0942  0.3803  0.1245
  794MOL0     C 4694  -0.063   8.771   3.015  0.5095  0.1996 -0.8377
  794MOL0     C 4695  -0.156   8.851   3.083  0.1241  0.4352  0.7530
  794MOL0     C 4696  -0.285   8.803   3.142 -0.0967 -0.3101 -0.5756
  794MOL0     C 4697  -0.267   8.839   3.286  0.0980 -0.3469  1.1441
  794MOL0     C 4698  -0.344   8.766   3.395 -0.4801  0.4692  0.3508
  794MOL0     C 4699  -0.492   8.747   3.360 -0.3217  1.2482 -0.3846
  794MOL0     O 4700  -0.553   8.648   3.456 -0.4131 -0.0654  0.4958
  794MOL0     C 4701  -0.693   8.636   3.460 -0.2095  0.1326  0.3525
  794MOL0     C 4702  -0.778   8.673   3.354 -0.2722 -0.2948 -0.3921
  794MOL0     C 4703  -0.916   8.645   3.360 -0.4477 -0.6704  0.1548
  794MOL0     C 4704  -0.967   8.575   3.470  0.6195  0.8510 -0.5534
  794MOL0     C 4705  -1.107   8.538   3.470  0.3986  0.2688 -0.7591
  794MOL0     O 4706  -1.194   8.596   3.377  0.2451  0.1376 -0.1728
  794MOL0     C 4707  -1.321   8.552   3.382 -0.7992  0.3496 -0.2892
  794MOL0     C 4708  -1.415   8.656   3.377  0.6585  0.9174 -0.2518
  794MOL0     C 4709  -1.536   8.624   3.327 -0.5128 -0.1315 -0.2522
  794MOL0     C 4710  -1.580   8.488   3.303 -0.6150  0.1288  0.1867
  794MOL0     O 4711  -1.715   8.464   3.287 -0.9908 -0.4791 -0.0938
  794MOL0     C 4712  -1.773   8.334   3.263  0.2247  0.2672 -0.2610
  794MOL0     C 4713  -1.916   8.342   3.331 -0.1669  0.2152 -0.5260
  794MOL0     C 4714  -1.989   8.208   3.315  0.0632 -0.3507 -0.1419
  794MOL0     C 4715  -2.016   8.181   3.164  0.3467  0.0194  0.2102
  794MOL0     C 4716  -2.148   8.115   3.133 -0.1210  0.2261 -0.4213
  794MOL0     C 4717  -2.209   8.163   3.003  0.2898 -0.7457 -0.3073
  794MOL0     C 4718  -2.117   8.141   2.878  0.6940  0.5807  0.5325
  794MOL0     C 4719  -2.081   7.991   2.840  0.5777  0.7396  0.8378
  794MOL0    Cl 4720  -2.219   7.869   2.850 -0.0024  0.0089 -0.3305
  794MOL0     C 4721  -1.483   8.384   3.308  0.5080  0.0854  0.3732
  794MOL0     C 4722  -1.350   8.422   3.346 -0.2039 -0.0237  0.0015
  794MOL0     O 4723  -1.137   8.449   3.543  0.2590  0.3513  0.4736
  794MOL0     C 4724  -0.884   8.555   3.581  0.5370 -0.2808  0.1912
  794MOL0     C 4725  -0.748   8.573   3.577 -1.0185  0.0145  0.2320
  794MOL0     N 4726  -0.104   8.980   3.081  0.6008  0.6013  0.5507
  794MOL0     N 4727  -0.007   8.985   2.994 -0.6254  0.6010  1.2215
  794MOL0     C 4728   1.194   9.170   3.082  0.3193  0.1373 -0.1056
  794MOL0     C 4729   1.325   9.199   3.119 -0.4011 -0.0082  1.1045
  794MOL0     C 4730   1.715   9.441   3.221  0.1266 -0.4877 -0.5181
  794MOL0     C 4731   1.805   9.559   3.210  0.2644  0.4004  0.5397
  794MOL0     C 4732   1.941   9.546   3.252 -0.0636 -0.4294  0.1322
  794MOL0     C 4733   2.000   9.429   3.307 -0.0111 -0.1282  0.5467
  794MOL0     O 4734   2.131   9.416   3.338 -0.5053  0.1061  0.5186
  794MOL0     C 4735   2.200   9.525   3.399 -0.2732 -1.1842 -0.5597
  794MOL0     C 4736   2.319   9.478   3.467  0.4293  0.2717  0.1108
  794MOL0     C 4737   2.370   9.578   3.574  0.1707  2.0141  0.1091
  794MOL0     C 4738   2.463   9.516   3.672  0.1912  0.1042 -0.7951
  794MOL0     C 4739   2.590   9.493   3.614 -0.6559  0.3744 -0.1434
  794MOL0     C 4740   2.687   9.493   3.541  0.0952  1.0031  0.6315
  794MOL0     C 4741   1.921   9.315   3.303  0.9564 -0.4481  0.1879
  794MOL0     C 4742   1.779   9.322   3.264 -0.4355  0.1124  0.6850
  794MOL0     H 4743   1.303   9.534   3.132  1.6581 -0.4171 -3.4483
  794MOL0     H 4744   1.063   9.475   3.107  0.0056 -0.3314  0.7338
  794MOL0     H 4745   0.930   9.071   3.107  4.4266 -1.4754 -0.5673
  794MOL0     H 4746   0.976   9.059   2.941 -0.9030 -1.5950 -0.1343
  794MOL0     H 4747   0.769   9.181   2.870  1.2396  0.2691  0.0436
  794MOL0     H 4748   0.721   9.199   3.053 -1.1714  2.9276 -2.8791
  794MOL0     H 4749   0.694   8.946   3.042  0.9279 -1.6845 -1.3335
  794MOL0     H 4750   0.709   8.965   2.860 -1.2555 -1.2797  0.8325
  794MOL0     H 4751   0.514   9.134   2.996 -0.6151  2.8158 -3.4278
  794MOL0     H 4752   0.518   9.063   2.838  1.0459 -3.3172 -0.7048
  794MOL0     H 4753   0.475   8.885   3.082  1.4263  1.9012  0.0044
  794MOL0     H 4754   0.517   8.832   2.921 -1.5378 -1.2236 -1.4022
  794MOL0     H 4755   0.311   8.990   2.842  0.5459 -1.1054 -0.3036
  794MOL0     H 4756   0.274   8.984   3.015 -0.7465  0.5010 -0.6615
  794MOL0     H 4757   0.313   8.745   2.836  0.2773 -0.1322 -0.5576
  794MOL0     H 4758   0.253   8.747   3.011  0.7894  1.8696  0.3717
  794MOL0     H 4759   0.099   8.714   2.796  1.7295  0.2876 -1.6624
  794MOL0     H 4760   0.135   8.888   2.777 -0.2934  1.4626  1.2318
  794MOL0     H 4761  -0.079   8.666   2.995 -0.6649  0.2673 -0.3521
  794MOL0     H 4762  -0.295   8.696   3.118 -1.6002  0.3508 -3.2733
  794MOL0     H 4763  -0.370   8.863   3.109 -2.2008 -0.6330  3.5568
  794MOL0     H 4764  -0.293   8.945   3.299 -0.3868 -0.4234  0.8587
  794MOL0     H 4765  -0.165   8.823   3.321 -0.2094 -0.5207  1.9906
  794MOL0     H 4766  -0.290   8.671   3.393  2.4012  1.9817 -1.8258
  794MOL0     H 4767  -0.353   8.820   3.489 -1.5576 -1.6930  1.5690
  794MOL0     H 4768  -0.507   8.705   3.260 -1.8656  0.4101  0.1505
  794MOL0     H 4769  -0.541   8.844   3.362 -0.3149  1.2983  2.9225
  794MOL0     H 4770  -0.742   8.701   3.256  0.8343 -1.6521 -0.4161
  794MOL0     H 4771  -0.963   8.674   3.267  1.4009 -0.7403 -0.8527
  794MOL0     H 4772  -1.392   8.758   3.407  3.5365  0.5331 -0.9126
  794MOL0     H 4773  -1.615   8.698   3.328  2.1427  2.9195 -1.3012
  794MOL0     H 4774  -1.709   8.253   3.297 -0.8293 -0.5146 -0.0945
  794MOL0     H 4775  -1.784   8.312   3.157 -2.6957  1.7360 -0.3672
  794MOL0     H 4776  -1.971   8.416   3.272 -0.9305  0.1923  0.1465
  794MOL0     H 4777  -1.902   8.379   3.433  3.0537  1.1607 -1.1978
  794MOL0     H 4778  -2.082   8.217   3.372 -0.4908 -3.0350 -0.4753
  794MOL0     H 4779  -1.939   8.121   3.359  1.1453  1.8263  3.4181
  794MOL0     H 4780  -2.002   8.278   3.115  0.2418 -0.1235 -0.1101
  794MOL0     H 4781  -1.938   8.119   3.119  0.0003  0.0205 -0.4118
  794MOL0     H 4782  -2.221   8.140   3.209 -2.4070  1.1515 -2.7666
  794MOL0     H 4783  -2.125   8.008   3.128 -1.5678 -0.0633 -1.4242
  794MOL0     H 4784  -2.233   8.269   3.015  0.9538 -0.4251 -1.5676
  794MOL0     H 4785  -2.308   8.121   2.985 -1.5545  2.9900  0.2143
  794MOL0     H 4786  -2.175   8.188   2.798 -3.0869 -2.3330  1.2452
  794MOL0     H 4787  -2.024   8.197   2.886  1.7112 -0.9919  0.1898
  794MOL0     H 4788  -1.990   7.967   2.897  1.1559 -2.2277 -1.1306
  794MOL0     H 4789  -2.039   7.978   2.739  0.1465 -1.7455  0.9126
  794MOL0     H 4790  -1.513   8.280   3.306 -0.5152  0.3563  1.0876
  794MOL0     H 4791  -1.271   8.350   3.330 -1.8849 -1.9323 -0.1995
  794MOL0     H 4792  -0.938   8.508   3.662 -0.2863  1.7260  0.8665
  794MOL0     H 4793  -0.691   8.535   3.661  1.5830  1.7084 -0.6356
  794MOL0     H 4794   1.167   9.067   3.065 -0.3207  0.1032  1.0564
  794MOL0     H 4795   1.392   9.118   3.145  0.2318  0.5562  1.2714
  794MOL0     H 4796   1.751   9.641   3.164 -0.9783 -1.0263 -0.6783
  794MOL0     H 4797   2.013   9.627   3.249  1.4605 -1.7227  0.3687
  794MOL0     H 4798   2.130   9.565   3.472  0.3979 -0.4651 -0.2931
  794MOL0     H 4799   2.237   9.603   3.331 -0.8225 -1.3540 -1.0606
  794MOL0     H 4800   2.299   9.384   3.519 -1.0293  0.1661 -0.6171
  794MOL0     H 4801   2.400   9.464   3.394 -0.4736  1.9843 -1.2915
  794MOL0     H 4802   2.282   9.620   3.623 -2.4704 -0.5256 -2.1561
  794MOL0     H 4803   2.412   9.666   3.524 -1.9577  3.6929  1.1201
  794MOL0     H 4804   2.479   9.589   3.752 -0.9103 -0.9493  0.4391
  794MOL0     H 4805   2.423   9.426   3.719  2.3589  0.8436  2.9335
  794MOL0     H 4806   2.786   9.485   3.501  0.0760  0.6352  0.6554
  794MOL0     H 4807   1.959   9.223   3.345  0.7324  0.3508  2.2709
  794MOL0     H 4808   1.708   9.241   3.255  0.1276 -0.2605 -0.6933
  795MOL0     O 4809  11.022   8.069   6.173 -0.0804 -0.7614 -0.1046
  795MOL0     C 4810  11.089   8.170   6.194  0.0759  0.8784 -0.3893
  795MOL0     O 4811  11.037   8.292   6.226 -0.5716 -0.0965 -0.4385
  795MOL0     C 4812  10.902   8.314   6.222 -0.1537  1.1933 -0.2956
  795MOL0     C 4813  10.846   8.428   6.167 -0.8518 -0.2459  0.1155
  795MOL0     C 4814  10.707   8.457   6.179 -0.2920 -0.2167 -0.2234
  795MOL0     C 4815  10.621   8.365   6.241 -0.1525 -0.2309  0.1386
  795MOL0     O 4816  10.486   8.403   6.254  0.5354 -0.3068  0.2176
  795MOL0     C 4817  10.396   8.332   6.344  0.5194 -0.1718 -0.0856
  795MOL0     C 4818  10.253   8.349   6.291 -0.3451 -0.3991  0.0124
  795MOL0     C 4819  10.228   8.314   6.139 -0.1720 -0.3705 -0.1865
  795MOL0     C 4820  10.076   8.265   6.121  0.1605  0.3916  0.4275
  795MOL0     C 4821  10.015   8.258   5.980 -0.2739 -0.4473  0.3715
  795MOL0     C 4822   9.885   8.341   5.978  0.0283 -1.1109  0.0911
  795MOL0     C 4823   9.835   8.373   5.837  0.5405  0.5483 -0.4079
  795MOL0     C 4824   9.703   8.453   5.852  0.3606  0.1454 -0.0583
  795MOL0     N 4825   9.593   8.380   5.907 -0.1823 -0.1321 -0.3713
  795MOL0     C 4826   9.563   8.249   5.885 -1.8042  0.2332 -0.7329
  795MOL0     C 4827   9.464   8.229   5.973 -0.3850 -0.3903 -0.3990
  795MOL0     C 4828   9.395   8.101   6.017  0.5537 -0.1753 -1.1823
  795MOL0     C 4829   9.299   8.041   5.910  0.7304 -0.0907  0.1507
  795MOL0     C 4830   9.152   8.087   5.912  0.8416  0.1806  0.4616
  795MOL0     C 4831   9.099   8.146   6.045  0.2155 -0.5064 -0.0678
  795MOL0     O 4832   8.964   8.179   6.019 -0.0920  0.3351  1.4797
  795MOL0     C 4833   8.879   8.201   6.124 -0.5022 -0.4302  0.1710
  795MOL0     C 4834   8.914   8.255   6.249 -0.9905  0.5197  0.1675
  795MOL0     C 4835   8.812   8.273   6.337  0.3220  0.0008 -0.6331
  795MOL0     C 4836   8.675   8.244   6.317 -0.1332  0.9575 -0.4099
  795MOL0     C 4837   8.580   8.261   6.432  0.0669  0.8108 -0.5795
  795MOL0     O 4838   8.452   8.240   6.407  0.7185 -0.3874 -0.2590
  795MOL0     C 4839   8.345   8.232   6.492  0.3389 -0.3195 -0.7883
  795MOL0     C 4840   8.353   8.224   6.637 -0.7326 -0.4514 -0.0451
  795MOL0     C 4841   8.233   8.218   6.709 -0.0895 -0.5823 -0.0428
  795MOL0     C 4842   8.108   8.236   6.652  0.7407 -0.2768 -0.1869
  795MOL0     O 4843   7.987   8.225   6.721 -0.0001  0.0443  0.3523
  795MOL0     C 4844   7.978   8.238   6.865  0.2869 -0.4853 -0.1708
  795MOL0     C 4845   7.947   8.103   6.931  0.0283 -0.3264 -1.3079
  795MOL0     C 4846   7.798   8.063   6.922  0.4720 -0.1036 -0.4930
  795MOL0     C 4847   7.702   8.144   7.023 -0.6801  0.6643 -0.7386
  795MOL0     C 4848   7.561   8.091   7.030  1.0296 -0.5842 -0.4983
  795MOL0     C 4849   7.528   8.031   7.164  0.2988 -0.6524 -0.0693
  795MOL0     C 4850   7.397   7.958   7.166 -0.6833  0.2304  0.0360
  795MOL0     C 4851   7.380   7.865   7.285 -0.2602 -0.1749 -0.1482
  795MOL0    Cl 4852   7.216   7.813   7.315 -0.1043 -0.3408  0.1486
  795MOL0     C 4853   8.100   8.231   6.511 -0.5248 -0.2480  0.2537
  795MOL0     C 4854   8.214   8.235   6.441 -0.8985 -0.1317  0.1139
  795MOL0     O 4855   8.622   8.297   6.543  0.8047  0.1071  1.2147
  795MOL0     C 4856   8.648   8.194   6.190  0.1862 -0.4807 -1.1083
  795MOL0     C 4857   8.744   8.177   6.086  0.0729 -0.0895  0.4343
  795MOL0     N 4858   9.425   8.351   6.031  0.1083 -0.2226  0.6615
  795MOL0     N 4859   9.513   8.435   6.002  0.0680  1.2789  0.1240
  795MOL0     C 4860  10.677   8.249   6.297  0.1855 -0.4599 -0.0106
  795MOL0     C 4861  10.810   8.223   6.288 -0.0260  0.0374  0.0250
  795MOL0     C 4862  11.234   8.156   6.202 -0.1012  0.5297 -0.4559
  795MOL0     C 4863  11.294   8.034   6.238 -1.0398  0.5015  0.3632
  795MOL0     C 4864  11.436   8.025   6.262 -0.1293 -0.3274 -0.1730
  795MOL0     C 4865  11.515   8.138   6.237 -0.6386  0.2810  0.8370
  795MOL0     O 4866  11.658   8.136   6.249 -0.1410 -0.4589 -0.1258
  795MOL0     C 4867  11.725   8.008   6.255 -0.2383 -0.2864  0.4056
  795MOL0     C 4868  11.877   8.019   6.234 -0.0167 -0.3376 -0.6107
  795MOL0     C 4869  11.945   8.066   6.365 -0.2935 -1.0784 -0.4639
  795MOL0     C 4870  12.090   8.077   6.356  0.0575  1.5719 -0.3727
  795MOL0     C 4871  12.163   8.113   6.478  0.2603 -1.1931  0.4732
  795MOL0     C 4872  12.240   8.137   6.569 -1.0867 -0.8989  0.2744
  795MOL0     C 4873  11.459   8.262   6.200 -1.0002  0.2562  0.2957
  795MOL0     C 4874  11.315   8.269   6.182  0.0239  1.1452  0.1468
  795MOL0     H 4875  10.918   8.496   6.121 -0.1846 -0.0979  1.3413
  795MOL0     H 4876  10.676   8.553   6.137 -1.7061 -0.3507  0.4442
  795MOL0     H 4877  10.397   8.366   6.448 -3.3275 -2.0433  0.7344
  795MOL0     H 4878  10.405   8.223   6.349  1.2294 -0.2124 -1.6620
  795MOL0     H 4879  10.227   8.455   6.305  1.8485  0.3191 -0.8920
  795MOL0     H 4880  10.184   8.288   6.349 -1.2580 -0.5472 -1.2111
  795MOL0     H 4881  10.305   8.240   6.115 -2.3068 -3.3916  1.5038
  795MOL0     H 4882  10.242   8.406   6.081  1.0996  0.7245  1.7640
  795MOL0     H 4883  10.058   8.166   6.164  2.3508  0.1886  1.0094
  795MOL0     H 4884  10.017   8.317   6.197 -2.8616 -0.9683 -0.8185
  795MOL0     H 4885   9.999   8.153   5.956  1.2074 -0.2779 -1.6081
  795MOL0     H 4886  10.094   8.291   5.911 -0.4548  1.1539  0.8795
  795MOL0     H 4887   9.903   8.438   6.027  1.3139 -0.1518 -2.1207
  795MOL0     H 4888   9.804   8.293   6.032  2.2450  0.0340  5.0033
  795MOL0     H 4889   9.911   8.431   5.784  1.2326  0.0534  0.0260
  795MOL0     H 4890   9.820   8.285   5.773 -0.0260 -0.9357  1.6590
  795MOL0     H 4891   9.679   8.487   5.751 -0.9986 -0.6331 -0.0221
  795MOL0     H 4892   9.729   8.540   5.912  0.1884  0.3463 -0.2741
  795MOL0     H 4893   9.614   8.180   5.819 -1.2325  0.1512 -0.2154
  795MOL0     H 4894   9.339   8.127   6.107  0.4360 -2.7177 -0.4443
  795MOL0     H 4895   9.467   8.019   6.025 -2.4160 -2.7759  2.3589
  795MOL0     H 4896   9.301   7.932   5.918  0.8346 -0.3182 -2.2834
  795MOL0     H 4897   9.334   8.064   5.809 -0.2738  1.4676  0.1210
  795MOL0     H 4898   9.132   8.168   5.841 -2.1714 -1.0306 -0.2253
  795MOL0     H 4899   9.082   8.007   5.885  0.2216  0.6593  0.6210
  795MOL0     H 4900   9.155   8.234   6.077  1.7037 -1.5368  0.2199
  795MOL0     H 4901   9.107   8.067   6.120  1.3829 -1.6854 -1.3843
  795MOL0     H 4902   9.013   8.274   6.289 -0.2184  1.1565 -1.9236
  795MOL0     H 4903   8.835   8.324   6.430  1.3952  1.1000 -1.4579
  795MOL0     H 4904   8.447   8.214   6.690  0.4623 -3.2522 -2.4433
  795MOL0     H 4905   8.248   8.190   6.812  1.2025 -0.4403 -0.1811
  795MOL0     H 4906   7.909   8.320   6.888  1.5734  1.5484 -3.0273
  795MOL0     H 4907   8.069   8.271   6.917  0.0891 -1.2965  0.7268
  795MOL0     H 4908   7.982   8.091   7.034  0.5705 -0.3933 -1.4953
  795MOL0     H 4909   8.012   8.030   6.883  2.3700  0.4395  0.5036
  795MOL0     H 4910   7.785   7.963   6.964  0.0265  0.1661  0.0327
  795MOL0     H 4911   7.767   8.073   6.818  1.5720 -1.2340 -0.9507
  795MOL0     H 4912   7.760   8.152   7.115  1.3259  0.0394 -1.8694
  795MOL0     H 4913   7.694   8.241   6.973  0.3438  1.2477  0.1797
  795MOL0     H 4914   7.552   8.009   6.960 -1.9603  0.7288 -1.8316
  795MOL0     H 4915   7.492   8.172   7.002  2.3970  0.6381 -0.4302
  795MOL0     H 4916   7.525   8.108   7.242 -2.5755 -1.1719  0.4661
  795MOL0     H 4917   7.606   7.959   7.190  3.0488  2.3825  0.7931
  795MOL0     H 4918   7.317   8.033   7.180  1.9344  3.2243  0.0627
  795MOL0     H 4919   7.375   7.906   7.072 -0.4460 -1.3342  0.8206
  795MOL0     H 4920   7.415   7.914   7.377 -0.5158  0.5847 -0.4553
  795MOL0     H 4921   7.442   7.776   7.266 -1.5570 -1.5236  1.5606
  795MOL0     H 4922   8.002   8.235   6.466 -1.2447  0.7873  1.8174
  795MOL0     H 4923   8.219   8.231   6.333  1.8403  0.5487  0.1471
  795MOL0     H 4924   8.544   8.172   6.166  0.4037  1.3680 -4.2919
  795MOL0     H 4925   8.720   8.141   5.987  1.4692  0.4177 -0.1219
  795MOL0     H 4926  10.627   8.167   6.349  0.4453 -1.7901 -1.7526
  795MOL0     H 4927  10.845   8.132   6.336 -1.5243 -1.2683 -1.2231
  795MOL0     H 4928  11.240   7.943   6.261 -1.0670  0.0815 -1.2231
  795MOL0     H 4929  11.482   7.930   6.287  0.3299  0.1435  0.8359
  795MOL0     H 4930  11.683   7.946   6.175 -0.1989  0.8159 -0.4884
  795MOL0     H 4931  11.714   7.963   6.355 -0.1435  0.4682  0.7623
  795MOL0     H 4932  11.907   7.917   6.207  0.0504 -0.8462  1.2400
  795MOL0     H 4933  11.897   8.084   6.149  1.7186  1.6812  1.2377
  795MOL0     H 4934  11.910   8.007   6.450 -0.0037 -2.8126 -1.5038
  795MOL0     H 4935  11.906   8.167   6.376  3.8701  0.8014 -1.0705
  795MOL0     H 4936  12.129   7.979   6.326 -0.9732  0.6831  1.0383
  795MOL0     H 4937  12.119   8.144   6.275  2.3231  2.0041  0.7001
  795MOL0     H 4938  12.302   8.154   6.655 -1.0008 -1.4431  0.3246
  795MOL0     H 4939  11.520   8.349   6.179 -0.0049  0.1116  2.3259
  795MOL0     H 4940  11.262   8.356   6.146  1.0871  1.9788  0.5380
  796MOL0     O 4941   4.974   6.159  11.020 -0.1721  0.7258  0.2601
  796MOL0     C 4942   4.998   6.202  10.908 -0.5145  0.4173  0.5739
  796MOL0     O 4943   4.899   6.238  10.817 -0.8031  0.2823  0.4134
  796MOL0     C 4944   4.773   6.186  10.825 -0.1500  0.2935 -0.5859
  796MOL0     C 4945   4.737   6.058  10.876  0.1226  0.2887 -0.0042
  796MOL0     C 4946   4.605   6.012  10.875  0.2307 -0.3818  0.2663
  796MOL0     C 4947   4.500   6.102  10.843 -0.1659 -0.5210 -0.7566
  796MOL0     O 4948   4.366   6.055  10.844 -0.0687 -0.2251 -0.1895
  796MOL0     C 4949   4.332   5.924  10.789 -0.6740 -0.5972  0.2023
  796MOL0     C 4950   4.216   5.925  10.699 -0.5223 -0.7118 -0.1037
  796MOL0     C 4951   4.199   5.784  10.658 -0.7604 -0.2134 -0.4905
  796MOL0     C 4952   4.084   5.763  10.557 -0.5050 -0.6652 -1.4741
  796MOL0     C 4953   3.950   5.730  10.608  0.0323  0.6648 -0.1319
  796MOL0     C 4954   3.939   5.587  10.657 -0.5259  0.2016 -0.3036
  796MOL0     C 4955   3.800   5.519  10.657 -0.8807  0.0176  1.1483
  796MOL0     C 4956   3.712   5.551  10.790  0.0310  0.2833  0.0100
  796MOL0     N 4957   3.598   5.465  10.819  0.5600  0.9443  0.1794
  796MOL0     C 4958   3.472   5.505  10.816  0.1285  0.1886  0.2937
  796MOL0     C 4959   3.408   5.390  10.840 -0.9265  0.2001  0.1566
  796MOL0     C 4960   3.269   5.371  10.863 -0.0649 -1.1037  0.0319
  796MOL0     C 4961   3.194   5.351  10.725  0.4129  0.2361 -0.1373
  796MOL0     C 4962   3.039   5.311  10.730  0.3599  0.4970  0.2797
  796MOL0     C 4963   2.948   5.420  10.796  0.1756  0.8774 -0.5692
  796MOL0     O 4964   2.932   5.543  10.726 -0.4056  0.0771  0.1195
  796MOL0     C 4965   2.828   5.563  10.639 -0.5383  0.0060  0.0289
  796MOL0     C 4966   2.845   5.673  10.551  0.1206  1.1315  0.8042
  796MOL0     C 4967   2.737   5.703  10.460 -0.3480 -0.2528  0.1595
  796MOL0     C 4968   2.627   5.619  10.442  0.2627  0.8536 -0.0222
  796MOL0     C 4969   2.519   5.642  10.339 -0.8403 -0.1280 -0.1966
  796MOL0     O 4970   2.406   5.564  10.343 -0.2385 -0.0255 -0.0202
  796MOL0     C 4971   2.293   5.617  10.275  0.0050 -0.4223  0.1988
  796MOL0     C 4972   2.240   5.740  10.313  0.3945 -0.0921  0.0254
  796MOL0     C 4973   2.115   5.777  10.262 -0.9134 -0.4582 -0.7338
  796MOL0     C 4974   2.051   5.704  10.163 -0.0098 -0.2936 -0.7700
  796MOL0     O 4975   1.937   5.749  10.116  0.8178 -0.1945  0.4473
  796MOL0     C 4976   1.920   5.732   9.968 -0.1429  0.4459 -0.7787
  796MOL0     C 4977   1.809   5.824   9.917  0.1383 -0.6132 -0.4515
  796MOL0     C 4978   1.669   5.758   9.944 -0.4678 -1.3762  0.1092
  796MOL0     C 4979   1.550   5.847   9.892  0.7583 -0.6024  0.1396
  796MOL0     C 4980   1.417   5.783   9.913  0.3765 -0.0300 -0.0814
  796MOL0     C 4981   1.302   5.863   9.850  0.2435 -0.7850  0.1766
  796MOL0     C 4982   1.176   5.783   9.874  0.1391 -0.3876 -0.5595
  796MOL0     C 4983   1.048   5.849   9.829  0.5449  0.6125 -0.5210
  796MOL0    Cl 4984   0.903   5.750   9.871 -0.1554  0.1318  0.4494
  796MOL0     C 4985   2.119   5.592  10.116 -0.0247 -0.4173 -0.2298
  796MOL0     C 4986   2.228   5.543  10.181  0.9316  0.3668  0.2581
  796MOL0     O 4987   2.541   5.735  10.259 -0.0551  0.0534  0.8167
  796MOL0     C 4988   2.624   5.507  10.525  0.2708  0.2444  0.7043
  796MOL0     C 4989   2.721   5.473  10.620 -0.3547  0.5288  1.4746
  796MOL0     N 4990   3.494   5.279  10.849 -0.3089 -0.2368  0.2187
  796MOL0     N 4991   3.607   5.331  10.828 -0.2964  0.0156 -0.0615
  796MOL0     C 4992   4.528   6.231  10.796  0.5476  0.1609 -0.1929
  796MOL0     C 4993   4.665   6.270  10.783 -0.0976 -0.4481 -0.7991
  796MOL0     C 4994   5.134   6.247  10.881 -0.2680 -0.0450 -0.4900
  796MOL0     C 4995   5.229   6.241  10.982 -0.5134  0.8080  0.7664
  796MOL0     C 4996   5.356   6.296  10.972 -0.5585 -0.5289  0.5803
  796MOL0     C 4997   5.404   6.357  10.857 -0.7028 -0.4608  0.2675
  796MOL0     O 4998   5.527   6.413  10.842  0.1075  0.0382 -0.7107
  796MOL0     C 4999   5.642   6.353  10.903  0.9218 -0.2387 -0.8710
  796MOL0     C 5000   5.757   6.459  10.897 -0.5376 -0.8677 -1.0032
  796MOL0     C 5001   5.904   6.424  10.940  0.2781 -0.3446 -0.4149
  796MOL0     C 5002   5.973   6.532  11.015 -0.1232 -0.0837 -0.3588
  796MOL0     C 5003   6.089   6.459  11.071 -0.7590 -0.3721  0.7121
  796MOL0     C 5004   6.163   6.383  11.130 -0.7989  0.3504  0.0864
  796MOL0     C 5005   5.310   6.374  10.753  0.9658  0.3063  0.1906
  796MOL0     C 5006   5.176   6.315  10.765  0.1746  0.2746 -0.4987
  796MOL0     H 5007   4.809   5.986  10.915 -0.2380  0.1013  0.3150
  796MOL0     H 5008   4.589   5.910  10.908 -2.2039 -1.3424 -3.2483
  796MOL0     H 5009   4.319   5.851  10.870  3.1930 -1.6070  0.1409
  796MOL0     H 5010   4.417   5.896  10.726 -1.4429  1.5369 -1.9117
  796MOL0     H 5011   4.240   5.989  10.614 -0.2220  1.2626  1.3934
  796MOL0     H 5012   4.126   5.962  10.749 -1.3934 -4.0241  1.0464
  796MOL0     H 5013   4.168   5.733  10.750 -3.7456  3.4267  0.7782
  796MOL0     H 5014   4.292   5.743  10.617 -2.6110 -3.5412 -1.7966
  796MOL0     H 5015   4.066   5.852  10.497 -2.5971 -0.8402 -1.2076
  796MOL0     H 5016   4.110   5.684  10.485 -1.6287 -2.5779  0.1013
  796MOL0     H 5017   3.878   5.751  10.529  0.0156  2.6089  0.3633
  796MOL0     H 5018   3.919   5.795  10.691 -1.7744 -2.3283  1.7563
  796MOL0     H 5019   3.973   5.579  10.761 -1.5451  0.7835  0.0906
  796MOL0     H 5020   4.000   5.528  10.589 -0.4338  0.0436 -0.0848
  796MOL0     H 5021   3.752   5.552  10.565  0.2762 -1.2822  0.0319
  796MOL0     H 5022   3.810   5.411  10.641 -1.9529  0.0170  0.4195
  796MOL0     H 5023   3.666   5.650  10.780 -0.6762  0.2010  2.0831
  796MOL0     H 5024   3.765   5.564  10.884 -2.3310  3.3535  1.0993
  796MOL0     H 5025   3.425   5.601  10.803  4.6183  2.3203 -3.4566
  796MOL0     H 5026   3.237   5.458  10.921  0.7041 -0.4427 -0.5102
  796MOL0     H 5027   3.248   5.283  10.924  1.2161 -3.1330 -2.2492
  796MOL0     H 5028   3.241   5.265  10.676  0.9809  0.1510  0.5449
  796MOL0     H 5029   3.206   5.445  10.670 -0.0215  0.0879 -0.4954
  796MOL0     H 5030   3.002   5.303  10.627  2.1871 -0.2996 -0.3497
  796MOL0     H 5031   3.018   5.226  10.795 -3.4847  3.5899  3.6063
  796MOL0     H 5032   2.991   5.440  10.895  0.6734 -3.0098  0.1563
  796MOL0     H 5033   2.854   5.373  10.827  0.8779  2.3174  4.9094
  796MOL0     H 5034   2.927   5.742  10.568 -0.3406  1.7337  0.5960
  796MOL0     H 5035   2.749   5.793  10.401 -0.1759 -0.8814 -0.7960
  796MOL0     H 5036   2.282   5.810  10.384  1.6968 -1.7100  0.9072
  796MOL0     H 5037   2.084   5.872  10.305 -0.4845 -0.8354  0.4546
  796MOL0     H 5038   1.902   5.626   9.951  2.0509 -0.3311  1.1207
  796MOL0     H 5039   2.015   5.756   9.919  1.9124 -0.9734  2.2056
  796MOL0     H 5040   1.822   5.844   9.810 -0.1660 -1.8047 -0.7221
  796MOL0     H 5041   1.824   5.920   9.967 -0.0081  0.3465 -2.1569
  796MOL0     H 5042   1.660   5.730  10.050  2.5361 -0.8526  0.5886
  796MOL0     H 5043   1.673   5.657   9.902  1.0347 -1.8791  1.3583
  796MOL0     H 5044   1.560   5.952   9.918  1.7431 -0.5868 -0.2596
  796MOL0     H 5045   1.557   5.842   9.783 -2.2557 -0.6444 -0.1511
  796MOL0     H 5046   1.387   5.787  10.018 -1.3253  0.5492 -0.5499
  796MOL0     H 5047   1.427   5.683   9.869 -1.7661  0.3398 -1.5910
  796MOL0     H 5048   1.318   5.872   9.742  0.3445  0.0280  0.2531
  796MOL0     H 5049   1.297   5.962   9.897  4.3070 -0.7102  0.8100
  796MOL0     H 5050   1.196   5.692   9.816  2.2996  0.1553 -0.7574
  796MOL0     H 5051   1.164   5.767   9.982  0.9323  0.8476 -0.2648
  796MOL0     H 5052   1.047   5.865   9.720  2.9189  3.3475 -0.2654
  796MOL0     H 5053   1.045   5.944   9.883  0.2842 -1.1589  2.8154
  796MOL0     H 5054   2.071   5.535  10.036 -2.0065  0.1019  0.5409
  796MOL0     H 5055   2.259   5.445  10.146 -1.4590 -0.1426 -0.6298
  796MOL0     H 5056   2.550   5.428  10.511  1.1520 -0.5958  0.6480
  796MOL0     H 5057   2.702   5.385  10.681 -1.5477  1.0042  1.8088
  796MOL0     H 5058   4.454   6.300  10.758  0.3024  0.9819  1.6503
  796MOL0     H 5059   4.694   6.368  10.745 -1.7194  1.9055  3.3293
  796MOL0     H 5060   5.208   6.190  11.076  1.0277  1.9259  1.7799
  796MOL0     H 5061   5.425   6.275  11.053 -0.4640 -1.2874  0.3064
  796MOL0     H 5062   5.672   6.271  10.837 -0.7663 -0.3160 -1.5763
  796MOL0     H 5063   5.624   6.304  10.999  1.2855 -2.7039 -1.9748
  796MOL0     H 5064   5.761   6.504  10.797  2.3894  1.1917 -0.1085
  796MOL0     H 5065   5.719   6.543  10.956 -1.5451 -1.8745 -0.1791
  796MOL0     H 5066   5.959   6.407  10.847  0.1581  0.8084 -0.7131
  796MOL0     H 5067   5.894   6.332  10.999  3.7481 -0.1704  0.6907
  796MOL0     H 5068   6.004   6.605  10.940  2.1776 -1.0754 -0.4678
  796MOL0     H 5069   5.910   6.590  11.083  1.4763  4.5303 -2.4331
  796MOL0     H 5070   6.232   6.333  11.195  2.1876  3.4962 -0.3795
  796MOL0     H 5071   5.328   6.419  10.656 -1.3665 -1.0227 -0.9529
  796MOL0     H 5072   5.110   6.317  10.679  1.3335 -1.0541 -1.4686
  797MOL0     O 5073   7.428   8.445   5.139  0.2278  0.4084 -0.3527
  797MOL0     C 5074   7.459   8.369   5.051  0.0167 -0.3354  0.6350
  797MOL0     O 5075   7.382   8.338   4.946  0.1149  0.0079  0.2265
  797MOL0     C 5076   7.265   8.405   4.926  0.4551  0.2197  0.1329
  797MOL0     C 5077   7.235   8.468   4.800 -0.4650  0.3292 -0.2505
  797MOL0     C 5078   7.113   8.515   4.775 -0.9744 -1.0720  0.4464
  797MOL0     C 5079   7.009   8.487   4.868  0.3530  0.6812  1.3310
  797MOL0     O 5080   6.888   8.532   4.817 -0.5672  0.0129  0.0046
  797MOL0     C 5081   6.766   8.522   4.887 -0.2725  0.5133 -0.2517
  797MOL0     C 5082   6.655   8.586   4.803  0.4003  0.4528 -0.3872
  797MOL0     C 5083   6.555   8.648   4.898 -0.1319  0.2785 -0.0357
  797MOL0     C 5084   6.495   8.551   5.009 -0.1878  0.3302  0.1083
  797MOL0     C 5085   6.439   8.630   5.120 -0.7924 -0.4320 -0.0469
  797MOL0     C 5086   6.288   8.674   5.110  0.4282 -0.3671 -0.4624
  797MOL0     C 5087   6.234   8.721   5.244 -0.0124  0.2179 -0.8253
  797MOL0     C 5088   6.082   8.725   5.249 -0.0471  0.7657  0.2682
  797MOL0     N 5089   6.016   8.798   5.358  0.8744  0.3315 -0.2129
  797MOL0     C 5090   5.896   8.874   5.353  1.2177 -0.3341  1.5674
  797MOL0     C 5091   5.856   8.900   5.480  0.2060  0.4788  1.1364
  797MOL0     C 5092   5.748   8.982   5.524  0.7090 -0.7220 -0.2148
  797MOL0     C 5093   5.606   8.963   5.473 -0.6357  0.1087 -0.5906
  797MOL0     C 5094   5.540   8.832   5.518 -0.2434  0.1022  0.5118
  797MOL0     C 5095   5.395   8.828   5.473 -0.7670 -0.0565  1.1685
  797MOL0     O 5096   5.390   8.753   5.348 -0.1908  0.0455  0.1153
  797MOL0     C 5097   5.270   8.741   5.289  0.3643  0.5238  0.8408
  797MOL0     C 5098   5.269   8.697   5.157 -0.4151 -0.0997  1.0693
  797MOL0     C 5099   5.155   8.686   5.083  0.0966 -0.1301  0.4378
  797MOL0     C 5100   5.034   8.719   5.133  0.6212  0.4945  0.0060
  797MOL0     C 5101   4.913   8.696   5.045 -0.3125 -0.4508  0.1215
  797MOL0     O 5102   4.911   8.583   4.960  0.1845 -0.0824 -0.1615
  797MOL0     C 5103   4.804   8.539   4.889 -0.1766 -0.0423 -0.1799
  797MOL0     C 5104   4.826   8.435   4.797 -0.4718  0.8799  0.3542
  797MOL0     C 5105   4.723   8.367   4.721 -0.0539 -0.5057  0.0627
  797MOL0     C 5106   4.594   8.427   4.720  0.2080 -0.4891 -0.3981
  797MOL0     O 5107   4.493   8.349   4.665 -0.2531 -0.2138  0.6866
  797MOL0     C 5108   4.361   8.365   4.715 -0.4596 -0.1041  0.1078
  797MOL0     C 5109   4.283   8.457   4.631 -0.8441 -0.0524  0.1982
  797MOL0     C 5110   4.147   8.484   4.681  0.1732 -0.6608 -0.4109
  797MOL0     C 5111   4.043   8.380   4.651 -0.0341  0.1152 -0.2830
  797MOL0     C 5112   3.903   8.407   4.707  0.5935  0.3362  0.4708
  797MOL0     C 5113   3.853   8.537   4.645 -0.1230  0.4206 -0.3785
  797MOL0     C 5114   3.706   8.540   4.672  0.1792 -0.4895  0.1489
  797MOL0     C 5115   3.646   8.677   4.634  0.4189  0.8605  0.0765
  797MOL0    Cl 5116   3.698   8.810   4.744 -0.1640  0.1498 -0.2113
  797MOL0     C 5117   4.570   8.537   4.805 -0.1836  0.3353 -0.4899
  797MOL0     C 5118   4.673   8.594   4.883  0.5275 -0.7218  0.7023
  797MOL0     O 5119   4.820   8.769   5.067 -1.1884 -0.0998 -0.4562
  797MOL0     C 5120   5.025   8.767   5.265  0.5399 -0.1423  0.3282
  797MOL0     C 5121   5.143   8.784   5.338 -0.9150 -0.1462  0.6149
  797MOL0     N 5122   5.947   8.833   5.565  0.2124 -1.4075  0.3641
  797MOL0     N 5123   6.039   8.776   5.490 -0.5919  0.9404 -0.2511
  797MOL0     C 5124   7.028   8.411   4.979 -0.2263  1.2424 -0.4212
  797MOL0     C 5125   7.157   8.378   5.010  0.3464  0.0575  0.4677
  797MOL0     C 5126   7.599   8.317   5.038 -0.1010 -0.0998  0.1564
  797MOL0     C 5127   7.687   8.327   5.150  0.5191  0.4939  1.2086
  797MOL0     C 5128   7.822   8.296   5.134  0.3945  0.5732  0.1379
  797MOL0     C 5129   7.885   8.253   5.016  0.7704  0.9405 -0.1234
  797MOL0     O 5130   8.017   8.218   5.001 -0.4777 -0.3215  0.0831
  797MOL0     C 5131   8.109   8.256   5.104  0.5121 -0.1350  0.1248
  797MOL0     C 5132   8.242   8.177   5.068  1.1818  1.3146 -0.3709
  797MOL0     C 5133   8.238   8.020   5.076  0.2093  0.2711  0.2740
  797MOL0     C 5134   8.215   7.954   5.221 -0.2250 -0.9403  0.2151
  797MOL0     C 5135   8.340   7.977   5.299  0.0982 -1.5087 -0.1840
  797MOL0     C 5136   8.437   8.008   5.366  0.2742 -0.2091 -0.4498
  797MOL0     C 5137   7.794   8.249   4.911 -0.6249  0.6399  0.5541
  797MOL0     C 5138   7.655   8.274   4.913 -0.0286  0.0916 -0.0502
  797MOL0     H 5139   7.308   8.461   4.720  0.3284  2.7420  0.1820
  797MOL0     H 5140   7.084   8.560   4.681  1.5761  0.9104  0.4842
  797MOL0     H 5141   6.779   8.579   4.980 -0.0276 -2.0145  1.3693
  797MOL0     H 5142   6.736   8.421   4.916  0.8783  0.5774  1.2816
  797MOL0     H 5143   6.610   8.515   4.733 -0.1034  2.1287 -1.8518
  797MOL0     H 5144   6.705   8.661   4.740 -0.4345  0.3820 -1.1626
  797MOL0     H 5145   6.477   8.708   4.851  1.2000  2.1815  0.0443
  797MOL0     H 5146   6.616   8.726   4.946  1.6747 -0.4974 -0.9655
  797MOL0     H 5147   6.419   8.494   4.954  1.2566 -1.1189 -0.4720
  797MOL0     H 5148   6.556   8.475   5.059 -4.7159 -3.7372  0.2012
  797MOL0     H 5149   6.508   8.712   5.138 -0.8886 -0.3754  0.0683
  797MOL0     H 5150   6.445   8.566   5.209 -1.0184  1.9376  1.7960
  797MOL0     H 5151   6.227   8.598   5.059  1.6357  0.1337 -2.7974
  797MOL0     H 5152   6.282   8.762   5.046 -0.5156  0.2653  0.4638
  797MOL0     H 5153   6.278   8.668   5.329  2.3880  3.2070 -0.0183
  797MOL0     H 5154   6.272   8.823   5.263 -1.9581  0.8150  0.1090
  797MOL0     H 5155   6.041   8.624   5.263  1.9444  0.0893  1.7204
  797MOL0     H 5156   6.056   8.759   5.148  1.9803 -0.6609 -0.8049
  797MOL0     H 5157   5.854   8.931   5.270  1.8847 -0.0204  1.4395
  797MOL0     H 5158   5.771   9.087   5.505  0.8547 -0.7059  0.0505
  797MOL0     H 5159   5.743   8.968   5.632 -0.2878 -5.1892 -0.6396
  797MOL0     H 5160   5.619   8.973   5.365  1.6636  1.0552 -0.2819
  797MOL0     H 5161   5.543   9.048   5.502  2.6343  2.4684  0.1860
  797MOL0     H 5162   5.597   8.743   5.488  2.4374  1.8109  0.1729
  797MOL0     H 5163   5.547   8.829   5.627 -1.2110 -1.3695  0.5612
  797MOL0     H 5164   5.340   8.923   5.473 -0.8404 -0.0208 -1.6500
  797MOL0     H 5165   5.341   8.764   5.544 -0.7258 -0.4030  0.8865
  797MOL0     H 5166   5.356   8.670   5.098  0.8328 -4.0308  4.2830
  797MOL0     H 5167   5.168   8.668   4.976  0.7973  2.9989 -0.0950
  797MOL0     H 5168   4.924   8.389   4.783 -0.3109  1.4208 -0.3786
  797MOL0     H 5169   4.754   8.280   4.663  1.5531  1.4263 -2.1841
  797MOL0     H 5170   4.374   8.393   4.821  1.1151  0.9025 -0.3124
  797MOL0     H 5171   4.308   8.270   4.706 -2.6912  0.7279  2.8346
  797MOL0     H 5172   4.286   8.430   4.525 -3.0693  1.6047 -0.3597
  797MOL0     H 5173   4.336   8.552   4.646  0.6949 -0.8442  0.0116
  797MOL0     H 5174   4.130   8.575   4.622  2.5343 -0.0032 -0.1744
  797MOL0     H 5175   4.150   8.514   4.786  1.6815 -0.2706 -0.5497
  797MOL0     H 5176   4.034   8.377   4.542  1.6700  3.1713 -0.6381
  797MOL0     H 5177   4.078   8.285   4.691 -1.9029 -0.5804 -0.2164
  797MOL0     H 5178   3.906   8.402   4.817  1.9822 -0.0878  0.4329
  797MOL0     H 5179   3.846   8.319   4.676  1.0163  0.5477 -0.9434
  797MOL0     H 5180   3.864   8.533   4.537 -0.5499  0.4464 -0.4225
  797MOL0     H 5181   3.904   8.626   4.682 -0.1792 -0.5677  2.3486
  797MOL0     H 5182   3.648   8.464   4.617 -0.1566  1.1392 -1.8650
  797MOL0     H 5183   3.696   8.540   4.781  2.4641  0.3489  0.4189
  797MOL0     H 5184   3.537   8.678   4.629  0.4477  3.7502 -3.5054
  797MOL0     H 5185   3.682   8.703   4.534 -1.4659 -2.3761 -1.6096
  797MOL0     H 5186   4.472   8.583   4.812  1.2378  3.3927  2.7280
  797MOL0     H 5187   4.651   8.665   4.962  0.9281 -3.0926  3.1157
  797MOL0     H 5188   4.929   8.808   5.295 -0.4984 -1.9228 -0.4009
  797MOL0     H 5189   5.129   8.841   5.430 -1.9507 -1.1701  1.1203
  797MOL0     H 5190   6.948   8.383   5.046 -0.0683  1.3880 -0.1676
  797MOL0     H 5191   7.163   8.311   5.096 -1.7363 -0.1792  0.4762
  797MOL0     H 5192   7.645   8.368   5.241 -0.3707 -2.1032  2.0402
  797MOL0     H 5193   7.870   8.314   5.230 -1.0888 -0.1098  1.0565
  797MOL0     H 5194   8.074   8.227   5.203 -1.0311  2.7329  0.5381
  797MOL0     H 5195   8.116   8.365   5.116  0.8565 -0.2350  0.8491
  797MOL0     H 5196   8.271   8.201   4.965  2.3799  0.0194 -0.3673
  797MOL0     H 5197   8.329   8.216   5.122  0.0415  4.3314 -0.4717
  797MOL0     H 5198   8.327   7.977   5.029 -1.4828 -1.1218 -1.8082
  797MOL0     H 5199   8.157   7.983   5.014 -0.2763  2.8294 -0.7698
  797MOL0     H 5200   8.120   7.977   5.270  0.0192  0.3674  0.1283
  797MOL0     H 5201   8.208   7.846   5.205 -0.4731 -0.6525 -1.7763
  797MOL0     H 5202   8.526   8.030   5.421  0.1336  2.6094 -1.1876
  797MOL0     H 5203   7.835   8.226   4.813  0.4921  1.7371  0.7432
  797MOL0     H 5204   7.598   8.273   4.821 -2.4660  2.4009  1.2690
  798MOL0     O 5205   1.894   9.956   7.344  0.1996 -1.1418 -0.2890
  798MOL0     C 5206   1.940   9.947   7.458  0.1518 -0.0287 -0.9221
  798MOL0     O 5207   1.876   9.914   7.566 -0.1863  0.3844  0.0065
  798MOL0     C 5208   1.739   9.882   7.554  0.7732 -0.4433  0.2081
  798MOL0     C 5209   1.631   9.974   7.536 -0.3454  0.0127  0.7775
  798MOL0     C 5210   1.495   9.939   7.529  0.2410 -0.1669  0.2330
  798MOL0     C 5211   1.465   9.806   7.553 -0.5885 -0.0761  0.7921
  798MOL0     O 5212   1.341   9.750   7.544  0.5513 -0.1328  0.2382
  798MOL0     C 5213   1.232   9.821   7.610  0.8250  0.3786  1.0091
  798MOL0     C 5214   1.109   9.722   7.594  0.2570 -0.4333 -0.2773
  798MOL0     C 5215   0.974   9.791   7.629 -1.3016  0.5449 -0.2569
  798MOL0     C 5216   0.958   9.936   7.594 -0.1881  0.0884 -0.8482
  798MOL0     C 5217   0.809   9.975   7.626 -0.5791  0.8842  0.4555
  798MOL0     C 5218   0.798  10.125   7.605  0.3589  0.4469  0.6184
  798MOL0     C 5219   0.660  10.180   7.633 -0.8812 -0.1964  0.5126
  798MOL0     C 5220   0.654  10.207   7.785  0.2985 -0.8836  0.0939
  798MOL0     N 5221   0.520  10.259   7.829 -0.4765  1.0299  0.8473
  798MOL0     C 5222   0.486  10.377   7.893 -0.5766 -0.0817  0.1487
  798MOL0     C 5223   0.356  10.364   7.922  0.3691 -1.0226 -0.7842
  798MOL0     C 5224   0.261  10.471   7.968  0.8295 -0.9026  0.1524
  798MOL0     C 5225   0.113  10.449   7.925 -0.1547 -0.5352  0.4331
  798MOL0     C 5226   0.099  10.451   7.777 -0.6059 -0.1998  0.2812
  798MOL0     C 5227  -0.042  10.477   7.738 -0.0315  0.3634 -0.1310
  798MOL0     O 5228  -0.062  10.496   7.594  0.2822 -0.2976  0.5834
  798MOL0     C 5229  -0.193  10.493   7.563 -0.1304  0.5206 -0.2696
  798MOL0     C 5230  -0.218  10.471   7.431 -0.1303  0.5089 -0.0639
  798MOL0     C 5231  -0.348  10.453   7.386 -0.0200  0.0264  0.5655
  798MOL0     C 5232  -0.456  10.465   7.471 -0.5034  0.4414  1.0183
  798MOL0     C 5233  -0.593  10.447   7.410 -1.1236  0.0017  0.1734
  798MOL0     O 5234  -0.651  10.554   7.343 -0.1866 -0.4140 -0.5242
  798MOL0     C 5235  -0.781  10.556   7.313 -0.0294 -0.4273  0.6928
  798MOL0     C 5236  -0.821  10.594   7.180  0.1795  0.1014  0.2886
  798MOL0     C 5237  -0.955  10.587   7.142  0.1083 -0.9083  0.2099
  798MOL0     C 5238  -1.060  10.562   7.234 -0.6683  0.1618  0.0015
  798MOL0     O 5239  -1.192  10.569   7.194 -0.3694  0.3989  0.4700
  798MOL0     C 5240  -1.291  10.598   7.287  0.2289 -0.4095 -0.5445
  798MOL0     C 5241  -1.426  10.619   7.220 -0.2156  0.3439 -0.6619
  798MOL0     C 5242  -1.497  10.499   7.159 -0.0524  0.9633  0.2238
  798MOL0     C 5243  -1.598  10.424   7.257 -0.0556 -0.6458  0.7882
  798MOL0     C 5244  -1.648  10.294   7.178  0.1998  0.9567  0.4057
  798MOL0     C 5245  -1.760  10.228   7.259 -0.0138 -0.4737 -0.0058
  798MOL0     C 5246  -1.724  10.189   7.398  0.5850 -1.0456 -0.1743
  798MOL0     C 5247  -1.849  10.131   7.476  0.9279  0.1589 -0.1767
  798MOL0    Cl 5248  -1.797  10.073   7.644  0.3540 -0.2154 -0.1555
  798MOL0     C 5249  -1.019  10.531   7.366  0.4424  0.2890  0.7961
  798MOL0     C 5250  -0.882  10.517   7.401  0.7807 -0.7978  0.1253
  798MOL0     O 5251  -0.632  10.337   7.420  0.2241 -0.1237  0.6023
  798MOL0     C 5252  -0.431  10.488   7.605  0.1055 -0.4597 -0.2541
  798MOL0     C 5253  -0.297  10.511   7.652  0.6604 -1.2714  0.1060
  798MOL0     N 5254   0.314  10.229   7.887  0.3740 -1.0172 -0.2563
  798MOL0     N 5255   0.415  10.168   7.829 -0.5218  0.5053 -0.0170
  798MOL0     C 5256   1.568   9.711   7.576 -0.1841 -0.7816  0.0424
  798MOL0     C 5257   1.700   9.748   7.566 -0.4883  0.1502 -0.2057
  798MOL0     C 5258   2.087   9.944   7.479  0.2752 -0.2945  0.9444
  798MOL0     C 5259   2.163  10.018   7.391  0.4730  0.6880  1.5753
  798MOL0     C 5260   2.301  10.025   7.403 -0.5355 -0.3161  0.5036
  798MOL0     C 5261   2.366   9.955   7.511 -0.2475  0.0007 -0.2391
  798MOL0     O 5262   2.501   9.964   7.545 -0.3401  0.5184 -0.1472
  798MOL0     C 5263   2.586   9.922   7.435 -0.1098 -0.6289  0.6105
  798MOL0     C 5264   2.706  10.009   7.436  0.3555 -0.3332  1.4596
  798MOL0     C 5265   2.791   9.998   7.565 -0.2803  0.5059  0.9503
  798MOL0     C 5266   2.866  10.128   7.593  0.3493 -0.3978 -0.0807
  798MOL0     C 5267   2.907  10.191   7.463  0.4867 -0.7860 -0.4882
  798MOL0     C 5268   2.921  10.233   7.352 -0.4540 -0.3404  0.9369
  798MOL0     C 5269   2.292   9.875   7.602  0.1791  0.8073  0.4407
  798MOL0     C 5270   2.149   9.871   7.578 -0.7525  0.6158  0.0164
  798MOL0     H 5271   1.645  10.081   7.533 -0.7587  0.0679  0.6491
  798MOL0     H 5272   1.424  10.013   7.495  0.8470  0.6971  0.8001
  798MOL0     H 5273   1.207   9.909   7.550 -0.8327  0.3017  1.5329
  798MOL0     H 5274   1.257   9.846   7.713 -1.8746 -1.7892  2.3329
  798MOL0     H 5275   1.123   9.633   7.655 -0.2731 -1.7082 -1.9491
  798MOL0     H 5276   1.107   9.693   7.489 -3.8813  0.4242 -0.5964
  798MOL0     H 5277   0.973   9.782   7.738 -2.4310 -2.5403 -0.4203
  798MOL0     H 5278   0.887   9.733   7.597 -1.4210  0.5031  0.1357
  798MOL0     H 5279   1.013  10.009   7.654 -0.8643  1.1747 -1.4942
  798MOL0     H 5280   0.979   9.962   7.490  0.8476  0.8464 -0.4581
  798MOL0     H 5281   0.773   9.933   7.720 -1.0527 -1.8386 -0.8608
  798MOL0     H 5282   0.739   9.935   7.553 -1.5756  1.9260  0.8076
  798MOL0     H 5283   0.814  10.139   7.498  1.4372 -1.3542  0.5030
  798MOL0     H 5284   0.873  10.175   7.668 -1.6501  1.2968  2.4282
  798MOL0     H 5285   0.634  10.263   7.568  1.0622 -0.6208 -0.8965
  798MOL0     H 5286   0.588  10.103   7.605  2.3849 -1.8868 -4.7022
  798MOL0     H 5287   0.723  10.284   7.821 -0.8973 -0.1403  0.8992
  798MOL0     H 5288   0.664  10.117   7.847 -0.9461  0.7495  2.8682
  798MOL0     H 5289   0.549  10.465   7.899  1.9012 -1.8276  2.0012
  798MOL0     H 5290   0.296  10.568   7.933 -2.4599  0.3952  0.1126
  798MOL0     H 5291   0.246  10.468   8.076  0.1866 -0.3668  0.0858
  798MOL0     H 5292   0.056  10.535   7.961  1.0105  0.7004 -0.5540
  798MOL0     H 5293   0.064  10.357   7.959 -2.8004 -0.4765 -2.6929
  798MOL0     H 5294   0.156  10.529   7.725 -2.2302 -0.6731 -2.3954
  798MOL0     H 5295   0.148  10.365   7.731 -2.2294 -0.8703 -0.2636
  798MOL0     H 5296  -0.083  10.564   7.790  1.4303  0.2035  1.3865
  798MOL0     H 5297  -0.090  10.384   7.767  1.4008 -0.4495 -0.2476
  798MOL0     H 5298  -0.136  10.468   7.360  0.1130  1.6460  0.1659
  798MOL0     H 5299  -0.368  10.425   7.283 -4.4083  1.7451  0.7262
  798MOL0     H 5300  -0.744  10.619   7.108  0.1454 -0.0515  0.1997
  798MOL0     H 5301  -0.989  10.600   7.040 -0.8408 -1.0139  0.5076
  798MOL0     H 5302  -1.267  10.688   7.344 -1.5832  1.1989 -2.1629
  798MOL0     H 5303  -1.303  10.517   7.360 -3.6086 -0.0638 -0.5474
  798MOL0     H 5304  -1.417  10.694   7.140 -1.0927  2.2062  0.8982
  798MOL0     H 5305  -1.495  10.676   7.284  0.4369  2.2405 -1.5647
  798MOL0     H 5306  -1.434  10.429   7.102  1.9380  3.5414 -0.9344
  798MOL0     H 5307  -1.547  10.543   7.073  0.8387 -1.1856 -1.4956
  798MOL0     H 5308  -1.555  10.391   7.353  0.5509  2.6671  1.7772
  798MOL0     H 5309  -1.677  10.495   7.280  0.4642  0.7220 -1.4428
  798MOL0     H 5310  -1.575  10.215   7.163  0.1049  0.8372  0.5669
  798MOL0     H 5311  -1.682  10.311   7.075 -0.5807  1.6586  0.7694
  798MOL0     H 5312  -1.795  10.140   7.204 -1.2305 -1.1122  1.6989
  798MOL0     H 5313  -1.841  10.300   7.267 -0.9920 -1.6121  0.8133
  798MOL0     H 5314  -1.636  10.125   7.392  0.3889 -1.2347 -1.2958
  798MOL0     H 5315  -1.691  10.280   7.449  0.6018  1.4395 -4.1776
  798MOL0     H 5316  -1.896  10.054   7.414 -1.0901  0.6672  0.6562
  798MOL0     H 5317  -1.907  10.223   7.484  1.6224  0.5654  0.2773
  798MOL0     H 5318  -1.094  10.498   7.438  0.8958  1.0407  1.6262
  798MOL0     H 5319  -0.850  10.467   7.492 -0.7191 -1.6465  0.2162
  798MOL0     H 5320  -0.513  10.494   7.675 -0.9406  0.3334 -1.4957
  798MOL0     H 5321  -0.279  10.539   7.756  2.0744 -2.0706  0.0966
  798MOL0     H 5322   1.544   9.608   7.600  1.6389 -0.8213  2.0169
  798MOL0     H 5323   1.785   9.681   7.567 -0.8798 -0.3436  0.5610
  798MOL0     H 5324   2.106  10.077   7.320 -0.2439  0.5034  1.9928
  798MOL0     H 5325   2.351  10.098   7.339  0.2106 -0.4680  0.9049
  798MOL0     H 5326   2.541   9.926   7.336  0.9780  3.3055  0.1087
  798MOL0     H 5327   2.618   9.819   7.456  1.2354 -0.0788  1.3687
  798MOL0     H 5328   2.762   9.988   7.345 -0.3306  1.5311  0.5621
  798MOL0     H 5329   2.673  10.111   7.414  1.2626 -0.4294 -0.5473
  798MOL0     H 5330   2.861   9.914   7.570  3.1796  2.8822 -1.9863
  798MOL0     H 5331   2.722   9.993   7.650 -0.7071  0.4634  0.6040
  798MOL0     H 5332   2.816  10.200   7.659 -1.3387  0.0336 -1.7493
  798MOL0     H 5333   2.953  10.105   7.655  0.9114 -0.4492 -0.8760
  798MOL0     H 5334   2.948  10.274   7.257  0.7441 -2.5246  0.2868
  798MOL0     H 5335   2.331   9.830   7.693 -1.4504 -0.3988  0.5854
  798MOL0     H 5336   2.083   9.821   7.647  0.2769 -0.4801  0.2390
  799MOL0     O 5337   6.911   6.568   3.799  0.1189  0.8467  0.0186
  799MOL0     C 5338   6.958   6.472   3.742 -0.1800 -0.5248 -0.7519
  799MOL0     O 5339   6.890   6.381   3.676 -0.7559 -0.3468  1.2436
  799MOL0     C 5340   6.768   6.416   3.627  0.5916 -0.1918 -0.6101
  799MOL0     C 5341   6.745   6.524   3.548 -0.3181 -0.3652 -0.0787
  799MOL0     C 5342   6.631   6.551   3.481  0.1549  0.1982 -0.4114
  799MOL0     C 5343   6.529   6.452   3.498 -0.7223 -0.5102  0.4194
  799MOL0     O 5344   6.422   6.471   3.413  0.4180  0.6952  0.4558
  799MOL0     C 5345   6.295   6.398   3.431  0.1699  0.5692  0.4443
  799MOL0     C 5346   6.195   6.461   3.340  0.7660  0.3585  0.4905
  799MOL0     C 5347   6.053   6.427   3.362 -0.0561  0.1575 -0.0167
  799MOL0     C 5348   6.012   6.282   3.339 -0.6945  0.2487 -0.0995
  799MOL0     C 5349   5.868   6.271   3.300 -0.7974  0.3804  0.2485
  799MOL0     C 5350   5.776   6.294   3.415  0.7563  0.0035  0.6403
  799MOL0     C 5351   5.627   6.256   3.389  0.1405 -0.2360 -0.3388
  799MOL0     C 5352   5.574   6.321   3.265  0.2198 -0.1140  0.2292
  799MOL0     N 5353   5.435   6.293   3.234 -0.3580 -0.3299  0.0886
  799MOL0     C 5354   5.323   6.322   3.307  0.8424  0.2059 -0.2550
  799MOL0     C 5355   5.221   6.302   3.216 -0.0586 -0.8349  0.5861
  799MOL0     C 5356   5.073   6.321   3.249  0.3754  0.7426 -0.5064
  799MOL0     C 5357   4.978   6.272   3.132  0.1797 -0.6728  0.4221
  799MOL0     C 5358   4.858   6.191   3.187 -0.2056 -0.2109  0.8529
  799MOL0     C 5359   4.777   6.155   3.065  0.7843  0.0203 -0.2181
  799MOL0     O 5360   4.641   6.185   3.105 -0.8163 -0.1920  0.1729
  799MOL0     C 5361   4.552   6.113   3.034 -0.0401  0.2036 -0.0302
  799MOL0     C 5362   4.444   6.073   3.115 -0.3068  1.8398 -0.6134
  799MOL0     C 5363   4.330   5.998   3.060 -0.7610  0.4267  0.1734
  799MOL0     C 5364   4.333   5.965   2.921 -0.1290 -0.2924  0.4360
  799MOL0     C 5365   4.231   5.881   2.850  0.5453  0.4026 -0.6052
  799MOL0     O 5366   4.127   5.853   2.936  0.0237 -0.1739  0.0318
  799MOL0     C 5367   4.019   5.784   2.885  0.3337  0.8586  0.1809
  799MOL0     C 5368   4.010   5.654   2.910  0.9112  0.9537  0.2275
  799MOL0     C 5369   3.892   5.571   2.901 -1.0207  0.1159  0.3158
  799MOL0     C 5370   3.787   5.637   2.823 -0.0902  0.2325 -0.8160
  799MOL0     O 5371   3.670   5.568   2.814 -0.0865  0.0807  0.7697
  799MOL0     C 5372   3.584   5.581   2.922 -0.1879 -0.7608 -0.2214
  799MOL0     C 5373   3.463   5.483   2.921 -0.0948 -0.5120  0.6173
  799MOL0     C 5374   3.500   5.353   2.983 -0.8270 -0.1971 -0.4668
  799MOL0     C 5375   3.377   5.260   2.977 -0.4961 -0.1926 -0.1569
  799MOL0     C 5376   3.364   5.190   2.838 -0.5785  0.0314  0.3250
  799MOL0     C 5377   3.226   5.122   2.830 -0.8899  0.0465  0.0042
  799MOL0     C 5378   3.245   5.007   2.739 -0.8175  0.4335  0.3888
  799MOL0     C 5379   3.109   4.937   2.683 -0.9823  0.2580 -0.5356
  799MOL0    Cl 5380   3.002   4.884   2.831 -0.1821 -0.1876 -0.0619
  799MOL0     C 5381   3.797   5.771   2.784 -0.2553 -0.1744  1.0474
  799MOL0     C 5382   3.914   5.843   2.818  0.5089  0.3137 -0.3930
  799MOL0     O 5383   4.242   5.840   2.738  0.2809  0.2970 -0.5048
  799MOL0     C 5384   4.437   6.018   2.839 -0.5546 -0.6207  0.8135
  799MOL0     C 5385   4.550   6.082   2.895  0.1606 -0.2968  0.3410
  799MOL0     N 5386   5.273   6.268   3.095 -0.6201 -0.0536 -0.1208
  799MOL0     N 5387   5.403   6.255   3.111  0.1761 -0.5999  0.7242
  799MOL0     C 5388   6.541   6.343   3.592  0.3434 -0.0582  0.5897
  799MOL0     C 5389   6.668   6.316   3.650 -0.5106 -0.5307 -0.1161
  799MOL0     C 5390   7.108   6.462   3.727 -0.0236 -0.2079  0.0141
  799MOL0     C 5391   7.169   6.333   3.713 -0.0387 -0.2426  0.0803
  799MOL0     C 5392   7.309   6.324   3.731  0.3743 -0.0023 -0.8332
  799MOL0     C 5393   7.386   6.433   3.760 -0.4248 -0.3111 -0.4424
  799MOL0     O 5394   7.518   6.411   3.778  0.2232 -0.0834 -0.2164
  799MOL0     C 5395   7.612   6.506   3.712  0.5270  0.6844 -0.4826
  799MOL0     C 5396   7.762   6.462   3.709 -0.1372 -0.2389  0.1770
  799MOL0     C 5397   7.779   6.384   3.571 -0.2792  0.3179 -0.0568
  799MOL0     C 5398   7.934   6.352   3.572  0.3512  0.0201  0.3629
  799MOL0     C 5399   7.995   6.336   3.442  0.3589  0.4487 -0.0187
  799MOL0     C 5400   8.056   6.340   3.340  0.0610 -0.2386 -0.4840
  799MOL0     C 5401   7.332   6.555   3.769 -0.5266 -0.5382 -0.4145
  799MOL0     C 5402   7.195   6.568   3.754  0.1978 -0.0455 -0.1573
  799MOL0     H 5403   6.825   6.595   3.530 -0.8972 -0.4385 -3.5728
  799MOL0     H 5404   6.639   6.621   3.399  3.9525 -2.5300 -2.6903
  799MOL0     H 5405   6.264   6.408   3.535 -2.2565 -1.5074  0.0311
  799MOL0     H 5406   6.319   6.292   3.417  1.6204  1.0700 -1.3453
  799MOL0     H 5407   6.221   6.441   3.236 -1.1399  0.7585 -0.1096
  799MOL0     H 5408   6.207   6.569   3.353  0.6060  0.3976  0.3132
  799MOL0     H 5409   5.987   6.494   3.306 -1.6395 -0.7977  0.6351
  799MOL0     H 5410   6.053   6.458   3.466  3.2798  2.7109 -0.6157
  799MOL0     H 5411   6.071   6.253   3.251  0.2588 -0.8552  0.8700
  799MOL0     H 5412   6.041   6.208   3.414 -1.2418 -0.1554 -0.2756
  799MOL0     H 5413   5.860   6.169   3.260 -2.8769  1.0082 -1.1017
  799MOL0     H 5414   5.844   6.337   3.217  0.3813  3.5976  2.2963
  799MOL0     H 5415   5.788   6.400   3.436  2.1672  0.5576 -2.3678
  799MOL0     H 5416   5.802   6.230   3.499 -0.0566 -1.7380 -0.3569
  799MOL0     H 5417   5.608   6.149   3.377 -3.4437  0.3023 -0.7771
  799MOL0     H 5418   5.569   6.286   3.477 -0.2122  0.2353 -0.7194
  799MOL0     H 5419   5.639   6.282   3.186  0.7097 -1.6912  1.3566
  799MOL0     H 5420   5.589   6.429   3.271  1.2877 -0.2836  0.8157
  799MOL0     H 5421   5.307   6.354   3.410 -2.5433  2.5857 -1.3509
  799MOL0     H 5422   5.038   6.418   3.284 -1.4504 -0.9323  2.7534
  799MOL0     H 5423   5.060   6.257   3.337  0.6529  1.0266 -0.2561
  799MOL0     H 5424   5.033   6.204   3.066 -0.7861  0.8798 -2.1250
  799MOL0     H 5425   4.951   6.360   3.073  5.9622  1.7109  0.5904
  799MOL0     H 5426   4.902   6.102   3.231  1.3069  0.1856  0.2246
  799MOL0     H 5427   4.809   6.253   3.263 -0.3617  2.6604 -1.4080
  799MOL0     H 5428   4.775   6.046   3.057  2.6248 -0.0644 -0.1615
  799MOL0     H 5429   4.818   6.203   2.976  5.7116  1.4379  2.4102
  799MOL0     H 5430   4.448   6.093   3.222 -0.7786  0.9665 -0.4206
  799MOL0     H 5431   4.265   5.967   3.141  0.5870 -0.1105  1.0860
  799MOL0     H 5432   4.087   5.609   2.972 -1.8032 -5.3729 -0.1607
  799MOL0     H 5433   3.886   5.474   2.949  0.6434 -0.1796 -0.0107
  799MOL0     H 5434   3.531   5.675   2.908  0.1404 -0.0085  2.7402
  799MOL0     H 5435   3.637   5.587   3.018  1.1933  1.4187 -1.0656
  799MOL0     H 5436   3.424   5.474   2.819 -0.2274 -1.2382  0.7313
  799MOL0     H 5437   3.389   5.530   2.987 -0.1050  0.0143  0.2387
  799MOL0     H 5438   3.534   5.382   3.083  0.0672 -0.1494 -0.7778
  799MOL0     H 5439   3.583   5.305   2.931  0.6153 -0.6059  2.0565
  799MOL0     H 5440   3.395   5.175   3.042  1.8270  0.3501  0.0343
  799MOL0     H 5441   3.291   5.319   3.010  0.9259  3.5617 -2.3815
  799MOL0     H 5442   3.455   5.133   2.818 -1.7117 -1.1220 -1.8100
  799MOL0     H 5443   3.367   5.275   2.769 -1.3666  0.2915  0.6045
  799MOL0     H 5444   3.155   5.200   2.801 -1.7618 -1.0722 -1.0208
  799MOL0     H 5445   3.184   5.091   2.926  1.6336 -0.7701  0.9279
  799MOL0     H 5446   3.307   5.035   2.653 -2.2338  1.8509 -0.2147
  799MOL0     H 5447   3.290   4.923   2.793  1.0188 -0.4950 -2.3592
  799MOL0     H 5448   3.135   4.856   2.614 -0.6736  0.3707 -0.5497
  799MOL0     H 5449   3.045   5.003   2.623 -0.8431  0.8122 -0.0779
  799MOL0     H 5450   3.716   5.821   2.733  2.5622  0.8782 -2.8473
  799MOL0     H 5451   3.931   5.949   2.801  4.0769 -0.0597  0.1486
  799MOL0     H 5452   4.429   6.000   2.732  1.6707  0.6192  0.3747
  799MOL0     H 5453   4.627   6.129   2.835 -0.9992  2.8210  1.0893
  799MOL0     H 5454   6.453   6.283   3.609  1.3948 -2.2339 -1.0397
  799MOL0     H 5455   6.687   6.233   3.717 -1.3247  0.8314  1.8917
  799MOL0     H 5456   7.103   6.251   3.689 -0.6304  0.8497 -2.3880
  799MOL0     H 5457   7.361   6.229   3.717 -0.2896 -0.7705  1.4591
  799MOL0     H 5458   7.598   6.598   3.770 -0.6256 -0.4397  1.1224
  799MOL0     H 5459   7.590   6.524   3.607  1.0795  1.0957 -0.5291
  799MOL0     H 5460   7.826   6.550   3.704 -0.7395  0.2219  0.4422
  799MOL0     H 5461   7.768   6.403   3.801  0.3136  1.1059  1.0395
  799MOL0     H 5462   7.750   6.443   3.483 -2.9230 -0.9149 -0.1355
  799MOL0     H 5463   7.730   6.286   3.565  0.3476  0.0032 -0.1228
  799MOL0     H 5464   7.992   6.428   3.626  0.4243 -0.2682  0.6894
  799MOL0     H 5465   7.950   6.262   3.632  0.4559 -0.5364 -0.4855
  799MOL0     H 5466   8.126   6.343   3.259  0.4733 -4.5995 -0.5243
  799MOL0     H 5467   7.381   6.646   3.803 -1.2639 -0.0308 -0.6990
  799MOL0     H 5468   7.156   6.665   3.782  1.9852  0.5234  0.5393
  800MOL0     O 5469   8.233   0.501   5.155 -0.4068  0.2718  0.1838
  800MOL0     C 5470   8.154   0.503   5.246  1.1331  1.1932  0.1564
  800MOL0     O 5471   8.015   0.484   5.240  0.1022 -0.0165  0.1773
  800MOL0     C 5472   7.950   0.462   5.122 -0.2821 -1.0911 -0.0109
  800MOL0     C 5473   7.997   0.423   4.994 -1.0427 -0.7384  0.3655
  800MOL0     C 5474   7.911   0.393   4.880  0.7569  0.3650 -0.3332
  800MOL0     C 5475   7.780   0.417   4.898  0.4022  0.8101 -0.2789
  800MOL0     O 5476   7.698   0.384   4.794  0.3377  0.0218 -0.5525
  800MOL0     C 5477   7.739   0.426   4.667  0.1200  0.4516 -0.5246
  800MOL0     C 5478   7.624   0.407   4.572  0.4251  0.4410  0.2169
  800MOL0     C 5479   7.617   0.265   4.507 -0.5606 -0.4009 -0.2208
  800MOL0     C 5480   7.485   0.237   4.428 -0.9117 -0.1278 -0.0401
  800MOL0     C 5481   7.474   0.098   4.386 -1.2817  0.0294  0.1382
  800MOL0     C 5482   7.338   0.058   4.336 -0.3259 -0.1620 -0.8728
  800MOL0     C 5483   7.335  -0.093   4.288 -0.4319 -0.6549  0.5207
  800MOL0     C 5484   7.380  -0.108   4.139 -0.1363 -0.5492 -0.0576
  800MOL0     N 5485   7.278  -0.062   4.037  0.1715 -0.2373  0.8206
  800MOL0     C 5486   7.183  -0.147   3.975  0.1924  0.4525 -0.2990
  800MOL0     C 5487   7.096  -0.085   3.900  0.1732  0.3805 -0.0390
  800MOL0     C 5488   6.979  -0.141   3.833  0.7797 -0.3508 -0.5040
  800MOL0     C 5489   6.934  -0.062   3.708  0.4318  0.5353 -0.2576
  800MOL0     C 5490   6.807  -0.116   3.653 -0.5516 -0.0437  0.7260
  800MOL0     C 5491   6.685  -0.071   3.716 -0.2606  0.5962 -0.1595
  800MOL0     O 5492   6.696   0.070   3.747  0.0709 -0.0823 -0.9481
  800MOL0     C 5493   6.586   0.130   3.805  0.3615 -0.7823  0.7223
  800MOL0     C 5494   6.603   0.268   3.827 -0.2158 -0.2716  0.9689
  800MOL0     C 5495   6.498   0.332   3.895 -1.0136 -0.0928  0.4013
  800MOL0     C 5496   6.375   0.263   3.933  0.4327 -0.5554  0.3757
  800MOL0     C 5497   6.264   0.318   4.030  0.8792  0.3773 -0.2174
  800MOL0     O 5498   6.183   0.236   4.088  0.1004  0.5065  0.1207
  800MOL0     C 5499   6.129   0.271   4.206  0.2759  0.5968 -1.3989
  800MOL0     C 5500   6.035   0.173   4.261 -0.4848  0.0677  0.0229
  800MOL0     C 5501   5.974   0.181   4.382 -0.2046 -0.5379  0.1432
  800MOL0     C 5502   5.985   0.292   4.467  0.7842 -0.4111 -0.1508
  800MOL0     O 5503   5.908   0.286   4.586 -0.3892  0.1917  0.1048
  800MOL0     C 5504   5.874   0.408   4.650  0.1017 -0.2639  0.4705
  800MOL0     C 5505   5.771   0.385   4.760  0.2159 -0.7728  0.1644
  800MOL0     C 5506   5.824   0.304   4.886  0.7467 -1.3278  0.9867
  800MOL0     C 5507   5.734   0.324   5.005  0.1639 -0.0852  1.1679
  800MOL0     C 5508   5.776   0.232   5.123 -0.6321  0.5284 -0.2196
  800MOL0     C 5509   5.658   0.187   5.210  0.1153 -0.5118 -0.4047
  800MOL0     C 5510   5.708   0.139   5.343 -0.0851  0.1941  0.3742
  800MOL0     C 5511   5.594   0.125   5.441  0.2193  0.3362 -0.4677
  800MOL0    Cl 5512   5.659   0.055   5.580 -0.3531 -0.2800  0.0685
  800MOL0     C 5513   6.069   0.395   4.423 -0.6431  0.2500  0.3795
  800MOL0     C 5514   6.137   0.386   4.297 -0.5989  0.4880 -0.9661
  800MOL0     O 5515   6.247   0.441   4.022  0.4280 -0.6612  0.0523
  800MOL0     C 5516   6.363   0.126   3.905 -0.4984 -0.5494 -0.0796
  800MOL0     C 5517   6.477   0.063   3.846 -0.7677 -0.1335  0.1991
  800MOL0     N 5518   7.128   0.050   3.931 -0.1235  0.6894  0.2736
  800MOL0     N 5519   7.240   0.061   3.998  0.7369 -0.1339 -0.1575
  800MOL0     C 5520   7.723   0.462   5.015 -0.4001  0.7259  1.1081
  800MOL0     C 5521   7.809   0.473   5.125 -0.2985 -0.9398 -0.1797
  800MOL0     C 5522   8.210   0.511   5.389  0.5232  0.1684 -0.1795
  800MOL0     C 5523   8.349   0.507   5.418  0.2416 -0.0377 -0.2404
  800MOL0     C 5524   8.386   0.506   5.553 -0.5503  0.2888 -0.3982
  800MOL0     C 5525   8.301   0.532   5.648  0.1966  0.1127  0.0383
  800MOL0     O 5526   8.359   0.540   5.775  0.8056  0.2761  0.2506
  800MOL0     C 5527   8.279   0.592   5.882 -0.4305  0.5953 -0.0090
  800MOL0     C 5528   8.237   0.745   5.875  0.0192 -0.2329 -0.3194
  800MOL0     C 5529   8.356   0.837   5.867  0.3894  0.4906  0.7822
  800MOL0     C 5530   8.432   0.846   6.003  0.5610  0.0977 -0.5931
  800MOL0     C 5531   8.521   0.959   6.003  0.4853 -0.0101  0.1599
  800MOL0     C 5532   8.594   1.055   5.984 -0.0211 -1.1069 -0.6728
  800MOL0     C 5533   8.167   0.545   5.616  0.0456 -0.2170 -0.4820
  800MOL0     C 5534   8.118   0.528   5.490  0.1589 -0.1358 -0.0665
  800MOL0     H 5535   8.097   0.380   4.983 -0.9450 -1.4752  3.2558
  800MOL0     H 5536   7.956   0.344   4.794 -0.3901 -0.9834 -0.2126
  800MOL0     H 5537   7.820   0.361   4.633 -1.4543 -2.6350  1.2479
  800MOL0     H 5538   7.765   0.532   4.669  1.6039  0.0941  0.5829
  800MOL0     H 5539   7.622   0.488   4.499  0.8669  1.9851  1.8545
  800MOL0     H 5540   7.532   0.428   4.628 -0.0777  0.6965 -0.6762
  800MOL0     H 5541   7.635   0.194   4.589  1.9880 -1.6640 -1.7328
  800MOL0     H 5542   7.697   0.249   4.434 -1.7740 -3.5816 -1.0232
  800MOL0     H 5543   7.400   0.264   4.493 -1.7773 -1.4835 -0.5612
  800MOL0     H 5544   7.490   0.307   4.344  0.0386 -0.3726 -0.1909
  800MOL0     H 5545   7.499   0.031   4.469  1.7796  2.1650  1.1309
  800MOL0     H 5546   7.539   0.083   4.299 -2.2894 -0.0843 -0.6026
  800MOL0     H 5547   7.295   0.126   4.262 -1.7461  0.7783  0.7523
  800MOL0     H 5548   7.266   0.060   4.418  0.7592  1.1656  0.0854
  800MOL0     H 5549   7.404  -0.159   4.341  1.1707  0.3320 -0.2426
  800MOL0     H 5550   7.230  -0.122   4.303  0.0362 -2.4909  0.5132
  800MOL0     H 5551   7.414  -0.212   4.130 -0.8990 -0.6431 -2.5933
  800MOL0     H 5552   7.460  -0.034   4.125 -1.4817  0.9444 -0.1687
  800MOL0     H 5553   7.190  -0.255   3.978 -1.2168  0.3343  2.6589
  800MOL0     H 5554   6.892  -0.152   3.897 -0.6611 -3.1734 -2.6849
  800MOL0     H 5555   7.002  -0.245   3.804  0.3615 -0.9238  1.1346
  800MOL0     H 5556   7.016  -0.075   3.637  1.8884  0.0473  1.4299
  800MOL0     H 5557   6.921   0.043   3.736  1.2963  0.9182 -1.2282
  800MOL0     H 5558   6.790  -0.068   3.557 -0.5237  0.1966  0.8392
  800MOL0     H 5559   6.802  -0.224   3.639 -1.4524  0.2627 -1.7295
  800MOL0     H 5560   6.669  -0.137   3.802 -0.0471 -0.4918 -0.9342
  800MOL0     H 5561   6.602  -0.084   3.647 -0.7766  0.5163  0.4707
  800MOL0     H 5562   6.695   0.319   3.800 -0.5351  0.7386  1.7426
  800MOL0     H 5563   6.503   0.432   3.935  1.7838  0.1564 -0.3903
  800MOL0     H 5564   6.008   0.087   4.200 -1.1538  0.2509  0.0457
  800MOL0     H 5565   5.921   0.093   4.417  1.9380 -1.9436  0.0142
  800MOL0     H 5566   5.827   0.467   4.571 -0.3158 -0.4005  0.6156
  800MOL0     H 5567   5.964   0.460   4.683 -0.2832 -0.1347  1.3375
  800MOL0     H 5568   5.678   0.334   4.733 -0.7591  0.8683  0.2459
  800MOL0     H 5569   5.730   0.482   4.791 -0.3748 -0.1702 -2.2771
  800MOL0     H 5570   5.927   0.332   4.909  0.8306  0.6923 -1.3551
  800MOL0     H 5571   5.827   0.199   4.856  2.7771 -1.2132  0.6415
  800MOL0     H 5572   5.739   0.426   5.046  0.1486  0.2525  0.3492
  800MOL0     H 5573   5.628   0.315   4.977  0.3851  2.0263 -0.7027
  800MOL0     H 5574   5.855   0.277   5.184 -0.2894 -1.6360  1.0706
  800MOL0     H 5575   5.827   0.144   5.083 -1.8153  0.2011 -1.0481
  800MOL0     H 5576   5.599   0.107   5.165 -1.5463 -1.3150  2.8863
  800MOL0     H 5577   5.591   0.272   5.227  0.4206 -0.1221 -1.0865
  800MOL0     H 5578   5.744   0.036   5.331 -1.7134 -0.1574 -2.7436
  800MOL0     H 5579   5.786   0.207   5.377  1.1988  0.6916 -3.1361
  800MOL0     H 5580   5.521   0.058   5.394  0.3264 -1.0702  1.2389
  800MOL0     H 5581   5.544   0.221   5.456  0.9996  0.9044 -1.4225
  800MOL0     H 5582   6.082   0.484   4.483  1.0726  0.1815  0.1538
  800MOL0     H 5583   6.206   0.469   4.279  0.0707  1.2249  3.6587
  800MOL0     H 5584   6.275   0.066   3.927 -0.6963 -0.1757  0.1418
  800MOL0     H 5585   6.475  -0.045   3.831  2.6606 -0.1515 -1.0372
  800MOL0     H 5586   7.616   0.478   5.023 -1.0185 -2.2982  0.2580
  800MOL0     H 5587   7.746   0.497   5.210 -2.0794  3.0527 -2.3396
  800MOL0     H 5588   8.431   0.514   5.347  0.9913 -2.9710  0.2156
  800MOL0     H 5589   8.493   0.507   5.565 -0.5364 -0.9525 -0.2998
  800MOL0     H 5590   8.341   0.576   5.971  1.5645 -0.2297 -1.4707
  800MOL0     H 5591   8.188   0.532   5.891  1.4873 -3.4647 -4.0243
  800MOL0     H 5592   8.174   0.761   5.786 -0.8394 -1.2755  0.0795
  800MOL0     H 5593   8.170   0.763   5.960 -0.1224 -0.6873 -0.3318
  800MOL0     H 5594   8.323   0.938   5.841  0.8071  1.0523  2.3322
  800MOL0     H 5595   8.416   0.799   5.783 -1.9643 -0.3701 -0.6154
  800MOL0     H 5596   8.358   0.846   6.083 -0.5451 -1.1910 -1.5660
  800MOL0     H 5597   8.494   0.756   6.012  0.9916  0.0122 -3.3769
  800MOL0     H 5598   8.661   1.137   5.964 -0.4538  0.1426  2.4157
  800MOL0     H 5599   8.096   0.555   5.697  1.0575  2.7018  0.1733
  800MOL0     H 5600   8.012   0.533   5.468  0.4984  0.7256 -1.6741
  801MOL0     O 5601   8.714   9.253   4.946 -0.0465  0.8447  0.5641
  801MOL0     C 5602   8.647   9.257   5.047 -0.3452 -0.1769 -0.3488
  801MOL0     O 5603   8.692   9.238   5.179  0.2493  0.3709  0.9518
  801MOL0     C 5604   8.823   9.202   5.195 -0.0084 -1.2407 -0.0902
  801MOL0     C 5605   8.877   9.262   5.307  0.0522  0.2927  0.4712
  801MOL0     C 5606   9.009   9.237   5.344  0.6650  0.5965  0.2184
  801MOL0     C 5607   9.097   9.155   5.268 -0.1032  0.1395  0.5623
  801MOL0     O 5608   9.236   9.168   5.272 -0.6010  0.3170  1.0312
  801MOL0     C 5609   9.301   9.088   5.365 -0.1269 -0.3399 -0.5679
  801MOL0     C 5610   9.429   9.045   5.306  0.1880 -0.3634 -0.1829
  801MOL0     C 5611   9.538   8.977   5.384 -0.5915  0.3031 -0.3652
  801MOL0     C 5612   9.577   9.047   5.509  0.0094 -0.7294  0.5834
  801MOL0     C 5613   9.622   9.187   5.508  0.0259 -1.5903 -0.5125
  801MOL0     C 5614   9.746   9.209   5.432  0.4434  0.9770 -0.7074
  801MOL0     C 5615   9.844   9.323   5.475  0.7675  0.2253 -0.0852
  801MOL0     C 5616   9.962   9.281   5.550  0.5003  0.6020  0.4103
  801MOL0     N 5617   9.928   9.237   5.688 -0.6465  0.2407  0.7444
  801MOL0     C 5618   9.947   9.316   5.793 -0.4851 -0.2302 -0.2349
  801MOL0     C 5619   9.937   9.236   5.902  0.9640  0.0590 -0.0884
  801MOL0     C 5620   9.946   9.247   6.057 -0.2282  0.0036 -0.0338
  801MOL0     C 5621   9.837   9.334   6.107  0.0100  0.1744  0.2652
  801MOL0     C 5622   9.873   9.402   6.238 -0.0208 -0.4952  0.4203
  801MOL0     C 5623   9.807   9.350   6.362  0.1351 -0.2061  0.1765
  801MOL0     O 5624   9.851   9.216   6.392 -0.2249  0.5372 -0.1208
  801MOL0     C 5625   9.802   9.147   6.499  0.7355  0.4775  0.3848
  801MOL0     C 5626   9.863   9.024   6.513 -0.1602  0.0016  0.7489
  801MOL0     C 5627   9.840   8.945   6.629  0.3344 -0.3536 -0.2707
  801MOL0     C 5628   9.746   8.988   6.732 -0.3397  1.4719 -0.2025
  801MOL0     C 5629   9.715   8.896   6.847  0.2375  0.7164  0.5277
  801MOL0     O 5630   9.633   8.943   6.945  0.4048  0.0588  0.3422
  801MOL0     C 5631   9.628   8.875   7.059  0.4680  0.5490 -0.1882
  801MOL0     C 5632   9.517   8.795   7.097  1.0551 -0.3627 -0.8578
  801MOL0     C 5633   9.508   8.728   7.215 -1.2013  0.5549 -0.0722
  801MOL0     C 5634   9.619   8.729   7.304 -0.2362  1.0677  0.7301
  801MOL0     O 5635   9.630   8.635   7.405 -0.1513  0.7969 -0.1128
  801MOL0     C 5636   9.577   8.500   7.383  0.8670  0.0522 -0.3746
  801MOL0     C 5637   9.643   8.391   7.469 -0.2127  0.0727 -0.7221
  801MOL0     C 5638   9.545   8.289   7.526  0.5861 -0.0442 -0.5195
  801MOL0     C 5639   9.605   8.157   7.568 -0.0218 -0.3955 -0.0872
  801MOL0     C 5640   9.670   8.172   7.705 -0.1299 -0.0622  0.2349
  801MOL0     C 5641   9.554   8.179   7.807  0.7585  0.5934  0.0938
  801MOL0     C 5642   9.612   8.217   7.940  0.0576  0.8809  0.6512
  801MOL0     C 5643   9.528   8.177   8.049  0.5102 -0.2604 -0.0670
  801MOL0    Cl 5644   9.380   8.269   8.054 -0.6861  0.0828  0.3548
  801MOL0     C 5645   9.731   8.808   7.266 -0.0399  0.8443  0.1812
  801MOL0     C 5646   9.733   8.879   7.150  0.0170  0.3261  1.6655
  801MOL0     O 5647   9.777   8.790   6.858  0.5153  0.6965 -0.5514
  801MOL0     C 5648   9.688   9.111   6.718  0.3586 -0.9813  0.7177
  801MOL0     C 5649   9.717   9.192   6.600 -0.4764 -0.1592  0.6727
  801MOL0     N 5650   9.911   9.110   5.854 -0.5742  0.2913  0.1109
  801MOL0     N 5651   9.916   9.109   5.721 -0.5381  0.3415 -0.1225
  801MOL0     C 5652   9.031   9.085   5.162  0.4522 -0.2968  0.8714
  801MOL0     C 5653   8.893   9.109   5.120 -0.4071 -0.6602 -0.4822
  801MOL0     C 5654   8.505   9.308   5.024 -0.4104  0.9882 -0.4224
  801MOL0     C 5655   8.442   9.353   4.905 -0.0143  0.8009  0.8946
  801MOL0     C 5656   8.310   9.386   4.894 -1.0171 -0.0889 -1.2977
  801MOL0     C 5657   8.227   9.380   5.006 -0.7077 -0.2872 -0.0432
  801MOL0     O 5658   8.095   9.417   5.013  0.0247  0.2048 -0.6923
  801MOL0     C 5659   8.030   9.452   4.889 -0.2115  0.0559  0.4413
  801MOL0     C 5660   7.887   9.500   4.901 -0.6322 -1.2480  0.0875
  801MOL0     C 5661   7.911   9.658   4.948  0.5094  0.0564 -0.9134
  801MOL0     C 5662   7.791   9.742   4.943  0.0029 -1.4438 -0.2402
  801MOL0     C 5663   7.675   9.699   5.032  1.3274  0.4515  0.2587
  801MOL0     C 5664   7.585   9.675   5.112  0.3390 -0.5254  0.1872
  801MOL0     C 5665   8.289   9.342   5.127 -0.2797 -0.1734 -0.0501
  801MOL0     C 5666   8.431   9.320   5.136  0.3465 -0.3744 -0.5533
  801MOL0     H 5667   8.820   9.320   5.379 -0.8386  0.5890 -0.4661
  801MOL0     H 5668   9.053   9.295   5.424  1.7470  0.4436 -0.2461
  801MOL0     H 5669   9.244   8.999   5.394 -0.7375 -0.7483 -2.8785
  801MOL0     H 5670   9.325   9.158   5.447 -0.8114  1.1188 -1.5660
  801MOL0     H 5671   9.481   9.133   5.267 -0.0337  0.8818  2.1700
  801MOL0     H 5672   9.403   8.980   5.222  0.5739 -2.3191  1.1458
  801MOL0     H 5673   9.624   8.977   5.317  0.2936  3.5229  0.6195
  801MOL0     H 5674   9.499   8.878   5.411 -0.3146  0.5157  0.8637
  801MOL0     H 5675   9.493   9.055   5.579 -1.0863 -0.2784 -0.7272
  801MOL0     H 5676   9.655   8.985   5.554  2.0779  1.6752  0.5336
  801MOL0     H 5677   9.627   9.223   5.611  1.8721  1.1963 -1.4584
  801MOL0     H 5678   9.547   9.257   5.471  0.6992  1.5544  3.3634
  801MOL0     H 5679   9.723   9.204   5.325 -0.0817  0.5253 -0.5835
  801MOL0     H 5680   9.795   9.112   5.439 -0.6894  0.1202 -3.3577
  801MOL0     H 5681   9.880   9.385   5.392  0.8310  1.3430  0.7535
  801MOL0     H 5682   9.787   9.393   5.537 -0.5084  3.8723 -4.7621
  801MOL0     H 5683  10.029   9.368   5.551 -2.8565  3.4620 -1.7845
  801MOL0     H 5684  10.016   9.202   5.497 -0.0906  0.4510  0.0234
  801MOL0     H 5685   9.963   9.424   5.792  0.3766 -0.2680  2.5248
  801MOL0     H 5686  10.044   9.285   6.086 -0.7258  0.6411  0.8618
  801MOL0     H 5687   9.935   9.148   6.102 -0.5186  0.0856  0.0854
  801MOL0     H 5688   9.739   9.284   6.106  1.0497 -1.9768 -0.5144
  801MOL0     H 5689   9.836   9.420   6.039  2.0007  1.1062  1.3235
  801MOL0     H 5690   9.978   9.417   6.264 -0.6164  1.8831  1.7621
  801MOL0     H 5691   9.829   9.502   6.232 -0.9852 -0.6938  3.0598
  801MOL0     H 5692   9.699   9.340   6.352 -0.5378  3.6707  1.5812
  801MOL0     H 5693   9.816   9.414   6.451  1.0809  1.9959 -1.4133
  801MOL0     H 5694   9.940   8.990   6.444  1.0430  2.1731  0.8997
  801MOL0     H 5695   9.883   8.845   6.633  1.0682 -0.0666 -0.8054
  801MOL0     H 5696   9.436   8.794   7.024  1.0218 -0.3883 -0.8200
  801MOL0     H 5697   9.424   8.662   7.238 -0.3395  0.1220  2.0592
  801MOL0     H 5698   9.603   8.461   7.285 -0.3414 -0.5052 -0.4965
  801MOL0     H 5699   9.469   8.515   7.399  1.0170  2.3584 -1.1417
  801MOL0     H 5700   9.699   8.432   7.553  0.8385 -1.8896 -0.4126
  801MOL0     H 5701   9.716   8.336   7.410  2.0316  2.7477 -0.6574
  801MOL0     H 5702   9.480   8.267   7.441  1.0672  1.1561 -1.2142
  801MOL0     H 5703   9.480   8.332   7.602 -1.7567 -1.7255 -1.4420
  801MOL0     H 5704   9.534   8.074   7.566 -1.9123  1.1723 -2.0093
  801MOL0     H 5705   9.677   8.117   7.496 -1.4341 -0.2254 -1.6644
  801MOL0     H 5706   9.735   8.259   7.716  2.4648 -1.5245 -2.3800
  801MOL0     H 5707   9.720   8.081   7.740 -1.1012  1.0203  5.1870
  801MOL0     H 5708   9.510   8.079   7.809 -1.5367  1.5036  3.6214
  801MOL0     H 5709   9.471   8.246   7.786  0.4768 -0.8483 -4.5159
  801MOL0     H 5710   9.711   8.171   7.948  0.2171  0.1979 -3.4271
  801MOL0     H 5711   9.628   8.325   7.937  0.8742  0.8049 -3.3010
  801MOL0     H 5712   9.571   8.199   8.147 -0.3283 -1.2097  0.5345
  801MOL0     H 5713   9.501   8.071   8.038  0.7982 -0.7167  2.8847
  801MOL0     H 5714   9.814   8.807   7.335 -0.8978  0.4969  1.2451
  801MOL0     H 5715   9.814   8.949   7.131  0.7805 -1.1312 -0.8563
  801MOL0     H 5716   9.620   9.156   6.790 -1.2068 -2.1098 -0.0164
  801MOL0     H 5717   9.661   9.284   6.588  0.5457  0.0995 -3.5129
  801MOL0     H 5718   9.096   9.024   5.101 -0.9517  0.3290 -1.3672
  801MOL0     H 5719   8.841   9.068   5.034 -1.3251 -0.5393  0.0033
  801MOL0     H 5720   8.521   9.358   4.830  1.7410 -2.0772  2.3960
  801MOL0     H 5721   8.274   9.430   4.802 -0.2553 -2.8022 -3.0056
  801MOL0     H 5722   8.017   9.367   4.821 -1.7745 -0.4064  1.2587
  801MOL0     H 5723   8.089   9.523   4.830  1.2319 -2.2311 -1.0342
  801MOL0     H 5724   7.835   9.481   4.806 -1.6996 -2.6457  0.9259
  801MOL0     H 5725   7.832   9.455   4.983  0.0199 -3.0212 -0.3979
  801MOL0     H 5726   7.987   9.696   4.879  0.2846  0.2188 -1.0752
  801MOL0     H 5727   7.963   9.651   5.044  1.9707 -0.9087 -1.7308
  801MOL0     H 5728   7.820   9.845   4.963 -2.7352 -0.4858 -0.9331
  801MOL0     H 5729   7.769   9.740   4.836  1.5834  1.3854 -0.7057
  801MOL0     H 5730   7.511   9.653   5.186  0.2851 -1.9107 -0.2493
  801MOL0     H 5731   8.227   9.329   5.215  0.4082 -1.6469  0.2616
  801MOL0     H 5732   8.465   9.288   5.234  0.0841 -1.3058 -0.7533
  802MOL0     O 5733   6.290   6.352   2.820  0.0622 -0.3069  0.6324
  802MOL0     C 5734   6.280   6.414   2.922 -1.0562 -0.2933  0.4380
  802MOL0     O 5735   6.160   6.435   2.982  1.1553 -0.6432  0.3423
  802MOL0     C 5736   6.039   6.373   2.938  0.9608 -0.4296 -0.1452
  802MOL0     C 5737   6.026   6.251   2.875 -0.5058  0.5451 -1.2829
  802MOL0     C 5738   5.898   6.208   2.831  0.7435  0.7166  0.0580
  802MOL0     C 5739   5.784   6.292   2.859 -0.0923 -0.3871 -0.8529
  802MOL0     O 5740   5.667   6.243   2.819  0.2289 -0.3237 -0.6791
  802MOL0     C 5741   5.564   6.335   2.782  0.4612  0.6141  0.6041
  802MOL0     C 5742   5.586   6.387   2.638 -0.4417  0.5080 -0.3013
  802MOL0     C 5743   5.459   6.460   2.602 -0.8246  0.6724 -0.2944
  802MOL0     C 5744   5.470   6.525   2.464 -0.3315 -0.4729  0.2051
  802MOL0     C 5745   5.333   6.583   2.427  0.0623 -0.1122  0.5530
  802MOL0     C 5746   5.351   6.658   2.292 -0.1153  0.0201 -0.2664
  802MOL0     C 5747   5.427   6.792   2.305  0.6726  0.2128  0.7265
  802MOL0     C 5748   5.429   6.875   2.171  0.0495 -0.3798 -0.8433
  802MOL0     N 5749   5.514   6.826   2.059  0.2709 -0.7225  0.0525
  802MOL0     C 5750   5.648   6.812   2.062  0.0863 -0.3942  0.9377
  802MOL0     C 5751   5.683   6.771   1.938 -0.4158  0.6172 -0.1754
  802MOL0     C 5752   5.826   6.768   1.880  0.4652  0.0947  0.7454
  802MOL0     C 5753   5.880   6.632   1.893 -0.4869  0.8013  0.3598
  802MOL0     C 5754   5.999   6.601   1.810  0.3981 -1.4201 -0.3377
  802MOL0     C 5755   6.121   6.676   1.869  0.0587  0.4964 -0.8904
  802MOL0     O 5756   6.161   6.633   2.003 -0.5792  0.7812  0.5015
  802MOL0     C 5757   6.288   6.597   2.036  0.0948 -0.0861 -1.0378
  802MOL0     C 5758   6.302   6.479   2.116  0.6684  0.3744  0.1010
  802MOL0     C 5759   6.428   6.425   2.146  0.0771 -0.5400 -0.1570
  802MOL0     C 5760   6.544   6.494   2.106  0.7239  0.7731 -0.5737
  802MOL0     C 5761   6.686   6.458   2.151 -0.5299  0.3687  0.2611
  802MOL0     O 5762   6.775   6.560   2.148  0.4717 -0.9331  0.9246
  802MOL0     C 5763   6.912   6.546   2.182  0.0033 -0.0094  1.2085
  802MOL0     C 5764   6.978   6.431   2.230 -0.0097  0.3663  0.0233
  802MOL0     C 5765   7.117   6.431   2.264 -0.4217  0.0681  0.3006
  802MOL0     C 5766   7.179   6.554   2.268 -0.8641 -0.7010  0.6288
  802MOL0     O 5767   7.312   6.544   2.303  0.3841 -0.1987 -0.0560
  802MOL0     C 5768   7.395   6.664   2.284 -0.9983  0.9338 -0.2974
  802MOL0     C 5769   7.538   6.641   2.337  0.1113  0.3117 -0.6142
  802MOL0     C 5770   7.650   6.744   2.297  0.1980 -0.4630  0.1719
  802MOL0     C 5771   7.604   6.888   2.307  0.5812  0.0046  0.5794
  802MOL0     C 5772   7.723   6.987   2.293  0.7477 -0.0877 -0.0405
  802MOL0     C 5773   7.824   6.993   2.403  0.1392  0.1875 -0.7466
  802MOL0     C 5774   7.883   7.130   2.398 -1.0567 -0.0310 -0.1753
  802MOL0     C 5775   8.000   7.149   2.494  0.5372  0.2153 -0.3226
  802MOL0    Cl 5776   8.045   7.323   2.488  0.3386  0.2847 -0.0373
  802MOL0     C 5777   7.111   6.675   2.239  0.5846 -0.0721  1.1850
  802MOL0     C 5778   6.980   6.665   2.182 -0.7349 -0.9382  0.1640
  802MOL0     O 5779   6.697   6.344   2.194 -0.0051  0.1195 -0.6232
  802MOL0     C 5780   6.533   6.611   2.033 -0.1254 -0.8993  0.0766
  802MOL0     C 5781   6.407   6.667   2.004 -0.0297 -0.5996 -0.6961
  802MOL0     N 5782   5.571   6.738   1.871  0.2905 -0.2091 -0.1037
  802MOL0     N 5783   5.466   6.776   1.940 -0.0974 -0.3844  0.8742
  802MOL0     C 5784   5.799   6.416   2.922  0.7479 -0.0602 -0.7122
  802MOL0     C 5785   5.927   6.454   2.965 -0.1076 -0.1613  0.2070
  802MOL0     C 5786   6.401   6.466   2.986 -0.6484  0.4703  0.0968
  802MOL0     C 5787   6.527   6.426   2.941 -0.2113  0.0938 -0.1925
  802MOL0     C 5788   6.644   6.485   3.000  0.1368  0.1924 -1.1880
  802MOL0     C 5789   6.633   6.580   3.098 -0.3675  0.3446 -1.0428
  802MOL0     O 5790   6.755   6.636   3.142  0.1250  0.6652 -0.2938
  802MOL0     C 5791   6.764   6.775   3.148  0.8847  0.9215  0.1891
  802MOL0     C 5792   6.864   6.820   3.046  0.2181  0.4299  0.7856
  802MOL0     C 5793   6.998   6.751   3.054  0.2114 -0.0978  0.8974
  802MOL0     C 5794   7.106   6.805   2.953 -0.1191 -0.1930  0.4363
  802MOL0     C 5795   7.226   6.725   2.946 -0.5317 -0.3845 -0.1228
  802MOL0     C 5796   7.329   6.674   2.952  0.0315  0.2420  0.4081
  802MOL0     C 5797   6.505   6.628   3.138 -0.5035 -0.2124  1.1956
  802MOL0     C 5798   6.390   6.564   3.079  1.2345 -0.2647 -0.3847
  802MOL0     H 5799   6.109   6.194   2.836  0.1530  0.8238 -0.3259
  802MOL0     H 5800   5.889   6.118   2.772 -1.9744  0.1876  1.1221
  802MOL0     H 5801   5.529   6.408   2.855 -0.2242 -1.3318  2.3256
  802MOL0     H 5802   5.474   6.273   2.772  0.4465  0.0478  3.3626
  802MOL0     H 5803   5.599   6.301   2.572 -2.8434 -1.4206  1.5534
  802MOL0     H 5804   5.665   6.463   2.640 -0.3317  0.4211  2.4537
  802MOL0     H 5805   5.441   6.535   2.679  1.7256  2.8858 -1.7123
  802MOL0     H 5806   5.369   6.397   2.595 -1.5316  1.4301  1.4676
  802MOL0     H 5807   5.539   6.609   2.459 -0.6835 -0.2650 -1.9709
  802MOL0     H 5808   5.495   6.457   2.382 -0.5369  2.6532 -2.6441
  802MOL0     H 5809   5.294   6.653   2.500  0.2870  1.6147 -0.9084
  802MOL0     H 5810   5.262   6.502   2.410 -1.1400  1.0288 -0.0541
  802MOL0     H 5811   5.250   6.685   2.260  0.4252  1.1813 -1.0572
  802MOL0     H 5812   5.401   6.586   2.227  1.6000  1.2364 -0.3624
  802MOL0     H 5813   5.366   6.836   2.385  0.5086 -1.8486  1.8015
  802MOL0     H 5814   5.521   6.793   2.360  0.3774 -2.0917  1.3578
  802MOL0     H 5815   5.450   6.976   2.208  0.3395  0.3046 -2.7537
  802MOL0     H 5816   5.326   6.877   2.134 -1.1147 -0.8639  2.1345
  802MOL0     H 5817   5.714   6.837   2.145 -0.1022  2.3362  0.3668
  802MOL0     H 5818   5.898   6.844   1.912  2.4017 -0.6918 -1.4318
  802MOL0     H 5819   5.805   6.766   1.773 -2.1674  0.1262  1.1882
  802MOL0     H 5820   5.804   6.559   1.866  0.0091  0.9407 -1.5436
  802MOL0     H 5821   5.905   6.610   1.997 -0.9829 -0.4870  0.2213
  802MOL0     H 5822   6.019   6.494   1.800 -2.3766 -2.0025 -0.6801
  802MOL0     H 5823   5.982   6.643   1.711  1.2955 -1.5698 -0.5597
  802MOL0     H 5824   6.111   6.785   1.867 -4.4859  0.2745 -1.1978
  802MOL0     H 5825   6.204   6.654   1.802 -1.2195 -3.2924 -1.4330
  802MOL0     H 5826   6.205   6.433   2.133  0.1041  1.2469 -0.6751
  802MOL0     H 5827   6.435   6.328   2.193 -2.5589 -0.6463  0.1489
  802MOL0     H 5828   6.923   6.341   2.255  1.0241  0.1028  1.4961
  802MOL0     H 5829   7.164   6.345   2.310  1.2053  1.7015  1.8407
  802MOL0     H 5830   7.357   6.751   2.337 -1.7997  0.7896 -0.6228
  802MOL0     H 5831   7.403   6.677   2.175  1.9909 -2.0592 -0.6213
  802MOL0     H 5832   7.572   6.542   2.304  0.2395 -0.7157  2.3054
  802MOL0     H 5833   7.532   6.632   2.445 -1.9762  0.0022 -0.7180
  802MOL0     H 5834   7.688   6.723   2.196 -0.5350 -0.0137 -0.2098
  802MOL0     H 5835   7.735   6.739   2.365  2.1413  1.7718 -1.8899
  802MOL0     H 5836   7.536   6.913   2.225 -1.2611  0.5362  2.1986
  802MOL0     H 5837   7.554   6.896   2.403 -0.8461 -1.9493  0.0567
  802MOL0     H 5838   7.666   7.080   2.284 -0.4769 -0.8433 -0.5013
  802MOL0     H 5839   7.773   6.979   2.196  0.9657  2.0030 -0.1515
  802MOL0     H 5840   7.897   6.912   2.392  0.3467 -0.2744  2.8681
  802MOL0     H 5841   7.772   6.983   2.499  0.2443  0.5001 -0.6581
  802MOL0     H 5842   7.924   7.153   2.299  0.2999  1.8064  0.7547
  802MOL0     H 5843   7.813   7.211   2.421  1.9315  1.5894  4.5465
  802MOL0     H 5844   8.076   7.074   2.469 -2.2101 -2.7569 -0.3369
  802MOL0     H 5845   7.963   7.128   2.595 -2.8489  2.0361 -1.0220
  802MOL0     H 5846   7.158   6.768   2.271  1.5387  1.1174 -3.0221
  802MOL0     H 5847   6.920   6.755   2.177 -1.2081 -1.3302 -2.6065
  802MOL0     H 5848   6.619   6.666   1.997 -0.3516 -1.4898 -1.4516
  802MOL0     H 5849   6.385   6.761   1.954 -0.2153 -0.4510 -0.3362
  802MOL0     H 5850   5.719   6.486   2.943  0.9903  0.1058 -0.3477
  802MOL0     H 5851   5.936   6.557   3.000 -0.9092  0.5138 -1.4740
  802MOL0     H 5852   6.542   6.362   2.854  0.1460 -1.1955  0.7765
  802MOL0     H 5853   6.741   6.454   2.963 -0.5245  0.5192 -3.2921
  802MOL0     H 5854   6.797   6.807   3.247 -2.3391  1.3931  1.2457
  802MOL0     H 5855   6.664   6.819   3.135  0.6060  2.3174  5.1931
  802MOL0     H 5856   6.823   6.789   2.950  1.6323  0.9733 -0.0215
  802MOL0     H 5857   6.885   6.927   3.048 -0.2164  0.6406 -2.3321
  802MOL0     H 5858   6.972   6.651   3.017 -1.5134  1.1365 -1.4838
  802MOL0     H 5859   7.046   6.736   3.152 -1.2492 -3.3618  1.2650
  802MOL0     H 5860   7.063   6.800   2.852  2.6793  0.5019 -0.8953
  802MOL0     H 5861   7.136   6.908   2.973  2.9355 -0.4124 -2.1352
  802MOL0     H 5862   7.433   6.646   2.954 -0.5777 -2.6187 -1.5827
  802MOL0     H 5863   6.498   6.704   3.215 -1.1602  3.1851 -1.9396
  802MOL0     H 5864   6.295   6.602   3.116 -0.3002 -1.6828 -2.6272
  803MOL0     O 5865   4.258   0.034   9.702  0.7251 -0.1137 -0.6389
  803MOL0     C 5866   4.246   0.158   9.682  0.0539  0.1505 -0.3924
  803MOL0     O 5867   4.345   0.254   9.688 -0.3512  0.1145  0.6573
  803MOL0     C 5868   4.470   0.198   9.702 -0.3056  0.6464  0.1552
  803MOL0     C 5869   4.522   0.170   9.831  0.0368 -0.0426 -0.1424
  803MOL0     C 5870   4.653   0.123   9.846  0.0273 -0.1468  0.1213
  803MOL0     C 5871   4.730   0.092   9.729  0.9607 -0.1581  0.3721
  803MOL0     O 5872   4.863   0.051   9.722 -0.0851  0.2234  0.0154
  803MOL0     C 5873   4.918  -0.022   9.837  0.1637  0.2341 -0.4431
  803MOL0     C 5874   5.055  -0.073   9.803 -0.0663 -0.5014  0.7497
  803MOL0     C 5875   5.140   0.056   9.759  0.0935  1.1656  0.3403
  803MOL0     C 5876   5.285   0.016   9.792 -0.0838 -0.2218  0.0933
  803MOL0     C 5877   5.325  -0.095   9.698 -0.5563  0.5158 -0.0860
  803MOL0     C 5878   5.458  -0.158   9.744  0.8114 -0.3019  0.7232
  803MOL0     C 5879   5.482  -0.300   9.692 -1.8132 -0.5224  0.0313
  803MOL0     C 5880   5.466  -0.307   9.538  0.2045 -0.4016 -0.9932
  803MOL0     N 5881   5.458  -0.449   9.506  0.2246 -0.7975 -0.3180
  803MOL0     C 5882   5.344  -0.527   9.492  0.7493 -0.3091 -0.1531
  803MOL0     C 5883   5.383  -0.651   9.458  0.1214  0.1040  0.6385
  803MOL0     C 5884   5.299  -0.777   9.445  0.2802  0.9089 -0.6854
  803MOL0     C 5885   5.225  -0.790   9.311 -0.1196 -0.4317  0.2162
  803MOL0     C 5886   5.328  -0.791   9.195 -0.4801  0.1589 -0.4340
  803MOL0     C 5887   5.251  -0.763   9.071 -0.4517  0.0831  0.1963
  803MOL0     O 5888   5.186  -0.884   9.020 -0.5803  0.5186 -0.6612
  803MOL0     C 5889   5.051  -0.897   9.045 -0.5540  0.7710 -0.6521
  803MOL0     C 5890   4.955  -0.796   9.043 -1.0026 -0.0099 -0.4923
  803MOL0     C 5891   4.824  -0.811   9.094 -0.8024 -1.0382  0.1930
  803MOL0     C 5892   4.788  -0.933   9.150 -0.5893  0.5133 -0.4758
  803MOL0     C 5893   4.660  -0.953   9.207  0.8631  0.4971 -0.7311
  803MOL0     O 5894   4.578  -0.847   9.216 -0.3646  0.8873 -1.0654
  803MOL0     C 5895   4.462  -0.838   9.284 -0.5804  0.0418  0.1926
  803MOL0     C 5896   4.432  -0.909   9.399  0.0757  0.0570 -0.3502
  803MOL0     C 5897   4.304  -0.898   9.463 -0.4077  0.2063 -0.7386
  803MOL0     C 5898   4.218  -0.810   9.402 -0.2052 -0.6033 -0.3053
  803MOL0     O 5899   4.087  -0.791   9.447  0.2648 -0.4320 -0.1319
  803MOL0     C 5900   4.046  -0.848   9.576  0.1385  0.4014  0.1524
  803MOL0     C 5901   3.896  -0.875   9.570 -0.1223 -0.5305  0.8592
  803MOL0     C 5902   3.821  -0.741   9.577 -0.8032 -1.1502 -0.2077
  803MOL0     C 5903   3.667  -0.764   9.573 -0.1093 -0.5572  0.8820
  803MOL0     C 5904   3.576  -0.651   9.539  0.8768  0.0948  0.0870
  803MOL0     C 5905   3.426  -0.676   9.585  0.2031  0.4077  0.2022
  803MOL0     C 5906   3.338  -0.561   9.546 -0.3079  0.8333  0.5742
  803MOL0     C 5907   3.191  -0.580   9.595  0.0677 -0.9440  0.0548
  803MOL0    Cl 5908   3.111  -0.704   9.503 -0.1098  0.3848  0.2258
  803MOL0     C 5909   4.248  -0.747   9.284  0.1200 -0.1067 -0.4360
  803MOL0     C 5910   4.373  -0.760   9.226  0.0734  0.2544 -0.4077
  803MOL0     O 5911   4.628  -1.065   9.246  0.3320  0.3052 -0.2601
  803MOL0     C 5912   4.882  -1.038   9.152  0.4237 -0.0808 -0.9149
  803MOL0     C 5913   5.009  -1.019   9.102  0.2137 -0.6901 -0.6912
  803MOL0     N 5914   5.518  -0.646   9.442 -0.5284  0.0873  0.0695
  803MOL0     N 5915   5.567  -0.537   9.486  0.6344 -0.8243 -0.2210
  803MOL0     C 5916   4.682   0.129   9.603  0.6055  0.5894 -0.5780
  803MOL0     C 5917   4.551   0.194   9.593 -0.4608  0.2790 -0.6506
  803MOL0     C 5918   4.104   0.204   9.664  0.2108 -0.4448  0.0651
  803MOL0     C 5919   4.008   0.145   9.578  0.0886  1.2613  0.3995
  803MOL0     C 5920   3.889   0.209   9.564 -0.6641 -0.3263  0.2981
  803MOL0     C 5921   3.860   0.330   9.629 -0.3248  0.3831  0.2864
  803MOL0     O 5922   3.730   0.379   9.599 -0.5195 -0.3909 -0.0239
  803MOL0     C 5923   3.677   0.479   9.691  0.4604 -0.1197  0.6121
  803MOL0     C 5924   3.535   0.506   9.642 -0.1521  0.4743 -0.1026
  803MOL0     C 5925   3.466   0.626   9.698  0.4306  0.4569  0.3922
  803MOL0     C 5926   3.322   0.629   9.651 -0.2545  0.2281 -0.0805
  803MOL0     C 5927   3.249   0.534   9.734  0.3125 -0.9308  0.3509
  803MOL0     C 5928   3.195   0.454   9.804 -0.0020 -0.5834  0.4914
  803MOL0     C 5929   3.947   0.382   9.717 -0.0001 -0.5239 -0.2031
  803MOL0     C 5930   4.069   0.324   9.729 -0.1144  0.6802 -0.6702
  803MOL0     H 5931   4.460   0.187   9.919  0.1129 -1.5439  0.2377
  803MOL0     H 5932   4.684   0.094   9.946 -3.0263 -0.9319  0.9826
  803MOL0     H 5933   4.860  -0.114   9.848 -0.9717  0.6666 -2.3698
  803MOL0     H 5934   4.920   0.044   9.924 -0.6979  0.0372 -0.2680
  803MOL0     H 5935   5.042  -0.151   9.728 -2.1668  0.7178 -0.2587
  803MOL0     H 5936   5.110  -0.109   9.890  1.4041 -0.5415 -0.1507
  803MOL0     H 5937   5.108   0.138   9.824  2.0576  2.5979 -0.4082
  803MOL0     H 5938   5.126   0.071   9.652 -0.1077 -1.6958 -0.1209
  803MOL0     H 5939   5.365   0.090   9.788  1.5722 -1.8073  1.9150
  803MOL0     H 5940   5.292  -0.006   9.899 -0.9662 -0.8208  0.0392
  803MOL0     H 5941   5.348  -0.047   9.602 -0.6728  2.3665  0.7724
  803MOL0     H 5942   5.259  -0.182   9.690  1.0746 -0.7542 -0.1583
  803MOL0     H 5943   5.452  -0.162   9.853 -0.5338 -1.1481  0.6434
  803MOL0     H 5944   5.535  -0.086   9.717 -1.0255  0.9099 -1.6561
  803MOL0     H 5945   5.575  -0.350   9.722 -1.9132 -0.6001  0.2139
  803MOL0     H 5946   5.398  -0.351   9.740 -3.1041 -0.0872 -1.6701
  803MOL0     H 5947   5.550  -0.253   9.492  0.0838  0.8826  0.2592
  803MOL0     H 5948   5.370  -0.261   9.513 -0.8263 -0.9451  1.6441
  803MOL0     H 5949   5.240  -0.500   9.508  0.8044 -0.8944  1.3213
  803MOL0     H 5950   5.221  -0.779   9.522 -0.9301 -2.2018 -1.8082
  803MOL0     H 5951   5.364  -0.864   9.459 -0.2076  0.5578 -0.5555
  803MOL0     H 5952   5.162  -0.701   9.311  2.0436  1.1834  0.4645
  803MOL0     H 5953   5.176  -0.888   9.305  1.7299 -1.5409  1.9972
  803MOL0     H 5954   5.406  -0.714   9.197 -0.4545  0.1220  1.1225
  803MOL0     H 5955   5.374  -0.890   9.192 -1.1903 -0.3969  2.8847
  803MOL0     H 5956   5.322  -0.738   8.991  0.3840  1.0074  1.1815
  803MOL0     H 5957   5.182  -0.677   9.069 -0.4339  0.1602  1.7817
  803MOL0     H 5958   4.984  -0.700   9.002  1.1032 -0.0897  0.6593
  803MOL0     H 5959   4.756  -0.727   9.081  0.9822  0.1705 -2.1394
  803MOL0     H 5960   4.513  -0.968   9.440  0.7632 -0.5566 -2.4843
  803MOL0     H 5961   4.298  -0.971   9.543  3.2623  1.8552  1.3085
  803MOL0     H 5962   4.064  -0.766   9.647  0.9673  0.8948 -0.6074
  803MOL0     H 5963   4.091  -0.943   9.606 -1.6685 -0.8295 -0.9082
  803MOL0     H 5964   3.863  -0.943   9.650  0.6481 -1.6881  0.2171
  803MOL0     H 5965   3.863  -0.924   9.478 -0.3876  1.5717 -0.2304
  803MOL0     H 5966   3.846  -0.678   9.491  0.2802 -2.3399 -0.8089
  803MOL0     H 5967   3.853  -0.689   9.668 -2.6686 -0.1075 -0.1035
  803MOL0     H 5968   3.635  -0.843   9.505 -0.4301 -0.1987  0.6137
  803MOL0     H 5969   3.626  -0.802   9.667 -0.6087 -3.1933 -0.3095
  803MOL0     H 5970   3.578  -0.643   9.430  4.9962 -1.0673 -0.1274
  803MOL0     H 5971   3.609  -0.563   9.594  2.3332 -1.1246  1.2828
  803MOL0     H 5972   3.428  -0.692   9.693 -0.2405 -2.9018 -0.1880
  803MOL0     H 5973   3.391  -0.767   9.535 -0.1787  1.1852 -0.9997
  803MOL0     H 5974   3.372  -0.466   9.588 -0.1913  1.3983 -0.7386
  803MOL0     H 5975   3.341  -0.543   9.438  0.0402  0.1258  0.4600
  803MOL0     H 5976   3.130  -0.491   9.585  1.5036 -0.1491 -2.6472
  803MOL0     H 5977   3.191  -0.605   9.701 -3.9048  3.7001  1.4771
  803MOL0     H 5978   4.183  -0.673   9.237  0.4550 -0.5313 -1.6062
  803MOL0     H 5979   4.393  -0.705   9.135  0.3662  4.3079  1.8652
  803MOL0     H 5980   4.856  -1.127   9.209 -1.8458  1.3144  0.4151
  803MOL0     H 5981   5.093  -1.088   9.107  1.7473  1.1156  0.0199
  803MOL0     H 5982   4.746   0.110   9.518 -0.1779  0.0200 -1.0514
  803MOL0     H 5983   4.519   0.230   9.496 -0.8163 -1.2569 -1.1350
  803MOL0     H 5984   4.030   0.054   9.523  0.8865  1.6852  0.0111
  803MOL0     H 5985   3.818   0.168   9.493 -0.2920  0.8845 -0.8162
  803MOL0     H 5986   3.736   0.571   9.679  0.6819 -0.2528  0.6687
  803MOL0     H 5987   3.677   0.441   9.794 -4.9766  0.2027  1.0015
  803MOL0     H 5988   3.526   0.508   9.533  0.1196  0.5538 -0.1264
  803MOL0     H 5989   3.484   0.414   9.671 -0.7766  1.6412  2.8919
  803MOL0     H 5990   3.520   0.714   9.662 -1.4359  2.6360  2.5866
  803MOL0     H 5991   3.469   0.632   9.807 -1.8200 -0.1678  0.5490
  803MOL0     H 5992   3.281   0.730   9.660 -0.6999  0.1634 -1.2112
  803MOL0     H 5993   3.310   0.596   9.547 -0.0608  1.2238 -0.4327
  803MOL0     H 5994   3.148   0.389   9.876  0.2347  0.3171  1.4745
  803MOL0     H 5995   3.918   0.476   9.763  0.6539  0.9224 -2.5563
  803MOL0     H 5996   4.134   0.373   9.801  0.1842  0.9228 -1.1050
  804MOL0     O 5997   5.877   5.382   3.106 -1.1720 -0.6604  0.1769
  804MOL0     C 5998   5.899   5.351   2.984  0.3657 -0.2148  0.3558
  804MOL0     O 5999   6.014   5.384   2.908 -0.2431  0.4474  0.0561
  804MOL0     C 6000   6.131   5.442   2.955  0.5779  0.1375 -0.1085
  804MOL0     C 6001   6.139   5.532   3.054 -1.0837 -0.3689  0.2625
  804MOL0     C 6002   6.264   5.590   3.087 -0.4674  0.5769  0.3078
  804MOL0     C 6003   6.380   5.555   3.023 -0.7388  0.6342 -0.1004
  804MOL0     O 6004   6.500   5.613   3.049  0.4743  0.3630 -0.2249
  804MOL0     C 6005   6.513   5.747   3.100  0.8800 -0.1051 -0.4584
  804MOL0     C 6006   6.655   5.793   3.092 -0.9450 -0.0407 -0.5652
  804MOL0     C 6007   6.731   5.726   3.203  0.4060 -0.3325  0.7837
  804MOL0     C 6008   6.878   5.728   3.183 -0.8134  0.3145  0.3069
  804MOL0     C 6009   6.934   5.684   3.312 -0.2810  0.9003  0.5113
  804MOL0     C 6010   6.956   5.799   3.408  0.9830  0.0853 -1.0004
  804MOL0     C 6011   7.099   5.838   3.408 -0.9523 -0.0842 -0.5618
  804MOL0     C 6012   7.117   5.963   3.494 -0.4375 -0.1944 -0.2689
  804MOL0     N 6013   7.244   6.022   3.456  0.5420 -0.1729  0.8416
  804MOL0     C 6014   7.363   5.999   3.525 -0.8309  0.1386  0.0446
  804MOL0     C 6015   7.445   6.055   3.430 -0.8827  1.0973  0.1962
  804MOL0     C 6016   7.592   6.075   3.449 -0.0776 -0.1700 -0.4727
  804MOL0     C 6017   7.670   5.939   3.430  0.0601 -0.6310 -0.1697
  804MOL0     C 6018   7.822   5.974   3.412  0.2607  0.2628  0.7276
  804MOL0     C 6019   7.859   5.966   3.256 -0.5904  0.1046 -0.2632
  804MOL0     O 6020   7.870   6.095   3.183 -0.2691 -0.7526 -0.2460
  804MOL0     C 6021   7.757   6.145   3.118  0.6096  0.5690 -0.3464
  804MOL0     C 6022   7.629   6.074   3.087  0.0266 -0.1023  0.2696
  804MOL0     C 6023   7.535   6.131   2.993  0.9776  0.0366  0.4012
  804MOL0     C 6024   7.551   6.258   2.956 -0.1923 -0.0469 -0.4019
  804MOL0     C 6025   7.435   6.315   2.879  1.6520 -0.3890  0.2338
  804MOL0     O 6026   7.310   6.248   2.888 -0.2014  0.4662 -0.1755
  804MOL0     C 6027   7.217   6.290   2.806  0.4906 -0.8478  0.0379
  804MOL0     C 6028   7.130   6.401   2.836 -0.4761  0.4059 -0.0666
  804MOL0     C 6029   7.041   6.450   2.747  0.7443 -0.9124  0.1905
  804MOL0     C 6030   7.013   6.369   2.636  0.2511  0.2184 -0.1817
  804MOL0     O 6031   6.917   6.416   2.551  0.0273 -0.6154  0.8090
  804MOL0     C 6032   6.786   6.372   2.597  0.0131  0.5576 -1.0802
  804MOL0     C 6033   6.659   6.459   2.563 -0.7429  0.3357 -0.0258
  804MOL0     C 6034   6.529   6.390   2.547  1.4267  0.7243  0.0706
  804MOL0     C 6035   6.419   6.485   2.529 -0.3808 -0.3976 -0.4377
  804MOL0     C 6036   6.289   6.401   2.502 -0.2524  0.2876  0.9122
  804MOL0     C 6037   6.155   6.483   2.482 -0.1734  0.6825  0.8024
  804MOL0     C 6038   6.045   6.379   2.445  0.1252 -1.1165  0.6111
  804MOL0     C 6039   5.907   6.435   2.479  1.0516 -0.8428  0.1706
  804MOL0    Cl 6040   5.854   6.575   2.375 -0.0328  0.0405 -0.0758
  804MOL0     C 6041   7.069   6.243   2.623  0.0335 -0.0261  0.0014
  804MOL0     C 6042   7.178   6.210   2.699 -0.0618  0.7336  0.5800
  804MOL0     O 6043   7.463   6.406   2.804  0.0348 -0.6545  0.1705
  804MOL0     C 6044   7.674   6.326   2.974  0.0077 -0.3870  0.2556
  804MOL0     C 6045   7.771   6.273   3.061 -0.1881  0.7275  0.0635
  804MOL0     N 6046   7.381   6.121   3.327  0.6150 -0.1924  0.3503
  804MOL0     N 6047   7.255   6.112   3.352 -0.1410 -0.2533 -0.4444
  804MOL0     C 6048   6.372   5.457   2.926 -0.8304 -0.0187 -0.1860
  804MOL0     C 6049   6.246   5.404   2.894  0.2372 -0.1378  0.1739
  804MOL0     C 6050   5.787   5.283   2.918  0.0794 -0.1674 -0.3204
  804MOL0     C 6051   5.792   5.245   2.782 -1.0420  0.4379  0.1379
  804MOL0     C 6052   5.675   5.195   2.712  0.4511 -0.2203 -0.0477
  804MOL0     C 6053   5.558   5.163   2.779 -0.0917  0.5329  0.9133
  804MOL0     O 6054   5.453   5.111   2.707 -0.4628 -0.1544  0.5080
  804MOL0     C 6055   5.318   5.105   2.760 -0.8615  0.0283 -0.6044
  804MOL0     C 6056   5.304   4.992   2.854 -0.3252 -0.0358 -0.2599
  804MOL0     C 6057   5.258   4.874   2.774  0.5726 -0.5456  0.5940
  804MOL0     C 6058   5.269   4.746   2.860  0.5136 -0.4208 -0.6958
  804MOL0     C 6059   5.212   4.629   2.785 -0.4432 -1.0084  0.4042
  804MOL0     C 6060   5.155   4.539   2.733  0.5227 -0.5404 -0.2053
  804MOL0     C 6061   5.553   5.182   2.915 -0.1716 -1.0950 -0.3103
  804MOL0     C 6062   5.667   5.242   2.982  0.6659 -0.2001 -0.4526
  804MOL0     H 6063   6.047   5.575   3.093 -1.5311  0.1639 -1.3130
  804MOL0     H 6064   6.264   5.664   3.166  1.4708  0.8013  0.1532
  804MOL0     H 6065   6.468   5.746   3.200 -0.5901  0.6371 -1.0855
  804MOL0     H 6066   6.449   5.804   3.032 -1.0228  2.4642  3.1702
  804MOL0     H 6067   6.677   5.899   3.107  0.0429 -0.4964  1.8436
  804MOL0     H 6068   6.704   5.777   2.995  3.7974 -0.3802  1.5740
  804MOL0     H 6069   6.702   5.621   3.211 -0.4811 -0.3134 -1.5876
  804MOL0     H 6070   6.699   5.769   3.298  2.1976  0.7186  0.9650
  804MOL0     H 6071   6.915   5.649   3.117 -1.2265 -2.8927  3.5586
  804MOL0     H 6072   6.916   5.828   3.165  2.3204 -0.2701  2.7577
  804MOL0     H 6073   7.032   5.637   3.296 -0.9535 -0.0366 -1.1616
  804MOL0     H 6074   6.873   5.599   3.345  2.3325 -2.9225 -3.2615
  804MOL0     H 6075   6.929   5.762   3.507 -1.0186 -2.0818 -2.2451
  804MOL0     H 6076   6.891   5.884   3.385  2.7304  1.6472 -0.4518
  804MOL0     H 6077   7.173   5.763   3.438  0.1278  1.9842  2.3511
  804MOL0     H 6078   7.128   5.865   3.306 -2.5107  1.2936 -0.6787
  804MOL0     H 6079   7.107   5.931   3.598 -2.1259 -1.4048 -0.7498
  804MOL0     H 6080   7.038   6.037   3.477 -0.5886 -0.1539  0.5612
  804MOL0     H 6081   7.392   5.950   3.617  1.2795  1.9037  0.3730
  804MOL0     H 6082   7.601   6.115   3.550  2.2634  0.5458 -0.9098
  804MOL0     H 6083   7.623   6.148   3.373  0.5951 -0.2864 -0.3210
  804MOL0     H 6084   7.636   5.882   3.343 -2.2350  0.9331 -0.3730
  804MOL0     H 6085   7.644   5.876   3.515 -1.6143 -0.3086 -0.4211
  804MOL0     H 6086   7.842   6.072   3.456 -2.5197  1.9671 -1.5075
  804MOL0     H 6087   7.883   5.898   3.462 -0.2446 -1.7521 -1.5273
  804MOL0     H 6088   7.804   5.888   3.204 -0.0979  1.3570 -2.8808
  804MOL0     H 6089   7.961   5.930   3.241 -0.8397 -0.8668  0.3502
  804MOL0     H 6090   7.597   5.982   3.136 -2.5801 -0.0020 -1.0818
  804MOL0     H 6091   7.447   6.076   2.963  0.4532  0.9421  0.2448
  804MOL0     H 6092   7.146   6.466   2.922 -0.7070 -0.0476  0.3295
  804MOL0     H 6093   6.988   6.544   2.762  1.1389 -0.8516  1.2782
  804MOL0     H 6094   6.780   6.352   2.705  0.7555 -2.7335 -1.5449
  804MOL0     H 6095   6.768   6.283   2.537 -4.0126  0.1881  0.3040
  804MOL0     H 6096   6.682   6.526   2.479 -1.1026  0.8433  0.2662
  804MOL0     H 6097   6.640   6.532   2.643 -2.7857 -0.4167  0.2439
  804MOL0     H 6098   6.506   6.332   2.637 -1.5215 -2.5645 -2.5391
  804MOL0     H 6099   6.533   6.312   2.471  3.7772 -0.5428  1.3683
  804MOL0     H 6100   6.407   6.535   2.625 -0.5391 -0.4254 -0.4432
  804MOL0     H 6101   6.446   6.537   2.436  1.1914 -2.2909 -1.1117
  804MOL0     H 6102   6.278   6.314   2.567 -4.5967 -0.3939 -0.3935
  804MOL0     H 6103   6.301   6.352   2.405  2.8864 -0.1298  1.4248
  804MOL0     H 6104   6.169   6.566   2.412  1.7385  0.4375  0.8185
  804MOL0     H 6105   6.131   6.534   2.575  0.1395  3.6425 -0.6157
  804MOL0     H 6106   6.047   6.364   2.337  2.1081  2.9396 -0.1090
  804MOL0     H 6107   6.059   6.286   2.502  0.7399  0.0860  2.4913
  804MOL0     H 6108   5.902   6.471   2.583 -1.7035 -1.9423  0.4941
  804MOL0     H 6109   5.824   6.365   2.465  1.5555 -1.3075 -0.5508
  804MOL0     H 6110   7.040   6.163   2.555  1.2617 -2.0303  1.7137
  804MOL0     H 6111   7.236   6.119   2.688  0.2731  1.0891 -0.7539
  804MOL0     H 6112   7.687   6.426   2.932 -1.2755 -0.6814 -0.9168
  804MOL0     H 6113   7.868   6.323   3.064 -0.4786  1.4255 -1.2434
  804MOL0     H 6114   6.447   5.409   2.865 -2.8998 -4.4629  0.3784
  804MOL0     H 6115   6.226   5.328   2.819 -0.6934  0.0107  0.2561
  804MOL0     H 6116   5.881   5.278   2.728  0.8160 -1.0756  2.1200
  804MOL0     H 6117   5.674   5.174   2.606  2.0123  1.5681 -0.4726
  804MOL0     H 6118   5.257   5.087   2.671  0.5726  0.2072 -1.6556
  804MOL0     H 6119   5.289   5.199   2.808 -0.1080 -0.1878  0.2984
  804MOL0     H 6120   5.394   4.969   2.913 -0.3435 -1.7957 -0.8619
  804MOL0     H 6121   5.217   5.017   2.917  0.4214  1.0919  0.3518
  804MOL0     H 6122   5.325   4.869   2.687  0.7182 -4.3131  0.7555
  804MOL0     H 6123   5.156   4.891   2.740  0.3756 -1.2444  0.8211
  804MOL0     H 6124   5.371   4.717   2.889  0.0035 -1.8155 -0.1844
  804MOL0     H 6125   5.219   4.758   2.956  1.8778  0.0375 -0.0182
  804MOL0     H 6126   5.108   4.446   2.708  0.6676 -0.5319 -0.5146
  804MOL0     H 6127   5.468   5.161   2.979 -2.4429 -1.3334 -3.1946
  804MOL0     H 6128   5.650   5.274   3.084 -0.9007  1.2609 -1.1310
  805MOL0     O 6129   9.292   2.996   8.103  0.7855 -0.3556  0.5637
  805MOL0     C 6130   9.210   3.086   8.131  0.2584  0.5202  0.0291
  805MOL0     O 6131   9.211   3.207   8.077  0.3039  0.2359 -0.1294
  805MOL0     C 6132   9.327   3.242   8.014 -0.5488 -0.5544 -0.3469
  805MOL0     C 6133   9.329   3.275   7.876 -0.9916 -0.7168 -0.3960
  805MOL0     C 6134   9.447   3.322   7.809 -0.3693 -0.7089  1.3696
  805MOL0     C 6135   9.566   3.340   7.881 -0.9961 -0.0946 -0.5632
  805MOL0     O 6136   9.688   3.388   7.829  0.6388  0.2638 -0.0651
  805MOL0     C 6137   9.702   3.434   7.695 -0.2284  0.2867 -0.9436
  805MOL0     C 6138   9.848   3.433   7.660  0.1791  0.6121  0.5246
  805MOL0     C 6139   9.902   3.568   7.600  0.0523 -0.6250 -0.1063
  805MOL0     C 6140  10.052   3.593   7.613  0.0998  0.2260  0.1069
  805MOL0     C 6141  10.089   3.738   7.658  0.6860 -0.2279  0.3296
  805MOL0     C 6142  10.239   3.742   7.698  0.0217 -0.0353  0.2461
  805MOL0     C 6143  10.341   3.746   7.586 -0.3954  0.4710 -0.6227
  805MOL0     C 6144  10.319   3.864   7.488 -1.0239  0.1310  0.4053
  805MOL0     N 6145  10.442   3.932   7.435 -0.9282  0.6584 -0.5535
  805MOL0     C 6146  10.453   4.021   7.322  0.3911  1.2321 -0.0964
  805MOL0     C 6147  10.583   4.029   7.286 -0.9870 -0.6508  0.1548
  805MOL0     C 6148  10.652   4.120   7.184 -0.3277 -0.3052  0.1627
  805MOL0     C 6149  10.549   4.211   7.111 -0.1978 -0.3000 -0.3043
  805MOL0     C 6150  10.487   4.332   7.192  0.6674 -0.3953  1.2218
  805MOL0     C 6151  10.367   4.393   7.110 -0.4829 -0.0746 -0.3847
  805MOL0     O 6152  10.262   4.294   7.086  0.1575 -0.0825  0.3083
  805MOL0     C 6153  10.187   4.243   7.193 -0.3702 -0.7005  0.3690
  805MOL0     C 6154  10.176   4.305   7.319 -0.8823  0.3340  0.6198
  805MOL0     C 6155  10.095   4.251   7.414  0.8289  0.2814  0.0787
  805MOL0     C 6156  10.012   4.133   7.390  0.2652 -0.3663  1.0653
  805MOL0     C 6157   9.906   4.082   7.481 -0.5543 -0.3203 -0.8125
  805MOL0     O 6158   9.852   3.965   7.460 -0.7000 -0.0179 -0.4339
  805MOL0     C 6159   9.732   3.936   7.518  0.0567 -0.5895  0.3415
  805MOL0     C 6160   9.738   3.902   7.654  0.1547 -0.2306  0.7903
  805MOL0     C 6161   9.623   3.855   7.714  0.4403 -0.1965 -0.5276
  805MOL0     C 6162   9.501   3.838   7.633  0.0319 -0.2876 -0.4656
  805MOL0     O 6163   9.380   3.779   7.670 -0.0294 -0.0535 -0.2418
  805MOL0     C 6164   9.373   3.727   7.802  0.2186 -0.3165 -0.4988
  805MOL0     C 6165   9.228   3.712   7.832  0.9074  0.2348  0.4239
  805MOL0     C 6166   9.205   3.636   7.965 -0.5433  0.2774 -0.0656
  805MOL0     C 6167   9.065   3.621   8.023  0.4367  1.0119  0.0752
  805MOL0     C 6168   9.060   3.562   8.166  0.0209 -0.3380  0.1457
  805MOL0     C 6169   8.927   3.525   8.208 -0.2580  0.1016  0.4572
  805MOL0     C 6170   8.855   3.639   8.288 -0.2067  0.1703  0.8327
  805MOL0     C 6171   8.727   3.587   8.359  0.5280  0.3849 -0.0310
  805MOL0    Cl 6172   8.630   3.485   8.240 -0.7615 -0.2779  0.1780
  805MOL0     C 6173   9.507   3.874   7.497  0.2435  0.0490  0.6451
  805MOL0     C 6174   9.613   3.924   7.439 -0.1422 -0.9614 -0.9638
  805MOL0     O 6175   9.875   4.167   7.568  0.7034  0.4745  0.3680
  805MOL0     C 6176  10.027   4.074   7.258 -1.4416  0.3448 -0.6222
  805MOL0     C 6177  10.117   4.126   7.161 -0.3237  0.5605  0.5090
  805MOL0     N 6178  10.652   3.950   7.382 -0.4427  0.1858 -0.2580
  805MOL0     N 6179  10.573   3.906   7.471 -0.1605  0.1240  0.0410
  805MOL0     C 6180   9.561   3.300   8.015  0.4788  0.0373 -0.6934
  805MOL0     C 6181   9.447   3.252   8.083  0.2024 -0.4254 -0.6534
  805MOL0     C 6182   9.105   3.054   8.232 -0.7452 -0.9292 -0.8575
  805MOL0     C 6183   8.988   3.124   8.236  0.3224 -0.2949 -0.1189
  805MOL0     C 6184   8.890   3.091   8.332 -0.1920  0.2489 -0.7455
  805MOL0     C 6185   8.920   2.995   8.433  0.2513 -0.0941 -0.7073
  805MOL0     O 6186   8.833   2.959   8.540 -0.4510 -1.0408 -0.6663
  805MOL0     C 6187   8.711   2.889   8.502  0.4804 -0.0917  0.6336
  805MOL0     C 6188   8.652   2.827   8.630  1.2927  0.1418  0.1382
  805MOL0     C 6189   8.763   2.749   8.697  0.7621  0.3858 -0.1798
  805MOL0     C 6190   8.717   2.656   8.804  0.2109  0.4640 -0.6861
  805MOL0     C 6191   8.823   2.564   8.846  0.1770 -0.5394  0.1106
  805MOL0     C 6192   8.912   2.488   8.880 -0.6075 -0.1642 -0.4708
  805MOL0     C 6193   9.048   2.930   8.433 -0.4144 -0.5592  0.9177
  805MOL0     C 6194   9.130   2.952   8.323  0.9058 -0.6552 -0.5634
  805MOL0     H 6195   9.237   3.257   7.821 -0.5384 -3.6340 -0.3641
  805MOL0     H 6196   9.441   3.349   7.704  1.3085 -0.1289  1.3795
  805MOL0     H 6197   9.649   3.530   7.693 -1.7915 -0.4668  0.9070
  805MOL0     H 6198   9.651   3.364   7.629 -2.0745 -0.3728  1.0723
  805MOL0     H 6199   9.866   3.354   7.587  3.6255 -0.8217  2.6593
  805MOL0     H 6200   9.909   3.401   7.746  3.0615 -2.5128 -2.3573
  805MOL0     H 6201   9.857   3.646   7.661  2.1053  1.8147 -1.4775
  805MOL0     H 6202   9.871   3.595   7.498 -2.2790 -1.6321  0.2695
  805MOL0     H 6203  10.093   3.515   7.677 -0.7284  0.2383  0.6634
  805MOL0     H 6204  10.095   3.573   7.515 -0.6534  0.3352 -0.2557
  805MOL0     H 6205  10.022   3.752   7.744 -0.2203 -1.5340 -0.1161
  805MOL0     H 6206  10.063   3.812   7.582 -1.7670 -0.4965  0.8115
  805MOL0     H 6207  10.266   3.668   7.774  3.1671  0.7674  0.0565
  805MOL0     H 6208  10.242   3.837   7.752 -0.0257  0.1083 -0.0021
  805MOL0     H 6209  10.437   3.755   7.638 -0.6558  2.8078 -0.4327
  805MOL0     H 6210  10.340   3.651   7.532 -0.0097 -0.6685  1.2831
  805MOL0     H 6211  10.281   3.939   7.557  0.8421  2.3186 -0.8093
  805MOL0     H 6212  10.243   3.841   7.413 -0.5606 -2.9613  0.7339
  805MOL0     H 6213  10.363   4.057   7.273 -0.5881 -0.2185  0.5438
  805MOL0     H 6214  10.716   4.059   7.119  1.6459 -2.9473  4.1067
  805MOL0     H 6215  10.722   4.189   7.232 -3.1670  0.9832  2.8182
  805MOL0     H 6216  10.472   4.160   7.053  0.4840  1.5072 -3.0187
  805MOL0     H 6217  10.617   4.257   7.037 -0.1172  1.5862  0.8708
  805MOL0     H 6218  10.448   4.304   7.290 -3.1098 -1.3958 -0.4099
  805MOL0     H 6219  10.564   4.410   7.196  1.4118 -0.8686 -1.5178
  805MOL0     H 6220  10.415   4.417   7.015 -2.3556  0.5244 -1.2164
  805MOL0     H 6221  10.332   4.489   7.149 -1.2578 -0.5262  0.0547
  805MOL0     H 6222  10.219   4.401   7.344 -3.7178  1.8914 -0.0487
  805MOL0     H 6223  10.077   4.300   7.510  1.0986  0.6487 -0.0595
  805MOL0     H 6224   9.830   3.903   7.712 -0.4256  1.1558  1.7322
  805MOL0     H 6225   9.628   3.818   7.816  1.6945 -0.5419 -0.6983
  805MOL0     H 6226   9.418   3.802   7.869 -0.0832  0.6813 -1.3905
  805MOL0     H 6227   9.425   3.631   7.808  3.3937  1.3427  2.7950
  805MOL0     H 6228   9.167   3.658   7.759 -4.7830  2.4707  2.8900
  805MOL0     H 6229   9.192   3.814   7.849 -2.3488 -0.9421  1.4762
  805MOL0     H 6230   9.263   3.687   8.042  1.3271  1.3467 -2.0520
  805MOL0     H 6231   9.245   3.535   7.951  0.1614 -0.0616  3.5538
  805MOL0     H 6232   9.017   3.719   8.018  1.7314  1.6086 -1.2144
  805MOL0     H 6233   9.017   3.547   7.958 -2.4735  0.4323  2.6333
  805MOL0     H 6234   9.104   3.638   8.231  1.2560 -0.0564 -0.9754
  805MOL0     H 6235   9.136   3.484   8.155  1.4638  1.0347  0.0415
  805MOL0     H 6236   8.934   3.433   8.268  0.0486  1.3865  2.4883
  805MOL0     H 6237   8.866   3.499   8.121  1.1483 -0.4832 -0.3852
  805MOL0     H 6238   8.925   3.686   8.358 -0.0453  0.0586  0.7467
  805MOL0     H 6239   8.823   3.723   8.226 -0.8873  0.9743  2.2300
  805MOL0     H 6240   8.675   3.673   8.403  3.1730  0.8250  2.5997
  805MOL0     H 6241   8.757   3.524   8.443 -1.3107  1.6017  1.6440
  805MOL0     H 6242   9.417   3.870   7.436  0.7361  0.5472 -0.1315
  805MOL0     H 6243   9.616   3.951   7.334 -0.2989  0.4199 -0.6323
  805MOL0     H 6244   9.977   3.984   7.225  1.8106 -1.4484 -1.0381
  805MOL0     H 6245  10.125   4.083   7.062 -1.9546  0.3112  0.4489
  805MOL0     H 6246   9.657   3.304   8.067  0.1530  0.3744 -0.1019
  805MOL0     H 6247   9.448   3.241   8.191  1.6789  0.0621 -0.5983
  805MOL0     H 6248   8.971   3.215   8.178 -1.7688 -0.7111 -0.2199
  805MOL0     H 6249   8.797   3.147   8.325 -1.0272 -1.0161 -0.1877
  805MOL0     H 6250   8.730   2.822   8.418  2.0507  0.9342  0.1164
  805MOL0     H 6251   8.641   2.962   8.461 -0.0712 -0.2828  1.2252
  805MOL0     H 6252   8.619   2.910   8.692  1.3479 -0.6126  1.1941
  805MOL0     H 6253   8.571   2.759   8.602  1.6306  0.5770 -2.1289
  805MOL0     H 6254   8.835   2.820   8.738  0.7429  0.6222 -0.5513
  805MOL0     H 6255   8.806   2.687   8.619 -0.2843  2.0420 -2.1566
  805MOL0     H 6256   8.668   2.705   8.889 -1.9288  0.4875 -1.8366
  805MOL0     H 6257   8.638   2.603   8.750  0.0520 -0.4726  0.4517
  805MOL0     H 6258   8.997   2.433   8.913 -1.4710 -1.5583 -0.4795
  805MOL0     H 6259   9.088   2.860   8.506  0.7821  0.7634  1.5760
  805MOL0     H 6260   9.223   2.896   8.316  0.6092 -1.1819 -0.4149
  806MOL0     O 6261   2.451   7.582   3.014  0.0552  0.2290 -0.2720
  806MOL0     C 6262   2.415   7.704   3.031  0.1893  0.4080 -0.3315
  806MOL0     O 6263   2.290   7.749   3.056  0.8478 -0.5161 -0.0396
  806MOL0     C 6264   2.196   7.657   3.090  0.6503  0.5326 -0.9363
  806MOL0     C 6265   2.067   7.664   3.032  0.2341 -0.5220 -0.4027
  806MOL0     C 6266   1.974   7.575   3.076  1.0518 -0.9562  0.9300
  806MOL0     C 6267   1.998   7.471   3.163  0.4780  0.4543  0.3943
  806MOL0     O 6268   1.892   7.400   3.205  0.1715  0.0093  0.1582
  806MOL0     C 6269   1.878   7.353   3.337 -1.0083  0.4603  0.5362
  806MOL0     C 6270   1.745   7.284   3.351 -0.6503 -0.1526  0.0358
  806MOL0     C 6271   1.706   7.269   3.496  0.4080 -0.6269 -0.1049
  806MOL0     C 6272   1.558   7.222   3.519  0.2873  0.9587  0.5896
  806MOL0     C 6273   1.555   7.073   3.470 -0.1428 -0.8779  0.3989
  806MOL0     C 6274   1.438   6.996   3.517  0.1078 -0.9580  0.3120
  806MOL0     C 6275   1.445   6.960   3.663  0.7431 -0.0502  0.6870
  806MOL0     C 6276   1.325   7.015   3.749 -0.0872  0.1704  0.5240
  806MOL0     N 6277   1.195   6.958   3.700  0.7934 -0.4694  0.5392
  806MOL0     C 6278   1.070   6.999   3.748 -0.4334 -0.1873 -0.0502
  806MOL0     C 6279   0.983   6.913   3.692  0.7486 -0.2840  0.7099
  806MOL0     C 6280   0.831   6.925   3.688 -0.4466  0.3180  0.0472
  806MOL0     C 6281   0.762   6.937   3.824  1.0956  0.1384  0.1464
  806MOL0     C 6282   0.613   6.919   3.812  0.0134 -0.2837  0.2074
  806MOL0     C 6283   0.542   6.926   3.952 -1.4444 -0.3414 -0.0474
  806MOL0     O 6284   0.430   7.011   3.957  0.3277 -0.1554 -1.1002
  806MOL0     C 6285   0.320   6.932   3.963 -0.4103 -0.0134  0.3506
  806MOL0     C 6286   0.271   6.861   3.858 -1.2868  0.5137  0.3059
  806MOL0     C 6287   0.166   6.776   3.866  0.5992  0.1565  0.6128
  806MOL0     C 6288   0.074   6.776   3.978 -0.2514 -0.8581  0.2119
  806MOL0     C 6289  -0.057   6.696   3.982 -0.4482 -0.1539  0.7998
  806MOL0     O 6290  -0.145   6.740   4.075  0.3164  0.2167 -0.9044
  806MOL0     C 6291  -0.268   6.687   4.052  0.6776  0.0594  0.0505
  806MOL0     C 6292  -0.368   6.778   3.993  1.0415  0.9905 -0.8669
  806MOL0     C 6293  -0.492   6.739   3.965  0.6475 -0.2695  0.6308
  806MOL0     C 6294  -0.538   6.617   4.007 -0.2300 -0.1659  0.4908
  806MOL0     O 6295  -0.663   6.581   3.982  0.3537 -0.0835 -0.0431
  806MOL0     C 6296  -0.684   6.483   3.880 -0.8529  0.2000 -0.5085
  806MOL0     C 6297  -0.817   6.514   3.811  0.1649  0.0141  0.5798
  806MOL0     C 6298  -0.818   6.411   3.695  0.3857 -0.2097  0.2868
  806MOL0     C 6299  -0.955   6.416   3.617  0.2746  0.1204  0.2539
  806MOL0     C 6300  -0.966   6.522   3.504 -0.9937 -0.5271 -0.2503
  806MOL0     C 6301  -1.115   6.538   3.448 -0.0429 -0.2168  0.2999
  806MOL0     C 6302  -1.122   6.634   3.325  0.6676  0.0881  0.7869
  806MOL0     C 6303  -1.100   6.776   3.366  0.2123  0.0989  0.9648
  806MOL0    Cl 6304  -1.242   6.836   3.445 -0.3218  0.1051  0.0421
  806MOL0     C 6305  -0.452   6.533   4.068 -0.9666  0.3340 -0.8447
  806MOL0     C 6306  -0.319   6.562   4.093 -0.4245 -0.2221  0.9787
  806MOL0     O 6307  -0.065   6.593   3.909 -0.0008  0.3721 -0.1344
  806MOL0     C 6308   0.115   6.866   4.083  0.4892 -0.0317  0.8354
  806MOL0     C 6309   0.233   6.936   4.077 -0.8651 -0.2841 -0.2530
  806MOL0     N 6310   1.054   6.822   3.609 -0.2608 -0.6538 -0.0763
  806MOL0     N 6311   1.179   6.847   3.621  0.3646  0.5976  0.7351
  806MOL0     C 6312   2.128   7.457   3.222 -0.6553 -0.2759 -0.8208
  806MOL0     C 6313   2.222   7.560   3.187  0.3059  0.3978 -0.9919
  806MOL0     C 6314   2.515   7.809   2.987 -0.0482  0.6190 -1.0255
  806MOL0     C 6315   2.646   7.771   2.943  0.4766  0.1908  0.8466
  806MOL0     C 6316   2.748   7.867   2.905 -0.8375  0.7782  0.0874
  806MOL0     C 6317   2.705   7.992   2.895  0.5213 -0.7227 -1.2283
  806MOL0     O 6318   2.781   8.102   2.851 -0.0341  0.4167  0.6647
  806MOL0     C 6319   2.921   8.100   2.872 -0.2938 -0.6766 -0.8970
  806MOL0     C 6320   2.984   8.236   2.845 -0.0563  0.1553  0.2945
  806MOL0     C 6321   3.140   8.229   2.832 -0.3783  0.6616 -0.3462
  806MOL0     C 6322   3.176   8.227   2.686 -0.1784  0.3756  0.5552
  806MOL0     C 6323   3.175   8.365   2.623  0.0596  0.8280 -0.2495
  806MOL0     C 6324   3.183   8.471   2.566  0.9776  0.1257  0.4679
  806MOL0     C 6325   2.577   8.035   2.944  0.1736 -0.1636 -0.6217
  806MOL0     C 6326   2.485   7.942   2.991 -0.5360  0.1516 -0.6859
  806MOL0     H 6327   2.036   7.742   2.963 -0.5423  1.3337  1.9458
  806MOL0     H 6328   1.867   7.587   3.060  1.4272  1.0449 -0.4036
  806MOL0     H 6329   1.880   7.449   3.390 -1.4619  1.2702 -0.8616
  806MOL0     H 6330   1.960   7.287   3.368 -0.4206 -0.1986 -2.2283
  806MOL0     H 6331   1.744   7.190   3.294 -1.0626  1.4402 -2.7710
  806MOL0     H 6332   1.669   7.356   3.319 -3.6223 -1.6908  2.9539
  806MOL0     H 6333   1.703   7.370   3.538  0.2038 -0.0092 -1.5337
  806MOL0     H 6334   1.777   7.215   3.559 -0.8159 -1.0415  0.9632
  806MOL0     H 6335   1.514   7.229   3.619 -1.4993  1.1541 -0.1604
  806MOL0     H 6336   1.485   7.277   3.459 -1.0805 -0.1234  1.1772
  806MOL0     H 6337   1.651   7.026   3.495  0.5365  0.4152  0.2799
  806MOL0     H 6338   1.559   7.070   3.361 -0.1149  2.3948  0.2233
  806MOL0     H 6339   1.416   6.911   3.451  1.6416 -1.5934  0.5661
  806MOL0     H 6340   1.363   7.073   3.499  0.0320 -1.1477 -0.2167
  806MOL0     H 6341   1.459   6.852   3.662  0.2995 -0.1110 -0.1334
  806MOL0     H 6342   1.533   7.012   3.703  2.1445 -1.2954 -0.6224
  806MOL0     H 6343   1.331   7.124   3.747  2.3548  0.0811 -0.4148
  806MOL0     H 6344   1.343   6.989   3.854 -1.8171 -2.6074  0.2195
  806MOL0     H 6345   1.036   7.086   3.803 -1.7573 -0.2227 -0.7662
  806MOL0     H 6346   0.801   6.837   3.630 -0.7182  2.6666 -3.7603
  806MOL0     H 6347   0.802   7.008   3.623  2.1274  1.4507  0.2289
  806MOL0     H 6348   0.771   7.038   3.864 -2.6189  1.4853 -1.9063
  806MOL0     H 6349   0.811   6.861   3.886  1.8543 -0.5386 -1.2426
  806MOL0     H 6350   0.584   6.988   3.732  0.4486 -1.3309 -0.8848
  806MOL0     H 6351   0.584   6.819   3.777  0.7731 -0.8261  1.0726
  806MOL0     H 6352   0.613   6.966   4.025  0.1926  1.2603 -2.3785
  806MOL0     H 6353   0.521   6.822   3.976 -2.7713  0.2607  1.6128
  806MOL0     H 6354   0.342   6.872   3.777  0.2687 -1.2167  1.3297
  806MOL0     H 6355   0.154   6.701   3.788 -1.9225 -0.3142  1.3773
  806MOL0     H 6356  -0.352   6.880   3.961 -3.0816  2.4527  0.9530
  806MOL0     H 6357  -0.568   6.802   3.921 -1.3109 -0.3901  3.5707
  806MOL0     H 6358  -0.683   6.383   3.923 -3.4424 -0.8918 -2.6900
  806MOL0     H 6359  -0.609   6.496   3.801 -0.9902 -0.1784 -0.7047
  806MOL0     H 6360  -0.829   6.614   3.767  0.8398  0.2434  0.9119
  806MOL0     H 6361  -0.903   6.495   3.876  1.4748 -0.0983  2.3559
  806MOL0     H 6362  -0.806   6.307   3.728 -1.3926 -0.6090 -0.2386
  806MOL0     H 6363  -0.737   6.426   3.623  0.5034 -0.4942  0.3567
  806MOL0     H 6364  -0.980   6.321   3.567 -3.9509  1.0956  0.1602
  806MOL0     H 6365  -1.027   6.422   3.698  1.1424 -1.3094  1.1744
  806MOL0     H 6366  -0.885   6.497   3.436 -0.3661  0.3465  0.1535
  806MOL0     H 6367  -0.940   6.611   3.563 -1.0119 -1.4824  1.2580
  806MOL0     H 6368  -1.168   6.588   3.529  1.8805  1.3853  0.6712
  806MOL0     H 6369  -1.150   6.437   3.425  0.5500 -0.9129  2.2375
  806MOL0     H 6370  -1.047   6.600   3.254 -1.9453 -0.3817 -1.9466
  806MOL0     H 6371  -1.223   6.626   3.285  0.0494  1.8352  1.8694
  806MOL0     H 6372  -1.084   6.837   3.277 -0.0145 -0.7017  0.3667
  806MOL0     H 6373  -1.014   6.775   3.433 -0.1644 -3.0341  1.5290
  806MOL0     H 6374  -0.485   6.439   4.111  1.0521 -0.3565 -0.6897
  806MOL0     H 6375  -0.247   6.495   4.139  1.4621 -0.0900 -1.5343
  806MOL0     H 6376   0.055   6.891   4.169 -1.8371  1.2378 -1.0424
  806MOL0     H 6377   0.261   7.004   4.157 -1.1918  0.0553 -0.4206
  806MOL0     H 6378   2.143   7.382   3.299 -1.8130 -0.4070 -0.7096
  806MOL0     H 6379   2.315   7.569   3.242  0.2491 -2.6172 -0.2494
  806MOL0     H 6380   2.683   7.669   2.941  1.1775  0.3134  3.5797
  806MOL0     H 6381   2.843   7.822   2.880 -0.7630  1.4313 -0.8456
  806MOL0     H 6382   2.991   8.028   2.829  1.2763 -2.0247  3.4022
  806MOL0     H 6383   2.938   8.081   2.979 -1.2513  2.2241 -0.1264
  806MOL0     H 6384   2.930   8.273   2.758 -0.1019 -3.5037 -1.4134
  806MOL0     H 6385   2.959   8.296   2.933  0.7086 -0.5655  1.0235
  806MOL0     H 6386   3.177   8.135   2.873  0.5915  0.3179 -1.9484
  806MOL0     H 6387   3.189   8.309   2.888 -0.3716  0.9522 -0.7656
  806MOL0     H 6388   3.276   8.187   2.667 -0.1185  1.6482 -2.3848
  806MOL0     H 6389   3.109   8.154   2.641  0.9908  1.6053 -3.6426
  806MOL0     H 6390   3.177   8.566   2.518  4.1891  0.1440 -0.0534
  806MOL0     H 6391   2.567   8.143   2.953 -0.1945 -0.0184 -2.4827
  806MOL0     H 6392   2.393   7.983   3.031 -1.2825  1.0668 -3.1468
  807MOL0     O 6393  10.396   4.485   8.491 -0.0501 -0.3088  0.1801
  807MOL0     C 6394  10.475   4.415   8.554  0.2200  0.1605  0.3276
  807MOL0     O 6395  10.451   4.376   8.684  0.1288  0.2243  0.9488
  807MOL0     C 6396  10.326   4.384   8.743  1.0220 -0.0465  0.0500
  807MOL0     C 6397  10.310   4.474   8.843 -0.4280 -0.5229 -0.4500
  807MOL0     C 6398  10.200   4.467   8.929 -0.0471 -0.3507  0.5405
  807MOL0     C 6399  10.096   4.388   8.894 -0.2738  0.3582  0.3921
  807MOL0     O 6400   9.978   4.385   8.961 -0.4922  0.1431 -0.4664
  807MOL0     C 6401   9.884   4.482   8.911 -0.3986 -0.4601  0.5400
  807MOL0     C 6402   9.761   4.463   8.999  0.6101 -0.4093  0.1930
  807MOL0     C 6403   9.663   4.585   8.987  0.1348  0.4944 -0.1161
  807MOL0     C 6404   9.562   4.603   9.101 -0.1016 -0.9635 -0.4040
  807MOL0     C 6405   9.445   4.693   9.064  0.1428  0.1987 -0.2854
  807MOL0     C 6406   9.493   4.829   9.016  1.2001  0.4977  0.8798
  807MOL0     C 6407   9.360   4.907   8.980 -0.4522  0.1982 -0.3046
  807MOL0     C 6408   9.396   5.050   8.927  0.1988 -0.0564 -0.7830
  807MOL0     N 6409   9.286   5.142   8.897  0.1012  0.0807  0.6086
  807MOL0     C 6410   9.218   5.148   8.780 -0.1756 -0.9380 -0.4044
  807MOL0     C 6411   9.104   5.225   8.809 -0.1666 -0.6715 -0.7348
  807MOL0     C 6412   8.990   5.244   8.717  0.6420 -0.3809  0.5341
  807MOL0     C 6413   8.993   5.191   8.566  0.1841 -0.1479 -0.0024
  807MOL0     C 6414   8.881   5.245   8.487  0.1082 -0.7230  0.0598
  807MOL0     C 6415   8.916   5.227   8.341  0.9243  0.5189 -0.2275
  807MOL0     O 6416   8.794   5.264   8.262 -0.7747 -0.2276  0.0440
  807MOL0     C 6417   8.690   5.184   8.235 -1.0532 -0.3491  0.5347
  807MOL0     C 6418   8.585   5.247   8.164 -0.2266  0.4219 -0.0009
  807MOL0     C 6419   8.490   5.165   8.092  0.1754 -0.2113 -0.0460
  807MOL0     C 6420   8.493   5.021   8.110  0.1931 -0.2526 -0.3884
  807MOL0     C 6421   8.394   4.952   8.028  0.1773  0.3498 -0.2648
  807MOL0     O 6422   8.404   4.818   8.025 -0.2066 -0.6440 -0.1049
  807MOL0     C 6423   8.334   4.748   7.931  0.5478  0.2038 -0.5016
  807MOL0     C 6424   8.201   4.772   7.905 -1.0052  0.7933 -0.0542
  807MOL0     C 6425   8.130   4.705   7.805  0.6526 -1.1988 -0.5134
  807MOL0     C 6426   8.191   4.600   7.738 -0.0064  0.0991 -0.5669
  807MOL0     O 6427   8.119   4.527   7.647  0.0177 -0.3574  0.2132
  807MOL0     C 6428   8.082   4.395   7.700  1.0733  0.6907 -0.3093
  807MOL0     C 6429   7.995   4.331   7.599 -0.3932 -0.3963 -0.1271
  807MOL0     C 6430   7.854   4.386   7.608 -0.1923  0.2559  0.8289
  807MOL0     C 6431   7.771   4.316   7.506  0.9675 -0.2572  0.7725
  807MOL0     C 6432   7.625   4.357   7.524  0.1491  0.4116 -0.5087
  807MOL0     C 6433   7.539   4.343   7.397  0.0327  0.1585 -0.5110
  807MOL0     C 6434   7.403   4.427   7.411  1.1466 -0.3188 -0.0632
  807MOL0     C 6435   7.312   4.422   7.280  0.0780  0.0354 -0.1913
  807MOL0    Cl 6436   7.387   4.481   7.139 -0.4024 -0.0965 -0.2484
  807MOL0     C 6437   8.325   4.570   7.765 -0.6171  0.1287 -0.0626
  807MOL0     C 6438   8.395   4.644   7.870  0.1405  0.4195 -0.0630
  807MOL0     O 6439   8.317   5.015   7.960  0.6053  0.2321  0.1050
  807MOL0     C 6440   8.595   4.968   8.188 -0.5775 -0.2726 -1.0989
  807MOL0     C 6441   8.696   5.045   8.248 -0.3476 -0.2539 -0.0898
  807MOL0     N 6442   9.116   5.268   8.939 -0.7636  0.0855 -0.2421
  807MOL0     N 6443   9.215   5.219   8.991  0.4345  0.2694 -0.1288
  807MOL0     C 6444  10.104   4.295   8.777 -0.2360  0.1982  0.2757
  807MOL0     C 6445  10.222   4.289   8.709 -0.4913 -0.8597  0.1175
  807MOL0     C 6446  10.594   4.377   8.477  0.1162  0.4254 -0.8915
  807MOL0     C 6447  10.710   4.331   8.548  0.6050  0.6194  0.5949
  807MOL0     C 6448  10.820   4.297   8.476 -0.9079 -0.4409  0.8832
  807MOL0     C 6449  10.814   4.308   8.334  0.0943 -0.1667  0.4643
  807MOL0     O 6450  10.916   4.290   8.243 -0.5237 -0.2171  0.0994
  807MOL0     C 6451  11.043   4.255   8.287  1.0455 -0.3552  0.1449
  807MOL0     C 6452  11.133   4.243   8.165 -0.1402 -0.4497  0.1310
  807MOL0     C 6453  11.281   4.223   8.189 -0.8856  0.0650  0.5686
  807MOL0     C 6454  11.346   4.200   8.056 -0.2998  0.1461  0.4925
  807MOL0     C 6455  11.489   4.180   8.070 -0.1326 -0.6977 -0.0440
  807MOL0     C 6456  11.604   4.146   8.088 -0.4880  0.1270 -0.6591
  807MOL0     C 6457  10.708   4.370   8.263 -0.2607 -0.0583 -1.1422
  807MOL0     C 6458  10.601   4.402   8.343 -0.3837  0.2084  1.0881
  807MOL0     H 6459  10.395   4.537   8.866  0.1279 -1.9802  1.8633
  807MOL0     H 6460  10.205   4.526   9.020  2.0823  0.1623  0.1591
  807MOL0     H 6461   9.861   4.471   8.805 -1.1694  0.8801  0.5481
  807MOL0     H 6462   9.912   4.587   8.924  0.7085 -0.6349 -0.2729
  807MOL0     H 6463   9.790   4.456   9.104  3.2988 -0.4876 -0.4831
  807MOL0     H 6464   9.712   4.370   8.967  0.0580  0.0394 -0.2979
  807MOL0     H 6465   9.609   4.592   8.892  0.0441  1.9193  0.0248
  807MOL0     H 6466   9.726   4.674   8.990  0.5189  0.3430 -2.1716
  807MOL0     H 6467   9.514   4.512   9.139  0.5069 -1.3131 -0.4627
  807MOL0     H 6468   9.609   4.659   9.183 -1.7399  1.4797 -1.0094
  807MOL0     H 6469   9.383   4.706   9.153 -2.0390 -5.6752 -0.4478
  807MOL0     H 6470   9.383   4.635   8.994 -0.4320  1.6026 -0.9746
  807MOL0     H 6471   9.565   4.827   8.934 -0.4161  2.1258 -0.6651
  807MOL0     H 6472   9.542   4.875   9.102  0.4806 -3.3202  3.6200
  807MOL0     H 6473   9.301   4.845   8.911 -1.3452 -0.4130  0.9612
  807MOL0     H 6474   9.297   4.920   9.069 -0.7745  2.7229 -0.8351
  807MOL0     H 6475   9.450   5.037   8.832  2.0554  4.1383 -0.5439
  807MOL0     H 6476   9.463   5.112   8.987 -1.3252  0.7936  0.1188
  807MOL0     H 6477   9.222   5.098   8.684  1.5924 -0.3815 -0.6520
  807MOL0     H 6478   8.967   5.351   8.715 -0.9333 -0.6881 -1.9398
  807MOL0     H 6479   8.911   5.185   8.765 -0.1459  0.6079  0.4730
  807MOL0     H 6480   8.992   5.082   8.564  1.4330 -0.2706  2.4546
  807MOL0     H 6481   9.088   5.212   8.516 -0.9896 -0.7284 -2.6092
  807MOL0     H 6482   8.791   5.186   8.506 -2.5348  2.8751 -0.2588
  807MOL0     H 6483   8.850   5.349   8.504 -0.6806 -0.5741 -1.9801
  807MOL0     H 6484   8.941   5.123   8.318 -0.8099 -0.7150  2.8142
  807MOL0     H 6485   9.001   5.292   8.323  3.6151 -2.3907  0.9508
  807MOL0     H 6486   8.589   5.353   8.145 -1.3420  0.4052 -0.3704
  807MOL0     H 6487   8.418   5.203   8.020  0.0262  0.0980  0.2650
  807MOL0     H 6488   8.152   4.856   7.953 -3.2860 -0.9190  0.8198
  807MOL0     H 6489   8.031   4.745   7.790  1.3867  0.2218 -1.8149
  807MOL0     H 6490   8.019   4.397   7.790 -4.0761 -1.1690 -3.4284
  807MOL0     H 6491   8.174   4.339   7.714  1.7213  1.3747 -1.7292
  807MOL0     H 6492   7.990   4.222   7.607  0.7927 -0.5807 -1.3674
  807MOL0     H 6493   8.044   4.340   7.501  0.2020 -4.8266 -0.4361
  807MOL0     H 6494   7.864   4.494   7.595  0.5317  0.2338  1.1366
  807MOL0     H 6495   7.823   4.358   7.710 -1.5837  0.2944  0.4336
  807MOL0     H 6496   7.805   4.332   7.403  1.1169 -0.6564  0.7585
  807MOL0     H 6497   7.766   4.211   7.538 -0.0155 -0.5293 -0.1957
  807MOL0     H 6498   7.625   4.465   7.546 -1.9925  0.4313 -0.4027
  807MOL0     H 6499   7.584   4.291   7.601 -0.1511 -1.1924 -1.9867
  807MOL0     H 6500   7.514   4.238   7.384 -1.4618  0.1687  1.7081
  807MOL0     H 6501   7.601   4.388   7.318  0.5583  3.0012  1.3597
  807MOL0     H 6502   7.345   4.398   7.499 -1.5838  1.7838 -1.0452
  807MOL0     H 6503   7.424   4.532   7.432 -2.2742  0.3656  0.4467
  807MOL0     H 6504   7.219   4.477   7.295  1.2709  2.0775  0.1776
  807MOL0     H 6505   7.294   4.315   7.265 -0.7364  0.0481  0.6326
  807MOL0     H 6506   8.364   4.484   7.711 -0.7783  1.4080 -2.3187
  807MOL0     H 6507   8.494   4.605   7.893 -0.1755 -0.0841  0.4898
  807MOL0     H 6508   8.584   4.860   8.192 -2.7060 -0.0746  0.1282
  807MOL0     H 6509   8.778   5.002   8.305 -0.4413  0.8106  0.8863
  807MOL0     H 6510  10.021   4.230   8.752  0.4557  0.0615 -1.9185
  807MOL0     H 6511  10.240   4.226   8.622 -4.0757 -0.4691 -1.0423
  807MOL0     H 6512  10.708   4.313   8.655  0.0374  3.0129  1.0493
  807MOL0     H 6513  10.906   4.261   8.531  0.7242  2.3108  0.3303
  807MOL0     H 6514  11.043   4.159   8.340 -0.1381 -0.8442 -0.6965
  807MOL0     H 6515  11.082   4.320   8.367 -0.4122 -2.6839  2.9445
  807MOL0     H 6516  11.099   4.154   8.111  1.6510 -2.7395  2.4984
  807MOL0     H 6517  11.120   4.329   8.099  0.6816 -1.0749 -0.8876
  807MOL0     H 6518  11.293   4.142   8.262  3.0911 -1.2448 -1.2538
  807MOL0     H 6519  11.318   4.319   8.226 -0.9430  1.0608 -1.7794
  807MOL0     H 6520  11.300   4.105   8.026  0.7199  0.2710 -1.6897
  807MOL0     H 6521  11.321   4.273   7.978  1.0894  0.0611 -0.0707
  807MOL0     H 6522  11.705   4.121   8.112 -1.0537 -2.0507 -0.3248
  807MOL0     H 6523  10.719   4.400   8.160 -0.6003  1.3705 -0.7824
  807MOL0     H 6524  10.519   4.452   8.292  1.4840  2.8472  0.4662
  808MOL0     O 6525  10.797   7.149   7.604 -0.8818  0.0333 -0.0633
  808MOL0     C 6526  10.903   7.112   7.553  0.5461  0.6725 -0.2290
  808MOL0     O 6527  10.917   7.070   7.424  0.7150  0.1441 -0.0092
  808MOL0     C 6528  10.799   7.052   7.351 -0.2474  0.3483 -0.1477
  808MOL0     C 6529  10.720   7.162   7.320  0.0771  0.5785 -0.0477
  808MOL0     C 6530  10.618   7.155   7.222 -0.2355  0.1231 -0.7603
  808MOL0     C 6531  10.596   7.030   7.156  0.1615  0.2527 -0.1040
  808MOL0     O 6532  10.505   7.030   7.054  0.3663 -0.3736 -0.1123
  808MOL0     C 6533  10.496   6.918   6.960  0.0214  0.0632  0.4901
  808MOL0     C 6534  10.395   6.805   6.989  0.9500 -0.8730 -0.5382
  808MOL0     C 6535  10.253   6.864   7.008 -0.3482  0.4279  0.4221
  808MOL0     C 6536  10.168   6.761   7.080 -0.2292  0.3595  0.0813
  808MOL0     C 6537  10.036   6.820   7.122  0.7512 -0.1546 -0.9778
  808MOL0     C 6538   9.959   6.724   7.204 -0.0510 -0.4084  0.0687
  808MOL0     C 6539   9.812   6.763   7.215 -0.6936  0.2096  0.5600
  808MOL0     C 6540   9.728   6.670   7.299  0.8391  0.2078 -0.4858
  808MOL0     N 6541   9.586   6.709   7.327  0.3182 -0.0760  0.6969
  808MOL0     C 6542   9.544   6.792   7.433 -0.8002  0.1565  0.3441
  808MOL0     C 6543   9.409   6.788   7.428  1.0998  0.5034  0.2339
  808MOL0     C 6544   9.317   6.868   7.510 -0.2224 -0.8194  0.0408
  808MOL0     C 6545   9.183   6.888   7.446 -0.7793  0.1643 -0.1765
  808MOL0     C 6546   9.115   7.015   7.505 -0.4569 -0.4629  0.7784
  808MOL0     C 6547   8.981   7.036   7.450  0.2811  0.2721 -0.3126
  808MOL0     O 6548   8.915   7.140   7.527 -0.1581 -1.1111  0.2487
  808MOL0     C 6549   8.777   7.153   7.529  0.0185 -0.9457  0.7558
  808MOL0     C 6550   8.716   7.236   7.621 -0.4043 -0.1209  0.1564
  808MOL0     C 6551   8.582   7.263   7.604  0.0984 -0.5458  0.5595
  808MOL0     C 6552   8.502   7.204   7.503 -0.9137  0.9979  0.6507
  808MOL0     C 6553   8.349   7.239   7.490 -0.1862 -0.5903  0.0599
  808MOL0     O 6554   8.300   7.324   7.589  0.2443 -0.6636 -0.0015
  808MOL0     C 6555   8.163   7.342   7.570  0.6400 -0.0158 -1.6213
  808MOL0     C 6556   8.112   7.435   7.466  0.2177 -0.0986 -1.2945
  808MOL0     C 6557   7.977   7.470   7.463  0.3422  1.0464  0.8038
  808MOL0     C 6558   7.890   7.424   7.562 -0.6118 -0.0054 -0.2533
  808MOL0     O 6559   7.765   7.478   7.557 -0.3476  0.4327  0.2145
  808MOL0     C 6560   7.675   7.458   7.664 -0.2101 -0.9574  0.8684
  808MOL0     C 6561   7.543   7.480   7.603 -0.1036  1.2296 -0.9886
  808MOL0     C 6562   7.448   7.507   7.722  0.6216 -0.2148 -0.0373
  808MOL0     C 6563   7.306   7.524   7.669  0.3973  0.4654  0.4175
  808MOL0     C 6564   7.210   7.570   7.785  0.8991  0.5358 -0.0289
  808MOL0     C 6565   7.183   7.470   7.902 -0.1673 -1.0696 -0.2022
  808MOL0     C 6566   7.097   7.342   7.857 -0.0970  0.5836  0.0925
  808MOL0     C 6567   7.059   7.257   7.985 -0.1479  0.3577  0.7071
  808MOL0    Cl 6568   7.034   7.076   7.938  0.0589 -0.2400 -0.0615
  808MOL0     C 6569   7.938   7.334   7.661  0.3790  0.0755 -0.9839
  808MOL0     C 6570   8.068   7.288   7.667  0.1030 -0.3195  0.0371
  808MOL0     O 6571   8.287   7.181   7.400  0.1661  0.7193  0.0143
  808MOL0     C 6572   8.567   7.110   7.417 -0.1844 -1.0206 -0.7523
  808MOL0     C 6573   8.704   7.097   7.421  0.3109  0.7898  0.1406
  808MOL0     N 6574   9.373   6.715   7.313 -0.3507 -0.5125 -0.2195
  808MOL0     N 6575   9.483   6.687   7.246 -0.2584  0.3883 -0.5747
  808MOL0     C 6576  10.665   6.919   7.202 -0.1270 -0.0724 -0.1369
  808MOL0     C 6577  10.779   6.931   7.284  0.7964  0.5740  0.5192
  808MOL0     C 6578  11.011   7.088   7.647 -0.7256  0.3073  0.7324
  808MOL0     C 6579  11.131   7.009   7.620 -0.3429 -1.0754  1.4161
  808MOL0     C 6580  11.226   6.984   7.713 -0.2263  0.1936 -1.2032
  808MOL0     C 6581  11.221   7.051   7.835  0.3264  0.0308  0.4589
  808MOL0     O 6582  11.329   7.048   7.919  0.4423  0.5133 -0.1312
  808MOL0     C 6583  11.317   7.103   8.051 -0.2732  0.8234  0.4748
  808MOL0     C 6584  11.447   7.092   8.130  0.6868  0.6427 -0.0193
  808MOL0     C 6585  11.517   6.958   8.128 -0.2611  0.0268  0.2587
  808MOL0     C 6586  11.637   6.966   8.218  0.5657  0.2533  0.1931
  808MOL0     C 6587  11.723   6.852   8.185  0.2438  0.2778 -1.1523
  808MOL0     C 6588  11.781   6.749   8.161  0.4848  0.2042  0.0649
  808MOL0     C 6589  11.103   7.120   7.866  0.5476 -0.5186 -0.1306
  808MOL0     C 6590  11.005   7.146   7.773 -0.9674 -0.7905 -0.3565
  808MOL0     H 6591  10.748   7.252   7.374 -4.1358  1.2536  1.3898
  808MOL0     H 6592  10.557   7.238   7.189 -0.1440  1.1567  1.4795
  808MOL0     H 6593  10.597   6.879   6.945 -0.2989 -0.6341  0.0578
  808MOL0     H 6594  10.466   6.971   6.870  0.3505  1.1231  0.9991
  808MOL0     H 6595  10.426   6.752   7.080  1.3491 -1.3355 -0.9402
  808MOL0     H 6596  10.395   6.741   6.900  1.9988  0.3880 -1.4744
  808MOL0     H 6597  10.209   6.881   6.909  0.9374 -1.0582 -0.4536
  808MOL0     H 6598  10.251   6.963   7.055 -0.7174  1.8482 -2.3042
  808MOL0     H 6599  10.151   6.676   7.013  0.0771 -1.4066  2.1113
  808MOL0     H 6600  10.221   6.724   7.169 -0.2776 -1.0569 -0.4475
  808MOL0     H 6601   9.980   6.853   7.034 -0.8420  3.0893  1.0483
  808MOL0     H 6602  10.049   6.918   7.169  0.3588 -0.7437  0.3919
  808MOL0     H 6603   9.999   6.705   7.304 -1.0535 -1.3615  0.3055
  808MOL0     H 6604   9.965   6.625   7.157  1.8526  1.1548 -3.3555
  808MOL0     H 6605   9.810   6.863   7.258 -1.2900 -0.6847  2.7638
  808MOL0     H 6606   9.764   6.769   7.117 -2.5888  0.2017  1.4488
  808MOL0     H 6607   9.771   6.660   7.399  1.8792  3.3655 -0.5122
  808MOL0     H 6608   9.732   6.569   7.257 -0.9879  0.3004 -0.9906
  808MOL0     H 6609   9.608   6.832   7.512  0.1241 -1.1536  0.2960
  808MOL0     H 6610   9.363   6.966   7.528  1.0753 -1.4481  0.2148
  808MOL0     H 6611   9.296   6.815   7.604  2.0640 -2.1250 -0.1227
  808MOL0     H 6612   9.125   6.796   7.456 -2.0130  1.0044  0.7585
  808MOL0     H 6613   9.201   6.897   7.338  0.9564 -2.5963 -0.2168
  808MOL0     H 6614   9.097   7.005   7.612 -2.0832  0.6413  0.6455
  808MOL0     H 6615   9.180   7.102   7.492 -0.8788 -0.4658 -1.9337
  808MOL0     H 6616   8.926   6.942   7.461  0.6994  0.2287  1.6624
  808MOL0     H 6617   8.985   7.063   7.344  0.8289 -0.1490 -0.4011
  808MOL0     H 6618   8.769   7.285   7.703 -0.4330 -0.8191  0.6020
  808MOL0     H 6619   8.543   7.340   7.670  1.9487  0.6111  0.3654
  808MOL0     H 6620   8.174   7.480   7.390 -1.1811 -0.7612 -2.8849
  808MOL0     H 6621   7.939   7.535   7.385 -1.1577 -0.2121  0.4412
  808MOL0     H 6622   7.694   7.546   7.725 -4.3528 -0.0164  1.1210
  808MOL0     H 6623   7.692   7.365   7.719 -1.1274 -0.1565  2.5716
  808MOL0     H 6624   7.519   7.386   7.552  0.1453  0.1650  0.7485
  808MOL0     H 6625   7.531   7.559   7.529 -0.2878  0.7395 -1.4855
  808MOL0     H 6626   7.479   7.604   7.763 -3.3080  1.6394 -0.9465
  808MOL0     H 6627   7.459   7.436   7.804  1.4798  0.4067  0.4055
  808MOL0     H 6628   7.302   7.605   7.595 -0.0203 -0.3898 -0.5121
  808MOL0     H 6629   7.272   7.428   7.629 -1.2226  0.8092  0.8868
  808MOL0     H 6630   7.121   7.582   7.723 -0.5383  2.0843  2.1776
  808MOL0     H 6631   7.225   7.664   7.838 -2.7544 -0.5215  3.3897
  808MOL0     H 6632   7.125   7.534   7.969  0.1861  0.4097 -1.2833
  808MOL0     H 6633   7.277   7.447   7.954 -0.7361  0.8758  1.8488
  808MOL0     H 6634   7.004   7.370   7.808  0.6636  0.6582 -1.3475
  808MOL0     H 6635   7.143   7.280   7.779 -3.1693 -0.0372 -1.3580
  808MOL0     H 6636   6.970   7.294   8.036 -0.5021  0.9775 -0.3394
  808MOL0     H 6637   7.141   7.264   8.058  1.8049 -0.1801 -1.3375
  808MOL0     H 6638   7.882   7.301   7.747  0.8391 -1.5698 -1.2846
  808MOL0     H 6639   8.100   7.227   7.751 -3.0203 -1.6848  0.3642
  808MOL0     H 6640   8.521   7.056   7.335  0.4004 -1.5942 -0.7104
  808MOL0     H 6641   8.753   7.050   7.337 -0.3277  0.4757 -0.0628
  808MOL0     H 6642  10.649   6.821   7.159 -1.1268 -1.4641  3.0912
  808MOL0     H 6643  10.847   6.849   7.304 -0.5887 -0.6834  0.2716
  808MOL0     H 6644  11.133   6.960   7.523  0.9328  2.6529 -0.6211
  808MOL0     H 6645  11.311   6.921   7.689  2.8987  3.0270  1.2772
  808MOL0     H 6646  11.236   7.047   8.099  0.3518 -1.9537 -1.4743
  808MOL0     H 6647  11.291   7.210   8.048  0.9948  1.1338 -0.1507
  808MOL0     H 6648  11.515   7.170   8.095  0.7534  1.2239  1.3588
  808MOL0     H 6649  11.409   7.116   8.230 -0.1816  0.3726 -0.2719
  808MOL0     H 6650  11.550   6.943   8.025 -1.4263 -0.1279 -0.1165
  808MOL0     H 6651  11.441   6.883   8.152  2.1357 -2.1628  1.4576
  808MOL0     H 6652  11.691   7.061   8.216  1.7798 -0.3634  1.7376
  808MOL0     H 6653  11.604   6.955   8.321  1.1036 -0.7642  0.2731
  808MOL0     H 6654  11.860   6.679   8.144 -1.3701 -2.1475  0.5232
  808MOL0     H 6655  11.081   7.175   7.957 -1.1734 -2.1587  0.5303
  808MOL0     H 6656  10.925   7.217   7.788 -0.4717 -0.2538 -0.2455
  809MOL0     O 6657   9.633   4.011   8.964  0.7714  0.1283  0.0136
  809MOL0     C 6658   9.627   3.901   8.907  0.2211  0.0537  0.6456
  809MOL0     O 6659   9.507   3.845   8.866 -0.2197  0.6626  1.0893
  809MOL0     C 6660   9.383   3.907   8.875 -0.2382  0.3776  0.6835
  809MOL0     C 6661   9.340   4.000   8.962 -0.2113 -0.2018 -0.0464
  809MOL0     C 6662   9.208   4.051   8.962  0.4969 -0.1535 -0.3121
  809MOL0     C 6663   9.115   4.012   8.864 -0.5055  0.0716  0.4205
  809MOL0     O 6664   8.995   4.084   8.862  0.2034  0.2312 -0.2289
  809MOL0     C 6665   8.910   4.089   8.743  0.0788 -1.2511  0.9970
  809MOL0     C 6666   8.819   3.973   8.718  0.1411  0.3123 -0.0209
  809MOL0     C 6667   8.739   3.940   8.838  0.1668 -0.1514  0.1931
  809MOL0     C 6668   8.618   4.035   8.842 -0.1294 -0.0092  0.0011
  809MOL0     C 6669   8.501   3.968   8.919 -1.3203 -0.2123  0.4255
  809MOL0     C 6670   8.378   4.047   8.916  0.4239 -0.6383 -0.9008
  809MOL0     C 6671   8.310   4.057   8.780  0.2302 -0.4492  0.4754
  809MOL0     C 6672   8.184   4.140   8.783 -0.4509  0.7114 -0.6957
  809MOL0     N 6673   8.079   4.072   8.856  0.4853  0.5138  0.2589
  809MOL0     C 6674   8.016   3.954   8.833 -1.0337  0.5327 -0.4567
  809MOL0     C 6675   7.923   3.926   8.931  0.1249 -0.9130 -0.1983
  809MOL0     C 6676   7.828   3.815   8.951  0.1214 -0.3925  0.2499
  809MOL0     C 6677   7.690   3.838   8.875 -0.1872  0.0857 -0.0689
  809MOL0     C 6678   7.603   3.926   8.962  0.1550  0.0453  0.0237
  809MOL0     C 6679   7.463   3.955   8.901 -0.2720 -0.0835 -0.6435
  809MOL0     O 6680   7.390   3.841   8.867 -0.2530 -0.0340  0.3668
  809MOL0     C 6681   7.254   3.851   8.864 -1.3810  1.3096 -0.3854
  809MOL0     C 6682   7.179   3.936   8.951  1.1585  0.6599 -0.3843
  809MOL0     C 6683   7.039   3.935   8.943  0.4232 -0.3842 -0.6394
  809MOL0     C 6684   6.969   3.861   8.850  0.6147  0.5306 -0.4278
  809MOL0     C 6685   6.816   3.886   8.836  0.5365 -0.2251 -0.5305
  809MOL0     O 6686   6.756   3.949   8.940 -0.0774  0.4448 -0.5076
  809MOL0     C 6687   6.616   3.970   8.952 -0.9007  0.1816 -0.8311
  809MOL0     C 6688   6.522   3.886   8.906  0.0429  0.3032 -0.0973
  809MOL0     C 6689   6.382   3.901   8.931 -0.8833 -0.5218 -1.2022
  809MOL0     C 6690   6.341   4.018   9.005  0.7247 -0.0821 -0.2094
  809MOL0     O 6691   6.208   4.049   9.043 -0.2094 -0.8264 -0.3177
  809MOL0     C 6692   6.110   3.949   9.017 -1.2046  0.0920 -0.0322
  809MOL0     C 6693   5.975   3.983   9.077 -0.0387  0.1436  0.0010
  809MOL0     C 6694   5.899   4.085   8.987  0.5970  0.2625  0.3780
  809MOL0     C 6695   5.771   4.133   9.060  0.9934 -0.6997 -0.5028
  809MOL0     C 6696   5.743   4.285   9.086  0.5221 -0.0333  0.1840
  809MOL0     C 6697   5.615   4.309   9.164 -0.0527  0.8606 -0.6453
  809MOL0     C 6698   5.577   4.458   9.164  0.2343  1.0349 -0.5032
  809MOL0     C 6699   5.448   4.484   9.250  0.5447  0.9733 -0.1284
  809MOL0    Cl 6700   5.361   4.626   9.179 -0.2175  0.1522 -0.1939
  809MOL0     C 6701   6.441   4.105   9.061  0.2188  1.5230  0.3385
  809MOL0     C 6702   6.578   4.070   9.040  0.0800  0.0068  0.1514
  809MOL0     O 6703   6.759   3.852   8.739 -0.5814  0.8421  1.0729
  809MOL0     C 6704   7.047   3.779   8.764  0.6155 -0.3101  0.2438
  809MOL0     C 6705   7.184   3.763   8.777  0.7476 -0.4301 -0.0730
  809MOL0     N 6706   7.948   4.024   9.027 -0.0579  0.1195 -0.6370
  809MOL0     N 6707   8.031   4.108   8.981 -0.4506 -0.1328 -0.5684
  809MOL0     C 6708   9.164   3.930   8.761  0.7556  0.9144 -0.1263
  809MOL0     C 6709   9.297   3.868   8.771 -0.6649  0.1641 -0.4710
  809MOL0     C 6710   9.754   3.853   8.878 -0.4325  0.9100  0.8608
  809MOL0     C 6711   9.759   3.729   8.811  0.1813  1.1588  0.1177
  809MOL0     C 6712   9.879   3.662   8.798  0.5261 -0.1278  1.1203
  809MOL0     C 6713  10.001   3.730   8.833  0.6042  0.5398  0.3793
  809MOL0     O 6714  10.116   3.656   8.835 -0.6271 -0.2301 -0.6366
  809MOL0     C 6715  10.244   3.719   8.845 -0.4149 -0.5799 -0.6933
  809MOL0     C 6716  10.363   3.632   8.845  0.2253  0.2625  0.0625
  809MOL0     C 6717  10.498   3.710   8.843 -0.5316 -0.5452  0.1703
  809MOL0     C 6718  10.533   3.770   8.973  1.0278 -0.6534 -0.9110
  809MOL0     C 6719  10.673   3.823   8.986  0.4618 -0.1155 -0.3415
  809MOL0     C 6720  10.784   3.858   9.015  0.6934  1.1052  0.0675
  809MOL0     C 6721   9.996   3.862   8.888  0.2698 -0.0922  0.2803
  809MOL0     C 6722   9.874   3.916   8.919  0.4231 -0.1671 -0.3845
  809MOL0     H 6723   9.410   4.035   9.038 -0.1586  0.8071 -0.5470
  809MOL0     H 6724   9.169   4.109   9.045  0.4079 -2.9040  1.7218
  809MOL0     H 6725   8.977   4.077   8.658 -1.8420 -1.7128 -0.5382
  809MOL0     H 6726   8.856   4.184   8.731 -1.3904 -2.3233 -1.5607
  809MOL0     H 6727   8.881   3.891   8.682  0.4924 -0.9193  3.1243
  809MOL0     H 6728   8.756   4.000   8.633  2.3382 -1.3504 -2.3239
  809MOL0     H 6729   8.785   3.957   8.936  0.5280  2.4609 -0.3610
  809MOL0     H 6730   8.702   3.837   8.836  3.5324 -1.5773  2.1448
  809MOL0     H 6731   8.645   4.128   8.894 -0.0770  0.8089 -1.4520
  809MOL0     H 6732   8.574   4.064   8.746 -1.2271 -0.8609  0.2246
  809MOL0     H 6733   8.526   3.949   9.024 -4.0529 -1.2806  0.9782
  809MOL0     H 6734   8.478   3.868   8.882 -0.4404 -0.6704  1.0795
  809MOL0     H 6735   8.392   4.151   8.947 -1.2962 -0.4190 -0.7589
  809MOL0     H 6736   8.305   4.004   8.985  2.0077  2.7190  3.3262
  809MOL0     H 6737   8.374   4.097   8.701  0.8389  2.1048  2.1417
  809MOL0     H 6738   8.275   3.959   8.747  0.3807 -0.5452  0.5997
  809MOL0     H 6739   8.133   4.158   8.687 -1.7434  2.8752  0.3184
  809MOL0     H 6740   8.197   4.233   8.839  1.7538 -0.5638  1.0837
  809MOL0     H 6741   8.023   3.888   8.748 -6.6114 -0.3759 -0.5802
  809MOL0     H 6742   7.805   3.798   9.057 -1.4659 -4.3704 -0.5472
  809MOL0     H 6743   7.875   3.724   8.912 -0.7851 -0.8622  0.2247
  809MOL0     H 6744   7.644   3.742   8.847  1.0250 -1.1156  1.7973
  809MOL0     H 6745   7.718   3.892   8.784  2.3447  0.0283  0.6205
  809MOL0     H 6746   7.576   3.884   9.059  0.6896 -2.3792 -0.7967
  809MOL0     H 6747   7.658   4.020   8.972 -1.6916  1.3445 -1.2825
  809MOL0     H 6748   7.479   4.013   8.809  3.5053 -0.5846 -0.4475
  809MOL0     H 6749   7.412   4.023   8.970 -0.0997  1.1396 -1.6835
  809MOL0     H 6750   7.218   4.000   9.030  1.4594 -0.0584  0.0627
  809MOL0     H 6751   6.988   4.010   9.003 -2.5387 -0.7572 -2.4719
  809MOL0     H 6752   6.554   3.794   8.858 -0.2305  0.8620 -1.3779
  809MOL0     H 6753   6.312   3.826   8.896 -0.7089 -3.2307  3.4464
  809MOL0     H 6754   6.148   3.855   9.059  0.8727  0.2311 -1.4800
  809MOL0     H 6755   6.084   3.932   8.912 -0.9034  0.0041 -0.0928
  809MOL0     H 6756   6.007   4.035   9.168  1.0140  0.8407 -0.7579
  809MOL0     H 6757   5.921   3.894   9.110 -0.3600  0.5487  0.6048
  809MOL0     H 6758   5.869   4.038   8.893  2.6065 -1.6959  0.6317
  809MOL0     H 6759   5.960   4.175   8.974 -1.5985  1.8247  0.1564
  809MOL0     H 6760   5.693   4.087   8.999 -0.4483  0.0286  0.7495
  809MOL0     H 6761   5.757   4.090   9.160 -2.3189 -2.8102 -1.7157
  809MOL0     H 6762   5.725   4.334   8.990 -0.6385 -0.0834  0.3553
  809MOL0     H 6763   5.829   4.330   9.135  0.9131 -0.2679 -0.2813
  809MOL0     H 6764   5.646   4.292   9.268  1.0648  3.3766 -0.4998
  809MOL0     H 6765   5.535   4.244   9.126 -0.7248  0.9783  0.5246
  809MOL0     H 6766   5.658   4.521   9.203 -0.8710  1.8387  0.5744
  809MOL0     H 6767   5.555   4.492   9.062 -3.5848 -2.4456 -1.0505
  809MOL0     H 6768   5.468   4.508   9.354  0.0297  2.0098 -0.2535
  809MOL0     H 6769   5.379   4.400   9.237  0.3691  1.0471  0.3206
  809MOL0     H 6770   6.404   4.180   9.130 -2.1955  0.7696 -0.0490
  809MOL0     H 6771   6.655   4.129   9.089 -0.4888 -0.6504  1.8852
  809MOL0     H 6772   6.996   3.726   8.684  1.6292  0.9502 -1.3154
  809MOL0     H 6773   7.221   3.686   8.710 -0.0543 -0.0213 -1.0043
  809MOL0     H 6774   9.093   3.902   8.683  0.7842 -1.3159  0.5646
  809MOL0     H 6775   9.327   3.799   8.693 -1.5317  2.1484 -2.6741
  809MOL0     H 6776   9.664   3.692   8.773  0.5724  1.8145 -1.5681
  809MOL0     H 6777   9.883   3.559   8.767  0.8861 -0.2639  1.6057
  809MOL0     H 6778  10.242   3.768   8.943  3.1680 -1.1728 -0.2032
  809MOL0     H 6779  10.253   3.787   8.759 -2.9839 -0.4591 -0.9479
  809MOL0     H 6780  10.377   3.563   8.929 -0.2926  2.4563  2.0539
  809MOL0     H 6781  10.363   3.587   8.745 -0.9559  0.3114  0.0265
  809MOL0     H 6782  10.501   3.784   8.762  0.7493  0.0933  0.7667
  809MOL0     H 6783  10.571   3.635   8.810 -1.4583 -0.2660 -2.8972
  809MOL0     H 6784  10.471   3.859   8.991  0.9515 -1.3018  2.6822
  809MOL0     H 6785  10.530   3.703   9.059 -0.0356 -0.1369 -0.5235
  809MOL0     H 6786  10.879   3.894   9.048  2.7346 -1.1628 -2.7373
  809MOL0     H 6787  10.078   3.928   8.917 -0.7234  0.6360  1.5344
  809MOL0     H 6788   9.861   4.014   8.965 -1.9132  0.4969 -2.2100
  810MOL0     O 6789   1.940   7.585   5.194 -0.1108  0.2702 -0.4278
  810MOL0     C 6790   1.942   7.506   5.292  0.8018 -0.1796  0.6310
  810MOL0     O 6791   1.824   7.460   5.361 -0.5530 -0.1930  0.3055
  810MOL0     C 6792   1.715   7.550   5.334 -1.6698  0.4904 -0.0606
  810MOL0     C 6793   1.615   7.515   5.250 -1.3085  0.4382  0.1454
  810MOL0     C 6794   1.512   7.604   5.220 -0.4861 -1.1818  0.8175
  810MOL0     C 6795   1.492   7.719   5.299  0.6404  0.8344 -0.1848
  810MOL0     O 6796   1.388   7.800   5.271  0.4968  0.2410  0.3593
  810MOL0     C 6797   1.262   7.753   5.215 -0.2176 -0.3740  0.0835
  810MOL0     C 6798   1.155   7.861   5.236 -0.1831  0.4258 -0.4790
  810MOL0     C 6799   1.029   7.807   5.310 -0.0111 -0.7222  0.3196
  810MOL0     C 6800   0.928   7.917   5.345  0.1916 -0.3520 -0.3623
  810MOL0     C 6801   0.791   7.857   5.390 -0.5394 -0.6998  0.2993
  810MOL0     C 6802   0.724   7.961   5.481 -0.2659 -0.6100 -0.1784
  810MOL0     C 6803   0.614   7.901   5.570  0.2400  0.1543  0.2438
  810MOL0     C 6804   0.551   8.004   5.669 -0.3720  0.0649  0.0712
  810MOL0     N 6805   0.445   7.953   5.756  0.3006 -0.0280  0.5365
  810MOL0     C 6806   0.309   7.919   5.728  0.4117 -0.4232  0.0213
  810MOL0     C 6807   0.254   7.861   5.842  0.8629 -0.8411  0.3582
  810MOL0     C 6808   0.119   7.803   5.856  0.0029 -0.0686  1.7302
  810MOL0     C 6809   0.018   7.912   5.831 -0.9969 -0.5369  0.6860
  810MOL0     C 6810  -0.112   7.842   5.883 -0.4060 -1.1450  0.3807
  810MOL0     C 6811  -0.229   7.953   5.897 -0.1525  0.2806  0.5548
  810MOL0     O 6812  -0.295   7.983   5.771 -0.6721  0.4505  0.0621
  810MOL0     C 6813  -0.398   8.074   5.775 -0.6317 -0.6463 -0.4354
  810MOL0     C 6814  -0.463   8.128   5.888  0.7702  0.4356 -0.3929
  810MOL0     C 6815  -0.577   8.204   5.876  0.4118  0.1409  0.4786
  810MOL0     C 6816  -0.626   8.242   5.747  0.3981 -0.0592 -0.3037
  810MOL0     C 6817  -0.736   8.346   5.740 -0.0154  0.6939 -0.3345
  810MOL0     O 6818  -0.795   8.391   5.854  0.4254 -0.2200  0.5520
  810MOL0     C 6819  -0.910   8.465   5.835  0.6193  0.2543 -0.2738
  810MOL0     C 6820  -0.920   8.576   5.922  0.7085  0.9408 -0.0219
  810MOL0     C 6821  -1.039   8.641   5.938  0.6884 -0.1630 -0.0201
  810MOL0     C 6822  -1.149   8.615   5.856 -0.1793 -0.1151 -0.4364
  810MOL0     O 6823  -1.269   8.670   5.867 -0.5141 -0.2866 -0.8799
  810MOL0     C 6824  -1.271   8.807   5.914  1.0653 -1.0868  0.9232
  810MOL0     C 6825  -1.334   8.828   6.052 -0.4812 -0.5248 -0.8866
  810MOL0     C 6826  -1.478   8.787   6.082  0.4047 -0.1103  0.5028
  810MOL0     C 6827  -1.532   8.841   6.211 -0.3051 -1.0944 -0.4634
  810MOL0     C 6828  -1.676   8.780   6.246 -1.1820  0.0971  0.5803
  810MOL0     C 6829  -1.732   8.838   6.376 -0.2906 -0.4675  0.6841
  810MOL0     C 6830  -1.880   8.807   6.385  0.4258  0.2230  0.7805
  810MOL0     C 6831  -1.934   8.839   6.532  0.3596 -0.1782 -0.2286
  810MOL0    Cl 6832  -1.988   9.011   6.544 -0.2398  0.0410 -0.4254
  810MOL0     C 6833  -1.131   8.514   5.756  0.5346 -0.3664 -0.1567
  810MOL0     C 6834  -1.013   8.437   5.747 -0.3683  0.7232 -0.0202
  810MOL0     O 6835  -0.754   8.388   5.629  0.4691 -0.3746 -0.2000
  810MOL0     C 6836  -0.553   8.199   5.643 -1.3265  1.0652  0.5457
  810MOL0     C 6837  -0.444   8.112   5.647 -0.4253 -0.8017 -1.1657
  810MOL0     N 6838   0.355   7.875   5.938 -0.0859 -0.2377 -0.0475
  810MOL0     N 6839   0.468   7.915   5.886  0.9582 -0.1283 -0.2425
  810MOL0     C 6840   1.589   7.753   5.383 -0.0270  0.4752 -0.0017
  810MOL0     C 6841   1.694   7.669   5.407 -0.6569 -0.1056 -0.3827
  810MOL0     C 6842   2.078   7.466   5.332  0.3094 -0.6245 -0.5001
  810MOL0     C 6843   2.190   7.516   5.266  0.4565 -0.1880 -0.1533
  810MOL0     C 6844   2.322   7.472   5.298  0.8749 -0.6096 -0.9017
  810MOL0     C 6845   2.341   7.384   5.397 -0.0611 -0.4044  1.4004
  810MOL0     O 6846   2.478   7.361   5.431  0.1897  0.5533  0.3630
  810MOL0     C 6847   2.517   7.268   5.526 -0.7321  0.5898  0.2519
  810MOL0     C 6848   2.657   7.214   5.490 -0.5490 -0.4714 -0.5615
  810MOL0     C 6849   2.734   7.173   5.620  1.0382 -0.2254 -0.4496
  810MOL0     C 6850   2.882   7.134   5.607 -0.7949  1.0855  0.4070
  810MOL0     C 6851   2.960   7.257   5.607  0.2011  0.0479  0.3426
  810MOL0     C 6852   3.026   7.363   5.602  0.9130  0.3924 -0.5228
  810MOL0     C 6853   2.225   7.334   5.463 -0.8731 -0.2933  0.1717
  810MOL0     C 6854   2.096   7.377   5.432 -0.1805 -0.6003  0.4870
  810MOL0     H 6855   1.635   7.422   5.197  1.3434  0.3650  1.1233
  810MOL0     H 6856   1.439   7.592   5.141 -0.6693  0.7429  0.6500
  810MOL0     H 6857   1.235   7.658   5.264 -1.7713 -0.8878 -1.6649
  810MOL0     H 6858   1.278   7.733   5.109  2.8245  3.2283 -0.3677
  810MOL0     H 6859   1.132   7.902   5.137  1.6711  0.1637 -1.0579
  810MOL0     H 6860   1.197   7.944   5.294 -2.1012  0.2242  1.2839
  810MOL0     H 6861   1.055   7.757   5.404  0.0057  0.1931  0.8251
  810MOL0     H 6862   0.983   7.733   5.244 -0.1884  0.0694 -0.4693
  810MOL0     H 6863   0.976   7.990   5.411 -1.9130  1.1896 -0.4132
  810MOL0     H 6864   0.898   7.979   5.260  0.0588  0.4729  0.2683
  810MOL0     H 6865   0.805   7.773   5.458  0.6280 -3.2166 -2.8031
  810MOL0     H 6866   0.728   7.818   5.309 -1.6649 -2.5208  1.9806
  810MOL0     H 6867   0.687   8.047   5.423  0.0430 -0.0963  0.3847
  810MOL0     H 6868   0.792   8.022   5.540 -2.1096  1.1168  0.2881
  810MOL0     H 6869   0.532   7.847   5.520  0.2599  0.9690 -0.7059
  810MOL0     H 6870   0.669   7.823   5.623 -0.3714 -0.2278  0.3325
  810MOL0     H 6871   0.523   8.096   5.617 -2.3650 -0.5790 -0.0710
  810MOL0     H 6872   0.635   8.032   5.733  0.7965 -3.1807  0.0929
  810MOL0     H 6873   0.261   7.915   5.631  0.3456 -1.6255  0.0904
  810MOL0     H 6874   0.107   7.756   5.954  0.1044  0.3261  1.9370
  810MOL0     H 6875   0.094   7.726   5.783 -0.1778 -0.3084  2.0442
  810MOL0     H 6876   0.025   7.949   5.729  0.0376 -0.6047  0.7231
  810MOL0     H 6877   0.046   7.991   5.901 -3.4658 -1.3360  2.7281
  810MOL0     H 6878  -0.150   7.754   5.830 -2.2131  0.9537 -2.0669
  810MOL0     H 6879  -0.087   7.808   5.983  1.8647 -0.3756  0.1309
  810MOL0     H 6880  -0.195   8.052   5.928 -2.3691  1.4681 -0.4970
  810MOL0     H 6881  -0.313   7.926   5.962 -0.4420  0.9070  0.4578
  810MOL0     H 6882  -0.449   8.086   5.987 -0.5755 -2.8876 -1.4464
  810MOL0     H 6883  -0.616   8.247   5.968 -3.4556 -1.3701 -0.2307
  810MOL0     H 6884  -0.822   8.593   5.963  1.4116 -3.4110  0.5759
  810MOL0     H 6885  -1.053   8.721   6.011 -0.2666 -2.4926  2.5308
  810MOL0     H 6886  -1.325   8.860   5.835  2.6719 -0.6358  0.0977
  810MOL0     H 6887  -1.178   8.863   5.915  0.0181  0.8554 -1.4902
  810MOL0     H 6888  -1.328   8.936   6.069 -3.6898 -0.2853 -0.6144
  810MOL0     H 6889  -1.262   8.767   6.107  0.2400  0.8114 -0.3121
  810MOL0     H 6890  -1.487   8.678   6.084  2.2534 -0.4161 -2.5089
  810MOL0     H 6891  -1.540   8.818   5.997  0.6255  0.7264  0.6408
  810MOL0     H 6892  -1.461   8.815   6.290  0.8573  3.0761  0.1118
  810MOL0     H 6893  -1.537   8.950   6.207 -0.3303 -1.0630  0.2204
  810MOL0     H 6894  -1.671   8.672   6.257 -1.3176  0.2484  2.4323
  810MOL0     H 6895  -1.738   8.805   6.159 -0.0882 -4.4042 -1.8156
  810MOL0     H 6896  -1.715   8.946   6.378  2.5630 -0.8266 -0.0305
  810MOL0     H 6897  -1.681   8.804   6.467  0.6613  1.9469  1.1598
  810MOL0     H 6898  -1.946   8.852   6.310 -0.3007 -1.7931  0.1378
  810MOL0     H 6899  -1.884   8.700   6.364 -0.0328  0.4719 -0.5036
  810MOL0     H 6900  -1.874   8.814   6.620 -1.2822  4.4248  2.5700
  810MOL0     H 6901  -2.028   8.787   6.550  1.6962 -2.2848  1.1802
  810MOL0     H 6902  -1.214   8.474   5.698  2.3456 -1.8896 -1.8581
  810MOL0     H 6903  -1.004   8.348   5.687  1.9275  1.5542 -0.9957
  810MOL0     H 6904  -0.582   8.229   5.543 -0.8605  1.6868  0.5920
  810MOL0     H 6905  -0.420   8.070   5.550 -1.0563  2.9277 -3.1287
  810MOL0     H 6906   1.574   7.848   5.433  1.8248  1.0185 -0.4219
  810MOL0     H 6907   1.769   7.695   5.480 -0.8303 -1.1949  0.1880
  810MOL0     H 6908   2.185   7.584   5.182  3.6381  0.0040 -0.3080
  810MOL0     H 6909   2.402   7.531   5.254 -1.7476  2.5977 -1.8301
  810MOL0     H 6910   2.456   7.178   5.536  1.9472 -1.2843  0.5139
  810MOL0     H 6911   2.510   7.323   5.621 -2.3619  0.6991  0.0962
  810MOL0     H 6912   2.662   7.143   5.407 -0.6672  2.0522 -2.8653
  810MOL0     H 6913   2.721   7.298   5.464 -1.9790  0.4327 -1.2535
  810MOL0     H 6914   2.683   7.094   5.676 -1.2915 -0.0635 -2.1986
  810MOL0     H 6915   2.719   7.255   5.691 -3.5089 -1.2969  0.1390
  810MOL0     H 6916   2.903   7.077   5.697 -1.5640  3.1626  1.9805
  810MOL0     H 6917   2.910   7.081   5.515  3.5069  1.4978  1.2279
  810MOL0     H 6918   3.090   7.449   5.605  1.4858 -0.0199  2.2988
  810MOL0     H 6919   2.236   7.277   5.554 -0.1653  0.5656  0.6379
  810MOL0     H 6920   2.010   7.351   5.493  0.0817 -0.0174  1.1288
  811MOL0     O 6921   6.241   2.475   2.727 -0.0023 -0.4580  1.1447
  811MOL0     C 6922   6.286   2.476   2.841 -0.1595 -0.1762  0.7906
  811MOL0     O 6923   6.212   2.461   2.950 -0.0626 -0.6157 -0.2945
  811MOL0     C 6924   6.082   2.430   2.922  0.4251  0.0409  0.3212
  811MOL0     C 6925   5.980   2.524   2.939  0.3538 -0.2659  0.1899
  811MOL0     C 6926   5.845   2.504   2.910  0.5721  0.0991  0.0456
  811MOL0     C 6927   5.805   2.374   2.879 -0.2834  0.6026 -0.3318
  811MOL0     O 6928   5.676   2.337   2.855 -0.2637  0.3672 -0.6548
  811MOL0     C 6929   5.619   2.243   2.956  0.3566  0.2107  0.1857
  811MOL0     C 6930   5.473   2.221   2.911 -0.0621 -0.2349 -0.6043
  811MOL0     C 6931   5.460   2.127   2.783  0.4101 -0.0728  0.8268
  811MOL0     C 6932   5.310   2.077   2.770  0.3853 -0.1933 -0.2198
  811MOL0     C 6933   5.283   1.984   2.653  0.1858 -0.2814 -0.6085
  811MOL0     C 6934   5.163   1.896   2.677  0.2946 -1.0719  0.5922
  811MOL0     C 6935   5.130   1.833   2.536 -0.9816 -0.0396  0.5981
  811MOL0     C 6936   5.035   1.712   2.555 -0.1243 -0.5164 -1.1078
  811MOL0     N 6937   4.898   1.746   2.605  0.2928 -0.4614  0.2768
  811MOL0     C 6938   4.863   1.783   2.729 -0.3146 -1.0876 -0.7616
  811MOL0     C 6939   4.724   1.788   2.732 -1.5804 -0.2156  0.5573
  811MOL0     C 6940   4.642   1.829   2.847 -0.2027  1.0317 -0.0680
  811MOL0     C 6941   4.640   1.983   2.846 -0.0371 -0.0077 -0.6794
  811MOL0     C 6942   4.563   2.037   2.970  0.7122 -0.2576 -0.1887
  811MOL0     C 6943   4.408   1.996   2.958 -0.6612 -0.1602 -0.1349
  811MOL0     O 6944   4.346   2.041   2.843 -0.6482  0.1016  0.7303
  811MOL0     C 6945   4.209   2.025   2.831  0.4831 -0.7363  0.5864
  811MOL0     C 6946   4.150   1.901   2.808 -0.3850 -1.0203 -0.2559
  811MOL0     C 6947   4.015   1.888   2.784 -0.4192  0.2360 -0.1675
  811MOL0     C 6948   3.928   1.997   2.770 -0.1953  0.8216  0.2093
  811MOL0     C 6949   3.784   1.983   2.735 -0.8717 -0.2355 -0.3950
  811MOL0     O 6950   3.708   2.091   2.705 -0.4283 -0.1690 -0.0825
  811MOL0     C 6951   3.582   2.066   2.681  0.2932  0.2070 -0.0559
  811MOL0     C 6952   3.531   1.977   2.580  0.1662 -0.1504  0.1900
  811MOL0     C 6953   3.400   1.978   2.540 -0.4081  0.8029 -0.1845
  811MOL0     C 6954   3.308   2.068   2.601 -0.2869  0.1434  0.4332
  811MOL0     O 6955   3.176   2.048   2.572  0.6059  0.4844 -0.8363
  811MOL0     C 6956   3.090   2.148   2.638 -0.4186 -0.8764  0.7592
  811MOL0     C 6957   2.951   2.101   2.620 -1.2374 -0.0497  0.0251
  811MOL0     C 6958   2.867   2.145   2.735  0.2888  0.1888 -0.0072
  811MOL0     C 6959   2.729   2.080   2.731  0.0410 -0.7114  0.6679
  811MOL0     C 6960   2.649   2.109   2.860  0.4173 -0.8686 -0.3660
  811MOL0     C 6961   2.566   2.234   2.832 -0.0029 -0.4807 -0.0459
  811MOL0     C 6962   2.485   2.276   2.953 -0.3753  0.4845 -0.3581
  811MOL0     C 6963   2.368   2.370   2.925  0.0381 -0.7626 -1.2307
  811MOL0    Cl 6964   2.213   2.292   2.871 -0.3689 -0.3954 -0.0532
  811MOL0     C 6965   3.361   2.155   2.699  1.2751 -0.1454 -0.4681
  811MOL0     C 6966   3.498   2.162   2.729 -0.1440 -0.3199  1.0944
  811MOL0     O 6967   3.736   1.865   2.749  0.4966  0.3260 -0.1278
  811MOL0     C 6968   3.978   2.123   2.778 -0.1497  0.5893 -0.5852
  811MOL0     C 6969   4.121   2.131   2.803  0.7589  0.1592 -1.1341
  811MOL0     N 6970   4.677   1.747   2.610  0.4219 -0.0208 -0.1517
  811MOL0     N 6971   4.781   1.723   2.532  0.2211 -0.4673  0.2942
  811MOL0     C 6972   5.901   2.278   2.864 -1.5797  0.2350  0.4014
  811MOL0     C 6973   6.039   2.302   2.887 -0.6922  0.0993 -0.0108
  811MOL0     C 6974   6.420   2.518   2.860 -0.1403 -0.2431  0.9718
  811MOL0     C 6975   6.514   2.513   2.748  0.0215 -1.0745 -0.9451
  811MOL0     C 6976   6.649   2.555   2.763 -0.3769  0.1021 -0.2193
  811MOL0     C 6977   6.691   2.608   2.886 -0.3842 -1.0894  0.5158
  811MOL0     O 6978   6.814   2.661   2.906  0.6454  0.5933 -0.1844
  811MOL0     C 6979   6.909   2.690   2.801 -0.7356 -0.3915  1.0335
  811MOL0     C 6980   7.043   2.719   2.853 -0.3469  0.3460  0.3301
  811MOL0     C 6981   7.117   2.845   2.798  0.1799 -0.3236  0.3262
  811MOL0     C 6982   7.269   2.830   2.840 -0.4600 -0.9563 -0.1996
  811MOL0     C 6983   7.324   2.962   2.864  0.1316  0.7089  1.0799
  811MOL0     C 6984   7.361   3.071   2.887  0.3306  0.2976  0.1501
  811MOL0     C 6985   6.601   2.616   2.988  0.0088  0.5826 -0.4158
  811MOL0     C 6986   6.462   2.574   2.984 -0.0147  0.0711 -0.2234
  811MOL0     H 6987   6.008   2.628   2.954  2.1301 -0.8806  1.4308
  811MOL0     H 6988   5.769   2.580   2.922 -2.9628 -2.9732 -1.2251
  811MOL0     H 6989   5.628   2.282   3.058 -0.9935 -3.2017  1.7587
  811MOL0     H 6990   5.683   2.156   2.969 -0.1149  0.1042  2.1436
  811MOL0     H 6991   5.423   2.319   2.906  3.1861  1.5983  0.2528
  811MOL0     H 6992   5.424   2.169   2.994  2.3104 -0.5658  0.6547
  811MOL0     H 6993   5.528   2.041   2.785  0.8193 -0.0057 -2.9453
  811MOL0     H 6994   5.492   2.193   2.702 -0.0867 -0.7404  0.0828
  811MOL0     H 6995   5.294   2.027   2.866 -0.9366  1.1675  0.3099
  811MOL0     H 6996   5.248   2.166   2.767  0.2933 -0.2814 -1.5590
  811MOL0     H 6997   5.364   1.913   2.635 -1.2794 -1.6063 -2.4222
  811MOL0     H 6998   5.270   2.054   2.570  1.0385  1.4437  0.6639
  811MOL0     H 6999   5.072   1.950   2.704 -1.0064 -2.1582 -1.3657
  811MOL0     H 7000   5.186   1.820   2.752  2.3675 -1.0527  0.0369
  811MOL0     H 7001   5.081   1.907   2.471 -0.9538  0.3063  0.9677
  811MOL0     H 7002   5.217   1.791   2.485 -0.6872 -1.7910  2.4362
  811MOL0     H 7003   5.073   1.653   2.638 -1.9967  2.0425  1.7707
  811MOL0     H 7004   5.033   1.653   2.462  2.3700 -0.0990 -1.4857
  811MOL0     H 7005   4.933   1.819   2.804 -0.8609 -0.7708 -0.3950
  811MOL0     H 7006   4.689   1.790   2.938  0.6571  1.3146 -0.3748
  811MOL0     H 7007   4.538   1.795   2.844 -0.2388  0.8178  2.1163
  811MOL0     H 7008   4.599   2.025   2.754 -0.3264 -0.3275 -0.6973
  811MOL0     H 7009   4.743   2.018   2.855 -0.4574  1.3792 -0.9348
  811MOL0     H 7010   4.617   1.992   3.054 -1.3825  2.6702  3.0148
  811MOL0     H 7011   4.563   2.147   2.971 -3.2694 -0.0940 -1.6216
  811MOL0     H 7012   4.367   2.056   3.040 -0.3640  1.1676 -0.9165
  811MOL0     H 7013   4.379   1.892   2.969 -0.1748 -0.3068 -0.2114
  811MOL0     H 7014   4.216   1.815   2.819  0.1966 -0.2626  3.7694
  811MOL0     H 7015   3.981   1.788   2.759  0.2715 -0.3101  1.0210
  811MOL0     H 7016   3.601   1.911   2.530  1.6108  0.7472  0.9274
  811MOL0     H 7017   3.365   1.917   2.458 -2.5651  1.2441  0.3582
  811MOL0     H 7018   3.108   2.245   2.590 -2.5201  0.4172  2.4211
  811MOL0     H 7019   3.117   2.154   2.744 -2.6340 -1.3653  1.3925
  811MOL0     H 7020   2.950   1.993   2.607 -0.3347  0.1450 -2.1616
  811MOL0     H 7021   2.912   2.144   2.527  1.7467 -0.4920 -1.5392
  811MOL0     H 7022   2.852   2.254   2.733 -3.0050 -0.1546  0.2902
  811MOL0     H 7023   2.914   2.112   2.828 -0.7362 -2.9571 -0.4813
  811MOL0     H 7024   2.676   2.122   2.645 -0.4207  1.2248  1.8242
  811MOL0     H 7025   2.743   1.972   2.726 -2.6416 -1.0777 -1.8620
  811MOL0     H 7026   2.718   2.126   2.944 -0.0635 -1.3163  0.1224
  811MOL0     H 7027   2.584   2.027   2.890  1.1888 -1.1799  0.4853
  811MOL0     H 7028   2.491   2.208   2.757 -0.3997  0.3664  0.0468
  811MOL0     H 7029   2.632   2.310   2.789  0.0393 -0.1600  0.5760
  811MOL0     H 7030   2.459   2.184   3.005 -0.7989  3.4589  5.4827
  811MOL0     H 7031   2.556   2.326   3.019  0.5298  0.8940 -1.6095
  811MOL0     H 7032   2.398   2.437   2.844  1.0217  0.2348 -0.0935
  811MOL0     H 7033   2.354   2.435   3.012  0.2293 -1.0804 -0.9616
  811MOL0     H 7034   3.300   2.227   2.751  1.1394 -1.1546  0.8268
  811MOL0     H 7035   3.528   2.247   2.788 -2.9204  1.0400  0.7182
  811MOL0     H 7036   3.921   2.212   2.755 -2.5849 -0.5579  0.6029
  811MOL0     H 7037   4.148   2.236   2.804 -3.2815  1.3666  1.1970
  811MOL0     H 7038   5.879   2.177   2.829  1.1984 -0.0056 -0.9697
  811MOL0     H 7039   6.107   2.217   2.888 -3.0635 -1.9065  1.5395
  811MOL0     H 7040   6.487   2.478   2.649  2.7844 -1.1613 -1.7482
  811MOL0     H 7041   6.712   2.562   2.675  0.1732 -0.3516  0.1297
  811MOL0     H 7042   6.881   2.780   2.746  1.4286 -0.0751  0.3797
  811MOL0     H 7043   6.918   2.607   2.731 -0.6192  0.5531 -0.0981
  811MOL0     H 7044   7.048   2.716   2.962  0.9251 -0.1011  0.2804
  811MOL0     H 7045   7.104   2.633   2.822 -0.8269  0.2740 -0.4533
  811MOL0     H 7046   7.075   2.932   2.849  3.7099  2.1154 -0.5566
  811MOL0     H 7047   7.115   2.865   2.690  1.2643  0.3459  0.4195
  811MOL0     H 7048   7.271   2.765   2.928 -0.0104 -0.8107 -0.0993
  811MOL0     H 7049   7.327   2.774   2.766 -0.5713  0.3307 -1.2977
  811MOL0     H 7050   7.386   3.175   2.896 -0.7226  0.8432 -2.3856
  811MOL0     H 7051   6.632   2.670   3.078  0.6724 -0.5984  0.0850
  811MOL0     H 7052   6.389   2.594   3.062 -2.1386  0.0037 -2.1021
  812MOL0     O 7053   2.973   9.046   3.541  0.3985 -0.0875 -0.0297
  812MOL0     C 7054   3.022   9.016   3.430 -0.5758  0.0678 -0.1091
  812MOL0     O 7055   2.957   8.973   3.319 -0.1905 -0.3797  0.2823
  812MOL0     C 7056   2.824   9.005   3.322  0.9505 -0.0020  0.2136
  812MOL0     C 7057   2.728   8.901   3.318  0.2981  0.1471 -0.3578
  812MOL0     C 7058   2.591   8.929   3.301 -1.3034  0.2662 -1.0353
  812MOL0     C 7059   2.540   9.064   3.302  0.0219  0.6344 -0.8605
  812MOL0     O 7060   2.410   9.074   3.297 -0.1859  0.0966  0.3537
  812MOL0     C 7061   2.381   9.156   3.183  0.1168 -0.9420 -0.5907
  812MOL0     C 7062   2.238   9.131   3.146  0.9156  0.0791 -0.5962
  812MOL0     C 7063   2.221   8.995   3.076  1.2730  0.5458  0.4013
  812MOL0     C 7064   2.080   8.972   3.015  0.3973 -0.0859  0.1291
  812MOL0     C 7065   1.955   8.963   3.106  0.9006  0.2332 -0.0154
  812MOL0     C 7066   1.836   8.895   3.029 -1.1276  0.2384  0.4136
  812MOL0     C 7067   1.713   8.871   3.113 -0.5342  0.8951  0.1085
  812MOL0     C 7068   1.595   8.804   3.046  0.4111  0.6885 -0.4112
  812MOL0     N 7069   1.564   8.842   2.908 -0.1324  0.1921 -0.2176
  812MOL0     C 7070   1.482   8.946   2.866  0.7435  0.7910  0.0754
  812MOL0     C 7071   1.481   8.930   2.736  0.3855 -0.1117 -1.2062
  812MOL0     C 7072   1.400   9.021   2.646 -1.0821 -0.2885  0.3834
  812MOL0     C 7073   1.484   9.073   2.517 -0.4129  0.2297 -0.5267
  812MOL0     C 7074   1.434   9.214   2.479 -0.2022  0.3762  0.8033
  812MOL0     C 7075   1.284   9.227   2.444 -0.7611 -0.7424 -0.0555
  812MOL0     O 7076   1.193   9.229   2.564  0.0183 -0.6175 -0.2141
  812MOL0     C 7077   1.066   9.197   2.539  0.2833 -0.5893  0.6273
  812MOL0     C 7078   0.993   9.255   2.427 -0.3544 -0.0550  0.5938
  812MOL0     C 7079   0.849   9.226   2.423  0.0294 -1.1137 -0.3365
  812MOL0     C 7080   0.788   9.155   2.525  0.4174  0.1125  0.1199
  812MOL0     C 7081   0.641   9.126   2.521 -0.3674  0.8856 -1.0865
  812MOL0     O 7082   0.608   8.997   2.556  0.1706  0.0373  0.6539
  812MOL0     C 7083   0.482   8.938   2.543 -0.1959  0.0536 -0.7715
  812MOL0     C 7084   0.362   9.012   2.538  0.6569 -0.6954 -0.6379
  812MOL0     C 7085   0.244   8.939   2.537  0.7120  0.2732  0.7753
  812MOL0     C 7086   0.235   8.802   2.538 -0.2999 -0.5718  0.1022
  812MOL0     O 7087   0.111   8.741   2.525 -0.1962  0.2656  0.3673
  812MOL0     C 7088   0.088   8.625   2.433 -0.0032 -0.3133 -0.3459
  812MOL0     C 7089  -0.016   8.673   2.327 -0.1025 -0.3773 -0.5301
  812MOL0     C 7090  -0.067   8.560   2.249 -1.1403 -0.0648  0.5590
  812MOL0     C 7091  -0.175   8.593   2.147  0.8216  0.1057 -1.2690
  812MOL0     C 7092  -0.255   8.471   2.116  0.4448  0.0272 -0.1963
  812MOL0     C 7093  -0.338   8.507   1.998 -0.1860 -0.7972  0.0519
  812MOL0     C 7094  -0.468   8.427   1.983 -0.0666  0.8436  0.0408
  812MOL0     C 7095  -0.540   8.457   1.854  0.3790 -0.4509 -0.5245
  812MOL0    Cl 7096  -0.611   8.617   1.862 -0.0275  0.5642  0.2605
  812MOL0     C 7097   0.352   8.733   2.540 -0.2693 -0.3355 -0.6582
  812MOL0     C 7098   0.479   8.800   2.548  0.3582  0.2547  0.9275
  812MOL0     O 7099   0.564   9.219   2.490  0.2622  0.1042  0.2601
  812MOL0     C 7100   0.864   9.090   2.614 -0.7865  0.6580 -1.0732
  812MOL0     C 7101   0.998   9.121   2.627  0.4244 -0.1254 -1.4426
  812MOL0     N 7102   1.539   8.811   2.695 -0.3721 -0.3922 -0.8948
  812MOL0     N 7103   1.589   8.756   2.798  0.2176  0.5323 -0.6028
  812MOL0     C 7104   2.630   9.161   3.307 -0.9517 -0.0358 -0.9163
  812MOL0     C 7105   2.766   9.135   3.325  0.2501 -0.3423  0.9777
  812MOL0     C 7106   3.170   9.023   3.412 -0.4380  0.9285  0.5182
  812MOL0     C 7107   3.231   8.994   3.285 -0.5960  0.5591  0.9176
  812MOL0     C 7108   3.367   9.001   3.264 -0.0201  0.8654 -0.2328
  812MOL0     C 7109   3.455   9.030   3.374  0.6845  0.2078 -0.0925
  812MOL0     O 7110   3.584   9.016   3.354 -0.1580 -0.0469 -0.4606
  812MOL0     C 7111   3.690   9.078   3.426  0.2559 -0.5083 -0.0135
  812MOL0     C 7112   3.769   9.167   3.330 -0.5089 -0.3761 -0.4690
  812MOL0     C 7113   3.899   9.247   3.389 -0.1967  0.2040  0.2827
  812MOL0     C 7114   3.853   9.355   3.492 -0.3885  0.3825 -0.2527
  812MOL0     C 7115   3.766   9.460   3.445  0.4892 -0.0645 -0.6085
  812MOL0     C 7116   3.689   9.549   3.410 -0.1885 -0.6038  0.0103
  812MOL0     C 7117   3.398   9.058   3.504  0.0029 -0.2790  0.2538
  812MOL0     C 7118   3.259   9.058   3.519  0.4521  0.0996  0.0698
  812MOL0     H 7119   2.752   8.796   3.315 -2.0848 -0.5166  0.7681
  812MOL0     H 7120   2.527   8.841   3.300  2.0479 -2.4919  1.4967
  812MOL0     H 7121   2.441   9.156   3.092 -2.1441  0.4982 -2.1905
  812MOL0     H 7122   2.381   9.258   3.223 -1.1557 -1.0403 -0.2877
  812MOL0     H 7123   2.199   9.209   3.080  0.4803 -0.6453 -1.1990
  812MOL0     H 7124   2.179   9.118   3.237  1.1266  3.7970  0.2443
  812MOL0     H 7125   2.233   8.913   3.147 -0.7399 -0.3151 -0.1673
  812MOL0     H 7126   2.292   8.977   2.995 -5.0056 -1.9616 -5.4954
  812MOL0     H 7127   2.066   9.056   2.946  0.3449 -0.6194 -0.5126
  812MOL0     H 7128   2.093   8.876   2.965  0.3917 -0.4051  0.7358
  812MOL0     H 7129   1.926   9.066   3.128  1.0037  0.5898 -1.4603
  812MOL0     H 7130   1.978   8.909   3.198 -1.2821 -0.5340  0.1151
  812MOL0     H 7131   1.863   8.795   2.994 -0.8658  0.1625  0.8299
  812MOL0     H 7132   1.806   8.957   2.944  2.5088  1.2023 -0.3161
  812MOL0     H 7133   1.749   8.803   3.191  1.0434 -1.2994 -2.3492
  812MOL0     H 7134   1.684   8.964   3.162  0.1579  0.3152  1.6950
  812MOL0     H 7135   1.509   8.817   3.112  1.0871 -1.5764  1.0291
  812MOL0     H 7136   1.618   8.698   3.053  0.5424  0.7343 -0.1281
  812MOL0     H 7137   1.441   9.029   2.922  2.7080  2.3133 -0.6207
  812MOL0     H 7138   1.346   9.088   2.713 -3.9960 -3.9605  2.1316
  812MOL0     H 7139   1.315   8.959   2.614 -1.3551  0.8665 -1.2302
  812MOL0     H 7140   1.473   8.998   2.439  0.3566 -0.1293 -0.3005
  812MOL0     H 7141   1.592   9.074   2.535 -0.3984 -2.0721 -0.1430
  812MOL0     H 7142   1.444   9.283   2.563 -3.3112 -1.8742  3.2867
  812MOL0     H 7143   1.500   9.252   2.401  1.3128  0.4070  2.0475
  812MOL0     H 7144   1.253   9.149   2.373 -3.3623 -0.5022  0.7153
  812MOL0     H 7145   1.265   9.321   2.393  0.9208  1.4914  3.1028
  812MOL0     H 7146   1.044   9.325   2.360 -0.6881  0.2756  0.6807
  812MOL0     H 7147   0.785   9.271   2.347  0.8911  1.7033  0.4856
  812MOL0     H 7148   0.354   9.120   2.538  2.2483 -0.5323  0.4381
  812MOL0     H 7149   0.153   8.993   2.517  1.5835  1.8010  0.7940
  812MOL0     H 7150   0.063   8.528   2.477  2.3326 -1.9065 -2.2819
  812MOL0     H 7151   0.185   8.606   2.385 -0.5662 -0.9848 -1.2409
  812MOL0     H 7152   0.031   8.740   2.254 -0.6282  0.6093  0.0186
  812MOL0     H 7153  -0.101   8.721   2.376 -1.1807 -1.2721 -1.4657
  812MOL0     H 7154  -0.105   8.487   2.321 -3.9515 -0.7442 -1.4109
  812MOL0     H 7155   0.014   8.507   2.200  0.2820  0.5861  2.1205
  812MOL0     H 7156  -0.248   8.663   2.189  1.4637  0.2854 -0.4182
  812MOL0     H 7157  -0.129   8.636   2.057  0.6355 -1.1916 -2.0176
  812MOL0     H 7158  -0.313   8.444   2.204  2.5944 -2.9599  0.4899
  812MOL0     H 7159  -0.192   8.386   2.085 -2.2375 -1.4706 -1.9811
  812MOL0     H 7160  -0.274   8.491   1.911  1.1960 -0.6848  1.0263
  812MOL0     H 7161  -0.369   8.611   2.012 -0.0492 -1.1016  3.3243
  812MOL0     H 7162  -0.431   8.324   1.987  0.9814  1.0041 -2.9473
  812MOL0     H 7163  -0.534   8.441   2.069  2.0338 -1.0372  2.0915
  812MOL0     H 7164  -0.615   8.382   1.828 -1.3510  1.3249 -0.8749
  812MOL0     H 7165  -0.460   8.454   1.779  1.4611 -2.5755  0.6222
  812MOL0     H 7166   0.339   8.626   2.530 -3.0094 -0.5987  3.2195
  812MOL0     H 7167   0.565   8.734   2.541  0.0407  0.0222 -3.1298
  812MOL0     H 7168   0.811   9.032   2.690  0.3812  1.0793  0.1164
  812MOL0     H 7169   1.050   9.085   2.715  0.2292 -0.2637 -1.3844
  812MOL0     H 7170   2.613   9.268   3.319  1.2469  0.2357  0.5157
  812MOL0     H 7171   2.835   9.218   3.338 -0.3234  0.6315 -1.5990
  812MOL0     H 7172   3.165   8.986   3.199 -0.2676  1.0893  0.6160
  812MOL0     H 7173   3.400   8.973   3.164  1.4678 -1.4722  0.8292
  812MOL0     H 7174   3.759   9.004   3.467 -1.8985 -2.1440  0.8685
  812MOL0     H 7175   3.642   9.141   3.503  3.3786  0.5393  1.2360
  812MOL0     H 7176   3.809   9.100   3.253  0.5567  0.5554 -0.7606
  812MOL0     H 7177   3.704   9.235   3.274  2.7642  0.5769 -3.5640
  812MOL0     H 7178   3.948   9.297   3.305  1.4571  2.2205  2.3152
  812MOL0     H 7179   3.967   9.175   3.436  1.9065  1.1051 -1.2243
  812MOL0     H 7180   3.800   9.303   3.572  0.1422  1.6676  0.9820
  812MOL0     H 7181   3.945   9.397   3.534  0.4833  0.2434 -1.9534
  812MOL0     H 7182   3.606   9.616   3.398  0.7188  1.7632  4.7300
  812MOL0     H 7183   3.458   9.071   3.593  0.4822  1.8911 -0.3162
  812MOL0     H 7184   3.221   9.064   3.621 -1.1366 -0.1525 -0.4669
  813MOL0     O 7185   6.727   6.885  10.858  0.1352 -0.3783 -0.2608
  813MOL0     C 7186   6.766   6.776  10.903 -0.1996  0.9225 -0.0072
  813MOL0     O 7187   6.735   6.724  11.024  0.2151  0.4482  0.3787
  813MOL0     C 7188   6.620   6.762  11.094 -0.8326 -0.4441  0.7826
  813MOL0     C 7189   6.504   6.685  11.098 -0.5497 -0.0467  0.1117
  813MOL0     C 7190   6.393   6.729  11.160 -0.0712 -0.1225 -0.6777
  813MOL0     C 7191   6.393   6.848  11.235 -0.8421  0.0032 -0.3620
  813MOL0     O 7192   6.274   6.871  11.302 -1.0684  0.4740 -0.0999
  813MOL0     C 7193   6.240   6.998  11.357  1.0650  0.5673 -0.2283
  813MOL0     C 7194   6.107   6.993  11.438  0.7179 -0.4830 -1.0887
  813MOL0     C 7195   6.068   7.135  11.488 -0.2514 -0.1280  0.4732
  813MOL0     C 7196   5.965   7.128  11.598  0.4123  1.4392  0.2718
  813MOL0     C 7197   5.924   7.272  11.642  0.1383 -0.4993 -0.5499
  813MOL0     C 7198   5.828   7.280  11.757 -0.3292 -0.3335  0.2142
  813MOL0     C 7199   5.791   7.424  11.785 -0.1317  0.1826  0.0636
  813MOL0     C 7200   5.714   7.428  11.911  0.5013  1.1864  0.3352
  813MOL0     N 7201   5.707   7.567  11.970 -0.4773  0.1962  0.0147
  813MOL0     C 7202   5.643   7.588  12.088 -0.2882  0.5712  0.2578
  813MOL0     C 7203   5.685   7.703  12.132  0.4794 -0.2939 -0.2438
  813MOL0     C 7204   5.629   7.775  12.239 -1.0230  0.6312  0.0736
  813MOL0     C 7205   5.699   7.728  12.365  0.2642  0.3720  0.4108
  813MOL0     C 7206   5.659   7.813  12.480 -0.5918 -0.3745 -0.7719
  813MOL0     C 7207   5.732   7.784  12.612 -0.2680 -0.6483 -0.2031
  813MOL0     O 7208   5.728   7.893  12.702 -0.6128  0.2065 -0.1420
  813MOL0     C 7209   5.839   7.970  12.706  0.0774 -0.5860 -0.3849
  813MOL0     C 7210   5.811   8.114  12.724  0.9910  0.5036 -0.1087
  813MOL0     C 7211   5.909   8.208  12.740 -0.2101 -0.7571  0.0708
  813MOL0     C 7212   6.042   8.166  12.742 -0.6800  1.0992  0.2239
  813MOL0     C 7213   6.147   8.263  12.764 -0.5792  0.2069 -0.5897
  813MOL0     O 7214   6.103   8.390  12.761 -0.3598 -0.3500 -0.3429
  813MOL0     C 7215   6.203   8.487  12.756  0.0745 -0.2492  0.0134
  813MOL0     C 7216   6.206   8.593  12.656 -0.7097 -0.1099  0.6785
  813MOL0     C 7217   6.305   8.687  12.648  0.9868 -0.2523  0.2634
  813MOL0     C 7218   6.403   8.697  12.744 -1.1591 -0.5043  0.5483
  813MOL0     O 7219   6.490   8.807  12.745  0.3635  0.3072 -0.1066
  813MOL0     C 7220   6.554   8.862  12.855  0.4811 -0.1681 -0.6341
  813MOL0     C 7221   6.623   9.002  12.827 -0.2295 -0.0035  0.0542
  813MOL0     C 7222   6.704   9.018  12.704  0.0846  0.5825 -0.4946
  813MOL0     C 7223   6.756   9.164  12.668 -0.0218 -0.8306  0.9666
  813MOL0     C 7224   6.863   9.171  12.565 -0.4753  0.2464  0.6171
  813MOL0     C 7225   6.821   9.117  12.428 -0.5780 -0.2386 -0.3672
  813MOL0     C 7226   6.941   9.113  12.332  0.1539  0.1119 -0.2708
  813MOL0     C 7227   6.892   9.042  12.203 -1.2483 -0.9052 -0.2009
  813MOL0    Cl 7228   6.899   8.870  12.198 -0.3315 -0.1868 -0.4490
  813MOL0     C 7229   6.412   8.600  12.843  1.0617 -0.5271 -0.2979
  813MOL0     C 7230   6.309   8.502  12.860 -0.2658  0.2261  0.6115
  813MOL0     O 7231   6.265   8.233  12.764 -0.0182 -0.3591  0.1183
  813MOL0     C 7232   6.076   8.025  12.741  0.2414  0.2808 -1.0110
  813MOL0     C 7233   5.976   7.930  12.721 -0.4336 -0.1857 -0.2284
  813MOL0     N 7234   5.790   7.754  12.060  0.0138  0.3232  0.0350
  813MOL0     N 7235   5.813   7.664  11.968 -0.9703  0.1844 -0.1431
  813MOL0     C 7236   6.506   6.931  11.223 -0.7459 -0.2886 -0.6944
  813MOL0     C 7237   6.626   6.884  11.165  0.5428  0.6051 -0.1893
  813MOL0     C 7238   6.871   6.691  10.834 -1.0299 -1.2227 -0.0161
  813MOL0     C 7239   6.908   6.718  10.701 -0.6175 -1.2923 -0.3249
  813MOL0     C 7240   6.990   6.630  10.637 -0.9359 -0.3388 -0.2846
  813MOL0     C 7241   7.054   6.522  10.706 -0.8651  0.6672  1.8743
  813MOL0     O 7242   7.147   6.433  10.657 -0.2124 -0.1766 -0.1510
  813MOL0     C 7243   7.222   6.482  10.543 -0.2552  0.1661  0.5821
  813MOL0     C 7244   7.335   6.579  10.565  0.2765 -0.0319  0.2880
  813MOL0     C 7245   7.426   6.517  10.668  0.0857 -0.4024 -1.0251
  813MOL0     C 7246   7.575   6.549  10.640  0.1847  0.0023 -0.4386
  813MOL0     C 7247   7.650   6.495  10.751 -0.0208  0.4830 -1.1631
  813MOL0     C 7248   7.710   6.437  10.839 -0.9733  0.9833  0.5390
  813MOL0     C 7249   7.021   6.498  10.836  0.8100  0.3484 -0.4199
  813MOL0     C 7250   6.923   6.580  10.900  0.1349 -0.7462  0.0785
  813MOL0     H 7251   6.495   6.589  11.047 -3.2165 -0.4279  1.0807
  813MOL0     H 7252   6.310   6.661  11.147 -0.3098  0.1219 -0.4343
  813MOL0     H 7253   6.240   7.076  11.280 -1.1981  0.4763 -0.3728
  813MOL0     H 7254   6.316   7.014  11.434  0.8228 -1.8059  0.5669
  813MOL0     H 7255   6.107   6.920  11.520 -2.4819  0.5444 -0.0153
  813MOL0     H 7256   6.029   6.956  11.370  1.5323 -4.0580 -0.3123
  813MOL0     H 7257   6.050   7.207  11.407  1.1671  0.2043  0.4291
  813MOL0     H 7258   6.159   7.184  11.523 -0.4593 -0.0615  0.9347
  813MOL0     H 7259   5.881   7.072  11.557  1.2985 -0.0601  0.4051
  813MOL0     H 7260   6.010   7.069  11.679  0.6386 -1.4237 -1.7827
  813MOL0     H 7261   5.874   7.316  11.555 -0.2924 -0.0402 -0.0800
  813MOL0     H 7262   6.004   7.344  11.664 -2.1142  1.3159  2.5831
  813MOL0     H 7263   5.897   7.247  11.835 -0.2256 -0.1570  0.1971
  813MOL0     H 7264   5.743   7.215  11.734  1.7817 -2.4791 -2.2790
  813MOL0     H 7265   5.870   7.500  11.795  1.3206 -1.0405 -1.5438
  813MOL0     H 7266   5.728   7.458  11.702  0.0140  1.1968  0.3478
  813MOL0     H 7267   5.765   7.364  11.983 -0.8122 -0.4513 -0.1198
  813MOL0     H 7268   5.617   7.390  11.877  1.5905  0.5087 -2.2161
  813MOL0     H 7269   5.573   7.517  12.132 -0.4932 -2.2519 -4.0386
  813MOL0     H 7270   5.520   7.767  12.235 -0.8954 -1.1300 -1.2643
  813MOL0     H 7271   5.650   7.880  12.217  0.3974  0.1811 -0.8543
  813MOL0     H 7272   5.804   7.755  12.359  0.2695  0.5577  1.2176
  813MOL0     H 7273   5.683   7.622  12.391 -0.6594  0.2706 -0.4780
  813MOL0     H 7274   5.685   7.918  12.467  1.6576 -0.9531 -1.4588
  813MOL0     H 7275   5.552   7.790  12.487 -0.4785 -2.5503 -3.7761
  813MOL0     H 7276   5.838   7.767  12.589 -0.2869  1.5556 -2.3732
  813MOL0     H 7277   5.694   7.697  12.665  1.0657 -0.9592  0.2903
  813MOL0     H 7278   5.708   8.145  12.730  1.2276  1.9053 -2.1118
  813MOL0     H 7279   5.889   8.312  12.760  1.5927 -0.4509  0.4405
  813MOL0     H 7280   6.126   8.592  12.583 -0.5848  0.6318  0.5308
  813MOL0     H 7281   6.278   8.762  12.574 -3.5610 -1.9998 -0.1938
  813MOL0     H 7282   6.627   8.793  12.898  0.4492 -0.6276 -1.3163
  813MOL0     H 7283   6.474   8.883  12.927 -0.1349 -1.3343 -0.9677
  813MOL0     H 7284   6.693   9.027  12.907  0.8937 -0.0689 -0.8926
  813MOL0     H 7285   6.547   9.080  12.825 -0.2946 -0.0884 -0.9183
  813MOL0     H 7286   6.644   8.975  12.623 -0.6510 -1.1514  0.9015
  813MOL0     H 7287   6.792   8.957  12.724 -0.7330  0.3435  2.9856
  813MOL0     H 7288   6.668   9.226  12.647  0.3784 -0.4641  0.3561
  813MOL0     H 7289   6.800   9.216  12.754  2.0553  1.2799 -1.2094
  813MOL0     H 7290   6.945   9.109  12.600 -1.6966 -0.2062  2.8696
  813MOL0     H 7291   6.897   9.273  12.544 -0.0580 -0.3122 -1.6183
  813MOL0     H 7292   6.748   9.178  12.374 -0.6147 -0.7830 -0.9372
  813MOL0     H 7293   6.774   9.019  12.437 -2.7133  0.8786  2.1494
  813MOL0     H 7294   6.956   9.217  12.301 -2.4838  0.5220 -0.3933
  813MOL0     H 7295   7.031   9.066  12.373 -1.2767 -2.5647  0.0434
  813MOL0     H 7296   6.967   9.071  12.129 -0.4029 -2.9588 -0.2283
  813MOL0     H 7297   6.796   9.086  12.175  0.9106  2.6056 -2.9918
  813MOL0     H 7298   6.483   8.607  12.926  1.3872 -0.3702 -0.5882
  813MOL0     H 7299   6.307   8.444  12.952 -0.0596 -0.1236  0.3945
  813MOL0     H 7300   6.179   8.002  12.765 -0.0922  2.4468  3.3107
  813MOL0     H 7301   6.008   7.826  12.717 -1.4057 -0.5008 -0.1230
  813MOL0     H 7302   6.503   7.031  11.266  1.6736 -0.2289 -0.5265
  813MOL0     H 7303   6.716   6.944  11.158  0.5857  0.5325 -0.2721
  813MOL0     H 7304   6.857   6.806  10.664 -0.0131 -0.6145  0.4252
  813MOL0     H 7305   7.013   6.657  10.534  1.9164  3.4964  1.1231
  813MOL0     H 7306   7.148   6.523  10.474 -1.8570  0.3218  2.3137
  813MOL0     H 7307   7.265   6.395  10.493 -1.8632 -1.1867  1.4681
  813MOL0     H 7308   7.394   6.591  10.473 -0.3509  1.1054  0.0006
  813MOL0     H 7309   7.301   6.678  10.597  0.9436 -0.6676  3.2235
  813MOL0     H 7310   7.423   6.410  10.685  1.1447 -0.0272  2.1518
  813MOL0     H 7311   7.399   6.553  10.768  1.4891 -2.1804  0.0485
  813MOL0     H 7312   7.609   6.495  10.550  1.4398 -0.4619  0.2963
  813MOL0     H 7313   7.593   6.657  10.637 -3.1739  0.7039  0.5032
  813MOL0     H 7314   7.763   6.388  10.918 -2.2094 -2.0620 -0.3878
  813MOL0     H 7315   7.064   6.421  10.899 -2.5039 -1.8530 -0.5716
  813MOL0     H 7316   6.900   6.561  11.004 -1.3667 -0.4264 -0.1699
  814MOL0     O 7317   9.669   7.692   1.748  0.0984  0.9139 -0.5989
  814MOL0     C 7318   9.715   7.666   1.864  0.0596  0.1857 -0.1943
  814MOL0     O 7319   9.705   7.537   1.927  0.4488 -0.1879  0.0021
  814MOL0     C 7320   9.643   7.435   1.862 -0.1828 -0.3010  0.2835
  814MOL0     C 7321   9.546   7.369   1.938  0.2037  0.6665 -0.0313
  814MOL0     C 7322   9.479   7.254   1.881  0.4621 -1.1034  0.5110
  814MOL0     C 7323   9.510   7.210   1.754  0.4720  0.2106  0.0480
  814MOL0     O 7324   9.460   7.098   1.693  0.4763  0.5601 -0.8654
  814MOL0     C 7325   9.369   7.012   1.755 -0.3314  0.8474 -0.3409
  814MOL0     C 7326   9.219   7.034   1.717 -0.1643 -0.5421 -0.6626
  814MOL0     C 7327   9.216   7.076   1.572 -0.2472  0.3283 -0.5692
  814MOL0     C 7328   9.284   6.980   1.484  0.6364  0.0560 -0.0891
  814MOL0     C 7329   9.295   7.037   1.345 -0.3401 -0.2658  1.0431
  814MOL0     C 7330   9.381   6.946   1.258 -0.4783 -0.0950  0.0224
  814MOL0     C 7331   9.398   6.982   1.113 -0.2969  0.0531  0.7640
  814MOL0     C 7332   9.417   6.844   1.033  0.3189 -0.6211 -0.2259
  814MOL0     N 7333   9.297   6.758   1.015  0.6390 -0.3172  0.1713
  814MOL0     C 7334   9.292   6.625   1.050 -0.3929 -0.0438  0.0447
  814MOL0     C 7335   9.173   6.582   0.998 -0.4111 -0.5844  0.8747
  814MOL0     C 7336   9.148   6.435   0.972 -0.1027 -0.0966 -0.3643
  814MOL0     C 7337   9.013   6.398   0.915 -0.4453 -0.3614  0.4789
  814MOL0     C 7338   8.981   6.264   0.954  0.0778  0.7079 -0.5667
  814MOL0     C 7339   8.859   6.192   0.893 -0.8166  0.7344  0.5669
  814MOL0     O 7340   8.754   6.208   0.981  0.1310  0.2049  0.6339
  814MOL0     C 7341   8.627   6.193   0.938  0.8159 -0.2553 -0.3646
  814MOL0     C 7342   8.589   6.134   0.813 -0.3072 -0.4946 -0.0729
  814MOL0     C 7343   8.456   6.132   0.772  0.3747  0.1427 -0.2539
  814MOL0     C 7344   8.360   6.190   0.849 -0.0429 -0.8482  0.1240
  814MOL0     C 7345   8.216   6.172   0.820  0.1002  0.0612  0.7660
  814MOL0     O 7346   8.176   6.158   0.685  0.0806  0.6499 -0.2004
  814MOL0     C 7347   8.045   6.146   0.644  0.2330  0.2605  0.3985
  814MOL0     C 7348   7.991   6.227   0.545  0.2875  0.0888 -0.1404
  814MOL0     C 7349   7.858   6.217   0.505 -0.1734  0.7800  0.0521
  814MOL0     C 7350   7.775   6.097   0.551  0.3717 -0.3545 -0.2565
  814MOL0     O 7351   7.643   6.072   0.525 -0.7982 -0.1541 -0.1625
  814MOL0     C 7352   7.564   6.163   0.443  0.0632 -0.0293 -0.0119
  814MOL0     C 7353   7.410   6.120   0.452 -0.1269  0.4262  0.1879
  814MOL0     C 7354   7.335   6.220   0.359  0.6291 -0.2289 -0.0509
  814MOL0     C 7355   7.197   6.157   0.343  0.2369  0.8178  0.2765
  814MOL0     C 7356   7.114   6.240   0.251 -0.4284 -0.5540 -0.1438
  814MOL0     C 7357   6.985   6.180   0.204  0.1257 -0.6972  1.1429
  814MOL0     C 7358   6.879   6.154   0.314  0.0888  0.1892  0.5630
  814MOL0     C 7359   6.849   6.280   0.395 -0.3482  0.3149 -0.4128
  814MOL0    Cl 7360   6.704   6.261   0.501 -0.2927  0.0540  0.0981
  814MOL0     C 7361   7.838   6.005   0.641  0.0400  0.1786  0.7415
  814MOL0     C 7362   7.964   6.038   0.688 -0.0591  0.6925  0.0024
  814MOL0     O 7363   8.139   6.162   0.918 -0.4114 -0.7302 -0.3409
  814MOL0     C 7364   8.398   6.254   0.965 -0.0462  0.0707 -0.7014
  814MOL0     C 7365   8.528   6.250   1.014 -0.0393  1.3995 -0.0702
  814MOL0     N 7366   9.116   6.697   0.928  0.1111 -0.1224 -0.2310
  814MOL0     N 7367   9.192   6.798   0.941 -0.1745  0.0561 -0.4561
  814MOL0     C 7368   9.597   7.287   1.678  0.8812 -0.3442  1.6312
  814MOL0     C 7369   9.663   7.400   1.727 -0.3627 -0.4633  0.3346
  814MOL0     C 7370   9.818   7.758   1.928 -0.0966 -0.0824 -0.4451
  814MOL0     C 7371   9.816   7.894   1.892  0.3662 -0.4163  0.8446
  814MOL0     C 7372   9.924   7.983   1.933  0.5781 -0.3090  0.0612
  814MOL0     C 7373  10.024   7.931   2.014  0.5388 -0.7366 -0.4297
  814MOL0     O 7374  10.121   8.012   2.060 -0.5479  0.2569  0.6538
  814MOL0     C 7375  10.250   7.982   1.990  0.4376 -0.7788 -0.2768
  814MOL0     C 7376  10.363   8.029   2.081  0.2491  0.2521  0.4855
  814MOL0     C 7377  10.477   8.071   1.986  0.3172  0.3014 -0.3734
  814MOL0     C 7378  10.604   8.112   2.055 -0.4749  0.9780  0.8913
  814MOL0     C 7379  10.676   7.999   2.116 -0.6724  1.0499  0.3232
  814MOL0     C 7380  10.727   7.896   2.168  0.3625 -0.8991 -0.0299
  814MOL0     C 7381  10.017   7.806   2.059  0.4788 -0.1590 -0.1447
  814MOL0     C 7382   9.921   7.718   2.015 -0.2410  0.7734 -0.0878
  814MOL0     H 7383   9.520   7.390   2.042  0.0651  0.5432 -0.0411
  814MOL0     H 7384   9.414   7.189   1.938 -1.1177 -0.1365 -0.1125
  814MOL0     H 7385   9.377   7.006   1.864  1.7210 -0.4754 -0.5110
  814MOL0     H 7386   9.398   6.911   1.724  1.3139  1.6625 -1.6316
  814MOL0     H 7387   9.173   7.101   1.790  1.0467  0.1814 -0.5240
  814MOL0     H 7388   9.168   6.940   1.738  1.5147 -1.3638 -0.0620
  814MOL0     H 7389   9.267   7.172   1.564 -0.2614  0.3077 -0.9120
  814MOL0     H 7390   9.112   7.081   1.541 -0.7043 -1.0951  0.5638
  814MOL0     H 7391   9.391   6.964   1.498  0.3020 -0.8599  1.7208
  814MOL0     H 7392   9.237   6.882   1.471  2.1014 -0.6797  0.0563
  814MOL0     H 7393   9.342   7.135   1.357  0.5033 -0.5900  0.5213
  814MOL0     H 7394   9.198   7.057   1.300 -1.1183  1.1987  3.2115
  814MOL0     H 7395   9.329   6.850   1.263  0.2786 -0.4479  1.5022
  814MOL0     H 7396   9.478   6.926   1.303  0.0999 -0.1585 -1.2148
  814MOL0     H 7397   9.305   7.019   1.070  0.5057  1.8538  0.4681
  814MOL0     H 7398   9.484   7.046   1.091 -0.3280 -0.0664  0.2820
  814MOL0     H 7399   9.493   6.785   1.084  0.9648 -0.5457 -1.0745
  814MOL0     H 7400   9.458   6.871   0.935  0.7248  0.1940  0.1642
  814MOL0     H 7401   9.380   6.569   1.082  0.1796  1.2970  0.9319
  814MOL0     H 7402   9.164   6.384   1.067 -0.3808  1.4408  0.5570
  814MOL0     H 7403   9.228   6.396   0.909 -1.7467 -3.4355 -0.5589
  814MOL0     H 7404   9.015   6.412   0.806  0.9676  0.0454  0.5375
  814MOL0     H 7405   8.939   6.469   0.953 -0.2816 -0.0741  0.2645
  814MOL0     H 7406   9.067   6.201   0.929 -1.5468 -0.4598 -4.0497
  814MOL0     H 7407   8.964   6.261   1.062 -5.4073  1.9274 -1.1095
  814MOL0     H 7408   8.898   6.090   0.886  0.1913  0.9946  1.9000
  814MOL0     H 7409   8.825   6.232   0.798  3.8236  0.7281 -1.3646
  814MOL0     H 7410   8.659   6.084   0.747 -0.6503  0.0747 -0.8871
  814MOL0     H 7411   8.431   6.078   0.682 -2.8909 -1.5014  1.4711
  814MOL0     H 7412   8.052   6.307   0.505 -0.6402  0.3450 -1.0893
  814MOL0     H 7413   7.820   6.287   0.432 -0.9215  1.1942  0.8244
  814MOL0     H 7414   7.597   6.159   0.339  2.0457 -1.0629  0.5988
  814MOL0     H 7415   7.579   6.266   0.476 -0.7220 -0.0989  0.6033
  814MOL0     H 7416   7.377   6.132   0.556 -1.0623  1.2513 -0.1944
  814MOL0     H 7417   7.410   6.014   0.424 -1.0218  0.4687 -0.0140
  814MOL0     H 7418   7.393   6.241   0.268  1.7927 -1.3353  0.4029
  814MOL0     H 7419   7.331   6.317   0.411 -0.7372  0.3727 -1.2176
  814MOL0     H 7420   7.202   6.053   0.308  2.0137  0.6647  0.8772
  814MOL0     H 7421   7.152   6.147   0.443  2.4733 -3.1540  1.1007
  814MOL0     H 7422   7.182   6.267   0.170  1.3955  0.1828  1.5485
  814MOL0     H 7423   7.105   6.336   0.303 -1.5253 -1.5100  1.5347
  814MOL0     H 7424   7.007   6.092   0.143 -2.7828  1.5182 -3.6838
  814MOL0     H 7425   6.946   6.246   0.126  4.6678 -1.9176 -2.6119
  814MOL0     H 7426   6.786   6.114   0.271 -1.1850  3.0602  0.4535
  814MOL0     H 7427   6.907   6.087   0.396  1.3925 -2.2630 -1.7170
  814MOL0     H 7428   6.839   6.357   0.317  2.1169 -2.2262 -3.5091
  814MOL0     H 7429   6.928   6.306   0.466 -0.4905 -3.6278  1.4489
  814MOL0     H 7430   7.787   5.917   0.677  1.6796 -2.5675 -3.0057
  814MOL0     H 7431   7.992   5.973   0.770  0.9699 -1.9321 -2.2478
  814MOL0     H 7432   8.324   6.302   1.028  2.2957  2.3533  0.5059
  814MOL0     H 7433   8.542   6.305   1.106 -1.0622  3.6245 -1.1626
  814MOL0     H 7434   9.612   7.272   1.571  1.0362  0.3556  1.5525
  814MOL0     H 7435   9.743   7.447   1.671  0.8043 -1.4111  1.1420
  814MOL0     H 7436   9.739   7.928   1.824 -1.7477  0.9067  3.6688
  814MOL0     H 7437   9.935   8.090   1.915  0.3773 -0.1332  0.9466
  814MOL0     H 7438  10.244   8.036   1.895 -1.0320 -2.0728 -0.9610
  814MOL0     H 7439  10.261   7.875   1.972  1.3516 -1.0159  1.5276
  814MOL0     H 7440  10.341   8.119   2.139  0.4687  0.1453  0.7381
  814MOL0     H 7441  10.391   7.958   2.160 -0.1280 -0.4515 -0.0101
  814MOL0     H 7442  10.438   8.154   1.928 -1.5576 -0.1077  0.2255
  814MOL0     H 7443  10.505   7.991   1.917  0.5157 -0.1509  0.2215
  814MOL0     H 7444  10.675   8.162   1.988  1.4658  1.3313  3.0802
  814MOL0     H 7445  10.571   8.181   2.133 -1.2563 -1.3759  2.7617
  814MOL0     H 7446  10.769   7.817   2.228  2.3177  1.8212  2.4959
  814MOL0     H 7447  10.095   7.774   2.128  2.1923 -0.1514 -2.0014
  814MOL0     H 7448   9.925   7.616   2.054  3.3410  0.9693  0.3430
  815MOL0     O 7449   9.006   5.108   4.003  0.4359 -0.4153  0.0152
  815MOL0     C 7450   9.119   5.067   4.024  0.1071  0.3205 -0.2483
  815MOL0     O 7451   9.157   4.964   4.109  0.4170  0.0090  0.5826
  815MOL0     C 7452   9.052   4.914   4.179 -1.3227  0.8520 -0.0661
  815MOL0     C 7453   9.010   4.783   4.148 -0.0890  0.7019  0.2166
  815MOL0     C 7454   8.928   4.708   4.235  0.8447  0.0304 -0.3393
  815MOL0     C 7455   8.861   4.767   4.346 -0.1310 -0.3893 -0.4709
  815MOL0     O 7456   8.758   4.696   4.411 -0.2725  0.0648 -0.7728
  815MOL0     C 7457   8.661   4.766   4.480 -0.1855 -0.2987 -0.4217
  815MOL0     C 7458   8.530   4.684   4.481 -0.2794 -0.0157  0.1051
  815MOL0     C 7459   8.540   4.560   4.574  0.5423 -0.9247  0.2111
  815MOL0     C 7460   8.528   4.593   4.727 -0.0535 -0.0036  0.0845
  815MOL0     C 7461   8.564   4.465   4.802 -0.4287  0.2938  0.5395
  815MOL0     C 7462   8.510   4.323   4.757  0.0192  0.2416 -0.7010
  815MOL0     C 7463   8.360   4.312   4.755  0.1816  1.1294  0.0005
  815MOL0     C 7464   8.327   4.182   4.690  0.4157  0.3098  0.1829
  815MOL0     N 7465   8.206   4.124   4.763 -0.0497  0.2869 -0.3725
  815MOL0     C 7466   8.080   4.171   4.747 -0.3380  0.1519  0.8138
  815MOL0     C 7467   8.000   4.112   4.835  0.0174  0.2800  0.4952
  815MOL0     C 7468   7.856   4.129   4.851 -0.8190  0.6327 -0.1021
  815MOL0     C 7469   7.776   4.028   4.779  1.0261 -0.4610  0.3045
  815MOL0     C 7470   7.621   4.026   4.815 -1.1855  0.0750  0.0798
  815MOL0     C 7471   7.539   4.138   4.756 -0.0709 -0.5949  0.2733
  815MOL0     O 7472   7.405   4.110   4.810 -0.5172  0.6068 -0.8178
  815MOL0     C 7473   7.310   4.144   4.720  0.9150  0.2464  0.1290
  815MOL0     C 7474   7.247   4.037   4.653  0.4042 -0.7286 -0.4626
  815MOL0     C 7475   7.162   4.063   4.550  0.1077  0.3270 -0.0113
  815MOL0     C 7476   7.110   4.182   4.521 -0.5338  0.2858 -0.1603
  815MOL0     C 7477   7.006   4.187   4.417 -0.2385  0.3860  0.3035
  815MOL0     O 7478   6.933   4.067   4.408 -0.8283  0.2841 -0.2166
  815MOL0     C 7479   6.820   4.072   4.328 -0.7013  0.1790 -0.5970
  815MOL0     C 7480   6.803   3.983   4.223 -0.5787 -0.9156 -0.2203
  815MOL0     C 7481   6.690   4.005   4.142  0.1972  0.4482 -0.5171
  815MOL0     C 7482   6.599   4.112   4.145 -1.1177  0.6426 -0.2054
  815MOL0     O 7483   6.488   4.107   4.064  0.0230 -0.2074 -0.1562
  815MOL0     C 7484   6.433   4.234   4.023 -0.7451  0.1989  0.1731
  815MOL0     C 7485   6.344   4.202   3.910 -0.2328  0.2390  0.9646
  815MOL0     C 7486   6.214   4.145   3.953  0.2368 -0.6878  0.3159
  815MOL0     C 7487   6.136   4.101   3.827 -0.5345  0.0310  0.2198
  815MOL0     C 7488   5.993   4.058   3.863  0.0406 -0.3389 -0.3636
  815MOL0     C 7489   5.924   3.964   3.762 -0.2659 -0.3258 -0.0378
  815MOL0     C 7490   5.787   3.908   3.804 -0.2726  0.2678 -0.3103
  815MOL0     C 7491   5.676   4.002   3.850  0.2807 -0.2595 -0.4624
  815MOL0    Cl 7492   5.608   4.076   3.713 -0.2428  0.0016 -0.0136
  815MOL0     C 7493   6.613   4.193   4.267  1.1486  0.4291  0.2260
  815MOL0     C 7494   6.724   4.174   4.354 -0.6369 -0.2047  0.0337
  815MOL0     O 7495   6.995   4.283   4.341 -0.5277  0.4808 -0.0568
  815MOL0     C 7496   7.157   4.291   4.589  0.1383 -1.0364 -0.0378
  815MOL0     C 7497   7.258   4.278   4.683  0.1054  0.3872  0.1517
  815MOL0     N 7498   8.079   4.034   4.916  0.0392  0.1170  0.6107
  815MOL0     N 7499   8.204   4.041   4.869 -0.7110  0.8800  0.0753
  815MOL0     C 7500   8.902   4.901   4.376 -0.8527  0.5660 -0.5641
  815MOL0     C 7501   8.990   4.972   4.292 -0.8549 -0.4309 -0.0597
  815MOL0     C 7502   9.227   5.145   3.952  0.6670 -0.1173 -1.2801
  815MOL0     C 7503   9.234   5.280   3.934 -0.1646  0.4385 -0.2460
  815MOL0     C 7504   9.342   5.334   3.860  0.7491 -0.3192 -0.6256
  815MOL0     C 7505   9.440   5.257   3.797 -0.0093 -0.3060  0.7903
  815MOL0     O 7506   9.542   5.316   3.732  0.7306 -0.8651  0.2967
  815MOL0     C 7507   9.547   5.287   3.593  0.4329 -0.4686 -0.1270
  815MOL0     C 7508   9.441   5.362   3.512  0.3117  0.0834 -0.1804
  815MOL0     C 7509   9.449   5.513   3.527  0.0393 -0.7344  0.5962
  815MOL0     C 7510   9.334   5.588   3.463 -0.6294  0.7773 -1.1214
  815MOL0     C 7511   9.350   5.597   3.312 -0.7093 -0.1048 -0.5024
  815MOL0     C 7512   9.363   5.589   3.192 -0.2976 -0.5883  0.1139
  815MOL0     C 7513   9.436   5.122   3.827 -0.7432  0.5281 -0.8328
  815MOL0     C 7514   9.340   5.072   3.912  1.4642  0.3202 -0.6205
  815MOL0     H 7515   9.047   4.740   4.055  2.0655 -0.4797  1.5200
  815MOL0     H 7516   8.910   4.603   4.218 -0.0610 -0.0012  0.6782
  815MOL0     H 7517   8.642   4.855   4.419 -0.0400 -0.2008 -0.3248
  815MOL0     H 7518   8.683   4.803   4.581 -0.1374  2.8333 -1.4662
  815MOL0     H 7519   8.506   4.647   4.381 -1.2650  1.3518 -0.1986
  815MOL0     H 7520   8.447   4.753   4.503 -3.8605 -3.9520  0.2424
  815MOL0     H 7521   8.632   4.503   4.556  1.8467  0.9944  0.4575
  815MOL0     H 7522   8.451   4.503   4.546  1.1283 -2.1272  0.7384
  815MOL0     H 7523   8.596   4.675   4.752  0.5179 -1.0275  2.0994
  815MOL0     H 7524   8.423   4.611   4.754  0.0995  1.2683 -0.1023
  815MOL0     H 7525   8.537   4.491   4.905  2.0705 -0.7691  1.5249
  815MOL0     H 7526   8.672   4.452   4.796 -0.7258 -2.2858 -0.4156
  815MOL0     H 7527   8.540   4.266   4.845  3.9954  0.2494 -1.8254
  815MOL0     H 7528   8.553   4.283   4.664  1.8687  0.2896  0.0980
  815MOL0     H 7529   8.327   4.312   4.859 -1.7433 -4.9300 -0.2465
  815MOL0     H 7530   8.310   4.396   4.704  0.8891 -0.7245 -4.2047
  815MOL0     H 7531   8.404   4.105   4.700  1.0458  0.4182 -2.8787
  815MOL0     H 7532   8.311   4.194   4.583  1.3882 -0.3323 -0.0417
  815MOL0     H 7533   8.040   4.237   4.671 -0.3672  2.3276  2.6088
  815MOL0     H 7534   7.824   4.229   4.817 -0.6635  0.5603 -0.4659
  815MOL0     H 7535   7.831   4.122   4.957  0.2965  2.2506  0.3133
  815MOL0     H 7536   7.817   3.932   4.812  0.6404 -0.7422 -0.0157
  815MOL0     H 7537   7.795   4.046   4.673  1.9733  0.4248  0.6151
  815MOL0     H 7538   7.583   3.926   4.791 -1.5680  0.6394 -1.9145
  815MOL0     H 7539   7.610   4.034   4.923  1.5830 -0.3486  0.4564
  815MOL0     H 7540   7.549   4.144   4.648 -0.0140 -0.5702  0.2794
  815MOL0     H 7541   7.583   4.234   4.785  0.2835  0.2133 -2.7011
  815MOL0     H 7542   7.284   3.935   4.666  0.0107 -0.6123  2.3244
  815MOL0     H 7543   7.118   3.974   4.505 -1.0736  1.3444 -0.9577
  815MOL0     H 7544   6.886   3.918   4.198  0.8233  1.1684 -1.2610
  815MOL0     H 7545   6.693   3.944   4.052 -1.4781  0.3502 -0.5353
  815MOL0     H 7546   6.521   4.287   3.986  0.3919 -0.6971  1.4575
  815MOL0     H 7547   6.383   4.284   4.106 -2.6196  0.3634 -0.9937
  815MOL0     H 7548   6.382   4.122   3.846  2.2405  1.4090  0.8560
  815MOL0     H 7549   6.339   4.292   3.849  3.9699  0.7454  1.0953
  815MOL0     H 7550   6.152   4.215   4.009  1.0144  1.5720 -1.4805
  815MOL0     H 7551   6.228   4.057   4.017  0.0566 -1.2969 -0.4627
  815MOL0     H 7552   6.117   4.198   3.781 -0.5108  1.6258  3.2996
  815MOL0     H 7553   6.191   4.026   3.770  0.8511  1.4513 -0.3774
  815MOL0     H 7554   5.933   4.149   3.866  0.2755 -0.1437 -1.1692
  815MOL0     H 7555   5.989   4.007   3.959  0.5473  1.5302  0.7155
  815MOL0     H 7556   5.986   3.875   3.745  0.7060  0.4588 -0.7382
  815MOL0     H 7557   5.918   4.019   3.667  0.6527  2.9125  1.6396
  815MOL0     H 7558   5.750   3.854   3.717 -0.9584  0.7373 -0.3138
  815MOL0     H 7559   5.805   3.841   3.889  0.8852 -0.8132 -1.3763
  815MOL0     H 7560   5.712   4.064   3.933 -1.6091 -1.4131  1.3213
  815MOL0     H 7561   5.584   3.956   3.887  2.0400 -1.4477  2.8878
  815MOL0     H 7562   6.544   4.276   4.278  0.4509 -0.4104  3.0959
  815MOL0     H 7563   6.747   4.241   4.436  3.2285  0.8655 -1.7233
  815MOL0     H 7564   7.122   4.392   4.569  1.7940 -0.9975 -3.3590
  815MOL0     H 7565   7.311   4.363   4.725  2.3775 -1.7816  1.9888
  815MOL0     H 7566   8.853   4.957   4.455  3.5073  3.3272  0.5720
  815MOL0     H 7567   9.010   5.076   4.317 -0.8084 -0.1367 -1.2370
  815MOL0     H 7568   9.151   5.342   3.966 -0.0039  0.5151  0.0303
  815MOL0     H 7569   9.336   5.443   3.858  1.3535 -0.1837  1.9114
  815MOL0     H 7570   9.534   5.178   3.593 -1.4333 -0.2950  1.2082
  815MOL0     H 7571   9.642   5.314   3.546 -0.2105  1.9282 -0.1905
  815MOL0     H 7572   9.438   5.347   3.403 -1.0893 -1.6246  0.0446
  815MOL0     H 7573   9.340   5.334   3.544  0.9010 -2.3271 -0.2551
  815MOL0     H 7574   9.541   5.559   3.487 -2.7933  2.5334 -2.9978
  815MOL0     H 7575   9.432   5.537   3.632 -0.9014 -0.0739  0.3042
  815MOL0     H 7576   9.240   5.537   3.487 -2.1016  2.6649 -2.6344
  815MOL0     H 7577   9.331   5.689   3.504  2.6019  0.2097  0.9562
  815MOL0     H 7578   9.379   5.576   3.087 -0.7746 -1.1003  0.1014
  815MOL0     H 7579   9.511   5.050   3.794 -0.9088  0.3163 -0.7498
  815MOL0     H 7580   9.352   4.967   3.936 -2.7010 -0.4998 -1.4097
  816MOL0     O 7581   3.659   6.512   7.769  0.5087 -0.6001  0.3025
  816MOL0     C 7582   3.710   6.420   7.713 -0.3400 -0.3567  0.0852
  816MOL0     O 7583   3.636   6.327   7.650 -0.1547  0.4233  0.0382
  816MOL0     C 7584   3.499   6.333   7.659  0.2480  0.3032 -0.9584
  816MOL0     C 7585   3.422   6.273   7.763 -0.4265 -0.8090 -0.2076
  816MOL0     C 7586   3.279   6.264   7.754 -0.9193  0.4705 -0.0498
  816MOL0     C 7587   3.206   6.326   7.651  0.3017  1.3151 -0.4328
  816MOL0     O 7588   3.074   6.298   7.668  0.5964  0.4143  0.1385
  816MOL0     C 7589   2.980   6.337   7.566 -1.0130 -0.5122 -0.2559
  816MOL0     C 7590   2.906   6.466   7.623  0.5824 -0.3791 -0.0141
  816MOL0     C 7591   3.009   6.587   7.619  0.6801 -0.2121  0.0776
  816MOL0     C 7592   2.935   6.719   7.644 -0.3478 -0.4227  0.4058
  816MOL0     C 7593   3.038   6.829   7.604  0.1831  0.9435 -1.2400
  816MOL0     C 7594   3.041   6.845   7.454 -0.0182  0.7988  1.0020
  816MOL0     C 7595   3.094   6.987   7.413  0.7067 -0.0535 -0.3962
  816MOL0     C 7596   2.990   7.089   7.444  0.4010 -0.7011  0.6654
  816MOL0     N 7597   2.861   7.077   7.374 -0.4741  0.1459 -0.8150
  816MOL0     C 7598   2.751   7.017   7.434 -1.5942  0.1752 -0.1901
  816MOL0     C 7599   2.669   6.990   7.332  0.1378  0.4890 -0.7926
  816MOL0     C 7600   2.530   6.934   7.356  0.7501  0.3377 -0.3704
  816MOL0     C 7601   2.465   6.899   7.224  0.4609  0.6751  0.4954
  816MOL0     C 7602   2.318   6.858   7.254 -0.1905  0.0255  0.1708
  816MOL0     C 7603   2.227   6.885   7.129 -0.8383  0.2495  0.4826
  816MOL0     O 7604   2.099   6.835   7.166  0.0199  0.0700 -0.1000
  816MOL0     C 7605   2.009   6.919   7.232 -0.3156  0.1306 -0.3683
  816MOL0     C 7606   2.044   7.045   7.287  0.9299 -1.3648  0.0807
  816MOL0     C 7607   1.942   7.121   7.352 -0.5170 -0.0572  0.9532
  816MOL0     C 7608   1.811   7.070   7.361  0.0026 -0.2473  0.3193
  816MOL0     C 7609   1.715   7.129   7.453 -0.5311 -0.2105  0.1034
  816MOL0     O 7610   1.585   7.105   7.429  0.2163  0.3697 -0.5436
  816MOL0     C 7611   1.496   7.166   7.520 -0.0577  1.2018 -0.5555
  816MOL0     C 7612   1.434   7.072   7.606  0.4750  0.8144 -0.0048
  816MOL0     C 7613   1.349   7.114   7.702 -0.2897  0.2007 -0.7890
  816MOL0     C 7614   1.333   7.248   7.724  0.2173 -0.0499  0.1592
  816MOL0     O 7615   1.242   7.301   7.816 -0.3058  0.2137 -0.3033
  816MOL0     C 7616   1.104   7.255   7.824 -0.4985  0.3763 -0.4618
  816MOL0     C 7617   1.028   7.325   7.707  0.0571 -0.3268  0.2284
  816MOL0     C 7618   0.881   7.315   7.737  0.6051  0.1722 -0.3435
  816MOL0     C 7619   0.807   7.402   7.642  0.0396  0.2792  0.0974
  816MOL0     C 7620   0.792   7.542   7.698  0.1193 -0.2055  0.7114
  816MOL0     C 7621   0.718   7.633   7.592  0.1389 -0.3506  1.0380
  816MOL0     C 7622   0.663   7.761   7.650 -0.1166 -0.3365 -0.0934
  816MOL0     C 7623   0.572   7.844   7.553 -0.1612 -0.6409 -0.0020
  816MOL0    Cl 7624   0.666   7.873   7.401 -0.4185 -0.1931 -0.3616
  816MOL0     C 7625   1.397   7.343   7.642 -0.1054  0.4144  0.3851
  816MOL0     C 7626   1.462   7.297   7.530  0.4129 -1.4478 -0.6352
  816MOL0     O 7627   1.757   7.188   7.553  0.0704 -0.0600  0.1248
  816MOL0     C 7628   1.773   6.950   7.298 -0.8972  0.4586 -0.2072
  816MOL0     C 7629   1.873   6.881   7.237  0.2415 -0.2346 -0.1413
  816MOL0     N 7630   2.740   7.024   7.215  1.1820  0.0058  0.0767
  816MOL0     N 7631   2.848   7.085   7.240  0.6729 -0.1605  0.0124
  816MOL0     C 7632   3.275   6.396   7.556  0.5292  0.0431  0.5996
  816MOL0     C 7633   3.417   6.403   7.568  0.0746 -0.4237  0.2186
  816MOL0     C 7634   3.857   6.438   7.672 -0.1962  1.2517  0.1980
  816MOL0     C 7635   3.903   6.347   7.582  0.7153  0.5176 -0.2163
  816MOL0     C 7636   4.042   6.341   7.567  0.6436  0.6703 -0.0080
  816MOL0     C 7637   4.124   6.434   7.630 -1.1563 -0.0792  0.0816
  816MOL0     O 7638   4.262   6.444   7.620 -0.3197 -0.3508  0.0912
  816MOL0     C 7639   4.336   6.322   7.602  0.3702  0.3117  0.0785
  816MOL0     C 7640   4.487   6.359   7.585 -0.2161  0.0693 -0.5483
  816MOL0     C 7641   4.572   6.222   7.598 -0.0177 -0.0545 -0.1622
  816MOL0     C 7642   4.722   6.251   7.583 -0.3855 -0.8550 -0.3176
  816MOL0     C 7643   4.799   6.130   7.576  0.4350  0.3842 -0.1840
  816MOL0     C 7644   4.861   6.030   7.567  0.3281 -0.4979 -0.1807
  816MOL0     C 7645   4.074   6.530   7.713  0.3400 -0.2130 -0.0482
  816MOL0     C 7646   3.936   6.525   7.738 -0.8354 -0.1532  0.4229
  816MOL0     H 7647   3.460   6.203   7.837 -1.9810 -1.4458  0.0230
  816MOL0     H 7648   3.229   6.207   7.832 -2.0711 -2.5043 -2.7628
  816MOL0     H 7649   2.913   6.251   7.552  1.5120 -2.4742 -1.0355
  816MOL0     H 7650   3.037   6.357   7.475 -1.3997  1.3560 -0.1316
  816MOL0     H 7651   2.876   6.441   7.725 -1.5497 -1.8178 -0.9326
  816MOL0     H 7652   2.828   6.491   7.551 -1.0552 -2.5806  0.8767
  816MOL0     H 7653   3.047   6.589   7.517 -2.4816  3.8360 -1.2701
  816MOL0     H 7654   3.093   6.576   7.688  0.4141  1.6323  0.7426
  816MOL0     H 7655   2.837   6.728   7.596 -1.2724  0.8000  2.3841
  816MOL0     H 7656   2.919   6.726   7.752 -1.0686  0.7739  0.2444
  816MOL0     H 7657   3.134   6.812   7.652 -1.2362 -0.4899  1.2447
  816MOL0     H 7658   3.005   6.922   7.651 -0.7976  2.2810 -4.2882
  816MOL0     H 7659   2.936   6.830   7.428  0.1493 -0.6226  1.0751
  816MOL0     H 7660   3.101   6.765   7.411  0.1855  0.8945  1.1033
  816MOL0     H 7661   3.184   7.009   7.471 -0.5500 -0.3764  1.7889
  816MOL0     H 7662   3.117   6.979   7.306  1.6734 -2.6573 -0.0719
  816MOL0     H 7663   3.041   7.181   7.413 -1.0209 -0.4732 -1.1791
  816MOL0     H 7664   2.974   7.103   7.551  0.2116 -0.0180  0.5519
  816MOL0     H 7665   2.758   6.991   7.540  1.8458  1.4768  0.0554
  816MOL0     H 7666   2.464   7.005   7.407 -0.7365 -1.4182  0.2233
  816MOL0     H 7667   2.531   6.839   7.409 -0.4557 -0.7090 -2.1308
  816MOL0     H 7668   2.522   6.816   7.182 -3.1262 -0.1477 -3.4841
  816MOL0     H 7669   2.467   6.981   7.153  0.8488 -0.2595 -0.6021
  816MOL0     H 7670   2.317   6.749   7.264 -0.9218  0.0709  0.6018
  816MOL0     H 7671   2.286   6.914   7.342  0.1187 -0.1444  0.3971
  816MOL0     H 7672   2.260   6.822   7.047 -0.6341  1.1851 -0.1726
  816MOL0     H 7673   2.225   6.991   7.103  0.2397  0.2906  0.5224
  816MOL0     H 7674   2.144   7.086   7.294 -0.6887  2.9472  1.4459
  816MOL0     H 7675   1.960   7.219   7.395 -0.5650  0.2939  0.1990
  816MOL0     H 7676   1.440   6.965   7.589 -0.7651  0.4639  1.4518
  816MOL0     H 7677   1.294   7.042   7.762  1.5279 -0.4800  0.1266
  816MOL0     H 7678   1.072   7.285   7.924  2.3562 -0.2889  0.7553
  816MOL0     H 7679   1.101   7.146   7.815 -2.2812 -0.1358  3.8185
  816MOL0     H 7680   1.056   7.282   7.610  1.7482  0.0262  0.5342
  816MOL0     H 7681   1.068   7.427   7.705  0.1143 -0.3517 -1.4024
  816MOL0     H 7682   0.872   7.345   7.842  3.3671  1.9217 -0.5152
  816MOL0     H 7683   0.854   7.209   7.728 -2.0266  0.6740  0.5926
  816MOL0     H 7684   0.868   7.398   7.551  1.5029 -3.3536  1.0813
  816MOL0     H 7685   0.714   7.350   7.617  0.1026 -0.2435  0.9291
  816MOL0     H 7686   0.882   7.601   7.719  0.0912  0.3964 -0.7850
  816MOL0     H 7687   0.729   7.540   7.788  1.2706 -2.0856  1.5324
  816MOL0     H 7688   0.630   7.580   7.555 -0.9337  1.5239  0.7822
  816MOL0     H 7689   0.786   7.647   7.508 -0.9918 -2.1951 -0.2666
  816MOL0     H 7690   0.599   7.740   7.736  1.5461  1.7242  1.7713
  816MOL0     H 7691   0.736   7.833   7.688 -1.0659  0.6230 -0.0305
  816MOL0     H 7692   0.544   7.942   7.593  0.0298 -1.0916  1.2783
  816MOL0     H 7693   0.485   7.780   7.534  1.5605 -3.1823  0.1408
  816MOL0     H 7694   1.401   7.450   7.658 -0.7212  0.5968 -0.5816
  816MOL0     H 7695   1.505   7.369   7.461  0.5500 -0.3700  0.5326
  816MOL0     H 7696   1.673   6.908   7.303 -0.4655 -0.4645  3.5321
  816MOL0     H 7697   1.837   6.783   7.206  1.0958 -0.3556 -0.7911
  816MOL0     H 7698   3.233   6.450   7.473 -0.4390  2.0304  2.2950
  816MOL0     H 7699   3.466   6.462   7.492  1.8506  0.1904  1.7515
  816MOL0     H 7700   3.849   6.271   7.526 -2.7623  4.0234 -2.1394
  816MOL0     H 7701   4.086   6.270   7.498  1.0587 -0.3389  1.2599
  816MOL0     H 7702   4.296   6.265   7.518  0.0757 -0.5933  0.8250
  816MOL0     H 7703   4.331   6.256   7.689  3.9168 -0.5066 -0.1577
  816MOL0     H 7704   4.500   6.405   7.486  0.0042 -0.9787 -1.0221
  816MOL0     H 7705   4.521   6.431   7.660 -0.5255  0.7000 -1.0057
  816MOL0     H 7706   4.537   6.159   7.517 -1.6640  1.4797 -0.7136
  816MOL0     H 7707   4.553   6.175   7.695 -1.8543  0.1119 -0.4187
  816MOL0     H 7708   4.728   6.303   7.487 -3.3108  0.2461 -0.0329
  816MOL0     H 7709   4.760   6.321   7.659 -4.8084  3.9772 -1.9179
  816MOL0     H 7710   4.895   5.929   7.572  1.8033 -0.0148  0.3066
  816MOL0     H 7711   4.141   6.600   7.761 -0.0198 -0.8508  1.4478
  816MOL0     H 7712   3.887   6.605   7.792 -2.0984 -2.0081  2.2122
  817MOL0     O 7713   0.658   5.448   4.059  0.0204 -0.2317  0.7421
  817MOL0     C 7714   0.626   5.349   4.127  0.0278 -0.3615  0.0618
  817MOL0     O 7715   0.693   5.229   4.126 -0.2975 -0.5651  0.8168
  817MOL0     C 7716   0.812   5.212   4.065  0.3236 -0.5982  0.3401
  817MOL0     C 7717   0.858   5.276   3.949 -0.0574  0.6508  0.1343
  817MOL0     C 7718   0.992   5.264   3.899 -0.1785 -0.2814 -0.7956
  817MOL0     C 7719   1.078   5.188   3.975  0.4850 -0.0867  0.3384
  817MOL0     O 7720   1.203   5.177   3.920  0.6257 -0.0415 -0.3729
  817MOL0     C 7721   1.314   5.194   4.020 -0.1608  0.2137 -0.3503
  817MOL0     C 7722   1.449   5.156   3.961 -0.4522  0.2653 -0.4742
  817MOL0     C 7723   1.495   5.246   3.846  0.6968  0.6515 -0.1315
  817MOL0     C 7724   1.638   5.217   3.819  1.1424 -0.9018  0.3459
  817MOL0     C 7725   1.697   5.328   3.732  0.0907  0.3061  0.7547
  817MOL0     C 7726   1.839   5.296   3.688  0.8022  0.2734  0.8083
  817MOL0     C 7727   1.892   5.392   3.582 -0.2114 -0.1943  0.3052
  817MOL0     C 7728   2.022   5.335   3.525  0.7021 -0.2737  0.2151
  817MOL0     N 7729   2.141   5.351   3.605  0.6680  0.3215 -0.5091
  817MOL0     C 7730   2.216   5.245   3.660 -0.2378  0.2450  0.8213
  817MOL0     C 7731   2.303   5.301   3.746  0.9490  0.1191 -0.7544
  817MOL0     C 7732   2.423   5.234   3.807 -0.0646 -0.0422 -0.1501
  817MOL0     C 7733   2.448   5.279   3.945 -0.0044 -0.7614 -0.6346
  817MOL0     C 7734   2.340   5.240   4.044  0.4523 -0.7178  0.3612
  817MOL0     C 7735   2.336   5.339   4.158 -0.0134 -0.7083 -0.0633
  817MOL0     O 7736   2.286   5.280   4.280  0.1007 -0.2351  0.3413
  817MOL0     C 7737   2.150   5.266   4.310 -0.5717  0.0925  0.8801
  817MOL0     C 7738   2.048   5.298   4.224  0.4450 -0.4876 -0.9768
  817MOL0     C 7739   1.917   5.260   4.249 -0.5650  0.3541 -0.8818
  817MOL0     C 7740   1.884   5.194   4.374  0.2231  0.1481 -0.2923
  817MOL0     C 7741   1.739   5.162   4.406  0.0015  0.1107  1.0429
  817MOL0     O 7742   1.648   5.185   4.302 -0.2563 -0.2088  0.5666
  817MOL0     C 7743   1.523   5.200   4.344  0.3709 -0.2225 -0.9571
  817MOL0     C 7744   1.466   5.325   4.341 -0.1764 -0.6214 -0.8014
  817MOL0     C 7745   1.325   5.336   4.367  0.3539 -0.3759 -0.1551
  817MOL0     C 7746   1.250   5.217   4.403  0.9027 -0.4162  0.6729
  817MOL0     O 7747   1.118   5.235   4.436 -0.4260 -0.3953 -0.0081
  817MOL0     C 7748   1.058   5.146   4.527 -0.3149  0.3107 -0.2519
  817MOL0     C 7749   0.935   5.205   4.592 -0.4551  0.6501  0.1460
  817MOL0     C 7750   0.819   5.238   4.489 -1.0752 -0.1326 -0.7495
  817MOL0     C 7751   0.730   5.339   4.563 -0.7491 -0.1821  0.4459
  817MOL0     C 7752   0.596   5.280   4.617 -0.7786 -0.4710  0.9902
  817MOL0     C 7753   0.517   5.408   4.661 -0.1375 -0.4301 -0.4641
  817MOL0     C 7754   0.391   5.377   4.741 -0.5560  0.6027  0.3507
  817MOL0     C 7755   0.405   5.265   4.851  0.3892  0.3377 -0.3529
  817MOL0    Cl 7756   0.237   5.265   4.910 -0.3248 -0.0690 -0.4137
  817MOL0     C 7757   1.306   5.090   4.412 -0.2700 -0.0850  0.3570
  817MOL0     C 7758   1.443   5.087   4.384 -0.2279 -0.2508 -0.7518
  817MOL0     O 7759   1.712   5.122   4.519 -0.5860 -0.4006  0.0832
  817MOL0     C 7760   1.991   5.160   4.462  0.5762 -0.1068  0.3774
  817MOL0     C 7761   2.123   5.195   4.424 -0.6533 -0.0967  0.9402
  817MOL0     N 7762   2.270   5.435   3.754 -0.7133 -1.0410 -0.1004
  817MOL0     N 7763   2.188   5.466   3.667  0.6524 -0.8629  0.1149
  817MOL0     C 7764   1.034   5.126   4.090  0.6493  0.0692  1.2959
  817MOL0     C 7765   0.905   5.144   4.134 -0.7636  0.3022 -0.0765
  817MOL0     C 7766   0.500   5.352   4.220  0.0000 -0.0127  0.4752
  817MOL0     C 7767   0.427   5.469   4.253 -0.7208 -0.1013  0.1280
  817MOL0     C 7768   0.314   5.459   4.338 -0.2613  0.1032  0.7671
  817MOL0     C 7769   0.251   5.342   4.379  0.3652  0.5897 -0.5641
  817MOL0     O 7770   0.141   5.340   4.453  0.5900 -0.1069 -0.3671
  817MOL0     C 7771   0.094   5.221   4.523 -0.1060 -0.6091 -0.0913
  817MOL0     C 7772  -0.017   5.260   4.618  0.6041 -0.1151 -1.7610
  817MOL0     C 7773  -0.048   5.152   4.723 -0.1042 -0.4221  0.1145
  817MOL0     C 7774  -0.149   5.203   4.823 -0.5567  0.4302 -0.1320
  817MOL0     C 7775  -0.114   5.307   4.921  0.1573 -0.2053 -0.6812
  817MOL0     C 7776  -0.085   5.387   5.003 -1.3412  0.2338  0.4150
  817MOL0     C 7777   0.322   5.222   4.343  0.3593  0.1667  0.3240
  817MOL0     C 7778   0.449   5.232   4.274 -0.3209 -0.7458 -0.4601
  817MOL0     H 7779   0.788   5.324   3.882  2.6140  2.4156 -1.5947
  817MOL0     H 7780   1.024   5.313   3.807  0.1115 -2.0156 -1.6691
  817MOL0     H 7781   1.295   5.138   4.112 -1.0243  3.6768  1.7695
  817MOL0     H 7782   1.324   5.298   4.053 -0.1874  0.6378 -1.6445
  817MOL0     H 7783   1.457   5.051   3.933 -0.2605 -0.9683  3.5377
  817MOL0     H 7784   1.519   5.159   4.045 -1.4673 -2.5908  0.6007
  817MOL0     H 7785   1.478   5.348   3.882  0.7132  0.7990 -0.5426
  817MOL0     H 7786   1.424   5.212   3.770  0.1588  3.0276 -0.7575
  817MOL0     H 7787   1.698   5.217   3.911  2.3464 -0.8124 -0.4150
  817MOL0     H 7788   1.662   5.118   3.779 -1.3809 -1.7895  0.8507
  817MOL0     H 7789   1.693   5.425   3.782 -0.4137  0.7569 -0.1397
  817MOL0     H 7790   1.628   5.330   3.647 -0.9031 -2.8510  1.3478
  817MOL0     H 7791   1.826   5.208   3.625 -0.0495  2.6906 -2.6906
  817MOL0     H 7792   1.917   5.295   3.764  0.8304 -2.6870  0.8366
  817MOL0     H 7793   1.825   5.390   3.495  2.6335 -0.5340 -2.0507
  817MOL0     H 7794   1.907   5.493   3.620 -1.2774 -0.2339  0.8482
  817MOL0     H 7795   2.032   5.384   3.427  0.6131 -1.7713 -0.5707
  817MOL0     H 7796   2.020   5.227   3.506  1.1914 -0.8217  2.9782
  817MOL0     H 7797   2.213   5.138   3.640 -1.3009  0.5059 -0.6008
  817MOL0     H 7798   2.510   5.253   3.743 -1.1017  1.4623 -1.1804
  817MOL0     H 7799   2.420   5.124   3.804  2.0374 -0.1581 -0.1275
  817MOL0     H 7800   2.476   5.384   3.931 -0.1344 -0.7210 -0.6011
  817MOL0     H 7801   2.534   5.232   3.992 -0.0739  0.3368  0.6595
  817MOL0     H 7802   2.243   5.255   3.996 -0.2268 -1.3962  1.4497
  817MOL0     H 7803   2.344   5.138   4.084  1.0641 -2.0598 -2.8131
  817MOL0     H 7804   2.283   5.433   4.137  1.6595 -0.0449 -1.5756
  817MOL0     H 7805   2.435   5.374   4.189 -0.2380 -0.1647  0.0662
  817MOL0     H 7806   2.079   5.341   4.129 -1.3298 -0.8718 -1.7748
  817MOL0     H 7807   1.843   5.286   4.174 -1.9785 -0.0377  0.3299
  817MOL0     H 7808   1.509   5.417   4.303  0.5265  0.6329  2.6614
  817MOL0     H 7809   1.277   5.433   4.373 -1.4504 -1.1228 -1.4074
  817MOL0     H 7810   1.124   5.118   4.610 -1.3571 -1.5645 -0.0115
  817MOL0     H 7811   1.024   5.062   4.466  2.0826 -0.6010 -0.4269
  817MOL0     H 7812   0.973   5.282   4.659 -0.9700  3.0088 -2.0767
  817MOL0     H 7813   0.891   5.128   4.656 -1.9672  1.1799 -0.2019
  817MOL0     H 7814   0.768   5.149   4.450 -1.0882 -2.0441  3.1181
  817MOL0     H 7815   0.877   5.277   4.405  1.0819 -3.6479 -1.1221
  817MOL0     H 7816   0.774   5.404   4.638 -2.0154  0.6153  0.5400
  817MOL0     H 7817   0.706   5.410   4.483  2.3441 -0.0371 -0.4865
  817MOL0     H 7818   0.631   5.216   4.699 -0.3559 -1.2537  0.2125
  817MOL0     H 7819   0.536   5.221   4.547  0.2444  0.0932 -0.4252
  817MOL0     H 7820   0.499   5.483   4.583  1.8792 -1.7217 -2.2870
  817MOL0     H 7821   0.581   5.450   4.738 -2.5263 -0.1019  1.4756
  817MOL0     H 7822   0.357   5.474   4.778 -0.4443  2.5141 -3.9155
  817MOL0     H 7823   0.304   5.352   4.679 -0.6217  0.0940  0.6428
  817MOL0     H 7824   0.462   5.296   4.940 -2.3460 -1.0214  2.0229
  817MOL0     H 7825   0.449   5.169   4.822 -0.6916 -0.0330 -0.8136
  817MOL0     H 7826   1.248   5.002   4.437  1.2644 -1.0001  0.8659
  817MOL0     H 7827   1.482   4.987   4.368 -2.1360 -0.9036 -1.6117
  817MOL0     H 7828   1.971   5.107   4.555 -1.3621  0.0311  0.0816
  817MOL0     H 7829   2.201   5.164   4.492  0.0001  0.7123  0.5641
  817MOL0     H 7830   1.102   5.060   4.144 -0.0053 -0.3373  1.6474
  817MOL0     H 7831   0.872   5.094   4.225  1.4738 -2.8756 -0.8185
  817MOL0     H 7832   0.455   5.567   4.216 -0.8232 -0.9575 -2.4207
  817MOL0     H 7833   0.269   5.555   4.362  2.5117  1.3906  1.2172
  817MOL0     H 7834   0.176   5.180   4.583 -1.4808 -1.1569  1.5005
  817MOL0     H 7835   0.040   5.155   4.455 -0.0369 -0.7033 -0.0549
  817MOL0     H 7836   0.004   5.356   4.666  2.0117 -1.4645  0.4637
  817MOL0     H 7837  -0.107   5.278   4.559 -0.5234  1.5182  0.3418
  817MOL0     H 7838   0.041   5.120   4.777  0.3444  0.8944  0.1984
  817MOL0     H 7839  -0.097   5.069   4.672  1.1311 -0.3067 -1.3126
  817MOL0     H 7840  -0.237   5.236   4.768 -1.9836 -1.8718  0.6287
  817MOL0     H 7841  -0.179   5.117   4.883 -1.4374  1.5130  1.0215
  817MOL0     H 7842  -0.084   5.467   5.074 -3.9339  0.7572 -0.0465
  817MOL0     H 7843   0.276   5.131   4.380 -0.2081  0.0529 -0.6310
  817MOL0     H 7844   0.506   5.141   4.258  0.7992 -0.3448  1.0023
  818MOL0     O 7845   9.322  10.448  10.362 -0.4845 -0.4591  0.5289
  818MOL0     C 7846   9.369  10.435  10.248 -0.1608 -0.2791  0.0577
  818MOL0     O 7847   9.314  10.376  10.140  0.0227 -0.2686  0.5331
  818MOL0     C 7848   9.197  10.313  10.142  0.4275  0.2186  0.1716
  818MOL0     C 7849   9.100  10.340  10.048 -0.9871  0.4622  0.3572
  818MOL0     C 7850   8.975  10.287  10.050  0.1539 -0.2758 -0.4739
  818MOL0     C 7851   8.946  10.199  10.154 -0.3913  0.5479  0.7232
  818MOL0     O 7852   8.828  10.127  10.155  0.0137 -0.8429  0.0559
  818MOL0     C 7853   8.734  10.176  10.253  0.5676 -0.6531  0.6110
  818MOL0     C 7854   8.662  10.062  10.324 -0.1606  1.3429  0.4415
  818MOL0     C 7855   8.581   9.971  10.228  0.1620  0.7023 -0.6490
  818MOL0     C 7856   8.461  10.044  10.168  0.6920  0.0499 -0.1181
  818MOL0     C 7857   8.373   9.965  10.078 -0.6064 -0.3372  0.9744
  818MOL0     C 7858   8.309   9.847  10.147 -0.1261  0.0752 -0.0593
  818MOL0     C 7859   8.221   9.761  10.054  1.4357 -0.9183  0.2324
  818MOL0     C 7860   8.128   9.653  10.118 -0.6704  0.4100  0.0212
  818MOL0     N 7861   8.058   9.594  10.004  0.5787  0.4884  0.1004
  818MOL0     C 7862   7.959   9.640   9.916  0.2552 -0.3747  1.0022
  818MOL0     C 7863   7.930   9.528   9.845  0.0548 -0.4508  0.3956
  818MOL0     C 7864   7.811   9.534   9.751  0.5422  0.0360 -0.7069
  818MOL0     C 7865   7.687   9.571   9.809  0.1743 -0.2140 -0.1915
  818MOL0     C 7866   7.569   9.546   9.708 -0.9801  0.0944  0.4638
  818MOL0     C 7867   7.442   9.598   9.751  0.8312  0.0107  0.0835
  818MOL0     O 7868   7.355   9.510   9.832  0.3959  0.0315  0.2510
  818MOL0     C 7869   7.223   9.543   9.846  0.2853 -0.3063 -0.0354
  818MOL0     C 7870   7.142   9.429   9.878  0.4420  0.0385  0.9103
  818MOL0     C 7871   6.999   9.446   9.895  0.0061  0.6819  1.0121
  818MOL0     C 7872   6.947   9.572   9.862  0.2015  0.4993  0.3234
  818MOL0     C 7873   6.798   9.581   9.866  0.8705 -0.3738  0.8556
  818MOL0     O 7874   6.750   9.706   9.845  0.1270  0.2068  0.3649
  818MOL0     C 7875   6.621   9.733   9.813  0.2204 -0.0336  0.0031
  818MOL0     C 7876   6.516   9.675   9.881 -0.2493  0.7351 -0.9514
  818MOL0     C 7877   6.390   9.734   9.847  0.4092  0.9430  0.3574
  818MOL0     C 7878   6.362   9.826   9.747 -0.6528 -0.4503  0.4467
  818MOL0     O 7879   6.245   9.873   9.708 -0.3813  0.3384  0.1279
  818MOL0     C 7880   6.130   9.853   9.798 -0.1797 -0.7011 -0.7374
  818MOL0     C 7881   6.153   9.941   9.927 -0.1385  0.3180 -0.0926
  818MOL0     C 7882   6.031   9.948  10.020  0.6787 -0.1303  0.1646
  818MOL0     C 7883   5.898   9.994   9.956 -0.6550 -0.8995  0.1313
  818MOL0     C 7884   5.774  10.004  10.050  0.6090  0.0883  0.6081
  818MOL0     C 7885   5.650  10.046   9.970  0.4453 -0.0859 -0.6908
  818MOL0     C 7886   5.591   9.927   9.893 -0.4701  0.2149  0.1153
  818MOL0     C 7887   5.463   9.960   9.825 -0.4318  0.0432 -0.8721
  818MOL0    Cl 7888   5.350  10.046   9.930 -0.0994 -0.1773 -0.1839
  818MOL0     C 7889   6.475   9.871   9.679 -0.5122 -0.7841 -0.0434
  818MOL0     C 7890   6.603   9.824   9.713  0.5352 -0.9117  0.4143
  818MOL0     O 7891   6.735   9.484   9.867 -0.0856 -0.9145  1.0033
  818MOL0     C 7892   7.025   9.681   9.829 -1.2793  0.0396 -0.1110
  818MOL0     C 7893   7.165   9.663   9.832 -0.5040 -0.0747  0.3667
  818MOL0     N 7894   8.011   9.422   9.881  0.6658  0.5923 -0.0669
  818MOL0     N 7895   8.087   9.462   9.977  0.8581  0.1391 -0.5553
  818MOL0     C 7896   9.039  10.174  10.256  1.0642 -0.5825  0.9785
  818MOL0     C 7897   9.158  10.234  10.249 -0.2253  0.4228  0.4941
  818MOL0     C 7898   9.500  10.505  10.226 -0.2005 -0.3429  0.4619
  818MOL0     C 7899   9.548  10.532  10.098 -0.9961 -1.2007  0.5949
  818MOL0     C 7900   9.686  10.576  10.082  0.1050 -1.0339 -0.8912
  818MOL0     C 7901   9.771  10.603  10.198  0.3558  0.4691  0.1032
  818MOL0     O 7902   9.893  10.656  10.190  0.2943 -0.0289  0.4019
  818MOL0     C 7903   9.935  10.741  10.066 -0.1573  1.1198  0.0527
  818MOL0     C 7904   9.857  10.879  10.069  0.0502 -0.2588 -0.0387
  818MOL0     C 7905   9.849  10.952  10.200  0.7932  0.0081 -0.3138
  818MOL0     C 7906   9.962  11.063  10.222  0.9926 -0.0227  0.0002
  818MOL0     C 7907  10.095  11.015  10.270  0.7076 -0.8420  0.3757
  818MOL0     C 7908  10.207  10.979  10.304 -0.2068 -0.6085  0.2791
  818MOL0     C 7909   9.716  10.566  10.323  0.2174 -0.0757 -0.4042
  818MOL0     C 7910   9.589  10.519  10.339  0.3329 -0.1798 -0.0186
  818MOL0     H 7911   9.126  10.407   9.966  0.0071 -2.6961 -2.1509
  818MOL0     H 7912   8.907  10.317   9.970 -0.1953 -1.4553 -0.6421
  818MOL0     H 7913   8.660  10.234  10.199  1.3701 -0.0160  0.1720
  818MOL0     H 7914   8.784  10.238  10.328  1.6928 -1.0150  0.1824
  818MOL0     H 7915   8.595  10.097  10.403 -1.5187 -3.1574  1.5536
  818MOL0     H 7916   8.737   9.998  10.373 -0.1912 -0.8712 -2.1584
  818MOL0     H 7917   8.556   9.881  10.285 -2.0408  2.5748  1.5640
  818MOL0     H 7918   8.644   9.930  10.148 -4.1613 -0.1127 -3.9893
  818MOL0     H 7919   8.405  10.089  10.250  1.6646 -0.7641  1.0333
  818MOL0     H 7920   8.511  10.124  10.113  0.4097  1.6374  1.8438
  818MOL0     H 7921   8.435   9.919  10.000 -2.2400 -0.9452 -0.0341
  818MOL0     H 7922   8.302  10.033  10.030  0.3168 -1.2393 -1.8570
  818MOL0     H 7923   8.245   9.899  10.219 -0.4913 -0.4752  0.0148
  818MOL0     H 7924   8.373   9.784  10.209 -1.5485  1.1723  2.7208
  818MOL0     H 7925   8.158   9.829   9.996 -0.4660 -3.6689 -1.1462
  818MOL0     H 7926   8.286   9.720   9.977  1.3148  0.4313 -0.6067
  818MOL0     H 7927   8.061   9.677  10.201  0.3083 -0.0601  0.9797
  818MOL0     H 7928   8.200   9.579  10.155 -0.3719  0.9811  0.6104
  818MOL0     H 7929   7.913   9.739   9.918 -0.7476 -0.8369  1.2674
  818MOL0     H 7930   7.787   9.438   9.703 -2.7361 -0.0204  0.7968
  818MOL0     H 7931   7.833   9.609   9.674 -1.0252  0.0213 -1.1935
  818MOL0     H 7932   7.690   9.674   9.845  0.5715 -0.5756  0.8441
  818MOL0     H 7933   7.673   9.506   9.896  0.3597  0.0968  0.0718
  818MOL0     H 7934   7.595   9.590   9.612  0.8521 -1.8981 -0.0270
  818MOL0     H 7935   7.554   9.438   9.710  1.0639 -0.3000 -1.4275
  818MOL0     H 7936   7.380   9.614   9.662  0.2282 -0.1367  0.4710
  818MOL0     H 7937   7.466   9.686   9.811  2.0823  0.2573 -0.7464
  818MOL0     H 7938   7.179   9.328   9.892  1.1156  0.4946  2.7876
  818MOL0     H 7939   6.941   9.364   9.937 -1.7052  1.8791  1.0831
  818MOL0     H 7940   6.524   9.589   9.947  1.9237  0.9544 -0.8696
  818MOL0     H 7941   6.307   9.681   9.894  1.3171  0.3481  1.3389
  818MOL0     H 7942   6.115   9.746   9.812  0.4257 -0.4074  3.8210
  818MOL0     H 7943   6.039   9.898   9.757 -0.8782 -0.0690  1.3491
  818MOL0     H 7944   6.184  10.039   9.890  0.4388 -0.4632 -1.7846
  818MOL0     H 7945   6.235   9.905   9.990 -2.4086  0.7177  3.3257
  818MOL0     H 7946   6.059  10.015  10.102  1.3513  0.1876 -0.3155
  818MOL0     H 7947   6.004   9.849  10.058 -1.6221 -1.8982 -5.0948
  818MOL0     H 7948   5.916  10.084   9.897  0.5567 -0.4645  1.1188
  818MOL0     H 7949   5.881   9.921   9.876  2.8770 -1.0800 -0.5877
  818MOL0     H 7950   5.790  10.080  10.127  1.1475  0.1038  0.4849
  818MOL0     H 7951   5.754   9.907  10.095 -0.4909  0.3151  0.6448
  818MOL0     H 7952   5.680  10.126   9.902  1.9960 -0.0048  0.0533
  818MOL0     H 7953   5.571  10.101  10.024  0.6285  0.2777 -0.7910
  818MOL0     H 7954   5.650   9.900   9.805  0.5211 -0.9696  1.0858
  818MOL0     H 7955   5.570   9.836   9.950 -1.0198 -1.9016 -3.1845
  818MOL0     H 7956   5.416   9.871   9.782 -0.7456 -0.5629  0.6534
  818MOL0     H 7957   5.480  10.031   9.744 -1.2196 -0.2642 -1.3196
  818MOL0     H 7958   6.462   9.944   9.600  3.3032 -0.1546 -0.2910
  818MOL0     H 7959   6.692   9.854   9.659 -0.7666  1.7349 -0.4302
  818MOL0     H 7960   6.983   9.776   9.797  2.5024  1.4999 -1.2599
  818MOL0     H 7961   7.221   9.756   9.832 -2.2933  1.0620 -1.2561
  818MOL0     H 7962   9.020  10.122  10.349 -1.2182  1.4734  1.7820
  818MOL0     H 7963   9.232  10.217  10.327  0.0602  0.3604  0.2133
  818MOL0     H 7964   9.488  10.509  10.011 -0.1666  1.3770 -0.7448
  818MOL0     H 7965   9.725  10.594   9.982  0.5615  1.6860 -0.3145
  818MOL0     H 7966   9.921  10.691   9.970 -0.9258 -1.2684  1.3212
  818MOL0     H 7967  10.042  10.744  10.089  0.0050 -0.4046 -0.3637
  818MOL0     H 7968   9.906  10.944   9.996 -1.0714  0.6353 -0.0208
  818MOL0     H 7969   9.758  10.861  10.026  0.2548  0.4299 -0.8188
  818MOL0     H 7970   9.855  10.873  10.275  3.6567  0.8985  0.5164
  818MOL0     H 7971   9.754  11.007  10.200 -0.7930 -2.5758 -0.5868
  818MOL0     H 7972   9.972  11.097  10.119 -0.8099 -4.0191 -1.7265
  818MOL0     H 7973   9.935  11.147  10.285  1.7109 -0.6724  1.2203
  818MOL0     H 7974  10.302  10.958  10.351 -0.4020  0.2145  1.0691
  818MOL0     H 7975   9.779  10.589  10.408  0.8976  4.8832 -1.9434
  818MOL0     H 7976   9.562  10.484  10.438  0.4919 -0.8080 -0.1886
  819MOL0     O 7977   3.909   9.911   9.475 -0.5984 -0.3177  0.5781
  819MOL0     C 7978   3.983  10.010   9.466  1.1394 -0.1159  0.2594
  819MOL0     O 7979   3.939  10.140   9.442  0.1763  0.7597 -0.8223
  819MOL0     C 7980   3.801  10.146   9.414  0.5004  0.0134 -1.1994
  819MOL0     C 7981   3.760  10.166   9.285 -0.0516  0.4918  0.4215
  819MOL0     C 7982   3.628  10.155   9.249  0.4429 -0.3020 -0.2434
  819MOL0     C 7983   3.530  10.123   9.345 -0.3509 -0.5600  0.3009
  819MOL0     O 7984   3.398  10.102   9.293 -0.8499 -0.3108 -0.3509
  819MOL0     C 7985   3.298  10.106   9.387 -0.3622 -0.2786 -0.3787
  819MOL0     C 7986   3.272  10.248   9.430  0.7007 -0.7323 -0.0977
  819MOL0     C 7987   3.184  10.260   9.562 -0.1054  0.1961  0.9124
  819MOL0     C 7988   3.268  10.234   9.688 -0.6172  0.2817  0.1635
  819MOL0     C 7989   3.173  10.233   9.810 -0.6701 -0.9034 -0.4994
  819MOL0     C 7990   3.249  10.186   9.935 -0.3601 -0.5195 -0.0600
  819MOL0     C 7991   3.376  10.252   9.958 -0.1139  0.0143 -0.5025
  819MOL0     C 7992   3.411  10.241  10.110 -0.0786  0.7084  0.3279
  819MOL0     N 7993   3.548  10.288  10.123 -0.3789  0.4897 -0.1516
  819MOL0     C 7994   3.585  10.422  10.113 -0.7957  0.0821 -0.2035
  819MOL0     C 7995   3.708  10.418  10.150 -1.4906 -0.5368 -0.5324
  819MOL0     C 7996   3.792  10.544  10.168  0.3015 -0.4514 -0.3354
  819MOL0     C 7997   3.840  10.590  10.026  0.4366  0.2894  0.4916
  819MOL0     C 7998   3.923  10.503   9.931 -0.1316 -0.8373  0.3538
  819MOL0     C 7999   4.036  10.421  10.006  0.0991  0.2422 -0.7380
  819MOL0     O 8000   4.144  10.511  10.020 -0.1143  0.3146  0.1209
  819MOL0     C 8001   4.258  10.474   9.972  0.1127 -0.0526  1.3725
  819MOL0     C 8002   4.307  10.565   9.888  0.3348 -0.6719 -0.1155
  819MOL0     C 8003   4.425  10.559   9.819  1.0325 -0.3700 -0.4067
  819MOL0     C 8004   4.502  10.447   9.819 -1.0694  0.0312 -0.4878
  819MOL0     C 8005   4.636  10.440   9.742  0.7347  0.0185  0.3857
  819MOL0     O 8006   4.707  10.323   9.761  0.2006  0.2028 -0.6701
  819MOL0     C 8007   4.826  10.296   9.694 -0.4301  0.2923 -1.1196
  819MOL0     C 8008   4.926  10.216   9.753  0.0056 -0.4941 -0.3691
  819MOL0     C 8009   5.051  10.180   9.700 -0.3344  0.0046 -0.3671
  819MOL0     C 8010   5.064  10.224   9.565 -0.2091  0.2078 -0.6998
  819MOL0     O 8011   5.166  10.189   9.486 -0.7633 -0.5269 -0.4755
  819MOL0     C 8012   5.248  10.079   9.523 -0.3494  0.1394  0.1720
  819MOL0     C 8013   5.349  10.036   9.422  0.1348  0.0498  0.0992
  819MOL0     C 8014   5.292  10.018   9.280  0.3090 -0.7261 -0.6368
  819MOL0     C 8015   5.407   9.986   9.193 -0.3724  0.9125  1.0348
  819MOL0     C 8016   5.362   9.931   9.053  0.3993  0.3750  0.2903
  819MOL0     C 8017   5.279  10.026   8.976 -0.1346  0.2285 -1.2973
  819MOL0     C 8018   5.234   9.977   8.835 -0.3383 -0.1055  0.5566
  819MOL0     C 8019   5.160  10.093   8.769 -0.0138  0.0747 -0.0153
  819MOL0    Cl 8020   5.246  10.245   8.760 -0.4842 -0.2108 -0.2017
  819MOL0     C 8021   4.969  10.300   9.498  0.3743 -0.0268 -0.2090
  819MOL0     C 8022   4.857  10.334   9.566  0.1942 -0.1044 -0.1509
  819MOL0     O 8023   4.672  10.534   9.671  0.3167  0.8036 -0.2174
  819MOL0     C 8024   4.460  10.337   9.912 -0.1714 -0.1008 -0.1244
  819MOL0     C 8025   4.330  10.352   9.981 -0.1843  0.1088  0.6956
  819MOL0     N 8026   3.758  10.287  10.163  1.0326  0.8532 -0.3297
  819MOL0     N 8027   3.650  10.212  10.155  0.6177 -0.7253  1.1593
  819MOL0     C 8028   3.569  10.121   9.484 -0.1264 -0.4234  0.8790
  819MOL0     C 8029   3.704  10.136   9.509  0.2530 -0.2951 -0.2159
  819MOL0     C 8030   4.135   9.979   9.470 -0.4623 -0.5433 -0.4670
  819MOL0     C 8031   4.228  10.089   9.472 -0.0148  0.7614  0.2483
  819MOL0     C 8032   4.368  10.070   9.486  0.0222  0.4108  0.2721
  819MOL0     C 8033   4.422   9.942   9.501 -0.2629 -0.2283 -0.6215
  819MOL0     O 8034   4.547   9.906   9.536  0.6498  0.0076  0.4786
  819MOL0     C 8035   4.647  10.010   9.554 -0.1319  0.2133 -0.6051
  819MOL0     C 8036   4.778   9.942   9.525  0.6935  0.3824  0.1302
  819MOL0     C 8037   4.795   9.917   9.376 -0.3684 -0.0038 -0.1780
  819MOL0     C 8038   4.938   9.904   9.326 -0.5912  0.0173 -0.0692
  819MOL0     C 8039   4.944   9.868   9.186  0.4284  0.4685  0.5326
  819MOL0     C 8040   4.935   9.837   9.072 -0.5114  0.5657 -0.4090
  819MOL0     C 8041   4.335   9.833   9.492  0.3595  0.2250 -1.0595
  819MOL0     C 8042   4.198   9.851   9.473 -0.1787 -0.0345  0.7109
  819MOL0     H 8043   3.830  10.155   9.203  1.8126  0.4661  1.9227
  819MOL0     H 8044   3.599  10.158   9.144 -1.4176 -0.5099  0.2260
  819MOL0     H 8045   3.313  10.036   9.470 -1.3852 -0.1522 -0.0734
  819MOL0     H 8046   3.208  10.069   9.336 -0.8762 -0.8475  0.8914
  819MOL0     H 8047   3.202  10.298   9.363 -0.4216 -1.4761  0.4805
  819MOL0     H 8048   3.363  10.309   9.433 -0.0730  0.6241 -2.1797
  819MOL0     H 8049   3.109  10.182   9.549 -3.5080  3.5671 -2.1379
  819MOL0     H 8050   3.134  10.357   9.547 -0.7620 -0.1395  0.8861
  819MOL0     H 8051   3.314  10.136   9.674  0.9210  1.2984 -2.6850
  819MOL0     H 8052   3.348  10.308   9.696 -0.0538 -0.3924  0.8662
  819MOL0     H 8053   3.100  10.151   9.801 -0.5429 -0.8023 -3.3628
  819MOL0     H 8054   3.125  10.330   9.824 -1.1525 -1.2238  0.1182
  819MOL0     H 8055   3.276  10.080   9.932  0.4920 -0.3130 -0.1130
  819MOL0     H 8056   3.180  10.199  10.018  1.3681 -0.6813  1.4587
  819MOL0     H 8057   3.460  10.200   9.911  2.6394  3.1418  0.5447
  819MOL0     H 8058   3.376  10.354   9.918  1.8974  0.6682  0.9373
  819MOL0     H 8059   3.403  10.137  10.142 -0.4513  0.5490 -0.2637
  819MOL0     H 8060   3.339  10.288  10.178  2.5196  1.4047  2.8458
  819MOL0     H 8061   3.520  10.505  10.086 -1.9213 -0.5910  0.3120
  819MOL0     H 8062   3.876  10.520  10.233 -0.2728 -0.8813  0.2644
  819MOL0     H 8063   3.726  10.616  10.216 -2.4328 -2.2797 -1.1110
  819MOL0     H 8064   3.898  10.682  10.038  0.0274  1.0439 -2.5374
  819MOL0     H 8065   3.748  10.627   9.980  0.2825 -0.8353 -0.1400
  819MOL0     H 8066   3.855  10.430   9.885  0.2954 -0.0003 -1.7410
  819MOL0     H 8067   3.963  10.558   9.844 -3.5986  2.5341  0.6201
  819MOL0     H 8068   4.060  10.341   9.935  1.8807  0.1212 -0.0337
  819MOL0     H 8069   4.006  10.389  10.106  1.1922  2.8904  0.5373
  819MOL0     H 8070   4.244  10.653   9.875 -0.6145 -1.2290  0.6478
  819MOL0     H 8071   4.444  10.646   9.757 -0.5399 -0.7260 -1.4401
  819MOL0     H 8072   4.899  10.181   9.853  2.6832 -2.2859 -0.1891
  819MOL0     H 8073   5.124  10.119   9.753  0.3195 -0.0518 -1.3230
  819MOL0     H 8074   5.194   9.984   9.528  1.4205 -1.1949 -3.0983
  819MOL0     H 8075   5.293  10.093   9.621 -2.2280 -1.1893  1.3047
  819MOL0     H 8076   5.392   9.942   9.458  2.0083  0.5424 -0.7024
  819MOL0     H 8077   5.432  10.108   9.422 -0.3864  0.6636  0.9889
  819MOL0     H 8078   5.248  10.112   9.247  0.6414 -0.1604  0.4773
  819MOL0     H 8079   5.216   9.939   9.282 -1.7028  1.0957 -1.1721
  819MOL0     H 8080   5.470  10.074   9.175  0.1412  0.4442  0.5025
  819MOL0     H 8081   5.470   9.912   9.243  0.8602  2.2821  1.5799
  819MOL0     H 8082   5.299   9.844   9.075  0.9440 -0.0011  0.3731
  819MOL0     H 8083   5.453   9.890   9.009 -0.8526 -1.7834 -0.4747
  819MOL0     H 8084   5.328  10.123   8.964  0.6354  0.0621  0.2984
  819MOL0     H 8085   5.194  10.052   9.040 -0.6895  0.5994 -2.1642
  819MOL0     H 8086   5.327   9.962   8.780 -1.4381  2.2745 -2.1939
  819MOL0     H 8087   5.175   9.885   8.836 -2.3506  1.0275 -2.0780
  819MOL0     H 8088   5.063  10.111   8.816 -0.0610 -0.7194  0.2147
  819MOL0     H 8089   5.125  10.052   8.673  2.7078  0.4651 -1.2822
  819MOL0     H 8090   4.995  10.338   9.400  1.7395  1.3578  0.6487
  819MOL0     H 8091   4.785  10.396   9.512 -0.6997 -1.8495 -1.0337
  819MOL0     H 8092   4.525  10.254   9.937 -0.2496 -0.1820 -0.1923
  819MOL0     H 8093   4.297  10.262  10.032 -1.4099 -0.0007 -0.2545
  819MOL0     H 8094   3.497  10.099   9.563 -1.7353 -0.8148 -0.6236
  819MOL0     H 8095   3.734  10.113   9.611 -2.9970  2.3180  1.5093
  819MOL0     H 8096   4.191  10.189   9.452  0.3375  0.8347 -0.0529
  819MOL0     H 8097   4.432  10.156   9.499  1.0259 -0.2741 -0.0704
  819MOL0     H 8098   4.658  10.044   9.658 -0.6399  2.8575 -1.3504
  819MOL0     H 8099   4.623  10.095   9.490  0.5910  0.3374 -0.7165
  819MOL0     H 8100   4.861  10.003   9.563  0.8571  2.1881 -2.7858
  819MOL0     H 8101   4.775   9.845   9.574 -2.1161  1.0975  1.5741
  819MOL0     H 8102   4.742   9.994   9.320  1.5769  0.1364 -1.9469
  819MOL0     H 8103   4.739   9.827   9.352  0.8730 -1.6533  2.6077
  819MOL0     H 8104   4.993   9.999   9.333  0.7493 -0.8426  2.0726
  819MOL0     H 8105   4.995   9.830   9.383  0.0420  0.7350  0.2575
  819MOL0     H 8106   4.923   9.816   8.968  2.1597  3.7268 -1.5301
  819MOL0     H 8107   4.376   9.733   9.505 -1.1094 -0.3115 -0.3023
  819MOL0     H 8108   4.136   9.763   9.476 -1.8536  1.1203  1.4966
  820MOL0     O 8109   4.928   8.130   7.827  0.0635  0.2769  0.0654
  820MOL0     C 8110   4.907   8.062   7.925  0.3131  0.4259  0.2552
  820MOL0     O 8111   4.783   8.031   7.975  0.5417 -0.0325  0.0138
  820MOL0     C 8112   4.674   8.103   7.951 -0.1541  0.5520 -0.2857
  820MOL0     C 8113   4.624   8.113   7.823  0.2674 -1.1071  0.9435
  820MOL0     C 8114   4.503   8.188   7.793  0.0621  0.3190 -0.5734
  820MOL0     C 8115   4.423   8.232   7.894 -1.1140  0.1533  0.2335
  820MOL0     O 8116   4.303   8.288   7.860  0.5367 -0.1277 -0.0498
  820MOL0     C 8117   4.197   8.284   7.964 -1.0404  0.0053  0.2008
  820MOL0     C 8118   4.077   8.323   7.875  0.8630  0.0480 -0.2714
  820MOL0     C 8119   3.962   8.334   7.968 -0.2752 -0.6122 -0.3793
  820MOL0     C 8120   3.834   8.392   7.905 -1.4387  0.6021 -0.0529
  820MOL0     C 8121   3.707   8.357   7.982 -0.5912 -0.2935  0.0018
  820MOL0     C 8122   3.667   8.211   7.959 -0.1914 -0.1255 -0.4935
  820MOL0     C 8123   3.651   8.181   7.811  0.0618  0.3848  0.4111
  820MOL0     C 8124   3.552   8.065   7.780 -0.1330  0.6163  0.2322
  820MOL0     N 8125   3.609   7.933   7.824 -0.5700 -0.5229  0.5262
  820MOL0     C 8126   3.578   7.879   7.949 -0.8657  0.6517 -0.1407
  820MOL0     C 8127   3.654   7.761   7.956 -0.0135 -0.6539 -0.3555
  820MOL0     C 8128   3.630   7.653   8.062  0.9387 -0.3991  0.5660
  820MOL0     C 8129   3.648   7.700   8.200 -0.9670 -0.9938  0.9557
  820MOL0     C 8130   3.601   7.596   8.293  0.3893 -0.1817 -0.5653
  820MOL0     C 8131   3.623   7.634   8.442  0.5478 -0.0305  0.5637
  820MOL0     O 8132   3.584   7.762   8.491  0.0666 -0.1918 -0.2599
  820MOL0     C 8133   3.454   7.809   8.458 -0.1154  0.3076  0.6491
  820MOL0     C 8134   3.444   7.946   8.474  0.3019  0.2122  0.0122
  820MOL0     C 8135   3.332   8.024   8.448  0.4391  0.6047 -0.1529
  820MOL0     C 8136   3.221   7.953   8.407 -0.4133 -0.5393 -0.9423
  820MOL0     C 8137   3.094   8.027   8.362  0.8607 -0.3256  0.3803
  820MOL0     O 8138   2.990   7.959   8.304 -0.1480 -0.3813 -0.6791
  820MOL0     C 8139   2.880   8.028   8.262  0.5459  0.4695  0.2776
  820MOL0     C 8140   2.796   8.084   8.362 -0.8133 -0.7090 -0.5613
  820MOL0     C 8141   2.671   8.133   8.327 -0.3937 -1.3534 -0.3198
  820MOL0     C 8142   2.633   8.152   8.188 -1.1075  0.1098 -0.9669
  820MOL0     O 8143   2.512   8.210   8.145  0.4853  0.3081 -0.4274
  820MOL0     C 8144   2.424   8.298   8.229 -1.2108  0.2894  0.4051
  820MOL0     C 8145   2.310   8.365   8.145  0.2180  0.4118  0.5778
  820MOL0     C 8146   2.244   8.266   8.042 -0.7572  0.5363  0.0660
  820MOL0     C 8147   2.189   8.134   8.094  0.0185  0.3007  0.5246
  820MOL0     C 8148   2.150   8.031   7.987  0.0883 -0.6502 -0.6221
  820MOL0     C 8149   2.260   7.949   7.950  0.3798 -0.5003 -0.3949
  820MOL0     C 8150   2.210   7.844   7.853  0.0855 -0.8262 -0.0919
  820MOL0     C 8151   2.315   7.757   7.805 -0.1297  0.1351  0.4729
  820MOL0    Cl 8152   2.336   7.614   7.916 -0.0346 -0.1087  0.0202
  820MOL0     C 8153   2.722   8.092   8.093 -0.7376 -0.3920 -0.3571
  820MOL0     C 8154   2.843   8.027   8.133 -0.0009  0.1063  0.2977
  820MOL0     O 8155   3.099   8.148   8.394  0.6670  0.1350  0.1113
  820MOL0     C 8156   3.216   7.818   8.390 -0.0430 -0.6360 -1.2823
  820MOL0     C 8157   3.335   7.741   8.419  1.0721 -0.2764 -0.7352
  820MOL0     N 8158   3.723   7.752   7.837  0.1711  0.4183  0.0126
  820MOL0     N 8159   3.709   7.855   7.765  0.3304 -0.4873  0.4326
  820MOL0     C 8160   4.479   8.235   8.024  0.1313 -0.3681  0.7806
  820MOL0     C 8161   4.604   8.171   8.053  0.0855 -1.3101 -0.5786
  820MOL0     C 8162   5.016   8.007   7.997 -0.0802  0.5856  0.1133
  820MOL0     C 8163   5.147   8.017   7.950 -0.5908 -0.0524 -0.1882
  820MOL0     C 8164   5.255   7.956   8.016 -0.4061  0.5676 -0.1606
  820MOL0     C 8165   5.245   7.906   8.145  0.7956  0.1754  0.1947
  820MOL0     O 8166   5.355   7.874   8.219 -0.5653 -0.5440  0.7831
  820MOL0     C 8167   5.411   7.754   8.175 -1.0924  0.0920 -0.1723
  820MOL0     C 8168   5.553   7.773   8.114 -0.6190  0.4879  0.2300
  820MOL0     C 8169   5.655   7.779   8.225  0.6816 -0.5692  0.3919
  820MOL0     C 8170   5.810   7.762   8.187 -0.0227  0.3081 -0.4972
  820MOL0     C 8171   5.885   7.775   8.316  0.0718  0.9417  0.1942
  820MOL0     C 8172   5.966   7.785   8.404  0.4071 -0.9259 -0.3925
  820MOL0     C 8173   5.106   7.903   8.193 -0.0717  0.7581  0.7701
  820MOL0     C 8174   4.992   7.945   8.125 -0.3273 -0.8518  0.4182
  820MOL0     H 8175   4.673   8.074   7.734  1.0613  1.3769  0.2195
  820MOL0     H 8176   4.466   8.178   7.692  1.2549  0.9260 -1.0946
  820MOL0     H 8177   4.213   8.364   8.037 -2.1990  1.6001 -1.2046
  820MOL0     H 8178   4.188   8.183   8.005  3.7904 -0.6629  0.2231
  820MOL0     H 8179   4.043   8.249   7.802 -2.4091  1.2356 -0.1083
  820MOL0     H 8180   4.109   8.414   7.823  1.3264  0.6567  1.0512
  820MOL0     H 8181   3.977   8.397   8.056  0.3232  1.7062 -2.0744
  820MOL0     H 8182   3.944   8.235   8.013 -1.8523  0.2378  0.9950
  820MOL0     H 8183   3.850   8.500   7.909 -1.8543  0.6769 -0.3597
  820MOL0     H 8184   3.832   8.360   7.800  1.6284 -2.0119  0.5536
  820MOL0     H 8185   3.636   8.434   7.951  2.3429  2.7075  0.1798
  820MOL0     H 8186   3.733   8.379   8.086  1.5243 -1.3344 -0.2605
  820MOL0     H 8187   3.581   8.192   8.024  1.0776 -1.8668  0.7680
  820MOL0     H 8188   3.745   8.146   7.999  1.4154  1.2310 -1.2992
  820MOL0     H 8189   3.611   8.264   7.752 -2.2988  0.3860  1.8788
  820MOL0     H 8190   3.746   8.156   7.764 -1.7525 -3.0786 -1.9452
  820MOL0     H 8191   3.551   8.061   7.671  1.9487 -1.0819  0.2071
  820MOL0     H 8192   3.460   8.098   7.829  0.4324  2.5987  0.0824
  820MOL0     H 8193   3.502   7.916   8.018  0.4544  0.6581  1.3857
  820MOL0     H 8194   3.691   7.563   8.050 -2.5909 -2.8615 -1.0074
  820MOL0     H 8195   3.524   7.626   8.049  1.0601 -0.3828 -0.5782
  820MOL0     H 8196   3.608   7.802   8.205  0.0986 -0.5089  0.0161
  820MOL0     H 8197   3.753   7.718   8.223 -1.4759  0.9207  2.0153
  820MOL0     H 8198   3.497   7.574   8.268  0.4072 -1.6079  0.5049
  820MOL0     H 8199   3.656   7.505   8.267  3.7781  1.4248  0.3318
  820MOL0     H 8200   3.731   7.622   8.453  1.4766  4.5157 -1.2324
  820MOL0     H 8201   3.565   7.556   8.493 -0.6159 -0.5264 -1.4067
  820MOL0     H 8202   3.533   7.993   8.515 -0.3627  1.1110  0.4447
  820MOL0     H 8203   3.318   8.131   8.458 -3.6916  0.2173  0.1127
  820MOL0     H 8204   2.829   8.091   8.465  1.3784  1.1199 -1.2990
  820MOL0     H 8205   2.602   8.178   8.398  1.4134 -2.6973  2.5027
  820MOL0     H 8206   2.475   8.379   8.281  0.6817 -0.7413  0.2718
  820MOL0     H 8207   2.389   8.226   8.304  0.3651  0.4791  1.3613
  820MOL0     H 8208   2.351   8.452   8.093 -1.4171 -0.7115 -2.8945
  820MOL0     H 8209   2.226   8.392   8.210 -0.1323 -2.4136  1.4506
  820MOL0     H 8210   2.320   8.238   7.969 -1.2399  0.6685 -0.4991
  820MOL0     H 8211   2.158   8.318   7.998  0.1318  0.9419 -1.2480
  820MOL0     H 8212   2.266   8.090   8.158 -0.6322  1.1224  1.9365
  820MOL0     H 8213   2.100   8.154   8.154 -0.4816 -0.8623  0.1901
  820MOL0     H 8214   2.119   8.091   7.902  2.4596 -1.0671 -1.8649
  820MOL0     H 8215   2.060   7.981   8.023  0.1807 -0.7832 -0.5730
  820MOL0     H 8216   2.275   7.899   8.046  0.9050 -2.6047 -1.5301
  820MOL0     H 8217   2.350   8.003   7.918 -1.4538  2.4729 -0.9399
  820MOL0     H 8218   2.124   7.787   7.890 -0.2143  0.9354  2.1813
  820MOL0     H 8219   2.178   7.891   7.760 -0.7407 -2.9239 -0.9291
  820MOL0     H 8220   2.409   7.812   7.793 -0.0791 -0.4600 -3.1011
  820MOL0     H 8221   2.286   7.716   7.708  2.6245  2.6649 -1.6104
  820MOL0     H 8222   2.704   8.098   7.987  0.0558  0.2471 -0.4643
  820MOL0     H 8223   2.905   7.975   8.061  0.2670 -0.2688  0.7925
  820MOL0     H 8224   3.119   7.775   8.367 -0.4449 -2.2109  2.5409
  820MOL0     H 8225   3.331   7.632   8.422 -0.7546 -0.2367 -0.8973
  820MOL0     H 8226   4.427   8.290   8.102 -1.4288  3.1221 -2.3792
  820MOL0     H 8227   4.638   8.177   8.156 -1.3636 -0.9983 -0.0972
  820MOL0     H 8228   5.160   8.068   7.855 -0.5825  0.0906 -0.1114
  820MOL0     H 8229   5.353   7.959   7.969 -0.2923 -2.1272 -0.2354
  820MOL0     H 8230   5.338   7.705   8.109 -3.0475  0.7440  1.4098
  820MOL0     H 8231   5.419   7.686   8.261  0.9769 -1.5344 -1.5271
  820MOL0     H 8232   5.581   7.692   8.045 -0.0297  1.2696 -0.4565
  820MOL0     H 8233   5.562   7.859   8.047 -1.4421 -2.0914 -3.5413
  820MOL0     H 8234   5.624   7.707   8.302  0.1208 -1.5869 -0.7422
  820MOL0     H 8235   5.636   7.881   8.259  1.3534  0.3744 -1.8728
  820MOL0     H 8236   5.819   7.663   8.142  2.5541  0.6845 -0.9647
  820MOL0     H 8237   5.847   7.834   8.114 -0.4245 -0.4584 -1.4809
  820MOL0     H 8238   6.050   7.796   8.469 -0.1697  1.8975 -0.0281
  820MOL0     H 8239   5.083   7.876   8.295 -2.3040  0.6311  0.2992
  820MOL0     H 8240   4.897   7.941   8.176 -0.6629 -1.6631 -0.2461
  821MOL0     O 8241   2.981   0.990   4.395 -0.5758  0.1269  0.5893
  821MOL0     C 8242   3.066   1.068   4.352 -0.9794  0.1734  1.0178
  821MOL0     O 8243   3.074   1.108   4.224 -0.5152  0.8203  0.4312
  821MOL0     C 8244   2.974   1.061   4.141 -0.6637 -0.5296  0.2547
  821MOL0     C 8245   2.863   1.143   4.124  0.4539  0.6385  0.7223
  821MOL0     C 8246   2.761   1.098   4.041 -0.8029  0.4082 -0.5771
  821MOL0     C 8247   2.771   0.978   3.979 -0.3106  1.3204  0.9488
  821MOL0     O 8248   2.668   0.932   3.897 -0.2331  0.3413  0.0729
  821MOL0     C 8249   2.562   0.877   3.970 -0.3627 -0.5570 -0.1539
  821MOL0     C 8250   2.460   0.794   3.893 -0.2824  0.5468  0.7731
  821MOL0     C 8251   2.532   0.678   3.820 -0.2409  0.2869 -0.9908
  821MOL0     C 8252   2.580   0.567   3.910  0.2389 -0.3948 -0.3286
  821MOL0     C 8253   2.677   0.478   3.845  0.1937 -0.5104  0.4427
  821MOL0     C 8254   2.823   0.525   3.850  0.3776  0.7693 -0.3610
  821MOL0     C 8255   2.921   0.415   3.827  0.3668 -0.0825  0.1308
  821MOL0     C 8256   3.025   0.380   3.929  0.7470  0.2607  0.7704
  821MOL0     N 8257   3.132   0.478   3.960  0.4251  0.3328  0.2988
  821MOL0     C 8258   3.260   0.468   3.920  0.4045 -0.4891 -0.6417
  821MOL0     C 8259   3.300   0.595   3.920 -0.5712  0.1791  0.3240
  821MOL0     C 8260   3.430   0.646   3.868 -1.3641 -0.2106 -0.0571
  821MOL0     C 8261   3.547   0.612   3.961  0.8982  0.9075  0.7715
  821MOL0     C 8262   3.681   0.571   3.888  0.3462  0.0574 -0.1316
  821MOL0     C 8263   3.746   0.690   3.810  0.0278  0.8511 -0.3840
  821MOL0     O 8264   3.869   0.637   3.742  0.0335 -0.5638 -0.1191
  821MOL0     C 8265   3.993   0.654   3.806 -0.2023 -0.0150 -0.4845
  821MOL0     C 8266   4.023   0.746   3.913  0.1843  0.1023 -0.4288
  821MOL0     C 8267   4.154   0.739   3.976 -0.0411 -0.0159 -0.1056
  821MOL0     C 8268   4.248   0.642   3.940  1.4563 -0.8937 -1.4250
  821MOL0     C 8269   4.385   0.643   3.996  0.3315 -0.0924  0.0755
  821MOL0     O 8270   4.415   0.746   4.079 -0.6668 -0.3571 -0.1988
  821MOL0     C 8271   4.541   0.797   4.102 -1.0854  0.3983  0.5191
  821MOL0     C 8272   4.568   0.864   4.227  0.5072  0.3407 -0.1677
  821MOL0     C 8273   4.690   0.910   4.266  0.3273  0.4096 -0.0795
  821MOL0     C 8274   4.799   0.866   4.192 -0.0168 -0.2694  0.5800
  821MOL0     O 8275   4.924   0.903   4.246 -0.0444  0.1440  0.2417
  821MOL0     C 8276   5.034   0.896   4.148  0.6461 -0.5794 -0.2731
  821MOL0     C 8277   5.153   0.978   4.205 -0.1885 -0.8438  0.9539
  821MOL0     C 8278   5.284   0.949   4.142 -0.3295  0.4406  0.9145
  821MOL0     C 8279   5.405   1.018   4.210 -0.5230  0.6783 -0.0695
  821MOL0     C 8280   5.524   1.018   4.113 -1.0595  0.1829  0.3428
  821MOL0     C 8281   5.647   1.082   4.183  0.0066  1.2241  0.3414
  821MOL0     C 8282   5.770   1.005   4.125  0.6095 -0.4993 -0.8118
  821MOL0     C 8283   5.892   1.059   4.189  1.0671  0.1629  0.5654
  821MOL0    Cl 8284   5.906   1.024   4.363  0.2017 -0.3156  0.5073
  821MOL0     C 8285   4.781   0.791   4.075  0.6213 -0.1822  1.0683
  821MOL0     C 8286   4.652   0.767   4.021  0.2357 -0.6040 -0.1379
  821MOL0     O 8287   4.461   0.557   3.953  0.0558 -0.5254  0.0653
  821MOL0     C 8288   4.207   0.549   3.841  0.2374  0.2897 -0.2245
  821MOL0     C 8289   4.084   0.557   3.771 -0.6101 -1.1010 -0.0196
  821MOL0     N 8290   3.199   0.671   3.983  0.0879  0.3165 -0.2122
  821MOL0     N 8291   3.105   0.595   4.011  0.4142 -0.4603 -0.4679
  821MOL0     C 8292   2.888   0.901   3.987  1.0260  0.4106  0.5093
  821MOL0     C 8293   2.990   0.937   4.067 -0.2438 -0.2472  0.0671
  821MOL0     C 8294   3.157   1.115   4.454 -0.0320  1.1397 -0.0215
  821MOL0     C 8295   3.259   1.202   4.419 -0.9163  0.5097  0.5250
  821MOL0     C 8296   3.351   1.247   4.511  0.4065 -0.0672  0.0867
  821MOL0     C 8297   3.339   1.213   4.652 -0.6426 -0.3449  0.1953
  821MOL0     O 8298   3.435   1.267   4.737  0.8129  0.1041 -0.1310
  821MOL0     C 8299   3.434   1.219   4.871 -0.7916  0.4364  0.1548
  821MOL0     C 8300   3.542   1.295   4.954 -0.4673 -0.3205  0.6743
  821MOL0     C 8301   3.684   1.291   4.901 -0.2615 -0.4527  0.2765
  821MOL0     C 8302   3.768   1.378   4.987  0.3440  0.5594 -0.1373
  821MOL0     C 8303   3.909   1.343   4.963  0.1522  0.2518 -0.2065
  821MOL0     C 8304   4.028   1.329   4.938  0.6108  0.4950  0.0777
  821MOL0     C 8305   3.234   1.123   4.683 -1.4598 -0.1764  0.3527
  821MOL0     C 8306   3.144   1.068   4.584  0.3460  0.4566 -0.0519
  821MOL0     H 8307   2.858   1.234   4.182  3.4315  0.2447  1.7470
  821MOL0     H 8308   2.672   1.159   4.028 -1.5805 -0.1761  1.5714
  821MOL0     H 8309   2.494   0.955   4.005  0.9695  1.2287 -1.3177
  821MOL0     H 8310   2.613   0.827   4.053 -0.1115 -0.0531  0.0008
  821MOL0     H 8311   2.398   0.850   3.822 -0.4336  0.6632  0.9960
  821MOL0     H 8312   2.392   0.749   3.966 -0.7746 -1.6424 -0.9335
  821MOL0     H 8313   2.612   0.726   3.763  0.9139  1.8177  1.7350
  821MOL0     H 8314   2.472   0.629   3.742 -0.4010  1.8370 -1.8938
  821MOL0     H 8315   2.611   0.608   4.006  0.2967 -0.0821 -0.4795
  821MOL0     H 8316   2.497   0.497   3.928  0.9739 -1.4371 -0.8397
  821MOL0     H 8317   2.639   0.456   3.744  1.8503 -0.2499 -0.2716
  821MOL0     H 8318   2.664   0.386   3.903  0.8499  0.0845  1.5574
  821MOL0     H 8319   2.853   0.566   3.947  1.7085  1.6875 -1.1332
  821MOL0     H 8320   2.837   0.606   3.778 -0.4513  0.1613 -1.2389
  821MOL0     H 8321   2.871   0.321   3.802  0.1112  0.2603 -0.7077
  821MOL0     H 8322   2.970   0.454   3.737  0.1658  1.1493  0.5369
  821MOL0     H 8323   3.077   0.289   3.898 -1.6173 -0.3778 -1.7991
  821MOL0     H 8324   2.971   0.363   4.023 -0.9170  0.3204 -0.1285
  821MOL0     H 8325   3.310   0.382   3.876  0.8991  0.3671 -1.7949
  821MOL0     H 8326   3.403   0.752   3.867 -1.6949 -0.2359 -2.8545
  821MOL0     H 8327   3.447   0.615   3.764  0.9758  0.7699 -0.0291
  821MOL0     H 8328   3.515   0.526   4.021  2.0175  1.7846  2.7054
  821MOL0     H 8329   3.552   0.702   4.024 -1.6106  3.6627 -2.5650
  821MOL0     H 8330   3.738   0.521   3.966 -0.9221  2.9774  2.9153
  821MOL0     H 8331   3.665   0.496   3.811  0.9962 -1.1556  0.8788
  821MOL0     H 8332   3.769   0.777   3.872  2.3617  0.4766 -0.6208
  821MOL0     H 8333   3.675   0.710   3.729 -0.1731 -1.3278 -0.8191
  821MOL0     H 8334   3.954   0.822   3.947 -0.0974 -0.2690 -0.1566
  821MOL0     H 8335   4.182   0.806   4.057  0.5022  1.9788 -1.8321
  821MOL0     H 8336   4.484   0.864   4.296 -1.3231 -0.7791 -2.2768
  821MOL0     H 8337   4.704   0.963   4.360  1.2397  0.5880 -0.3052
  821MOL0     H 8338   5.001   0.934   4.051 -2.4834 -1.4803  0.3083
  821MOL0     H 8339   5.075   0.795   4.147  3.0069  0.2633 -3.4240
  821MOL0     H 8340   5.161   0.968   4.313 -0.8446  0.2718  1.1233
  821MOL0     H 8341   5.136   1.085   4.187 -1.1777 -0.9962  0.9344
  821MOL0     H 8342   5.275   0.975   4.036 -1.0336  0.7943  1.0526
  821MOL0     H 8343   5.300   0.841   4.135 -2.0245  0.1902  0.4831
  821MOL0     H 8344   5.393   1.123   4.238 -1.8958  0.6170 -0.3865
  821MOL0     H 8345   5.432   0.953   4.294  0.8115 -0.0769 -1.0206
  821MOL0     H 8346   5.499   1.073   4.021 -3.7335 -0.0522  0.8432
  821MOL0     H 8347   5.539   0.911   4.095  1.4960  0.7173 -1.0213
  821MOL0     H 8348   5.639   1.058   4.289  2.2260 -1.4992  0.0031
  821MOL0     H 8349   5.642   1.191   4.173 -0.1887  1.1843 -0.0192
  821MOL0     H 8350   5.780   0.902   4.159  0.1666  0.0120  1.0341
  821MOL0     H 8351   5.774   1.004   4.016  2.1181 -1.5133 -0.7712
  821MOL0     H 8352   5.909   1.160   4.150  0.4957 -1.3937 -4.3472
  821MOL0     H 8353   5.975   1.000   4.149 -0.2225 -1.9738  0.9332
  821MOL0     H 8354   4.868   0.759   4.019  1.1841  0.3598  1.6091
  821MOL0     H 8355   4.638   0.723   3.923 -1.5912 -1.7733  0.6144
  821MOL0     H 8356   4.282   0.472   3.827 -1.4095 -2.0140  2.5082
  821MOL0     H 8357   4.064   0.484   3.693 -0.2355 -2.4406  1.1134
  821MOL0     H 8358   2.886   0.813   3.924 -1.2981 -0.5144  1.7605
  821MOL0     H 8359   3.071   0.866   4.058  1.9987  1.7640  2.6180
  821MOL0     H 8360   3.257   1.237   4.317 -1.7115  0.4275  0.5046
  821MOL0     H 8361   3.435   1.314   4.494  1.8448 -0.8070  3.3629
  821MOL0     H 8362   3.458   1.112   4.861 -2.0126  0.1930 -0.3111
  821MOL0     H 8363   3.335   1.233   4.915 -0.5465 -2.1902  1.7849
  821MOL0     H 8364   3.508   1.398   4.955 -1.5725 -0.6733  1.5402
  821MOL0     H 8365   3.538   1.258   5.057  0.9007 -2.6420 -0.0287
  821MOL0     H 8366   3.689   1.324   4.797 -0.1427  2.6506  1.1754
  821MOL0     H 8367   3.713   1.185   4.901 -0.5132 -0.5747 -2.3830
  821MOL0     H 8368   3.758   1.481   4.952 -3.2285  0.7695  1.0422
  821MOL0     H 8369   3.742   1.379   5.094 -5.5033  1.8219 -1.2332
  821MOL0     H 8370   4.126   1.308   4.901  1.0079 -1.1781  1.9247
  821MOL0     H 8371   3.223   1.097   4.788 -2.4531  2.3068  0.9323
  821MOL0     H 8372   3.068   0.996   4.611  1.7614 -1.4501 -0.8984
  822MOL0     O 8373  11.197   2.039   7.310 -0.6650  0.2527 -0.3778
  822MOL0     C 8374  11.123   2.019   7.215  0.5305 -0.6710 -0.3186
  822MOL0     O 8375  10.988   1.985   7.226  0.2065  0.2004  0.3898
  822MOL0     C 8376  10.915   2.006   7.345 -0.5513 -0.3902 -0.2520
  822MOL0     C 8377  10.949   2.070   7.464 -0.2953  0.1400  0.0573
  822MOL0     C 8378  10.861   2.085   7.575  0.1049  0.1048  0.8667
  822MOL0     C 8379  10.735   2.048   7.563  0.8449  0.2411 -0.3548
  822MOL0     O 8380  10.655   2.057   7.676 -0.1219 -0.8627 -0.1935
  822MOL0     C 8381  10.523   2.104   7.633  0.3951 -0.1340 -0.5639
  822MOL0     C 8382  10.417   1.992   7.632 -0.1170  0.5677  0.4540
  822MOL0     C 8383  10.353   1.965   7.774  0.5415  0.6059 -0.5871
  822MOL0     C 8384  10.246   1.863   7.778 -0.4559 -0.1381  0.1718
  822MOL0     C 8385  10.189   1.856   7.919 -0.5070  0.0199 -0.5064
  822MOL0     C 8386  10.055   1.775   7.920  0.6354  0.4774  0.0752
  822MOL0     C 8387  10.015   1.763   8.065  0.7082 -0.2913 -0.1021
  822MOL0     C 8388   9.947   1.895   8.124 -0.6077 -0.2446 -0.1464
  822MOL0     N 8389   9.795   1.881   8.108 -0.3915  0.1644 -0.1028
  822MOL0     C 8390   9.713   1.796   8.176 -1.1095 -0.9884  0.1397
  822MOL0     C 8391   9.607   1.799   8.089  0.4425 -0.9477 -1.0116
  822MOL0     C 8392   9.483   1.720   8.117 -0.9115 -0.1005  0.8079
  822MOL0     C 8393   9.408   1.751   8.239  0.3423 -0.6120  0.8935
  822MOL0     C 8394   9.353   1.896   8.228 -0.3541  0.3731  0.0150
  822MOL0     C 8395   9.196   1.899   8.259  0.3908 -0.0168 -0.3585
  822MOL0     O 8396   9.172   1.841   8.394  0.0338 -0.0915  0.0174
  822MOL0     C 8397   9.045   1.811   8.440 -0.0699 -0.2113 -0.0841
  822MOL0     C 8398   8.925   1.856   8.387 -0.0862  0.2974  0.2757
  822MOL0     C 8399   8.799   1.837   8.443 -0.7163 -0.1962  0.1938
  822MOL0     C 8400   8.784   1.781   8.571 -0.8085  0.7603  0.2088
  822MOL0     C 8401   8.656   1.756   8.640 -0.4881  0.3774 -0.3604
  822MOL0     O 8402   8.551   1.728   8.560 -0.3391 -0.1133  0.3788
  822MOL0     C 8403   8.427   1.711   8.619 -0.5697 -0.6646 -1.0108
  822MOL0     C 8404   8.350   1.818   8.651  0.4231  0.0388 -0.2729
  822MOL0     C 8405   8.228   1.803   8.708  1.1093  0.2290  0.1989
  822MOL0     C 8406   8.179   1.673   8.749 -0.3163  0.2424 -0.3618
  822MOL0     O 8407   8.053   1.662   8.810 -0.0142 -0.8624 -0.4003
  822MOL0     C 8408   8.020   1.755   8.920 -0.6299  0.7182 -0.1677
  822MOL0     C 8409   7.885   1.721   8.984 -0.4928 -0.8526 -0.3939
  822MOL0     C 8410   7.855   1.806   9.110  0.4936  0.1101 -0.1472
  822MOL0     C 8411   7.961   1.780   9.230  0.1225  0.0581 -0.4084
  822MOL0     C 8412   7.892   1.800   9.368 -0.1955  0.2866 -0.1052
  822MOL0     C 8413   8.003   1.784   9.472 -0.0801  0.4522 -0.0283
  822MOL0     C 8414   7.953   1.815   9.614  0.6274  0.3422  0.5205
  822MOL0     C 8415   8.056   1.762   9.718  0.3800  0.3039  0.4436
  822MOL0    Cl 8416   8.212   1.850   9.737 -0.3881 -0.1471  0.0825
  822MOL0     C 8417   8.256   1.564   8.713 -0.3149  0.0628 -0.2866
  822MOL0     C 8418   8.384   1.586   8.655  0.1533  0.1540 -0.7499
  822MOL0     O 8419   8.648   1.781   8.761 -0.1693 -0.5026 -0.0248
  822MOL0     C 8420   8.908   1.744   8.629 -0.5854 -0.2261  0.1011
  822MOL0     C 8421   9.034   1.762   8.563 -0.3353  0.2600 -0.3628
  822MOL0     N 8422   9.623   1.887   7.982  0.4371  0.6261 -0.3573
  822MOL0     N 8423   9.739   1.936   8.001 -0.3510  0.2032  0.2215
  822MOL0     C 8424  10.694   1.990   7.439  0.8944  0.4716 -0.1267
  822MOL0     C 8425  10.781   1.978   7.331 -0.2038 -0.0625 -0.8078
  822MOL0     C 8426  11.167   2.026   7.072 -0.0652 -0.2722  0.2276
  822MOL0     C 8427  11.079   1.989   6.970  0.8228 -1.2573 -1.1112
  822MOL0     C 8428  11.135   1.968   6.841 -0.1608 -0.4304 -0.1507
  822MOL0     C 8429  11.270   1.994   6.805  0.2851 -0.8219  0.8017
  822MOL0     O 8430  11.322   1.986   6.681 -0.2907 -0.2725  0.0579
  822MOL0     C 8431  11.236   1.990   6.564 -0.5462  0.3685  0.0951
  822MOL0     C 8432  11.325   2.045   6.452 -0.8825  0.2254 -0.7221
  822MOL0     C 8433  11.243   2.062   6.318 -0.7884 -0.7171 -0.3290
  822MOL0     C 8434  11.339   2.063   6.198 -0.6865  0.4341  0.5561
  822MOL0     C 8435  11.265   2.041   6.069 -1.1503  0.0724 -1.3089
  822MOL0     C 8436  11.198   2.032   5.968 -1.6155 -1.3614 -0.6060
  822MOL0     C 8437  11.349   2.041   6.913 -0.3733  1.0554 -0.2491
  822MOL0     C 8438  11.301   2.051   7.043  1.0345 -0.5716 -0.2846
  822MOL0     H 8439  11.050   2.106   7.480  0.1972 -1.8376  1.7147
  822MOL0     H 8440  10.896   2.135   7.665 -0.4129  0.5066  0.8412
  822MOL0     H 8441  10.516   2.163   7.541 -1.2925 -0.3795 -0.6356
  822MOL0     H 8442  10.488   2.169   7.714  1.6053  0.6532 -0.6499
  822MOL0     H 8443  10.453   1.895   7.596 -2.2178  0.2559 -0.9806
  822MOL0     H 8444  10.342   2.024   7.559 -2.8121  0.9542  3.2134
  822MOL0     H 8445  10.311   2.060   7.808  1.9453  1.4785 -1.1983
  822MOL0     H 8446  10.437   1.938   7.839 -0.7238 -1.6812  0.2511
  822MOL0     H 8447  10.169   1.892   7.706  0.9233 -1.1924 -1.8523
  822MOL0     H 8448  10.280   1.761   7.758 -2.7276 -1.2998  1.8081
  822MOL0     H 8449  10.168   1.953   7.965  0.4130 -0.2438  0.5020
  822MOL0     H 8450  10.261   1.800   7.979 -2.4141 -1.5365  0.4867
  822MOL0     H 8451  10.077   1.679   7.872 -3.9927 -0.3593 -0.7996
  822MOL0     H 8452   9.978   1.820   7.857  2.3627  1.4390 -1.4789
  822MOL0     H 8453   9.940   1.684   8.073 -0.6484  1.0098  0.4856
  822MOL0     H 8454  10.100   1.739   8.130 -0.3341 -2.2285  0.6084
  822MOL0     H 8455   9.987   1.985   8.077 -0.0988  1.2180  2.8315
  822MOL0     H 8456   9.968   1.905   8.231  1.3977  1.5460 -0.6299
  822MOL0     H 8457   9.736   1.735   8.262  2.0468 -0.4407 -0.2174
  822MOL0     H 8458   9.515   1.616   8.109  1.6902  0.6439  0.2980
  822MOL0     H 8459   9.426   1.749   8.029  0.9065  1.9482  0.1998
  822MOL0     H 8460   9.476   1.748   8.325  3.8655 -1.9295 -1.7337
  822MOL0     H 8461   9.330   1.674   8.243 -2.1213  1.6212 -0.9651
  822MOL0     H 8462   9.403   1.955   8.305 -2.0195 -2.8865  3.9884
  822MOL0     H 8463   9.358   1.929   8.124 -4.6807  0.3615 -0.4124
  822MOL0     H 8464   9.130   1.843   8.192 -1.4893 -2.0058  2.8966
  822MOL0     H 8465   9.164   2.004   8.253 -1.0485 -0.4897 -1.7302
  822MOL0     H 8466   8.938   1.913   8.295  1.6911 -2.9300 -1.6557
  822MOL0     H 8467   8.711   1.876   8.393 -1.0075  0.8215  1.4327
  822MOL0     H 8468   8.390   1.914   8.620  1.8616 -0.2185  0.6974
  822MOL0     H 8469   8.171   1.887   8.746  1.5377  0.8307 -0.4601
  822MOL0     H 8470   8.020   1.860   8.888  0.5318  0.5115 -0.8929
  822MOL0     H 8471   8.095   1.747   8.999 -1.9201  1.2638  1.1661
  822MOL0     H 8472   7.879   1.616   9.015  1.9272 -0.5102  1.4701
  822MOL0     H 8473   7.815   1.731   8.900  2.2595 -1.4423 -2.9203
  822MOL0     H 8474   7.758   1.767   9.144 -0.2533  2.4217  0.5423
  822MOL0     H 8475   7.848   1.913   9.087 -0.3373  0.5200  1.8115
  822MOL0     H 8476   7.996   1.677   9.221  2.9449  0.9727 -0.9669
  822MOL0     H 8477   8.052   1.838   9.212  0.5283 -0.6306 -0.6207
  822MOL0     H 8478   7.807   1.733   9.381 -2.0169  2.0250 -2.3206
  822MOL0     H 8479   7.848   1.900   9.373 -0.7384  0.0102  1.2936
  822MOL0     H 8480   8.084   1.853   9.446 -1.4304  1.6514 -1.2871
  822MOL0     H 8481   8.037   1.681   9.458  0.4572  0.7563 -1.0475
  822MOL0     H 8482   7.941   1.923   9.627  1.1265  1.1428 -4.0408
  822MOL0     H 8483   7.856   1.776   9.644 -1.1188  4.6028  1.2094
  822MOL0     H 8484   8.058   1.655   9.695  0.5585  1.0735 -4.0303
  822MOL0     H 8485   7.995   1.777   9.808 -0.7432 -1.8912  0.1147
  822MOL0     H 8486   8.230   1.464   8.744  0.5652 -0.5147 -1.3446
  822MOL0     H 8487   8.454   1.503   8.656  0.7106  0.5955  0.6009
  822MOL0     H 8488   8.912   1.695   8.726  0.6888  1.3583  0.8974
  822MOL0     H 8489   9.132   1.748   8.606 -0.2147  0.2542 -0.6383
  822MOL0     H 8490  10.591   1.964   7.420  0.9907 -1.0530  1.1823
  822MOL0     H 8491  10.746   1.928   7.240 -1.1022 -0.6038 -0.1822
  822MOL0     H 8492  10.975   1.961   6.985  1.2462 -2.0182  0.5636
  822MOL0     H 8493  11.072   1.920   6.767  0.9363 -3.6294  0.8360
  822MOL0     H 8494  11.153   2.060   6.576 -2.0372 -0.9489 -1.9758
  822MOL0     H 8495  11.196   1.892   6.536  1.6581 -0.0734 -1.8362
  822MOL0     H 8496  11.366   2.143   6.480  0.3911 -0.5873  0.4230
  822MOL0     H 8497  11.407   1.975   6.438 -0.5902  0.7988 -1.9808
  822MOL0     H 8498  11.187   2.156   6.323  0.8941  0.3582 -0.6691
  822MOL0     H 8499  11.172   1.979   6.314 -1.9980  0.2694  0.2214
  822MOL0     H 8500  11.396   2.156   6.194  0.8188 -0.4999 -1.4561
  822MOL0     H 8501  11.414   1.984   6.209 -3.0477 -1.7194  2.6324
  822MOL0     H 8502  11.149   2.030   5.873  2.2742 -0.0005 -2.8473
  822MOL0     H 8503  11.445   2.091   6.903 -1.1316  2.3812 -1.1392
  822MOL0     H 8504  11.364   2.085   7.124  1.1532  0.3044 -0.7368
  823MOL0     O 8505   8.176   3.874   5.387 -0.8254  0.1015  0.7062
  823MOL0     C 8506   8.166   3.968   5.306  0.2319  0.8960  0.2736
  823MOL0     O 8507   8.050   4.022   5.275  0.2274 -0.1079 -0.2117
  823MOL0     C 8508   7.946   3.933   5.254  0.3335  0.0338  0.2896
  823MOL0     C 8509   7.954   3.828   5.159  0.4982 -0.0886  0.1971
  823MOL0     C 8510   7.844   3.752   5.119  0.6923  0.2467 -0.6916
  823MOL0     C 8511   7.715   3.776   5.173 -0.0595 -0.7870  0.2023
  823MOL0     O 8512   7.610   3.705   5.122 -0.1024  0.2430  0.0189
  823MOL0     C 8513   7.471   3.728   5.153 -0.1595 -0.7902  0.7337
  823MOL0     C 8514   7.423   3.857   5.091 -1.4136 -0.6143 -0.3646
  823MOL0     C 8515   7.274   3.834   5.057  0.3764 -0.2701  1.2594
  823MOL0     C 8516   7.250   3.736   4.944  0.0371  0.6906 -0.0083
  823MOL0     C 8517   7.106   3.742   4.882  0.2828 -0.5414  0.1197
  823MOL0     C 8518   6.993   3.730   4.985  0.4830  0.2748 -0.0240
  823MOL0     C 8519   6.851   3.744   4.924  0.2285  0.1337 -0.6176
  823MOL0     C 8520   6.749   3.760   5.036 -0.9171  0.9854  0.0445
  823MOL0     N 8521   6.620   3.713   4.988  0.0616 -0.5207  0.2889
  823MOL0     C 8522   6.532   3.793   4.908 -0.1711  0.1574  1.0781
  823MOL0     C 8523   6.427   3.713   4.882 -0.1435  0.2086 -0.8157
  823MOL0     C 8524   6.306   3.740   4.789  1.1933  0.0033  0.5882
  823MOL0     C 8525   6.172   3.698   4.844 -0.8531  0.0216 -0.2733
  823MOL0     C 8526   6.073   3.709   4.730 -0.6651 -0.0166 -0.0506
  823MOL0     C 8527   5.935   3.714   4.781  0.3101 -0.1907 -1.2847
  823MOL0     O 8528   5.884   3.847   4.806  0.0453 -1.0814 -0.3552
  823MOL0     C 8529   5.749   3.871   4.807 -0.0142 -0.1363  0.6504
  823MOL0     C 8530   5.646   3.783   4.823  0.1103 -0.0486  0.3293
  823MOL0     C 8531   5.507   3.824   4.814 -0.9223  0.3009 -1.0875
  823MOL0     C 8532   5.479   3.957   4.788  0.7620  0.0353  0.5895
  823MOL0     C 8533   5.343   4.014   4.762  0.4371  0.5237 -0.2635
  823MOL0     O 8534   5.241   3.922   4.762  0.1524  0.9205 -0.0638
  823MOL0     C 8535   5.124   3.936   4.702 -0.0413  0.5355  0.2428
  823MOL0     C 8536   5.109   4.007   4.583 -0.2818 -0.2159 -0.4079
  823MOL0     C 8537   4.985   3.999   4.513  0.0423  0.9072  0.3035
  823MOL0     C 8538   4.880   3.927   4.574 -0.2824 -0.3262  0.1002
  823MOL0     O 8539   4.761   3.900   4.511 -0.6245 -0.4609 -0.0955
  823MOL0     C 8540   4.758   3.889   4.370  0.4191 -0.6768 -0.1981
  823MOL0     C 8541   4.675   4.011   4.323  0.4339  0.5918 -1.2810
  823MOL0     C 8542   4.695   4.051   4.181  0.3131 -0.3407  0.7619
  823MOL0     C 8543   4.597   4.162   4.145 -0.1686 -0.3977  0.1596
  823MOL0     C 8544   4.578   4.191   3.994  0.3387  0.5466 -0.2142
  823MOL0     C 8545   4.465   4.286   3.969 -1.0558  0.4630  0.5728
  823MOL0     C 8546   4.485   4.366   3.848 -0.2555  0.1234  0.0073
  823MOL0     C 8547   4.362   4.410   3.764 -0.7266  0.3689 -0.4841
  823MOL0    Cl 8548   4.289   4.276   3.689 -0.0067  0.2514  0.3532
  823MOL0     C 8549   4.895   3.882   4.707  0.8505 -0.3169 -0.1185
  823MOL0     C 8550   5.015   3.872   4.769 -0.0445  0.1570 -0.2172
  823MOL0     O 8551   5.333   4.126   4.718  0.2105  0.0098 -0.9820
  823MOL0     C 8552   5.589   4.048   4.793 -0.4681  0.2406 -0.2177
  823MOL0     C 8553   5.724   4.001   4.798 -0.1232 -0.3669 -0.9037
  823MOL0     N 8554   6.449   3.586   4.938 -0.1171  0.3270 -0.6382
  823MOL0     N 8555   6.566   3.592   5.000 -0.2041 -0.0273 -0.0586
  823MOL0     C 8556   7.706   3.883   5.272  0.6646 -0.4290  0.8697
  823MOL0     C 8557   7.815   3.959   5.304  1.1941 -0.3773 -0.3376
  823MOL0     C 8558   8.299   4.037   5.270  0.0359  0.0475  0.1035
  823MOL0     C 8559   8.425   3.997   5.305  0.0073  0.0712 -0.4700
  823MOL0     C 8560   8.550   4.060   5.272  0.3166 -0.0720  0.6422
  823MOL0     C 8561   8.540   4.173   5.178  0.4034 -0.5835  0.6558
  823MOL0     O 8562   8.650   4.246   5.129 -0.5782 -0.0709  0.4832
  823MOL0     C 8563   8.776   4.181   5.127  0.3031  0.3538  0.6204
  823MOL0     C 8564   8.883   4.263   5.051  0.1321  0.0371 -1.0295
  823MOL0     C 8565   9.008   4.181   5.012 -0.0755 -0.3680 -0.5996
  823MOL0     C 8566   9.114   4.273   4.939 -0.7136 -0.3888 -0.5782
  823MOL0     C 8567   9.163   4.383   5.029 -0.3207  0.7335 -0.6324
  823MOL0     C 8568   9.195   4.481   5.091  0.0606 -0.0955  0.1146
  823MOL0     C 8569   8.409   4.213   5.145 -0.0506 -0.5510  0.4348
  823MOL0     C 8570   8.288   4.151   5.189  0.6226 -1.0079  0.5212
  823MOL0     H 8571   8.043   3.827   5.098 -0.6756 -0.1131 -1.5870
  823MOL0     H 8572   7.863   3.687   5.034 -2.5288 -2.7669  0.6425
  823MOL0     H 8573   7.460   3.748   5.260  0.2600  0.6450  0.5328
  823MOL0     H 8574   7.406   3.642   5.135  1.1422 -1.4225 -1.2817
  823MOL0     H 8575   7.482   3.874   5.000  1.0569 -1.7748  0.9185
  823MOL0     H 8576   7.430   3.947   5.152 -1.3484  0.0599 -1.3412
  823MOL0     H 8577   7.232   3.928   5.021  2.1059  0.3604  0.7799
  823MOL0     H 8578   7.225   3.813   5.152 -2.4739 -0.7405 -0.2068
  823MOL0     H 8579   7.322   3.749   4.863  0.8699  0.7986  0.7360
  823MOL0     H 8580   7.269   3.640   4.991  1.6110  1.6542  1.4249
  823MOL0     H 8581   7.103   3.659   4.811  1.9783  0.2525 -0.9437
  823MOL0     H 8582   7.085   3.832   4.823  0.3078 -0.0978  0.7713
  823MOL0     H 8583   6.999   3.798   5.071 -3.2999  0.0021  0.6349
  823MOL0     H 8584   7.003   3.628   5.024  0.5035  0.5803  0.7926
  823MOL0     H 8585   6.858   3.842   4.876  5.6496  1.2338  1.6631
  823MOL0     H 8586   6.820   3.657   4.866  1.2605  0.8512 -2.3216
  823MOL0     H 8587   6.737   3.864   5.070 -3.5451  1.3510 -1.6917
  823MOL0     H 8588   6.775   3.699   5.122 -3.3768 -0.3619 -0.0685
  823MOL0     H 8589   6.543   3.895   4.871 -0.4386 -0.8162 -1.9792
  823MOL0     H 8590   6.325   3.693   4.692  2.3910  1.9844 -0.2069
  823MOL0     H 8591   6.306   3.849   4.777 -2.6836 -0.0650 -1.6402
  823MOL0     H 8592   6.137   3.754   4.930 -1.3741 -2.0899  0.9727
  823MOL0     H 8593   6.182   3.598   4.889 -2.2721  0.2899  0.6850
  823MOL0     H 8594   6.094   3.799   4.671 -0.1683 -1.1022 -1.6110
  823MOL0     H 8595   6.084   3.619   4.668 -0.3436 -1.7830  2.4395
  823MOL0     H 8596   5.927   3.650   4.869 -0.4434  0.4403 -0.8752
  823MOL0     H 8597   5.871   3.682   4.698  0.4094  0.3477 -1.5727
  823MOL0     H 8598   5.662   3.678   4.847 -0.5956 -0.0255  0.9258
  823MOL0     H 8599   5.425   3.754   4.831 -1.6456  0.9737 -1.7163
  823MOL0     H 8600   5.191   4.066   4.541 -0.0982 -2.6162 -3.8174
  823MOL0     H 8601   4.958   4.048   4.421 -0.1328  3.1664  1.4895
  823MOL0     H 8602   4.712   3.791   4.348 -2.0859 -0.4697  3.2825
  823MOL0     H 8603   4.857   3.901   4.325  0.6150  0.3222  0.4895
  823MOL0     H 8604   4.702   4.096   4.385  0.3323 -0.3847  0.1368
  823MOL0     H 8605   4.571   4.010   4.355  0.4578  1.9664 -1.1206
  823MOL0     H 8606   4.680   3.964   4.115 -2.5529 -1.0844  2.2067
  823MOL0     H 8607   4.793   4.095   4.163  2.0731 -4.2422 -0.3368
  823MOL0     H 8608   4.499   4.131   4.182  0.7183 -1.5616  1.6324
  823MOL0     H 8609   4.621   4.261   4.185 -0.0570 -0.4061  0.1126
  823MOL0     H 8610   4.551   4.101   3.938 -2.3400  1.6638 -0.8863
  823MOL0     H 8611   4.670   4.234   3.953  0.2547 -0.6573 -1.7262
  823MOL0     H 8612   4.461   4.360   4.049 -1.4112  0.9801  0.0880
  823MOL0     H 8613   4.372   4.229   3.961 -0.5471 -0.6269  1.9861
  823MOL0     H 8614   4.555   4.447   3.868  0.7531 -0.6702 -0.2695
  823MOL0     H 8615   4.545   4.308   3.777  0.6091  2.4064 -1.2277
  823MOL0     H 8616   4.393   4.490   3.695 -0.1187 -0.7792 -1.5804
  823MOL0     H 8617   4.294   4.463   3.831  0.9162  1.9702  0.0017
  823MOL0     H 8618   4.815   3.833   4.761  1.5162 -0.8696  0.3815
  823MOL0     H 8619   5.031   3.816   4.860 -0.3949  0.3150 -0.0564
  823MOL0     H 8620   5.567   4.152   4.770 -0.4509  0.6427  1.4618
  823MOL0     H 8621   5.803   4.076   4.793  0.4497 -0.9075 -0.1599
  823MOL0     H 8622   7.608   3.909   5.311  0.2679 -0.8907  0.1987
  823MOL0     H 8623   7.794   4.039   5.375  0.9333  0.8272 -1.7152
  823MOL0     H 8624   8.424   3.900   5.354  1.9581 -0.2938 -1.0739
  823MOL0     H 8625   8.637   4.018   5.322 -0.0161 -0.5347  0.8333
  823MOL0     H 8626   8.778   4.090   5.066  0.9235  0.4685  0.4717
  823MOL0     H 8627   8.813   4.150   5.225 -1.3158  1.3965  1.6140
  823MOL0     H 8628   8.839   4.313   4.964 -0.4685 -0.8172 -1.2315
  823MOL0     H 8629   8.912   4.338   5.125  0.0722  0.5779 -1.5426
  823MOL0     H 8630   8.965   4.102   4.950 -5.0655  1.0319  0.6056
  823MOL0     H 8631   9.070   4.142   5.093  2.7627  0.7652 -2.1094
  823MOL0     H 8632   9.193   4.202   4.911  0.1636  0.5294 -0.4795
  823MOL0     H 8633   9.082   4.304   4.839 -1.8738 -1.5220 -0.5835
  823MOL0     H 8634   9.229   4.555   5.161  3.2328  1.2987 -2.6399
  823MOL0     H 8635   8.401   4.295   5.075 -1.0327  1.1671  2.4488
  823MOL0     H 8636   8.197   4.169   5.134  2.2720  2.5109 -1.3858
  824MOL0     O 8637   5.157   2.388   5.363  0.6318  0.3745  0.0871
  824MOL0     C 8638   5.189   2.354   5.468 -0.2386 -0.8686 -0.0990
  824MOL0     O 8639   5.115   2.315   5.572  0.3191  0.3690 -0.0589
  824MOL0     C 8640   4.984   2.266   5.566  0.3940 -0.1019  0.4575
  824MOL0     C 8641   4.923   2.191   5.676  0.3895  0.3377  1.1315
  824MOL0     C 8642   4.787   2.144   5.665 -0.0283 -0.0896 -0.5856
  824MOL0     C 8643   4.700   2.184   5.567 -1.1642 -0.4399  0.3003
  824MOL0     O 8644   4.580   2.125   5.568  0.5276  0.0090 -0.0934
  824MOL0     C 8645   4.470   2.209   5.593  0.3736  0.7132 -0.2574
  824MOL0     C 8646   4.449   2.219   5.744  0.0349 -0.1885 -0.5414
  824MOL0     C 8647   4.345   2.326   5.780  0.2651 -0.4160 -0.3886
  824MOL0     C 8648   4.305   2.319   5.924 -0.5420  0.6568  0.5029
  824MOL0     C 8649   4.184   2.423   5.950  0.2208  0.1924 -0.7322
  824MOL0     C 8650   4.049   2.372   5.907 -1.6311  0.5739 -0.3367
  824MOL0     C 8651   3.950   2.481   5.919  0.2130 -0.5359  0.5521
  824MOL0     C 8652   3.816   2.437   5.867  0.4912 -0.1909  0.6632
  824MOL0     N 8653   3.712   2.513   5.931  0.1401 -0.2014 -0.5181
  824MOL0     C 8654   3.681   2.645   5.906  0.7098  0.0376 -0.0779
  824MOL0     C 8655   3.576   2.665   5.988  0.3367 -0.4461  0.0112
  824MOL0     C 8656   3.486   2.793   5.997 -1.1614 -0.6534 -0.2224
  824MOL0     C 8657   3.340   2.773   5.969 -0.8630  0.4654 -0.1594
  824MOL0     C 8658   3.321   2.761   5.819  0.2254  0.1886  0.6636
  824MOL0     C 8659   3.193   2.673   5.796  0.0539 -0.4297 -0.1588
  824MOL0     O 8660   3.082   2.750   5.834 -0.2821 -0.4640 -0.3656
  824MOL0     C 8661   2.948   2.713   5.814 -0.2504  0.0712 -0.6409
  824MOL0     C 8662   2.841   2.797   5.857 -0.1317  0.3341 -0.1223
  824MOL0     C 8663   2.704   2.759   5.834  0.5443 -0.9757  0.4419
  824MOL0     C 8664   2.678   2.626   5.791 -0.4246 -0.0587 -0.3763
  824MOL0     C 8665   2.534   2.585   5.774  0.3886 -1.1940 -0.2096
  824MOL0     O 8666   2.435   2.683   5.816  0.4689 -0.3500 -0.1745
  824MOL0     C 8667   2.316   2.641   5.865  0.0803  0.7988 -0.6577
  824MOL0     C 8668   2.295   2.545   5.964 -0.3365 -0.0919  0.1006
  824MOL0     C 8669   2.167   2.504   6.003 -0.0986 -0.3625 -0.2871
  824MOL0     C 8670   2.053   2.564   5.956  0.4161 -0.7653  0.1983
  824MOL0     O 8671   1.930   2.523   5.989  0.6789  0.1244 -0.1441
  824MOL0     C 8672   1.818   2.612   5.987  0.4640  0.0666  0.3596
  824MOL0     C 8673   1.710   2.562   6.078  0.5911  0.2329  0.5743
  824MOL0     C 8674   1.761   2.576   6.220  0.5227  0.6200  0.1913
  824MOL0     C 8675   1.659   2.569   6.346  0.3851  0.4597  0.2609
  824MOL0     C 8676   1.540   2.667   6.332 -0.9596 -0.1657  0.5608
  824MOL0     C 8677   1.463   2.689   6.461  0.3093  0.3825  0.2327
  824MOL0     C 8678   1.328   2.739   6.434  0.3751 -0.4926 -0.4904
  824MOL0     C 8679   1.239   2.792   6.549 -0.2982  0.0981  0.4570
  824MOL0    Cl 8680   1.097   2.883   6.494  0.2207  0.2965  0.4041
  824MOL0     C 8681   2.069   2.651   5.841  0.0519  0.0561 -0.0880
  824MOL0     C 8682   2.203   2.693   5.810  0.1640  0.7986  0.9221
  824MOL0     O 8683   2.512   2.465   5.750  0.1518  0.5161 -0.2936
  824MOL0     C 8684   2.783   2.546   5.752 -0.0632  0.2382  0.3659
  824MOL0     C 8685   2.915   2.587   5.762 -0.3803 -1.2652  0.0801
  824MOL0     N 8686   3.539   2.548   6.056 -0.2416 -0.1106 -0.1272
  824MOL0     N 8687   3.621   2.454   6.023 -0.0778 -0.3129  0.2950
  824MOL0     C 8688   4.755   2.265   5.463 -0.1195  0.5774 -0.3963
  824MOL0     C 8689   4.888   2.301   5.465  0.2623  0.5228  0.5421
  824MOL0     C 8690   5.333   2.358   5.503  1.0948  0.2893  0.9721
  824MOL0     C 8691   5.384   2.368   5.629  0.2694 -0.0492 -0.3729
  824MOL0     C 8692   5.513   2.401   5.654  0.6583  0.6847 -0.3318
  824MOL0     C 8693   5.602   2.410   5.547 -0.7750 -0.2854  0.0130
  824MOL0     O 8694   5.735   2.432   5.580  0.4658 -0.5940  0.2689
  824MOL0     C 8695   5.821   2.455   5.474  0.5420 -0.5542 -0.2252
  824MOL0     C 8696   5.967   2.485   5.512 -0.0393 -0.3957 -0.8421
  824MOL0     C 8697   6.031   2.365   5.595  0.4649  0.5296  0.4180
  824MOL0     C 8698   6.171   2.409   5.642  0.3339 -0.0578  0.7751
  824MOL0     C 8699   6.197   2.298   5.731 -0.4537  0.0219  0.5739
  824MOL0     C 8700   6.204   2.207   5.814  1.1481 -0.6686 -0.1997
  824MOL0     C 8701   5.556   2.405   5.416  0.0658  1.3931 -0.7274
  824MOL0     C 8702   5.420   2.376   5.396 -0.7776 -0.7681  0.4702
  824MOL0     H 8703   4.985   2.146   5.752 -0.6632 -0.2512  1.6693
  824MOL0     H 8704   4.757   2.083   5.750 -0.6232  2.2524  1.0041
  824MOL0     H 8705   4.384   2.151   5.557  1.1712 -2.3152  2.2540
  824MOL0     H 8706   4.478   2.305   5.541 -0.2246 -0.8435 -3.4921
  824MOL0     H 8707   4.537   2.238   5.806 -0.7521 -1.1886  0.9437
  824MOL0     H 8708   4.401   2.123   5.766 -1.9820  0.6237 -1.1143
  824MOL0     H 8709   4.258   2.305   5.718  0.2661 -2.2703  0.1928
  824MOL0     H 8710   4.369   2.430   5.757  0.8135 -0.5092 -0.2662
  824MOL0     H 8711   4.270   2.216   5.940  3.6594 -1.0795 -0.3261
  824MOL0     H 8712   4.399   2.327   5.980  1.9893 -0.9572 -3.1432
  824MOL0     H 8713   4.211   2.518   5.904  2.2273  0.1955  0.3537
  824MOL0     H 8714   4.164   2.434   6.057 -1.9789 -3.3541 -0.6055
  824MOL0     H 8715   4.013   2.278   5.952  0.5695  0.9285  2.4159
  824MOL0     H 8716   4.061   2.338   5.804  2.6145  0.7731 -0.0577
  824MOL0     H 8717   3.956   2.522   6.020  1.2972 -0.9037  0.6475
  824MOL0     H 8718   3.985   2.571   5.866 -3.6218  0.5789 -0.3931
  824MOL0     H 8719   3.800   2.332   5.893  0.3626 -0.7792 -1.5479
  824MOL0     H 8720   3.792   2.445   5.760 -1.5033  1.5891  1.1656
  824MOL0     H 8721   3.733   2.709   5.836  1.0491 -0.8185 -0.6385
  824MOL0     H 8722   3.524   2.876   5.936 -0.1713  1.1469  2.6730
  824MOL0     H 8723   3.498   2.842   6.094  3.0396 -2.2740  0.2880
  824MOL0     H 8724   3.286   2.859   6.009 -0.3857  0.0850  1.3485
  824MOL0     H 8725   3.307   2.685   6.024 -3.2467  1.8493  0.7795
  824MOL0     H 8726   3.312   2.860   5.774  0.7705 -0.8521 -1.8931
  824MOL0     H 8727   3.407   2.706   5.780 -1.0002 -1.9626  0.8715
  824MOL0     H 8728   3.209   2.578   5.848 -1.4632 -0.7418 -0.2437
  824MOL0     H 8729   3.175   2.643   5.693  2.2912  0.0398 -0.7343
  824MOL0     H 8730   2.858   2.890   5.910  1.0456 -0.2336  0.5358
  824MOL0     H 8731   2.623   2.827   5.856  0.4989 -0.5870 -0.8893
  824MOL0     H 8732   2.379   2.487   6.003 -1.4084 -2.7257 -1.2065
  824MOL0     H 8733   2.149   2.426   6.076 -0.3510 -0.1217 -0.0899
  824MOL0     H 8734   1.779   2.611   5.885  1.3884  1.6071 -0.0541
  824MOL0     H 8735   1.827   2.720   6.003  2.4668  0.1500 -0.9990
  824MOL0     H 8736   1.690   2.456   6.059  2.6274 -0.1448  0.3271
  824MOL0     H 8737   1.620   2.622   6.059 -0.1057 -0.0686  2.5850
  824MOL0     H 8738   1.820   2.667   6.234 -0.7681  1.5844 -0.3916
  824MOL0     H 8739   1.838   2.501   6.238  1.7250  2.0110  1.0715
  824MOL0     H 8740   1.615   2.469   6.339 -0.1985  0.8365 -3.9526
  824MOL0     H 8741   1.710   2.587   6.441  3.5883 -1.6401 -0.9044
  824MOL0     H 8742   1.477   2.644   6.246  1.1237  2.1750 -1.7331
  824MOL0     H 8743   1.582   2.764   6.303  0.5807 -1.3959 -1.6789
  824MOL0     H 8744   1.511   2.767   6.520 -0.0764  1.5468 -0.9560
  824MOL0     H 8745   1.443   2.600   6.521 -2.7182  2.2797  2.2579
  824MOL0     H 8746   1.353   2.829   6.376 -0.9182 -0.7777 -1.5411
  824MOL0     H 8747   1.262   2.681   6.368 -0.7759  2.7448 -2.4440
  824MOL0     H 8748   1.303   2.851   6.616  3.1379 -3.7833  1.0039
  824MOL0     H 8749   1.198   2.707   6.604  3.9024 -2.1445  0.5529
  824MOL0     H 8750   1.978   2.688   5.795  0.5055  1.8526  0.3893
  824MOL0     H 8751   2.212   2.759   5.725 -1.3194  1.2367  1.0771
  824MOL0     H 8752   2.754   2.450   5.710 -0.7840 -0.2261  1.8618
  824MOL0     H 8753   2.988   2.508   5.751  0.6202 -0.2622 -0.8000
  824MOL0     H 8754   4.693   2.292   5.378 -0.3256  3.5998  0.5792
  824MOL0     H 8755   4.911   2.371   5.385 -1.0727  1.2115  0.7324
  824MOL0     H 8756   5.316   2.373   5.713  0.8080 -3.1831  0.4047
  824MOL0     H 8757   5.545   2.452   5.745 -0.3322  4.4168 -1.8991
  824MOL0     H 8758   5.788   2.538   5.411  0.7835 -0.3630 -0.1008
  824MOL0     H 8759   5.828   2.366   5.410  0.8776  1.3135 -2.9537
  824MOL0     H 8760   6.034   2.501   5.427  1.7410 -1.3479  0.3355
  824MOL0     H 8761   5.977   2.574   5.574  3.2788 -1.0950 -0.2082
  824MOL0     H 8762   6.035   2.272   5.538 -3.3594  1.3025 -1.4224
  824MOL0     H 8763   5.966   2.352   5.683 -0.5594  4.7078  0.4834
  824MOL0     H 8764   6.249   2.406   5.565  0.7566 -0.6721  1.2215
  824MOL0     H 8765   6.178   2.506   5.693 -0.4782  1.0130 -1.0344
  824MOL0     H 8766   6.218   2.141   5.897 -2.8981 -0.0722  1.1818
  824MOL0     H 8767   5.629   2.400   5.335 -0.3576 -4.2118 -1.1388
  824MOL0     H 8768   5.396   2.363   5.291  2.5110  3.7393 -1.1399
  825MOL0     O 8769   8.722  11.105   0.319 -0.0984  0.0211  0.2680
  825MOL0     C 8770   8.616  11.130   0.372 -0.1048 -1.3614  0.9797
  825MOL0     O 8771   8.491  11.077   0.333 -0.6029  0.2716 -0.6701
  825MOL0     C 8772   8.464  10.959   0.264 -0.7231  0.7575 -0.0036
  825MOL0     C 8773   8.326  10.931   0.249  0.1378  0.1033  0.8216
  825MOL0     C 8774   8.281  10.809   0.207  0.3265 -0.0468 -0.5432
  825MOL0     C 8775   8.373  10.715   0.147 -0.4477  0.0969  0.1376
  825MOL0     O 8776   8.325  10.592   0.104 -0.5364 -0.1045  0.2429
  825MOL0     C 8777   8.408  10.508   0.016 -0.4203 -0.0841 -0.2232
  825MOL0     C 8778   8.345  10.374   0.008  0.3433  0.4313  0.1910
  825MOL0     C 8779   8.198  10.381  -0.067  0.3526 -0.3039 -0.2515
  825MOL0     C 8780   8.191  10.471  -0.193 -0.7158  0.6536  0.3120
  825MOL0     C 8781   8.074  10.446  -0.290  0.1305 -0.6568 -0.5544
  825MOL0     C 8782   7.944  10.516  -0.244  0.7220 -0.2621 -0.3331
  825MOL0     C 8783   7.819  10.474  -0.316 -0.2905  1.0400  0.2614
  825MOL0     C 8784   7.706  10.579  -0.307  0.3818  0.4649  0.4016
  825MOL0     N 8785   7.621  10.608  -0.428 -0.0713  0.7800 -0.9512
  825MOL0     C 8786   7.596  10.529  -0.536 -0.3027  0.0712  0.2416
  825MOL0     C 8787   7.477  10.565  -0.590  0.4770 -0.8197 -1.1144
  825MOL0     C 8788   7.410  10.489  -0.694  0.3254  0.1821  0.5006
  825MOL0     C 8789   7.296  10.563  -0.781  0.3535 -0.6406  0.5506
  825MOL0     C 8790   7.162  10.587  -0.699 -0.7444 -0.9244 -0.2931
  825MOL0     C 8791   7.043  10.636  -0.778  0.4985 -0.1463  0.6987
  825MOL0     O 8792   6.929  10.628  -0.694 -0.4175 -0.2070 -0.3977
  825MOL0     C 8793   6.807  10.679  -0.724 -0.0947  0.1375 -0.0392
  825MOL0     C 8794   6.720  10.704  -0.618  0.4919 -0.9353  0.5321
  825MOL0     C 8795   6.586  10.758  -0.647 -0.3229  0.5888  0.0020
  825MOL0     C 8796   6.547  10.782  -0.774 -0.0740  0.7080  0.5178
  825MOL0     C 8797   6.414  10.827  -0.796  0.2562  0.1622  0.3832
  825MOL0     O 8798   6.406  10.938  -0.880  0.2976  0.2635  0.5427
  825MOL0     C 8799   6.279  10.996  -0.906 -0.4363 -0.0278 -0.0198
  825MOL0     C 8800   6.163  10.925  -0.942  0.6629 -0.7279  0.7862
  825MOL0     C 8801   6.042  10.985  -0.973  0.7678  0.9177  0.3552
  825MOL0     C 8802   6.037  11.127  -0.980 -0.4966  0.2705  0.0622
  825MOL0     O 8803   5.933  11.214  -1.013  0.5793 -0.5856 -0.5318
  825MOL0     C 8804   5.832  11.169  -1.099  0.2606  0.6582  0.2378
  825MOL0     C 8805   5.733  11.281  -1.130 -0.8800 -0.6771  1.0192
  825MOL0     C 8806   5.758  11.340  -1.267  0.3019  0.2942 -0.3983
  825MOL0     C 8807   5.642  11.438  -1.298  0.8464  0.6981 -0.4352
  825MOL0     C 8808   5.702  11.540  -1.410  0.3837  0.8307 -0.0425
  825MOL0     C 8809   5.615  11.560  -1.533  0.6263 -0.0899  0.6387
  825MOL0     C 8810   5.676  11.665  -1.615  1.0877 -0.3693 -0.7353
  825MOL0     C 8811   5.584  11.686  -1.733 -0.0256  1.0953  0.6116
  825MOL0    Cl 8812   5.642  11.820  -1.832 -0.4556 -0.0975 -0.0791
  825MOL0     C 8813   6.154  11.198  -0.952 -0.8868  0.0658  0.0215
  825MOL0     C 8814   6.275  11.138  -0.909 -0.5482  0.4393  0.0271
  825MOL0     O 8815   6.323  10.770  -0.741  0.1286  0.3079  0.2839
  825MOL0     C 8816   6.634  10.766  -0.877  0.4865  0.0581  0.0172
  825MOL0     C 8817   6.763  10.713  -0.862 -0.8504 -0.1556 -0.3439
  825MOL0     N 8818   7.433  10.668  -0.510 -0.7204  0.0583 -0.2544
  825MOL0     N 8819   7.523  10.699  -0.424  0.0041 -0.3523 -0.4807
  825MOL0     C 8820   8.509  10.760   0.137  0.6755  1.0681 -0.1862
  825MOL0     C 8821   8.558  10.880   0.193 -0.5340 -0.6299  0.6475
  825MOL0     C 8822   8.607  11.238   0.469  0.1288  0.8398 -0.0408
  825MOL0     C 8823   8.483  11.291   0.502 -1.3227  0.0878  0.2020
  825MOL0     C 8824   8.469  11.407   0.563 -0.6550 -1.4559 -0.7054
  825MOL0     C 8825   8.582  11.483   0.599  0.6795 -0.5875 -0.1597
  825MOL0     O 8826   8.557  11.610   0.644  0.7526  0.9108  0.5777
  825MOL0     C 8827   8.656  11.684   0.704 -1.1593 -0.3428  0.6473
  825MOL0     C 8828   8.754  11.757   0.618  0.0261 -0.3852  0.4260
  825MOL0     C 8829   8.850  11.846   0.705  0.0003 -0.4335 -0.0802
  825MOL0     C 8830   8.926  11.940   0.609  0.0696 -0.2974  0.2852
  825MOL0     C 8831   8.996  11.874   0.502 -0.4351 -0.3130 -0.6870
  825MOL0     C 8832   9.067  11.821   0.414  0.4833  0.5579  0.0328
  825MOL0     C 8833   8.709  11.422   0.587  1.1927 -0.5431 -0.5603
  825MOL0     C 8834   8.720  11.294   0.529 -0.2608 -0.1845 -0.1119
  825MOL0     H 8835   8.259  11.004   0.294 -0.0460  0.4407  0.0181
  825MOL0     H 8836   8.175  10.783   0.206  0.8335 -2.9720  2.9654
  825MOL0     H 8837   8.500  10.496   0.075 -0.4268  0.6079 -0.0588
  825MOL0     H 8838   8.425  10.551  -0.083  0.5100  1.0063  0.3871
  825MOL0     H 8839   8.343  10.322   0.104  1.1723 -0.6553 -0.3621
  825MOL0     H 8840   8.403  10.317  -0.064 -1.4471 -2.8482  1.1650
  825MOL0     H 8841   8.126  10.425   0.003  1.7479 -0.1089  1.1382
  825MOL0     H 8842   8.165  10.281  -0.096 -0.2537 -0.0297 -0.5063
  825MOL0     H 8843   8.206  10.577  -0.172  1.2315  0.8160 -1.6070
  825MOL0     H 8844   8.274  10.442  -0.257 -1.0791  1.1620 -0.4036
  825MOL0     H 8845   8.053  10.340  -0.305 -4.2249  0.2166 -2.0405
  825MOL0     H 8846   8.101  10.486  -0.388  0.1439  0.3212 -0.1648
  825MOL0     H 8847   7.967  10.622  -0.251 -0.4658 -0.1115 -3.7049
  825MOL0     H 8848   7.933  10.493  -0.138 -0.9629  3.0820  0.3540
  825MOL0     H 8849   7.848  10.463  -0.421  2.0433 -0.2254  0.9673
  825MOL0     H 8850   7.791  10.381  -0.265  1.3351 -0.4464 -1.4197
  825MOL0     H 8851   7.755  10.674  -0.285 -0.6411  1.5238 -1.5947
  825MOL0     H 8852   7.648  10.552  -0.219 -0.6922  1.1116 -0.0865
  825MOL0     H 8853   7.659  10.449  -0.576  0.1147  1.1913 -1.4484
  825MOL0     H 8854   7.381  10.395  -0.645  0.9692 -0.6904 -0.7300
  825MOL0     H 8855   7.499  10.462  -0.752  2.0714 -1.4490  3.6203
  825MOL0     H 8856   7.274  10.496  -0.864  4.8405 -0.3729 -1.1394
  825MOL0     H 8857   7.341  10.659  -0.810  2.0087 -2.7709 -5.5633
  825MOL0     H 8858   7.138  10.499  -0.638  4.3907 -1.7161  1.0736
  825MOL0     H 8859   7.181  10.660  -0.620  3.6352 -3.4630  1.4198
  825MOL0     H 8860   7.024  10.565  -0.860  0.3156 -2.7910  2.9055
  825MOL0     H 8861   7.046  10.736  -0.823 -3.3395 -0.0558  0.2983
  825MOL0     H 8862   6.751  10.686  -0.516 -1.6864  1.0148  1.6247
  825MOL0     H 8863   6.523  10.774  -0.561  1.9014 -2.8624  2.4914
  825MOL0     H 8864   6.171  10.817  -0.942  2.1191 -0.6980  3.3544
  825MOL0     H 8865   5.949  10.931  -0.983  0.3283  1.6595  0.3428
  825MOL0     H 8866   5.769  11.091  -1.056 -0.9826  0.5206 -1.7136
  825MOL0     H 8867   5.869  11.115  -1.187 -0.6197 -1.4652  1.1194
  825MOL0     H 8868   5.741  11.362  -1.056  0.2398 -0.7947  1.0455
  825MOL0     H 8869   5.632  11.240  -1.134 -0.9537 -0.4051 -1.6103
  825MOL0     H 8870   5.759  11.256  -1.337 -2.9325  1.1037 -1.6177
  825MOL0     H 8871   5.849  11.399  -1.254 -0.9438  2.2961 -0.3567
  825MOL0     H 8872   5.558  11.387  -1.347 -0.0572  1.0436  0.7190
  825MOL0     H 8873   5.594  11.492  -1.217  0.4252  1.7500 -1.3520
  825MOL0     H 8874   5.792  11.500  -1.457 -2.1255  0.0090 -4.6938
  825MOL0     H 8875   5.723  11.632  -1.354 -1.4877  1.3534 -0.1308
  825MOL0     H 8876   5.517  11.604  -1.513  0.4255  2.5170 -4.5066
  825MOL0     H 8877   5.589  11.471  -1.590 -2.1148  0.7478  0.4463
  825MOL0     H 8878   5.670  11.759  -1.560 -1.4278 -0.3328 -0.9560
  825MOL0     H 8879   5.780  11.642  -1.639  1.4657  0.4925  0.0487
  825MOL0     H 8880   5.479  11.693  -1.703 -0.5594 -1.8090 -0.3195
  825MOL0     H 8881   5.592  11.594  -1.791  2.8274 -0.2675  2.8444
  825MOL0     H 8882   6.163  11.306  -0.959  1.0244  0.0933  1.9695
  825MOL0     H 8883   6.364  11.192  -0.877  0.3144  0.7648 -2.6618
  825MOL0     H 8884   6.604  10.796  -0.977 -1.3823 -0.1238  0.4875
  825MOL0     H 8885   6.830  10.691  -0.944 -0.8337 -3.9808  0.4826
  825MOL0     H 8886   8.577  10.687   0.095  0.9509  1.8602 -1.1582
  825MOL0     H 8887   8.665  10.895   0.190 -0.5960 -0.2870  0.0873
  825MOL0     H 8888   8.386  11.251   0.473 -1.2897 -1.7629  2.3873
  825MOL0     H 8889   8.366  11.441   0.566 -0.6963 -1.4569 -1.7721
  825MOL0     H 8890   8.715  11.617   0.767  0.4976  1.1444  0.7359
  825MOL0     H 8891   8.622  11.766   0.768  0.6375 -0.6385  2.0679
  825MOL0     H 8892   8.809  11.682   0.561 -2.9656 -0.8212 -2.1632
  825MOL0     H 8893   8.706  11.815   0.539  0.8141  1.4203  1.2013
  825MOL0     H 8894   8.920  11.786   0.763  0.1917 -0.7286 -0.6065
  825MOL0     H 8895   8.791  11.895   0.783  0.8461 -0.4190  0.5621
  825MOL0     H 8896   8.857  12.011   0.563 -0.1724 -1.0413 -0.5309
  825MOL0     H 8897   8.996  11.999   0.668 -0.5723 -1.4735  2.3047
  825MOL0     H 8898   9.137  11.777   0.345  1.4103 -1.8595  2.3326
  825MOL0     H 8899   8.795  11.483   0.610  0.1141  1.7316 -2.1891
  825MOL0     H 8900   8.816  11.244   0.514 -0.2236 -0.1541  0.0188
  826MOL0     O 8901   4.725   9.769   8.120 -0.0601  0.1300  0.3110
  826MOL0     C 8902   4.748   9.649   8.100 -0.7010 -0.2548  0.0126
  826MOL0     O 8903   4.688   9.551   8.174  0.2204  0.7870 -0.1136
  826MOL0     C 8904   4.608   9.586   8.278 -0.0885 -0.7447 -0.0902
  826MOL0     C 8905   4.480   9.623   8.253  0.2621 -0.1533 -0.5905
  826MOL0     C 8906   4.389   9.645   8.359 -0.0384 -0.3401  0.0200
  826MOL0     C 8907   4.432   9.637   8.493 -0.0318  0.1394  0.3102
  826MOL0     O 8908   4.343   9.675   8.587  0.7050  0.4973  0.4806
  826MOL0     C 8909   4.358   9.643   8.725 -0.2642  0.1533 -0.3208
  826MOL0     C 8910   4.224   9.627   8.792 -0.3300  0.2453 -0.7164
  826MOL0     C 8911   4.151   9.757   8.828  0.1867 -0.3407 -0.2366
  826MOL0     C 8912   4.031   9.721   8.916  0.3900  0.7763 -0.5657
  826MOL0     C 8913   3.939   9.839   8.937 -0.2476 -1.1610  0.6678
  826MOL0     C 8914   3.804   9.812   9.010 -0.3372 -0.1103  0.5599
  826MOL0     C 8915   3.840   9.753   9.139 -0.0296 -0.3807  0.7169
  826MOL0     C 8916   3.729   9.749   9.245 -0.3219  0.3527 -0.3545
  826MOL0     N 8917   3.590   9.715   9.197  0.4140  0.0058  0.4688
  826MOL0     C 8918   3.477   9.796   9.207  0.0257  0.4008  0.0611
  826MOL0     C 8919   3.374   9.711   9.184  0.0616 -0.5357 -0.9565
  826MOL0     C 8920   3.224   9.748   9.186  0.2841  0.1678  1.0862
  826MOL0     C 8921   3.185   9.728   9.330  0.0451 -1.0898 -0.9291
  826MOL0     C 8922   3.048   9.785   9.361 -0.2972  0.1793  0.4268
  826MOL0     C 8923   3.031   9.806   9.513  0.9262 -0.3884 -0.4437
  826MOL0     O 8924   2.938   9.903   9.552 -0.0399  0.0541 -0.1895
  826MOL0     C 8925   2.803   9.898   9.519  0.7368 -0.9483  0.1835
  826MOL0     C 8926   2.725   9.778   9.497 -0.7299  0.1297  0.1330
  826MOL0     C 8927   2.595   9.794   9.470  1.0412  0.0236 -1.0542
  826MOL0     C 8928   2.528   9.919   9.472 -0.5482  0.9580 -0.1912
  826MOL0     C 8929   2.389   9.927   9.451 -0.2394  0.5461  0.8192
  826MOL0     O 8930   2.332  10.046   9.479  0.5783  0.4313 -0.5540
  826MOL0     C 8931   2.197  10.051   9.464 -0.0232 -0.3214 -0.3691
  826MOL0     C 8932   2.117  10.005   9.569  0.0098 -0.1928 -0.3371
  826MOL0     C 8933   1.972   9.995   9.539 -0.0308  0.2253 -0.4962
  826MOL0     C 8934   1.912  10.050   9.424  0.3732 -0.0477  0.9410
  826MOL0     O 8935   1.778  10.039   9.395 -0.2559  0.1036  0.5360
  826MOL0     C 8936   1.690   9.976   9.491 -0.0357  0.6462 -0.9665
  826MOL0     C 8937   1.547   9.993   9.438 -1.1401  0.2519 -0.1674
  826MOL0     C 8938   1.495  10.137   9.435  0.8946  0.1144  0.3958
  826MOL0     C 8939   1.336  10.110   9.418 -1.1202 -0.8293 -0.3176
  826MOL0     C 8940   1.268  10.234   9.362 -0.6080  0.3332 -0.1976
  826MOL0     C 8941   1.117  10.246   9.369 -0.0121  0.0053  0.7290
  826MOL0     C 8942   1.076  10.398   9.349 -1.0340  0.3345  0.1205
  826MOL0     C 8943   0.937  10.441   9.389 -0.5047  0.3165  0.2337
  826MOL0    Cl 8944   0.822  10.333   9.295 -0.1348 -0.1106  0.0287
  826MOL0     C 8945   2.002  10.106   9.325 -0.0910  0.1209  0.4186
  826MOL0     C 8946   2.143  10.094   9.343 -0.5527  0.3494 -0.0562
  826MOL0     O 8947   2.336   9.822   9.423 -0.1312  0.5538 -0.1060
  826MOL0     C 8948   2.600  10.036   9.504  0.6356  0.1085 -0.4883
  826MOL0     C 8949   2.738  10.021   9.522 -0.3354  0.0713 -0.0967
  826MOL0     N 8950   3.421   9.588   9.160 -0.5320  0.1352 -0.1620
  826MOL0     N 8951   3.545   9.590   9.152  0.1552  0.7827  0.4754
  826MOL0     C 8952   4.568   9.609   8.516 -0.6803 -0.3872  0.1850
  826MOL0     C 8953   4.661   9.586   8.411  0.5739  0.5937  0.0610
  826MOL0     C 8954   4.837   9.610   7.994 -0.8037 -0.7563 -0.2475
  826MOL0     C 8955   4.851   9.476   7.945 -0.6660  1.6748  0.2725
  826MOL0     C 8956   4.949   9.440   7.852 -0.0201 -0.0828  0.3650
  826MOL0     C 8957   5.025   9.535   7.787 -0.1934 -0.3855 -0.8583
  826MOL0     O 8958   5.111   9.487   7.695  0.7083 -0.8589 -0.0086
  826MOL0     C 8959   5.178   9.577   7.597 -0.7608  0.4604 -0.2531
  826MOL0     C 8960   5.205   9.510   7.464  0.6818  0.4598  1.0854
  826MOL0     C 8961   5.346   9.433   7.465  1.6085  0.7975 -0.2439
  826MOL0     C 8962   5.366   9.362   7.328  0.3558 -0.0879 -0.5283
  826MOL0     C 8963   5.423   9.442   7.215 -0.6592 -0.5662 -0.5655
  826MOL0     C 8964   5.484   9.514   7.134 -0.0966  0.8002 -0.6804
  826MOL0     C 8965   5.016   9.676   7.821 -0.1057  1.0021 -0.0199
  826MOL0     C 8966   4.925   9.707   7.923 -0.3420  0.5270 -0.4955
  826MOL0     H 8967   4.446   9.627   8.150  0.1698  2.6860 -0.5131
  826MOL0     H 8968   4.284   9.668   8.346 -0.1453  0.1920  1.5960
  826MOL0     H 8969   4.421   9.715   8.779 -0.9385  0.5878 -0.1031
  826MOL0     H 8970   4.408   9.547   8.740 -0.7143 -0.0153  0.0752
  826MOL0     H 8971   4.230   9.564   8.881 -0.9950  3.1646  1.5471
  826MOL0     H 8972   4.162   9.574   8.720  2.7599 -0.3518 -3.1337
  826MOL0     H 8973   4.122   9.808   8.736  2.4300 -2.3565 -2.1919
  826MOL0     H 8974   4.226   9.818   8.881  1.7321  0.0079 -2.6748
  826MOL0     H 8975   3.985   9.632   8.873  0.6926  1.4764 -2.3975
  826MOL0     H 8976   4.069   9.698   9.016 -0.7031 -0.7253 -0.4629
  826MOL0     H 8977   3.913   9.887   8.843 -0.5142  0.0174  1.3301
  826MOL0     H 8978   3.982   9.915   9.003 -2.8150  0.6175  0.4267
  826MOL0     H 8979   3.740   9.743   8.954 -3.1625  3.0993 -0.5647
  826MOL0     H 8980   3.742   9.902   9.019  0.3496  0.3727  0.5764
  826MOL0     H 8981   3.877   9.653   9.117  0.9842 -0.5316  2.8103
  826MOL0     H 8982   3.920   9.811   9.185 -1.4156 -0.3066  3.1983
  826MOL0     H 8983   3.719   9.850   9.286  2.6847  0.8786 -0.7044
  826MOL0     H 8984   3.754   9.696   9.337 -0.8731  1.6277  0.5572
  826MOL0     H 8985   3.465   9.902   9.227  0.6205  0.5311 -0.2240
  826MOL0     H 8986   3.155   9.695   9.120  0.3979  1.1196  0.1798
  826MOL0     H 8987   3.223   9.856   9.165  1.1581  0.0286  0.2305
  826MOL0     H 8988   3.255   9.774   9.401 -1.1596 -0.9622  0.2160
  826MOL0     H 8989   3.183   9.619   9.344  1.6171 -1.0015  0.2173
  826MOL0     H 8990   3.042   9.886   9.320 -1.0174  0.4156  1.0812
  826MOL0     H 8991   2.971   9.729   9.308 -0.3217  1.6592 -1.1991
  826MOL0     H 8992   3.127   9.829   9.560  0.9861 -0.8885 -0.3075
  826MOL0     H 8993   2.989   9.711   9.547  0.0035 -0.2246 -1.0890
  826MOL0     H 8994   2.785   9.688   9.504  3.2348  2.2856 -2.1464
  826MOL0     H 8995   2.546   9.699   9.451  3.3147 -1.5265  0.2544
  826MOL0     H 8996   2.152   9.964   9.663 -3.1371  0.7715  1.3971
  826MOL0     H 8997   1.918   9.951   9.621  1.0805 -2.4186 -1.0941
  826MOL0     H 8998   1.703  10.032   9.584  1.3355  0.1803 -0.8490
  826MOL0     H 8999   1.723   9.876   9.519 -1.2947  0.3096 -0.6135
  826MOL0     H 9000   1.494   9.927   9.507 -0.9651 -1.9977 -2.0524
  826MOL0     H 9001   1.544   9.940   9.342 -1.4686 -0.8121  0.4169
  826MOL0     H 9002   1.533  10.165   9.337 -3.2810 -1.6135 -1.9661
  826MOL0     H 9003   1.538  10.197   9.516 -3.6588  1.6760  1.9594
  826MOL0     H 9004   1.336  10.018   9.359  2.6008 -0.2235 -1.5057
  826MOL0     H 9005   1.303  10.088   9.520 -4.4632  1.3931 -0.7786
  826MOL0     H 9006   1.300  10.246   9.258  2.1270 -1.8441  0.2630
  826MOL0     H 9007   1.310  10.313   9.424 -3.8046  1.9556  0.0855
  826MOL0     H 9008   1.087  10.198   9.462  1.2290 -2.3168  0.0097
  826MOL0     H 9009   1.066  10.182   9.296 -0.6734  2.7168 -1.3604
  826MOL0     H 9010   1.139  10.463   9.412 -0.1618  0.2920 -0.6944
  826MOL0     H 9011   1.096  10.427   9.246  2.5073 -2.2003 -0.0824
  826MOL0     H 9012   0.920  10.548   9.370  0.5153  0.2175 -1.4861
  826MOL0     H 9013   0.932  10.432   9.497  1.0513 -1.1056  0.2209
  826MOL0     H 9014   1.960  10.146   9.233  1.1581 -4.4197 -2.4690
  826MOL0     H 9015   2.220  10.128   9.276 -1.3184  0.6055 -0.8210
  826MOL0     H 9016   2.562  10.137   9.515  4.3469  1.5495  0.9266
  826MOL0     H 9017   2.800  10.103   9.556  2.1688 -1.1214 -1.5218
  826MOL0     H 9018   4.604   9.614   8.618  1.6284 -2.6533 -0.4292
  826MOL0     H 9019   4.769   9.580   8.419  0.4445 -3.3734  1.2345
  826MOL0     H 9020   4.810   9.389   7.995  3.1557 -0.8721 -0.5689
  826MOL0     H 9021   4.969   9.336   7.828  2.5687  0.3883  0.1626
  826MOL0     H 9022   5.272   9.618   7.636 -1.2345  0.5304  0.8782
  826MOL0     H 9023   5.113   9.663   7.581 -1.4104 -0.1685 -1.0589
  826MOL0     H 9024   5.126   9.440   7.433  0.4715  1.0968  0.1504
  826MOL0     H 9025   5.194   9.597   7.399 -2.5933 -0.0177  0.8275
  826MOL0     H 9026   5.336   9.364   7.550  0.3952  0.1104 -0.9149
  826MOL0     H 9027   5.425   9.504   7.492  0.4471  1.8686  0.4688
  826MOL0     H 9028   5.435   9.279   7.340 -0.9384 -1.1195  0.0195
  826MOL0     H 9029   5.281   9.305   7.292  1.4046 -2.7333  0.9019
  826MOL0     H 9030   5.532   9.561   7.050  0.9468 -1.1027 -1.2073
  826MOL0     H 9031   5.079   9.754   7.779 -2.0437  1.8457 -1.5021
  826MOL0     H 9032   4.931   9.810   7.957 -1.0283  0.6832 -0.8399
  827MOL0     O 9033   8.495   2.929  10.114 -0.3711 -0.4830 -0.6456
  827MOL0     C 9034   8.587   2.950  10.037 -1.0604  0.3775  0.4187
  827MOL0     O 9035   8.613   2.872   9.927  1.2705  0.2795 -0.0458
  827MOL0     C 9036   8.520   2.783   9.892  0.7757 -0.2531 -1.1411
  827MOL0     C 9037   8.504   2.670   9.977 -0.5794 -0.3627 -0.0868
  827MOL0     C 9038   8.415   2.563   9.936 -0.3158 -0.5378 -0.3632
  827MOL0     C 9039   8.325   2.579   9.831  0.1991  0.0201  0.9238
  827MOL0     O 9040   8.257   2.477   9.773 -0.2979  0.0821  0.0392
  827MOL0     C 9041   8.154   2.443   9.860  0.1946 -0.9062  0.3057
  827MOL0     C 9042   8.045   2.378   9.778  0.7953  0.4251 -0.0619
  827MOL0     C 9043   7.933   2.326   9.870 -0.6926  0.0296  0.5127
  827MOL0     C 9044   7.804   2.279   9.787  0.3924 -0.2372  0.2273
  827MOL0     C 9045   7.688   2.249   9.879 -0.4193  0.2560  0.6751
  827MOL0     C 9046   7.610   2.365   9.945 -0.0722  0.0782  0.2954
  827MOL0     C 9047   7.467   2.324   9.974 -0.0681 -0.5819  0.0816
  827MOL0     C 9048   7.467   2.206  10.062 -0.1487 -0.0746 -0.0164
  827MOL0     N 9049   7.332   2.143  10.049  0.4220 -0.6091 -0.7850
  827MOL0     C 9050   7.225   2.165  10.133  0.0763 -0.6216  0.7029
  827MOL0     C 9051   7.116   2.111  10.073  0.1435 -0.9015  0.7931
  827MOL0     C 9052   6.971   2.127  10.122  0.0636  0.0991  0.5952
  827MOL0     C 9053   6.871   2.161  10.004 -0.4217 -0.7499  0.0948
  827MOL0     C 9054   6.743   2.227  10.037 -0.3126  0.4721 -0.9382
  827MOL0     C 9055   6.637   2.130  10.094 -0.0025 -0.5799 -1.0316
  827MOL0     O 9056   6.504   2.194  10.096  0.7860  0.7365  0.2991
  827MOL0     C 9057   6.397   2.125  10.142 -0.5165  0.9346  0.2185
  827MOL0     C 9058   6.274   2.161  10.093 -0.1280 -0.1461 -0.4960
  827MOL0     C 9059   6.155   2.107  10.138  0.0913  0.0549 -0.8962
  827MOL0     C 9060   6.157   2.004  10.235  0.0007  0.2478  0.6936
  827MOL0     C 9061   6.030   1.930  10.273  0.4164 -0.6464  0.1258
  827MOL0     O 9062   5.905   1.989  10.237 -0.4124 -0.4203  0.4114
  827MOL0     C 9063   5.790   1.929  10.276 -0.2489  1.5888  0.1274
  827MOL0     C 9064   5.708   1.848  10.195 -0.0859 -0.8537  0.2777
  827MOL0     C 9065   5.591   1.793  10.247  0.5219 -0.3138  0.1285
  827MOL0     C 9066   5.553   1.828  10.377  0.1951 -0.7410  0.8596
  827MOL0     O 9067   5.432   1.773  10.422 -1.1394  0.1239  0.4443
  827MOL0     C 9068   5.313   1.810  10.359  0.2457  0.0238  0.0115
  827MOL0     C 9069   5.222   1.833  10.478 -0.4507 -0.3200  0.1515
  827MOL0     C 9070   5.093   1.903  10.428  0.2070 -0.5921  0.9657
  827MOL0     C 9071   4.989   1.923  10.538 -0.1352 -0.3092  0.1679
  827MOL0     C 9072   4.884   2.015  10.476 -0.1599 -0.0687  0.1870
  827MOL0     C 9073   4.752   2.008  10.551  0.1458  0.5427  0.3336
  827MOL0     C 9074   4.639   2.084  10.485  0.4661 -1.3667  0.1963
  827MOL0     C 9075   4.577   1.986  10.379 -0.0975  0.4075 -0.9258
  827MOL0    Cl 9076   4.443   1.881  10.452 -0.1565  0.3784  0.4298
  827MOL0     C 9077   5.636   1.902  10.456 -0.9383  0.2747 -0.0175
  827MOL0     C 9078   5.761   1.946  10.411 -0.4441 -0.5040  0.0966
  827MOL0     O 9079   6.043   1.834  10.348  0.6237  0.0442 -0.3831
  827MOL0     C 9080   6.281   1.961  10.282  0.6327 -0.4373 -0.2269
  827MOL0     C 9081   6.399   2.024  10.233 -0.0059 -0.6118 -0.4734
  827MOL0     N 9082   7.159   2.039   9.966 -0.2892  0.2324 -0.4283
  827MOL0     N 9083   7.290   2.052   9.964  0.0224 -0.5855 -0.4770
  827MOL0     C 9084   8.333   2.698   9.754 -0.6061 -0.0383  0.1620
  827MOL0     C 9085   8.434   2.802   9.783  0.0168 -0.5155 -0.2238
  827MOL0     C 9086   8.677   3.054  10.065 -0.1805  0.5027 -0.2223
  827MOL0     C 9087   8.767   3.096   9.970 -0.1466  0.6163 -0.0148
  827MOL0     C 9088   8.870   3.188  10.002 -1.0030 -0.2821 -0.3731
  827MOL0     C 9089   8.881   3.253  10.129  0.7917 -1.0642  0.3770
  827MOL0     O 9090   8.969   3.357  10.141  0.1218  0.1158 -0.4057
  827MOL0     C 9091   9.002   3.417  10.271 -0.0997  0.2689  0.1473
  827MOL0     C 9092   9.099   3.318  10.333  0.2729  0.0333  0.2286
  827MOL0     C 9093   9.195   3.390  10.423 -0.1004 -0.0133  0.0785
  827MOL0     C 9094   9.342   3.322  10.406 -0.2367 -0.2747 -0.4290
  827MOL0     C 9095   9.418   3.350  10.536  0.1933  0.3379  0.8691
  827MOL0     C 9096   9.485   3.385  10.631  0.0198  0.5749 -0.1444
  827MOL0     C 9097   8.794   3.207  10.226 -0.0154 -0.5247  0.9264
  827MOL0     C 9098   8.687   3.118  10.186  0.4178  0.6700 -0.7381
  827MOL0     H 9099   8.565   2.657  10.066 -1.8403 -1.4352  0.6549
  827MOL0     H 9100   8.438   2.478   9.999  1.1459 -0.3868 -0.6709
  827MOL0     H 9101   8.111   2.531   9.911 -0.3145 -1.2187  0.4205
  827MOL0     H 9102   8.192   2.372   9.934  0.4076 -1.4076 -0.2841
  827MOL0     H 9103   8.087   2.287   9.734 -1.2156 -0.0469 -1.1749
  827MOL0     H 9104   7.999   2.446   9.706 -2.5839  0.9160  2.2815
  827MOL0     H 9105   7.898   2.400   9.943 -5.2393 -0.9884 -0.3152
  827MOL0     H 9106   7.959   2.238   9.928 -2.9168 -0.1300  1.3804
  827MOL0     H 9107   7.761   2.360   9.727  1.1596 -0.7387 -1.0623
  827MOL0     H 9108   7.831   2.197   9.719  1.4272  1.9494 -2.1989
  827MOL0     H 9109   7.720   2.161   9.937 -0.7665 -1.1240 -1.1237
  827MOL0     H 9110   7.620   2.202   9.808  1.7864 -1.2122 -0.6059
  827MOL0     H 9111   7.615   2.455   9.883  1.6117 -0.7760 -0.8885
  827MOL0     H 9112   7.663   2.396  10.035  3.2835  0.6693 -1.7187
  827MOL0     H 9113   7.417   2.407  10.023  0.8748  1.0952 -1.6440
  827MOL0     H 9114   7.426   2.301   9.875  1.0619  0.4298 -0.6579
  827MOL0     H 9115   7.498   2.232  10.164  0.7931  0.0215 -0.3188
  827MOL0     H 9116   7.543   2.138  10.022  2.3439  2.6761 -0.2600
  827MOL0     H 9117   7.215   2.220  10.226 -3.5840 -0.6675  0.4670
  827MOL0     H 9118   6.963   2.203  10.201 -2.5790 -1.3442  1.8478
  827MOL0     H 9119   6.935   2.037  10.173  0.1891  0.6183  1.6325
  827MOL0     H 9120   6.844   2.069   9.950 -1.1717 -1.7856  2.1173
  827MOL0     H 9121   6.926   2.225   9.935  2.2640 -2.7422  0.2516
  827MOL0     H 9122   6.785   2.297  10.111  1.5553 -1.2646 -0.2761
  827MOL0     H 9123   6.706   2.273   9.945  2.0629  0.0423 -2.1700
  827MOL0     H 9124   6.670   2.102  10.195 -2.3327  2.3593  0.6997
  827MOL0     H 9125   6.636   2.037  10.037 -0.7818 -0.1592 -1.7183
  827MOL0     H 9126   6.274   2.235  10.014  1.9791 -1.1409 -1.5218
  827MOL0     H 9127   6.064   2.139  10.088 -1.2123 -0.4333  1.0460
  827MOL0     H 9128   5.731   1.828  10.091 -0.3030  3.9203 -0.9146
  827MOL0     H 9129   5.544   1.716  10.187  3.9758 -1.5204 -1.2607
  827MOL0     H 9130   5.266   1.731  10.300 -2.0597  1.9265 -0.8473
  827MOL0     H 9131   5.319   1.901  10.298 -1.8021 -1.1201 -2.0175
  827MOL0     H 9132   5.282   1.900  10.541 -1.1739  0.4335  0.0627
  827MOL0     H 9133   5.201   1.737  10.526 -2.8061  0.0149 -0.1032
  827MOL0     H 9134   5.044   1.847  10.348  0.6678 -0.2712  0.4489
  827MOL0     H 9135   5.127   1.997  10.384 -0.9106 -1.9237 -3.1687
  827MOL0     H 9136   4.960   1.818  10.554  2.8794 -1.2350  0.0956
  827MOL0     H 9137   5.026   1.965  10.632  3.1716 -0.0616 -1.1214
  827MOL0     H 9138   4.862   1.986  10.373 -0.9983  0.1996  0.2781
  827MOL0     H 9139   4.923   2.117  10.486  0.4885  0.0100 -2.3575
  827MOL0     H 9140   4.762   2.049  10.652 -2.2241  0.8279  0.5119
  827MOL0     H 9141   4.717   1.906  10.564 -1.2070  0.7641 -1.2891
  827MOL0     H 9142   4.563   2.108  10.560  0.2574 -0.4289 -0.2995
  827MOL0     H 9143   4.674   2.176  10.437  0.5471  0.3403  3.2588
  827MOL0     H 9144   4.657   1.923  10.340  0.2091 -0.1996  0.6289
  827MOL0     H 9145   4.546   2.050  10.296  0.2143  1.3739 -0.3213
  827MOL0     H 9146   5.608   1.912  10.560 -0.0143  0.5601  0.2089
  827MOL0     H 9147   5.827   2.013  10.465  1.2855  1.2263 -3.7565
  827MOL0     H 9148   6.293   1.880  10.352 -2.6826 -0.0069  0.9979
  827MOL0     H 9149   6.490   2.002  10.289  0.2843  4.2191  1.4967
  827MOL0     H 9150   8.277   2.706   9.662  2.2409 -1.2687 -1.8103
  827MOL0     H 9151   8.436   2.900   9.736 -2.0927  1.3515  3.1771
  827MOL0     H 9152   8.772   3.061   9.867 -2.0210 -0.1749  0.1208
  827MOL0     H 9153   8.950   3.214   9.934 -1.7292 -0.7595 -1.4416
  827MOL0     H 9154   8.912   3.418  10.335 -1.5613 -0.4847 -1.7866
  827MOL0     H 9155   9.044   3.518  10.272  0.8528 -0.0629  2.6988
  827MOL0     H 9156   9.036   3.241  10.379  0.3193 -0.9884 -1.3378
  827MOL0     H 9157   9.164   3.276  10.255  2.6552 -0.0845  2.1589
  827MOL0     H 9158   9.153   3.377  10.523 -0.1723 -0.3065  0.0112
  827MOL0     H 9159   9.197   3.498  10.410 -1.7497  0.1114  0.6657
  827MOL0     H 9160   9.336   3.215  10.381 -1.0826 -0.1750 -0.6770
  827MOL0     H 9161   9.398   3.374  10.327 -0.2018  1.4727  0.7034
  827MOL0     H 9162   9.539   3.422  10.716 -1.1359  2.6539 -0.2389
  827MOL0     H 9163   8.784   3.243  10.328 -1.2619 -0.4910  0.8053
  827MOL0     H 9164   8.612   3.078  10.254  1.3303 -0.7265 -0.5029
  828MOL0     O 9165   7.380   2.503   6.843 -0.4734  0.4135  0.5006
  828MOL0     C 9166   7.407   2.619   6.878 -0.1879 -0.5716 -0.2940
  828MOL0     O 9167   7.312   2.715   6.911 -0.3934  0.0672  0.2348
  828MOL0     C 9168   7.181   2.663   6.936  0.9415  0.5550 -0.8220
  828MOL0     C 9169   7.132   2.664   7.078 -0.3974  0.6284  0.4561
  828MOL0     C 9170   7.008   2.600   7.105  0.0033  0.1725 -0.5054
  828MOL0     C 9171   6.922   2.554   7.012  0.2869  0.5008  0.0523
  828MOL0     O 9172   6.801   2.498   7.046 -0.0490  0.5503 -0.1743
  828MOL0     C 9173   6.730   2.533   7.168 -0.5618  0.0747 -0.1280
  828MOL0     C 9174   6.583   2.485   7.163  0.1191 -1.4531 -0.1169
  828MOL0     C 9175   6.523   2.498   7.302 -0.1012 -0.6757 -0.6094
  828MOL0     C 9176   6.376   2.451   7.296  0.9449  0.1502 -0.8294
  828MOL0     C 9177   6.312   2.461   7.434 -0.1734 -0.5187  0.2298
  828MOL0     C 9178   6.170   2.397   7.445 -0.1902  0.1576 -0.1917
  828MOL0     C 9179   6.116   2.404   7.580 -0.4066 -0.3233  0.1772
  828MOL0     C 9180   6.022   2.298   7.624 -0.1704 -0.0273 -0.0270
  828MOL0     N 9181   5.992   2.303   7.771 -0.0405  0.2256 -0.5471
  828MOL0     C 9182   5.910   2.382   7.842  0.2199 -0.5923 -0.4611
  828MOL0     C 9183   5.934   2.361   7.974  0.0632  0.4378 -0.2500
  828MOL0     C 9184   5.867   2.432   8.086  0.2093 -0.1959  0.0665
  828MOL0     C 9185   5.721   2.383   8.086 -0.1238  0.7835 -0.3281
  828MOL0     C 9186   5.615   2.477   8.149  1.3028  0.5738 -0.0834
  828MOL0     C 9187   5.469   2.453   8.118 -0.2103 -0.2257 -1.2446
  828MOL0     O 9188   5.463   2.314   8.134 -1.0001  1.0739 -0.4108
  828MOL0     C 9189   5.352   2.256   8.075 -0.4927  0.2768  0.1544
  828MOL0     C 9190   5.228   2.302   8.093  0.3117 -0.5558  0.0490
  828MOL0     C 9191   5.120   2.250   8.024  0.1790  0.9666  0.5385
  828MOL0     C 9192   5.144   2.139   7.934  0.2534  0.6560  0.1376
  828MOL0     C 9193   5.029   2.062   7.865  0.1775  0.5743  0.1921
  828MOL0     O 9194   5.062   1.969   7.768 -0.1754  0.6553  0.6071
  828MOL0     C 9195   4.981   1.866   7.740 -0.7135  0.8766 -1.2194
  828MOL0     C 9196   5.035   1.743   7.708  0.2597 -0.7532  0.4240
  828MOL0     C 9197   4.952   1.633   7.677 -1.0948 -0.6058  1.1831
  828MOL0     C 9198   4.816   1.653   7.663 -0.5781 -0.5136  0.3878
  828MOL0     O 9199   4.742   1.550   7.607  0.1553  0.0960  0.2792
  828MOL0     C 9200   4.597   1.556   7.591 -0.5166  0.4142 -0.9333
  828MOL0     C 9201   4.551   1.415   7.614 -0.1760 -0.4221  0.0876
  828MOL0     C 9202   4.655   1.320   7.543  0.3016  0.3392 -0.3323
  828MOL0     C 9203   4.593   1.186   7.519  0.0494  0.5757 -0.3160
  828MOL0     C 9204   4.660   1.107   7.401  0.0046 -0.7561  0.2089
  828MOL0     C 9205   4.613   0.959   7.384  0.2015  0.0368  0.6438
  828MOL0     C 9206   4.652   0.881   7.253 -0.2097  0.1482 -0.7757
  828MOL0     C 9207   4.795   0.839   7.237 -0.3920  0.1916 -0.1118
  828MOL0    Cl 9208   4.869   0.722   7.356 -0.3541 -0.3096  0.0685
  828MOL0     C 9209   4.761   1.780   7.703 -0.1971  0.7891 -0.0318
  828MOL0     C 9210   4.847   1.879   7.733  0.6966  1.6547  0.0302
  828MOL0     O 9211   4.920   2.077   7.915 -0.1598  0.8157  0.1498
  828MOL0     C 9212   5.271   2.114   7.897  0.1113  0.2605 -0.6398
  828MOL0     C 9213   5.377   2.168   7.973 -0.7746  0.9860  0.0519
  828MOL0     N 9214   6.032   2.263   7.992  0.5927 -0.2109 -0.2196
  828MOL0     N 9215   6.068   2.247   7.861 -0.1047  0.2490 -1.0288
  828MOL0     C 9216   6.973   2.540   6.882  0.9846 -0.5289  0.2205
  828MOL0     C 9217   7.097   2.595   6.845  0.4127 -0.3839  0.2641
  828MOL0     C 9218   7.547   2.657   6.859  0.3726  0.5089 -0.4339
  828MOL0     C 9219   7.646   2.569   6.813  1.1766  0.0008  0.3820
  828MOL0     C 9220   7.775   2.617   6.779 -0.2573  0.7036  0.1662
  828MOL0     C 9221   7.819   2.744   6.798  0.2845 -0.2882 -2.0017
  828MOL0     O 9222   7.943   2.790   6.769 -0.4379  0.6435 -0.2739
  828MOL0     C 9223   7.992   2.741   6.640 -0.7277 -1.5391  0.1019
  828MOL0     C 9224   8.108   2.834   6.591  0.3963 -0.0523 -0.1686
  828MOL0     C 9225   8.058   2.975   6.549 -0.3295  0.2564 -0.7075
  828MOL0     C 9226   8.051   2.994   6.404  0.2545  0.2454  0.3305
  828MOL0     C 9227   7.947   2.900   6.352 -0.6532 -0.5200 -0.2165
  828MOL0     C 9228   7.859   2.845   6.290  0.0414 -0.1843  0.2842
  828MOL0     C 9229   7.732   2.829   6.863 -0.4648 -0.0881  0.4214
  828MOL0     C 9230   7.598   2.788   6.887 -0.8758 -1.1182  0.1383
  828MOL0     H 9231   7.190   2.716   7.154 -0.7621  3.1395 -0.8747
  828MOL0     H 9232   6.982   2.591   7.210  2.0066  0.2778  0.0538
  828MOL0     H 9233   6.737   2.642   7.178 -2.5494  0.3558 -1.2330
  828MOL0     H 9234   6.770   2.480   7.254  0.0284 -0.0414 -0.4639
  828MOL0     H 9235   6.579   2.381   7.131 -0.7050 -1.2817 -0.6175
  828MOL0     H 9236   6.527   2.552   7.097  2.0168  1.5277  1.0770
  828MOL0     H 9237   6.522   2.601   7.341 -1.9115  0.1601 -2.6282
  828MOL0     H 9238   6.572   2.432   7.373 -3.8394 -0.0503  2.9101
  828MOL0     H 9239   6.314   2.517   7.235 -1.9596 -2.3918 -0.8847
  828MOL0     H 9240   6.369   2.352   7.249  3.7619  0.8312 -2.9653
  828MOL0     H 9241   6.313   2.570   7.441  0.3188 -0.5550  0.8485
  828MOL0     H 9242   6.383   2.425   7.509  0.5092  1.9448  0.8681
  828MOL0     H 9243   6.178   2.291   7.419 -0.1124  0.2100 -0.3783
  828MOL0     H 9244   6.094   2.451   7.387  0.3343  1.7875  0.5799
  828MOL0     H 9245   6.204   2.386   7.644  0.6438 -0.0460 -1.1456
  828MOL0     H 9246   6.083   2.506   7.603  2.9890  0.6020  1.6019
  828MOL0     H 9247   6.061   2.202   7.589 -2.0709 -0.0922 -2.2070
  828MOL0     H 9248   5.926   2.321   7.577 -0.8480  2.3749  2.2979
  828MOL0     H 9249   5.845   2.463   7.811  1.3439  0.8807  0.8658
  828MOL0     H 9250   5.881   2.539   8.066 -0.7612 -0.4237 -2.2533
  828MOL0     H 9251   5.895   2.423   8.191 -2.0029  4.4594  1.3288
  828MOL0     H 9252   5.727   2.285   8.134 -0.4433  1.9791  2.3651
  828MOL0     H 9253   5.686   2.348   7.989 -1.0160  1.2859 -0.1954
  828MOL0     H 9254   5.637   2.465   8.256  1.4254 -4.8645 -0.4810
  828MOL0     H 9255   5.630   2.579   8.111 -0.8423  0.6634 -0.8526
  828MOL0     H 9256   5.445   2.482   8.016  1.3006 -1.9761 -2.1482
  828MOL0     H 9257   5.408   2.505   8.193  0.0807 -0.6510 -0.7008
  828MOL0     H 9258   5.220   2.386   8.161  0.2339 -1.1030  0.7250
  828MOL0     H 9259   5.017   2.281   8.033 -0.0941  0.4072 -0.5578
  828MOL0     H 9260   5.142   1.731   7.724  0.5774 -0.4479 -1.3140
  828MOL0     H 9261   5.005   1.549   7.634 -2.4618 -1.1285  0.4268
  828MOL0     H 9262   4.557   1.592   7.495 -2.5596  0.7031 -0.0317
  828MOL0     H 9263   4.550   1.621   7.665  0.6048  1.9537 -1.5214
  828MOL0     H 9264   4.450   1.410   7.573  0.9158 -0.8319 -2.7745
  828MOL0     H 9265   4.546   1.405   7.723 -0.0024 -2.8487 -0.0864
  828MOL0     H 9266   4.742   1.309   7.609 -0.8843 -0.0624  1.2239
  828MOL0     H 9267   4.706   1.362   7.457  4.1487  0.1781  1.6573
  828MOL0     H 9268   4.594   1.122   7.607 -3.3977 -4.7162 -3.5746
  828MOL0     H 9269   4.486   1.193   7.499 -1.2304  1.2432  5.1046
  828MOL0     H 9270   4.767   1.102   7.425  0.4281 -0.7529 -1.4933
  828MOL0     H 9271   4.638   1.170   7.314 -0.6434 -0.7182  0.3939
  828MOL0     H 9272   4.504   0.954   7.391  0.3105 -0.8215  2.2035
  828MOL0     H 9273   4.651   0.901   7.469  1.3840  3.2317  2.4677
  828MOL0     H 9274   4.586   0.794   7.241  0.2508 -0.4571  0.8649
  828MOL0     H 9275   4.632   0.951   7.171 -2.2260  0.9072  0.3100
  828MOL0     H 9276   4.856   0.930   7.232 -0.1259  0.0299  0.1310
  828MOL0     H 9277   4.807   0.802   7.135  2.8456  2.1882 -0.5918
  828MOL0     H 9278   4.657   1.801   7.683 -0.1389  0.8627 -0.2534
  828MOL0     H 9279   4.809   1.981   7.733 -0.3069  1.2870  0.7465
  828MOL0     H 9280   5.286   2.049   7.812 -0.3950  1.5757 -1.7651
  828MOL0     H 9281   5.480   2.140   7.952 -0.5963 -2.9312  4.4192
  828MOL0     H 9282   6.912   2.494   6.805  1.0584  0.3292 -0.3628
  828MOL0     H 9283   7.131   2.585   6.743 -0.0962 -0.3786  0.0934
  828MOL0     H 9284   7.624   2.464   6.800 -0.7187  0.2264  1.4065
  828MOL0     H 9285   7.847   2.549   6.736  0.2409  1.4053 -0.1405
  828MOL0     H 9286   7.916   2.746   6.561 -0.2928 -0.0889 -0.2592
  828MOL0     H 9287   8.027   2.637   6.648 -2.8823 -2.4334 -1.1321
  828MOL0     H 9288   8.177   2.852   6.674  1.1248 -0.6810 -0.6256
  828MOL0     H 9289   8.170   2.778   6.519  1.6183  0.7046  0.2567
  828MOL0     H 9290   8.148   3.031   6.577  1.4891 -2.1776 -1.3038
  828MOL0     H 9291   7.970   3.007   6.605  1.4148 -2.3217  4.0172
  828MOL0     H 9292   8.029   3.101   6.396  1.9120  0.6846  1.2567
  828MOL0     H 9293   8.143   2.983   6.346  0.1686  4.2541 -0.8518
  828MOL0     H 9294   7.770   2.794   6.259  0.8210 -1.1644 -0.4204
  828MOL0     H 9295   7.767   2.926   6.895 -1.2694  0.9589 -1.7035
  828MOL0     H 9296   7.530   2.865   6.921 -0.4863 -1.2701  1.2892
  829MOL0     O 9297   2.930  11.252  10.784 -0.0053 -0.1135  0.1817
  829MOL0     C 9298   2.997  11.170  10.721  0.1727 -0.3542  0.2577
  829MOL0     O 9299   2.956  11.090  10.619 -0.9860  0.1609  0.0821
  829MOL0     C 9300   2.822  11.067  10.613 -0.2280 -0.0059  0.8189
  829MOL0     C 9301   2.773  10.951  10.631 -0.5862  0.2810  0.3190
  829MOL0     C 9302   2.636  10.911  10.643  0.2163  0.0274  0.1037
  829MOL0     C 9303   2.543  11.012  10.642 -0.3669 -0.3588  0.1793
  829MOL0     O 9304   2.418  10.964  10.650  0.0351  0.3399 -0.4106
  829MOL0     C 9305   2.320  11.051  10.695 -0.8018  0.7456 -0.6446
  829MOL0     C 9306   2.194  10.970  10.722  0.7665 -0.5923  0.3137
  829MOL0     C 9307   2.079  11.055  10.800  0.2956 -0.4198 -0.1092
  829MOL0     C 9308   1.958  10.964  10.812 -0.7854 -0.4923 -0.0070
  829MOL0     C 9309   1.833  11.050  10.847  0.6536 -0.0756  0.3980
  829MOL0     C 9310   1.853  11.117  10.985  0.1524 -0.0918 -0.1889
  829MOL0     C 9311   1.719  11.145  11.057  1.4450  0.7060 -0.6248
  829MOL0     C 9312   1.722  11.064  11.189  1.2682 -0.7167  0.1473
  829MOL0     N 9313   1.598  11.067  11.268 -0.6375  0.1811  0.4023
  829MOL0     C 9314   1.570  11.127  11.391  1.0412 -0.3807 -0.6067
  829MOL0     C 9315   1.436  11.103  11.419 -0.1187 -0.2465 -0.0322
  829MOL0     C 9316   1.355  11.144  11.531  0.6612 -0.0862  0.4160
  829MOL0     C 9317   1.371  11.287  11.576  0.1392 -0.3002  0.5871
  829MOL0     C 9318   1.252  11.343  11.654  0.0228 -0.0865 -0.0664
  829MOL0     C 9319   1.139  11.392  11.555  0.2872 -0.4604 -0.4245
  829MOL0     O 9320   1.012  11.375  11.626 -0.7047 -0.1782 -0.1076
  829MOL0     C 9321   0.918  11.463  11.598  1.1179 -1.4079  0.1509
  829MOL0     C 9322   0.786  11.412  11.600  0.8595  0.1030 -0.2475
  829MOL0     C 9323   0.677  11.493  11.556  0.7773  0.9236  0.4349
  829MOL0     C 9324   0.696  11.626  11.521 -0.9276 -0.7378  0.1872
  829MOL0     C 9325   0.579  11.717  11.502 -0.4925 -0.3605  0.6034
  829MOL0     O 9326   0.458  11.667  11.538  0.0610 -0.0802  0.1463
  829MOL0     C 9327   0.345  11.730  11.491  0.0747 -0.6468 -0.0109
  829MOL0     C 9328   0.259  11.797  11.572 -0.6321  0.0491 -0.1457
  829MOL0     C 9329   0.160  11.875  11.510 -0.3305  0.1424  0.0038
  829MOL0     C 9330   0.139  11.882  11.372 -0.1280  0.1832 -0.0014
  829MOL0     O 9331   0.041  11.954  11.310  0.0096  0.6090  0.3332
  829MOL0     C 9332  -0.049  12.019  11.385  0.9283 -0.0128  0.0133
  829MOL0     C 9333  -0.147  12.090  11.295  0.0103  0.1996  0.5655
  829MOL0     C 9334  -0.259  12.150  11.380  0.3172  0.4741 -0.5649
  829MOL0     C 9335  -0.374  12.210  11.297  0.1705 -0.4344  0.3429
  829MOL0     C 9336  -0.480  12.264  11.402  0.0007  0.0364  0.6033
  829MOL0     C 9337  -0.610  12.310  11.337  0.0040 -0.0422  0.4641
  829MOL0     C 9338  -0.696  12.191  11.311 -0.5812 -0.3745  0.7241
  829MOL0     C 9339  -0.834  12.236  11.252 -0.6644  0.2973 -0.6990
  829MOL0    Cl 9340  -0.925  12.095  11.231  0.2449 -0.0909  0.0410
  829MOL0     C 9341   0.237  11.814  11.295  1.6235  0.1548  0.3788
  829MOL0     C 9342   0.327  11.731  11.351 -0.1004 -0.3614 -0.7123
  829MOL0     O 9343   0.597  11.829  11.461 -1.0576  0.1252  0.6957
  829MOL0     C 9344   0.828  11.678  11.522 -0.3034 -0.0535  0.4244
  829MOL0     C 9345   0.935  11.596  11.557  0.1405 -0.2200 -0.4472
  829MOL0     N 9346   1.392  11.040  11.304 -0.8743 -0.3622  0.7261
  829MOL0     N 9347   1.482  11.026  11.217  0.1252 -0.4260 -0.6053
  829MOL0     C 9348   2.588  11.142  10.630  0.0505 -1.3224  0.0649
  829MOL0     C 9349   2.725  11.173  10.606  0.0107  0.1523 -0.2362
  829MOL0     C 9350   3.141  11.152  10.744 -0.3777  0.4718 -0.5528
  829MOL0     C 9351   3.225  11.064  10.668  0.3762 -0.9647 -0.8876
  829MOL0     C 9352   3.362  11.059  10.688  0.4197  0.7541 -0.5080
  829MOL0     C 9353   3.423  11.135  10.785  1.1028 -0.4540 -0.3031
  829MOL0     O 9354   3.550  11.163  10.814 -0.7832 -0.5413  0.4176
  829MOL0     C 9355   3.655  11.079  10.760 -1.1778 -0.5962 -0.1197
  829MOL0     C 9356   3.764  11.064  10.875  1.7627  0.5728  0.6440
  829MOL0     C 9357   3.845  11.196  10.888  0.1265 -0.0761  0.0795
  829MOL0     C 9358   3.956  11.208  10.992 -0.0065 -0.4617  0.2125
  829MOL0     C 9359   4.010  11.347  10.995 -0.2670  0.0321  0.8620
  829MOL0     C 9360   4.046  11.464  11.005  0.2252  0.2301  0.1517
  829MOL0     C 9361   3.336  11.198  10.873  0.3636 -0.6100 -0.6409
  829MOL0     C 9362   3.199  11.217  10.859  0.1664  0.1032 -0.3502
  829MOL0     H 9363   2.853  10.882  10.657 -1.6437 -0.7254  0.9815
  829MOL0     H 9364   2.622  10.807  10.670  3.3256  0.3443  3.7554
  829MOL0     H 9365   2.296  11.123  10.617  0.3403 -0.7531 -2.4605
  829MOL0     H 9366   2.360  11.098  10.786  2.9203 -3.4902  0.2651
  829MOL0     H 9367   2.213  10.874  10.772  2.2067 -0.8485 -0.6779
  829MOL0     H 9368   2.167  10.938  10.621  0.7799  2.5187 -0.7786
  829MOL0     H 9369   2.057  11.146  10.744  0.5504 -0.7874 -0.8230
  829MOL0     H 9370   2.119  11.086  10.897  1.4018  0.4706 -0.8181
  829MOL0     H 9371   1.945  10.927  10.710 -0.1237 -0.6106 -0.0557
  829MOL0     H 9372   1.976  10.886  10.886  4.7363 -0.1093 -0.5202
  829MOL0     H 9373   1.741  10.992  10.841  0.4918  0.3398 -3.3993
  829MOL0     H 9374   1.822  11.124  10.768 -3.8192 -1.7212 -0.8191
  829MOL0     H 9375   1.902  11.212  10.962 -3.0549  1.8832  0.5146
  829MOL0     H 9376   1.914  11.053  11.050  0.8759 -0.2618 -1.0226
  829MOL0     H 9377   1.732  11.251  11.077  1.1169  1.0612 -2.1619
  829MOL0     H 9378   1.637  11.136  10.986  0.1613  0.2875  0.8534
  829MOL0     H 9379   1.808  11.099  11.247 -0.2241  2.1388  0.8239
  829MOL0     H 9380   1.751  10.960  11.168  4.5749  0.2904 -0.7959
  829MOL0     H 9381   1.631  11.178  11.464 -1.3131 -0.6480  1.7101
  829MOL0     H 9382   1.366  11.077  11.617  2.2273 -0.7825 -0.2880
  829MOL0     H 9383   1.250  11.133  11.502  0.7796  0.3683 -0.2000
  829MOL0     H 9384   1.377  11.348  11.486  0.0882  0.6215  1.1957
  829MOL0     H 9385   1.467  11.299  11.627  0.9463 -1.3764 -0.6115
  829MOL0     H 9386   1.211  11.270  11.723  0.1588  0.8018  0.9806
  829MOL0     H 9387   1.284  11.426  11.718 -1.1343  1.4024 -1.3118
  829MOL0     H 9388   1.141  11.322  11.470  2.7517 -0.9056 -0.0961
  829MOL0     H 9389   1.165  11.495  11.529  1.6544 -0.4775  0.7415
  829MOL0     H 9390   0.773  11.311  11.638  1.2705  0.8147  1.9354
  829MOL0     H 9391   0.580  11.443  11.554  1.1555 -0.0302 -4.1011
  829MOL0     H 9392   0.283  11.787  11.678 -0.2451 -1.2524 -0.3416
  829MOL0     H 9393   0.098  11.931  11.579  0.5954  0.8526  0.2727
  829MOL0     H 9394   0.001  12.104  11.432 -1.2182  2.8376 -2.4916
  829MOL0     H 9395  -0.102  11.947  11.449 -1.1279  1.5560  0.1709
  829MOL0     H 9396  -0.185  12.016  11.224  1.4795 -0.7720  0.7413
  829MOL0     H 9397  -0.091  12.166  11.240 -0.7776  0.1911 -0.2784
  829MOL0     H 9398  -0.224  12.235  11.440  0.1051  1.4838 -1.8410
  829MOL0     H 9399  -0.299  12.072  11.446 -0.5889  0.7410 -0.7795
  829MOL0     H 9400  -0.338  12.289  11.231  1.5334 -2.7575 -1.8574
  829MOL0     H 9401  -0.416  12.129  11.237  0.6636  1.0715 -2.1733
  829MOL0     H 9402  -0.432  12.352  11.445  3.4746 -1.5798  0.3960
  829MOL0     H 9403  -0.502  12.195  11.485 -0.7192  2.1369  2.2355
  829MOL0     H 9404  -0.599  12.359  11.241 -2.6531  1.0281  0.6263
  829MOL0     H 9405  -0.655  12.376  11.412  1.6291 -0.9268  2.2979
  829MOL0     H 9406  -0.644  12.135  11.233 -0.6586  0.8774 -0.2530
  829MOL0     H 9407  -0.717  12.138  11.405 -2.0121  1.5710  1.5827
  829MOL0     H 9408  -0.822  12.292  11.158  3.5935  4.3246  1.7623
  829MOL0     H 9409  -0.892  12.302  11.317  2.4428  0.6082  1.9950
  829MOL0     H 9410   0.230  11.824  11.187  3.1402  0.3032  0.2698
  829MOL0     H 9411   0.401  11.682  11.289 -0.5674  0.0190 -1.5906
  829MOL0     H 9412   0.850  11.778  11.484  0.3113 -1.0808 -2.1665
  829MOL0     H 9413   1.031  11.643  11.575 -1.1326  2.2819  0.1966
  829MOL0     H 9414   2.515  11.222  10.632  2.0247  0.5450  0.8396
  829MOL0     H 9415   2.753  11.278  10.605  2.5824 -0.4808 -0.5996
  829MOL0     H 9416   3.198  11.024  10.570 -0.9931  0.3101 -1.0707
  829MOL0     H 9417   3.424  11.015  10.611  0.5657  0.4109 -0.1939
  829MOL0     H 9418   3.701  11.120  10.669  0.1718 -0.1881  0.7153
  829MOL0     H 9419   3.615  10.981  10.735 -1.3458  0.1355 -3.0949
  829MOL0     H 9420   3.718  11.027  10.967  2.2200 -1.3076  0.1552
  829MOL0     H 9421   3.823  10.984  10.830 -2.0906 -1.1491 -1.8545
  829MOL0     H 9422   3.770  11.275  10.891  0.6702  0.5656 -1.7050
  829MOL0     H 9423   3.892  11.207  10.789 -1.5524 -0.2569 -0.7668
  829MOL0     H 9424   3.926  11.183  11.094 -0.8009  0.4107  0.2073
  829MOL0     H 9425   4.029  11.137  10.952  0.2266 -1.6982  2.6235
  829MOL0     H 9426   4.074  11.567  10.999  0.3447  0.2107  0.3653
  829MOL0     H 9427   3.385  11.240  10.960  1.4833 -1.9081 -0.6149
  829MOL0     H 9428   3.142  11.281  10.926  2.1768 -0.9176  2.5227
  830MOL0     O 9429   8.447   6.124   1.583 -0.2511  0.4935  0.7025
  830MOL0     C 9430   8.480   6.007   1.566  0.9346 -0.2118  0.1902
  830MOL0     O 9431   8.416   5.916   1.495  0.0299  0.6854  0.2570
  830MOL0     C 9432   8.299   5.944   1.445  0.1418 -0.3351  0.6687
  830MOL0     C 9433   8.293   6.006   1.314  0.9334  0.7724 -0.2604
  830MOL0     C 9434   8.170   6.040   1.252  0.1008 -0.0615 -0.7437
  830MOL0     C 9435   8.051   6.001   1.309  0.8571 -0.3859 -0.0612
  830MOL0     O 9436   7.928   6.010   1.240  0.4489  0.3797  1.3465
  830MOL0     C 9437   7.928   6.097   1.133 -0.3046 -0.3507  1.0720
  830MOL0     C 9438   7.790   6.158   1.112 -0.0481 -0.0203  0.6968
  830MOL0     C 9439   7.702   6.039   1.070 -0.3667 -0.6655  0.4276
  830MOL0     C 9440   7.579   6.078   0.989 -0.4211 -0.6227 -0.0085
  830MOL0     C 9441   7.484   5.962   0.962  0.7666  0.3383  0.1252
  830MOL0     C 9442   7.406   5.985   0.831 -0.4618  0.7645 -0.3588
  830MOL0     C 9443   7.283   5.896   0.811 -0.7569  0.0777 -0.0619
  830MOL0     C 9444   7.239   5.918   0.670  0.5926  0.4091 -0.7265
  830MOL0     N 9445   7.170   5.807   0.621 -0.3692  0.5852  0.0981
  830MOL0     C 9446   7.039   5.768   0.626  0.3427 -0.7229 -0.3311
  830MOL0     C 9447   7.035   5.648   0.569  0.6559  0.1034  0.7908
  830MOL0     C 9448   6.907   5.575   0.545 -0.1073 -0.2762  0.5699
  830MOL0     C 9449   6.914   5.450   0.637  0.2970 -0.1558 -0.0382
  830MOL0     C 9450   6.813   5.348   0.608  0.6907  0.4032  0.3854
  830MOL0     C 9451   6.669   5.368   0.657 -0.9534 -0.1171 -0.8899
  830MOL0     O 9452   6.610   5.239   0.632 -0.0934 -0.3680 -0.5089
  830MOL0     C 9453   6.475   5.231   0.619  0.2301  0.0633  0.5665
  830MOL0     C 9454   6.437   5.112   0.574 -0.2398 -0.5038  0.1637
  830MOL0     C 9455   6.307   5.088   0.525  0.4761 -0.9755 -0.3523
  830MOL0     C 9456   6.208   5.188   0.534 -0.5930  0.5602 -1.4015
  830MOL0     C 9457   6.077   5.168   0.477  0.2855 -0.4422  0.0097
  830MOL0     O 9458   6.029   5.042   0.468 -0.1731  0.0869 -0.1170
  830MOL0     C 9459   5.902   5.027   0.427 -0.7017 -0.3227 -0.0330
  830MOL0     C 9460   5.807   5.022   0.531  0.2426 -0.0553 -0.5055
  830MOL0     C 9461   5.677   4.996   0.494 -0.0321  0.1323  0.1871
  830MOL0     C 9462   5.632   4.986   0.364  0.1393 -0.0969 -0.1840
  830MOL0     O 9463   5.503   4.955   0.336 -0.3146  0.6933  0.4140
  830MOL0     C 9464   5.429   4.882   0.438  0.9568 -0.2354  0.9732
  830MOL0     C 9465   5.277   4.856   0.414  0.1447  0.7212 -0.1815
  830MOL0     C 9466   5.251   4.735   0.327 -0.2986 -0.1613  0.0048
  830MOL0     C 9467   5.093   4.713   0.316 -0.3307 -0.0157  0.3891
  830MOL0     C 9468   5.043   4.604   0.421 -0.4443  0.4118 -0.4199
  830MOL0     C 9469   4.895   4.633   0.448  0.8933  0.2235  0.2740
  830MOL0     C 9470   4.816   4.603   0.323  0.7489 -1.1005 -0.4863
  830MOL0     C 9471   4.671   4.577   0.356  0.8816 -0.2244 -0.2042
  830MOL0    Cl 9472   4.645   4.447   0.478 -0.7454 -0.1547  0.0847
  830MOL0     C 9473   5.729   5.000   0.268  0.8481 -0.6230 -0.2591
  830MOL0     C 9474   5.866   5.013   0.299 -0.5869  0.2799  0.0667
  830MOL0     O 9475   6.019   5.276   0.451  0.6605 -0.0624  0.3593
  830MOL0     C 9476   6.247   5.305   0.603 -0.4742  0.0256 -0.4684
  830MOL0     C 9477   6.381   5.336   0.641  0.4765  0.1891 -0.5632
  830MOL0     N 9478   7.164   5.614   0.523  0.9972 -0.0873  0.3224
  830MOL0     N 9479   7.245   5.716   0.552 -0.0279 -0.5846 -0.1197
  830MOL0     C 9480   8.056   5.938   1.433  0.1997  0.3738 -0.6659
  830MOL0     C 9481   8.178   5.909   1.501 -0.7776 -0.8211 -0.3879
  830MOL0     C 9482   8.616   5.981   1.614 -0.0823  0.2661 -0.0749
  830MOL0     C 9483   8.662   5.850   1.602 -0.4719 -0.5340  0.5334
  830MOL0     C 9484   8.795   5.824   1.634  0.6589  0.2691  0.5952
  830MOL0     C 9485   8.877   5.922   1.687  0.2501  0.3996 -0.6700
  830MOL0     O 9486   8.994   5.901   1.754 -0.1214  0.0204 -0.0789
  830MOL0     C 9487   9.046   5.769   1.770 -0.3454  0.5699  0.1184
  830MOL0     C 9488   9.189   5.780   1.827  0.2439  0.1588  0.4176
  830MOL0     C 9489   9.282   5.863   1.729  0.4379  0.1835 -0.1805
  830MOL0     C 9490   9.418   5.897   1.791  0.0266  0.1467 -1.1236
  830MOL0     C 9491   9.500   5.771   1.795  0.4078 -0.1554  0.0315
  830MOL0     C 9492   9.574   5.678   1.809  0.8574  0.4558  0.9153
  830MOL0     C 9493   8.826   6.046   1.716 -1.1259  0.5481  0.2051
  830MOL0     C 9494   8.693   6.075   1.685  0.1964  0.2014 -0.2678
  830MOL0     H 9495   8.381   6.027   1.256  0.0644  0.6483 -1.6626
  830MOL0     H 9496   8.173   6.102   1.163  0.5442  0.7012 -0.2092
  830MOL0     H 9497   7.957   6.038   1.045 -0.8305 -0.3205  0.8709
  830MOL0     H 9498   7.986   6.187   1.154 -2.2658  0.8053  1.7968
  830MOL0     H 9499   7.800   6.230   1.031  1.2098  1.0958  1.8009
  830MOL0     H 9500   7.748   6.208   1.200 -0.8671  0.8325 -0.1461
  830MOL0     H 9501   7.677   5.973   1.154  1.5616 -2.2263 -0.1556
  830MOL0     H 9502   7.747   5.966   1.003  0.8878 -1.0564  1.6497
  830MOL0     H 9503   7.537   6.159   1.050  2.2081 -1.2352  2.9215
  830MOL0     H 9504   7.610   6.127   0.897 -0.5358 -2.8041 -1.2763
  830MOL0     H 9505   7.412   5.944   1.042 -2.3476  1.3543 -2.2787
  830MOL0     H 9506   7.538   5.867   0.948 -3.0143 -2.0466  0.1925
  830MOL0     H 9507   7.480   5.979   0.751 -1.7774  1.0257 -1.6589
  830MOL0     H 9508   7.354   6.082   0.824 -2.9203 -0.3804  0.7832
  830MOL0     H 9509   7.315   5.794   0.832  1.0481  0.1667 -2.0862
  830MOL0     H 9510   7.205   5.933   0.878 -1.9427  2.2918 -2.4920
  830MOL0     H 9511   7.331   5.928   0.612  2.7355 -1.0888  2.1751
  830MOL0     H 9512   7.173   6.005   0.671  3.4232  2.7210 -1.4641
  830MOL0     H 9513   6.953   5.820   0.668  1.8837  2.5562 -0.8848
  830MOL0     H 9514   6.900   5.538   0.442 -2.2941  0.0763  0.5432
  830MOL0     H 9515   6.817   5.633   0.565  0.8304  2.2213 -1.8335
  830MOL0     H 9516   6.900   5.486   0.739 -2.0542  1.3518 -0.7982
  830MOL0     H 9517   7.010   5.399   0.626  0.3392 -0.0974  0.0584
  830MOL0     H 9518   6.797   5.336   0.500  0.1848  0.4960  0.4438
  830MOL0     H 9519   6.853   5.258   0.654  1.8842  1.4081  1.3848
  830MOL0     H 9520   6.615   5.446   0.603  0.4817  1.7672  0.2560
  830MOL0     H 9521   6.663   5.406   0.760  0.4688 -1.7842 -0.1299
  830MOL0     H 9522   6.509   5.032   0.566 -0.0560 -0.2247 -1.4184
  830MOL0     H 9523   6.299   5.002   0.460 -1.7358 -2.4653  1.7154
  830MOL0     H 9524   5.836   5.018   0.635 -1.8424 -0.3366  0.1016
  830MOL0     H 9525   5.616   4.988   0.584 -1.9017 -1.4011 -1.1314
  830MOL0     H 9526   5.429   4.938   0.532 -2.2924 -1.1543  1.6366
  830MOL0     H 9527   5.487   4.794   0.465  0.0714 -0.7569  1.1942
  830MOL0     H 9528   5.231   4.946   0.371  2.5508  1.3453 -1.6094
  830MOL0     H 9529   5.232   4.833   0.511  1.2616 -3.3281 -0.4647
  830MOL0     H 9530   5.291   4.640   0.363 -2.2242 -2.1333 -2.6363
  830MOL0     H 9531   5.294   4.755   0.228 -0.3354 -0.2599 -0.0306
  830MOL0     H 9532   5.048   4.810   0.337  0.5906  0.4611  0.2191
  830MOL0     H 9533   5.062   4.684   0.215 -2.9387 -0.6633  1.3141
  830MOL0     H 9534   5.098   4.616   0.515 -1.0423 -1.7676  0.2655
  830MOL0     H 9535   5.061   4.501   0.388 -3.7581 -0.5964  0.6055
  830MOL0     H 9536   4.878   4.740   0.464  0.5613  0.5676 -2.0387
  830MOL0     H 9537   4.859   4.573   0.533 -0.5447 -0.0985 -0.5321
  830MOL0     H 9538   4.826   4.677   0.243  0.5023  0.3090  0.7413
  830MOL0     H 9539   4.846   4.503   0.291  2.0770 -2.1609  3.4342
  830MOL0     H 9540   4.615   4.560   0.264  0.3131  0.6237 -0.0244
  830MOL0     H 9541   4.635   4.674   0.391  0.0790 -0.4229 -0.4566
  830MOL0     H 9542   5.717   4.983   0.161  4.7351 -0.7018 -0.8309
  830MOL0     H 9543   5.946   5.016   0.226  0.0436 -1.6003  0.6075
  830MOL0     H 9544   6.177   5.387   0.619 -2.3217 -1.6615  0.5909
  830MOL0     H 9545   6.404   5.423   0.701 -2.8531 -0.5230  2.0462
  830MOL0     H 9546   7.955   5.913   1.465  1.2177 -0.3198  2.3358
  830MOL0     H 9547   8.176   5.869   1.602  3.3341  3.4726  1.7917
  830MOL0     H 9548   8.608   5.766   1.560 -0.6521  0.6365 -1.7340
  830MOL0     H 9549   8.834   5.722   1.639 -0.3971 -0.3875 -2.4033
  830MOL0     H 9550   9.044   5.724   1.670 -0.1496  2.1765 -0.6325
  830MOL0     H 9551   8.984   5.709   1.837  1.3117 -2.1232 -0.5846
  830MOL0     H 9552   9.178   5.834   1.921 -1.3370  0.2152  0.2210
  830MOL0     H 9553   9.228   5.678   1.841  0.3391  0.4554  2.7589
  830MOL0     H 9554   9.230   5.957   1.710 -0.1309 -0.0323  0.2962
  830MOL0     H 9555   9.295   5.802   1.639 -4.3607 -0.0402 -0.9728
  830MOL0     H 9556   9.482   5.968   1.738 -0.5662  0.3749 -1.5375
  830MOL0     H 9557   9.403   5.921   1.897 -1.3315 -2.8691 -0.5078
  830MOL0     H 9558   9.641   5.594   1.807  1.4566  0.7452  3.7740
  830MOL0     H 9559   8.890   6.114   1.770 -2.1568  0.8525  1.0767
  830MOL0     H 9560   8.659   6.170   1.725 -0.6871 -1.1034  2.3538
  831MOL0     O 9561   9.446   9.166   3.310  0.2091 -0.2597  0.2865
  831MOL0     C 9562   9.416   9.050   3.290  0.0855 -0.0268 -0.1951
  831MOL0     O 9563   9.499   8.943   3.314  0.4993  0.3099 -0.7753
  831MOL0     C 9564   9.630   8.974   3.324 -1.5065  1.5556  0.3707
  831MOL0     C 9565   9.700   9.001   3.215 -0.0871  0.0812  0.0887
  831MOL0     C 9566   9.832   9.037   3.213  0.0348  0.4293  0.0501
  831MOL0     C 9567   9.903   9.040   3.329 -0.2195 -0.4149 -0.2888
  831MOL0     O 9568  10.039   9.061   3.318  0.0637  0.8630 -0.1418
  831MOL0     C 9569  10.122   9.085   3.436 -0.7247  0.2496  0.2921
  831MOL0     C 9570  10.184   8.956   3.505  0.0246 -0.1547 -0.2758
  831MOL0     C 9571  10.250   8.977   3.640  0.6317 -0.5305  0.2010
  831MOL0     C 9572  10.348   8.860   3.667  0.8170  0.7559  0.0547
  831MOL0     C 9573  10.399   8.866   3.815 -0.3714 -0.2910  0.9327
  831MOL0     C 9574  10.477   8.752   3.873  0.7353  0.0453 -0.3140
  831MOL0     C 9575  10.512   8.765   4.015 -0.6336 -0.1173  0.3707
  831MOL0     C 9576  10.629   8.683   4.076 -0.0342  0.9919 -0.7978
  831MOL0     N 9577  10.621   8.541   4.032  0.6065 -0.5565  0.0964
  831MOL0     C 9578  10.512   8.457   4.038 -0.3292 -0.1197  0.2756
  831MOL0     C 9579  10.534   8.359   3.942  0.0138 -0.6333 -0.0143
  831MOL0     C 9580  10.455   8.240   3.933  0.3066  1.0455 -0.4351
  831MOL0     C 9581  10.392   8.228   3.801 -0.2093  0.4526 -0.2643
  831MOL0     C 9582  10.322   8.094   3.768  0.3099  1.1028 -1.1732
  831MOL0     C 9583  10.222   8.059   3.885 -0.7601  0.4594  0.8058
  831MOL0     O 9584  10.128   8.159   3.926 -0.1053  0.7541  0.1600
  831MOL0     C 9585  10.004   8.150   3.865  0.4035 -0.8498  0.6325
  831MOL0     C 9586   9.975   8.229   3.758  0.1885  0.0286  0.0081
  831MOL0     C 9587   9.860   8.209   3.681  0.5686  0.2997  0.0647
  831MOL0     C 9588   9.772   8.102   3.710  0.3354  0.3084  0.7860
  831MOL0     C 9589   9.660   8.069   3.625  1.2356 -0.7949 -0.0470
  831MOL0     O 9590   9.612   7.946   3.637  0.1395  0.8382 -0.7870
  831MOL0     C 9591   9.486   7.918   3.588 -0.0189  0.1357 -0.8677
  831MOL0     C 9592   9.371   7.989   3.628 -0.3989 -0.8537  0.6428
  831MOL0     C 9593   9.245   7.957   3.580  0.1383 -0.2806  1.0929
  831MOL0     C 9594   9.231   7.850   3.496 -0.4291  0.4213 -0.2779
  831MOL0     O 9595   9.104   7.808   3.465 -0.6254 -0.0503 -0.1575
  831MOL0     C 9596   9.064   7.845   3.333 -0.0394 -1.1777 -0.1208
  831MOL0     C 9597   8.922   7.807   3.307  0.2171 -0.0803  0.1574
  831MOL0     C 9598   8.869   7.911   3.202 -0.2664 -0.3393  0.2837
  831MOL0     C 9599   8.734   7.878   3.150  0.5880 -0.2760  0.2379
  831MOL0     C 9600   8.683   8.013   3.080 -0.7274  0.0616  0.4986
  831MOL0     C 9601   8.552   7.990   3.011  0.2034 -0.3845  0.3698
  831MOL0     C 9602   8.426   7.967   3.098  0.7950 -0.6748 -0.2051
  831MOL0     C 9603   8.302   7.925   3.026  0.3315  0.8677  0.0090
  831MOL0    Cl 9604   8.173   7.876   3.149 -0.1663  0.0026  0.2839
  831MOL0     C 9605   9.345   7.773   3.452 -0.0162  0.8405 -0.5445
  831MOL0     C 9606   9.470   7.808   3.502  0.7002 -0.0343 -0.5701
  831MOL0     O 9607   9.613   8.163   3.558 -0.1727  0.3925 -0.4445
  831MOL0     C 9608   9.805   8.021   3.814 -0.2039 -0.5975 -0.1801
  831MOL0     C 9609   9.907   8.052   3.902 -0.7969  0.1999  0.1964
  831MOL0     N 9610  10.656   8.383   3.871 -0.4988 -0.4964 -0.2511
  831MOL0     N 9611  10.697   8.504   3.927  0.6786  0.9525 -0.0963
  831MOL0     C 9612   9.834   9.012   3.451 -0.5344 -0.1388  0.8724
  831MOL0     C 9613   9.700   8.976   3.442  0.0711 -0.1979 -0.0146
  831MOL0     C 9614   9.278   9.018   3.260 -0.7086  0.8848 -1.1747
  831MOL0     C 9615   9.235   8.885   3.235  0.0105 -0.1575  0.9230
  831MOL0     C 9616   9.099   8.851   3.221 -0.5060 -0.1545 -0.0069
  831MOL0     C 9617   8.996   8.944   3.219  0.1908  0.1606 -0.8041
  831MOL0     O 9618   8.863   8.900   3.208  0.4993 -0.1328  0.0340
  831MOL0     C 9619   8.763   8.998   3.178  0.7755  0.4152 -0.7100
  831MOL0     C 9620   8.628   8.923   3.179 -0.2203 -0.0799  1.4404
  831MOL0     C 9621   8.561   8.956   3.301 -0.4084 -0.7908 -0.0984
  831MOL0     C 9622   8.423   8.879   3.325 -0.1867 -0.4885 -0.3512
  831MOL0     C 9623   8.320   8.917   3.238  1.1065  0.3160 -0.0297
  831MOL0     C 9624   8.228   8.948   3.160 -0.5033  0.3774  0.3410
  831MOL0     C 9625   9.035   9.076   3.223 -0.5339 -0.6667  0.1885
  831MOL0     C 9626   9.175   9.109   3.255 -0.1870  0.9305  1.1745
  831MOL0     H 9627   9.646   9.000   3.121 -0.5103  1.6044  0.2926
  831MOL0     H 9628   9.876   9.050   3.114  1.0367 -0.7287  0.3256
  831MOL0     H 9629  10.063   9.159   3.490 -2.5123 -0.4767 -0.5654
  831MOL0     H 9630  10.205   9.152   3.414 -2.3452  2.8978  1.7125
  831MOL0     H 9631  10.246   8.907   3.429 -2.2951  0.6915 -2.9064
  831MOL0     H 9632  10.104   8.886   3.534 -0.4946  0.2714 -0.6560
  831MOL0     H 9633  10.171   8.989   3.714 -0.1342 -0.0529 -0.6740
  831MOL0     H 9634  10.308   9.070   3.636 -1.3066  0.7155  0.1823
  831MOL0     H 9635  10.288   8.772   3.644  2.5937 -0.6993  0.7482
  831MOL0     H 9636  10.438   8.863   3.605  2.1637  0.4289  1.8981
  831MOL0     H 9637  10.308   8.878   3.875 -0.4933 -0.7189  0.8426
  831MOL0     H 9638  10.469   8.948   3.833 -2.3932  1.2386  2.2757
  831MOL0     H 9639  10.565   8.748   3.808 -0.3379 -0.6094 -1.7997
  831MOL0     H 9640  10.419   8.663   3.845 -3.4735  2.9449 -1.9080
  831MOL0     H 9641  10.538   8.870   4.032 -5.4790  1.0358  2.2672
  831MOL0     H 9642  10.421   8.751   4.074 -1.3300  2.2231 -0.0540
  831MOL0     H 9643  10.643   8.675   4.184  1.6088  0.4451 -1.0388
  831MOL0     H 9644  10.724   8.719   4.037  0.2220  3.3520  1.7135
  831MOL0     H 9645  10.427   8.459   4.105  1.4744  2.0730  2.6855
  831MOL0     H 9646  10.381   8.231   4.012  0.6612  0.8789 -0.1192
  831MOL0     H 9647  10.523   8.155   3.943  0.9477  1.2974 -2.2502
  831MOL0     H 9648  10.464   8.244   3.720 -0.8223 -1.2021 -1.1995
  831MOL0     H 9649  10.316   8.306   3.792 -0.2666  0.4174 -0.0915
  831MOL0     H 9650  10.263   8.099   3.676  2.5387  3.9871 -2.6340
  831MOL0     H 9651  10.393   8.011   3.757 -1.3636 -0.2707 -1.9531
  831MOL0     H 9652  10.280   8.037   3.975  0.6670 -2.4281 -0.6515
  831MOL0     H 9653  10.171   7.967   3.855 -3.9164  1.6278  2.2175
  831MOL0     H 9654  10.032   8.312   3.718  1.1428 -0.6185  0.0041
  831MOL0     H 9655   9.840   8.274   3.597 -1.9280  0.7988  0.9536
  831MOL0     H 9656   9.381   8.077   3.690 -1.5330 -0.3022  0.0771
  831MOL0     H 9657   9.156   8.012   3.606  2.1307  4.7160 -1.3465
  831MOL0     H 9658   9.126   7.805   3.252  0.9125  3.1070 -1.7557
  831MOL0     H 9659   9.065   7.954   3.333 -2.5095 -1.0973 -0.5005
  831MOL0     H 9660   8.864   7.820   3.398 -1.1984  1.6682 -0.9327
  831MOL0     H 9661   8.915   7.700   3.282 -0.5401 -0.0031  0.0287
  831MOL0     H 9662   8.936   7.914   3.115 -1.6142 -0.3597 -0.7828
  831MOL0     H 9663   8.880   8.010   3.246  1.9070 -0.8854  1.1247
  831MOL0     H 9664   8.748   7.804   3.070 -0.5284  2.1972 -2.4360
  831MOL0     H 9665   8.665   7.852   3.230 -0.7041  2.2896  0.0563
  831MOL0     H 9666   8.762   8.036   3.009 -0.5162  2.0724  1.3236
  831MOL0     H 9667   8.681   8.101   3.146  1.6675  0.1606  0.5275
  831MOL0     H 9668   8.566   7.901   2.949  2.7151  0.4676 -0.3908
  831MOL0     H 9669   8.538   8.084   2.956 -0.8042 -0.5400  0.3358
  831MOL0     H 9670   8.440   7.888   3.172  2.5494 -2.4101 -2.2706
  831MOL0     H 9671   8.415   8.056   3.161 -0.5305 -2.4828  2.3156
  831MOL0     H 9672   8.327   7.845   2.955 -0.7647  1.0973 -0.6540
  831MOL0     H 9673   8.275   8.008   2.960  0.1394  2.2132  1.7053
  831MOL0     H 9674   9.342   7.689   3.384 -0.5233 -0.0707  0.5781
  831MOL0     H 9675   9.552   7.739   3.483  0.5583 -1.2952  2.7516
  831MOL0     H 9676   9.739   7.939   3.842  1.1586 -1.7078 -0.1107
  831MOL0     H 9677   9.916   7.979   3.982 -0.7930  1.9841  1.9056
  831MOL0     H 9678   9.870   9.010   3.553 -1.1369  0.2641  1.0989
  831MOL0     H 9679   9.662   8.954   3.541  1.5141  0.5401  0.7316
  831MOL0     H 9680   9.310   8.806   3.242  0.5285 -0.4730 -4.0927
  831MOL0     H 9681   9.073   8.747   3.205  0.5920 -0.2548 -1.2721
  831MOL0     H 9682   8.789   9.025   3.075 -1.0431  0.2243 -1.2588
  831MOL0     H 9683   8.757   9.090   3.236 -1.2233  1.4174 -2.3690
  831MOL0     H 9684   8.571   8.971   3.098 -2.3231 -2.9632  1.0318
  831MOL0     H 9685   8.647   8.819   3.152 -0.8294  0.3945 -1.0848
  831MOL0     H 9686   8.537   9.062   3.302  0.0771 -0.6309 -1.9284
  831MOL0     H 9687   8.631   8.950   3.385  0.4534  0.9027 -0.6539
  831MOL0     H 9688   8.431   8.770   3.320 -0.8459 -0.4902 -2.2537
  831MOL0     H 9689   8.389   8.910   3.425 -1.3426  0.7871 -1.1098
  831MOL0     H 9690   8.159   8.977   3.083  2.8133  1.7482 -2.3655
  831MOL0     H 9691   8.966   9.160   3.229  2.2116  1.8600 -1.0180
  831MOL0     H 9692   9.187   9.216   3.264 -1.3928  1.2144 -0.2586
  832MOL0     O 9693   0.063   6.743   2.707  0.7233  0.6232 -0.8529
  832MOL0     C 9694   0.112   6.815   2.618  1.1706  0.1340 -0.0764
  832MOL0     O 9695   0.055   6.872   2.506 -0.4712 -0.0122  0.0006
  832MOL0     C 9696  -0.072   6.849   2.490 -0.4990  0.1237 -0.3057
  832MOL0     C 9697  -0.176   6.900   2.574  0.4986  0.2162  1.0957
  832MOL0     C 9698  -0.313   6.896   2.539  1.0204  0.8958  0.6980
  832MOL0     C 9699  -0.351   6.812   2.430 -0.1738 -0.1855  0.3442
  832MOL0     O 9700  -0.480   6.812   2.391  0.7555  0.3058 -0.6886
  832MOL0     C 9701  -0.521   6.903   2.289  0.5840  0.5854 -0.6144
  832MOL0     C 9702  -0.663   6.873   2.244 -0.4151 -1.0912 -0.4143
  832MOL0     C 9703  -0.777   6.876   2.355  0.4465 -0.8206  0.4094
  832MOL0     C 9704  -0.922   6.852   2.296  0.0585 -0.0087  0.0019
  832MOL0     C 9705  -0.935   6.720   2.221  0.0225  0.4019  0.2725
  832MOL0     C 9706  -1.086   6.682   2.220 -0.0985 -0.7888 -0.5277
  832MOL0     C 9707  -1.118   6.557   2.144  0.8442  0.1772 -0.0143
  832MOL0     C 9708  -1.279   6.555   2.144  0.4937  0.2494  0.3350
  832MOL0     N 9709  -1.321   6.439   2.063  0.2080 -0.0331  0.2464
  832MOL0     C 9710  -1.350   6.453   1.928  0.8260  0.0811 -0.0862
  832MOL0     C 9711  -1.394   6.334   1.894  0.0715  0.7961  0.1706
  832MOL0     C 9712  -1.452   6.302   1.759  0.0575  0.7253 -0.3640
  832MOL0     C 9713  -1.342   6.255   1.668  0.5271 -0.0822 -0.0743
  832MOL0     C 9714  -1.408   6.251   1.527 -0.3472 -0.1590  1.2522
  832MOL0     C 9715  -1.295   6.214   1.428 -0.5568 -0.3468 -1.1295
  832MOL0     O 9716  -1.331   6.192   1.293 -0.2309 -0.7495 -0.0890
  832MOL0     C 9717  -1.229   6.208   1.209  0.2847  0.9401  0.1353
  832MOL0     C 9718  -1.174   6.101   1.133  0.6711 -0.4651 -0.4236
  832MOL0     C 9719  -1.072   6.128   1.045 -0.3955 -0.6037  0.1178
  832MOL0     C 9720  -1.010   6.255   1.034  0.1705 -0.1778  0.5163
  832MOL0     C 9721  -0.890   6.277   0.946 -0.7952 -0.1774  0.0191
  832MOL0     O 9722  -0.866   6.173   0.860 -1.2234 -0.2779  1.3144
  832MOL0     C 9723  -0.750   6.147   0.783 -0.7511 -0.8337  0.2026
  832MOL0     C 9724  -0.758   6.036   0.692 -0.1684  0.6732 -0.5586
  832MOL0     C 9725  -0.646   6.000   0.616 -0.7551  0.3707  0.0064
  832MOL0     C 9726  -0.529   6.081   0.612 -0.7382  0.6324  0.6934
  832MOL0     O 9727  -0.429   6.048   0.525 -0.4080 -0.1699 -0.3920
  832MOL0     C 9728  -0.341   6.158   0.498 -1.2157 -0.5142 -0.0577
  832MOL0     C 9729  -0.245   6.123   0.378 -0.4436 -0.2120  0.1099
  832MOL0     C 9730  -0.130   6.229   0.354 -0.6230  0.0929  0.2030
  832MOL0     C 9731  -0.054   6.210   0.228 -1.0491  0.1758  0.7838
  832MOL0     C 9732   0.072   6.134   0.252 -0.1880  0.4356  0.4812
  832MOL0     C 9733   0.122   6.056   0.127  0.2794 -0.5545  0.5621
  832MOL0     C 9734   0.258   5.997   0.161  0.0062  0.0870 -0.1542
  832MOL0     C 9735   0.331   5.953   0.041  0.5827  0.1795 -0.2062
  832MOL0    Cl 9736   0.466   5.850   0.089 -0.1898 -0.3418 -0.2184
  832MOL0     C 9737  -0.530   6.191   0.695  0.5653 -0.5025  0.4444
  832MOL0     C 9738  -0.638   6.229   0.780 -0.7241  0.2689 -0.4697
  832MOL0     O 9739  -0.825   6.377   0.946 -0.1658  0.0423  0.0464
  832MOL0     C 9740  -1.074   6.354   1.106  0.4604 -0.3991 -0.2652
  832MOL0     C 9741  -1.182   6.341   1.185 -0.7344 -0.3749 -0.3617
  832MOL0     N 9742  -1.378   6.245   1.997  0.5276  0.7594  0.5388
  832MOL0     N 9743  -1.316   6.304   2.086  0.3255 -0.5408  0.0196
  832MOL0     C 9744  -0.256   6.761   2.347 -1.0603  0.1695 -1.0315
  832MOL0     C 9745  -0.121   6.778   2.377 -0.1916 -0.0917  0.2734
  832MOL0     C 9746   0.258   6.827   2.624 -0.0715 -0.2793  0.7522
  832MOL0     C 9747   0.327   6.833   2.749  0.4578 -0.8175 -0.5917
  832MOL0     C 9748   0.463   6.876   2.750 -0.3138 -1.0250 -0.1503
  832MOL0     C 9749   0.537   6.893   2.632 -0.3609  0.1240  0.6796
  832MOL0     O 9750   0.669   6.924   2.637 -0.6578 -0.1329 -0.9246
  832MOL0     C 9751   0.755   6.869   2.537  0.1753 -0.3738  0.0589
  832MOL0     C 9752   0.901   6.887   2.565 -0.1734 -0.5811  0.4015
  832MOL0     C 9753   0.929   7.036   2.557  0.3906 -0.3904 -0.3423
  832MOL0     C 9754   1.017   7.089   2.668 -0.6224  0.5270 -0.2953
  832MOL0     C 9755   1.147   7.016   2.677  0.9741 -0.4166 -0.0389
  832MOL0     C 9756   1.251   6.960   2.706  0.2795  0.3384  0.5166
  832MOL0     C 9757   0.469   6.875   2.510  0.5734  0.1094 -0.2086
  832MOL0     C 9758   0.329   6.836   2.507  0.5631 -0.3950  0.0661
  832MOL0     H 9759  -0.159   6.954   2.666  2.2898  0.1056  0.8584
  832MOL0     H 9760  -0.394   6.949   2.588  1.9509 -0.4489  3.9524
  832MOL0     H 9761  -0.447   6.901   2.209  2.4371  0.0528  1.0217
  832MOL0     H 9762  -0.511   7.005   2.330 -0.1721  1.6465 -2.9097
  832MOL0     H 9763  -0.669   6.781   2.186  1.3802 -0.5823 -1.5100
  832MOL0     H 9764  -0.695   6.949   2.172  2.0262  0.7085  0.2315
  832MOL0     H 9765  -0.783   6.967   2.416 -0.2047 -1.0600  0.7159
  832MOL0     H 9766  -0.748   6.800   2.428  2.3033 -0.1968  0.3719
  832MOL0     H 9767  -0.990   6.862   2.382 -2.2222  2.6906 -1.9260
  832MOL0     H 9768  -0.956   6.926   2.223 -1.0811 -0.2231  0.2925
  832MOL0     H 9769  -0.879   6.636   2.264  2.0662  1.2530 -0.5745
  832MOL0     H 9770  -0.898   6.733   2.119  2.3579  1.7451  1.2144
  832MOL0     H 9771  -1.130   6.771   2.176  2.8073  1.3466  0.5366
  832MOL0     H 9772  -1.116   6.679   2.325  0.2325  0.6276 -0.3787
  832MOL0     H 9773  -1.085   6.551   2.040 -0.4622  0.2089 -0.4460
  832MOL0     H 9774  -1.076   6.474   2.201  1.3772  0.8031  0.5120
  832MOL0     H 9775  -1.321   6.648   2.104  1.7035  1.0709  0.9055
  832MOL0     H 9776  -1.324   6.542   2.243 -0.9414 -2.1470 -0.5486
  832MOL0     H 9777  -1.362   6.536   1.859 -2.2775  0.6142  0.9442
  832MOL0     H 9778  -1.520   6.373   1.712 -1.2252 -1.9146 -2.8623
  832MOL0     H 9779  -1.522   6.218   1.771  1.5682 -0.3756  1.1841
  832MOL0     H 9780  -1.309   6.155   1.697  0.6602 -0.5478 -1.7123
  832MOL0     H 9781  -1.256   6.324   1.668 -0.3982  1.2274 -2.7646
  832MOL0     H 9782  -1.481   6.173   1.506 -0.3862  0.1231  0.2535
  832MOL0     H 9783  -1.452   6.347   1.497 -0.7458 -1.1153 -1.5577
  832MOL0     H 9784  -1.254   6.117   1.457 -1.5394  0.1231  2.2216
  832MOL0     H 9785  -1.214   6.288   1.435  1.4459 -2.3390 -1.8237
  832MOL0     H 9786  -1.215   6.001   1.143 -1.0454  0.1184 -1.3855
  832MOL0     H 9787  -1.027   6.051   0.983 -0.9954 -0.9504  0.1076
  832MOL0     H 9788  -0.841   5.966   0.688  0.9608 -0.6541 -2.3978
  832MOL0     H 9789  -0.655   5.903   0.568 -0.4763  0.8171 -0.9532
  832MOL0     H 9790  -0.272   6.180   0.580 -2.5114  3.1493  0.2623
  832MOL0     H 9791  -0.380   6.259   0.483  1.8472  0.3482 -3.6042
  832MOL0     H 9792  -0.317   6.121   0.295 -2.8426 -2.4641  2.0761
  832MOL0     H 9793  -0.190   6.029   0.388  1.1416  0.0706 -3.9639
  832MOL0     H 9794  -0.066   6.234   0.443 -1.5597 -0.0151  0.9015
  832MOL0     H 9795  -0.181   6.326   0.346  0.8933  0.7812 -1.9677
  832MOL0     H 9796  -0.121   6.152   0.164 -0.1666 -0.4376  0.3927
  832MOL0     H 9797  -0.034   6.306   0.180  0.6324 -0.3812  0.3134
  832MOL0     H 9798   0.059   6.058   0.330  1.5775 -0.0097  0.4026
  832MOL0     H 9799   0.154   6.197   0.287 -0.3507  1.2925 -0.6502
  832MOL0     H 9800   0.127   6.119   0.038 -3.7917 -1.1084 -0.2610
  832MOL0     H 9801   0.047   5.978   0.107 -0.9650  0.7559 -0.0055
  832MOL0     H 9802   0.318   6.079   0.204 -0.8038  1.4168 -1.4807
  832MOL0     H 9803   0.257   5.927   0.245 -0.0423  1.6177  1.1914
  832MOL0     H 9804   0.356   6.038  -0.023  1.0692  2.8473  3.2262
  832MOL0     H 9805   0.257   5.899  -0.019 -0.3759  2.1913 -0.9215
  832MOL0     H 9806  -0.449   6.263   0.689 -1.6798  2.0216 -2.0223
  832MOL0     H 9807  -0.632   6.314   0.848  0.2400 -2.9556  3.9002
  832MOL0     H 9808  -1.042   6.458   1.102 -1.3451  0.2688  0.8890
  832MOL0     H 9809  -1.227   6.424   1.239 -0.7819 -1.5804  1.5348
  832MOL0     H 9810  -0.297   6.695   2.272 -0.7695 -1.3735  0.1186
  832MOL0     H 9811  -0.059   6.716   2.313 -1.2714  0.7067 -1.6487
  832MOL0     H 9812   0.283   6.808   2.845  0.0553  0.1263 -0.5252
  832MOL0     H 9813   0.522   6.878   2.841 -1.0234  3.4318  0.4329
  832MOL0     H 9814   0.733   6.913   2.439  0.7927  0.0160  0.0904
  832MOL0     H 9815   0.724   6.764   2.543  1.3697 -0.6733  1.5978
  832MOL0     H 9816   0.908   6.855   2.670  1.7049  0.6873  0.6977
  832MOL0     H 9817   0.963   6.822   2.503 -0.7846  0.2167 -1.0747
  832MOL0     H 9818   0.842   7.102   2.562  0.3371 -0.5222  0.6976
  832MOL0     H 9819   0.985   7.056   2.465 -0.5872 -1.1838 -1.1349
  832MOL0     H 9820   1.040   7.196   2.661  0.2907  0.4150  0.7291
  832MOL0     H 9821   0.972   7.076   2.767  1.8441  2.2007  1.1702
  832MOL0     H 9822   1.344   6.918   2.739 -0.7520 -2.2429  0.3143
  832MOL0     H 9823   0.516   6.883   2.413  0.7760 -1.7696 -0.3078
  832MOL0     H 9824   0.283   6.812   2.412  2.5675 -1.9313 -0.5798
  833MOL0     O 9825  11.314   2.298  10.615 -0.2118 -0.0916 -0.1513
  833MOL0     C 9826  11.387   2.285  10.715 -0.1910 -0.4689  1.0800
  833MOL0     O 9827  11.363   2.340  10.830 -0.2603  0.5409 -0.1031
  833MOL0     C 9828  11.256   2.418  10.851  0.5350 -0.2553 -0.1453
  833MOL0     C 9829  11.273   2.554  10.860 -0.4498 -0.4807 -0.2007
  833MOL0     C 9830  11.165   2.638  10.901  0.0705 -0.1423 -0.3737
  833MOL0     C 9831  11.037   2.587  10.934  0.1664 -0.6171  0.0773
  833MOL0     O 9832  10.947   2.687  10.974 -0.6597 -0.1393  0.1685
  833MOL0     C 9833  10.806   2.655  10.989  0.4094 -0.6759 -0.1734
  833MOL0     C 9834  10.710   2.772  11.020 -0.9729  0.2727  0.3983
  833MOL0     C 9835  10.564   2.730  11.043 -1.1712  0.6706 -0.6233
  833MOL0     C 9836  10.479   2.853  11.054 -0.3536 -0.3412  0.5828
  833MOL0     C 9837  10.326   2.831  11.082  0.7514  1.5733 -0.4903
  833MOL0     C 9838  10.310   2.775  11.220  0.2327 -0.0960 -0.8630
  833MOL0     C 9839  10.165   2.753  11.267 -0.6169 -0.0550  0.5025
  833MOL0     C 9840  10.162   2.668  11.390  0.4874  0.0631 -0.9092
  833MOL0     N 9841  10.023   2.663  11.446 -0.5187 -0.0984 -0.3744
  833MOL0     C 9842   9.903   2.716  11.398 -0.9099  0.5623 -1.1066
  833MOL0     C 9843   9.818   2.711  11.499  0.5166 -0.3144  0.4816
  833MOL0     C 9844   9.671   2.768  11.474 -0.5913  0.3840  0.6365
  833MOL0     C 9845   9.668   2.886  11.384 -1.1327 -0.7550  0.7693
  833MOL0     C 9846   9.546   2.974  11.393 -0.0755  0.1598 -0.9363
  833MOL0     C 9847   9.409   2.903  11.357 -1.2362 -0.1690  0.4960
  833MOL0     O 9848   9.308   3.001  11.376 -0.5150  0.2407 -0.1984
  833MOL0     C 9849   9.190   2.975  11.324  0.0709  0.0544  0.6219
  833MOL0     C 9850   9.117   2.855  11.334  1.0067  0.3477  0.5468
  833MOL0     C 9851   8.992   2.848  11.282 -0.4726  0.8686  0.9625
  833MOL0     C 9852   8.932   2.958  11.211 -1.0905  0.2803 -0.9912
  833MOL0     C 9853   8.798   2.948  11.163 -0.3772  0.2846  1.1674
  833MOL0     O 9854   8.743   3.059  11.115  0.3546 -0.7484 -0.2506
  833MOL0     C 9855   8.613   3.058  11.065 -0.0634 -0.3044  0.0385
  833MOL0     C 9856   8.515   3.008  11.149  0.3913 -0.1407  0.0603
  833MOL0     C 9857   8.380   3.007  11.119  0.4131  0.4785 -0.0718
  833MOL0     C 9858   8.331   3.082  11.020  1.1281  0.3589 -0.1101
  833MOL0     O 9859   8.192   3.084  11.016 -1.0846 -0.3033 -0.6433
  833MOL0     C 9860   8.120   3.112  10.893  0.2873  0.2094  0.2902
  833MOL0     C 9861   8.009   3.004  10.869 -0.1577 -0.0328 -0.0033
  833MOL0     C 9862   8.075   2.866  10.857  0.1707 -0.3049 -0.2372
  833MOL0     C 9863   7.995   2.763  10.781  0.4251 -0.9411 -0.2296
  833MOL0     C 9864   7.917   2.659  10.857 -0.5663 -0.4223  0.5911
  833MOL0     C 9865   7.796   2.723  10.939  0.3950  0.1156  0.1545
  833MOL0     C 9866   7.691   2.785  10.863  0.1322  0.3910  0.1307
  833MOL0     C 9867   7.562   2.827  10.942  0.5878  0.2989 -0.3781
  833MOL0    Cl 9868   7.596   2.932  11.085 -0.0370  0.7328  0.1998
  833MOL0     C 9869   8.420   3.151  10.935  0.0027  0.5807 -0.0876
  833MOL0     C 9870   8.560   3.132  10.954 -0.4972  0.5525  0.8080
  833MOL0     O 9871   8.748   2.837  11.169 -0.1295  0.6368  0.1257
  833MOL0     C 9872   9.001   3.080  11.204 -0.2146 -0.4245 -0.5001
  833MOL0     C 9873   9.122   3.086  11.261 -0.0216  0.3474 -0.7688
  833MOL0     N 9874   9.880   2.654  11.609  0.4225  0.1122 -0.4560
  833MOL0     N 9875  10.001   2.633  11.581  0.7159  0.3210  0.5875
  833MOL0     C 9876  11.021   2.445  10.921  0.0756 -0.0872 -0.5252
  833MOL0     C 9877  11.127   2.361  10.884 -0.5157 -0.5543  0.5306
  833MOL0     C 9878  11.520   2.214  10.705 -0.0498  0.4199  0.1912
  833MOL0     C 9879  11.569   2.159  10.581  0.5097 -0.3784  0.2701
  833MOL0     C 9880  11.689   2.092  10.576  0.4342 -0.0284 -0.0454
  833MOL0     C 9881  11.773   2.080  10.690 -0.6490  0.4544 -0.3380
  833MOL0     O 9882  11.897   2.020  10.690  0.0884 -0.2765 -0.6973
  833MOL0     C 9883  11.930   1.926  10.595  0.0714  1.0652  0.1671
  833MOL0     C 9884  12.058   1.862  10.625 -0.0391  0.1971 -0.8313
  833MOL0     C 9885  12.101   1.773  10.520  0.0277  0.2106 -0.2579
  833MOL0     C 9886  12.052   1.627  10.526 -0.5992  1.0796  0.2684
  833MOL0     C 9887  11.911   1.614  10.482 -0.2745  0.5623  1.5614
  833MOL0     C 9888  11.801   1.607  10.432 -0.5724 -0.6417 -0.4832
  833MOL0     C 9889  11.735   2.135  10.808  0.8319  0.3319  0.3180
  833MOL0     C 9890  11.611   2.198  10.814 -0.7860 -0.1488  0.2439
  833MOL0     H 9891  11.368   2.602  10.841 -1.2916  2.2478  1.8401
  833MOL0     H 9892  11.181   2.745  10.909 -2.7892  0.2671  1.5539
  833MOL0     H 9893  10.796   2.572  11.060  0.3406 -1.9614 -1.6271
  833MOL0     H 9894  10.763   2.598  10.906 -1.8164  0.4669  0.1227
  833MOL0     H 9895  10.708   2.837  10.932 -1.7250  0.4155  0.5118
  833MOL0     H 9896  10.751   2.842  11.093 -0.3408  1.1867 -0.7996
  833MOL0     H 9897  10.556   2.661  11.128 -3.1162 -0.4564 -1.6511
  833MOL0     H 9898  10.534   2.666  10.959 -1.0313 -1.9404  1.1994
  833MOL0     H 9899  10.515   2.920  11.132 -0.9455  0.8914 -0.1764
  833MOL0     H 9900  10.492   2.911  10.963 -2.5710 -1.5783 -0.6146
  833MOL0     H 9901  10.299   2.757  11.007  3.1621  2.1967 -2.0839
  833MOL0     H 9902  10.277   2.926  11.062  0.8082  1.7998  0.3844
  833MOL0     H 9903  10.357   2.845  11.289  2.6556 -1.2759 -1.2221
  833MOL0     H 9904  10.369   2.683  11.229 -1.3176 -1.0760 -0.3006
  833MOL0     H 9905  10.137   2.853  11.299  1.4976  0.0383  2.3489
  833MOL0     H 9906  10.103   2.709  11.188 -1.6140  0.3623  1.0422
  833MOL0     H 9907  10.231   2.705  11.465 -1.0776  2.0060 -0.3233
  833MOL0     H 9908  10.199   2.566  11.378  0.3987 -0.3052  1.4708
  833MOL0     H 9909   9.885   2.759  11.300  3.0619  1.7053 -1.4847
  833MOL0     H 9910   9.613   2.783  11.566 -2.1648 -0.7853 -0.1131
  833MOL0     H 9911   9.610   2.694  11.420  0.7795 -0.6192  0.4122
  833MOL0     H 9912   9.679   2.844  11.284  0.6408 -0.7212  0.9228
  833MOL0     H 9913   9.756   2.949  11.398 -1.7401  0.8516 -1.8806
  833MOL0     H 9914   9.541   3.010  11.496 -2.7065 -1.1391 -0.5159
  833MOL0     H 9915   9.562   3.061  11.330  0.5777 -0.7834 -2.1062
  833MOL0     H 9916   9.404   2.826  11.433 -0.2538  1.6771  2.5461
  833MOL0     H 9917   9.415   2.859  11.257 -0.8413 -0.5345  0.6798
  833MOL0     H 9918   9.165   2.769  11.381  1.9043 -0.9935 -2.5780
  833MOL0     H 9919   8.936   2.755  11.276  0.0615  0.6164 -2.9523
  833MOL0     H 9920   8.543   2.954  11.239  2.4083  1.4535  0.4579
  833MOL0     H 9921   8.301   2.960  11.176  0.6739  1.3279  1.0344
  833MOL0     H 9922   8.184   3.106  10.804 -1.2929  0.5850 -0.9253
  833MOL0     H 9923   8.079   3.213  10.887 -0.2670 -0.0853 -1.5700
  833MOL0     H 9924   7.958   3.007  10.773 -1.5181 -3.6864  0.4656
  833MOL0     H 9925   7.936   3.011  10.950 -0.1259 -2.0322  0.2288
  833MOL0     H 9926   8.081   2.838  10.963 -1.6151 -2.7419 -0.6972
  833MOL0     H 9927   8.175   2.879  10.814  0.2758 -0.0383  0.0838
  833MOL0     H 9928   7.938   2.819  10.707  2.2299  0.7113 -0.4560
  833MOL0     H 9929   8.055   2.701  10.713 -1.1899 -1.8474 -0.8685
  833MOL0     H 9930   7.984   2.601  10.921  0.7152  0.0499 -0.2701
  833MOL0     H 9931   7.886   2.586  10.782  1.9548 -0.8898 -0.0831
  833MOL0     H 9932   7.831   2.795  11.014 -0.8679 -0.3256  1.2138
  833MOL0     H 9933   7.754   2.639  10.996  0.4318 -0.7749 -1.0824
  833MOL0     H 9934   7.735   2.877  10.825  2.4919 -0.8379 -0.2395
  833MOL0     H 9935   7.672   2.719  10.778  3.1628  0.9638 -1.1287
  833MOL0     H 9936   7.521   2.733  10.980  0.7156  0.0798 -0.7766
  833MOL0     H 9937   7.499   2.885  10.874 -0.0832  0.2039  0.1525
  833MOL0     H 9938   8.386   3.211  10.851 -0.1350  1.4993  0.6147
  833MOL0     H 9939   8.634   3.181  10.891 -0.2714 -2.9634 -1.9686
  833MOL0     H 9940   8.963   3.163  11.145  2.5736  0.0144 -1.7995
  833MOL0     H 9941   9.178   3.178  11.246 -0.6817  0.4472 -3.1278
  833MOL0     H 9942  10.931   2.385  10.936  1.0894 -1.6365 -0.3331
  833MOL0     H 9943  11.124   2.253  10.874  2.0062 -0.5784 -0.6078
  833MOL0     H 9944  11.519   2.165  10.485  0.9194 -0.3832  0.0537
  833MOL0     H 9945  11.738   2.056  10.486  3.0844 -0.6518  1.5113
  833MOL0     H 9946  11.932   1.968  10.494  0.6388 -0.7020 -0.6021
  833MOL0     H 9947  11.851   1.849  10.598 -0.2736  1.2954 -1.7503
  833MOL0     H 9948  12.142   1.932  10.636  2.2486 -2.5871  0.7865
  833MOL0     H 9949  12.044   1.815  10.722 -3.6021  1.2626 -0.7084
  833MOL0     H 9950  12.210   1.777  10.505  0.0719  1.9463  0.2400
  833MOL0     H 9951  12.056   1.813  10.428 -1.5765  2.0955  1.2587
  833MOL0     H 9952  12.106   1.555  10.465  0.6025  0.1387  2.3439
  833MOL0     H 9953  12.060   1.592  10.629 -1.2311 -1.9717 -0.6328
  833MOL0     H 9954  11.700   1.606  10.398 -2.1290 -1.4341  3.5538
  833MOL0     H 9955  11.799   2.121  10.895 -1.7503  0.9751  2.4746
  833MOL0     H 9956  11.596   2.235  10.915 -1.1664  0.4812 -0.0355
  834MOL0     O 9957   6.165  10.438   5.302 -0.3299  0.7609  0.0934
  834MOL0     C 9958   6.232  10.484   5.397 -0.5724 -0.2560 -0.7998
  834MOL0     O 9959   6.342  10.431   5.456 -0.5925  0.3797  0.3687
  834MOL0     C 9960   6.369  10.293   5.449  0.6363  0.2886 -0.6292
  834MOL0     C 9961   6.494  10.259   5.504 -0.9274 -0.2738 -0.5410
  834MOL0     C 9962   6.539  10.126   5.505  0.6424  0.4288 -0.2302
  834MOL0     C 9963   6.457  10.028   5.460 -0.1242 -0.0228 -0.2798
  834MOL0     O 9964   6.496   9.895   5.457 -0.3547  0.1622  0.3582
  834MOL0     C 9965   6.636   9.876   5.403  0.5446 -0.7848 -0.2690
  834MOL0     C 9966   6.663   9.730   5.393 -0.3428 -0.4341  0.4782
  834MOL0     C 9967   6.681   9.669   5.531  0.4031  0.4754  0.9035
  834MOL0     C 9968   6.685   9.519   5.526  0.4360 -0.7165 -0.7394
  834MOL0     C 9969   6.719   9.473   5.677 -0.0201 -0.9045  0.2776
  834MOL0     C 9970   6.715   9.325   5.686 -0.1166 -0.3786 -0.0771
  834MOL0     C 9971   6.704   9.267   5.823 -0.1645 -0.5273 -0.9436
  834MOL0     C 9972   6.836   9.267   5.899 -1.2594  0.2942 -0.0106
  834MOL0     N 9973   6.846   9.158   6.005  0.2927  0.4453  0.0457
  834MOL0     C 9974   6.965   9.100   6.048 -0.2512  0.1063  0.9590
  834MOL0     C 9975   6.932   9.013   6.152  0.9734 -0.3449 -0.0108
  834MOL0     C 9976   7.020   8.913   6.221 -0.3845 -0.0542 -0.4159
  834MOL0     C 9977   6.954   8.809   6.314  0.3551  0.1293 -1.1098
  834MOL0     C 9978   6.914   8.862   6.453 -0.4286  0.1292  0.6066
  834MOL0     C 9979   7.044   8.908   6.535  0.2209  0.2256  0.4333
  834MOL0     O 9980   7.154   8.817   6.513  1.0104 -0.8003  0.2918
  834MOL0     C 9981   7.270   8.856   6.557 -0.2215  0.1581 -0.3542
  834MOL0     C 9982   7.377   8.777   6.524 -1.0906 -0.1250  0.6626
  834MOL0     C 9983   7.508   8.797   6.575  0.8015 -0.0158 -1.4870
  834MOL0     C 9984   7.526   8.894   6.673 -0.5951 -0.4971  0.8508
  834MOL0     C 9985   7.671   8.933   6.715  0.6646 -1.2125  0.4677
  834MOL0     O 9986   7.678   9.048   6.793 -0.3608 -0.2481 -1.2124
  834MOL0     C 9987   7.804   9.087   6.813 -0.5859  0.0783  0.5540
  834MOL0     C 9988   7.853   9.210   6.762 -0.2312  1.1197 -0.0677
  834MOL0     C 9989   7.989   9.241   6.779  0.2831  0.6010  0.4777
  834MOL0     C 9990   8.062   9.161   6.870 -0.2059  0.6794 -0.4751
  834MOL0     O 9991   8.185   9.211   6.894 -0.5174  0.5561 -0.2866
  834MOL0     C 9992   8.302   9.127   6.904  0.6157 -0.1361  0.9459
  834MOL0     C 9993   8.322   9.023   6.784  0.3070 -0.2553 -1.0159
  834MOL0     C 9994   8.437   8.924   6.805  0.0079 -0.8369  0.0001
  834MOL0     C 9995   8.575   8.996   6.789  0.0373  0.0797  0.9116
  834MOL0     C 9996   8.687   8.894   6.804  0.5247  0.2941  0.1989
  834MOL0     C 9997   8.825   8.954   6.754 -0.7932 -0.6182  0.6432
  834MOL0     C 9998   8.937   8.856   6.783  0.4460 -0.0898 -1.2691
  834MOL0     C 9999   9.073   8.908   6.723  0.5710 -0.6955  0.3748
  834MOL0    Cl10000   9.216   8.828   6.801 -0.4306  0.2582 -0.0345
  834MOL0     C10001   8.010   9.048   6.934  0.1937 -0.5408 -0.4056
  834MOL0     C10002   7.884   9.014   6.898  0.1227  0.9703 -0.1294
  834MOL0     O10003   7.757   8.859   6.684  1.4944 -0.2888  0.3821
  834MOL0     C10004   7.415   8.978   6.699 -0.2044 -0.2136 -0.4667
  834MOL0     C10005   7.283   8.959   6.651  0.0730  0.5907 -0.0051
  834MOL0     N10006   6.796   9.029   6.166 -0.3594 -0.1112  0.0699
  834MOL0     N10007   6.745   9.121   6.083 -0.1714  0.5264  0.3545
  834MOL0     C10008   6.331  10.054   5.416 -0.2966  0.8140  0.9192
  834MOL0     C10009   6.297  10.188   5.396 -0.3444  0.0827 -0.1782
  834MOL0     C10010   6.209  10.619   5.444  0.7154  0.0457 -0.5977
  834MOL0     C10011   6.110  10.702   5.372  0.1382  0.2015  0.3844
  834MOL0     C10012   6.096  10.839   5.406 -0.5825  0.0038 -0.2028
  834MOL0     C10013   6.174  10.903   5.502 -0.1000 -0.3597 -0.5174
  834MOL0     O10014   6.166  11.042   5.532 -0.1953 -0.0895 -0.2804
  834MOL0     C10015   6.039  11.100   5.502  0.2462 -0.3855 -0.4055
  834MOL0     C10016   6.024  11.237   5.565 -0.2926  0.5101 -0.1362
  834MOL0     C10017   6.095  11.341   5.490 -0.3033  0.8355  0.3696
  834MOL0     C10018   6.057  11.471   5.554 -0.2705  0.4928 -0.0372
  834MOL0     C10019   6.113  11.584   5.474 -0.1469 -0.1404 -0.2127
  834MOL0     C10020   6.150  11.675   5.402  0.5921  0.6403 -0.4563
  834MOL0     C10021   6.269  10.826   5.575 -0.3238 -0.2262 -0.0268
  834MOL0     C10022   6.287  10.689   5.542 -0.7126 -0.1286 -0.7936
  834MOL0     H10023   6.565  10.336   5.533 -1.5477 -0.2708  1.0302
  834MOL0     H10024   6.633  10.103   5.555  0.7832  0.2049 -0.5951
  834MOL0     H10025   6.711   9.929   5.462  0.9655 -0.6261 -0.9377
  834MOL0     H10026   6.645   9.917   5.302 -0.9686 -0.1390 -0.1659
  834MOL0     H10027   6.762   9.718   5.348 -1.1651 -2.5459 -0.8699
  834MOL0     H10028   6.580   9.683   5.341 -0.5901  1.3459 -0.7992
  834MOL0     H10029   6.598   9.692   5.598  0.0427 -1.8276  1.3520
  834MOL0     H10030   6.767   9.709   5.586  0.2636 -1.3820  2.5947
  834MOL0     H10031   6.587   9.479   5.498 -0.8097  2.4176 -1.1797
  834MOL0     H10032   6.763   9.478   5.462  0.9702 -1.0690  0.1227
  834MOL0     H10033   6.654   9.525   5.747  1.4997  2.5685 -0.6173
  834MOL0     H10034   6.813   9.519   5.711  0.5436 -0.7275 -1.3834
  834MOL0     H10035   6.805   9.280   5.645  0.1021 -0.4041  0.4245
  834MOL0     H10036   6.629   9.297   5.625 -0.0199  0.6444 -0.7001
  834MOL0     H10037   6.633   9.327   5.881 -1.6752 -0.7451 -2.4848
  834MOL0     H10038   6.678   9.161   5.816  1.5429 -1.1234  0.8886
  834MOL0     H10039   6.865   9.362   5.943 -0.3922  0.0819 -0.1167
  834MOL0     H10040   6.917   9.240   5.832  0.4952 -1.7584  2.7296
  834MOL0     H10041   7.060   9.113   5.997 -0.5614 -0.9346  0.0695
  834MOL0     H10042   7.092   8.975   6.274 -1.0845  1.1351 -0.8391
  834MOL0     H10043   7.086   8.858   6.153  3.8179  2.7258  1.0150
  834MOL0     H10044   7.027   8.727   6.317  1.3192  0.9543 -1.7314
  834MOL0     H10045   6.867   8.751   6.283  1.5740 -1.5433 -1.5406
  834MOL0     H10046   6.850   8.950   6.446  0.1350  0.3827 -2.7597
  834MOL0     H10047   6.865   8.787   6.515  0.2679 -0.8093  0.0443
  834MOL0     H10048   7.019   8.907   6.641 -0.8897  0.7493  0.1923
  834MOL0     H10049   7.066   9.012   6.507 -1.7915  0.5138 -0.2094
  834MOL0     H10050   7.365   8.707   6.442 -2.2461  0.8076  0.0112
  834MOL0     H10051   7.583   8.729   6.537  1.8140  1.6032 -2.5255
  834MOL0     H10052   7.809   9.264   6.679 -0.1038 -1.7254 -2.1431
  834MOL0     H10053   8.028   9.329   6.729 -0.6606  1.1712  0.7205
  834MOL0     H10054   8.293   9.060   6.990  0.6246  0.9640  1.8307
  834MOL0     H10055   8.390   9.188   6.928 -0.2883  1.6945 -0.2181
  834MOL0     H10056   8.320   9.085   6.694 -3.4687  2.9375  0.9444
  834MOL0     H10057   8.230   8.964   6.779  1.4259 -2.2875  0.8212
  834MOL0     H10058   8.417   8.844   6.734  0.8478  0.9072 -2.3403
  834MOL0     H10059   8.439   8.876   6.903  1.8566 -0.3863  0.2238
  834MOL0     H10060   8.594   9.036   6.689 -0.1101 -1.3755  0.2695
  834MOL0     H10061   8.601   9.066   6.868  3.8103 -0.1128  0.0395
  834MOL0     H10062   8.674   8.810   6.736 -0.1182  0.5949 -0.0549
  834MOL0     H10063   8.688   8.854   6.906  2.3927 -3.4073 -1.0940
  834MOL0     H10064   8.849   9.049   6.804  0.0936 -0.3530 -0.2628
  834MOL0     H10065   8.816   8.970   6.647 -0.6303 -2.3039  0.3554
  834MOL0     H10066   8.953   8.836   6.889  1.4059  2.5680 -0.8081
  834MOL0     H10067   8.908   8.766   6.729 -1.0903  0.7444 -1.9036
  834MOL0     H10068   9.068   9.015   6.742  0.2183 -0.6881  0.2529
  834MOL0     H10069   9.071   8.891   6.615  0.8575  2.0085 -0.1315
  834MOL0     H10070   8.063   8.982   7.003 -1.4790  1.0638  2.6623
  834MOL0     H10071   7.839   8.926   6.941 -1.5034  0.8589 -1.9500
  834MOL0     H10072   7.433   9.051   6.777 -0.6622 -1.9662  1.3466
  834MOL0     H10073   7.203   9.003   6.709  0.4075  0.5028  0.5211
  834MOL0     H10074   6.257   9.979   5.388 -2.1875  1.8646  2.8666
  834MOL0     H10075   6.192  10.200   5.368 -1.6264 -0.2491  3.8103
  834MOL0     H10076   6.061  10.656   5.287 -1.4576  0.2750  1.2360
  834MOL0     H10077   6.029  10.901   5.348 -0.1426 -0.8188 -1.6508
  834MOL0     H10078   5.962  11.030   5.538  0.8144 -1.3667 -1.0539
  834MOL0     H10079   6.030  11.108   5.393 -0.3276 -0.6746 -0.3827
  834MOL0     H10080   5.919  11.260   5.580 -0.1353  2.2000 -1.3807
  834MOL0     H10081   6.065  11.237   5.666  0.2720 -0.5661 -0.3467
  834MOL0     H10082   6.051  11.350   5.390 -0.1978  0.7239  0.3134
  834MOL0     H10083   6.204  11.337   5.483 -0.0377  1.3080  3.0536
  834MOL0     H10084   5.949  11.491   5.543  0.1612  2.6501 -0.8500
  834MOL0     H10085   6.083  11.478   5.660  0.5038 -0.6239 -0.1422
  834MOL0     H10086   6.168  11.764   5.346 -0.3728  1.1631  0.0403
  834MOL0     H10087   6.324  10.876   5.654  0.1765 -0.2833 -0.3317
  834MOL0     H10088   6.367  10.650   5.604 -1.7025  2.0037  2.0678
  835MOL0     O10089  10.187   3.361   5.968  0.1406  0.1133 -0.3975
  835MOL0     C10090  10.189   3.334   6.086 -0.3369 -0.7854  0.1836
  835MOL0     O10091  10.305   3.313   6.162 -0.2589 -0.2587  0.2339
  835MOL0     C10092  10.419   3.329   6.086  0.8797 -0.2249  0.0225
  835MOL0     C10093  10.461   3.239   5.974 -0.0221  0.5151 -0.5165
  835MOL0     C10094  10.562   3.288   5.886  0.7555  0.3820  0.1600
  835MOL0     C10095  10.628   3.411   5.919 -0.5013  0.6582  0.1083
  835MOL0     O10096  10.728   3.454   5.838 -0.4775 -0.3839 -0.2599
  835MOL0     C10097  10.828   3.366   5.797  0.0912 -0.0628  0.8755
  835MOL0     C10098  10.910   3.303   5.908  0.0074 -0.2843 -1.2985
  835MOL0     C10099  11.037   3.234   5.861  0.1437 -0.3811 -0.0371
  835MOL0     C10100  11.121   3.177   5.967 -0.0481  0.8681  0.0137
  835MOL0     C10101  11.252   3.104   5.918  0.1460 -0.4768 -0.1664
  835MOL0     C10102  11.319   3.050   6.043 -0.5756 -0.1092 -0.1518
  835MOL0     C10103  11.455   2.988   5.999  0.6684 -0.2600  0.0430
  835MOL0     C10104  11.438   2.856   5.922  0.3801 -0.4507  0.5337
  835MOL0     N10105  11.363   2.742   5.972  0.7618  0.1792  0.6132
  835MOL0     C10106  11.373   2.701   6.098  0.5342 -0.3237  0.1043
  835MOL0     C10107  11.316   2.575   6.102 -0.4041 -0.2035 -0.9327
  835MOL0     C10108  11.310   2.489   6.233  0.1524  0.6257  0.4179
  835MOL0     C10109  11.193   2.519   6.315 -0.3599 -0.0185  0.1525
  835MOL0     C10110  11.054   2.521   6.257 -0.5018  0.7076  0.6633
  835MOL0     C10111  10.953   2.528   6.370  0.3472 -0.0620 -0.0663
  835MOL0     O10112  10.957   2.409   6.451 -0.0913 -0.2499 -0.4748
  835MOL0     C10113  10.856   2.390   6.543 -0.7430 -0.6246  0.5124
  835MOL0     C10114  10.824   2.260   6.575 -0.8812  0.0980 -0.2225
  835MOL0     C10115  10.724   2.243   6.673  0.8307 -0.3494 -0.3549
  835MOL0     C10116  10.657   2.358   6.743 -0.0894  0.4170 -0.0020
  835MOL0     C10117  10.562   2.338   6.854  0.1792  1.1010 -0.0685
  835MOL0     O10118  10.503   2.459   6.890  0.3721 -0.8526  0.9940
  835MOL0     C10119  10.381   2.450   6.950  0.4605 -0.3414  0.6117
  835MOL0     C10120  10.277   2.358   6.922  0.1149  0.1300 -0.2784
  835MOL0     C10121  10.146   2.365   6.974 -0.0550  0.5589  1.0194
  835MOL0     C10122  10.121   2.462   7.068  0.3747 -0.5834 -0.4344
  835MOL0     O10123   9.992   2.488   7.108 -0.1987  0.1308 -0.9074
  835MOL0     C10124   9.924   2.376   7.150  0.6629  0.3560 -0.4443
  835MOL0     C10125   9.816   2.416   7.248  0.4576  0.0386 -0.3920
  835MOL0     C10126   9.747   2.302   7.292 -0.0531 -0.2629 -0.2744
  835MOL0     C10127   9.652   2.337   7.395  0.4915  0.3080 -0.6867
  835MOL0     C10128   9.566   2.215   7.425 -0.6133  1.2002  0.2878
  835MOL0     C10129   9.427   2.244   7.486 -0.7193 -0.3619 -0.3274
  835MOL0     C10130   9.350   2.124   7.515 -1.0539  0.9456  0.4482
  835MOL0     C10131   9.217   2.145   7.569  0.4681  0.1531  0.4565
  835MOL0    Cl10132   9.110   2.187   7.432 -0.2239  0.1408 -0.1434
  835MOL0     C10133  10.223   2.542   7.112 -0.0488 -0.4127 -1.0923
  835MOL0     C10134  10.355   2.543   7.056 -0.1910 -0.3848  0.2032
  835MOL0     O10135  10.524   2.224   6.877 -0.1032 -0.6155 -0.1490
  835MOL0     C10136  10.688   2.486   6.692 -0.5489 -1.1324 -0.8877
  835MOL0     C10137  10.785   2.507   6.590  0.5406 -0.4001  0.0107
  835MOL0     N10138  11.278   2.542   5.975 -0.6227 -0.7908  0.7201
  835MOL0     N10139  11.303   2.644   5.900 -0.7791  0.0005 -0.0723
  835MOL0     C10140  10.588   3.485   6.023  0.7556  0.1083 -0.0293
  835MOL0     C10141  10.489   3.443   6.110 -0.8647  0.3134 -0.3447
  835MOL0     C10142  10.060   3.310   6.149 -0.6782  0.8260  0.2925
  835MOL0     C10143   9.954   3.253   6.092  0.4751  0.0005  0.5820
  835MOL0     C10144   9.844   3.221   6.176 -0.8566  0.2512  0.5667
  835MOL0     C10145   9.847   3.248   6.314  1.6246 -0.2008  0.0073
  835MOL0     O10146   9.731   3.237   6.393  0.1127  0.7686 -0.0395
  835MOL0     C10147   9.595   3.232   6.339 -0.3618  0.2208  0.6037
  835MOL0     C10148   9.498   3.282   6.446  0.4643 -0.0457  0.1159
  835MOL0     C10149   9.357   3.295   6.392  0.2295 -0.0874 -0.8160
  835MOL0     C10150   9.245   3.317   6.503  0.0891 -0.3969  0.4873
  835MOL0     C10151   9.118   3.347   6.440 -0.4187  0.7249  0.8341
  835MOL0     C10152   9.018   3.399   6.390  0.5358 -0.0582  0.1719
  835MOL0     C10153   9.958   3.306   6.372  0.4720 -0.3914  0.2391
  835MOL0     C10154  10.059   3.343   6.286 -0.3554  0.3548  0.0795
  835MOL0     H10155  10.397   3.154   5.952  0.2888  0.5828 -1.7521
  835MOL0     H10156  10.573   3.239   5.790 -2.1421  0.7423 -0.4432
  835MOL0     H10157  10.895   3.419   5.728  0.0891 -2.0366 -0.7231
  835MOL0     H10158  10.790   3.285   5.734  2.7264 -0.9983  0.3580
  835MOL0     H10159  10.848   3.230   5.961 -0.3985 -1.1615 -2.9011
  835MOL0     H10160  10.957   3.378   5.972 -0.7069 -0.4499 -0.5548
  835MOL0     H10161  11.099   3.305   5.807 -1.3454  1.1473  0.1730
  835MOL0     H10162  11.016   3.152   5.791  0.5483 -1.4866  1.0945
  835MOL0     H10163  11.146   3.252   6.043 -0.8406 -2.2018  3.6323
  835MOL0     H10164  11.059   3.105   6.023 -1.4414 -0.2381 -2.7712
  835MOL0     H10165  11.314   3.172   5.859 -1.5698 -0.0772 -1.5884
  835MOL0     H10166  11.214   3.020   5.859 -0.7711 -0.8509  0.9144
  835MOL0     H10167  11.256   2.991   6.110 -0.1176  1.1005  1.3883
  835MOL0     H10168  11.336   3.141   6.100 -3.0199  0.2997  0.0392
  835MOL0     H10169  11.500   3.063   5.933 -1.1821  3.2769  2.4702
  835MOL0     H10170  11.521   2.968   6.084  1.7283  0.0015 -0.6978
  835MOL0     H10171  11.538   2.825   5.891  0.7821  1.6561 -0.4622
  835MOL0     H10172  11.381   2.876   5.831  0.0732 -0.4328  0.7293
  835MOL0     H10173  11.441   2.746   6.170  1.3899 -3.3015  1.3486
  835MOL0     H10174  11.400   2.494   6.294  1.9612  3.9381 -2.1601
  835MOL0     H10175  11.297   2.384   6.202 -0.4384 -0.5303  4.1085
  835MOL0     H10176  11.211   2.614   6.366  0.6550 -0.1120 -0.0078
  835MOL0     H10177  11.193   2.432   6.381  0.5696 -3.7450 -4.2547
  835MOL0     H10178  11.044   2.611   6.196 -2.6577  2.1643  2.9756
  835MOL0     H10179  11.040   2.431   6.197  0.6972 -1.0800  2.8670
  835MOL0     H10180  10.857   2.551   6.324 -0.2933  0.2601  1.3562
  835MOL0     H10181  10.978   2.609   6.440  2.3027 -1.8094  1.4002
  835MOL0     H10182  10.851   2.168   6.525 -2.1739  1.1432 -3.0423
  835MOL0     H10183  10.699   2.141   6.700 -0.2073  0.9403  4.4737
  835MOL0     H10184  10.292   2.293   6.836 -0.5663 -0.1597 -0.1864
  835MOL0     H10185  10.068   2.295   6.944 -1.1499  1.9431  0.5473
  835MOL0     H10186   9.991   2.299   7.190  1.1344  1.0121  0.0564
  835MOL0     H10187   9.878   2.323   7.067  0.4362 -0.1331 -0.0171
  835MOL0     H10188   9.749   2.487   7.199 -0.7422 -2.3881 -2.4908
  835MOL0     H10189   9.869   2.458   7.334  1.6935  1.4346 -1.7602
  835MOL0     H10190   9.818   2.232   7.338  2.3796  2.2551  0.0898
  835MOL0     H10191   9.695   2.258   7.207 -0.1522 -1.1208  0.2191
  835MOL0     H10192   9.692   2.391   7.481 -2.8387  3.0041 -0.6535
  835MOL0     H10193   9.583   2.405   7.346  0.5881 -1.1469 -2.9729
  835MOL0     H10194   9.614   2.141   7.490 -1.4794 -0.6941 -1.1161
  835MOL0     H10195   9.528   2.159   7.339 -1.6321 -0.0683  1.5213
  835MOL0     H10196   9.361   2.308   7.425 -1.6352 -1.0361 -0.0704
  835MOL0     H10197   9.437   2.300   7.579 -2.2277  1.1046 -0.9832
  835MOL0     H10198   9.343   2.068   7.421 -1.3916  0.4872  0.7370
  835MOL0     H10199   9.402   2.057   7.585 -1.0736  1.5830  1.0834
  835MOL0     H10200   9.224   2.222   7.646  0.8278  1.4605 -0.8310
  835MOL0     H10201   9.184   2.052   7.616  2.8070 -1.1833 -0.4000
  835MOL0     H10202  10.193   2.608   7.194  1.3218 -1.1277  0.0329
  835MOL0     H10203  10.430   2.616   7.083  0.3744 -0.9963  0.3125
  835MOL0     H10204  10.637   2.573   6.732 -0.1928 -0.8231 -1.0954
  835MOL0     H10205  10.805   2.607   6.553 -2.2493  0.1273 -0.3203
  835MOL0     H10206  10.644   3.575   6.045 -0.2114  1.0380 -1.1992
  835MOL0     H10207  10.461   3.504   6.195 -0.7923  0.7162 -0.6066
  835MOL0     H10208   9.942   3.249   5.984 -0.5843 -3.0670  0.7340
  835MOL0     H10209   9.761   3.188   6.115 -1.1542  0.4795  0.8446
  835MOL0     H10210   9.560   3.140   6.292 -0.6016 -0.0553  1.3050
  835MOL0     H10211   9.588   3.308   6.260  0.0287 -1.6669 -1.3390
  835MOL0     H10212   9.508   3.200   6.518 -1.7569 -2.3574 -1.9728
  835MOL0     H10213   9.538   3.378   6.480  1.5424 -1.0452  1.8357
  835MOL0     H10214   9.326   3.205   6.338  2.4435 -0.4749 -1.5107
  835MOL0     H10215   9.365   3.378   6.321  2.5626 -0.6880 -1.3199
  835MOL0     H10216   9.255   3.224   6.561  1.3691  0.0269  0.9699
  835MOL0     H10217   9.278   3.408   6.553  0.3171  1.5319 -2.9138
  835MOL0     H10218   8.930   3.434   6.339  1.5079  2.1010 -0.1371
  835MOL0     H10219   9.956   3.337   6.476  1.8029 -2.9889  1.1295
  835MOL0     H10220  10.143   3.387   6.340  0.4134 -1.8499  0.8054
  836MOL0     O10221   0.818   2.664   1.282  0.5923 -0.1701 -0.4651
  836MOL0     C10222   0.914   2.592   1.310  1.2800  0.0223  0.0198
  836MOL0     O10223   1.043   2.619   1.279 -0.3478  1.0209 -0.2096
  836MOL0     C10224   1.073   2.741   1.221  0.3587  0.5607 -0.5799
  836MOL0     C10225   1.141   2.751   1.109 -1.7435  0.4183  0.7378
  836MOL0     C10226   1.180   2.870   1.049  0.0838 -0.0876  0.0274
  836MOL0     C10227   1.136   2.988   1.102  0.9242  0.6037  0.1530
  836MOL0     O10228   1.164   3.105   1.037  0.2139  0.2631 -0.4076
  836MOL0     C10229   1.085   3.124   0.917 -0.5165  0.4089  0.9497
  836MOL0     C10230   1.094   3.270   0.872 -0.1833  0.5540 -0.2321
  836MOL0     C10231   1.210   3.289   0.785 -0.5028  0.0162 -0.0027
  836MOL0     C10232   1.348   3.313   0.865 -0.9078  0.8715 -0.2951
  836MOL0     C10233   1.480   3.298   0.790  0.4538  0.2701 -0.8025
  836MOL0     C10234   1.503   3.145   0.780  0.2222  1.1919  0.4461
  836MOL0     C10235   1.643   3.103   0.749 -0.6189  0.0129 -0.6700
  836MOL0     C10236   1.658   2.950   0.713  0.3361 -0.7211  0.1685
  836MOL0     N10237   1.603   2.862   0.818  0.1030 -0.5185  0.3745
  836MOL0     C10238   1.674   2.829   0.935  0.7014 -0.8748 -0.6480
  836MOL0     C10239   1.605   2.726   0.992  0.1181  0.0130 -0.0594
  836MOL0     C10240   1.631   2.664   1.124 -0.0362 -0.2031 -0.8268
  836MOL0     C10241   1.508   2.597   1.182  0.4227  0.0907 -0.4499
  836MOL0     C10242   1.535   2.512   1.309  0.3231 -0.0224  0.0985
  836MOL0     C10243   1.413   2.420   1.319  0.3295 -1.2141  1.1523
  836MOL0     O10244   1.412   2.362   1.451 -0.5273 -0.2841  0.6545
  836MOL0     C10245   1.337   2.414   1.548 -0.0975 -0.4048 -0.4014
  836MOL0     C10246   1.292   2.545   1.545  0.2582 -0.1309  0.1629
  836MOL0     C10247   1.194   2.592   1.638 -0.1527  0.4599 -0.5221
  836MOL0     C10248   1.139   2.495   1.743 -0.9595 -0.0914  1.0480
  836MOL0     C10249   1.030   2.531   1.833  0.9022 -0.1232  0.0882
  836MOL0     O10250   0.941   2.428   1.856  0.7627  0.0773 -0.0098
  836MOL0     C10251   0.847   2.459   1.946  0.3586 -0.1655  1.1305
  836MOL0     C10252   0.891   2.424   2.076 -0.4047  0.4441 -0.1585
  836MOL0     C10253   0.814   2.448   2.187 -0.3323 -0.4289  0.0012
  836MOL0     C10254   0.691   2.503   2.169 -0.2018  0.6029  0.1583
  836MOL0     O10255   0.616   2.519   2.283  0.7282  0.4397  0.2674
  836MOL0     C10256   0.528   2.632   2.291 -0.0511  0.0851 -0.5117
  836MOL0     C10257   0.574   2.743   2.397  1.1204 -0.1563  0.9208
  836MOL0     C10258   0.727   2.765   2.413  0.2027 -0.0103  0.1087
  836MOL0     C10259   0.761   2.911   2.452 -0.0302  0.1133 -1.0065
  836MOL0     C10260   0.751   3.005   2.333 -0.7431 -0.8980 -0.0342
  836MOL0     C10261   0.816   2.969   2.196  0.5724  0.0448  0.4423
  836MOL0     C10262   0.810   3.078   2.099  0.3981 -0.7768 -0.5426
  836MOL0     C10263   0.669   3.137   2.063  0.8062  0.0720  0.1169
  836MOL0    Cl10264   0.571   3.020   1.954 -0.0715  0.4154  0.1308
  836MOL0     C10265   0.639   2.521   2.039  0.0109 -0.3526 -0.9105
  836MOL0     C10266   0.721   2.503   1.927 -0.4218 -0.9233  0.7896
  836MOL0     O10267   1.009   2.650   1.845  0.2748  0.4756 -0.0779
  836MOL0     C10268   1.182   2.367   1.733 -0.1189 -0.3211  0.0597
  836MOL0     C10269   1.286   2.329   1.649 -0.3938 -1.0521 -0.4647
  836MOL0     N10270   1.490   2.699   0.911 -0.6763 -0.2544  0.4024
  836MOL0     N10271   1.496   2.773   0.802 -0.8080  0.2118  0.0620
  836MOL0     C10272   1.063   2.982   1.224  0.4448  0.4039  0.1486
  836MOL0     C10273   1.032   2.855   1.282 -0.6713 -0.8269 -0.9533
  836MOL0     C10274   0.885   2.461   1.367 -0.0858 -0.2109  0.2253
  836MOL0     C10275   0.988   2.365   1.375 -0.8918  0.4437  0.4850
  836MOL0     C10276   0.973   2.255   1.454 -0.9149  0.7654 -0.4796
  836MOL0     C10277   0.850   2.232   1.523  0.1905 -0.4823 -0.2381
  836MOL0     O10278   0.849   2.113   1.588 -0.7624  0.2316  0.7256
  836MOL0     C10279   0.722   2.046   1.619  0.5128 -0.1194 -0.0401
  836MOL0     C10280   0.712   2.051   1.765 -0.5844 -0.2315 -0.3020
  836MOL0     C10281   0.574   1.986   1.825  0.0382  0.4083  0.2957
  836MOL0     C10282   0.597   1.923   1.948  0.1979 -0.4552 -0.1558
  836MOL0     C10283   0.617   2.032   2.050  0.3954  0.2449  1.1961
  836MOL0     C10284   0.605   2.128   2.117 -0.1754 -1.1055  0.0107
  836MOL0     C10285   0.751   2.325   1.518 -0.6904 -0.0708  0.3944
  836MOL0     C10286   0.766   2.442   1.441 -0.1685 -0.2213  0.0620
  836MOL0     H10287   1.194   2.668   1.064 -1.9234  1.1510 -0.9046
  836MOL0     H10288   1.246   2.873   0.962 -1.5106 -1.0884 -1.2900
  836MOL0     H10289   0.979   3.103   0.935 -0.8411  0.0509 -1.0657
  836MOL0     H10290   1.119   3.064   0.832  6.2660  1.2724  2.4538
  836MOL0     H10291   1.097   3.341   0.955  0.9572  0.0996  0.1392
  836MOL0     H10292   1.002   3.293   0.818 -0.2405  4.7299  1.2757
  836MOL0     H10293   1.210   3.375   0.718  0.6094  0.5018  0.5776
  836MOL0     H10294   1.222   3.202   0.720  2.6993  1.5705 -1.7597
  836MOL0     H10295   1.353   3.417   0.899 -1.0452  0.5233  0.8406
  836MOL0     H10296   1.358   3.255   0.958 -0.3172 -2.1038 -2.0778
  836MOL0     H10297   1.567   3.330   0.848  2.0963 -0.6937 -2.6026
  836MOL0     H10298   1.469   3.343   0.691 -0.3679  1.1076 -0.3453
  836MOL0     H10299   1.433   3.102   0.707  3.0194 -0.2442 -1.5927
  836MOL0     H10300   1.473   3.100   0.875 -1.5069 -0.5562 -0.8431
  836MOL0     H10301   1.678   3.170   0.670  0.7425  1.0539  0.7441
  836MOL0     H10302   1.701   3.119   0.840 -0.1712 -0.2682 -0.9005
  836MOL0     H10303   1.763   2.924   0.699  0.6057  0.7110 -0.7749
  836MOL0     H10304   1.599   2.933   0.623 -0.4234  0.5772  0.3863
  836MOL0     H10305   1.758   2.881   0.979 -0.9912  0.6983  0.9566
  836MOL0     H10306   1.663   2.728   1.207 -1.0198 -0.9905  0.2052
  836MOL0     H10307   1.702   2.583   1.107  2.6434  1.6867  0.6276
  836MOL0     H10308   1.469   2.528   1.105 -0.7970 -1.2249  1.2676
  836MOL0     H10309   1.425   2.666   1.201  3.3347  2.7081  4.8876
  836MOL0     H10310   1.632   2.462   1.301  0.7930  1.0404 -1.1832
  836MOL0     H10311   1.534   2.575   1.398 -0.5379  0.5062 -0.2768
  836MOL0     H10312   1.433   2.341   1.246  3.0029  0.8681 -0.5958
  836MOL0     H10313   1.319   2.471   1.295  0.8567 -0.3473  0.8775
  836MOL0     H10314   1.326   2.622   1.476  1.4752  0.9714  1.8991
  836MOL0     H10315   1.162   2.695   1.646 -1.9431  0.0505 -1.6897
  836MOL0     H10316   0.989   2.383   2.095 -0.9258 -1.0766 -0.6310
  836MOL0     H10317   0.858   2.420   2.281 -1.5244 -4.7485 -0.5257
  836MOL0     H10318   0.425   2.608   2.318 -0.8955 -0.0571 -3.4254
  836MOL0     H10319   0.511   2.688   2.198  2.7339 -1.3451 -1.9937
  836MOL0     H10320   0.531   2.714   2.494  0.8058  2.6064  1.6797
  836MOL0     H10321   0.521   2.834   2.367 -1.4637 -1.1591  2.0886
  836MOL0     H10322   0.796   2.735   2.334 -0.3199 -1.1739  0.0683
  836MOL0     H10323   0.755   2.689   2.487  1.7829 -2.7461 -3.0523
  836MOL0     H10324   0.697   2.954   2.530 -0.1170  1.5993 -1.8623
  836MOL0     H10325   0.864   2.926   2.485  0.3026  2.6866 -2.8191
  836MOL0     H10326   0.794   3.100   2.366  1.6204 -0.7959 -2.9253
  836MOL0     H10327   0.645   3.024   2.315  0.3239  4.7708 -2.4396
  836MOL0     H10328   0.759   2.883   2.159  1.9521 -1.5554  1.8528
  836MOL0     H10329   0.922   2.947   2.210  0.3143 -0.2187  2.2105
  836MOL0     H10330   0.864   3.160   2.147 -0.9893 -0.6683  0.9071
  836MOL0     H10331   0.858   3.051   2.004 -1.1213  0.0977 -1.6058
  836MOL0     H10332   0.686   3.229   2.006  2.5766  0.3730  1.0666
  836MOL0     H10333   0.614   3.169   2.152  0.4365  2.3665 -0.8486
  836MOL0     H10334   0.532   2.537   2.029 -0.1681 -0.3077  0.8327
  836MOL0     H10335   0.685   2.539   1.831  0.9149 -3.6791 -0.8872
  836MOL0     H10336   1.131   2.296   1.797  0.6506 -0.9800 -0.0346
  836MOL0     H10337   1.324   2.227   1.657  0.5182 -0.5825  2.5431
  836MOL0     H10338   1.027   3.077   1.261 -2.9279 -1.3617  1.8809
  836MOL0     H10339   0.977   2.850   1.375  0.3791  1.8898 -0.0936
  836MOL0     H10340   1.084   2.373   1.326 -0.8310 -0.0783  0.5192
  836MOL0     H10341   1.064   2.197   1.468 -0.6657  1.1129 -0.6747
  836MOL0     H10342   0.722   1.940   1.592 -0.6566 -0.6540  1.8975
  836MOL0     H10343   0.632   2.087   1.572 -1.2345 -2.8150  0.7842
  836MOL0     H10344   0.786   1.991   1.819  0.1398 -0.0038 -1.0342
  836MOL0     H10345   0.726   2.156   1.789 -0.4008 -0.2353 -0.3958
  836MOL0     H10346   0.537   1.912   1.753  1.2245 -0.3762  0.4563
  836MOL0     H10347   0.495   2.061   1.831 -0.5281 -0.3157  2.9693
  836MOL0     H10348   0.511   1.863   1.978 -1.2610  2.2487  1.5549
  836MOL0     H10349   0.676   1.848   1.938 -0.1850 -0.6160 -2.4091
  836MOL0     H10350   0.573   2.213   2.174 -1.2324 -1.1932 -0.4409
  836MOL0     H10351   0.664   2.292   1.574  0.5703 -3.4973  0.5987
  836MOL0     H10352   0.679   2.506   1.430 -0.4907 -0.7958 -0.7926
  837MOL0     O10353   4.121   5.950   1.362  0.1066  0.8802 -0.7637
  837MOL0     C10354   4.128   6.069   1.400  1.2390  0.3516 -0.1989
  837MOL0     O10355   4.021   6.146   1.449  0.0508  0.2153  1.3345
  837MOL0     C10356   3.904   6.068   1.468 -1.0723 -0.4743  0.0255
  837MOL0     C10357   3.817   6.036   1.369 -0.2896 -0.3236  0.3600
  837MOL0     C10358   3.691   5.984   1.395  0.0452 -0.5302  0.2894
  837MOL0     C10359   3.639   5.964   1.521 -0.0981  0.3690  0.1606
  837MOL0     O10360   3.512   5.919   1.519 -0.5152  0.1524 -0.0664
  837MOL0     C10361   3.486   5.835   1.633 -0.4113  0.2525  0.3492
  837MOL0     C10362   3.348   5.764   1.641 -0.5842  0.2940 -0.6086
  837MOL0     C10363   3.238   5.872   1.669 -0.2085  0.0076 -0.7726
  837MOL0     C10364   3.113   5.804   1.731 -0.5588 -0.8472  0.0764
  837MOL0     C10365   3.005   5.909   1.755 -0.3064 -0.4836 -0.9207
  837MOL0     C10366   2.873   5.850   1.741  0.5693  0.3412 -0.3914
  837MOL0     C10367   2.837   5.820   1.589 -0.3627 -0.0262 -1.0549
  837MOL0     C10368   2.683   5.804   1.568 -0.0588 -0.0392  0.3029
  837MOL0     N10369   2.640   5.819   1.429 -0.5283 -0.2534 -0.1051
  837MOL0     C10370   2.569   5.923   1.369  0.2346  0.2430  0.7532
  837MOL0     C10371   2.550   5.878   1.237 -1.2319 -1.1006 -0.4729
  837MOL0     C10372   2.487   5.966   1.133 -0.8557 -0.3863  0.3164
  837MOL0     C10373   2.343   5.985   1.163 -0.2889  0.3914  0.3735
  837MOL0     C10374   2.278   6.073   1.052 -0.9745  0.2195 -0.6475
  837MOL0     C10375   2.228   5.981   0.943 -0.7029  0.1554  0.3792
  837MOL0     O10376   2.223   6.044   0.817  0.4022 -0.4944  0.7196
  837MOL0     C10377   2.094   6.038   0.761 -0.8902 -0.5553 -0.1164
  837MOL0     C10378   2.059   5.930   0.676 -1.0276  0.1958  0.4871
  837MOL0     C10379   1.941   5.927   0.600 -0.0797 -0.2679  0.1239
  837MOL0     C10380   1.847   6.029   0.631 -0.1614  0.2036  0.1916
  837MOL0     C10381   1.705   6.023   0.586 -1.0544 -0.3485  0.3170
  837MOL0     O10382   1.623   6.108   0.651 -0.3065  0.2567  0.6124
  837MOL0     C10383   1.488   6.109   0.619 -0.2627  0.0956  0.7163
  837MOL0     C10384   1.427   6.160   0.507 -0.8117  0.2570 -0.6417
  837MOL0     C10385   1.294   6.139   0.486  0.6210  0.0568  0.4066
  837MOL0     C10386   1.220   6.064   0.575 -0.5647 -0.4167 -0.2970
  837MOL0     O10387   1.085   6.034   0.566 -1.0981  0.1558  0.4428
  837MOL0     C10388   1.001   6.133   0.503 -0.2453 -0.4075  0.3687
  837MOL0     C10389   0.869   6.070   0.476 -0.4134  0.6011  0.7715
  837MOL0     C10390   0.794   6.012   0.599 -0.6318  0.6254 -0.4297
  837MOL0     C10391   0.649   5.962   0.574 -0.9417 -0.3998 -0.5944
  837MOL0     C10392   0.556   6.079   0.547 -1.3113  0.9084 -0.0665
  837MOL0     C10393   0.413   6.034   0.512 -0.7561 -0.4781  0.5911
  837MOL0     C10394   0.342   5.991   0.644  0.0174 -0.4179  0.1132
  837MOL0     C10395   0.190   5.952   0.622 -1.2219  0.4130  0.5037
  837MOL0    Cl10396   0.187   5.810   0.506  0.3098  0.1067  0.3205
  837MOL0     C10397   1.283   6.008   0.692 -0.9553 -0.0206  0.5446
  837MOL0     C10398   1.415   6.041   0.710 -0.4325  1.1867 -0.2807
  837MOL0     O10399   1.670   5.943   0.500  1.0024  0.2772 -0.0948
  837MOL0     C10400   1.880   6.132   0.726  0.1607  0.3514 -1.4001
  837MOL0     C10401   2.002   6.133   0.785 -0.5016 -0.3192  1.1089
  837MOL0     N10402   2.598   5.756   1.227 -0.0613 -0.3419 -0.0599
  837MOL0     N10403   2.653   5.719   1.336 -0.7695 -0.9044 -0.4651
  837MOL0     C10404   3.715   6.009   1.624 -0.1494 -0.3860 -0.9553
  837MOL0     C10405   3.856   6.054   1.598  0.5611  0.2800  0.5550
  837MOL0     C10406   4.267   6.128   1.390 -0.0425  0.5161 -0.3283
  837MOL0     C10407   4.381   6.057   1.337 -0.8738 -0.9368  0.2616
  837MOL0     C10408   4.508   6.115   1.323  0.2344  0.1911  0.5607
  837MOL0     C10409   4.520   6.244   1.368 -0.0344  0.8026  0.6729
  837MOL0     O10410   4.633   6.300   1.316 -0.2553  0.0289  0.1324
  837MOL0     C10411   4.643   6.449   1.321  0.1973 -0.8984  0.2659
  837MOL0     C10412   4.784   6.489   1.294 -0.1927  1.1768 -0.5772
  837MOL0     C10413   4.820   6.457   1.146  0.6788 -0.2339 -0.1661
  837MOL0     C10414   4.964   6.491   1.098 -0.1335 -0.0253 -0.9133
  837MOL0     C10415   4.988   6.635   1.116  0.3208  0.2143  0.8616
  837MOL0     C10416   5.025   6.747   1.153 -0.1349 -0.3376  0.7858
  837MOL0     C10417   4.420   6.318   1.439 -0.5279  0.3892 -0.6888
  837MOL0     C10418   4.293   6.259   1.450 -0.0256  0.3373 -0.3130
  837MOL0     H10419   3.840   6.061   1.266 -2.0059  2.5164  0.5542
  837MOL0     H10420   3.634   5.951   1.308  1.8801  0.2501 -1.2911
  837MOL0     H10421   3.493   5.905   1.717 -2.9602  0.8415  0.1413
  837MOL0     H10422   3.563   5.757   1.631  0.9984  1.5651 -2.0638
  837MOL0     H10423   3.350   5.687   1.718 -0.1702  1.8126  0.9509
  837MOL0     H10424   3.313   5.723   1.545 -0.5256  1.2302 -1.0344
  837MOL0     H10425   3.209   5.914   1.572  1.2076  0.5065 -0.9960
  837MOL0     H10426   3.276   5.946   1.740  6.1974 -2.2830 -1.1968
  837MOL0     H10427   3.076   5.729   1.661  0.9624 -2.1642  0.6156
  837MOL0     H10428   3.135   5.755   1.826 -1.0193  1.3769  1.4209
  837MOL0     H10429   3.013   5.993   1.685 -0.7677  0.6844  0.3594
  837MOL0     H10430   3.003   5.952   1.856 -0.3528 -1.0255 -0.6877
  837MOL0     H10431   2.789   5.908   1.782 -1.2871 -1.4084 -1.5315
  837MOL0     H10432   2.867   5.761   1.803  0.1883 -0.1344 -1.0989
  837MOL0     H10433   2.872   5.906   1.532  1.0925  0.2091  0.1241
  837MOL0     H10434   2.875   5.725   1.548 -0.0853 -2.0517  3.2940
  837MOL0     H10435   2.636   5.887   1.621 -1.2052 -0.1604 -0.4866
  837MOL0     H10436   2.647   5.712   1.613 -0.4172  1.0222  2.3319
  837MOL0     H10437   2.554   6.024   1.405  0.1527  0.8121 -0.7746
  837MOL0     H10438   2.494   5.928   1.030 -3.3968  2.8887 -1.2518
  837MOL0     H10439   2.535   6.064   1.137 -1.9693  0.7617 -5.2467
  837MOL0     H10440   2.346   6.034   1.261 -0.4018 -0.7705  0.9692
  837MOL0     H10441   2.300   5.886   1.177  4.7680 -1.9806  1.4653
  837MOL0     H10442   2.188   6.120   1.093 -1.0125 -0.2095 -0.2329
  837MOL0     H10443   2.343   6.149   1.007  0.6834 -2.5140 -3.2285
  837MOL0     H10444   2.128   5.948   0.974 -1.6401 -0.3602 -2.8706
  837MOL0     H10445   2.294   5.894   0.941 -2.1705 -1.0076 -1.6762
  837MOL0     H10446   2.136   5.855   0.659 -2.1021 -0.7399 -0.3641
  837MOL0     H10447   1.930   5.851   0.523  1.6614 -1.1813  0.7231
  837MOL0     H10448   1.494   6.217   0.443  0.3830 -0.4299 -0.0392
  837MOL0     H10449   1.267   6.189   0.394  0.3992  0.5236  0.7247
  837MOL0     H10450   1.041   6.181   0.413 -1.4255 -0.2927 -0.1146
  837MOL0     H10451   0.994   6.221   0.569 -0.8170  1.0936 -1.5887
  837MOL0     H10452   0.885   5.994   0.399  1.4725  0.0034  1.6942
  837MOL0     H10453   0.808   6.148   0.430  0.9226  0.3421 -1.5590
  837MOL0     H10454   0.800   6.084   0.682  1.6082 -1.6968  1.5899
  837MOL0     H10455   0.844   5.929   0.649  0.6703  1.8528  0.3765
  837MOL0     H10456   0.654   5.886   0.496 -0.3410 -0.3219 -0.6352
  837MOL0     H10457   0.619   5.907   0.665 -3.2878 -0.1208 -1.1404
  837MOL0     H10458   0.598   6.135   0.462 -1.3151  3.1598  1.3272
  837MOL0     H10459   0.555   6.150   0.631  2.7093  2.4529 -1.1050
  837MOL0     H10460   0.408   5.972   0.422  1.2703  1.8886 -1.3072
  837MOL0     H10461   0.392   6.138   0.484 -0.4113 -0.5040  0.2222
  837MOL0     H10462   0.404   5.909   0.681  0.0561 -2.1627 -3.3718
  837MOL0     H10463   0.335   6.065   0.725 -2.9999  0.0486 -0.4572
  837MOL0     H10464   0.149   6.043   0.577 -0.6565  0.6125  0.3811
  837MOL0     H10465   0.137   5.955   0.718 -1.1337  0.8395  0.5418
  837MOL0     H10466   1.228   5.943   0.760 -2.4634  0.1279 -0.4807
  837MOL0     H10467   1.476   6.012   0.795  0.2322  1.7765 -0.5350
  837MOL0     H10468   1.806   6.203   0.760  1.3043  0.0305  2.0598
  837MOL0     H10469   2.017   6.213   0.857 -0.0217 -0.7212  1.4641
  837MOL0     H10470   3.688   6.007   1.729  0.8055 -4.5001 -0.6248
  837MOL0     H10471   3.912   6.069   1.690 -1.6624 -0.3529  2.0876
  837MOL0     H10472   4.374   5.961   1.286 -3.0801  0.8812 -3.1696
  837MOL0     H10473   4.587   6.068   1.266 -3.2728 -2.7872 -2.4349
  837MOL0     H10474   4.608   6.484   1.418 -4.5186 -1.6680 -0.8789
  837MOL0     H10475   4.585   6.500   1.243 -0.9907 -5.6049 -2.3580
  837MOL0     H10476   4.792   6.596   1.314  0.2887  1.1361 -0.5555
  837MOL0     H10477   4.843   6.431   1.366 -0.4182  2.7247  0.9143
  837MOL0     H10478   4.757   6.513   1.075  0.9090 -3.2000 -2.8911
  837MOL0     H10479   4.806   6.351   1.126  1.1784 -0.0651 -1.5128
  837MOL0     H10480   5.030   6.435   1.165 -2.7015  0.6542  2.4399
  837MOL0     H10481   4.995   6.453   1.001  2.7371  0.8021 -0.4323
  837MOL0     H10482   5.040   6.839   1.205 -1.8367  0.9060 -0.8245
  837MOL0     H10483   4.434   6.420   1.472  1.4453 -0.1015  0.1275
  837MOL0     H10484   4.221   6.322   1.502 -1.2490 -0.6358 -0.7683
  838MOL0     O10485   8.518   3.522   3.928  0.0808  0.7325  0.1522
  838MOL0     C10486   8.567   3.416   3.970  0.1170  0.6185 -0.0190
  838MOL0     O10487   8.510   3.312   4.027 -0.3229 -0.5930  0.3935
  838MOL0     C10488   8.379   3.314   4.063  0.5495 -0.0488 -0.5998
  838MOL0     C10489   8.323   3.427   4.122  0.4394 -0.4619  0.0364
  838MOL0     C10490   8.188   3.430   4.150 -0.2282  0.6589 -0.6752
  838MOL0     C10491   8.106   3.320   4.127  1.1259 -0.8867 -0.0415
  838MOL0     O10492   7.974   3.313   4.170  0.0164 -0.5491 -0.4586
  838MOL0     C10493   7.890   3.392   4.100 -0.0236 -0.1977  0.5866
  838MOL0     C10494   7.739   3.377   4.151  0.0274  0.1284 -0.0721
  838MOL0     C10495   7.671   3.239   4.142 -0.1879  0.5809 -0.1357
  838MOL0     C10496   7.640   3.196   4.001  0.8229 -0.7749 -0.2295
  838MOL0     C10497   7.597   3.051   3.988  0.4517  0.7980 -0.5861
  838MOL0     C10498   7.455   3.040   4.034 -0.3527 -0.6018 -0.1424
  838MOL0     C10499   7.384   2.910   4.005  0.5126  0.5636 -0.0801
  838MOL0     C10500   7.233   2.908   4.047  0.2990  0.7494 -0.3819
  838MOL0     N10501   7.144   2.828   3.962  0.4159 -0.2839  0.0461
  838MOL0     C10502   7.169   2.698   3.920  0.0492  0.3305  0.1840
  838MOL0     C10503   7.056   2.664   3.859  0.9255 -0.2174 -0.0236
  838MOL0     C10504   7.043   2.533   3.769 -0.1727 -0.9422  0.0917
  838MOL0     C10505   7.105   2.549   3.625  0.2284 -0.0510 -1.1042
  838MOL0     C10506   7.073   2.679   3.554 -0.6823  1.1813 -0.8660
  838MOL0     C10507   6.936   2.718   3.514  0.1920 -0.4663 -0.6879
  838MOL0     O10508   6.870   2.628   3.431  0.0619 -0.4862 -0.4654
  838MOL0     C10509   6.744   2.576   3.466  0.3006  0.0309 -0.9917
  838MOL0     C10510   6.672   2.512   3.363  0.7496 -0.8332 -0.0576
  838MOL0     C10511   6.545   2.460   3.377 -0.0839 -0.1372  0.2783
  838MOL0     C10512   6.486   2.458   3.507 -0.1464 -0.6524  0.5725
  838MOL0     C10513   6.353   2.396   3.533  1.2092  0.5666 -0.2265
  838MOL0     O10514   6.284   2.350   3.420 -0.8936  0.1120 -0.0784
  838MOL0     C10515   6.159   2.300   3.415  0.4476  0.1115 -0.2038
  838MOL0     C10516   6.073   2.269   3.525  0.7922 -0.2398  0.2448
  838MOL0     C10517   5.952   2.213   3.506 -0.3952 -0.3192  0.7213
  838MOL0     C10518   5.905   2.192   3.377 -0.2519 -1.1009  0.2375
  838MOL0     O10519   5.778   2.154   3.356 -0.6620  0.8094 -0.2380
  838MOL0     C10520   5.687   2.141   3.471 -0.2461 -0.2106 -0.3518
  838MOL0     C10521   5.555   2.088   3.415 -0.0665  0.0960  0.1272
  838MOL0     C10522   5.476   2.189   3.334 -0.3566 -0.5930  0.0506
  838MOL0     C10523   5.359   2.124   3.247  0.4150  0.1278 -1.1917
  838MOL0     C10524   5.251   2.077   3.342  0.3929  0.4199 -0.6802
  838MOL0     C10525   5.153   1.975   3.282 -0.2387  0.5108  0.2580
  838MOL0     C10526   5.077   2.033   3.164  0.4568 -0.7035 -0.1561
  838MOL0     C10527   4.933   1.967   3.138  0.4346 -0.3221 -0.8120
  838MOL0    Cl10528   4.945   1.794   3.124  0.7348  0.4632  0.2998
  838MOL0     C10529   5.995   2.216   3.268  0.3298 -0.3486 -0.0103
  838MOL0     C10530   6.118   2.281   3.284 -0.2612 -0.1099 -0.0192
  838MOL0     O10531   6.315   2.380   3.644  0.1821  0.1207 -0.2517
  838MOL0     C10532   6.562   2.508   3.612  0.3840  0.4400  0.4464
  838MOL0     C10533   6.687   2.559   3.592 -0.0323 -0.3827  0.1103
  838MOL0     N10534   6.961   2.757   3.870 -0.2733  0.2406  1.0033
  838MOL0     N10535   7.011   2.858   3.934 -0.5482  0.0175  0.0273
  838MOL0     C10536   8.162   3.208   4.074  0.7574  0.8444 -0.2547
  838MOL0     C10537   8.297   3.202   4.044 -0.7828  0.1084  0.2407
  838MOL0     C10538   8.715   3.410   3.972 -0.2486 -0.6266  0.0357
  838MOL0     C10539   8.776   3.287   3.973  0.4017 -0.0066 -0.9721
  838MOL0     C10540   8.915   3.282   3.963 -0.2956 -0.5938  0.0982
  838MOL0     C10541   8.991   3.399   3.970 -0.0515  0.4013  0.6355
  838MOL0     O10542   9.135   3.380   3.962  0.3523  0.0463  0.6974
  838MOL0     C10543   9.214   3.492   3.903 -0.0126 -0.2944 -0.7844
  838MOL0     C10544   9.343   3.436   3.843  0.0673  0.3644  0.8748
  838MOL0     C10545   9.334   3.385   3.691 -0.5629 -0.4143  1.2256
  838MOL0     C10546   9.231   3.283   3.653  0.8120  0.3382 -0.5906
  838MOL0     C10547   9.217   3.287   3.502  0.9547  0.6749  0.2336
  838MOL0     C10548   9.235   3.309   3.382 -0.7607 -0.1442  0.0660
  838MOL0     C10549   8.931   3.526   3.967 -0.0138 -0.7849 -0.2529
  838MOL0     C10550   8.792   3.524   3.974 -0.4099  0.8673 -0.6152
  838MOL0     H10551   8.388   3.511   4.142  1.5684 -0.5696 -2.7007
  838MOL0     H10552   8.148   3.520   4.196  0.8488  1.1282 -0.6384
  838MOL0     H10553   7.906   3.357   3.997  2.0054 -1.2116  1.1967
  838MOL0     H10554   7.929   3.493   4.106  0.3482 -0.3332  0.4642
  838MOL0     H10555   7.684   3.448   4.088  0.0173 -1.0591 -1.4347
  838MOL0     H10556   7.721   3.418   4.251 -0.9256 -0.8771  0.1879
  838MOL0     H10557   7.578   3.249   4.199  1.0496  0.4745  1.9881
  838MOL0     H10558   7.734   3.162   4.188 -0.3975 -0.5046 -1.5908
  838MOL0     H10559   7.565   3.265   3.961 -0.7002 -1.6458  0.9900
  838MOL0     H10560   7.737   3.207   3.951  1.4885  0.6603  1.2604
  838MOL0     H10561   7.667   2.991   4.046 -3.3827 -0.6187  3.1419
  838MOL0     H10562   7.599   3.026   3.882  1.2305  2.9946 -1.1479
  838MOL0     H10563   7.392   3.120   3.995  1.1337  0.9118  0.4235
  838MOL0     H10564   7.463   3.041   4.143  0.8921 -4.3814 -0.0472
  838MOL0     H10565   7.388   2.903   3.896 -0.6806  0.4153 -0.1361
  838MOL0     H10566   7.440   2.823   4.040  0.0658 -0.0567 -0.8634
  838MOL0     H10567   7.194   3.010   4.041  0.3587  1.0523  2.6197
  838MOL0     H10568   7.227   2.891   4.155 -0.7711  0.6565 -0.4433
  838MOL0     H10569   7.265   2.649   3.926 -0.0580  0.2538  1.6438
  838MOL0     H10570   6.941   2.493   3.759 -0.7302  0.4457 -0.0479
  838MOL0     H10571   7.107   2.461   3.821  0.0509 -0.0788  1.0479
  838MOL0     H10572   7.072   2.466   3.562  1.0330 -0.4466 -1.0050
  838MOL0     H10573   7.212   2.538   3.642  0.7029  3.7391 -0.7804
  838MOL0     H10574   7.123   2.761   3.606  1.0517  0.0106 -0.5750
  838MOL0     H10575   7.126   2.664   3.460  4.4913 -0.4263  1.8836
  838MOL0     H10576   6.946   2.816   3.465  1.7516  0.8660  2.0952
  838MOL0     H10577   6.882   2.729   3.608  0.1772 -1.6924 -0.5383
  838MOL0     H10578   6.716   2.526   3.265  6.2519  4.1700  2.5212
  838MOL0     H10579   6.489   2.421   3.293  0.5708 -0.9183  0.1883
  838MOL0     H10580   6.104   2.294   3.626  1.9760  1.8384 -0.5703
  838MOL0     H10581   5.887   2.197   3.591 -0.9682 -2.9340 -0.0862
  838MOL0     H10582   5.676   2.242   3.511  2.6872  0.7547 -1.6937
  838MOL0     H10583   5.730   2.066   3.538  0.9895  0.9739  0.2234
  838MOL0     H10584   5.494   2.060   3.502  0.8923 -1.0281  0.4628
  838MOL0     H10585   5.567   2.004   3.345  0.2125  1.1963 -1.1844
  838MOL0     H10586   5.546   2.242   3.269  0.7909 -0.9613  0.9704
  838MOL0     H10587   5.431   2.267   3.396  2.5140  0.7787  0.5562
  838MOL0     H10588   5.315   2.204   3.186 -1.0805  1.7221  1.7421
  838MOL0     H10589   5.401   2.039   3.192  0.7211 -0.8122  0.4239
  838MOL0     H10590   5.203   2.160   3.394  1.2151  1.2072 -1.1528
  838MOL0     H10591   5.289   2.021   3.428 -3.8313 -0.5773  0.7966
  838MOL0     H10592   5.085   1.940   3.360  1.4009 -1.1778  0.9990
  838MOL0     H10593   5.206   1.885   3.248 -1.8285 -0.1022 -0.7491
  838MOL0     H10594   5.057   2.140   3.176  0.3273 -0.7084 -0.3177
  838MOL0     H10595   5.135   2.021   3.072  1.7555 -2.1011  0.7877
  838MOL0     H10596   4.876   2.007   3.054  1.1285 -2.7087 -2.5300
  838MOL0     H10597   4.882   1.986   3.233 -0.5621  0.3212 -1.4543
  838MOL0     H10598   5.960   2.192   3.168 -1.6923  3.8358 -0.5288
  838MOL0     H10599   6.186   2.301   3.201  0.0536 -2.2272 -0.3355
  838MOL0     H10600   6.506   2.508   3.705 -2.7716 -1.6105 -1.2694
  838MOL0     H10601   6.740   2.593   3.680 -0.3518  0.8334 -0.1544
  838MOL0     H10602   8.111   3.112   4.070  2.2147 -0.0470  1.2625
  838MOL0     H10603   8.336   3.110   4.003  1.9547  0.7671  1.1622
  838MOL0     H10604   8.711   3.200   3.977 -1.2299  1.1304 -1.5539
  838MOL0     H10605   8.958   3.182   3.962  1.5216  0.0968  1.8358
  838MOL0     H10606   9.252   3.562   3.978  1.0181  0.0483 -1.5953
  838MOL0     H10607   9.156   3.552   3.833  0.1385  2.5329  1.3645
  838MOL0     H10608   9.423   3.510   3.847  0.0472  0.5046 -0.7138
  838MOL0     H10609   9.368   3.344   3.896 -1.7756 -0.8812 -0.3216
  838MOL0     H10610   9.433   3.348   3.661 -0.3950 -0.5009  1.8583
  838MOL0     H10611   9.317   3.474   3.631 -1.5221 -0.7209  1.0336
  838MOL0     H10612   9.258   3.182   3.684 -0.5260  0.1502  0.0347
  838MOL0     H10613   9.136   3.307   3.702  0.4430 -0.6878 -0.7856
  838MOL0     H10614   9.256   3.331   3.279 -2.1252  0.5126 -0.1040
  838MOL0     H10615   8.986   3.620   3.958  0.7040 -0.9576  1.8025
  838MOL0     H10616   8.746   3.621   3.969 -1.1881  0.6575  1.6286
  839MOL0     O10617  10.194   7.194   0.004  0.4315  1.2488 -0.7318
  839MOL0     C10618  10.162   7.099  -0.075 -0.7538  0.3434  0.5533
  839MOL0     O10619  10.036   7.068  -0.117 -0.2430  0.9262  0.4083
  839MOL0     C10620   9.932   7.146  -0.070 -0.3844  0.2203  0.3858
  839MOL0     C10621   9.835   7.183  -0.163  0.3343 -0.2061 -1.1030
  839MOL0     C10622   9.714   7.235  -0.116 -0.2600  0.5184 -1.1226
  839MOL0     C10623   9.701   7.284   0.022  0.7148 -0.0596 -0.2987
  839MOL0     O10624   9.585   7.345   0.067 -0.4792  0.2631 -0.0682
  839MOL0     C10625   9.484   7.393  -0.030  0.1625  0.2398  0.4042
  839MOL0     C10626   9.405   7.501   0.033 -0.0956  0.2209  0.5317
  839MOL0     C10627   9.309   7.584  -0.060 -0.4141 -0.5256 -0.3113
  839MOL0     C10628   9.198   7.672   0.008 -0.0647 -0.5052  0.0403
  839MOL0     C10629   9.249   7.795   0.078 -0.2795 -0.1331  0.4032
  839MOL0     C10630   9.322   7.890  -0.017 -0.2235 -0.5271  0.2905
  839MOL0     C10631   9.306   8.036   0.022 -0.0786 -1.0455 -0.4111
  839MOL0     C10632   9.167   8.097   0.004  0.1733 -0.3925 -0.1388
  839MOL0     N10633   9.178   8.239  -0.008  1.4201  0.3420 -0.9076
  839MOL0     C10634   9.245   8.318   0.082  0.2262 -0.6062  0.7267
  839MOL0     C10635   9.261   8.431   0.009  0.0479  1.0739 -0.2484
  839MOL0     C10636   9.328   8.563   0.062 -0.6162  0.9370 -0.2752
  839MOL0     C10637   9.390   8.564   0.196  0.0332  0.1414 -1.0106
  839MOL0     C10638   9.545   8.552   0.187 -0.7105  0.2737 -0.3604
  839MOL0     C10639   9.617   8.689   0.162  0.7581 -0.6602  0.8837
  839MOL0     O10640   9.749   8.701   0.215  0.3504 -0.2848 -0.3014
  839MOL0     C10641   9.816   8.815   0.208 -0.5047 -0.5117 -0.0835
  839MOL0     C10642   9.760   8.936   0.169 -0.8129 -0.1918  0.1523
  839MOL0     C10643   9.838   9.047   0.159  0.5627 -0.4113  0.4567
  839MOL0     C10644   9.968   9.047   0.188 -0.1654 -0.2129  0.3241
  839MOL0     C10645  10.049   9.177   0.168  1.0459  0.6520  0.3424
  839MOL0     O10646   9.982   9.291   0.134  0.0777 -0.1017 -0.1382
  839MOL0     C10647  10.035   9.419   0.123 -0.0395  0.0270 -0.7104
  839MOL0     C10648  10.166   9.464   0.088 -0.2537  0.2526  0.7884
  839MOL0     C10649  10.205   9.603   0.093  1.0117  0.1171 -0.7042
  839MOL0     C10650  10.105   9.698   0.131 -0.4471  0.8611 -0.3056
  839MOL0     O10651  10.134   9.829   0.150  0.4355  0.6273  0.4633
  839MOL0     C10652  10.245   9.863   0.235  0.2576 -1.0957  0.3693
  839MOL0     C10653  10.244  10.014   0.250  0.2217 -0.4495  0.0863
  839MOL0     C10654  10.339  10.060   0.363 -0.0096  0.4704 -0.2143
  839MOL0     C10655  10.478   9.988   0.347  0.2120 -0.3645  0.5442
  839MOL0     C10656  10.570  10.042   0.455  0.2797  0.2491 -1.4093
  839MOL0     C10657  10.718  10.006   0.434 -1.3592 -0.2085 -0.6214
  839MOL0     C10658  10.801  10.025   0.563  0.1377  0.0504  0.4702
  839MOL0     C10659  10.942   9.973   0.554 -0.1888  0.0741  0.7990
  839MOL0    Cl10660  11.044  10.090   0.449 -0.2479  0.2613  0.0326
  839MOL0     C10661   9.981   9.654   0.170  1.1346 -0.4302  0.4396
  839MOL0     C10662   9.950   9.518   0.160 -0.3840 -0.8207  0.5375
  839MOL0     O10663  10.163   9.171   0.206 -0.6555  0.8440  0.0925
  839MOL0     C10664  10.026   8.926   0.229 -0.6958 -0.1147  0.5128
  839MOL0     C10665   9.951   8.816   0.249  0.3904  0.4658 -0.6173
  839MOL0     N10666   9.200   8.417  -0.110  0.3787 -0.3703  0.5263
  839MOL0     N10667   9.140   8.313  -0.115 -0.3502 -0.1215  0.3312
  839MOL0     C10668   9.802   7.251   0.112 -0.1694 -0.6279  0.3112
  839MOL0     C10669   9.911   7.181   0.071  0.2730 -0.5085  0.4129
  839MOL0     C10670  10.269   7.008  -0.112 -0.1112 -0.2981  0.3319
  839MOL0     C10671  10.398   7.033  -0.065 -0.3926 -0.1810 -0.2837
  839MOL0     C10672  10.503   6.953  -0.103  0.6833  1.1896 -0.5056
  839MOL0     C10673  10.479   6.846  -0.183  0.2211  0.2191 -0.0106
  839MOL0     O10674  10.582   6.756  -0.211 -0.5886 -0.9222  0.4654
  839MOL0     C10675  10.553   6.629  -0.283  0.6054  0.0753  0.6488
  839MOL0     C10676  10.473   6.529  -0.201 -0.4739  0.0209 -0.0006
  839MOL0     C10677  10.451   6.390  -0.277 -0.5260 -0.4678  0.6825
  839MOL0     C10678  10.356   6.297  -0.197 -0.5713  0.2996  0.4354
  839MOL0     C10679  10.221   6.355  -0.200  0.5598  0.6476 -0.9544
  839MOL0     C10680  10.110   6.403  -0.182 -0.1075 -0.7689 -0.8676
  839MOL0     C10681  10.353   6.827  -0.240  0.0695  0.0431  0.5766
  839MOL0     C10682  10.243   6.901  -0.207  0.6534  0.5950 -0.0789
  839MOL0     H10683   9.831   7.179  -0.272  1.4391  0.5680 -1.1841
  839MOL0     H10684   9.639   7.263  -0.189 -1.9680 -1.8588 -0.4135
  839MOL0     H10685   9.420   7.307  -0.046 -2.6126  2.2970 -0.2929
  839MOL0     H10686   9.526   7.433  -0.123 -1.8356 -0.2047 -0.7377
  839MOL0     H10687   9.476   7.575   0.071  0.3222  0.8918 -1.3994
  839MOL0     H10688   9.340   7.457   0.109 -3.0573  1.5680 -1.0385
  839MOL0     H10689   9.251   7.520  -0.127  1.3212 -0.6165 -1.7953
  839MOL0     H10690   9.361   7.657  -0.122 -1.7418 -0.3541 -1.2633
  839MOL0     H10691   9.129   7.714  -0.066 -1.0180  4.2849  3.1460
  839MOL0     H10692   9.125   7.622   0.072 -2.3330 -0.7131 -2.5411
  839MOL0     H10693   9.324   7.759   0.149 -0.2239 -1.2020 -0.1904
  839MOL0     H10694   9.170   7.845   0.136  1.2106  0.0967  2.3375
  839MOL0     H10695   9.278   7.873  -0.116 -0.3414  0.9320  0.0621
  839MOL0     H10696   9.428   7.865  -0.027  0.3129  1.7088 -0.1661
  839MOL0     H10697   9.337   8.070   0.121 -3.0596 -2.5204  1.1517
  839MOL0     H10698   9.384   8.093  -0.030 -0.5259 -0.4386 -0.4320
  839MOL0     H10699   9.100   8.075   0.087 -1.7138  0.6144 -1.3310
  839MOL0     H10700   9.125   8.054  -0.088  1.4761  2.1806 -2.0647
  839MOL0     H10701   9.292   8.294   0.176  1.1791 -0.6866  0.2365
  839MOL0     H10702   9.247   8.635   0.075 -0.6432  0.7289  0.7672
  839MOL0     H10703   9.398   8.588  -0.019  0.1429 -0.5480 -0.1200
  839MOL0     H10704   9.346   8.489   0.262  3.0037 -0.1582  0.7854
  839MOL0     H10705   9.362   8.660   0.240  0.8299 -0.4906  0.9749
  839MOL0     H10706   9.584   8.517   0.283  0.2014  0.7974 -0.5338
  839MOL0     H10707   9.579   8.478   0.114  1.2045  3.2474 -2.6807
  839MOL0     H10708   9.550   8.765   0.202 -1.2009 -1.1320 -1.2639
  839MOL0     H10709   9.616   8.700   0.053 -0.1498 -1.1054  0.8329
  839MOL0     H10710   9.655   8.953   0.149 -0.6971 -0.2841 -0.5732
  839MOL0     H10711   9.787   9.143   0.153  2.5992  0.6597 -0.6119
  839MOL0     H10712  10.234   9.386   0.056  3.1663  3.3222 -0.1133
  839MOL0     H10713  10.308   9.629   0.068  1.3666 -2.1270 -1.8582
  839MOL0     H10714  10.330   9.836   0.171  2.2192  0.7843  2.0317
  839MOL0     H10715  10.241   9.823   0.336 -0.3255 -1.9939  0.0037
  839MOL0     H10716  10.143  10.043   0.278  1.2237  2.2345  1.2286
  839MOL0     H10717  10.264  10.070   0.158  0.2731  0.2312  0.5011
  839MOL0     H10718  10.292  10.032   0.458  0.5745  1.0591  0.2522
  839MOL0     H10719  10.342  10.169   0.352 -1.2439  0.3474 -2.1445
  839MOL0     H10720  10.465   9.879   0.353  0.6370 -0.3659  1.5229
  839MOL0     H10721  10.527  10.011   0.252  2.5094 -0.6450  1.5881
  839MOL0     H10722  10.534   9.989   0.544  1.5231  0.2344 -0.8977
  839MOL0     H10723  10.557  10.150   0.464 -0.0315  0.6704 -5.0839
  839MOL0     H10724  10.749  10.066   0.348  1.5556 -2.1130 -1.0485
  839MOL0     H10725  10.726   9.899   0.413 -0.3227  0.0639 -1.7222
  839MOL0     H10726  10.823  10.130   0.583  1.3624  0.0964 -0.8996
  839MOL0     H10727  10.750   9.981   0.649 -0.6866  0.6314  0.2860
  839MOL0     H10728  10.958   9.871   0.517  1.9029  0.5166  0.3412
  839MOL0     H10729  10.992   9.969   0.651  0.3667 -0.4971  0.4980
  839MOL0     H10730   9.900   9.715   0.209  2.1832 -1.1490  4.0491
  839MOL0     H10731   9.851   9.483   0.186  0.1618 -3.3214 -0.5011
  839MOL0     H10732  10.131   8.922   0.258 -0.5892  0.8905  0.3262
  839MOL0     H10733   9.989   8.723   0.291  0.5593  0.1844 -1.3752
  839MOL0     H10734   9.790   7.287   0.214  0.3023  0.6511 -0.0687
  839MOL0     H10735   9.990   7.145   0.136 -0.8050 -1.4498  1.2292
  839MOL0     H10736  10.417   7.108   0.011 -0.3057 -1.1767  0.7140
  839MOL0     H10737  10.601   6.970  -0.061  0.9338 -1.8465  0.3845
  839MOL0     H10738  10.649   6.588  -0.316 -0.4723 -1.0378 -1.3701
  839MOL0     H10739  10.500   6.644  -0.378 -1.2289  2.0774  1.8937
  839MOL0     H10740  10.536   6.499  -0.117  1.2997 -1.6618 -1.8213
  839MOL0     H10741  10.384   6.576  -0.159  1.1816  0.6858  3.0531
  839MOL0     H10742  10.541   6.336  -0.307  1.5787  2.6644  0.8766
  839MOL0     H10743  10.402   6.402  -0.374 -2.4432 -4.9850  0.8652
  839MOL0     H10744  10.360   6.202  -0.251  1.1079 -0.4255  1.7460
  839MOL0     H10745  10.385   6.280  -0.093 -0.2996  2.6359  0.8146
  839MOL0     H10746  10.015   6.451  -0.171 -0.3505 -1.6079  1.2630
  839MOL0     H10747  10.315   6.742  -0.295 -1.8693  1.1215  0.1313
  839MOL0     H10748  10.142   6.865  -0.226  1.6132 -3.3328  1.2663
  840MOL0     O10749   3.036   9.831   4.226  0.4793 -0.2006 -0.7311
  840MOL0     C10750   3.066   9.928   4.287  0.2952 -0.6950 -0.0631
  840MOL0     O10751   2.976   9.995   4.379  0.2480  0.3980  0.1132
  840MOL0     C10752   2.848   9.945   4.389  0.3208  0.4264 -0.3726
  840MOL0     C10753   2.801   9.904   4.514  0.5873  0.1853 -0.3936
  840MOL0     C10754   2.682   9.840   4.538 -0.1796  0.5277  0.3647
  840MOL0     C10755   2.596   9.806   4.428 -0.1523  0.2420  0.5882
  840MOL0     O10756   2.475   9.740   4.433  0.8971 -0.0206 -0.1243
  840MOL0     C10757   2.434   9.687   4.563  0.3175  0.4239  0.2531
  840MOL0     C10758   2.285   9.631   4.554 -0.2633 -0.4386  0.1238
  840MOL0     C10759   2.185   9.737   4.512 -0.0838  0.2027  0.1252
  840MOL0     C10760   2.038   9.680   4.518  0.3436  0.7617  0.5049
  840MOL0     C10761   1.952   9.744   4.404  0.5254  0.0259  0.3600
  840MOL0     C10762   1.809   9.681   4.397  0.5427  0.3071  0.0420
  840MOL0     C10763   1.714   9.760   4.309 -0.0475 -0.1892 -0.4575
  840MOL0     C10764   1.576   9.681   4.283  0.1728  0.3065  0.0239
  840MOL0     N10765   1.493   9.748   4.183  0.1786  0.3051  0.4230
  840MOL0     C10766   1.445   9.872   4.182  0.3738 -0.3055 -0.3260
  840MOL0     C10767   1.360   9.878   4.076 -0.2154 -0.3944 -0.4469
  840MOL0     C10768   1.280   9.998   4.054  0.3120 -0.5465 -0.5894
  840MOL0     C10769   1.205  10.052   4.179  0.7820 -0.3184  0.4319
  840MOL0     C10770   1.057   9.994   4.207  0.8991 -0.4247 -0.0928
  840MOL0     C10771   0.984  10.080   4.320  0.2006 -0.0607  0.2493
  840MOL0     O10772   0.886   9.993   4.373 -0.1847 -1.3843 -0.3382
  840MOL0     C10773   0.785   9.945   4.291  1.2189 -0.3890  0.5814
  840MOL0     C10774   0.729  10.004   4.178 -0.9298  0.1238 -0.0157
  840MOL0     C10775   0.622   9.956   4.107  1.0708 -0.2023 -0.3725
  840MOL0     C10776   0.551   9.842   4.158 -0.2706  0.5412  0.3040
  840MOL0     C10777   0.432   9.783   4.094 -0.7585 -1.0033  0.5382
  840MOL0     O10778   0.394   9.665   4.152 -0.1271 -0.3696  0.3801
  840MOL0     C10779   0.281   9.616   4.092  0.9931  0.6423  0.4958
  840MOL0     C10780   0.159   9.673   4.110 -0.8059  0.3531 -0.1462
  840MOL0     C10781   0.048   9.617   4.048  0.4368 -0.4273  1.1160
  840MOL0     C10782   0.059   9.507   3.956  0.0428  0.4194 -0.3870
  840MOL0     O10783  -0.032   9.479   3.860 -0.5338  0.4299 -0.5478
  840MOL0     C10784  -0.176   9.517   3.891 -0.1372 -0.8427 -0.8342
  840MOL0     C10785  -0.254   9.451   3.787 -0.9561  0.5126  0.0629
  840MOL0     C10786  -0.398   9.473   3.787  1.0178 -0.1262 -0.4409
  840MOL0     C10787  -0.476   9.339   3.751 -0.2893  0.1929 -0.7937
  840MOL0     C10788  -0.459   9.276   3.610  0.3529  0.3203 -0.3710
  840MOL0     C10789  -0.548   9.149   3.615  1.2837 -0.0277 -0.8448
  840MOL0     C10790  -0.459   9.038   3.677 -0.2699  0.5559 -0.4217
  840MOL0     C10791  -0.539   8.912   3.672  0.1338  0.9332 -0.5425
  840MOL0    Cl10792  -0.435   8.771   3.750 -0.3650  0.0887  0.0043
  840MOL0     C10793   0.186   9.454   3.935  0.1026  0.2192 -0.0343
  840MOL0     C10794   0.295   9.512   4.000 -0.7183  0.2829 -0.0729
  840MOL0     O10795   0.375   9.835   3.993  0.1717 -0.0216  0.0913
  840MOL0     C10796   0.598   9.786   4.277 -0.0210 -0.0315 -0.4174
  840MOL0     C10797   0.716   9.832   4.333 -1.3585  1.0559 -0.9281
  840MOL0     N10798   1.356   9.760   4.015 -0.0090 -0.2019  0.7456
  840MOL0     N10799   1.420   9.679   4.094  0.0791 -0.7966 -0.1272
  840MOL0     C10800   2.639   9.860   4.306 -0.3173 -0.5829 -0.1729
  840MOL0     C10801   2.757   9.934   4.284 -0.0417  0.2958  0.4525
  840MOL0     C10802   3.205   9.972   4.270 -0.6306 -0.8948  0.0329
  840MOL0     C10803   3.252  10.094   4.340  1.2241 -0.5978 -0.1068
  840MOL0     C10804   3.380  10.137   4.318  0.8280 -0.4047  0.0743
  840MOL0     C10805   3.471  10.069   4.228 -1.1481  0.3016 -0.4904
  840MOL0     O10806   3.600  10.098   4.200 -0.0297 -0.0603 -0.2587
  840MOL0     C10807   3.643  10.225   4.251 -0.1930  0.4772 -0.5038
  840MOL0     C10808   3.711  10.230   4.385  0.4829  0.1532  0.4496
  840MOL0     C10809   3.821  10.120   4.408 -0.0515  0.2320  0.0249
  840MOL0     C10810   3.934  10.175   4.502  0.4490  0.0897 -0.9609
  840MOL0     C10811   4.003  10.287   4.436 -0.5370 -0.2189 -0.2590
  840MOL0     C10812   4.073  10.382   4.392  0.0151  1.1025 -0.2103
  840MOL0     C10813   3.421   9.969   4.157 -0.5439  0.3358 -0.8792
  840MOL0     C10814   3.285   9.915   4.175 -0.0204  0.1558  1.0795
  840MOL0     H10815   2.870   9.925   4.596 -0.3063 -0.3295  0.5099
  840MOL0     H10816   2.658   9.821   4.642  1.3422 -1.7117  0.3690
  840MOL0     H10817   2.440   9.770   4.634  0.5595  0.0039  0.7197
  840MOL0     H10818   2.495   9.607   4.605  0.7990  0.9599  0.5916
  840MOL0     H10819   2.250   9.575   4.641 -0.1196 -3.0565 -1.3789
  840MOL0     H10820   2.285   9.558   4.472 -1.0540 -0.8056  0.4324
  840MOL0     H10821   2.211   9.781   4.415  0.1038 -0.8585 -0.3149
  840MOL0     H10822   2.184   9.819   4.585  1.4689  0.8707 -0.5523
  840MOL0     H10823   2.032   9.572   4.505  2.3711  0.3123  2.6033
  840MOL0     H10824   2.004   9.703   4.620 -2.0974 -1.1908  0.2500
  840MOL0     H10825   1.987   9.725   4.301  0.1281  2.0504 -0.1939
  840MOL0     H10826   1.955   9.851   4.429  1.2000 -0.3934  2.1406
  840MOL0     H10827   1.774   9.683   4.500 -0.0006  0.5837 -0.1445
  840MOL0     H10828   1.812   9.579   4.358  0.6533 -0.0581  0.9863
  840MOL0     H10829   1.686   9.849   4.366 -0.5203 -2.0853  2.4507
  840MOL0     H10830   1.762   9.771   4.211  2.2762 -3.5797  0.1325
  840MOL0     H10831   1.528   9.669   4.380  3.0647 -2.5325  1.2696
  840MOL0     H10832   1.594   9.576   4.261  0.0459  0.0974  0.8996
  840MOL0     H10833   1.459   9.947   4.258  0.9082  1.2342 -1.8844
  840MOL0     H10834   1.206   9.982   3.975 -0.0416 -0.1882 -0.3346
  840MOL0     H10835   1.352  10.077   4.034 -0.8540  0.7061 -0.0011
  840MOL0     H10836   1.192  10.157   4.153 -0.2034 -0.7460 -0.9551
  840MOL0     H10837   1.269  10.029   4.265  0.7359  1.0087  0.8430
  840MOL0     H10838   0.993  10.002   4.119 -0.7649  3.2099  1.2371
  840MOL0     H10839   1.076   9.888   4.227 -0.8720 -0.4619  1.6000
  840MOL0     H10840   0.934  10.170   4.282  1.9309  0.4051 -1.0513
  840MOL0     H10841   1.050  10.109   4.402 -1.1930  1.8596  0.7615
  840MOL0     H10842   0.776  10.097   4.148  0.4934 -0.3436  0.6644
  840MOL0     H10843   0.578   9.998   4.017  1.4932 -2.6800 -1.8317
  840MOL0     H10844   0.152   9.764   4.168  0.9788  0.2307  0.2967
  840MOL0     H10845  -0.047   9.662   4.072  0.9447  1.4013 -0.0748
  840MOL0     H10846  -0.204   9.623   3.888 -1.0312 -0.9967  0.8485
  840MOL0     H10847  -0.210   9.484   3.990 -2.1827  3.6079  0.2064
  840MOL0     H10848  -0.221   9.348   3.801  0.1171  0.8067 -0.2095
  840MOL0     H10849  -0.216   9.490   3.692  1.4673  2.3616  1.6714
  840MOL0     H10850  -0.430   9.549   3.715 -1.8333 -2.3311 -1.6715
  840MOL0     H10851  -0.433   9.517   3.881 -1.7993 -0.6390 -1.1560
  840MOL0     H10852  -0.466   9.270   3.835 -3.4861  1.5976  0.9285
  840MOL0     H10853  -0.582   9.355   3.768 -0.1599 -0.3228  0.6791
  840MOL0     H10854  -0.356   9.269   3.575  0.7329  3.5372 -0.1770
  840MOL0     H10855  -0.503   9.347   3.539  1.4243 -2.0264 -3.6674
  840MOL0     H10856  -0.583   9.121   3.515 -1.5486 -0.2190  0.1021
  840MOL0     H10857  -0.639   9.161   3.675 -0.4674  0.2073 -3.3748
  840MOL0     H10858  -0.362   9.034   3.627  0.6955  2.3536  1.1749
  840MOL0     H10859  -0.457   9.058   3.785  0.9124 -1.0212 -0.1085
  840MOL0     H10860  -0.567   8.884   3.570 -0.9928 -2.2415  0.5200
  840MOL0     H10861  -0.628   8.927   3.732  1.5466  1.5858  1.5063
  840MOL0     H10862   0.198   9.381   3.856  0.8061  1.0757 -0.7405
  840MOL0     H10863   0.398   9.489   3.976 -1.2797 -2.1185 -0.4216
  840MOL0     H10864   0.540   9.719   4.339  2.8179 -1.6129  0.7031
  840MOL0     H10865   0.742   9.791   4.431 -2.0110 -1.0051 -1.5563
  840MOL0     H10866   2.564   9.858   4.228 -1.2066  0.0560  0.6485
  840MOL0     H10867   2.783   9.962   4.183 -0.2333 -3.1457 -0.6687
  840MOL0     H10868   3.193  10.145   4.416  0.2366 -0.2955 -1.0559
  840MOL0     H10869   3.412  10.209   4.393  1.2104 -1.4522  0.9340
  840MOL0     H10870   3.565  10.301   4.261 -0.7644 -0.0159 -1.1923
  840MOL0     H10871   3.717  10.262   4.179  0.0737 -2.4567 -1.8983
  840MOL0     H10872   3.749  10.332   4.396 -2.1607  1.2091  0.6398
  840MOL0     H10873   3.633  10.219   4.462 -0.0695  3.3909  0.4827
  840MOL0     H10874   3.860  10.085   4.312 -0.2357 -0.3888  0.1723
  840MOL0     H10875   3.769  10.035   4.455  2.0151 -2.2240 -1.8144
  840MOL0     H10876   3.877  10.205   4.590  0.1236 -0.5532 -0.9545
  840MOL0     H10877   3.994  10.088   4.531 -1.2656 -0.2427  1.9669
  840MOL0     H10878   4.137  10.447   4.335 -1.0805  1.2566 -1.3012
  840MOL0     H10879   3.480   9.922   4.079 -1.5173 -1.5658 -0.5551
  840MOL0     H10880   3.261   9.827   4.116  2.0911  2.3154 -3.5600
  841MOL0     O10881   0.738   1.677   8.116  0.5893 -0.0265  0.2214
  841MOL0     C10882   0.848   1.620   8.124  0.0363  1.0699  0.3818
  841MOL0     O10883   0.870   1.487   8.109  0.4541 -0.0181  0.4746
  841MOL0     C10884   0.787   1.415   8.023 -1.0432  0.4867 -0.3041
  841MOL0     C10885   0.760   1.280   8.055 -0.9620  0.0664  0.1613
  841MOL0     C10886   0.680   1.205   7.969 -0.2304 -0.7966 -0.4698
  841MOL0     C10887   0.617   1.265   7.857 -1.8079 -1.1141  0.3257
  841MOL0     O10888   0.538   1.211   7.762 -0.0016  0.1583 -0.6633
  841MOL0     C10889   0.438   1.122   7.808 -0.3605 -0.9110  0.4320
  841MOL0     C10890   0.465   0.971   7.772  0.4988  0.0570 -0.2022
  841MOL0     C10891   0.391   0.880   7.889  0.0460 -0.8722 -0.0910
  841MOL0     C10892   0.395   0.723   7.874  0.8409 -0.1375 -0.0876
  841MOL0     C10893   0.352   0.662   8.006  0.3495 -0.4395 -0.1509
  841MOL0     C10894   0.301   0.519   7.988 -0.2543  0.2358  0.0850
  841MOL0     C10895   0.273   0.465   8.132  0.5463 -0.7036 -0.6933
  841MOL0     C10896   0.391   0.431   8.214 -0.0780  0.1829  0.1104
  841MOL0     N10897   0.366   0.361   8.338 -0.0981  0.1524  0.5305
  841MOL0     C10898   0.304   0.401   8.455 -0.4405  0.0824 -0.5299
  841MOL0     C10899   0.296   0.293   8.540  0.0724 -0.1650 -0.4065
  841MOL0     C10900   0.231   0.291   8.681  0.0724 -0.4578  0.5256
  841MOL0     C10901   0.282   0.414   8.764 -0.9084  0.1850 -0.2703
  841MOL0     C10902   0.243   0.414   8.911  0.1763  0.8010 -0.2733
  841MOL0     C10903   0.097   0.398   8.956 -0.7239  0.8460  0.0372
  841MOL0     O10904   0.028   0.523   8.934  0.1520 -0.3611 -0.4004
  841MOL0     C10905  -0.107   0.535   8.961  1.8319  0.4753  0.8197
  841MOL0     C10906  -0.171   0.639   8.911  0.6872 -0.5416  0.4850
  841MOL0     C10907  -0.307   0.674   8.937 -0.6889  0.5873 -0.9857
  841MOL0     C10908  -0.379   0.588   9.013 -0.5303  1.0225 -0.2402
  841MOL0     C10909  -0.521   0.621   9.050 -0.5533  0.3479  0.9557
  841MOL0     O10910  -0.577   0.728   8.987  0.2829 -0.8008 -0.7576
  841MOL0     C10911  -0.706   0.769   9.013  0.2783 -0.3905 -0.5031
  841MOL0     C10912  -0.740   0.903   9.000  0.1258  0.6285  0.2912
  841MOL0     C10913  -0.874   0.955   9.026 -0.3772  0.0251 -0.7674
  841MOL0     C10914  -0.974   0.872   9.067  0.9473  0.9757 -0.0721
  841MOL0     O10915  -1.108   0.903   9.062 -0.2804  0.4396 -0.2137
  841MOL0     C10916  -1.203   0.837   9.159 -0.1656 -0.0103 -0.3947
  841MOL0     C10917  -1.334   0.914   9.143 -0.2844  0.6498 -0.0576
  841MOL0     C10918  -1.361   1.009   9.252 -0.2091 -0.8218  0.0011
  841MOL0     C10919  -1.248   1.109   9.241 -0.3126 -1.5407  0.2942
  841MOL0     C10920  -1.275   1.223   9.331  0.4791  0.2329 -0.3346
  841MOL0     C10921  -1.161   1.327   9.344  0.5885 -0.4361 -0.1979
  841MOL0     C10922  -1.123   1.390   9.220  0.8465  0.6438 -0.1592
  841MOL0     C10923  -0.998   1.471   9.229  0.3186 -1.3670  0.8992
  841MOL0    Cl10924  -1.047   1.618   9.311  0.1855  0.5449 -0.2764
  841MOL0     C10925  -0.943   0.740   9.085  0.2917 -0.0448  0.1268
  841MOL0     C10926  -0.813   0.691   9.059  0.0215  0.3021  0.6857
  841MOL0     O10927  -0.572   0.560   9.138  0.1859  0.3387  1.2688
  841MOL0     C10928  -0.317   0.464   9.054  0.9078  0.4606 -0.0288
  841MOL0     C10929  -0.186   0.430   9.024 -0.6446 -0.9036 -0.3411
  841MOL0     N10930   0.368   0.193   8.471  0.4884  0.1219 -0.6535
  841MOL0     N10931   0.405   0.231   8.355 -0.1924  0.0079  1.2155
  841MOL0     C10932   0.649   1.394   7.826  0.4998 -0.8089 -0.3914
  841MOL0     C10933   0.727   1.466   7.908 -0.7415 -0.2598 -0.0705
  841MOL0     C10934   0.972   1.695   8.179  0.3959 -0.9184  0.6889
  841MOL0     C10935   0.961   1.829   8.229 -0.2757 -0.3133  0.3044
  841MOL0     C10936   1.079   1.895   8.266 -0.2821 -0.1751  0.4689
  841MOL0     C10937   1.204   1.835   8.269  0.7970  0.0714  0.2634
  841MOL0     O10938   1.309   1.898   8.321  0.0414 -0.2373  0.0872
  841MOL0     C10939   1.350   2.025   8.263 -0.0269  0.5594 -0.3038
  841MOL0     C10940   1.489   1.992   8.202  0.5424  0.4568  0.4954
  841MOL0     C10941   1.561   2.105   8.152 -0.2578  0.6535  0.2416
  841MOL0     C10942   1.702   2.063   8.119  0.0231  0.2428  0.2038
  841MOL0     C10943   1.793   2.166   8.064  0.0812  0.5060  0.7047
  841MOL0     C10944   1.861   2.249   8.008 -0.8508  0.6088 -0.3435
  841MOL0     C10945   1.213   1.701   8.224 -0.6164  0.3141  0.4935
  841MOL0     C10946   1.098   1.633   8.182  0.1947  0.0378  0.0887
  841MOL0     H10947   0.780   1.232   8.150 -3.2626 -2.5948 -0.5470
  841MOL0     H10948   0.651   1.101   7.983  0.4861 -1.0574 -0.8786
  841MOL0     H10949   0.346   1.149   7.754 -0.7994  2.3371  2.4629
  841MOL0     H10950   0.419   1.138   7.915 -0.2488 -0.4963  0.3920
  841MOL0     H10951   0.571   0.954   7.793 -0.1335 -1.2508  2.3070
  841MOL0     H10952   0.433   0.946   7.671 -0.5532 -0.4636  0.2407
  841MOL0     H10953   0.288   0.919   7.886  0.2123 -0.3859  0.3769
  841MOL0     H10954   0.433   0.917   7.983  1.0905 -1.0461 -0.4755
  841MOL0     H10955   0.333   0.693   7.789  3.5214 -0.2721 -2.1589
  841MOL0     H10956   0.493   0.686   7.843 -0.5179 -2.1090 -2.3938
  841MOL0     H10957   0.274   0.723   8.053  2.3463  0.2878  2.4997
  841MOL0     H10958   0.441   0.685   8.066 -0.9575  3.4727  0.5707
  841MOL0     H10959   0.380   0.458   7.943  0.3081 -0.9784  2.5624
  841MOL0     H10960   0.210   0.517   7.927  0.5499  1.3953 -1.2276
  841MOL0     H10961   0.208   0.539   8.180 -0.1841 -2.2935  0.8907
  841MOL0     H10962   0.219   0.372   8.114 -0.9906 -0.2014  1.0453
  841MOL0     H10963   0.437   0.527   8.240  0.8663 -0.9186  2.9343
  841MOL0     H10964   0.449   0.376   8.139 -2.7763 -0.3488 -1.7035
  841MOL0     H10965   0.255   0.496   8.473 -1.2237 -0.2298 -0.9765
  841MOL0     H10966   0.273   0.206   8.735  1.3292  0.5743  1.2402
  841MOL0     H10967   0.122   0.285   8.677  0.1167 -3.1323  1.2153
  841MOL0     H10968   0.253   0.508   8.716 -0.6257  0.7014  0.5301
  841MOL0     H10969   0.391   0.418   8.773 -1.0538  1.1232  1.7838
  841MOL0     H10970   0.310   0.343   8.961 -0.1509  1.9420  1.8980
  841MOL0     H10971   0.267   0.513   8.950  2.0296 -0.7548  3.0022
  841MOL0     H10972   0.098   0.379   9.063  2.5736  2.3344  0.4134
  841MOL0     H10973   0.046   0.314   8.907  1.4739 -1.3834  1.3257
  841MOL0     H10974  -0.116   0.705   8.844  0.9239 -0.8116  0.4139
  841MOL0     H10975  -0.344   0.762   8.884 -1.0205  1.3835  0.5046
  841MOL0     H10976  -0.662   0.973   8.975 -0.5706  1.3995  0.2258
  841MOL0     H10977  -0.892   1.060   9.006  1.4411  0.1769 -1.8852
  841MOL0     H10978  -1.170   0.853   9.263 -0.2862 -0.5738 -0.2702
  841MOL0     H10979  -1.212   0.731   9.138 -1.5683 -0.2622  1.2772
  841MOL0     H10980  -1.418   0.844   9.135  0.5903 -0.2509 -1.9446
  841MOL0     H10981  -1.326   0.969   9.048  1.1838 -1.4586 -1.2371
  841MOL0     H10982  -1.372   0.947   9.342 -0.7290  0.5659  0.9173
  841MOL0     H10983  -1.454   1.058   9.223  1.2577  1.5639 -0.9424
  841MOL0     H10984  -1.157   1.063   9.280  1.1279  1.2011  0.3909
  841MOL0     H10985  -1.227   1.142   9.139 -1.5352  0.6735  0.6865
  841MOL0     H10986  -1.316   1.204   9.431 -3.1071  0.4383 -1.6427
  841MOL0     H10987  -1.366   1.272   9.296 -2.6869 -3.8115  1.3880
  841MOL0     H10988  -1.080   1.279   9.399 -0.1958  0.4374  1.8320
  841MOL0     H10989  -1.202   1.402   9.412  0.4779 -1.2653  0.6673
  841MOL0     H10990  -1.100   1.306   9.152 -2.0469 -0.3662 -0.0080
  841MOL0     H10991  -1.210   1.445   9.184  1.2366  0.8083 -0.8680
  841MOL0     H10992  -0.953   1.501   9.134  0.5644 -1.4249  0.9956
  841MOL0     H10993  -0.925   1.418   9.291  1.1530 -0.9278  0.3154
  841MOL0     H10994  -1.012   0.662   9.116  0.1902 -0.3619 -0.8493
  841MOL0     H10995  -0.802   0.583   9.071 -0.1131  0.3681  1.5171
  841MOL0     H10996  -0.368   0.394   9.119  0.9920  0.2173 -0.2205
  841MOL0     H10997  -0.141   0.339   9.061  2.2821  0.3799 -0.4642
  841MOL0     H10998   0.589   1.434   7.744 -2.4868 -1.0145  1.5053
  841MOL0     H10999   0.763   1.564   7.877  0.3799 -0.6343 -0.0003
  841MOL0     H11000   0.865   1.879   8.229  0.1828  0.7533  3.1130
  841MOL0     H11001   1.074   1.992   8.315 -0.6905 -0.0849  0.2544
  841MOL0     H11002   1.360   2.107   8.335  2.4500  2.3274 -2.4473
  841MOL0     H11003   1.282   2.059   8.185 -0.6298 -0.3089 -0.1650
  841MOL0     H11004   1.542   1.950   8.287 -3.7607 -0.2759  3.1375
  841MOL0     H11005   1.483   1.905   8.136  3.0460  1.7317 -1.5815
  841MOL0     H11006   1.574   2.173   8.237  0.2386  3.4204 -1.8776
  841MOL0     H11007   1.507   2.156   8.071 -0.6411  0.1817  0.1934
  841MOL0     H11008   1.750   2.013   8.204 -1.2147 -1.0108  0.1897
  841MOL0     H11009   1.683   1.981   8.050 -1.3994  0.6010  0.1477
  841MOL0     H11010   1.927   2.321   7.965  2.6072 -0.4598  2.6278
  841MOL0     H11011   1.315   1.665   8.210 -0.4540  0.6911  0.6882
  841MOL0     H11012   1.105   1.529   8.150 -3.1981 -1.1504  2.5728
  842MOL0     O11013   3.958   4.905   3.180 -0.7520  0.0674  0.3707
  842MOL0     C11014   4.031   4.913   3.280  0.4399 -0.0979  0.3438
  842MOL0     O11015   4.013   4.839   3.397  0.0580 -0.4665 -1.0310
  842MOL0     C11016   3.916   4.750   3.400 -1.1609 -0.5892  0.3496
  842MOL0     C11017   3.956   4.623   3.347 -0.0908 -0.9232  0.0112
  842MOL0     C11018   3.860   4.527   3.321 -0.5633 -0.0324 -0.0882
  842MOL0     C11019   3.723   4.549   3.336 -0.3142 -0.7291 -0.2341
  842MOL0     O11020   3.639   4.446   3.306  0.4851 -0.1251  0.3524
  842MOL0     C11021   3.495   4.473   3.287 -0.7008  0.4676  0.1195
  842MOL0     C11022   3.436   4.342   3.300  0.6277  0.5202 -0.4938
  842MOL0     C11023   3.279   4.354   3.299 -0.1714 -0.6296  0.3493
  842MOL0     C11024   3.211   4.252   3.394  0.7755 -0.2536 -0.2690
  842MOL0     C11025   3.069   4.309   3.441  0.2846  0.7500  0.1698
  842MOL0     C11026   2.953   4.331   3.350  0.2718  0.7980  0.3431
  842MOL0     C11027   2.902   4.201   3.280  1.0540  0.5700  0.4006
  842MOL0     C11028   2.819   4.099   3.367 -0.1742 -0.1825 -0.1341
  842MOL0     N11029   2.678   4.141   3.380  0.2448 -1.1093 -0.5167
  842MOL0     C11030   2.566   4.059   3.388  0.6605 -0.1565  0.5826
  842MOL0     C11031   2.463   4.145   3.421  0.4653 -0.3970  0.2800
  842MOL0     C11032   2.318   4.112   3.411 -0.3962 -0.7852  0.3527
  842MOL0     C11033   2.271   4.118   3.263 -1.4682 -0.4804 -0.5541
  842MOL0     C11034   2.123   4.136   3.248 -0.0167 -0.5931  0.2830
  842MOL0     C11035   2.038   4.006   3.268 -0.2758  0.3205  0.5258
  842MOL0     O11036   1.905   4.027   3.224  0.4120 -0.7498  0.1147
  842MOL0     C11037   1.812   4.084   3.302 -0.2946 -0.5195 -0.0931
  842MOL0     C11038   1.851   4.130   3.431  1.1299  0.0570  0.0192
  842MOL0     C11039   1.755   4.174   3.525  0.4719  0.5870 -0.0947
  842MOL0     C11040   1.625   4.186   3.473 -0.0578  0.2052 -0.6583
  842MOL0     C11041   1.522   4.259   3.559  0.3611 -0.2568  0.8950
  842MOL0     O11042   1.389   4.257   3.513  0.1030 -0.2064 -0.4322
  842MOL0     C11043   1.281   4.329   3.570  0.5951  0.2361 -0.4464
  842MOL0     C11044   1.147   4.290   3.564  0.0516 -0.1150  0.3531
  842MOL0     C11045   1.043   4.370   3.617 -0.8647 -0.2619  0.4681
  842MOL0     C11046   1.072   4.478   3.696 -2.0227 -0.7135  0.0912
  842MOL0     O11047   0.968   4.552   3.758 -1.1084  0.1437 -0.1873
  842MOL0     C11048   1.002   4.650   3.860  0.4706 -0.0577  0.1174
  842MOL0     C11049   0.872   4.717   3.930  0.8520  1.2170 -0.2127
  842MOL0     C11050   0.779   4.614   3.984 -0.3331 -0.3052  0.6043
  842MOL0     C11051   0.650   4.686   4.051 -0.0320  0.3349 -0.2971
  842MOL0     C11052   0.563   4.575   4.107 -0.0501  0.6968  0.1029
  842MOL0     C11053   0.423   4.629   4.135 -0.1073 -1.0923 -0.4932
  842MOL0     C11054   0.308   4.546   4.180  0.9270 -0.1183 -0.3570
  842MOL0     C11055   0.330   4.507   4.324 -0.0798 -0.2085  0.0189
  842MOL0    Cl11056   0.218   4.379   4.336  0.3169  0.0926 -0.2729
  842MOL0     C11057   1.203   4.528   3.693 -0.1508 -0.3471 -0.3356
  842MOL0     C11058   1.303   4.456   3.624 -0.3121  0.9623 -0.7602
  842MOL0     O11059   1.562   4.320   3.656  0.7372  0.0003  0.2056
  842MOL0     C11060   1.595   4.125   3.346  0.6669 -0.6003  0.4824
  842MOL0     C11061   1.685   4.071   3.263  1.3790  0.2368  0.2750
  842MOL0     N11062   2.516   4.264   3.457 -0.5550 -0.5075  0.3301
  842MOL0     N11063   2.646   4.264   3.435 -0.2925  0.1472 -0.1526
  842MOL0     C11064   3.683   4.671   3.400  0.1806 -0.3110  0.3398
  842MOL0     C11065   3.788   4.768   3.439 -0.4444  0.4485 -0.1124
  842MOL0     C11066   4.149   5.006   3.269 -0.2587 -1.4327  0.7635
  842MOL0     C11067   4.186   5.065   3.152  0.1078  0.5771 -0.1390
  842MOL0     C11068   4.286   5.165   3.147 -0.4070  0.5764  0.5351
  842MOL0     C11069   4.361   5.192   3.261  0.1249 -0.5838 -0.1881
  842MOL0     O11070   4.454   5.294   3.260 -0.5406  1.1556  0.5167
  842MOL0     C11071   4.489   5.363   3.139  0.5495  0.3239  0.4063
  842MOL0     C11072   4.379   5.469   3.103 -0.4718  0.3337  0.0947
  842MOL0     C11073   4.433   5.567   3.002  0.0134  0.3423  0.1731
  842MOL0     C11074   4.427   5.549   2.850 -0.6241 -0.4938 -0.0206
  842MOL0     C11075   4.523   5.444   2.812 -0.1823  0.1700  0.0364
  842MOL0     C11076   4.599   5.349   2.792 -0.1894 -0.1801 -0.4708
  842MOL0     C11077   4.331   5.131   3.380 -0.4982 -0.9107 -0.0950
  842MOL0     C11078   4.229   5.041   3.379 -0.1785  0.6721 -0.0945
  842MOL0     H11079   4.061   4.599   3.335  0.7228  2.4328 -0.7320
  842MOL0     H11080   3.895   4.434   3.276  0.3750  1.3287 -2.3622
  842MOL0     H11081   3.481   4.521   3.190  0.6434  3.2671  1.1813
  842MOL0     H11082   3.462   4.548   3.361  0.6053  0.2516  0.9456
  842MOL0     H11083   3.468   4.290   3.390 -2.7725  1.2748  1.3437
  842MOL0     H11084   3.466   4.286   3.211 -1.3716 -0.7128 -0.4669
  842MOL0     H11085   3.239   4.349   3.197 -0.9507  2.4336  0.3994
  842MOL0     H11086   3.258   4.452   3.343  2.6292  1.5314 -2.6740
  842MOL0     H11087   3.184   4.162   3.339 -1.5827 -0.1256  0.5654
  842MOL0     H11088   3.271   4.234   3.484 -1.1284 -0.9075  0.9264
  842MOL0     H11089   3.090   4.399   3.499  2.1565  0.0729  0.6143
  842MOL0     H11090   3.026   4.234   3.508 -1.9414  0.0282 -1.9214
  842MOL0     H11091   2.992   4.385   3.263  1.5848 -0.3254  0.1871
  842MOL0     H11092   2.871   4.382   3.401  0.4343  1.7934 -0.3555
  842MOL0     H11093   2.837   4.226   3.196  0.9746 -0.2914  0.1912
  842MOL0     H11094   2.978   4.140   3.230  1.2573  0.6906  0.5614
  842MOL0     H11095   2.860   4.067   3.463  0.9169 -0.5370 -0.7001
  842MOL0     H11096   2.818   4.014   3.299 -0.8806  1.2643 -2.0260
  842MOL0     H11097   2.558   3.959   3.346  0.7091  0.5547 -1.2303
  842MOL0     H11098   2.282   4.192   3.476  0.7330  0.9135 -1.0041
  842MOL0     H11099   2.301   4.015   3.458 -0.1247 -0.2391  1.6149
  842MOL0     H11100   2.304   4.024   3.220  0.0539 -2.2516  3.8832
  842MOL0     H11101   2.319   4.199   3.208  0.3250 -0.0484  1.5357
  842MOL0     H11102   2.083   4.212   3.316 -1.6051 -0.2792 -0.9662
  842MOL0     H11103   2.096   4.162   3.146 -3.2307  0.6587  1.3383
  842MOL0     H11104   2.034   3.970   3.371  1.3638  2.5249  1.4265
  842MOL0     H11105   2.088   3.947   3.190  0.3719  4.0912 -2.2132
  842MOL0     H11106   1.951   4.150   3.469  0.2984  2.4742  1.1664
  842MOL0     H11107   1.766   4.199   3.630 -1.3046 -0.3924  0.3541
  842MOL0     H11108   1.133   4.199   3.507  1.3958 -0.1325  0.0132
  842MOL0     H11109   0.937   4.347   3.610 -1.8777  3.8500 -0.3450
  842MOL0     H11110   1.051   4.737   3.815  0.7553  0.2061  0.9194
  842MOL0     H11111   1.074   4.601   3.926  0.6337  1.1256  0.8581
  842MOL0     H11112   0.824   4.781   3.856 -0.8580  0.4341  0.1641
  842MOL0     H11113   0.896   4.778   4.018  4.3779  1.6661 -1.3163
  842MOL0     H11114   0.826   4.553   4.061 -0.6868  3.1264  3.8295
  842MOL0     H11115   0.738   4.542   3.913 -0.0762  1.5154 -1.5001
  842MOL0     H11116   0.674   4.756   4.132  1.3379 -0.7517  0.2677
  842MOL0     H11117   0.601   4.741   3.970 -1.9861 -1.6995 -0.5849
  842MOL0     H11118   0.605   4.531   4.198  2.0351  2.3998  0.0461
  842MOL0     H11119   0.550   4.489   4.041 -0.2167  0.7743  0.0351
  842MOL0     H11120   0.399   4.676   4.039  0.5540  1.5614  0.5698
  842MOL0     H11121   0.423   4.724   4.189  0.2863 -1.3232 -0.0805
  842MOL0     H11122   0.212   4.598   4.169  0.2814 -1.2510 -0.1929
  842MOL0     H11123   0.305   4.458   4.115  0.2356  1.2716 -2.3091
  842MOL0     H11124   0.298   4.575   4.403 -2.6582 -1.8753  0.5446
  842MOL0     H11125   0.431   4.477   4.351 -0.8759 -1.3161  1.9660
  842MOL0     H11126   1.241   4.624   3.725  1.3313  1.0323 -5.4076
  842MOL0     H11127   1.406   4.489   3.609 -0.0536 -0.4390 -2.5228
  842MOL0     H11128   1.491   4.120   3.315  0.0168 -1.0575  2.6018
  842MOL0     H11129   1.667   4.038   3.161 -2.8772  4.6221 -0.7214
  842MOL0     H11130   3.585   4.702   3.433  0.0162 -1.8969  1.4817
  842MOL0     H11131   3.763   4.863   3.486 -0.7209  0.6885 -0.7193
  842MOL0     H11132   4.137   5.021   3.065  1.5133 -1.6745  0.1420
  842MOL0     H11133   4.305   5.211   3.051 -2.3389  0.9190  0.2761
  842MOL0     H11134   4.505   5.299   3.051  2.4197  1.0910  0.1496
  842MOL0     H11135   4.590   5.399   3.159 -0.2145  2.4727  0.6172
  842MOL0     H11136   4.296   5.421   3.050  0.4295 -3.7707  2.0540
  842MOL0     H11137   4.345   5.526   3.190  0.9545  0.9555  0.2831
  842MOL0     H11138   4.531   5.601   3.038 -0.6528  0.5901  1.8435
  842MOL0     H11139   4.375   5.658   3.018  2.7891  2.0908  1.0179
  842MOL0     H11140   4.328   5.514   2.819 -1.3386  1.3674  0.0323
  842MOL0     H11141   4.453   5.642   2.800 -3.6914  1.4304  1.6272
  842MOL0     H11142   4.654   5.261   2.764  1.3041  0.4948  0.2469
  842MOL0     H11143   4.389   5.151   3.469 -0.6721  0.2585 -0.2212
  842MOL0     H11144   4.205   4.996   3.475 -1.8600  1.0266 -0.3208
  843MOL0     O11145   2.728   3.933   9.118 -0.2273 -0.0987 -0.1407
  843MOL0     C11146   2.746   4.041   9.169 -0.7096 -0.9087  0.2161
  843MOL0     O11147   2.668   4.145   9.159  0.4158 -0.4435  0.4444
  843MOL0     C11148   2.547   4.149   9.087 -0.8379  0.2120 -0.9934
  843MOL0     C11149   2.539   4.244   8.990 -0.5288  0.3988 -0.2393
  843MOL0     C11150   2.421   4.256   8.918  0.0963  0.4821 -0.4823
  843MOL0     C11151   2.315   4.164   8.942  0.1031 -0.3094 -0.3243
  843MOL0     O11152   2.189   4.186   8.884 -0.3119  0.3442  0.2237
  843MOL0     C11153   2.166   4.133   8.758  0.2691  1.2179  0.1042
  843MOL0     C11154   2.028   4.061   8.744  0.4720  0.4386  0.2437
  843MOL0     C11155   1.920   4.166   8.697 -0.1709 -0.3174 -0.0764
  843MOL0     C11156   1.818   4.101   8.597  0.3464  0.1485 -0.2928
  843MOL0     C11157   1.712   4.198   8.534  0.6787 -0.6964  0.3383
  843MOL0     C11158   1.607   4.258   8.639  0.1785 -0.6439  0.1870
  843MOL0     C11159   1.490   4.324   8.574  0.0152 -0.1496 -0.2430
  843MOL0     C11160   1.406   4.217   8.496  0.1711  0.4602  0.0084
  843MOL0     N11161   1.270   4.261   8.512  0.2085 -0.1694  0.3642
  843MOL0     C11162   1.194   4.251   8.623 -0.4556  0.8183  0.2560
  843MOL0     C11163   1.069   4.303   8.588  0.2392  0.8492 -0.7237
  843MOL0     C11164   0.958   4.333   8.688  0.0121 -0.5213 -0.2936
  843MOL0     C11165   0.978   4.473   8.738  0.5044 -0.3693 -0.2600
  843MOL0     C11166   0.904   4.501   8.877 -0.3358  0.0900  0.2066
  843MOL0     C11167   0.758   4.458   8.888  0.0864 -0.5590 -0.4085
  843MOL0     O11168   0.673   4.523   8.797  0.1955  0.4706  0.1217
  843MOL0     C11169   0.542   4.541   8.828 -0.4066 -0.1582 -1.6855
  843MOL0     C11170   0.470   4.621   8.743 -0.3938  0.4247  0.4220
  843MOL0     C11171   0.331   4.638   8.755 -0.1620 -0.8127  0.5791
  843MOL0     C11172   0.260   4.594   8.873 -0.3630  0.2381 -0.0581
  843MOL0     C11173   0.109   4.590   8.880 -1.0045  1.0150 -0.0065
  843MOL0     O11174   0.042   4.539   8.988  0.4768  0.1154 -0.3388
  843MOL0     C11175  -0.086   4.575   9.013  0.9256  0.4615  0.2647
  843MOL0     C11176  -0.191   4.485   9.047  0.0052  0.4796  0.5123
  843MOL0     C11177  -0.310   4.535   9.091  1.0119  0.4567  0.1877
  843MOL0     C11178  -0.344   4.665   9.109 -0.3648  0.8052 -0.7879
  843MOL0     O11179  -0.470   4.711   9.133  0.1370  0.1918 -0.1164
  843MOL0     C11180  -0.555   4.678   9.020  0.0010  0.8344 -0.2386
  843MOL0     C11181  -0.676   4.604   9.083 -1.4412 -1.1961 -0.2866
  843MOL0     C11182  -0.750   4.703   9.177 -0.5398 -0.0281 -0.3565
  843MOL0     C11183  -0.885   4.634   9.204 -0.2737 -0.3708  0.5738
  843MOL0     C11184  -0.972   4.719   9.301 -0.7450  0.8172 -0.1769
  843MOL0     C11185  -1.101   4.653   9.337 -0.0778  0.0905 -0.1224
  843MOL0     C11186  -1.229   4.723   9.271 -1.0864  0.8705  0.2341
  843MOL0     C11187  -1.359   4.634   9.294 -0.5702  0.6358  0.8215
  843MOL0    Cl11188  -1.409   4.587   9.465  0.3660  0.3898  0.2994
  843MOL0     C11189  -0.238   4.752   9.081  0.6183  0.6995 -1.1422
  843MOL0     C11190  -0.112   4.713   9.035 -0.5907 -0.2751 -0.2212
  843MOL0     O11191   0.058   4.651   8.789  0.5491  0.8643 -0.1447
  843MOL0     C11192   0.340   4.526   8.968 -0.0036 -0.8250  0.7264
  843MOL0     C11193   0.478   4.500   8.946  0.6115  0.0149  0.5586
  843MOL0     N11194   1.071   4.332   8.458 -1.0579 -0.8108  0.0398
  843MOL0     N11195   1.193   4.318   8.414  0.4352 -1.2705 -0.8338
  843MOL0     C11196   2.324   4.071   9.051 -0.3279 -0.2025 -0.1261
  843MOL0     C11197   2.441   4.065   9.128  0.4490 -1.2356 -0.5264
  843MOL0     C11198   2.875   4.071   9.219  0.5669  0.2948 -0.7978
  843MOL0     C11199   2.975   3.968   9.222  0.8383  0.8793  0.0134
  843MOL0     C11200   3.095   3.981   9.292 -0.8453  0.6604 -0.4403
  843MOL0     C11201   3.126   4.094   9.362 -0.1481 -0.3272  0.0592
  843MOL0     O11202   3.245   4.113   9.426  0.0198 -0.6281 -0.9350
  843MOL0     C11203   3.324   4.002   9.469  1.6121  0.0693 -0.2525
  843MOL0     C11204   3.441   3.960   9.378 -0.0120 -1.4662  0.2442
  843MOL0     C11205   3.533   4.074   9.315 -0.0113 -0.6577  0.3134
  843MOL0     C11206   3.672   4.095   9.369 -0.7609 -1.0123 -0.5363
  843MOL0     C11207   3.665   4.084   9.512  0.5976 -0.0147 -0.8449
  843MOL0     C11208   3.657   4.081   9.637  0.8144 -0.2133  0.2138
  843MOL0     C11209   3.038   4.207   9.355 -0.1574  0.7490  0.3335
  843MOL0     C11210   2.917   4.184   9.287 -1.1131 -0.6087  0.0866
  843MOL0     H11211   2.633   4.295   8.974  0.6039 -1.1585  1.0779
  843MOL0     H11212   2.410   4.318   8.830 -1.2528  0.3929 -0.3988
  843MOL0     H11213   2.250   4.065   8.739  1.2879  2.0149  1.5915
  843MOL0     H11214   2.175   4.203   8.674  0.4623 -0.7485 -1.6138
  843MOL0     H11215   1.992   4.016   8.838 -0.7180 -0.9966 -0.8456
  843MOL0     H11216   2.032   3.977   8.674  0.8738  0.0289  0.7489
  843MOL0     H11217   1.973   4.247   8.647  1.4243 -2.3208 -1.8349
  843MOL0     H11218   1.871   4.210   8.785 -1.2635 -1.2305 -0.2074
  843MOL0     H11219   1.870   4.054   8.512  0.5218  2.2274 -1.3963
  843MOL0     H11220   1.769   4.018   8.649 -0.0987  1.3727  1.3028
  843MOL0     H11221   1.655   4.127   8.473  1.6354 -1.1747 -0.0105
  843MOL0     H11222   1.755   4.276   8.472  0.5784  0.0001  1.1165
  843MOL0     H11223   1.654   4.335   8.702 -1.6451 -1.5265  2.7989
  843MOL0     H11224   1.581   4.173   8.703 -0.9207 -0.8542 -0.5184
  843MOL0     H11225   1.436   4.380   8.650 -3.5056 -1.7924 -1.3453
  843MOL0     H11226   1.519   4.399   8.499 -3.5975  1.1046 -0.5558
  843MOL0     H11227   1.406   4.115   8.536  2.2059  1.2739  2.3621
  843MOL0     H11228   1.422   4.210   8.388  0.9393 -0.3688  0.1626
  843MOL0     H11229   1.227   4.232   8.725 -0.4004  0.9814  0.2686
  843MOL0     H11230   0.979   4.260   8.767  0.6291  0.2842  0.3168
  843MOL0     H11231   0.857   4.319   8.647 -0.2773  0.7372 -0.0548
  843MOL0     H11232   0.949   4.543   8.659  2.9071  1.0709  0.0488
  843MOL0     H11233   1.083   4.493   8.760  0.1491 -1.2791  2.7575
  843MOL0     H11234   0.956   4.460   8.965 -1.2764  2.3968  1.9528
  843MOL0     H11235   0.908   4.610   8.884 -3.6072  0.2305  1.5884
  843MOL0     H11236   0.725   4.482   8.990 -2.3551 -0.2454 -1.1950
  843MOL0     H11237   0.744   4.350   8.878  1.5916 -0.6325 -2.2126
  843MOL0     H11238   0.526   4.645   8.652  1.3456 -0.3006  1.2533
  843MOL0     H11239   0.271   4.692   8.682 -0.8143 -1.7129  0.4337
  843MOL0     H11240  -0.168   4.379   9.048 -4.1890 -0.6384  2.2127
  843MOL0     H11241  -0.391   4.467   9.110  1.8875 -1.3096 -1.9392
  843MOL0     H11242  -0.510   4.614   8.943  0.8170  0.9694  0.1184
  843MOL0     H11243  -0.569   4.774   8.969 -0.9646  1.0162  0.3503
  843MOL0     H11244  -0.646   4.509   9.129  0.4114 -0.6110 -0.2147
  843MOL0     H11245  -0.735   4.572   8.997 -2.1388 -1.4752  0.2780
  843MOL0     H11246  -0.761   4.805   9.139  3.0098  1.3966  1.8771
  843MOL0     H11247  -0.684   4.712   9.264 -0.9369 -2.3744  0.2483
  843MOL0     H11248  -0.936   4.622   9.108 -0.2226 -0.4559  0.5564
  843MOL0     H11249  -0.866   4.534   9.243 -1.2906 -0.8594 -0.1386
  843MOL0     H11250  -0.978   4.821   9.263  0.8513  0.1220 -2.4965
  843MOL0     H11251  -0.913   4.728   9.393 -1.5970  1.5969  0.3075
  843MOL0     H11252  -1.117   4.642   9.445  2.3805 -2.5095  0.0939
  843MOL0     H11253  -1.096   4.549   9.304  3.0408  0.8214 -2.3768
  843MOL0     H11254  -1.235   4.823   9.315  0.6291  0.4698  1.4751
  843MOL0     H11255  -1.203   4.735   9.166  0.5413 -0.9482  0.3823
  843MOL0     H11256  -1.332   4.541   9.244 -1.4124  0.8682 -0.1098
  843MOL0     H11257  -1.446   4.675   9.242  1.3497  0.8852 -2.4413
  843MOL0     H11258  -0.247   4.860   9.072  0.2032  0.5123 -3.6497
  843MOL0     H11259  -0.036   4.788   9.018 -1.8929  0.8144 -1.4837
  843MOL0     H11260   0.302   4.495   9.064 -0.8679  2.6975  1.6655
  843MOL0     H11261   0.536   4.443   9.018  0.6366 -0.9224 -0.1847
  843MOL0     H11262   2.244   3.998   9.066 -0.1024 -0.4832 -0.2803
  843MOL0     H11263   2.454   3.984   9.199 -1.5396 -2.5088 -1.5378
  843MOL0     H11264   2.947   3.870   9.186  3.2421 -0.0617  0.5097
  843MOL0     H11265   3.172   3.904   9.285  0.6604  2.2348 -3.5965
  843MOL0     H11266   3.263   3.913   9.487  2.9060 -0.6535  0.8329
  843MOL0     H11267   3.360   4.022   9.571 -1.9492 -0.4805  1.2778
  843MOL0     H11268   3.504   3.883   9.424  1.2650 -0.5977  0.0189
  843MOL0     H11269   3.397   3.909   9.292 -0.7382 -0.6980  0.1478
  843MOL0     H11270   3.467   4.161   9.328 -0.5468 -0.9574 -0.3170
  843MOL0     H11271   3.539   4.058   9.207 -0.2961 -0.3806  0.2538
  843MOL0     H11272   3.751   4.026   9.339  1.1979  1.9988 -2.9820
  843MOL0     H11273   3.708   4.192   9.331 -1.5824  0.0896  1.3384
  843MOL0     H11274   3.653   4.069   9.744 -0.3643  1.2542  0.3786
  843MOL0     H11275   3.077   4.298   9.400  2.9085 -0.4354  0.3532
  843MOL0     H11276   2.840   4.261   9.289 -0.3493  0.1621  0.8355
  844MOL0     O11277  10.717  11.151   1.105 -0.6923  0.7266 -0.8255
  844MOL0     C11278  10.690  11.031   1.104  0.7753 -0.7290 -0.1560
  844MOL0     O11279  10.569  10.986   1.064 -0.0350 -0.6088  0.0173
  844MOL0     C11280  10.458  11.079   1.046  0.0186 -0.7654  0.1147
  844MOL0     C11281  10.469  11.185   0.955  0.0330  0.2590 -0.1093
  844MOL0     C11282  10.366  11.282   0.941  0.7492  0.5992 -0.7429
  844MOL0     C11283  10.239  11.275   1.012 -0.1975 -0.9480 -1.1127
  844MOL0     O11284  10.132  11.363   1.001 -0.9129 -0.1717 -0.6962
  844MOL0     C11285  10.056  11.341   0.881 -0.5064  0.1826 -0.9179
  844MOL0     C11286   9.925  11.285   0.934  0.6572 -0.8517 -0.1998
  844MOL0     C11287   9.831  11.388   0.987 -0.8111 -0.2829  0.5722
  844MOL0     C11288   9.696  11.328   0.981  0.8685  0.4954 -0.4187
  844MOL0     C11289   9.609  11.410   1.077 -0.6918  0.5519 -0.2499
  844MOL0     C11290   9.481  11.340   1.096  0.2921 -0.0090 -0.0426
  844MOL0     C11291   9.386  11.345   0.971  0.0345  0.8986 -0.1399
  844MOL0     C11292   9.264  11.254   1.005 -0.4922  0.4107  0.4277
  844MOL0     N11293   9.293  11.116   1.037  0.3006  0.5207  0.5850
  844MOL0     C11294   9.297  11.054   1.158 -0.0408  0.0503 -0.5087
  844MOL0     C11295   9.356  10.937   1.137 -0.0892 -0.1749  0.0898
  844MOL0     C11296   9.376  10.838   1.240 -0.3502  0.5770  0.0489
  844MOL0     C11297   9.527  10.826   1.287  1.1752 -0.7345  0.2225
  844MOL0     C11298   9.625  10.772   1.180 -0.3376  0.0131 -0.3747
  844MOL0     C11299   9.760  10.736   1.240  0.5698  0.2883 -0.2375
  844MOL0     O11300   9.837  10.848   1.272  0.5684  0.3207  0.0286
  844MOL0     C11301   9.957  10.831   1.329  0.2018  1.3759 -0.1219
  844MOL0     C11302  10.028  10.710   1.341 -0.8003 -0.2580  1.0923
  844MOL0     C11303  10.166  10.711   1.372  0.0003 -0.0343  0.9245
  844MOL0     C11304  10.237  10.832   1.403 -0.2171  0.0338 -0.1551
  844MOL0     C11305  10.384  10.833   1.426 -0.1887  0.2985  0.3279
  844MOL0     O11306  10.433  10.948   1.457 -0.8394  0.5317  0.0647
  844MOL0     C11307  10.571  10.944   1.497 -0.1783 -0.3075 -0.1293
  844MOL0     C11308  10.658  11.032   1.429  1.0080  0.2903 -0.1566
  844MOL0     C11309  10.787  11.029   1.468  0.0945  0.6121  0.3688
  844MOL0     C11310  10.846  10.951   1.568  0.6238 -0.5362  0.5256
  844MOL0     O11311  10.983  10.957   1.574 -0.3165  0.3016  0.1409
  844MOL0     C11312  11.045  10.850   1.651  1.0435 -0.5318  0.3502
  844MOL0     C11313  11.176  10.901   1.706  0.6991 -0.7807 -0.2982
  844MOL0     C11314  11.269  10.945   1.594 -0.3099  0.9380  0.1244
  844MOL0     C11315  11.412  10.943   1.651 -0.3513 -0.2735  0.5454
  844MOL0     C11316  11.512  11.019   1.563 -0.4986 -0.0952  0.5361
  844MOL0     C11317  11.626  11.072   1.652  0.2492  0.5800  0.1021
  844MOL0     C11318  11.730  11.147   1.568 -0.0959 -0.8005  0.2001
  844MOL0     C11319  11.858  11.145   1.632  0.1571 -0.6834  0.0776
  844MOL0    Cl11320  11.971  11.237   1.532 -0.1677  0.1829 -0.0929
  844MOL0     C11321  10.753  10.864   1.638 -1.0090  0.4634  0.1032
  844MOL0     C11322  10.618  10.860   1.601  0.2786  0.5898 -0.2680
  844MOL0     O11323  10.449  10.734   1.401  0.3330 -0.6525 -0.0785
  844MOL0     C11324  10.160  10.953   1.395  0.3880 -0.7720  0.0386
  844MOL0     C11325  10.027  10.956   1.365  0.1702 -0.2938 -0.3513
  844MOL0     N11326   9.384  10.921   1.001  0.0244  0.1661 -0.4211
  844MOL0     N11327   9.341  11.026   0.946  0.1916 -0.0512 -0.5501
  844MOL0     C11328  10.230  11.163   1.103  0.6254  0.3186 -1.0148
  844MOL0     C11329  10.335  11.071   1.112 -0.5048  0.0929 -0.0773
  844MOL0     C11330  10.799  10.940   1.139 -0.9302  0.2090  1.2198
  844MOL0     C11331  10.934  10.977   1.146 -0.4902 -0.1220  0.7751
  844MOL0     C11332  11.028  10.882   1.193 -0.9833 -0.7264  0.3250
  844MOL0     C11333  10.996  10.750   1.226  0.7495  0.7621 -0.4475
  844MOL0     O11334  11.082  10.652   1.257 -0.3482  0.1317  0.0318
  844MOL0     C11335  11.198  10.650   1.178  0.2084 -0.3419 -0.5762
  844MOL0     C11336  11.249  10.521   1.135  0.1513  0.7753 -0.3618
  844MOL0     C11337  11.385  10.527   1.067 -0.4879  0.3830 -0.4552
  844MOL0     C11338  11.480  10.410   1.096 -0.6094  0.2000  0.2006
  844MOL0     C11339  11.613  10.451   1.063  0.2009 -0.3732  0.5162
  844MOL0     C11340  11.730  10.483   1.037  0.5053 -0.3220 -0.1190
  844MOL0     C11341  10.864  10.706   1.223 -1.0113 -0.5815 -0.2134
  844MOL0     C11342  10.767  10.807   1.181 -0.3214  0.5631  0.1869
  844MOL0     H11343  10.558  11.188   0.893 -0.3682  3.0778 -0.6891
  844MOL0     H11344  10.401  11.357   0.870 -2.4164  3.9331  0.9100
  844MOL0     H11345  10.112  11.268   0.822  1.2719  0.1606  0.6962
  844MOL0     H11346  10.040  11.435   0.826 -0.6739  3.5507  4.2261
  844MOL0     H11347   9.938  11.208   1.011 -0.9573 -0.4325  0.5266
  844MOL0     H11348   9.881  11.235   0.847 -0.6792  2.7219 -1.7680
  844MOL0     H11349   9.851  11.483   0.936 -1.0191  0.3176  1.5619
  844MOL0     H11350   9.870  11.420   1.084  0.2805  0.7747 -0.1840
  844MOL0     H11351   9.666  11.338   0.877  1.7393  3.1962 -0.4820
  844MOL0     H11352   9.690  11.222   1.010  2.6495  0.6161  0.5421
  844MOL0     H11353   9.598  11.511   1.034  0.3615  0.0324 -1.8517
  844MOL0     H11354   9.658  11.404   1.175 -0.1721 -3.1792 -0.5892
  844MOL0     H11355   9.427  11.398   1.171 -0.7531  0.1960 -0.9203
  844MOL0     H11356   9.491  11.240   1.138  3.1722  0.6521  1.0617
  844MOL0     H11357   9.345  11.442   0.941 -4.4826 -0.2759  1.3406
  844MOL0     H11358   9.431  11.285   0.891 -0.7524 -0.9281  0.7099
  844MOL0     H11359   9.208  11.265   0.912  2.4653 -1.3441 -1.7426
  844MOL0     H11360   9.203  11.290   1.088 -2.0811 -1.2541  0.0325
  844MOL0     H11361   9.264  11.093   1.254  2.9027  0.5493  0.4099
  844MOL0     H11362   9.337  10.740   1.212 -1.6999  1.3198 -0.8019
  844MOL0     H11363   9.316  10.860   1.328  0.7144  2.2287  0.3985
  844MOL0     H11364   9.530  10.765   1.377 -0.8945 -1.0398  0.1188
  844MOL0     H11365   9.565  10.928   1.300 -0.4390  0.1967 -1.7545
  844MOL0     H11366   9.580  10.689   1.125 -0.4371  1.1625 -2.0958
  844MOL0     H11367   9.643  10.857   1.114 -0.1817  0.3219  0.0567
  844MOL0     H11368   9.818  10.687   1.161  1.9813  2.6323 -0.7714
  844MOL0     H11369   9.751  10.666   1.323  0.3326 -0.3669 -0.7976
  844MOL0     H11370   9.977  10.615   1.333 -0.0515 -0.6786  1.1737
  844MOL0     H11371  10.210  10.611   1.379 -0.4601 -0.2618  0.5664
  844MOL0     H11372  10.615  11.080   1.341  1.4069 -1.7489 -1.5518
  844MOL0     H11373  10.852  11.099   1.417 -1.5723  1.8134 -0.1822
  844MOL0     H11374  11.055  10.764   1.585 -1.7531  0.3625 -1.3945
  844MOL0     H11375  10.989  10.822   1.742  0.7378 -1.6529 -0.1639
  844MOL0     H11376  11.213  10.820   1.769 -0.5308 -1.7435 -0.7738
  844MOL0     H11377  11.155  10.983   1.775 -0.6102 -0.9024 -0.5284
  844MOL0     H11378  11.240  11.048   1.575 -1.0518  0.7426  0.1937
  844MOL0     H11379  11.249  10.882   1.507  1.9338 -2.7760  2.0054
  844MOL0     H11380  11.419  10.993   1.748  1.4412 -0.1949  0.4100
  844MOL0     H11381  11.442  10.839   1.666 -3.0838 -0.9789  1.9459
  844MOL0     H11382  11.472  11.110   1.517 -0.3867 -1.0072 -1.4722
  844MOL0     H11383  11.551  10.956   1.482 -0.4746  1.3113 -0.5875
  844MOL0     H11384  11.670  10.988   1.706 -0.3223  1.1059  1.4460
  844MOL0     H11385  11.569  11.130   1.726 -1.9889  0.2124 -1.2326
  844MOL0     H11386  11.736  11.098   1.471 -1.1696 -1.0773  0.2619
  844MOL0     H11387  11.680  11.245   1.565 -1.9865 -1.7471 -1.7332
  844MOL0     H11388  11.892  11.043   1.650 -1.5704 -1.4612 -0.9137
  844MOL0     H11389  11.843  11.197   1.727  3.6238  0.1220  0.3453
  844MOL0     H11390  10.794  10.798   1.714  0.3534  2.0971  0.8737
  844MOL0     H11391  10.546  10.794   1.650  1.1800 -0.1547  0.0951
  844MOL0     H11392  10.205  11.047   1.426  2.0261 -0.7526 -2.1709
  844MOL0     H11393   9.975  11.051   1.371  2.8284  1.1535  1.9756
  844MOL0     H11394  10.140  11.147   1.162  1.3964 -0.0227  0.1219
  844MOL0     H11395  10.322  10.978   1.166 -2.8196 -1.2744 -2.7303
  844MOL0     H11396  10.969  11.078   1.127 -2.5180  0.9805  2.5258
  844MOL0     H11397  11.130  10.910   1.217 -0.8918  0.6605 -1.4433
  844MOL0     H11398  11.275  10.698   1.239  1.3695 -3.0829  0.2415
  844MOL0     H11399  11.187  10.706   1.085 -2.9274  0.3736  0.0937
  844MOL0     H11400  11.261  10.451   1.219  2.2426 -0.4653 -1.5902
  844MOL0     H11401  11.180  10.473   1.065  1.0571 -1.8925  0.4220
  844MOL0     H11402  11.430  10.620   1.100 -0.9691  1.0618 -1.6363
  844MOL0     H11403  11.363  10.536   0.960 -0.8564 -0.9200 -0.5057
  844MOL0     H11404  11.484  10.391   1.204  0.8068  2.5542  0.6528
  844MOL0     H11405  11.457  10.321   1.038  2.7211 -1.5592  1.3057
  844MOL0     H11406  11.837  10.494   1.041  0.3585  1.3661 -0.0689
  844MOL0     H11407  10.849  10.601   1.248  2.0626 -1.2689 -0.8101
  844MOL0     H11408  10.666  10.769   1.193 -0.4376  1.3175  1.7831
  845MOL0     O11409   2.782  10.643   5.101  0.4713  0.8545  0.3434
  845MOL0     C11410   2.805  10.622   5.220  0.0864  0.2945 -1.6646
  845MOL0     O11411   2.732  10.535   5.303 -0.2761 -0.1907 -0.6199
  845MOL0     C11412   2.629  10.464   5.253  0.5666 -0.0984  0.1268
  845MOL0     C11413   2.635  10.324   5.237 -0.4409  0.1307 -0.1498
  845MOL0     C11414   2.536  10.254   5.171 -0.0816 -0.0271  0.9130
  845MOL0     C11415   2.418  10.326   5.127  0.3644  1.2269 -1.2130
  845MOL0     O11416   2.308  10.272   5.064  0.0206  0.0128 -0.2442
  845MOL0     C11417   2.335  10.173   4.956 -0.0073 -0.3007 -1.0714
  845MOL0     C11418   2.246  10.055   4.960 -0.1550 -0.3778  0.4143
  845MOL0     C11419   2.104  10.082   4.937  0.2825 -1.4332  0.2814
  845MOL0     C11420   2.023   9.959   4.923 -0.2039 -0.5373 -0.2030
  845MOL0     C11421   1.882   9.995   4.871  0.0116  0.7194  0.1379
  845MOL0     C11422   1.792   9.872   4.911  0.7664  0.0607  0.9348
  845MOL0     C11423   1.662   9.877   4.832  0.2110 -0.3468 -0.4902
  845MOL0     C11424   1.663   9.797   4.712  0.0340  0.0551 -0.0111
  845MOL0     N11425   1.527   9.765   4.663  0.3367  0.1354 -0.3187
  845MOL0     C11426   1.433   9.856   4.635  0.8595 -1.4591 -0.1045
  845MOL0     C11427   1.331   9.783   4.583  0.6416 -0.3136  0.1761
  845MOL0     C11428   1.203   9.842   4.517 -0.2687 -0.9353 -0.3953
  845MOL0     C11429   1.075   9.847   4.610 -0.0080 -0.3434 -0.0750
  845MOL0     C11430   1.080   9.966   4.709  0.0880  0.3135 -0.4103
  845MOL0     C11431   1.018   9.944   4.852  0.5621 -0.0008  0.2119
  845MOL0     O11432   1.064  10.050   4.933  0.3755  1.1944 -0.2432
  845MOL0     C11433   1.157  10.021   5.031  0.0746  0.7488  0.1117
  845MOL0     C11434   1.177  10.132   5.114  0.2689 -0.2922  0.6550
  845MOL0     C11435   1.274  10.130   5.205 -0.3227  0.6202 -0.1866
  845MOL0     C11436   1.368  10.024   5.207  0.1339  0.4088  0.0886
  845MOL0     C11437   1.478  10.027   5.304 -0.2991  1.1067  0.0116
  845MOL0     O11438   1.553   9.913   5.302 -0.1678 -0.7550  0.2822
  845MOL0     C11439   1.666   9.909   5.376 -0.0971  0.3478 -0.2185
  845MOL0     C11440   1.669   9.945   5.515  0.8618 -0.4042 -0.9519
  845MOL0     C11441   1.781   9.922   5.597  0.3406 -0.1111 -0.4142
  845MOL0     C11442   1.899   9.886   5.539  0.2459  0.8450  0.9434
  845MOL0     O11443   2.020   9.884   5.608  0.6490 -0.1220  0.2451
  845MOL0     C11444   2.042   9.960   5.720  0.1149 -1.0165 -0.2926
  845MOL0     C11445   2.182   9.917   5.766 -0.1272  0.4817 -0.4845
  845MOL0     C11446   2.204   9.966   5.910 -1.0920 -0.6970  0.3542
  845MOL0     C11447   2.335   9.908   5.961 -1.0043 -0.3120 -0.8884
  845MOL0     C11448   2.451   9.959   5.882 -1.1219 -0.2363  0.3106
  845MOL0     C11449   2.573   9.987   5.970 -0.3268  0.3517 -0.2709
  845MOL0     C11450   2.702  10.038   5.893  0.2557  0.5696 -0.1281
  845MOL0     C11451   2.828  10.040   5.975  0.3452 -0.0328 -0.9095
  845MOL0    Cl11452   2.813  10.158   6.113 -0.1211  0.1266 -0.0711
  845MOL0     C11453   1.903   9.850   5.400  0.2321 -0.3909  0.7321
  845MOL0     C11454   1.785   9.855   5.322  0.6500  0.4144 -0.2842
  845MOL0     O11455   1.502  10.122   5.372 -0.6913 -0.7101 -0.6073
  845MOL0     C11456   1.350   9.910   5.122 -0.4602 -0.2147 -0.3098
  845MOL0     C11457   1.241   9.907   5.036  0.0158  0.7083  0.9952
  845MOL0     N11458   1.358   9.650   4.589 -0.3314  0.3571  0.0306
  845MOL0     N11459   1.485   9.643   4.622 -0.5361  0.3560  0.5048
  845MOL0     C11460   2.407  10.462   5.140 -0.3647 -0.0816 -0.6373
  845MOL0     C11461   2.513  10.535   5.210  0.8359  0.4345  0.6583
  845MOL0     C11462   2.922  10.691   5.269  0.0267  0.0038  0.7638
  845MOL0     C11463   2.984  10.663   5.384 -0.2399  0.5047 -0.5221
  845MOL0     C11464   3.089  10.734   5.436  0.0388  0.3502  0.6125
  845MOL0     C11465   3.141  10.843   5.365  0.6851 -0.8100 -0.4330
  845MOL0     O11466   3.231  10.928   5.435  0.5207  0.1074 -0.1520
  845MOL0     C11467   3.247  11.067   5.380  0.0889 -0.1557 -1.5392
  845MOL0     C11468   3.125  11.142   5.434  0.5415 -0.4659 -1.0987
  845MOL0     C11469   3.123  11.193   5.583 -0.3437 -1.1415  0.5819
  845MOL0     C11470   3.073  11.078   5.672 -0.4126  0.2128 -0.0848
  845MOL0     C11471   3.048  11.113   5.815  0.9309  0.2226  0.2825
  845MOL0     C11472   3.041  11.152   5.933  0.7933 -0.8230  0.7405
  845MOL0     C11473   3.081  10.872   5.245 -0.9206 -0.2715 -0.8881
  845MOL0     C11474   2.975  10.796   5.195 -0.3393  0.2061  0.3869
  845MOL0     H11475   2.727  10.271   5.261 -0.7239  0.1592  1.0273
  845MOL0     H11476   2.541  10.146   5.165 -5.4448 -0.7557  3.5168
  845MOL0     H11477   2.436  10.133   4.965 -0.2896 -0.7679  0.4426
  845MOL0     H11478   2.332  10.216   4.856  1.9812 -2.1540 -2.0064
  845MOL0     H11479   2.249   9.998   5.053 -1.5428  0.5896  1.0873
  845MOL0     H11480   2.271   9.980   4.883  0.9688 -0.5510  0.9226
  845MOL0     H11481   2.104  10.140   4.845 -1.3864  1.5200  1.9647
  845MOL0     H11482   2.055  10.149   5.009 -0.3491  4.0763 -4.5396
  845MOL0     H11483   2.075   9.894   4.853  0.9498 -0.9026  0.9501
  845MOL0     H11484   2.016   9.902   5.016  1.0775  0.4768  0.5514
  845MOL0     H11485   1.888  10.012   4.763 -0.0496  0.6822  0.1286
  845MOL0     H11486   1.835  10.085   4.910  1.0019  1.9952 -1.4765
  845MOL0     H11487   1.764   9.876   5.016  0.2745 -1.8462  0.9099
  845MOL0     H11488   1.848   9.778   4.899 -0.3800 -0.4653 -0.7646
  845MOL0     H11489   1.602   9.817   4.900  0.9684 -0.4900  0.0737
  845MOL0     H11490   1.618   9.976   4.824  4.8833  2.1404  0.8082
  845MOL0     H11491   1.708   9.702   4.741 -1.4043 -0.5108  0.4644
  845MOL0     H11492   1.724   9.839   4.631 -0.8575 -0.1715 -0.8157
  845MOL0     H11493   1.435   9.963   4.623  0.5614 -1.3755  0.5581
  845MOL0     H11494   1.188   9.786   4.424 -0.7884 -0.5846 -0.5258
  845MOL0     H11495   1.232   9.938   4.473 -2.4679 -0.4665 -0.9546
  845MOL0     H11496   1.071   9.753   4.665 -0.5265 -0.3602 -0.1329
  845MOL0     H11497   0.987   9.862   4.547  1.1012  1.7948 -1.2284
  845MOL0     H11498   1.184  10.000   4.712 -0.1787  1.3489 -1.8498
  845MOL0     H11499   1.026  10.050   4.667 -1.8221 -1.9715 -2.8740
  845MOL0     H11500   1.053   9.848   4.891  1.2731  0.2389  0.1694
  845MOL0     H11501   0.909   9.940   4.855  0.5535 -0.3599 -0.3526
  845MOL0     H11502   1.105  10.213   5.107 -0.0003 -0.6764 -2.4170
  845MOL0     H11503   1.275  10.219   5.268  2.4744 -0.3943  1.3959
  845MOL0     H11504   1.580   9.971   5.571  1.1555  1.0993 -1.1483
  845MOL0     H11505   1.775   9.965   5.697  1.8211  2.2544 -1.2653
  845MOL0     H11506   1.975   9.935   5.802 -2.7413 -0.1470 -2.2084
  845MOL0     H11507   2.032  10.066   5.695  1.5772 -0.3424  1.7303
  845MOL0     H11508   2.257   9.940   5.689  2.2915 -2.3333  0.8319
  845MOL0     H11509   2.186   9.808   5.760 -0.3028  0.5534 -4.1305
  845MOL0     H11510   2.121   9.935   5.975 -3.1256 -1.0805 -2.2460
  845MOL0     H11511   2.214  10.074   5.907 -0.0772 -0.7910 -2.1710
  845MOL0     H11512   2.342   9.945   6.063 -1.1821  0.1022 -1.0215
  845MOL0     H11513   2.342   9.799   5.966  2.1769 -0.1624 -0.0658
  845MOL0     H11514   2.424  10.054   5.836 -0.0808 -1.5017 -3.1747
  845MOL0     H11515   2.474   9.887   5.803 -1.3627  0.6469 -0.5720
  845MOL0     H11516   2.604   9.899   6.028  0.0426  0.0185 -0.9569
  845MOL0     H11517   2.546  10.072   6.033 -4.9290 -0.2868 -1.0352
  845MOL0     H11518   2.727   9.986   5.800 -0.0838  2.1071 -1.1150
  845MOL0     H11519   2.688  10.143   5.865 -1.4300  0.6583  0.9460
  845MOL0     H11520   2.913  10.068   5.913  1.1021  0.5229  0.3493
  845MOL0     H11521   2.846   9.944   6.024  3.8772  1.9391  2.1631
  845MOL0     H11522   1.994   9.831   5.344 -0.5443  2.1126 -1.5970
  845MOL0     H11523   1.769   9.824   5.220 -1.7473  1.1850 -0.2147
  845MOL0     H11524   1.427   9.833   5.113 -1.0919 -0.6905 -1.9985
  845MOL0     H11525   1.242   9.827   4.963  3.0015  1.6439 -0.1417
  845MOL0     H11526   2.317  10.508   5.099  0.1033  2.2737  0.7956
  845MOL0     H11527   2.506  10.643   5.219  4.9473  1.0673 -1.3760
  845MOL0     H11528   2.954  10.568   5.427  0.5526 -0.5829 -2.2360
  845MOL0     H11529   3.130  10.695   5.529 -0.2342 -0.3982  0.4280
  845MOL0     H11530   3.245  11.073   5.270 -0.8261 -0.1650 -1.5320
  845MOL0     H11531   3.334  11.118   5.422 -0.1356 -2.1173  1.6299
  845MOL0     H11532   3.119  11.233   5.372 -2.9856 -2.7736 -4.6406
  845MOL0     H11533   3.027  11.094   5.432  0.6273 -0.6449 -1.0158
  845MOL0     H11534   3.056  11.279   5.595  1.9749  0.8476  0.1329
  845MOL0     H11535   3.222  11.223   5.619 -1.1371  1.4980  0.7627
  845MOL0     H11536   2.986  11.024   5.633 -0.5450  0.7263 -0.5129
  845MOL0     H11537   3.147  10.997   5.682 -2.3904 -1.5136  1.6628
  845MOL0     H11538   3.035  11.189   6.033 -0.7869 -1.0182  0.7429
  845MOL0     H11539   3.113  10.961   5.191 -0.8731  0.3505  0.1373
  845MOL0     H11540   2.927  10.816   5.101  1.8244 -1.7611 -1.2570
  846MOL0     O11541   3.698   3.824   9.050  0.3270 -0.6277 -0.2653
  846MOL0     C11542   3.704   3.757   9.152 -0.3056 -0.4597  0.4977
  846MOL0     O11543   3.612   3.665   9.190 -0.6253  0.4520  0.3996
  846MOL0     C11544   3.483   3.642   9.134 -0.5897  0.3473 -0.2564
  846MOL0     C11545   3.436   3.507   9.163 -0.6284  0.4936 -0.0430
  846MOL0     C11546   3.315   3.471   9.114  0.0330 -0.4920  0.4617
  846MOL0     C11547   3.238   3.558   9.037  0.0811  0.1319  0.8674
  846MOL0     O11548   3.118   3.506   8.995 -0.2869  0.3971 -0.1011
  846MOL0     C11549   3.039   3.574   8.899  0.6846 -0.8171  0.8243
  846MOL0     C11550   2.905   3.498   8.864 -0.4269  1.1372  0.4201
  846MOL0     C11551   2.866   3.516   8.719  0.0726  0.1421 -0.2018
  846MOL0     C11552   2.744   3.420   8.692 -0.9497  0.2918  0.2644
  846MOL0     C11553   2.614   3.482   8.748  0.4965 -0.8522 -0.2269
  846MOL0     C11554   2.532   3.548   8.638  0.4310  0.0733  0.1848
  846MOL0     C11555   2.425   3.651   8.686 -0.1709  0.0631 -0.2293
  846MOL0     C11556   2.320   3.569   8.770  0.1753 -0.5589 -0.1458
  846MOL0     N11557   2.193   3.643   8.750 -0.0086 -0.2293 -0.2717
  846MOL0     C11558   2.099   3.611   8.657 -0.4623 -0.4206  0.0379
  846MOL0     C11559   1.988   3.673   8.700  0.6222 -0.4234  0.1773
  846MOL0     C11560   1.862   3.679   8.628 -0.0007  0.0944 -0.1907
  846MOL0     C11561   1.742   3.722   8.718 -0.1119 -0.5603 -1.1042
  846MOL0     C11562   1.597   3.709   8.653 -0.1019  0.2621  0.1225
  846MOL0     C11563   1.494   3.704   8.762  0.5365  0.7574 -0.1245
  846MOL0     O11564   1.497   3.825   8.840 -0.6637  0.0863  0.5980
  846MOL0     C11565   1.367   3.854   8.886  0.4410 -0.6619  0.5130
  846MOL0     C11566   1.292   3.947   8.803  0.4795 -0.7590 -1.1338
  846MOL0     C11567   1.162   3.975   8.844 -0.1075 -0.2398  0.1298
  846MOL0     C11568   1.113   3.913   8.967  0.1554  0.1843  0.0342
  846MOL0     C11569   0.973   3.922   9.012 -0.0709 -0.1961  0.3633
  846MOL0     O11570   0.888   3.980   8.918 -0.2604 -0.2705 -0.4581
  846MOL0     C11571   0.761   4.026   8.945  0.0683 -0.4344  0.5986
  846MOL0     C11572   0.666   4.033   8.843 -0.0350  0.0330 -0.3198
  846MOL0     C11573   0.538   4.085   8.874 -0.0021 -0.0454 -0.3279
  846MOL0     C11574   0.503   4.120   9.001 -1.0534  0.6742  0.3679
  846MOL0     O11575   0.381   4.163   9.039 -0.1259  0.2139  1.1800
  846MOL0     C11576   0.281   4.175   8.941 -0.6957 -0.6224  0.3246
  846MOL0     C11577   0.137   4.206   8.974  0.1258 -0.1311  0.1370
  846MOL0     C11578   0.072   4.089   9.051 -0.3952 -0.4250 -0.6332
  846MOL0     C11579  -0.078   4.086   9.030  0.8327 -1.1479 -0.4688
  846MOL0     C11580  -0.141   3.979   9.115 -1.0947 -0.1847 -0.0923
  846MOL0     C11581  -0.113   3.838   9.069  0.6606  0.2963  0.4748
  846MOL0     C11582  -0.150   3.813   8.922  0.7482  0.0183 -0.3205
  846MOL0     C11583  -0.154   3.680   8.871  0.4950  0.7637  0.0012
  846MOL0    Cl11584  -0.199   3.707   8.693  0.3255  0.1461  0.1313
  846MOL0     C11585   0.601   4.108   9.102 -0.2564 -0.8207 -1.4391
  846MOL0     C11586   0.728   4.081   9.076  0.2213  1.1213  0.3375
  846MOL0     O11587   0.934   3.870   9.118  0.6245  0.2828 -0.7424
  846MOL0     C11588   1.194   3.825   9.042  0.2686  0.6138  0.4750
  846MOL0     C11589   1.322   3.797   9.005 -0.2711 -0.3388  0.1267
  846MOL0     N11590   2.014   3.745   8.814  1.0510 -0.1347  0.1064
  846MOL0     N11591   2.142   3.731   8.842  0.2107 -0.5659 -0.5778
  846MOL0     C11592   3.281   3.688   9.007 -0.6965 -0.3975 -0.1478
  846MOL0     C11593   3.402   3.733   9.065 -0.4918 -0.8952  0.4176
  846MOL0     C11594   3.816   3.768   9.247 -0.5612 -0.7127 -0.0219
  846MOL0     C11595   3.822   3.716   9.379  0.9143 -0.3144 -0.6895
  846MOL0     C11596   3.930   3.731   9.465  0.4174 -0.4727  0.3019
  846MOL0     C11597   4.039   3.805   9.413 -0.4277 -0.7728 -0.3120
  846MOL0     O11598   4.134   3.817   9.506 -0.0214  0.2250 -0.5194
  846MOL0     C11599   4.204   3.942   9.513 -0.1215 -0.6710  0.1917
  846MOL0     C11600   4.111   4.058   9.563  0.2675  0.8414 -0.2965
  846MOL0     C11601   4.103   4.048   9.716  0.8965 -0.6656  0.4529
  846MOL0     C11602   4.001   3.947   9.768  0.5575  0.9358  0.1898
  846MOL0     C11603   4.002   3.944   9.916 -0.0751  0.2294 -0.5321
  846MOL0     C11604   4.005   3.921  10.038  0.8986 -0.2325 -0.1199
  846MOL0     C11605   4.046   3.858   9.286 -0.0124 -0.2534  0.5844
  846MOL0     C11606   3.927   3.845   9.205  0.2770  0.8860  0.9831
  846MOL0     H11607   3.492   3.433   9.219  1.1886  1.2997 -0.7142
  846MOL0     H11608   3.275   3.371   9.128  1.8424 -1.2412  0.6776
  846MOL0     H11609   3.092   3.588   8.805  4.1393 -3.2482  2.2022
  846MOL0     H11610   3.016   3.674   8.935  0.1370  0.0882 -1.8068
  846MOL0     H11611   2.828   3.532   8.934 -1.1575 -1.0861  0.7720
  846MOL0     H11612   2.926   3.391   8.871 -2.3939  0.7188  0.3655
  846MOL0     H11613   2.950   3.489   8.655  1.6380  0.4192  1.6475
  846MOL0     H11614   2.829   3.619   8.721 -1.6160 -0.4340  0.3573
  846MOL0     H11615   2.739   3.394   8.586 -2.2705 -2.4224  0.9023
  846MOL0     H11616   2.764   3.320   8.730 -1.0756 -0.5956 -1.8834
  846MOL0     H11617   2.642   3.548   8.831 -0.2601  0.7090 -1.1609
  846MOL0     H11618   2.546   3.398   8.768 -2.5903  1.6066  0.3893
  846MOL0     H11619   2.496   3.477   8.563  0.4812  0.5315 -0.2721
  846MOL0     H11620   2.597   3.615   8.583 -0.8906  1.7440  0.5659
  846MOL0     H11621   2.470   3.734   8.742 -3.8122  1.1128  1.4464
  846MOL0     H11622   2.379   3.707   8.604 -1.4886  0.9028  1.0348
  846MOL0     H11623   2.352   3.573   8.874 -1.4253 -0.4564  0.3684
  846MOL0     H11624   2.294   3.465   8.749  0.4270 -1.3797  3.0695
  846MOL0     H11625   2.119   3.559   8.564 -0.9398 -0.4591 -0.0476
  846MOL0     H11626   1.832   3.578   8.597 -1.2441  0.2036  0.5639
  846MOL0     H11627   1.867   3.746   8.542 -1.8567 -0.3704 -0.7123
  846MOL0     H11628   1.759   3.826   8.746  4.1599 -1.1786 -0.7028
  846MOL0     H11629   1.745   3.656   8.806 -1.9969 -2.3596 -2.2860
  846MOL0     H11630   1.583   3.806   8.604  2.5373  1.8966  2.2689
  846MOL0     H11631   1.589   3.620   8.590  1.6449  0.5138 -0.5306
  846MOL0     H11632   1.509   3.613   8.821 -0.4255  1.0801  0.6523
  846MOL0     H11633   1.404   3.699   8.699 -0.6615  1.0941  1.4846
  846MOL0     H11634   1.345   3.991   8.718 -1.4708  5.1022  0.2353
  846MOL0     H11635   1.096   4.039   8.786  1.6842  0.2198 -1.5096
  846MOL0     H11636   0.695   4.009   8.742  0.9531 -1.4918  0.2887
  846MOL0     H11637   0.463   4.095   8.797 -0.3556  4.5005  0.3109
  846MOL0     H11638   0.275   4.074   8.900 -1.0938 -2.3906  4.2826
  846MOL0     H11639   0.328   4.239   8.866  2.8276 -1.3355  1.7345
  846MOL0     H11640   0.085   4.226   8.880  0.2637  0.4954  0.1923
  846MOL0     H11641   0.125   4.305   9.019 -2.2329  0.8521 -2.3409
  846MOL0     H11642   0.087   4.100   9.159 -1.6837 -1.0388 -0.3727
  846MOL0     H11643   0.114   3.993   9.023  0.9437 -0.3198  0.8990
  846MOL0     H11644  -0.128   4.181   9.048 -0.9826 -2.3316  1.2459
  846MOL0     H11645  -0.091   4.069   8.923  1.8249  1.0378 -0.9750
  846MOL0     H11646  -0.250   3.988   9.117 -1.3467 -2.6027  0.4420
  846MOL0     H11647  -0.100   3.988   9.216  1.3662 -1.8094 -0.8621
  846MOL0     H11648  -0.174   3.768   9.127  1.6130 -1.8881 -1.0157
  846MOL0     H11649  -0.007   3.818   9.087  1.1847  1.7436 -0.7500
  846MOL0     H11650  -0.250   3.857   8.915 -0.6528 -2.5637  1.4789
  846MOL0     H11651  -0.074   3.861   8.861  0.5687 -1.3431 -1.6715
  846MOL0     H11652  -0.225   3.614   8.922 -0.2082 -0.2642 -2.1817
  846MOL0     H11653  -0.054   3.636   8.875 -0.3567 -1.2777  0.2046
  846MOL0     H11654   0.565   4.131   9.202 -1.6600 -0.5150 -2.0025
  846MOL0     H11655   0.804   4.080   9.153  2.0424  0.4554 -1.4060
  846MOL0     H11656   1.162   3.777   9.134 -2.0915 -1.9841 -1.5260
  846MOL0     H11657   1.398   3.737   9.053  1.5707  2.5989  1.1712
  846MOL0     H11658   3.229   3.764   8.950 -2.0484  0.3369  1.9309
  846MOL0     H11659   3.444   3.828   9.034 -2.3000  0.2129  1.2257
  846MOL0     H11660   3.746   3.642   9.399  2.1824 -1.8073 -1.2062
  846MOL0     H11661   3.935   3.687   9.564 -2.5933 -1.7115  0.0087
  846MOL0     H11662   4.249   3.979   9.421 -2.2768 -0.5222 -0.8522
  846MOL0     H11663   4.289   3.925   9.580  0.8606  1.0538 -0.5576
  846MOL0     H11664   4.159   4.145   9.519  0.9152  1.2978  1.2318
  846MOL0     H11665   4.013   4.055   9.515  0.8419 -1.3722 -1.4812
  846MOL0     H11666   4.063   4.141   9.758 -1.0009 -2.5199  3.0161
  846MOL0     H11667   4.202   4.028   9.757  0.5207  0.0597  1.7880
  846MOL0     H11668   3.900   3.974   9.739  1.1421  0.9853 -1.9577
  846MOL0     H11669   4.012   3.847   9.725 -0.5817  0.2282  1.4508
  846MOL0     H11670   4.004   3.891  10.141 -2.4725 -1.8596 -0.4967
  846MOL0     H11671   4.132   3.917   9.258  0.3761 -0.7492  0.7358
  846MOL0     H11672   3.935   3.896   9.109  1.2182  0.0249  0.5841
  847MOL0     O11673   4.363   3.769  11.287 -0.1577  0.7188  0.0939
  847MOL0     C11674   4.360   3.804  11.401 -0.0241  1.0063  0.5364
  847MOL0     O11675   4.398   3.721  11.510  0.3656 -0.7497  0.6076
  847MOL0     C11676   4.456   3.604  11.488  0.1137  0.8571  0.3065
  847MOL0     C11677   4.388   3.493  11.527  0.6332 -0.3609 -0.2722
  847MOL0     C11678   4.444   3.366  11.533  0.4967 -0.5994  0.0743
  847MOL0     C11679   4.577   3.346  11.482 -1.1326 -0.2192  0.4707
  847MOL0     O11680   4.635   3.219  11.476  0.5052  0.8076  0.3988
  847MOL0     C11681   4.647   3.145  11.605 -1.0277  0.5840  0.0139
  847MOL0     C11682   4.695   3.003  11.582 -0.9207 -0.0759 -0.5931
  847MOL0     C11683   4.597   2.928  11.480 -1.3213  0.1520 -0.3308
  847MOL0     C11684   4.632   2.775  11.479  0.0324  0.4154  0.3536
  847MOL0     C11685   4.510   2.716  11.410  0.0101  0.0788  0.4360
  847MOL0     C11686   4.528   2.562  11.394  1.4748 -0.4814 -0.5603
  847MOL0     C11687   4.415   2.498  11.299 -1.0085 -0.3767  0.2079
  847MOL0     C11688   4.277   2.524  11.339  0.1837  0.6162 -0.2125
  847MOL0     N11689   4.174   2.479  11.246 -0.3233 -0.2626 -0.3268
  847MOL0     C11690   4.168   2.527  11.114 -0.3523  0.6289 -0.4112
  847MOL0     C11691   4.061   2.469  11.066 -0.0679 -0.9407 -0.3701
  847MOL0     C11692   4.015   2.495  10.923  0.8504  0.0393  0.1654
  847MOL0     C11693   4.119   2.458  10.819 -0.2207  0.1320  0.3853
  847MOL0     C11694   4.075   2.441  10.677  0.7970 -0.2405 -0.3483
  847MOL0     C11695   4.004   2.565  10.618 -0.1741  0.4476  0.3725
  847MOL0     O11696   4.019   2.570  10.475 -0.3332 -0.0229 -0.2141
  847MOL0     C11697   3.931   2.638  10.399 -0.1387 -0.4916  0.3973
  847MOL0     C11698   3.912   2.597  10.264 -0.9981 -1.2914  0.6750
  847MOL0     C11699   3.808   2.659  10.196  0.3170  0.1321  0.9545
  847MOL0     C11700   3.720   2.763  10.248 -0.2291 -1.1834 -0.0874
  847MOL0     C11701   3.615   2.824  10.170  0.6141 -0.9095 -0.3268
  847MOL0     O11702   3.590   2.768  10.044 -0.0802 -0.6613  0.3412
  847MOL0     C11703   3.480   2.818   9.970 -0.6866 -0.1420  1.9459
  847MOL0     C11704   3.498   2.919   9.874  0.2893 -0.4602 -0.2198
  847MOL0     C11705   3.408   2.962   9.779  0.0752  0.2110  0.1708
  847MOL0     C11706   3.288   2.892   9.775  1.2054  0.4590 -0.1917
  847MOL0     O11707   3.187   2.935   9.688 -0.0195  0.2619  0.1728
  847MOL0     C11708   3.133   3.062   9.739  0.1561 -0.2949 -0.1810
  847MOL0     C11709   3.006   3.104   9.672  0.1886  0.2411 -0.9058
  847MOL0     C11710   2.892   3.001   9.673 -0.3881  0.2894  0.9328
  847MOL0     C11711   2.812   2.956   9.794 -0.3030  0.2672  0.1342
  847MOL0     C11712   2.690   2.865   9.758 -0.6822 -0.1239 -0.4265
  847MOL0     C11713   2.596   2.941   9.670  0.5580 -0.1389  0.2633
  847MOL0     C11714   2.454   2.866   9.653  0.1173  0.2936 -0.5342
  847MOL0     C11715   2.360   2.884   9.776  0.6981  0.0686  0.4934
  847MOL0    Cl11716   2.298   3.049   9.764 -0.0793 -0.2100  0.0446
  847MOL0     C11717   3.268   2.779   9.862  0.0026  0.2527  1.5100
  847MOL0     C11718   3.365   2.745   9.958 -1.3284  0.3586  0.0760
  847MOL0     O11719   3.554   2.914  10.220  0.1849 -0.8088 -0.0925
  847MOL0     C11720   3.765   2.816  10.372 -0.5773 -0.1724 -0.5985
  847MOL0     C11721   3.856   2.745  10.444  0.4117 -0.6780  0.0284
  847MOL0     N11722   3.990   2.406  11.165  0.3214 -0.5753 -0.5650
  847MOL0     N11723   4.069   2.395  11.268  0.9261 -0.6854 -0.4463
  847MOL0     C11724   4.642   3.459  11.438  0.0492 -1.1060  0.1242
  847MOL0     C11725   4.588   3.588  11.449  0.4026  0.5003 -0.1495
  847MOL0     C11726   4.320   3.940  11.417  0.1195  0.1690 -0.0357
  847MOL0     C11727   4.242   3.997  11.314 -0.0398 -1.1641  0.6576
  847MOL0     C11728   4.192   4.133  11.339 -0.6146  0.5920 -0.4383
  847MOL0     C11729   4.221   4.207  11.452 -0.4465 -0.2563 -0.1876
  847MOL0     O11730   4.170   4.338  11.444  0.0407  0.2660 -0.2062
  847MOL0     C11731   4.253   4.445  11.485  0.2293 -0.1186 -0.2482
  847MOL0     C11732   4.204   4.538  11.595  0.5689  0.4002 -0.3649
  847MOL0     C11733   4.211   4.462  11.725  0.0392  0.6707  0.0072
  847MOL0     C11734   4.170   4.552  11.832 -0.1448 -0.3574 -0.0098
  847MOL0     C11735   4.158   4.487  11.965  0.5840  0.1074 -0.7079
  847MOL0     C11736   4.138   4.444  12.078 -0.3369 -0.3042  0.6040
  847MOL0     C11737   4.304   4.144  11.547 -0.5719 -0.7237  0.5612
  847MOL0     C11738   4.348   4.015  11.534  0.2760 -0.2297 -0.0173
  847MOL0     H11739   4.289   3.499  11.571  0.5036 -2.2779 -0.1992
  847MOL0     H11740   4.398   3.274  11.567 -2.2071  0.8080  0.4147
  847MOL0     H11741   4.552   3.144  11.659 -1.9579 -0.1971 -1.5593
  847MOL0     H11742   4.718   3.193  11.672  0.9305  0.6160 -1.9679
  847MOL0     H11743   4.687   2.942  11.673 -1.8817 -1.8422 -1.8214
  847MOL0     H11744   4.800   3.011  11.555 -0.8162  1.4574  0.1586
  847MOL0     H11745   4.599   2.973  11.380 -1.9988  1.2408  0.1263
  847MOL0     H11746   4.492   2.943  11.505 -1.2620  4.1890 -1.6628
  847MOL0     H11747   4.726   2.750  11.431 -0.6441 -0.0051 -0.7908
  847MOL0     H11748   4.642   2.729  11.578  1.2117  1.6422  0.8357
  847MOL0     H11749   4.499   2.763  11.311  1.2317  4.6822  2.1986
  847MOL0     H11750   4.424   2.738  11.473 -0.4913  2.0456 -0.8192
  847MOL0     H11751   4.524   2.524  11.496  1.4249 -1.0462 -0.7637
  847MOL0     H11752   4.626   2.531  11.355 -0.4962 -3.1136 -4.0667
  847MOL0     H11753   4.438   2.540  11.201  1.1181  0.4986  1.0164
  847MOL0     H11754   4.436   2.390  11.298  1.5313  0.0341  0.9609
  847MOL0     H11755   4.250   2.629  11.346 -3.7650 -0.3393  2.4896
  847MOL0     H11756   4.279   2.472  11.435  0.8877  2.1858  0.6382
  847MOL0     H11757   4.238   2.594  11.066  0.5608  1.0161  1.3758
  847MOL0     H11758   3.986   2.599  10.905  0.3109 -0.1853 -0.2779
  847MOL0     H11759   3.923   2.437  10.911  1.0357  0.1734 -2.2918
  847MOL0     H11760   4.150   2.358  10.853 -1.7922 -0.2810  0.7290
  847MOL0     H11761   4.209   2.518  10.831  0.9122 -1.7690  1.9233
  847MOL0     H11762   4.162   2.413  10.616 -1.1706 -2.3200 -2.4073
  847MOL0     H11763   4.014   2.352  10.665  2.4013 -1.3615 -0.5393
  847MOL0     H11764   4.045   2.660  10.653  0.3575  0.4331 -0.1811
  847MOL0     H11765   3.898   2.564  10.646  0.5069  1.6676  3.3936
  847MOL0     H11766   3.973   2.522  10.215 -1.2317 -3.4722  3.4482
  847MOL0     H11767   3.793   2.613  10.099 -0.3651  0.1220  1.0613
  847MOL0     H11768   3.593   2.971   9.876  0.1440 -0.0994  2.9818
  847MOL0     H11769   3.457   3.044   9.726  2.4155  0.3668  2.3659
  847MOL0     H11770   3.204   3.144   9.731 -2.9202  2.4235 -2.1614
  847MOL0     H11771   3.109   3.052   9.845 -0.6546 -0.4392 -0.3683
  847MOL0     H11772   3.031   3.147   9.574  0.1800 -0.3058 -1.1542
  847MOL0     H11773   2.965   3.192   9.722  1.6177  0.8963 -0.8357
  847MOL0     H11774   2.919   2.918   9.608 -3.4382  1.2327 -1.8122
  847MOL0     H11775   2.823   3.061   9.613  1.0669 -1.3513 -2.6041
  847MOL0     H11776   2.881   2.893   9.852  0.3562  0.1680 -0.7423
  847MOL0     H11777   2.775   3.029   9.867 -0.0821 -0.4650  0.9938
  847MOL0     H11778   2.645   2.816   9.844 -0.2351 -1.8738 -1.1517
  847MOL0     H11779   2.731   2.789   9.691 -0.5774  1.6843 -2.5656
  847MOL0     H11780   2.629   2.953   9.566 -1.6899 -0.5358 -0.5589
  847MOL0     H11781   2.583   3.038   9.718 -1.5338  0.0385 -0.5591
  847MOL0     H11782   2.406   2.910   9.565  1.9938  3.1129 -0.2654
  847MOL0     H11783   2.465   2.759   9.636 -1.5850  0.2732 -1.8251
  847MOL0     H11784   2.418   2.864   9.867 -1.5849 -3.4381  1.3926
  847MOL0     H11785   2.274   2.816   9.776 -0.7286  1.7868  1.4734
  847MOL0     H11786   3.179   2.717   9.857  0.1070  0.0145  2.4359
  847MOL0     H11787   3.352   2.666  10.032 -1.8125  2.1334  1.9829
  847MOL0     H11788   3.716   2.906  10.406  0.5449 -0.5583  2.3099
  847MOL0     H11789   3.868   2.788  10.543 -5.0895  2.1370 -0.1798
  847MOL0     H11790   4.744   3.456  11.402 -0.0922 -0.1926 -0.3837
  847MOL0     H11791   4.645   3.677  11.422  0.0317  1.6686  2.5865
  847MOL0     H11792   4.212   3.945  11.224 -3.2488  0.3599  0.6773
  847MOL0     H11793   4.135   4.192  11.267 -0.1527  2.3137  0.5452
  847MOL0     H11794   4.258   4.518  11.404 -3.7625  1.2790  0.5462
  847MOL0     H11795   4.355   4.411  11.506 -0.5085 -1.0167  2.2359
  847MOL0     H11796   4.266   4.627  11.606 -1.0649  1.6747 -1.0535
  847MOL0     H11797   4.100   4.566  11.575 -0.4451 -2.4958  0.3137
  847MOL0     H11798   4.311   4.420  11.742 -0.2029  0.6948  1.5668
  847MOL0     H11799   4.147   4.374  11.715  1.1629 -0.0273 -1.6121
  847MOL0     H11800   4.250   4.627  11.833 -2.2869  2.0940 -0.8271
  847MOL0     H11801   4.076   4.602  11.805 -1.5404 -2.5307  0.5951
  847MOL0     H11802   4.118   4.423  12.181 -0.4429  0.4926  0.7476
  847MOL0     H11803   4.327   4.196  11.640  0.2251  1.8103 -0.9538
  847MOL0     H11804   4.420   3.973  11.604 -0.0969 -0.3131  0.3188
  848MOL0     O11805  11.243   2.052   2.448 -0.6830  0.3036 -0.2262
  848MOL0     C11806  11.154   2.134   2.419  0.0849 -1.1039  0.4966
  848MOL0     O11807  11.032   2.106   2.368  0.0457  0.3047  0.6889
  848MOL0     C11808  10.982   1.985   2.320 -0.4906  0.1522 -0.1819
  848MOL0     C11809  11.049   1.859   2.338 -0.5401 -0.1320 -1.7453
  848MOL0     C11810  10.983   1.740   2.315  1.0308 -0.1279  0.5228
  848MOL0     C11811  10.845   1.739   2.266 -0.4352  0.3586  0.2780
  848MOL0     O11812  10.782   1.628   2.224  0.8278 -0.5310  1.0222
  848MOL0     C11813  10.804   1.508   2.294  0.2891  0.6679 -0.6151
  848MOL0     C11814  10.726   1.387   2.242 -0.4264 -0.0954  0.6164
  848MOL0     C11815  10.574   1.376   2.281 -0.6729  0.6511 -0.5817
  848MOL0     C11816  10.511   1.248   2.223  0.2579 -0.6943 -0.0956
  848MOL0     C11817  10.362   1.246   2.234  0.5616 -0.4934  0.8457
  848MOL0     C11818  10.307   1.130   2.141  0.5686 -0.2216  0.4076
  848MOL0     C11819  10.152   1.110   2.118 -0.5212  0.5247  0.3044
  848MOL0     C11820  10.091   1.045   2.240  0.1378  0.2176 -0.5400
  848MOL0     N11821   9.941   1.047   2.242  0.2435  0.0469 -0.1288
  848MOL0     C11822   9.873   1.045   2.361  0.4404  0.5896  0.3124
  848MOL0     C11823   9.746   1.061   2.325  0.1570 -0.3460 -0.2635
  848MOL0     C11824   9.640   1.054   2.421 -0.2188  0.7067  0.2907
  848MOL0     C11825   9.493   1.073   2.368 -0.2641  0.5843 -0.1744
  848MOL0     C11826   9.389   1.047   2.469 -0.0846 -0.2356 -0.9759
  848MOL0     C11827   9.253   1.054   2.408 -0.7423  0.4109 -0.1098
  848MOL0     O11828   9.156   1.092   2.510 -0.8986 -0.1549  0.1758
  848MOL0     C11829   9.048   1.005   2.538 -0.1791 -0.2353 -0.1484
  848MOL0     C11830   8.918   1.046   2.531 -0.5377 -0.4681  0.0352
  848MOL0     C11831   8.813   0.959   2.534  1.2405 -0.1862 -0.5697
  848MOL0     C11832   8.836   0.819   2.565  0.2937 -0.5008  0.1099
  848MOL0     C11833   8.733   0.726   2.597  0.1794 -1.2276 -0.1183
  848MOL0     O11834   8.609   0.791   2.587  0.4150  0.6187 -0.1723
  848MOL0     C11835   8.498   0.717   2.617  0.0998  0.1650  0.1215
  848MOL0     C11836   8.390   0.732   2.538  0.6888 -0.3203 -0.1721
  848MOL0     C11837   8.265   0.676   2.565 -0.3870  0.5330  0.6078
  848MOL0     C11838   8.245   0.608   2.687 -0.5012  0.9499  0.2943
  848MOL0     O11839   8.114   0.573   2.712  0.7675  0.1863 -0.6822
  848MOL0     C11840   8.095   0.491   2.831  0.1752 -0.2374  0.5474
  848MOL0     C11841   7.944   0.487   2.849 -0.1839  0.5592 -0.1419
  848MOL0     C11842   7.906   0.442   2.997 -0.1477 -0.1285  0.2797
  848MOL0     C11843   7.759   0.475   3.027  0.1074 -0.2981  0.2781
  848MOL0     C11844   7.713   0.453   3.168  0.7778 -0.0495 -0.5517
  848MOL0     C11845   7.581   0.517   3.189  0.5253  1.2172  0.2969
  848MOL0     C11846   7.532   0.513   3.327 -1.7227 -0.2252 -0.5282
  848MOL0     C11847   7.402   0.584   3.353 -0.1253 -0.9093 -0.2217
  848MOL0    Cl11848   7.256   0.482   3.314 -0.0857  0.2311 -0.3488
  848MOL0     C11849   8.361   0.587   2.768 -0.2824 -0.2142 -0.6675
  848MOL0     C11850   8.487   0.641   2.732  0.0288  0.9798  0.2923
  848MOL0     O11851   8.756   0.607   2.620  0.6582 -0.2652  0.7828
  848MOL0     C11852   8.968   0.773   2.564 -0.0098  0.8375 -0.7253
  848MOL0     C11853   9.073   0.865   2.540  0.6197  0.3276 -0.3041
  848MOL0     N11854   9.739   1.090   2.184 -0.3409  0.3148 -0.6216
  848MOL0     N11855   9.859   1.090   2.143  0.6107  0.1323  0.5003
  848MOL0     C11856  10.787   1.867   2.246  0.0788  0.2527  0.8625
  848MOL0     C11857  10.850   1.985   2.273 -0.4225  0.1642  0.5613
  848MOL0     C11858  11.197   2.275   2.434 -0.1368 -0.0407 -0.3740
  848MOL0     C11859  11.326   2.312   2.474 -0.8814  0.5277 -0.2863
  848MOL0     C11860  11.365   2.443   2.464 -0.6698 -0.8705  1.1000
  848MOL0     C11861  11.278   2.540   2.422  0.6429 -0.1975  0.4835
  848MOL0     O11862  11.319   2.675   2.420 -0.0692 -0.2189 -0.0086
  848MOL0     C11863  11.297   2.730   2.550 -0.2888  0.6442  0.2751
  848MOL0     C11864  11.435   2.760   2.613  0.4736 -0.2315  0.4968
  848MOL0     C11865  11.513   2.867   2.533 -0.3073  0.1469 -0.2400
  848MOL0     C11866  11.639   2.899   2.615  0.7225  0.2077  0.0685
  848MOL0     C11867  11.607   2.975   2.742  0.2848  0.5409  0.9763
  848MOL0     C11868  11.595   3.054   2.835 -0.1814 -0.2085  0.4853
  848MOL0     C11869  11.143   2.515   2.385  0.5295  0.1897  0.6983
  848MOL0     C11870  11.109   2.380   2.389  0.4552 -0.3242  0.4422
  848MOL0     H11871  11.146   1.840   2.383 -1.1722  0.1804 -0.2000
  848MOL0     H11872  11.041   1.648   2.323  0.0837 -0.5975  2.5288
  848MOL0     H11873  10.779   1.517   2.400  3.0124 -1.1114  0.2637
  848MOL0     H11874  10.908   1.477   2.284 -0.0641 -0.8266  0.0495
  848MOL0     H11875  10.783   1.302   2.280  0.8525  1.4747  2.4182
  848MOL0     H11876  10.736   1.389   2.133  1.3191 -0.7623  0.7313
  848MOL0     H11877  10.529   1.475   2.267  1.8501  1.8784 -0.4554
  848MOL0     H11878  10.567   1.366   2.390  1.1393  0.7857 -0.4296
  848MOL0     H11879  10.527   1.247   2.115 -2.3327  2.7780 -0.6757
  848MOL0     H11880  10.551   1.158   2.271 -0.2746  1.0221  4.0007
  848MOL0     H11881  10.321   1.343   2.208  5.7268  2.2725  1.6479
  848MOL0     H11882  10.352   1.220   2.340  1.2596  0.1940  1.0885
  848MOL0     H11883  10.350   1.043   2.191  0.7796 -0.2030  0.2597
  848MOL0     H11884  10.348   1.136   2.040 -1.3723  0.9477 -0.3580
  848MOL0     H11885  10.097   1.199   2.085 -0.2395 -1.2033 -6.1660
  848MOL0     H11886  10.136   1.047   2.030  1.6344 -3.2592  2.3487
  848MOL0     H11887  10.143   1.073   2.332 -1.1427 -1.5677  0.7993
  848MOL0     H11888  10.110   0.937   2.235  2.7656  0.6265 -0.7680
  848MOL0     H11889   9.905   1.040   2.464  1.4662  3.2034  0.1742
  848MOL0     H11890   9.653   1.133   2.496 -1.3135 -0.8827  2.2813
  848MOL0     H11891   9.648   0.959   2.474 -3.6934  0.4804  0.6572
  848MOL0     H11892   9.479   1.014   2.277 -1.9770  2.7866 -1.4252
  848MOL0     H11893   9.481   1.175   2.330  1.7738  0.2151 -2.0112
  848MOL0     H11894   9.408   0.959   2.531  2.3888 -0.1291 -1.4949
  848MOL0     H11895   9.397   1.133   2.537 -0.2984  0.7953 -2.2047
  848MOL0     H11896   9.236   0.954   2.366  0.6436  0.3116 -0.4756
  848MOL0     H11897   9.260   1.122   2.323  5.7762 -0.4470 -0.7952
  848MOL0     H11898   8.897   1.152   2.519 -0.1635 -0.5008 -0.9591
  848MOL0     H11899   8.709   0.988   2.531  1.3030  0.1391  0.2479
  848MOL0     H11900   8.400   0.808   2.460  0.6982 -1.3786 -1.2229
  848MOL0     H11901   8.186   0.691   2.491 -0.5121  2.0717  1.0323
  848MOL0     H11902   8.145   0.534   2.918 -2.6183 -2.4375  3.5201
  848MOL0     H11903   8.130   0.389   2.812  0.5037  0.3040 -2.2393
  848MOL0     H11904   7.896   0.432   2.767  4.2072 -3.5971 -0.3742
  848MOL0     H11905   7.915   0.592   2.838  1.3125  0.8657 -1.6065
  848MOL0     H11906   7.979   0.489   3.064 -0.7536  0.5707  0.4665
  848MOL0     H11907   7.923   0.336   3.017 -1.2252  0.1392  3.0405
  848MOL0     H11908   7.746   0.579   2.996 -3.5349 -0.8012 -0.3002
  848MOL0     H11909   7.691   0.416   2.965  2.1862 -2.3982 -0.1362
  848MOL0     H11910   7.787   0.480   3.244  1.3905 -0.1025 -1.1230
  848MOL0     H11911   7.691   0.347   3.187 -2.6858  0.6216 -0.1224
  848MOL0     H11912   7.505   0.463   3.132  0.3476  2.1779 -0.4140
  848MOL0     H11913   7.590   0.622   3.158  0.7062  1.1658  0.1770
  848MOL0     H11914   7.523   0.413   3.371 -0.4376 -0.1298 -0.0024
  848MOL0     H11915   7.607   0.563   3.388 -2.1808 -0.3106  0.1085
  848MOL0     H11916   7.392   0.679   3.300  0.1935  1.1528  3.1678
  848MOL0     H11917   7.387   0.612   3.457 -1.0053 -0.4684 -0.4614
  848MOL0     H11918   8.355   0.537   2.864 -0.4766  0.8987 -0.0878
  848MOL0     H11919   8.572   0.632   2.799 -0.3913 -2.7712  0.5568
  848MOL0     H11920   8.987   0.667   2.578  0.6581  1.0044 -0.2934
  848MOL0     H11921   9.174   0.828   2.528  1.1771  1.5326  0.4638
  848MOL0     H11922  10.691   1.872   2.194  0.0038 -1.0336  0.8506
  848MOL0     H11923  10.796   2.078   2.259  1.8112  1.2303 -1.9360
  848MOL0     H11924  11.407   2.243   2.498 -1.1178  0.8685  1.5987
  848MOL0     H11925  11.470   2.463   2.478 -0.7735 -0.5557  1.4220
  848MOL0     H11926  11.256   2.663   2.626 -1.5433 -2.2298 -2.6821
  848MOL0     H11927  11.222   2.809   2.545 -1.6022 -0.3941  2.4354
  848MOL0     H11928  11.425   2.801   2.714  1.0724  0.3778  0.3127
  848MOL0     H11929  11.488   2.666   2.627 -1.6177 -1.5537  0.0192
  848MOL0     H11930  11.455   2.958   2.514 -0.6635  0.1344  0.7492
  848MOL0     H11931  11.547   2.834   2.435  0.1131  2.3632 -0.9107
  848MOL0     H11932  11.690   2.805   2.638  2.8704  1.4288  0.5449
  848MOL0     H11933  11.718   2.958   2.568 -0.9043  0.6076 -2.3210
  848MOL0     H11934  11.566   3.131   2.904 -0.6425  0.8686 -0.8548
  848MOL0     H11935  11.071   2.594   2.366  1.5279  0.2089 -4.7488
  848MOL0     H11936  11.014   2.351   2.346  0.8342 -1.0470  0.0782
  849MOL0     O11937   1.482  10.771   4.641  0.4588  0.3956  0.0726
  849MOL0     C11938   1.502  10.886   4.683 -0.0166  0.2103 -0.0114
  849MOL0     O11939   1.417  10.997   4.666  0.9656  0.5136 -0.2639
  849MOL0     C11940   1.281  10.966   4.641  0.4079  0.8184 -0.0628
  849MOL0     C11941   1.197  10.876   4.715 -0.0340  0.0231  0.4745
  849MOL0     C11942   1.067  10.868   4.672 -0.3032  0.0884 -0.0108
  849MOL0     C11943   1.013  10.934   4.560  0.3126  0.1946 -0.6874
  849MOL0     O11944   0.877  10.911   4.524  0.1453 -0.2861  1.1675
  849MOL0     C11945   0.842  10.953   4.387  0.6806 -0.4623  0.6318
  849MOL0     C11946   0.690  10.916   4.374 -0.3776  0.1571 -1.7457
  849MOL0     C11947   0.601  10.979   4.481  0.4899 -0.0090  0.5600
  849MOL0     C11948   0.605  11.129   4.478 -0.4319 -0.1157 -0.2867
  849MOL0     C11949   0.522  11.192   4.584 -0.6707 -0.2969  0.1952
  849MOL0     C11950   0.379  11.168   4.572  1.0523 -0.0346  0.2328
  849MOL0     C11951   0.305  11.173   4.713  0.7355 -0.6105 -0.0938
  849MOL0     C11952   0.156  11.191   4.701  0.4295 -0.2156  0.5055
  849MOL0     N11953   0.083  11.066   4.695  1.0154  0.7990  0.7077
  849MOL0     C11954   0.091  10.953   4.772 -0.7032  0.4748 -0.1385
  849MOL0     C11955  -0.020  10.871   4.759 -0.0995 -1.1061  0.0927
  849MOL0     C11956  -0.042  10.763   4.866 -0.9269  0.3018 -0.9228
  849MOL0     C11957  -0.021  10.621   4.802  0.1205  0.8557 -0.4177
  849MOL0     C11958  -0.059  10.502   4.896 -0.6765 -0.5173  0.3684
  849MOL0     C11959  -0.038  10.380   4.804  0.3606 -0.4210  0.3619
  849MOL0     O11960  -0.061  10.261   4.882  0.1503  0.5581 -0.2491
  849MOL0     C11961  -0.183  10.194   4.881  0.3241 -0.0675 -1.1440
  849MOL0     C11962  -0.284  10.218   4.788  0.0206  0.1135  1.1484
  849MOL0     C11963  -0.408  10.165   4.798 -1.0372  0.1291  0.5250
  849MOL0     C11964  -0.441  10.078   4.907  0.0843 -0.7815  0.1420
  849MOL0     C11965  -0.579  10.019   4.910  0.1450  0.3634  0.3473
  849MOL0     O11966  -0.631  10.002   4.778  1.0732 -0.1714 -0.0229
  849MOL0     C11967  -0.764   9.962   4.763  0.1580 -1.0599  0.5355
  849MOL0     C11968  -0.826   9.857   4.839 -0.7770  0.1840  0.8961
  849MOL0     C11969  -0.961   9.834   4.828 -1.2241  0.9077  0.7946
  849MOL0     C11970  -1.038   9.912   4.742  0.4105  0.7978  0.6842
  849MOL0     O11971  -1.171   9.889   4.723  0.0919  0.1521  1.1273
  849MOL0     C11972  -1.252   9.889   4.845  0.7064  0.7695 -0.5187
  849MOL0     C11973  -1.409   9.882   4.821  1.4940  0.7350  0.4834
  849MOL0     C11974  -1.495   9.887   4.954  0.2078  0.3348 -0.0766
  849MOL0     C11975  -1.639   9.860   4.912  0.3547 -0.1588  0.1600
  849MOL0     C11976  -1.721   9.886   5.028  0.2427  0.0858 -0.4641
  849MOL0     C11977  -1.876   9.884   4.982  0.3953 -0.1340  0.6773
  849MOL0     C11978  -1.964   9.938   5.090  0.6848 -0.3852 -0.3368
  849MOL0     C11979  -2.109   9.891   5.063  0.7472  1.0344 -0.7142
  849MOL0    Cl11980  -2.231   9.971   5.167 -0.0192 -0.2279 -0.1936
  849MOL0     C11981  -0.979  10.005   4.659 -0.6488  0.5603  0.1008
  849MOL0     C11982  -0.842  10.036   4.672 -0.0851  1.4244  0.3017
  849MOL0     O11983  -0.628   9.990   5.017 -0.7376 -0.2326  0.3896
  849MOL0     C11984  -0.335  10.044   4.996  0.4499  1.0463  1.5489
  849MOL0     C11985  -0.210  10.101   4.989  0.3126 -0.7131  0.3509
  849MOL0     N11986  -0.102  10.942   4.676 -0.9573  0.9422 -0.4420
  849MOL0     N11987  -0.049  11.056   4.647  0.0558  0.1498  0.3286
  849MOL0     C11988   1.096  11.032   4.501  0.2373 -1.1179 -0.3340
  849MOL0     C11989   1.222  11.051   4.543 -0.9333  1.0647 -0.6245
  849MOL0     C11990   1.636  10.919   4.737  0.3879  0.6071 -0.2667
  849MOL0     C11991   1.725  10.818   4.778  0.2516  0.0717 -0.0193
  849MOL0     C11992   1.853  10.840   4.821 -0.4909 -1.1501  0.0638
  849MOL0     C11993   1.908  10.967   4.827  0.1292  0.5777  0.6879
  849MOL0     O11994   2.029  10.972   4.883 -0.3243 -0.3433 -0.7676
  849MOL0     C11995   2.105  11.074   4.821  0.6091  0.8410 -0.1753
  849MOL0     C11996   2.255  11.050   4.829 -0.7493  0.1166  1.0256
  849MOL0     C11997   2.313  11.081   4.969 -0.5022  0.8644  0.5230
  849MOL0     C11998   2.326  10.951   5.036  0.4803  0.2160 -0.3103
  849MOL0     C11999   2.456  10.887   5.009 -0.1049  0.2273  0.5162
  849MOL0     C12000   2.557  10.824   4.981 -0.0622  0.1479  0.7663
  849MOL0     C12001   1.826  11.077   4.785  0.0230 -0.4666 -0.1947
  849MOL0     C12002   1.688  11.052   4.741  0.2043 -0.4836 -1.0183
  849MOL0     H12003   1.230  10.818   4.800 -0.0085 -0.4000  0.1789
  849MOL0     H12004   1.010  10.789   4.720  2.0181 -1.4893  0.3520
  849MOL0     H12005   0.901  10.897   4.313  0.4419 -0.1999  0.2394
  849MOL0     H12006   0.861  11.057   4.359 -1.3090 -0.3401 -0.4910
  849MOL0     H12007   0.686  10.808   4.390 -0.9296  0.5971  1.9649
  849MOL0     H12008   0.658  10.944   4.273  0.8045 -1.0881 -2.5091
  849MOL0     H12009   0.623  10.939   4.581  0.3533  1.4345  1.1835
  849MOL0     H12010   0.497  10.954   4.458 -0.6052  3.6628  0.9238
  849MOL0     H12011   0.708  11.159   4.500 -0.0316 -2.6940  1.9037
  849MOL0     H12012   0.571  11.158   4.378  1.4493  1.5427 -0.5244
  849MOL0     H12013   0.538  11.300   4.584  0.5564 -0.4475 -0.5729
  849MOL0     H12014   0.553  11.159   4.684 -0.3064 -1.1712 -0.1978
  849MOL0     H12015   0.344  11.069   4.543 -2.7220  1.2136 -0.0736
  849MOL0     H12016   0.333  11.239   4.503  2.7181  1.3571  0.4664
  849MOL0     H12017   0.327  11.077   4.761  0.3284 -0.7852 -0.2568
  849MOL0     H12018   0.342  11.253   4.777  1.2373 -1.8196  1.1762
  849MOL0     H12019   0.132  11.233   4.603  0.0656  1.0870  1.1398
  849MOL0     H12020   0.119  11.256   4.780  0.4583 -1.1418  1.2925
  849MOL0     H12021   0.176  10.940   4.838 -1.0894  0.9387  0.4583
  849MOL0     H12022  -0.135  10.774   4.922  0.1082 -0.5193  1.0652
  849MOL0     H12023   0.034  10.767   4.944 -0.4385 -0.8005 -1.3143
  849MOL0     H12024   0.080  10.601   4.768 -0.2715 -0.6296 -0.7628
  849MOL0     H12025  -0.084  10.614   4.713  0.7972  0.9633 -0.9139
  849MOL0     H12026  -0.006  10.505   4.991 -1.6446  1.1990  0.9033
  849MOL0     H12027  -0.167  10.500   4.912 -0.7538 -1.0875 -0.1597
  849MOL0     H12028   0.063  10.373   4.765  0.1696  2.3274 -0.8736
  849MOL0     H12029  -0.108  10.395   4.721 -1.4418 -0.0386  1.8642
  849MOL0     H12030  -0.277  10.286   4.704  0.8757 -0.3235  0.8560
  849MOL0     H12031  -0.481  10.187   4.722  1.2047 -3.3984 -3.0088
  849MOL0     H12032  -0.772   9.792   4.908  0.9739 -0.6006 -1.0885
  849MOL0     H12033  -1.006   9.754   4.886  1.1008 -0.7602  0.4480
  849MOL0     H12034  -1.238   9.981   4.901  1.7779  0.6523 -0.5732
  849MOL0     H12035  -1.232   9.806   4.914 -1.5950 -0.0549 -0.7316
  849MOL0     H12036  -1.436   9.801   4.753  5.2118  2.4600 -3.4444
  849MOL0     H12037  -1.429   9.977   4.771  0.1584  0.3592  0.2423
  849MOL0     H12038  -1.496   9.981   5.010  1.4629  0.7381 -0.7076
  849MOL0     H12039  -1.442   9.812   5.013  0.3477  0.7424  0.3248
  849MOL0     H12040  -1.673   9.926   4.831  2.8609  1.8591  0.6143
  849MOL0     H12041  -1.641   9.754   4.884  0.7969 -0.7103  2.0825
  849MOL0     H12042  -1.702   9.982   5.077  2.0251 -1.7686  2.8687
  849MOL0     H12043  -1.705   9.808   5.103 -1.1214  0.8279  0.6639
  849MOL0     H12044  -1.915   9.785   4.960  1.4508 -1.0913  2.7517
  849MOL0     H12045  -1.903   9.940   4.893  1.8286  1.3648  1.1235
  849MOL0     H12046  -1.941   9.906   5.192  2.6198  3.3064  0.5602
  849MOL0     H12047  -1.949  10.046   5.099  0.1122 -0.3972  0.9909
  849MOL0     H12048  -2.112   9.782   5.053  1.4967  0.9332  0.0330
  849MOL0     H12049  -2.130   9.921   4.960 -1.6828  0.2950 -0.4865
  849MOL0     H12050  -1.047  10.052   4.589 -0.6705  0.8079  0.2873
  849MOL0     H12051  -0.804  10.122   4.618 -3.4010  3.5460  0.9833
  849MOL0     H12052  -0.347   9.985   5.086  1.7579 -2.1978 -0.2412
  849MOL0     H12053  -0.149  10.071   5.074 -0.8901 -1.7292  0.8875
  849MOL0     H12054   1.066  11.109   4.430 -0.9951 -3.0449 -2.0037
  849MOL0     H12055   1.278  11.136   4.506  2.3980 -2.0710 -3.6340
  849MOL0     H12056   1.693  10.714   4.776 -0.0840  0.1816 -0.5424
  849MOL0     H12057   1.928  10.764   4.841  0.2752 -0.1574  1.0798
  849MOL0     H12058   2.087  11.175   4.859 -0.5604  0.6343 -0.1508
  849MOL0     H12059   2.086  11.082   4.713 -2.8811 -0.8415  0.1704
  849MOL0     H12060   2.287  10.950   4.796  0.5685  1.7977 -3.5602
  849MOL0     H12061   2.306  11.118   4.761  0.0784  0.6035  2.0991
  849MOL0     H12062   2.248  11.155   5.017  1.1766  3.1124 -0.4659
  849MOL0     H12063   2.413  11.124   4.957  0.4777 -1.4078  0.0404
  849MOL0     H12064   2.325  10.969   5.144 -0.1687  1.8829 -0.5727
  849MOL0     H12065   2.252  10.872   5.020  1.3722 -0.6118 -0.4467
  849MOL0     H12066   2.640  10.761   4.959  1.2168  1.3283  2.0366
  849MOL0     H12067   1.874  11.174   4.781 -1.9925  0.8079  2.5449
  849MOL0     H12068   1.620  11.133   4.715  2.2857  1.0027 -2.1217
  850MOL0     O12069   7.115   9.649   6.490 -0.4785  0.4566  0.4560
  850MOL0     C12070   7.125   9.663   6.609 -0.9097  0.1201  0.0400
  850MOL0     O12071   7.239   9.647   6.680  0.8227 -0.2590 -0.4303
  850MOL0     C12072   7.359   9.610   6.617 -0.6885  0.3764 -0.6573
  850MOL0     C12073   7.403   9.695   6.518  0.9939 -0.1887 -0.4929
  850MOL0     C12074   7.524   9.667   6.459 -0.1205 -0.4982  0.6634
  850MOL0     C12075   7.597   9.560   6.509 -0.2096  0.8473  0.5299
  850MOL0     O12076   7.723   9.534   6.462  0.3765 -0.4630 -0.2522
  850MOL0     C12077   7.788   9.616   6.368 -0.2090  0.1269 -0.4356
  850MOL0     C12078   7.930   9.559   6.360 -0.5397 -0.2189 -0.2923
  850MOL0     C12079   8.003   9.533   6.491  0.5634 -0.0453 -0.0484
  850MOL0     C12080   8.040   9.674   6.540  0.2492  0.0538  0.3203
  850MOL0     C12081   8.128   9.661   6.657 -0.2017 -0.6883 -0.0811
  850MOL0     C12082   8.266   9.604   6.625  0.8478  0.1251  0.4511
  850MOL0     C12083   8.336   9.563   6.750 -0.4246 -0.5826 -0.3351
  850MOL0     C12084   8.463   9.478   6.714  0.2254  0.3463 -0.0544
  850MOL0     N12085   8.523   9.435   6.842 -0.3194 -0.2934  0.0059
  850MOL0     C12086   8.485   9.460   6.972 -0.8455  0.0703  1.1113
  850MOL0     C12087   8.588   9.425   7.045  0.9641 -0.5219 -0.4100
  850MOL0     C12088   8.595   9.467   7.191  0.4652 -1.0836  0.9393
  850MOL0     C12089   8.678   9.590   7.223 -0.5863 -0.1516 -0.6430
  850MOL0     C12090   8.686   9.607   7.377  0.2582 -0.4864  0.2795
  850MOL0     C12091   8.752   9.746   7.398 -0.5792  0.6434  0.4830
  850MOL0     O12092   8.644   9.834   7.385  0.7257 -0.3198 -0.6406
  850MOL0     C12093   8.568   9.883   7.486  0.8084 -0.6470 -0.0969
  850MOL0     C12094   8.555   9.819   7.612  0.7533 -0.5548  0.9318
  850MOL0     C12095   8.476   9.882   7.709 -0.5549 -0.3298  0.7494
  850MOL0     C12096   8.393   9.992   7.685  0.3418  0.8949  0.4858
  850MOL0     C12097   8.296  10.053   7.776  0.2129  0.7190  0.6288
  850MOL0     O12098   8.265  10.185   7.750  0.1187  0.2428 -0.2037
  850MOL0     C12099   8.159  10.242   7.813 -0.5392  0.6680  0.8205
  850MOL0     C12100   8.154  10.266   7.951 -0.2937  0.5541 -0.6237
  850MOL0     C12101   8.043  10.344   8.002 -0.2423  0.0909  0.4115
  850MOL0     C12102   7.924  10.366   7.927  0.5454 -1.1520 -0.1569
  850MOL0     O12103   7.811  10.421   7.983 -0.7421  0.0808 -0.4473
  850MOL0     C12104   7.686  10.350   7.982 -0.1897  1.7552 -0.2905
  850MOL0     C12105   7.586  10.435   8.062 -0.2650 -0.2566  0.6144
  850MOL0     C12106   7.442  10.374   8.083 -0.3229 -0.0805  0.0293
  850MOL0     C12107   7.345  10.489   8.123 -0.6976 -0.0623  0.0642
  850MOL0     C12108   7.197  10.431   8.111 -0.1013 -1.0022 -1.1492
  850MOL0     C12109   7.094  10.520   8.193  0.4697  0.2343  0.1133
  850MOL0     C12110   6.959  10.458   8.163  0.7458  0.0601  0.0398
  850MOL0     C12111   6.830  10.545   8.189 -0.2331  0.0135 -0.9942
  850MOL0    Cl12112   6.838  10.700   8.121 -0.3496  0.0844 -0.3106
  850MOL0     C12113   7.937  10.342   7.788  0.2927 -0.2335 -0.1455
  850MOL0     C12114   8.057  10.289   7.732  0.4170 -0.0067  0.2922
  850MOL0     O12115   8.246   9.979   7.859  0.1515 -0.0914 -0.1291
  850MOL0     C12116   8.417  10.052   7.557  0.7145 -0.2465  0.2158
  850MOL0     C12117   8.495   9.995   7.455  0.7460 -0.5890 -0.0790
  850MOL0     N12118   8.688   9.377   6.965 -0.1598  0.5197 -0.8138
  850MOL0     N12119   8.648   9.384   6.841  0.5920 -0.6675  0.1931
  850MOL0     C12120   7.551   9.478   6.615 -0.4894 -0.2334  0.1195
  850MOL0     C12121   7.429   9.500   6.667  0.1728 -0.5602 -0.4073
  850MOL0     C12122   7.011   9.728   6.677  0.1022 -0.0907 -0.4641
  850MOL0     C12123   6.880   9.712   6.624 -0.8319 -0.1778 -0.4860
  850MOL0     C12124   6.771   9.768   6.691 -0.2023 -0.3545  0.5395
  850MOL0     C12125   6.786   9.821   6.815 -0.5720 -0.3320  0.1900
  850MOL0     O12126   6.680   9.885   6.866 -0.8065  0.3435  0.1964
  850MOL0     C12127   6.674   9.916   7.007 -0.7439  0.1078 -0.0401
  850MOL0     C12128   6.545   9.856   7.073  0.7042 -0.3634 -0.0841
  850MOL0     C12129   6.417   9.925   7.023  0.4072 -0.1926  0.2582
  850MOL0     C12130   6.312   9.936   7.132 -0.0362 -0.0977 -0.4153
  850MOL0     C12131   6.205  10.023   7.091 -0.1406  0.4018  0.2710
  850MOL0     C12132   6.135  10.102   7.050  0.9095 -0.4585 -0.0306
  850MOL0     C12133   6.920   9.836   6.863 -0.0903  1.2746  0.5087
  850MOL0     C12134   7.030   9.789   6.792  0.5290 -0.5056 -0.5421
  850MOL0     H12135   7.338   9.768   6.470 -1.5080 -1.2274  1.1509
  850MOL0     H12136   7.555   9.726   6.374  2.8791 -3.8471 -0.8349
  850MOL0     H12137   7.802   9.719   6.404  1.9904 -0.3625  0.2936
  850MOL0     H12138   7.735   9.623   6.272  0.8825  1.1207 -1.0034
  850MOL0     H12139   7.999   9.627   6.310  2.4971 -0.7775  2.7568
  850MOL0     H12140   7.911   9.462   6.312 -1.6747 -1.3533  2.2394
  850MOL0     H12141   8.093   9.477   6.466 -0.4305 -0.3910 -3.3266
  850MOL0     H12142   7.940   9.482   6.565 -1.8934  0.8500 -1.3862
  850MOL0     H12143   8.088   9.739   6.467 -1.8330  1.4279  0.0846
  850MOL0     H12144   7.944   9.713   6.574 -0.7719 -1.8387 -0.2247
  850MOL0     H12145   8.066   9.611   6.732 -1.4912  0.8315 -0.0867
  850MOL0     H12146   8.134   9.764   6.692 -2.0141 -0.6008  0.0411
  850MOL0     H12147   8.323   9.674   6.563  0.7607  0.1941  0.4483
  850MOL0     H12148   8.247   9.515   6.564  0.2474  1.0211 -0.7273
  850MOL0     H12149   8.359   9.649   6.814  2.4333 -1.6043  0.1473
  850MOL0     H12150   8.270   9.494   6.802 -1.5351 -1.1246 -2.3552
  850MOL0     H12151   8.537   9.523   6.646  0.7220 -1.9893 -1.1374
  850MOL0     H12152   8.426   9.389   6.664  1.2091 -1.0354  1.5608
  850MOL0     H12153   8.385   9.494   6.997 -1.4068  0.1511 -1.0864
  850MOL0     H12154   8.633   9.388   7.257  0.7703 -0.7988  1.1091
  850MOL0     H12155   8.495   9.494   7.227  1.7543  1.1153  3.2119
  850MOL0     H12156   8.635   9.682   7.182  1.4717  2.5199  2.7046
  850MOL0     H12157   8.777   9.579   7.179  0.2829 -2.3931  1.6579
  850MOL0     H12158   8.586   9.604   7.421  0.5084  0.4404  0.9320
  850MOL0     H12159   8.742   9.529   7.429 -0.6209 -2.1614 -1.2077
  850MOL0     H12160   8.828   9.774   7.325 -1.6388  0.7656 -0.6032
  850MOL0     H12161   8.809   9.749   7.492  1.7302 -1.2626 -0.7543
  850MOL0     H12162   8.610   9.727   7.629  1.8650 -0.2206 -0.6100
  850MOL0     H12163   8.462   9.843   7.809  1.9157 -0.2148  1.1899
  850MOL0     H12164   8.230  10.241   8.025 -0.6141 -0.2199 -0.5461
  850MOL0     H12165   8.044  10.350   8.111 -0.0755 -1.6902  0.5363
  850MOL0     H12166   7.684  10.256   8.037 -2.6530  1.5747 -0.5792
  850MOL0     H12167   7.650  10.334   7.880  0.1919 -1.3975 -0.0173
  850MOL0     H12168   7.577  10.521   7.996  0.4460 -2.0217 -1.9423
  850MOL0     H12169   7.631  10.476   8.152 -1.1494  4.5570 -0.8901
  850MOL0     H12170   7.452  10.297   8.159 -0.3068 -0.8097 -0.6994
  850MOL0     H12171   7.399  10.332   7.991 -1.7926  1.5192 -0.0693
  850MOL0     H12172   7.384  10.517   8.222  0.0042  1.3662 -0.5871
  850MOL0     H12173   7.358  10.574   8.056 -1.6442  0.4312  0.4953
  850MOL0     H12174   7.204  10.331   8.155 -0.3721  0.0019  1.3291
  850MOL0     H12175   7.168  10.418   8.006 -0.1820  1.6514 -1.5235
  850MOL0     H12176   7.095  10.620   8.148  0.5546 -0.0087 -0.4194
  850MOL0     H12177   7.130  10.523   8.297  0.7524 -0.3425  0.0332
  850MOL0     H12178   6.967  10.431   8.058 -0.4579 -1.6644  0.3643
  850MOL0     H12179   6.951  10.367   8.223  1.9104 -1.1716 -1.5988
  850MOL0     H12180   6.811  10.549   8.297  0.2685 -1.2515 -0.8426
  850MOL0     H12181   6.746  10.498   8.137 -0.0578  1.2372 -2.4510
  850MOL0     H12182   7.862  10.387   7.723 -0.9601 -1.8548  0.1026
  850MOL0     H12183   8.056  10.278   7.624  0.6249  0.3061  0.2577
  850MOL0     H12184   8.352  10.130   7.518  1.2153  0.8811  1.5544
  850MOL0     H12185   8.488  10.026   7.351 -1.4486  0.3674  0.3103
  850MOL0     H12186   7.612   9.400   6.659 -2.2552 -1.1837  1.0010
  850MOL0     H12187   7.383   9.435   6.740 -2.2115 -0.1631 -1.4703
  850MOL0     H12188   6.869   9.670   6.524  0.8578 -2.4735  0.2142
  850MOL0     H12189   6.670   9.767   6.651  0.3480 -1.0895 -0.9340
  850MOL0     H12190   6.680  10.025   7.019  0.5935  0.1958 -1.2024
  850MOL0     H12191   6.757   9.870   7.062 -0.1895  0.1330 -0.8352
  850MOL0     H12192   6.523   9.753   7.040 -1.6421  0.3013 -0.8172
  850MOL0     H12193   6.561   9.859   7.181 -0.8673  2.2466  0.1724
  850MOL0     H12194   6.380   9.878   6.932 -1.5609  2.8956 -0.7101
  850MOL0     H12195   6.460  10.022   6.997  2.2971 -1.0201  0.1572
  850MOL0     H12196   6.279   9.838   7.166  0.0817  0.4710  1.4511
  850MOL0     H12197   6.354   9.978   7.224 -3.0310  1.0766  0.5438
  850MOL0     H12198   6.056  10.169   7.023 -0.8181 -2.6718 -0.7937
  850MOL0     H12199   6.947   9.889   6.954  1.7119 -3.3076  2.9703
  850MOL0     H12200   7.127   9.794   6.841  0.8240 -1.7201 -0.9540
  851MOL0     O12201   7.661   4.736   4.379 -0.1521  0.1101 -0.2523
  851MOL0     C12202   7.606   4.750   4.268 -0.4837 -1.1858 -0.4146
  851MOL0     O12203   7.668   4.792   4.153  0.2811  0.3227 -0.3721
  851MOL0     C12204   7.803   4.821   4.149  1.2237 -0.1038  1.6069
  851MOL0     C12205   7.838   4.942   4.095  0.2245  0.1347 -0.0908
  851MOL0     C12206   7.972   4.982   4.076  0.0879 -0.8064  0.8118
  851MOL0     C12207   8.071   4.895   4.124  0.4941  0.6802 -0.2980
  851MOL0     O12208   8.200   4.927   4.099  0.6439  0.2455  0.3676
  851MOL0     C12209   8.305   4.827   4.100  0.1482  0.7355 -0.0467
  851MOL0     C12210   8.407   4.881   3.998  1.3291 -0.4580 -0.1101
  851MOL0     C12211   8.451   5.027   4.023 -0.1190 -0.3783 -0.8277
  851MOL0     C12212   8.531   5.070   3.899 -0.6434  0.3118  0.6097
  851MOL0     C12213   8.574   5.217   3.910 -0.2891  0.8636  0.3919
  851MOL0     C12214   8.667   5.253   3.798 -0.4478 -0.6144 -0.5597
  851MOL0     C12215   8.766   5.364   3.837  0.2128  0.7198 -0.7076
  851MOL0     C12216   8.857   5.390   3.719 -0.4871  0.6205 -0.3898
  851MOL0     N12217   8.945   5.502   3.758  0.3320 -0.0527 -0.8134
  851MOL0     C12218   8.907   5.626   3.807 -0.4216  0.0531 -0.1772
  851MOL0     C12219   9.015   5.679   3.860 -0.7888  0.3015 -0.0648
  851MOL0     C12220   9.029   5.810   3.938  0.4164 -0.1588 -0.4486
  851MOL0     C12221   9.150   5.882   3.875 -0.7743  1.0559  0.7115
  851MOL0     C12222   9.140   5.909   3.723 -0.3083  0.1121  0.3771
  851MOL0     C12223   9.279   5.951   3.674  0.2336 -0.0768 -0.4493
  851MOL0     O12224   9.263   5.985   3.539 -0.4774 -0.0985  0.3356
  851MOL0     C12225   9.363   6.056   3.490 -0.3781 -0.0370 -1.1110
  851MOL0     C12226   9.490   6.004   3.475 -0.5798 -0.4134 -0.3992
  851MOL0     C12227   9.595   6.088   3.421 -0.2942  0.2082  0.7673
  851MOL0     C12228   9.575   6.223   3.386 -0.4570  0.0355 -0.1813
  851MOL0     C12229   9.686   6.313   3.336 -0.1733  0.8553  0.0440
  851MOL0     O12230   9.636   6.426   3.279  0.1832  0.2368 -0.5866
  851MOL0     C12231   9.739   6.505   3.217  0.0438  0.2359 -0.0845
  851MOL0     C12232   9.788   6.626   3.275  0.8357  0.4870  0.3471
  851MOL0     C12233   9.880   6.706   3.194  0.0189 -0.2394 -0.1511
  851MOL0     C12234   9.930   6.654   3.078 -0.2269 -0.7708  0.9508
  851MOL0     O12235  10.022   6.747   3.017  0.3072  0.4340  0.4324
  851MOL0     C12236  10.037   6.758   2.880 -0.9339 -0.1510  0.1137
  851MOL0     C12237  10.054   6.908   2.839 -0.9465 -0.1978 -0.3642
  851MOL0     C12238  10.107   6.999   2.953  0.6172 -0.6910  0.1711
  851MOL0     C12239  10.253   6.973   2.988 -0.3578 -0.2776 -0.2493
  851MOL0     C12240  10.289   7.076   3.089  0.2940 -0.5036 -1.0132
  851MOL0     C12241  10.427   7.049   3.147 -0.1728 -0.3758  0.2857
  851MOL0     C12242  10.546   7.040   3.051 -0.3398 -1.1785 -0.5174
  851MOL0     C12243  10.676   7.081   3.112 -0.5766  0.2003  0.3997
  851MOL0    Cl12244  10.665   7.237   3.184  0.1565 -0.1434  0.3748
  851MOL0     C12245   9.877   6.545   3.025  0.1006 -0.2316  0.0441
  851MOL0     C12246   9.783   6.466   3.098 -0.0590  0.2644  1.2526
  851MOL0     O12247   9.799   6.288   3.356  0.0797 -0.1242 -0.0580
  851MOL0     C12248   9.449   6.275   3.402 -0.0144 -0.0599 -0.4891
  851MOL0     C12249   9.347   6.188   3.452  0.6891  0.2424 -0.7868
  851MOL0     N12250   9.116   5.596   3.831 -0.3806  0.2446 -0.0224
  851MOL0     N12251   9.079   5.492   3.774  0.0848  0.2843 -0.2776
  851MOL0     C12252   8.040   4.768   4.178  0.3548  0.2379 -0.0099
  851MOL0     C12253   7.903   4.731   4.192 -0.1941  0.4294  0.2102
  851MOL0     C12254   7.463   4.735   4.277 -0.0178 -0.2046  0.0933
  851MOL0     C12255   7.390   4.760   4.157 -0.5005  0.1827  0.8385
  851MOL0     C12256   7.251   4.737   4.157  1.0128 -0.4135 -0.6451
  851MOL0     C12257   7.183   4.707   4.277  0.3005 -0.6047  0.2646
  851MOL0     O12258   7.040   4.698   4.290 -0.2951 -1.2367 -0.4459
  851MOL0     C12259   6.955   4.699   4.172 -0.6935  0.0522 -0.8031
  851MOL0     C12260   6.947   4.551   4.123 -0.3628  0.1668  0.1428
  851MOL0     C12261   6.849   4.525   4.002  0.6978 -0.3652 -0.3656
  851MOL0     C12262   6.717   4.604   4.012  0.3188  0.4961 -0.3819
  851MOL0     C12263   6.626   4.572   3.901  0.3601  0.6347 -0.0000
  851MOL0     C12264   6.532   4.551   3.830 -0.0658 -0.0356  1.0692
  851MOL0     C12265   7.259   4.694   4.397  0.2813  0.2827  0.0650
  851MOL0     C12266   7.395   4.707   4.403 -0.0666 -1.2560 -0.1900
  851MOL0     H12267   7.757   5.007   4.063 -1.1368 -1.0678  0.7953
  851MOL0     H12268   7.987   5.085   4.044  1.5756 -1.0532  0.6266
  851MOL0     H12269   8.271   4.734   4.053 -3.0012  1.3900  0.6719
  851MOL0     H12270   8.342   4.817   4.203  0.4650  0.2565 -0.2056
  851MOL0     H12271   8.372   4.886   3.894  1.8959 -0.6478 -0.3153
  851MOL0     H12272   8.490   4.810   4.013 -0.5365 -2.5396  0.9337
  851MOL0     H12273   8.504   5.018   4.118  2.4291  0.7225 -2.0178
  851MOL0     H12274   8.373   5.099   4.048  0.6065 -0.5335  2.1668
  851MOL0     H12275   8.622   5.011   3.892 -0.1849  1.1225 -0.4848
  851MOL0     H12276   8.480   5.052   3.804  0.9039 -1.7330  0.1088
  851MOL0     H12277   8.607   5.245   4.011 -0.7059  3.8855 -0.2174
  851MOL0     H12278   8.482   5.276   3.909 -0.8494  0.0100  0.1875
  851MOL0     H12279   8.602   5.280   3.714  0.4828 -2.4594 -1.9666
  851MOL0     H12280   8.731   5.171   3.762  1.6335  1.0904 -0.9451
  851MOL0     H12281   8.719   5.458   3.869  3.3949  0.8463  4.9668
  851MOL0     H12282   8.823   5.330   3.924 -2.9571 -2.0887  0.4923
  851MOL0     H12283   8.804   5.406   3.625  0.5800  2.2402 -0.7543
  851MOL0     H12284   8.907   5.295   3.697  0.6778  0.3874  2.7605
  851MOL0     H12285   8.804   5.660   3.814 -0.5664 -0.4926  0.4912
  851MOL0     H12286   9.044   5.803   4.046  1.5478 -2.7029 -0.6963
  851MOL0     H12287   8.940   5.870   3.918 -1.6457 -3.0984 -0.7565
  851MOL0     H12288   9.236   5.822   3.904  0.2405  2.1937  0.1333
  851MOL0     H12289   9.158   5.984   3.915 -0.6596  2.3257 -2.2397
  851MOL0     H12290   9.104   5.828   3.660  1.9753 -0.7988  0.1363
  851MOL0     H12291   9.077   5.998   3.713  1.4240  1.3396 -0.1195
  851MOL0     H12292   9.344   5.863   3.682  0.8968  0.4781  0.5210
  851MOL0     H12293   9.327   6.033   3.729 -1.4129  1.5145 -1.2613
  851MOL0     H12294   9.503   5.899   3.498 -0.4442 -1.7416 -5.5057
  851MOL0     H12295   9.696   6.050   3.426  0.6786  2.0973 -2.1223
  851MOL0     H12296   9.747   6.657   3.371  3.3787  0.5240  1.4797
  851MOL0     H12297   9.916   6.803   3.226  0.4351 -0.8389  1.2927
  851MOL0     H12298   9.940   6.729   2.838 -1.5207  1.0753  0.5738
  851MOL0     H12299  10.126   6.699   2.856  1.6677  3.2195  0.7832
  851MOL0     H12300   9.953   6.942   2.813 -1.3271 -1.5563 -0.7440
  851MOL0     H12301  10.121   6.925   2.754  0.2050  2.1773  0.9246
  851MOL0     H12302  10.039   6.992   3.038  2.4875  2.2261  2.1197
  851MOL0     H12303  10.103   7.096   2.903 -0.7572 -0.6250  0.3894
  851MOL0     H12304  10.265   6.870   3.024  2.5944  0.3207  0.7722
  851MOL0     H12305  10.320   6.986   2.903 -0.6172  0.4098 -0.3561
  851MOL0     H12306  10.214   7.080   3.168 -0.2016 -1.1206 -1.4415
  851MOL0     H12307  10.272   7.174   3.042 -1.8990 -0.0266  0.5990
  851MOL0     H12308  10.429   6.954   3.202  1.9458 -0.6530 -0.1884
  851MOL0     H12309  10.447   7.123   3.225 -1.7327  1.9175 -1.3647
  851MOL0     H12310  10.551   6.935   3.021 -3.8325 -0.7731 -3.1504
  851MOL0     H12311  10.532   7.107   2.966  3.4838  1.9525  0.9843
  851MOL0     H12312  10.755   7.088   3.036 -0.9028  2.9064  0.1857
  851MOL0     H12313  10.703   7.003   3.184 -1.1409  0.0480  0.4510
  851MOL0     H12314   9.925   6.517   2.932  0.7999 -0.9711  0.6083
  851MOL0     H12315   9.749   6.371   3.057  3.7212 -1.4090  1.5452
  851MOL0     H12316   9.436   6.381   3.379  0.8231  0.3842  0.8847
  851MOL0     H12317   9.243   6.218   3.465  0.9716  1.7918 -1.7238
  851MOL0     H12318   8.120   4.706   4.217  0.0056 -0.6766 -0.7174
  851MOL0     H12319   7.880   4.634   4.236 -0.4121  0.4991  0.2476
  851MOL0     H12320   7.439   4.789   4.065 -2.0529  0.5839  0.1063
  851MOL0     H12321   7.205   4.753   4.060  0.3758  3.3640  0.1225
  851MOL0     H12322   6.997   4.768   4.099  1.2881  0.9310  1.0564
  851MOL0     H12323   6.862   4.743   4.208 -0.1637  1.1001 -0.6677
  851MOL0     H12324   7.047   4.516   4.098 -0.5873 -0.5323  0.1901
  851MOL0     H12325   6.916   4.482   4.202  2.0835 -0.3480  0.7278
  851MOL0     H12326   6.822   4.419   4.007  0.3488 -0.3111 -1.0101
  851MOL0     H12327   6.902   4.550   3.910 -0.0024 -2.7500 -1.5134
  851MOL0     H12328   6.652   4.575   4.095 -1.2945 -1.7929 -2.3292
  851MOL0     H12329   6.744   4.709   4.030  0.8758 -0.0820  2.6404
  851MOL0     H12330   6.442   4.523   3.779  1.1399  0.1970 -1.3524
  851MOL0     H12331   7.206   4.677   4.491  0.4434  0.8411  0.2585
  851MOL0     H12332   7.443   4.698   4.499  0.0701  0.9156 -0.0043
  852MOL0     O12333   4.976   3.097   0.669  0.1013 -0.6362 -0.8135
  852MOL0     C12334   5.056   3.190   0.641  0.2655 -0.0558 -0.5517
  852MOL0     O12335   5.013   3.314   0.619  0.1610  0.3615 -0.0615
  852MOL0     C12336   4.885   3.347   0.654 -0.2371  0.7134 -0.3894
  852MOL0     C12337   4.808   3.389   0.545  0.1677  0.2630  0.7218
  852MOL0     C12338   4.667   3.423   0.562 -0.3542 -0.0500  0.1536
  852MOL0     C12339   4.601   3.403   0.684 -0.0370 -0.7039  0.3395
  852MOL0     O12340   4.474   3.438   0.713  1.2006  0.2551  0.4833
  852MOL0     C12341   4.421   3.566   0.666  0.2690 -0.4354  0.0881
  852MOL0     C12342   4.269   3.552   0.645 -0.6009  0.3019 -1.0255
  852MOL0     C12343   4.186   3.529   0.782 -0.4578 -0.3805 -0.5051
  852MOL0     C12344   4.165   3.384   0.828 -0.2960  1.1023  0.0209
  852MOL0     C12345   4.076   3.286   0.745 -1.1505  0.1255 -0.0949
  852MOL0     C12346   3.929   3.266   0.795 -0.3100  0.4070  0.0758
  852MOL0     C12347   3.850   3.180   0.703 -0.0411 -0.5752  0.2438
  852MOL0     C12348   3.830   3.042   0.753  0.0649 -0.3586  0.2926
  852MOL0     N12349   3.738   3.051   0.860  0.6759 -0.2199 -0.1311
  852MOL0     C12350   3.610   3.019   0.847 -0.0125  0.1246  0.1064
  852MOL0     C12351   3.565   3.009   0.971  0.7034  0.2455  0.4300
  852MOL0     C12352   3.427   2.974   1.016 -0.4757 -0.9044 -0.1549
  852MOL0     C12353   3.352   3.106   1.044 -0.4056  0.3131  0.4702
  852MOL0     C12354   3.211   3.083   1.095 -0.4028 -0.1155  0.4311
  852MOL0     C12355   3.135   3.005   0.984  0.2133  0.3854 -0.1057
  852MOL0     O12356   2.995   3.000   1.007 -0.2411 -0.1485 -0.4586
  852MOL0     C12357   2.911   2.925   0.924 -0.2984  0.7260  0.3900
  852MOL0     C12358   2.944   2.854   0.808 -0.4382 -0.4223  0.1929
  852MOL0     C12359   2.839   2.800   0.733  0.1564 -0.8399 -0.1544
  852MOL0     C12360   2.704   2.820   0.758 -0.5208 -0.1802 -0.0854
  852MOL0     C12361   2.605   2.763   0.661  0.0078  0.4077 -0.3059
  852MOL0     O12362   2.658   2.705   0.551  0.5324  0.1073 -0.1458
  852MOL0     C12363   2.582   2.631   0.461 -0.3727  0.0916  0.5100
  852MOL0     C12364   2.647   2.595   0.338  0.3015  0.6750 -0.4119
  852MOL0     C12365   2.577   2.510   0.244  0.3289 -0.3335  0.1551
  852MOL0     C12366   2.436   2.480   0.262  0.6544  0.8581 -0.7910
  852MOL0     O12367   2.360   2.419   0.165  0.7674 -0.4374  0.0401
  852MOL0     C12368   2.397   2.291   0.108  1.3732 -1.3609  0.2401
  852MOL0     C12369   2.317   2.181   0.188  0.0083 -0.5698  0.4882
  852MOL0     C12370   2.169   2.203   0.201  0.0558  0.2694 -0.3171
  852MOL0     C12371   2.100   2.199   0.059  1.6357  0.6440 -0.1190
  852MOL0     C12372   1.941   2.191   0.069  0.3095  0.4907 -0.5197
  852MOL0     C12373   1.887   2.336   0.079 -0.6240 -0.8537  0.2032
  852MOL0     C12374   1.739   2.341   0.122 -0.1261  0.5492  0.2908
  852MOL0     C12375   1.634   2.309   0.006  0.0453 -0.3165 -0.1574
  852MOL0    Cl12376   1.485   2.225   0.058 -0.1365 -0.0165 -0.2910
  852MOL0     C12377   2.373   2.512   0.383  0.1490  0.0506 -0.3142
  852MOL0     C12378   2.446   2.582   0.473 -0.4506  0.8235 -0.1020
  852MOL0     O12379   2.488   2.793   0.679  0.1578  0.7057 -0.5011
  852MOL0     C12380   2.675   2.882   0.877 -0.8181 -0.1349 -0.3103
  852MOL0     C12381   2.777   2.931   0.959  0.1786  0.2160 -0.2226
  852MOL0     N12382   3.654   3.048   1.058 -0.4134  0.7807  0.9827
  852MOL0     N12383   3.769   3.070   0.993  0.2240 -0.0080  0.3576
  852MOL0     C12384   4.676   3.336   0.790 -0.1904 -0.4474  0.0612
  852MOL0     C12385   4.818   3.321   0.772  0.7055  0.4018  0.4904
  852MOL0     C12386   5.203   3.162   0.632 -0.6640 -1.1282 -1.4451
  852MOL0     C12387   5.293   3.276   0.625 -0.0101 -1.0414  0.7233
  852MOL0     C12388   5.435   3.256   0.600 -0.0883 -0.4053 -0.3725
  852MOL0     C12389   5.482   3.128   0.586  0.2924 -0.2906  0.3918
  852MOL0     O12390   5.620   3.110   0.571  0.2796  0.0178  0.0364
  852MOL0     C12391   5.681   2.989   0.557  0.3806 -0.4361 -0.8248
  852MOL0     C12392   5.821   3.008   0.507  0.2837  0.1733 -0.9456
  852MOL0     C12393   5.904   3.070   0.618  0.0093  0.3471  0.0567
  852MOL0     C12394   6.048   3.120   0.569 -0.9459  0.5520 -0.0480
  852MOL0     C12395   6.127   3.166   0.682 -0.6874  0.7626  0.2099
  852MOL0     C12396   6.184   3.195   0.788  0.1405 -0.1570  0.3763
  852MOL0     C12397   5.393   3.018   0.601  0.3954  0.4264  0.1206
  852MOL0     C12398   5.259   3.034   0.616 -0.6953 -0.1463  0.1284
  852MOL0     H12399   4.854   3.378   0.447 -0.3676 -1.5798  0.6555
  852MOL0     H12400   4.619   3.456   0.471  1.9776 -1.3031 -1.6526
  852MOL0     H12401   4.463   3.574   0.565 -2.9085  0.6780 -1.2571
  852MOL0     H12402   4.461   3.648   0.728  1.3826 -1.7572  1.1826
  852MOL0     H12403   4.254   3.469   0.576  0.3188 -0.8467  0.1005
  852MOL0     H12404   4.233   3.643   0.596  3.5507  2.0833 -1.2312
  852MOL0     H12405   4.083   3.564   0.770  0.2753  1.9855 -0.4011
  852MOL0     H12406   4.217   3.593   0.866 -3.9061 -1.9863  2.2313
  852MOL0     H12407   4.260   3.334   0.849 -3.1122 -4.1735  2.2444
  852MOL0     H12408   4.122   3.382   0.929  0.0897 -0.9395  0.1937
  852MOL0     H12409   4.128   3.190   0.750  0.9550  1.1724 -0.5743
  852MOL0     H12410   4.071   3.308   0.638  0.6217 -2.0576 -0.7110
  852MOL0     H12411   3.885   3.366   0.799  1.8847  1.7140 -3.5041
  852MOL0     H12412   3.921   3.222   0.895 -0.5607 -1.0516 -0.5552
  852MOL0     H12413   3.756   3.226   0.670  1.3500  1.0410 -1.7032
  852MOL0     H12414   3.910   3.159   0.614 -1.5227 -2.7245 -0.3016
  852MOL0     H12415   3.926   2.995   0.778 -1.4771 -3.4763  0.9056
  852MOL0     H12416   3.799   2.986   0.665 -2.1883  0.6116  0.4140
  852MOL0     H12417   3.554   2.992   0.757  1.6078 -1.2269 -0.5428
  852MOL0     H12418   3.417   2.926   1.114 -3.0223  0.5961  0.4231
  852MOL0     H12419   3.388   2.915   0.933  1.0382  2.3586 -3.4743
  852MOL0     H12420   3.341   3.163   0.951 -1.6663  3.3542  2.3538
  852MOL0     H12421   3.404   3.157   1.125  1.3385 -3.6475  2.0759
  852MOL0     H12422   3.214   3.044   1.197  0.1836  0.2510  0.5605
  852MOL0     H12423   3.162   3.180   1.109  0.2206  0.1929  0.5063
  852MOL0     H12424   3.178   2.905   0.980  0.5683  0.3649  2.5630
  852MOL0     H12425   3.156   3.047   0.885 -2.2312  1.1852 -0.3529
  852MOL0     H12426   3.047   2.850   0.776 -0.5275 -1.3520  0.0193
  852MOL0     H12427   2.867   2.750   0.641  1.7285  0.5862 -0.5004
  852MOL0     H12428   2.746   2.631   0.313 -0.9797  4.2453 -0.9403
  852MOL0     H12429   2.628   2.468   0.157  1.7436 -0.5012  1.0358
  852MOL0     H12430   2.505   2.280   0.113  1.5362  0.4488  3.0920
  852MOL0     H12431   2.357   2.292   0.006 -1.2434  0.3435  1.1609
  852MOL0     H12432   2.347   2.171   0.292 -2.2792  1.9111  1.5176
  852MOL0     H12433   2.335   2.084   0.141  1.1133 -1.0412  1.8387
  852MOL0     H12434   2.153   2.298   0.254 -0.8354  0.7567 -1.4218
  852MOL0     H12435   2.117   2.130   0.264 -2.1941  1.3974 -0.7772
  852MOL0     H12436   2.118   2.292   0.004 -2.8817  0.9760 -1.4870
  852MOL0     H12437   2.141   2.107   0.015 -0.8082 -1.6417  1.9709
  852MOL0     H12438   1.911   2.128   0.153  0.4267  2.0617  0.7643
  852MOL0     H12439   1.897   2.147  -0.021  0.3944  1.1799 -0.9060
  852MOL0     H12440   1.889   2.394  -0.014 -2.5756 -0.9598  0.0665
  852MOL0     H12441   1.951   2.383   0.155 -2.3823  0.6132  0.8507
  852MOL0     H12442   1.723   2.272   0.206 -0.5696 -1.3523 -1.2711
  852MOL0     H12443   1.708   2.441   0.151  1.6387  0.2568  3.7252
  852MOL0     H12444   1.674   2.248  -0.076  1.4892  0.2834  0.0701
  852MOL0     H12445   1.583   2.400  -0.027 -2.8681 -1.3826  1.0145
  852MOL0     H12446   2.270   2.479   0.394 -0.0663  1.1655  1.2555
  852MOL0     H12447   2.399   2.604   0.568 -0.2313 -1.6578  0.6590
  852MOL0     H12448   2.571   2.889   0.907 -0.8604  3.1138 -0.7886
  852MOL0     H12449   2.752   2.992   1.045  0.1136 -0.9579  0.6190
  852MOL0     H12450   4.627   3.297   0.878 -0.0234  0.4900  0.5794
  852MOL0     H12451   4.869   3.282   0.860  0.7531 -0.1423  0.2281
  852MOL0     H12452   5.254   3.376   0.610  0.3600 -0.7744  1.4862
  852MOL0     H12453   5.503   3.341   0.595  0.4793 -0.8098  0.3110
  852MOL0     H12454   5.625   2.927   0.486 -0.2783 -0.0692 -0.6343
  852MOL0     H12455   5.683   2.944   0.656 -0.0105  1.1070 -0.0885
  852MOL0     H12456   5.866   2.911   0.485 -0.6356 -0.9596  1.7455
  852MOL0     H12457   5.831   3.071   0.418  0.7523  2.7611  0.8281
  852MOL0     H12458   5.925   3.003   0.702  2.5564  1.7661  0.6594
  852MOL0     H12459   5.850   3.161   0.646  0.3113  0.7749 -0.7229
  852MOL0     H12460   6.102   3.028   0.544  0.4210  1.3762 -0.2220
  852MOL0     H12461   6.041   3.199   0.493 -1.3954 -1.2259 -1.9491
  852MOL0     H12462   6.233   3.233   0.876 -0.2877  0.5493  0.3175
  852MOL0     H12463   5.438   2.919   0.601 -1.1716 -0.3798  2.5745
  852MOL0     H12464   5.198   2.947   0.637 -0.1956 -0.3017  0.9827
  853MOL0     O12465   5.187  11.007  11.100 -0.4275 -0.3034 -0.0056
  853MOL0     C12466   5.109  10.965  11.015  0.0457  0.1275  0.2971
  853MOL0     O12467   5.046  11.045  10.918  0.3476  0.0209 -0.7190
  853MOL0     C12468   5.056  11.179  10.933 -0.5283  0.1954 -0.0528
  853MOL0     C12469   4.943  11.249  10.966  0.0749  0.2238 -0.6712
  853MOL0     C12470   4.934  11.391  10.986  0.3875  0.0563  0.3340
  853MOL0     C12471   5.057  11.460  10.961  0.3143  0.5292  0.2805
  853MOL0     O12472   5.065  11.593  10.964  0.3388  0.3718  0.2466
  853MOL0     C12473   4.985  11.665  11.065  0.4094  0.0772  0.8543
  853MOL0     C12474   5.002  11.616  11.205  0.1137  0.0073  0.4569
  853MOL0     C12475   5.149  11.634  11.238  0.3116 -0.4175 -0.6894
  853MOL0     C12476   5.176  11.635  11.388 -0.3259  0.1885 -0.5708
  853MOL0     C12477   5.317  11.690  11.412  0.3601  0.0313  0.0407
  853MOL0     C12478   5.376  11.652  11.548  0.5855 -0.7822 -0.1682
  853MOL0     C12479   5.268  11.662  11.665 -0.4949  0.0733 -0.2213
  853MOL0     C12480   5.238  11.813  11.717  0.4544  0.4724  0.1486
  853MOL0     N12481   5.171  11.820  11.853 -0.0767  0.0974  0.3680
  853MOL0     C12482   5.036  11.843  11.865 -0.1485 -0.1292 -0.0586
  853MOL0     C12483   5.012  11.885  11.988 -0.3958  0.1768 -0.1338
  853MOL0     C12484   4.881  11.938  12.038  0.2460  0.2453  0.1650
  853MOL0     C12485   4.786  11.825  12.078  0.0975 -0.3852  0.4688
  853MOL0     C12486   4.667  11.890  12.150  0.4890 -0.0734  0.4694
  853MOL0     C12487   4.561  11.964  12.061 -0.1390  0.6711  0.2737
  853MOL0     O12488   4.477  11.868  11.991  0.2582 -0.0087  0.2687
  853MOL0     C12489   4.343  11.881  12.026 -1.4561 -1.0172  0.4787
  853MOL0     C12490   4.296  11.875  12.151 -0.5150 -0.1905 -0.4850
  853MOL0     C12491   4.161  11.879  12.181 -0.5830  0.2974  0.5904
  853MOL0     C12492   4.070  11.882  12.073 -0.1742  0.2132 -0.3647
  853MOL0     C12493   3.927  11.867  12.106 -0.7953  0.8332 -0.6570
  853MOL0     O12494   3.854  11.784  12.017  0.0747  0.5232  0.4027
  853MOL0     C12495   3.723  11.762  12.040 -0.9932 -1.0023 -0.1275
  853MOL0     C12496   3.687  11.629  12.062  0.0299  0.0305 -1.2865
  853MOL0     C12497   3.559  11.592  12.099  0.0516  1.0167 -0.7403
  853MOL0     C12498   3.461  11.695  12.110  0.2952 -1.0170  0.5190
  853MOL0     O12499   3.327  11.658  12.135 -0.8274  0.3817  0.3208
  853MOL0     C12500   3.236  11.761  12.181 -0.5667 -0.3509 -0.3968
  853MOL0     C12501   3.138  11.812  12.078 -0.0214  0.2318  0.5132
  853MOL0     C12502   3.087  11.944  12.122  0.9192  0.6551  0.1774
  853MOL0     C12503   2.972  11.989  12.037  0.4470 -0.6997  0.2516
  853MOL0     C12504   3.004  12.014  11.887  0.3765 -0.3520 -1.0290
  853MOL0     C12505   2.898  12.081  11.808  0.3772 -0.6381 -0.1874
  853MOL0     C12506   2.950  12.136  11.662 -0.6589 -0.2862  0.2359
  853MOL0     C12507   2.843  12.207  11.572 -0.4066  0.4377  0.1975
  853MOL0    Cl12508   2.743  12.081  11.496  0.8235 -0.2007  0.0362
  853MOL0     C12509   3.497  11.832  12.090 -0.1830  0.2445  0.6513
  853MOL0     C12510   3.628  11.860  12.047  0.0466  0.3902  0.2777
  853MOL0     O12511   3.881  11.911  12.211  0.8940  0.3252  0.5415
  853MOL0     C12512   4.120  11.882  11.944  0.3688 -0.9238  0.9473
  853MOL0     C12513   4.258  11.880  11.921 -0.2704  0.3422  0.3927
  853MOL0     N12514   5.133  11.894  12.054 -0.7875  1.0876  0.4397
  853MOL0     N12515   5.229  11.847  11.973  0.1761 -0.4422 -0.3520
  853MOL0     C12516   5.165  11.391  10.917 -0.0552 -0.5508  1.0283
  853MOL0     C12517   5.170  11.256  10.915  0.5164  0.6051  0.0178
  853MOL0     C12518   5.084  10.816  11.004 -0.2725  0.7192  0.6902
  853MOL0     C12519   4.976  10.764  10.931 -0.8374  0.7801  0.2882
  853MOL0     C12520   4.958  10.623  10.926 -0.4884  0.5788 -0.7662
  853MOL0     C12521   5.052  10.539  10.981  0.3606  0.4924  0.0577
  853MOL0     O12522   5.066  10.397  10.963 -0.5346 -0.0339 -0.2952
  853MOL0     C12523   5.055  10.343  10.832 -0.3576 -0.4369 -0.1486
  853MOL0     C12524   5.172  10.368  10.743  0.0880  0.1898  0.6085
  853MOL0     C12525   5.185  10.276  10.622  0.1316  0.0141 -0.0472
  853MOL0     C12526   5.151  10.126  10.641  0.4651 -1.4150  1.0600
  853MOL0     C12527   5.011  10.103  10.599 -0.3109  0.0560 -1.4415
  853MOL0     C12528   4.902  10.067  10.572  0.2894  0.4355 -0.7417
  853MOL0     C12529   5.152  10.594  11.063 -0.6196  0.2924  0.6963
  853MOL0     C12530   5.174  10.731  11.074  0.0196  0.2887  0.6371
  853MOL0     H12531   4.849  11.196  10.977  0.4453 -0.4787 -0.8246
  853MOL0     H12532   4.839  11.433  11.020  0.2708 -0.1822  0.3061
  853MOL0     H12533   4.880  11.645  11.040  0.6297  0.4864 -0.4435
  853MOL0     H12534   5.000  11.773  11.057  0.4114 -0.0037 -0.3515
  853MOL0     H12535   4.978  11.510  11.218  1.3060 -0.5321 -1.4558
  853MOL0     H12536   4.933  11.675  11.266  0.2676  2.6318 -1.7517
  853MOL0     H12537   5.193  11.728  11.200  0.5250 -1.0202 -1.9976
  853MOL0     H12538   5.206  11.551  11.196 -0.3605 -2.3695  2.0051
  853MOL0     H12539   5.108  11.698  11.446  1.5065  1.4752  0.2793
  853MOL0     H12540   5.177  11.531  11.424  1.2601  0.3956  0.0835
  853MOL0     H12541   5.303  11.798  11.402 -1.1602 -0.3416 -2.5455
  853MOL0     H12542   5.389  11.656  11.338  1.2975 -0.9709  1.3621
  853MOL0     H12543   5.464  11.711  11.576  1.0122 -1.5763  0.1682
  853MOL0     H12544   5.389  11.544  11.557  0.2446 -0.8296 -0.2005
  853MOL0     H12545   5.186  11.596  11.636 -0.2066  0.0211 -0.9317
  853MOL0     H12546   5.322  11.615  11.748  0.2955 -0.6090 -1.1007
  853MOL0     H12547   5.178  11.875  11.649 -0.1605 -0.4305 -0.1610
  853MOL0     H12548   5.328  11.874  11.718  0.3778  0.6875 -1.8582
  853MOL0     H12549   4.961  11.833  11.786 -0.1502  1.6638 -0.3339
  853MOL0     H12550   4.840  11.989  11.950  3.7576  1.7675 -0.7299
  853MOL0     H12551   4.892  12.015  12.114 -1.2023  2.3768 -1.6677
  853MOL0     H12552   4.841  11.747  12.133 -0.7197 -2.7150 -1.8097
  853MOL0     H12553   4.737  11.775  11.994  0.3268  0.0827  0.0522
  853MOL0     H12554   4.605  11.812  12.195 -1.8332  0.4672 -1.5952
  853MOL0     H12555   4.699  11.947  12.238 -0.0409  3.6479 -1.5604
  853MOL0     H12556   4.600  12.017  11.973 -1.1184 -2.3661 -2.1949
  853MOL0     H12557   4.502  12.034  12.120 -0.8425  2.4257 -2.3061
  853MOL0     H12558   4.365  11.868  12.234 -0.4529  3.0654 -0.1375
  853MOL0     H12559   4.123  11.862  12.281  3.2672  3.4697  2.8211
  853MOL0     H12560   3.760  11.549  12.052  1.0837  0.5555  1.2977
  853MOL0     H12561   3.533  11.487  12.109  4.5538 -0.2003  0.1477
  853MOL0     H12562   3.282  11.845  12.233 -0.4345  0.7322 -2.1899
  853MOL0     H12563   3.171  11.715  12.256  0.1602  0.7912  0.9790
  853MOL0     H12564   3.053  11.743  12.073 -1.6117  1.7205  3.7152
  853MOL0     H12565   3.186  11.820  11.980  2.9948  1.4410  1.9424
  853MOL0     H12566   3.168  12.018  12.124  1.5981 -0.0423  2.7848
  853MOL0     H12567   3.059  11.931  12.227  1.3290 -1.4138  0.0854
  853MOL0     H12568   2.897  11.911  12.051 -0.1360 -0.3113 -0.6341
  853MOL0     H12569   2.944  12.080  12.090 -1.6716 -2.3783  2.2546
  853MOL0     H12570   3.034  11.918  11.845 -1.3235 -2.9799  3.2123
  853MOL0     H12571   3.095  12.073  11.879  1.0326 -1.5308 -2.9412
  853MOL0     H12572   2.873  12.174  11.860 -0.7980 -1.6022  1.0802
  853MOL0     H12573   2.810  12.016  11.812 -0.7892  0.9477  1.8309
  853MOL0     H12574   3.022  12.215  11.686 -1.7766  1.8090 -2.7241
  853MOL0     H12575   2.991  12.057  11.599 -2.4282 -0.7833 -0.3436
  853MOL0     H12576   2.877  12.270  11.489 -1.2500 -1.1815 -1.4424
  853MOL0     H12577   2.789  12.274  11.639  0.3769  0.8275  0.4458
  853MOL0     H12578   3.429  11.915  12.104  0.3389  0.7348  0.3494
  853MOL0     H12579   3.658  11.964  12.035  0.3070  0.2505 -0.3375
  853MOL0     H12580   4.052  11.864  11.861 -0.1809 -0.3787  1.2688
  853MOL0     H12581   4.303  11.859  11.824  0.9449 -0.1067  1.0323
  853MOL0     H12582   5.244  11.456  10.880  0.6006 -2.1413 -0.4702
  853MOL0     H12583   5.250  11.195  10.876 -3.3836 -4.3380 -1.3092
  853MOL0     H12584   4.911  10.827  10.871 -0.9334  2.3945  1.9780
  853MOL0     H12585   4.876  10.580  10.868  1.1068 -1.1418 -1.8429
  853MOL0     H12586   4.968  10.388  10.783  1.2596 -0.3956 -3.1928
  853MOL0     H12587   5.027  10.237  10.842  0.7726 -0.5610  2.4687
  853MOL0     H12588   5.174  10.471  10.706  3.5674  1.2428  3.1297
  853MOL0     H12589   5.266  10.353  10.798  2.5138  3.5743 -2.1939
  853MOL0     H12590   5.286  10.280  10.580 -0.1975 -2.6066 -1.2765
  853MOL0     H12591   5.110  10.309  10.550 -2.2000 -3.5375  0.4988
  853MOL0     H12592   5.213  10.063  10.576  0.1851  0.5854 -1.2750
  853MOL0     H12593   5.163  10.094  10.745  3.0500 -1.4338  0.8399
  853MOL0     H12594   4.808  10.028  10.539  0.4573  0.8081 -1.6865
  853MOL0     H12595   5.216  10.526  11.118 -0.0986  1.6043  1.7777
  853MOL0     H12596   5.256  10.776  11.130  2.2567 -0.8608 -1.5111
  854MOL0     O12597   2.097   0.572  11.087  0.2377  0.4706 -0.0657
  854MOL0     C12598   2.084   0.691  11.122  0.5876 -0.2421 -0.4866
  854MOL0     O12599   1.963   0.749  11.181  0.5873 -0.5557 -0.4723
  854MOL0     C12600   1.861   0.671  11.210 -0.1947 -0.0915 -0.1173
  854MOL0     C12601   1.764   0.618  11.123  0.6649 -0.3690 -0.5532
  854MOL0     C12602   1.678   0.514  11.159  0.3816  0.2813 -0.4602
  854MOL0     C12603   1.690   0.450  11.287 -0.4280 -0.6607  0.3245
  854MOL0     O12604   1.622   0.339  11.330 -0.6027 -0.7138  0.5167
  854MOL0     C12605   1.510   0.279  11.256  0.7516 -0.2871  0.8387
  854MOL0     C12606   1.379   0.372  11.287 -0.7747 -0.0072 -0.4431
  854MOL0     C12607   1.257   0.316  11.214  0.3145  0.2033 -0.2375
  854MOL0     C12608   1.152   0.426  11.234  0.9890 -0.9839 -0.1399
  854MOL0     C12609   1.010   0.372  11.206 -0.1675 -0.3797  0.2428
  854MOL0     C12610   0.980   0.310  11.072 -0.2319  0.5169  0.1876
  854MOL0     C12611   0.849   0.235  11.084  0.6834 -0.3250 -0.2337
  854MOL0     C12612   0.728   0.303  11.157  0.7726  0.2101 -0.0590
  854MOL0     N12613   0.614   0.211  11.157  0.2443 -0.5398  1.1936
  854MOL0     C12614   0.542   0.181  11.042  0.1115 -0.5672 -0.1753
  854MOL0     C12615   0.433   0.118  11.087  0.4625 -0.1765  0.3224
  854MOL0     C12616   0.323   0.076  10.991  0.1438  0.5082  0.8452
  854MOL0     C12617   0.261  -0.064  11.036  0.7016 -0.0856 -0.1091
  854MOL0     C12618   0.118  -0.062  11.000  0.0194  0.6839  0.3299
  854MOL0     C12619   0.064  -0.202  11.015 -0.3702  0.6718 -0.8148
  854MOL0     O12620  -0.058  -0.206  10.935 -0.0914 -0.6016 -0.1561
  854MOL0     C12621  -0.176  -0.196  11.001  0.1541 -0.6170 -0.8302
  854MOL0     C12622  -0.272  -0.126  10.932  0.5936  0.0765 -0.8619
  854MOL0     C12623  -0.403  -0.115  10.978 -0.5203 -0.1081  0.5959
  854MOL0     C12624  -0.446  -0.183  11.088 -0.0351  0.1269  0.1221
  854MOL0     C12625  -0.584  -0.189  11.134  0.3492  0.1302 -0.0635
  854MOL0     O12626  -0.607  -0.250  11.256 -0.0756  0.6984 -0.0315
  854MOL0     C12627  -0.737  -0.278  11.287  0.8884 -0.1708  0.1559
  854MOL0     C12628  -0.823  -0.168  11.324 -0.6266 -0.0111  0.7182
  854MOL0     C12629  -0.954  -0.207  11.357  0.7387 -0.3208 -0.6676
  854MOL0     C12630  -0.997  -0.342  11.378  0.1773  0.6650  0.1288
  854MOL0     O12631  -1.122  -0.385  11.422  0.3944 -0.6326 -0.4524
  854MOL0     C12632  -1.118  -0.431  11.563  0.9210 -0.5826  0.1312
  854MOL0     C12633  -1.245  -0.508  11.588  0.7507 -0.2081  0.0083
  854MOL0     C12634  -1.238  -0.609  11.706 -0.3760 -0.1495  1.1116
  854MOL0     C12635  -1.386  -0.665  11.722 -0.4246 -0.2057  0.4457
  854MOL0     C12636  -1.362  -0.807  11.775  0.0907 -0.0537 -0.2739
  854MOL0     C12637  -1.493  -0.887  11.814 -1.1367  0.4475 -0.4903
  854MOL0     C12638  -1.456  -0.996  11.907 -1.1191 -0.1757  0.4391
  854MOL0     C12639  -1.574  -1.060  11.980 -0.3894  0.7381 -0.1766
  854MOL0    Cl12640  -1.639  -0.951  12.098  0.1932 -0.3717 -0.4172
  854MOL0     C12641  -0.910  -0.446  11.347 -0.4567 -1.1935 -0.1108
  854MOL0     C12642  -0.783  -0.411  11.292  0.2273 -0.6592 -0.3890
  854MOL0     O12643  -0.677  -0.147  11.061 -0.9325 -0.4206  0.3377
  854MOL0     C12644  -0.344  -0.252  11.160 -0.4279 -0.4602 -0.0927
  854MOL0     C12645  -0.205  -0.265  11.119  0.8543 -0.8092  0.2338
  854MOL0     N12646   0.444   0.096  11.224  0.0238 -0.2168 -0.0592
  854MOL0     N12647   0.558   0.137  11.263 -0.4066  0.4183 -0.5089
  854MOL0     C12648   1.793   0.498  11.368  1.0887 -0.8478  0.1835
  854MOL0     C12649   1.867   0.609  11.343 -0.2720  0.1659  0.9833
  854MOL0     C12650   2.179   0.795  11.073 -0.3475  0.1453 -0.5418
  854MOL0     C12651   2.312   0.758  11.033  0.7546  0.7609  0.1682
  854MOL0     C12652   2.409   0.855  11.013  0.4588  0.0252  0.4445
  854MOL0     C12653   2.379   0.986  10.997 -0.1397 -0.2966 -0.1840
  854MOL0     O12654   2.476   1.077  10.958  0.3026 -0.4778  0.6766
  854MOL0     C12655   2.539   1.056  10.833  0.4522  0.7273  0.1877
  854MOL0     C12656   2.450   1.125  10.735  0.3750  0.1129 -0.7111
  854MOL0     C12657   2.519   1.249  10.678 -0.3456  0.1370  1.1397
  854MOL0     C12658   2.422   1.322  10.589  0.0044  0.8739 -0.5003
  854MOL0     C12659   2.467   1.456  10.572  0.6853 -0.4570  0.1067
  854MOL0     C12660   2.510   1.557  10.533 -0.0148 -0.2819 -0.6104
  854MOL0     C12661   2.248   1.025  11.022 -0.3607 -0.1714 -0.2344
  854MOL0     C12662   2.149   0.936  11.071 -0.2279 -0.3154  0.1582
  854MOL0     H12663   1.746   0.654  11.022 -0.6446 -1.7363 -0.8410
  854MOL0     H12664   1.620   0.469  11.079  2.9587 -2.2687 -1.0683
  854MOL0     H12665   1.501   0.178  11.298  2.0505 -1.6728 -1.9685
  854MOL0     H12666   1.536   0.262  11.151  1.2964  0.4634  0.8509
  854MOL0     H12667   1.405   0.477  11.270  0.9456 -0.8582 -4.0560
  854MOL0     H12668   1.359   0.359  11.394  0.1272 -1.6192 -0.4366
  854MOL0     H12669   1.215   0.223  11.254 -0.1056  1.1382  1.6034
  854MOL0     H12670   1.271   0.291  11.109 -1.6885 -0.2254 -0.4352
  854MOL0     H12671   1.148   0.473  11.333 -1.7012  0.8354 -0.9999
  854MOL0     H12672   1.179   0.511  11.171 -0.5476 -1.1489 -1.0578
  854MOL0     H12673   0.938   0.452  11.229  0.4082  0.0734  0.5069
  854MOL0     H12674   0.985   0.299  11.283 -0.1557 -0.5304  0.1030
  854MOL0     H12675   1.065   0.246  11.048  0.5845  1.9922 -1.0964
  854MOL0     H12676   0.991   0.392  11.000 -0.9524 -1.1688 -1.9328
  854MOL0     H12677   0.816   0.201  10.985  0.6674 -2.4797  0.4582
  854MOL0     H12678   0.863   0.145  11.144 -1.1266  0.7358  1.9044
  854MOL0     H12679   0.698   0.391  11.099  0.2515 -0.5731 -1.0157
  854MOL0     H12680   0.745   0.331  11.261 -2.9935 -2.8411  1.6171
  854MOL0     H12681   0.575   0.214  10.944  2.3143  3.1706  1.5970
  854MOL0     H12682   0.359   0.064  10.889  2.1712  5.1642  0.7218
  854MOL0     H12683   0.249   0.156  10.984  0.8804  1.0348 -2.4592
  854MOL0     H12684   0.272  -0.079  11.143  1.6732 -1.1144 -0.3281
  854MOL0     H12685   0.310  -0.148  10.985  0.1842 -0.8424  0.6169
  854MOL0     H12686   0.057   0.007  11.060 -1.5550 -1.5467  1.4087
  854MOL0     H12687   0.109  -0.024  10.898 -2.6257  0.3113  0.3734
  854MOL0     H12688   0.036  -0.221  11.119 -0.4037  2.9978 -0.3297
  854MOL0     H12689   0.135  -0.283  10.993 -2.7254 -1.6680 -0.2562
  854MOL0     H12690  -0.241  -0.071  10.844 -0.7218 -0.9220 -1.9964
  854MOL0     H12691  -0.474  -0.057  10.918 -0.4740 -1.1830 -0.5355
  854MOL0     H12692  -0.788  -0.065  11.323  2.5330 -0.9592 -0.0619
  854MOL0     H12693  -1.028  -0.131  11.380  1.2186  0.3782 -1.3950
  854MOL0     H12694  -1.119  -0.345  11.630 -3.1354 -0.4514  0.1882
  854MOL0     H12695  -1.027  -0.488  11.582  2.0455  1.0739 -0.1246
  854MOL0     H12696  -1.282  -0.556  11.497  0.1126  2.2400 -1.1073
  854MOL0     H12697  -1.324  -0.436  11.612  2.8969  2.1303  0.5113
  854MOL0     H12698  -1.205  -0.567  11.801 -1.1176 -3.2523  2.8878
  854MOL0     H12699  -1.170  -0.690  11.678 -1.7207 -0.2507 -2.4098
  854MOL0     H12700  -1.445  -0.602  11.789 -1.2114 -1.8781  1.3998
  854MOL0     H12701  -1.430  -0.673  11.622  1.8684  2.2799 -0.9204
  854MOL0     H12702  -1.307  -0.790  11.868 -2.5078  2.5214  0.9641
  854MOL0     H12703  -1.306  -0.866  11.702  2.4202  0.6923  0.8147
  854MOL0     H12704  -1.526  -0.927  11.718 -0.0835 -0.2455 -0.5879
  854MOL0     H12705  -1.576  -0.826  11.851  0.3353  0.8910  2.3577
  854MOL0     H12706  -1.409  -1.075  11.847 -0.8895 -1.0300  1.6911
  854MOL0     H12707  -1.396  -0.956  11.989 -2.0260  0.5612  0.7634
  854MOL0     H12708  -1.550  -1.157  12.025  0.5283  1.1998  0.3511
  854MOL0     H12709  -1.652  -1.077  11.905  1.9678 -1.6207 -2.3116
  854MOL0     H12710  -0.945  -0.548  11.354 -1.9537 -0.6290  1.5968
  854MOL0     H12711  -0.712  -0.490  11.267 -0.8396 -1.2003 -1.8139
  854MOL0     H12712  -0.361  -0.308  11.251 -1.8195  0.2473  0.1031
  854MOL0     H12713  -0.140  -0.341  11.161  1.2115 -1.4009 -1.3095
  854MOL0     H12714   1.822   0.440  11.455  1.1849 -0.8248  0.1673
  854MOL0     H12715   1.952   0.629  11.408  3.3832 -0.0064 -3.1840
  854MOL0     H12716   2.340   0.653  11.040 -0.9392  0.2880  0.4924
  854MOL0     H12717   2.500   0.812  10.972 -0.9258  0.5494 -3.6603
  854MOL0     H12718   2.548   0.948  10.817 -0.1618  0.8626 -1.2174
  854MOL0     H12719   2.637   1.104  10.824 -0.5597  2.6301 -1.6139
  854MOL0     H12720   2.433   1.045  10.663  2.4735 -0.6041 -0.4637
  854MOL0     H12721   2.355   1.151  10.784  1.1715 -0.9860  1.5675
  854MOL0     H12722   2.613   1.221  10.629  0.4065 -0.4371  2.8264
  854MOL0     H12723   2.545   1.312  10.764  3.4011  0.1139  0.2031
  854MOL0     H12724   2.408   1.277  10.490 -1.8133 -1.5969  0.7508
  854MOL0     H12725   2.322   1.329  10.634 -0.8062  1.4013 -2.2682
  854MOL0     H12726   2.542   1.655  10.505 -1.6032 -0.0029 -1.5506
  854MOL0     H12727   2.217   1.128  11.010 -2.0187 -0.5551  0.4726
  854MOL0     H12728   2.054   0.974  11.105 -0.0377  0.1729  0.1531
  855MOL0     O12729   2.827  10.403   6.955 -0.0010  0.5480  0.2086
  855MOL0     C12730   2.830  10.392   6.828 -0.3846 -0.2624  0.5788
  855MOL0     O12731   2.947  10.366   6.746  0.3430 -0.1410 -0.4016
  855MOL0     C12732   3.073  10.343   6.795  0.2357 -0.0380  0.0073
  855MOL0     C12733   3.130  10.390   6.913 -0.0459  0.7027  0.3159
  855MOL0     C12734   3.273  10.361   6.940  0.0368 -0.2351 -0.9545
  855MOL0     C12735   3.353  10.302   6.851  0.1952  0.7993  0.2149
  855MOL0     O12736   3.486  10.301   6.878  0.2609 -0.3756  0.7113
  855MOL0     C12737   3.569  10.281   6.766  0.0500 -0.2172  0.4182
  855MOL0     C12738   3.714  10.304   6.814 -0.0972 -0.4129  0.0777
  855MOL0     C12739   3.810  10.186   6.790  0.8462  0.7135 -0.2672
  855MOL0     C12740   3.950  10.206   6.844 -0.6983  1.1590 -0.8138
  855MOL0     C12741   4.044  10.070   6.830  0.5616 -0.1487 -0.3667
  855MOL0     C12742   4.191  10.089   6.883  0.1120  0.6586  0.0212
  855MOL0     C12743   4.291   9.982   6.839  0.3373  0.1099 -0.0118
  855MOL0     C12744   4.252   9.840   6.882 -0.9600 -0.0797 -0.1632
  855MOL0     N12745   4.317   9.735   6.798  0.5007 -0.5870  0.0659
  855MOL0     C12746   4.449   9.737   6.754 -0.1166 -0.3238  0.2803
  855MOL0     C12747   4.463   9.617   6.696  0.9799  0.1529 -0.3791
  855MOL0     C12748   4.578   9.567   6.601  0.5751 -0.2768 -0.5277
  855MOL0     C12749   4.615   9.421   6.627  0.2941  0.0061  0.2580
  855MOL0     C12750   4.649   9.385   6.777  0.8678  0.7281  0.5189
  855MOL0     C12751   4.701   9.238   6.773 -0.2835 -0.6487 -0.2133
  855MOL0     O12752   4.602   9.145   6.732  0.4688  0.6082  0.3344
  855MOL0     C12753   4.507   9.113   6.827 -1.2109  0.3806 -0.2210
  855MOL0     C12754   4.517   9.002   6.918  0.3785 -0.8273  0.7164
  855MOL0     C12755   4.400   8.961   6.990 -0.5190  0.1231 -0.4337
  855MOL0     C12756   4.279   9.029   6.973 -0.6465 -0.0842  0.0289
  855MOL0     C12757   4.166   8.995   7.064  0.6116 -0.5540 -0.3055
  855MOL0     O12758   4.190   8.905   7.167  1.2737  0.9839  0.2749
  855MOL0     C12759   4.093   8.842   7.238  0.6514  0.0507 -0.4216
  855MOL0     C12760   3.976   8.790   7.174  0.1509 -0.6787 -0.0977
  855MOL0     C12761   3.872   8.728   7.247 -0.9234 -0.5019  0.1701
  855MOL0     C12762   3.898   8.684   7.381 -0.8712 -0.9825 -0.7195
  855MOL0     O12763   3.809   8.604   7.452  0.0114 -0.1248 -0.3789
  855MOL0     C12764   3.816   8.459   7.426  0.2301  0.4825  1.1299
  855MOL0     C12765   3.673   8.406   7.386  0.0966  0.9028 -0.3094
  855MOL0     C12766   3.623   8.448   7.246  0.0968 -0.3847  1.0968
  855MOL0     C12767   3.519   8.349   7.192 -0.0325  0.1334 -0.8197
  855MOL0     C12768   3.584   8.236   7.123  0.5189  0.2947 -0.3491
  855MOL0     C12769   3.471   8.163   7.049  0.1127  0.7917 -0.8179
  855MOL0     C12770   3.435   8.226   6.919  0.2365  1.0628 -0.1507
  855MOL0     C12771   3.300   8.163   6.864 -0.8164 -0.0875  0.1500
  855MOL0    Cl12772   3.167   8.179   6.979 -0.3596  0.1000 -0.2568
  855MOL0     C12773   4.020   8.726   7.442  0.4798  0.4643  0.6986
  855MOL0     C12774   4.110   8.804   7.373 -0.2342 -0.0378  0.0070
  855MOL0     O12775   4.053   9.042   7.047 -0.1403  0.6755 -0.7792
  855MOL0     C12776   4.271   9.139   6.890 -0.2035 -0.8624  0.1358
  855MOL0     C12777   4.379   9.165   6.803  0.2944 -0.0678  0.6929
  855MOL0     N12778   4.337   9.547   6.701 -0.4015 -0.1811 -0.4663
  855MOL0     N12779   4.254   9.622   6.777 -0.1231 -0.2296 -0.2023
  855MOL0     C12780   3.289  10.255   6.733 -0.1530  0.4592  0.2831
  855MOL0     C12781   3.160  10.292   6.709 -0.3622  0.6975  0.2516
  855MOL0     C12782   2.696  10.406   6.762  0.2154 -0.4586 -0.0506
  855MOL0     C12783   2.595  10.487   6.827 -0.3939 -0.2130  0.0527
  855MOL0     C12784   2.473  10.499   6.761  0.4373 -0.9092 -0.5559
  855MOL0     C12785   2.450  10.459   6.634  0.1817 -0.0990 -0.3882
  855MOL0     O12786   2.339  10.505   6.570 -0.3959 -0.8928 -0.0995
  855MOL0     C12787   2.213  10.492   6.638  0.6246  0.9736  0.9520
  855MOL0     C12788   2.111  10.483   6.535  0.0733  0.2670  0.9156
  855MOL0     C12789   1.971  10.477   6.595 -0.9701  0.5722  0.2696
  855MOL0     C12790   1.875  10.535   6.502  0.6368  0.5875 -0.0219
  855MOL0     C12791   1.745  10.495   6.547  0.3756 -0.0267 -0.4825
  855MOL0     C12792   1.628  10.460   6.561 -0.0185 -0.1599  0.2322
  855MOL0     C12793   2.542  10.388   6.569 -0.8354  0.1100  0.5560
  855MOL0     C12794   2.670  10.358   6.632 -0.1184 -0.3140  0.0734
  855MOL0     H12795   3.065  10.439   6.985  0.3965 -0.2614  1.3983
  855MOL0     H12796   3.300  10.407   7.035  0.8283  0.8405 -1.6902
  855MOL0     H12797   3.549  10.356   6.689 -0.4477 -1.3241 -0.5558
  855MOL0     H12798   3.557  10.181   6.725  0.2579 -0.3940  0.7860
  855MOL0     H12799   3.713  10.322   6.922 -0.4364 -2.1207  0.3958
  855MOL0     H12800   3.754  10.395   6.769 -0.3930  2.6105  5.1080
  855MOL0     H12801   3.809  10.151   6.686  1.6300  1.8865 -0.6998
  855MOL0     H12802   3.762  10.113   6.854  1.2328  0.8867  0.2257
  855MOL0     H12803   4.003  10.281   6.785  0.8729  0.9212  0.2491
  855MOL0     H12804   3.942  10.235   6.949  2.5349 -3.7742  1.1844
  855MOL0     H12805   4.059  10.052   6.723  0.8022 -0.2989 -0.3106
  855MOL0     H12806   3.993   9.989   6.884 -0.6863  2.1208  2.0895
  855MOL0     H12807   4.187  10.086   6.992  0.3392  3.1503  0.1574
  855MOL0     H12808   4.232  10.187   6.859 -0.7940  0.3632 -3.1151
  855MOL0     H12809   4.306   9.995   6.731  1.3548  1.1351  0.2348
  855MOL0     H12810   4.381  10.009   6.894  1.2395 -1.5476 -0.6024
  855MOL0     H12811   4.144   9.821   6.877 -1.2143  1.0735  0.6536
  855MOL0     H12812   4.287   9.823   6.984  2.2268 -0.0501 -1.1518
  855MOL0     H12813   4.524   9.815   6.750 -1.2298  0.7063 -1.1781
  855MOL0     H12814   4.674   9.616   6.618  2.0963 -2.5711 -1.9221
  855MOL0     H12815   4.549   9.583   6.496 -1.9859 -1.0305 -0.0114
  855MOL0     H12816   4.698   9.395   6.561 -1.7071 -3.1617 -1.2447
  855MOL0     H12817   4.529   9.360   6.596  0.3315  0.4407 -0.7459
  855MOL0     H12818   4.732   9.449   6.809  1.7101  0.4933 -1.0843
  855MOL0     H12819   4.572   9.397   6.854  1.5652  0.9304  1.1861
  855MOL0     H12820   4.736   9.209   6.872 -3.4606  0.2522  1.2958
  855MOL0     H12821   4.784   9.250   6.702 -0.2184  3.0527  0.3429
  855MOL0     H12822   4.611   8.952   6.936  0.0325 -1.8971 -0.3195
  855MOL0     H12823   4.414   8.876   7.056 -1.2478  1.3236  1.3508
  855MOL0     H12824   3.956   8.796   7.068  0.2384 -2.6020 -0.2590
  855MOL0     H12825   3.781   8.689   7.202 -1.9520  0.3452  1.4598
  855MOL0     H12826   3.852   8.404   7.514  2.7590 -0.0051 -0.1289
  855MOL0     H12827   3.900   8.459   7.356  0.8998  1.1709  1.9103
  855MOL0     H12828   3.606   8.438   7.466 -0.1577 -1.2098  0.3794
  855MOL0     H12829   3.667   8.297   7.391  1.1450  0.8910  2.0205
  855MOL0     H12830   3.707   8.459   7.177 -1.1275 -0.0800 -0.4144
  855MOL0     H12831   3.572   8.544   7.256 -1.5952 -1.0375 -0.6426
  855MOL0     H12832   3.449   8.307   7.266  0.6728 -0.0631 -0.2529
  855MOL0     H12833   3.461   8.413   7.126  0.0673  0.7752 -0.2884
  855MOL0     H12834   3.637   8.167   7.190 -0.1798 -0.5245 -0.6284
  855MOL0     H12835   3.654   8.274   7.048 -1.0472  1.3479 -1.3054
  855MOL0     H12836   3.384   8.156   7.115  0.7470  2.2103  0.2250
  855MOL0     H12837   3.501   8.060   7.030  2.0066  0.9947  0.7347
  855MOL0     H12838   3.416   8.332   6.941  1.0486  0.6178  3.3723
  855MOL0     H12839   3.518   8.202   6.852 -1.6075  2.9291 -3.3709
  855MOL0     H12840   3.315   8.057   6.844 -1.9840  0.2186 -2.8606
  855MOL0     H12841   3.283   8.210   6.767  1.2490 -0.3394 -0.3876
  855MOL0     H12842   4.050   8.680   7.536  2.7725 -2.3871 -1.2344
  855MOL0     H12843   4.204   8.821   7.423 -0.5705  3.2942 -0.2991
  855MOL0     H12844   4.174   9.185   6.874  0.3997  0.0287 -1.1175
  855MOL0     H12845   4.369   9.238   6.723  1.9764 -0.6404 -0.0956
  855MOL0     H12846   3.345  10.194   6.663 -4.1263 -1.7184 -1.3203
  855MOL0     H12847   3.114  10.249   6.620  1.5311 -0.7025 -0.1260
  855MOL0     H12848   2.598  10.528   6.928 -2.1253  3.2423 -1.1455
  855MOL0     H12849   2.392  10.557   6.805  0.3475  2.3604 -4.4085
  855MOL0     H12850   2.203  10.584   6.697 -1.3129  0.3932  1.6084
  855MOL0     H12851   2.218  10.410   6.710 -0.3705 -0.3709 -0.4750
  855MOL0     H12852   2.131  10.572   6.475 -0.4529 -0.6703 -0.7060
  855MOL0     H12853   2.121  10.395   6.471 -1.5548  0.2586  0.6223
  855MOL0     H12854   1.965  10.515   6.697  4.6494  0.0239  1.1271
  855MOL0     H12855   1.949  10.370   6.587  1.2382  0.1644 -1.7328
  855MOL0     H12856   1.884  10.644   6.501 -0.8097  0.7549  1.1382
  855MOL0     H12857   1.894  10.485   6.407 -0.6317 -5.0058  2.2337
  855MOL0     H12858   1.523  10.444   6.577 -0.0490 -0.0915  0.1048
  855MOL0     H12859   2.530  10.367   6.463 -2.2249  0.6520  0.5977
  855MOL0     H12860   2.751  10.297   6.593 -1.6524 -2.4143  0.0340
  856MOL0     O12861  10.195  10.275   4.341 -0.3060 -0.5159  0.5797
  856MOL0     C12862  10.244  10.163   4.316 -0.3459  0.2714 -1.1650
  856MOL0     O12863  10.172  10.049   4.283  0.0453  1.0255  0.5640
  856MOL0     C12864  10.043  10.050   4.302 -0.1443  0.2882 -0.5883
  856MOL0     C12865   9.989  10.026   4.424  0.8735  0.1733 -0.1900
  856MOL0     C12866   9.850  10.023   4.448 -0.6046  0.5326  0.0804
  856MOL0     C12867   9.759  10.049   4.345  0.0421 -0.0182  0.4334
  856MOL0     O12868   9.624  10.065   4.360 -0.1219 -0.4403  0.0641
  856MOL0     C12869   9.528  10.047   4.260  1.0015  0.9734 -0.3013
  856MOL0     C12870   9.406  10.013   4.335 -0.2877  0.0276 -0.1931
  856MOL0     C12871   9.293   9.977   4.246 -0.1329  1.5061  0.1322
  856MOL0     C12872   9.192   9.889   4.328 -0.1083  0.1384  0.7207
  856MOL0     C12873   9.065   9.868   4.237 -0.9046  0.2797 -0.0926
  856MOL0     C12874   8.980   9.758   4.306  0.7097  0.6980  0.0722
  856MOL0     C12875   8.880   9.694   4.205  0.6643 -0.2510 -0.3857
  856MOL0     C12876   8.764   9.628   4.288  0.1966  0.0620  0.0592
  856MOL0     N12877   8.647   9.574   4.213 -0.3288  0.5224 -0.8630
  856MOL0     C12878   8.630   9.437   4.184 -0.0153 -0.1509  0.8261
  856MOL0     C12879   8.495   9.422   4.158  0.1076 -0.5689 -0.0297
  856MOL0     C12880   8.434   9.289   4.118  1.0727  0.2278 -0.9194
  856MOL0     C12881   8.445   9.259   3.972  0.6609  1.0051 -0.0772
  856MOL0     C12882   8.354   9.140   3.925  0.1488  0.5108 -0.4336
  856MOL0     C12883   8.206   9.166   3.972 -0.1389  0.0371  0.3215
  856MOL0     O12884   8.124   9.071   3.899  0.3311 -1.2137  0.7807
  856MOL0     C12885   8.139   8.940   3.923  0.4110  0.5408 -0.3713
  856MOL0     C12886   8.144   8.859   3.804 -0.0495 -0.7641  0.3294
  856MOL0     C12887   8.195   8.733   3.816  0.4145 -0.3739  0.2067
  856MOL0     C12888   8.201   8.672   3.944 -0.4190  0.4603 -1.1404
  856MOL0     C12889   8.248   8.533   3.960 -0.2289  0.5228 -0.0806
  856MOL0     O12890   8.236   8.441   3.862 -0.1968  0.7589  0.0464
  856MOL0     C12891   8.276   8.316   3.900 -0.6677 -0.3130  0.0329
  856MOL0     C12892   8.410   8.274   3.910  0.4691 -0.1682 -0.3717
  856MOL0     C12893   8.441   8.135   3.923  0.7015  0.4845  0.5044
  856MOL0     C12894   8.342   8.041   3.963 -0.0740 -0.3302  0.7839
  856MOL0     O12895   8.388   7.915   3.994  0.3965  0.3036  0.0217
  856MOL0     C12896   8.369   7.859   4.129 -0.3604 -0.0588 -0.6231
  856MOL0     C12897   8.477   7.764   4.156  0.1499 -0.1755 -0.1243
  856MOL0     C12898   8.440   7.698   4.295 -0.3086 -1.0887 -0.4984
  856MOL0     C12899   8.564   7.610   4.339 -0.5377  0.1861 -0.7892
  856MOL0     C12900   8.527   7.511   4.458  0.6013 -0.4010 -0.2297
  856MOL0     C12901   8.632   7.497   4.568  0.2280  0.1398  0.2585
  856MOL0     C12902   8.775   7.465   4.511 -0.1875  0.0645  0.0407
  856MOL0     C12903   8.871   7.414   4.614  0.5059 -1.0319  0.1399
  856MOL0    Cl12904   8.837   7.484   4.772 -0.2542  0.2179 -0.0639
  856MOL0     C12905   8.207   8.083   3.955 -0.3163  1.0443  0.1520
  856MOL0     C12906   8.179   8.221   3.914 -0.1893  1.0141 -0.4682
  856MOL0     O12907   8.302   8.515   4.074 -0.2892 -0.2326  1.0505
  856MOL0     C12908   8.176   8.745   4.061 -0.8173 -0.3546 -0.4530
  856MOL0     C12909   8.153   8.883   4.052 -0.9532 -0.0541 -0.2995
  856MOL0     N12910   8.440   9.548   4.166  0.1334 -0.3835  0.8236
  856MOL0     N12911   8.517   9.634   4.216 -0.1750  0.3457 -1.0427
  856MOL0     C12912   9.818  10.064   4.211  0.2594 -0.3018 -0.0736
  856MOL0     C12913   9.954  10.074   4.194 -1.0862 -0.5715 -0.9366
  856MOL0     C12914  10.390  10.153   4.334  0.1635 -0.4351 -0.5527
  856MOL0     C12915  10.480  10.262   4.369 -0.6980 -0.2952 -0.8374
  856MOL0     C12916  10.627  10.247   4.377  0.9821  0.1102  0.6597
  856MOL0     C12917  10.685  10.121   4.351 -0.2901  0.4872 -0.5829
  856MOL0     O12918  10.809  10.074   4.371 -0.4888  0.1396  1.1446
  856MOL0     C12919  10.897  10.168   4.431  0.2994  0.5024  0.3081
  856MOL0     C12920  11.038  10.123   4.398 -0.5381  0.5472  0.5398
  856MOL0     C12921  11.149  10.229   4.412 -0.7247 -0.9136  0.6074
  856MOL0     C12922  11.143  10.319   4.287  0.5929 -0.5954  0.1579
  856MOL0     C12923  11.187  10.455   4.314  0.1058  0.8175  0.6937
  856MOL0     C12924  11.222  10.569   4.348  0.4316  0.9388 -1.1822
  856MOL0     C12925  10.595  10.028   4.301  0.4458  0.3944 -0.4653
  856MOL0     C12926  10.452  10.032   4.286 -0.5542  1.1681 -1.1644
  856MOL0     H12927  10.055  10.003   4.508 -1.8759 -0.6077  1.9202
  856MOL0     H12928   9.831   9.991   4.550 -0.1475  0.1802  0.0571
  856MOL0     H12929   9.553   9.967   4.190 -0.8581  1.4003 -1.5298
  856MOL0     H12930   9.497  10.139   4.211 -0.9232  0.0575 -0.9106
  856MOL0     H12931   9.368  10.082   4.411  0.4489 -1.6987  1.8341
  856MOL0     H12932   9.434   9.932   4.403  1.5848  1.2191  0.5602
  856MOL0     H12933   9.340   9.910   4.173 -0.1185 -0.0539  1.5079
  856MOL0     H12934   9.241  10.057   4.193  0.3625 -0.3430 -3.4798
  856MOL0     H12935   9.245   9.797   4.354  0.6232  0.0325 -0.9625
  856MOL0     H12936   9.160   9.938   4.420  0.2113  2.3211 -0.2677
  856MOL0     H12937   9.093   9.840   4.136  0.4252 -1.3698  0.6892
  856MOL0     H12938   9.007   9.960   4.226 -0.8761  0.2901 -0.1540
  856MOL0     H12939   8.920   9.801   4.387 -0.6625  0.3636 -0.7363
  856MOL0     H12940   9.047   9.682   4.346 -0.2172 -0.6666 -0.8845
  856MOL0     H12941   8.838   9.780   4.152 -0.3476 -2.2606 -3.0634
  856MOL0     H12942   8.934   9.632   4.133  0.3881 -0.3150 -0.5395
  856MOL0     H12943   8.727   9.692   4.369 -3.6867 -3.0636  1.0965
  856MOL0     H12944   8.813   9.542   4.333  1.6087  0.0610 -1.4078
  856MOL0     H12945   8.697   9.352   4.194 -1.7379 -1.8458 -1.1109
  856MOL0     H12946   8.329   9.301   4.147  1.6168 -0.8699  1.7698
  856MOL0     H12947   8.477   9.211   4.182 -1.4514 -0.1012  0.5146
  856MOL0     H12948   8.550   9.237   3.949  1.3597  1.0034  2.7757
  856MOL0     H12949   8.412   9.346   3.915 -0.9902 -0.3313 -1.2934
  856MOL0     H12950   8.362   9.119   3.817  2.1660 -2.6445  0.1773
  856MOL0     H12951   8.382   9.052   3.984 -1.7519  1.2110  1.6529
  856MOL0     H12952   8.182   9.269   3.942 -2.2612 -0.6826 -0.5557
  856MOL0     H12953   8.189   9.145   4.078 -1.2547 -2.7235 -0.3421
  856MOL0     H12954   8.120   8.917   3.716 -0.3737  1.7965  1.9724
  856MOL0     H12955   8.214   8.677   3.725  2.4956  0.9617 -0.2461
  856MOL0     H12956   8.492   8.339   3.881 -0.7814  0.4613 -2.7669
  856MOL0     H12957   8.544   8.104   3.933  0.4157 -0.2780  1.1094
  856MOL0     H12958   8.274   7.805   4.132 -0.5043  0.0015 -2.6862
  856MOL0     H12959   8.370   7.940   4.203  0.1030  1.7374 -2.4984
  856MOL0     H12960   8.573   7.817   4.155  0.3319 -0.4686 -1.7465
  856MOL0     H12961   8.477   7.696   4.070  0.4250  1.8563 -1.8133
  856MOL0     H12962   8.346   7.642   4.298  0.0290 -1.6235  1.6411
  856MOL0     H12963   8.430   7.775   4.373 -3.3591 -3.2106  1.4309
  856MOL0     H12964   8.597   7.556   4.251  0.6490 -0.8491  0.2565
  856MOL0     H12965   8.643   7.677   4.372  2.6534 -4.2600  1.6235
  856MOL0     H12966   8.497   7.417   4.410  3.9615 -1.3179 -0.8031
  856MOL0     H12967   8.435   7.547   4.505  0.9435 -1.5272  1.3787
  856MOL0     H12968   8.604   7.427   4.648  0.1054  3.4612  3.3916
  856MOL0     H12969   8.629   7.597   4.614  0.4679 -0.7747  2.3950
  856MOL0     H12970   8.775   7.386   4.435  0.4169 -0.0880  0.1956
  856MOL0     H12971   8.820   7.554   4.466  0.1663  0.6463  1.5066
  856MOL0     H12972   8.974   7.441   4.590 -0.0685  1.0972 -0.1327
  856MOL0     H12973   8.866   7.306   4.627 -0.6200 -0.8533  1.5049
  856MOL0     H12974   8.135   8.003   3.969  0.9684  0.0091  0.9926
  856MOL0     H12975   8.077   8.259   3.915 -0.1629  1.1810  1.8641
  856MOL0     H12976   8.177   8.701   4.160 -3.7780 -0.6904 -0.4956
  856MOL0     H12977   8.143   8.936   4.146 -1.5898 -0.2933 -0.2305
  856MOL0     H12978   9.764  10.088   4.120  0.0815 -0.9047 -0.1336
  856MOL0     H12979   9.997  10.109   4.101 -0.1748  1.2949  0.1023
  856MOL0     H12980  10.425  10.356   4.377 -0.7731 -0.2908 -1.3307
  856MOL0     H12981  10.695  10.331   4.390  1.4657 -0.0304 -0.7840
  856MOL0     H12982  10.888  10.174   4.540  1.6929 -2.8736  0.7104
  856MOL0     H12983  10.889  10.265   4.380  0.2765 -0.0163 -0.6885
  856MOL0     H12984  11.074  10.044   4.465  1.9428  1.7829  0.7936
  856MOL0     H12985  11.052  10.071   4.303  1.4776  0.7372  0.6917
  856MOL0     H12986  11.248  10.185   4.406  0.1085  1.0390 -1.1100
  856MOL0     H12987  11.137  10.282   4.508 -2.1810 -3.8407  2.1816
  856MOL0     H12988  11.206  10.277   4.209 -1.6302 -2.8465 -0.5512
  856MOL0     H12989  11.040  10.316   4.250 -0.5665 -2.6554  3.1500
  856MOL0     H12990  11.237  10.666   4.392  0.0612  0.5519 -0.1723
  856MOL0     H12991  10.639   9.931   4.277  0.5068 -0.0663  1.3316
  856MOL0     H12992  10.402   9.940   4.257 -0.4931 -0.6402  3.6275
  857MOL0     O12993   4.543   4.776   1.194 -0.1325  1.2630  0.3819
  857MOL0     C12994   4.608   4.703   1.273 -0.4542  0.1376  0.2973
  857MOL0     O12995   4.571   4.582   1.323 -0.3234 -0.3805  0.7785
  857MOL0     C12996   4.450   4.533   1.275 -0.5240 -0.6700 -0.0902
  857MOL0     C12997   4.417   4.506   1.144  1.0615  0.4359  0.1119
  857MOL0     C12998   4.280   4.469   1.115  0.5236 -0.0429 -0.8679
  857MOL0     C12999   4.191   4.429   1.218 -0.7542 -0.8900  0.6940
  857MOL0     O13000   4.070   4.367   1.194 -0.0263 -0.5419 -0.1829
  857MOL0     C13001   4.060   4.228   1.178 -1.2252 -0.5765  0.3149
  857MOL0     C13002   3.939   4.200   1.087  0.2891  0.3896 -0.0032
  857MOL0     C13003   3.806   4.186   1.173 -0.2099 -0.7000 -0.4837
  857MOL0     C13004   3.681   4.181   1.087  0.5395 -0.0597 -0.7836
  857MOL0     C13005   3.571   4.248   1.158 -0.2126  0.0633 -0.6747
  857MOL0     C13006   3.454   4.262   1.062 -0.3535  0.1342 -0.6677
  857MOL0     C13007   3.338   4.333   1.125  0.8870 -0.4268  0.1103
  857MOL0     C13008   3.252   4.404   1.016  0.1878  0.5311 -1.2717
  857MOL0     N13009   3.190   4.297   0.934 -0.5645 -0.0574 -0.6785
  857MOL0     C13010   3.087   4.217   0.986 -0.2191 -0.4489 -1.0049
  857MOL0     C13011   3.052   4.151   0.878  0.5297  0.3397 -0.2887
  857MOL0     C13012   2.934   4.061   0.878 -1.0919  0.7635  0.0823
  857MOL0     C13013   2.812   4.112   0.953  1.0818 -0.1243  0.3033
  857MOL0     C13014   2.720   4.186   0.854  0.8659 -0.3379 -0.4715
  857MOL0     C13015   2.602   4.242   0.934  0.1408  0.1678  0.5813
  857MOL0     O13016   2.505   4.142   0.983 -0.6219 -0.2538 -0.2116
  857MOL0     C13017   2.392   4.177   1.033  0.9550 -0.2072  0.2400
  857MOL0     C13018   2.329   4.300   1.007 -1.0705  0.9134 -0.4967
  857MOL0     C13019   2.202   4.324   1.059  0.0945 -0.2974 -0.0761
  857MOL0     C13020   2.137   4.230   1.131  0.4421 -0.2042  0.2856
  857MOL0     C13021   1.994   4.238   1.190 -0.0872  0.2436  0.1631
  857MOL0     O13022   1.923   4.118   1.215 -0.0143 -0.4072 -0.2662
  857MOL0     C13023   1.787   4.114   1.257  0.1351  1.0487  0.3024
  857MOL0     C13024   1.717   3.993   1.233 -0.0045  0.1096 -0.4832
  857MOL0     C13025   1.583   3.977   1.282  0.2890  0.5172  0.2309
  857MOL0     C13026   1.521   4.089   1.335  0.8486  0.3911 -0.1530
  857MOL0     O13027   1.398   4.089   1.378 -0.3422 -0.2083 -0.0444
  857MOL0     C13028   1.321   3.969   1.397 -0.1321 -0.4507  0.5770
  857MOL0     C13029   1.193   4.007   1.468  0.0850  0.4918  0.1868
  857MOL0     C13030   1.098   4.098   1.379 -0.1237 -0.1780 -0.7255
  857MOL0     C13031   0.956   4.097   1.425  0.0427 -0.0338  0.0180
  857MOL0     C13032   0.869   4.188   1.335 -0.2705 -0.1393 -0.1177
  857MOL0     C13033   0.716   4.156   1.352  0.1113  0.1023  0.2872
  857MOL0     C13034   0.612   4.255   1.290 -1.0550 -0.3891 -0.3970
  857MOL0     C13035   0.469   4.192   1.309 -0.8759 -0.6598  1.2347
  857MOL0    Cl13036   0.445   4.168   1.484  0.3649 -0.3063 -0.2107
  857MOL0     C13037   1.575   4.216   1.351 -0.4702  0.0129 -0.2341
  857MOL0     C13038   1.715   4.226   1.319 -0.3400 -0.5106 -0.0299
  857MOL0     O13039   1.950   4.352   1.205 -0.2546 -0.4569  0.1814
  857MOL0     C13040   2.199   4.105   1.163 -0.1835  0.2323  0.1000
  857MOL0     C13041   2.330   4.086   1.108  0.1832  0.1903 -0.5877
  857MOL0     N13042   3.141   4.180   0.773 -0.0202 -0.5165  0.1294
  857MOL0     N13043   3.232   4.260   0.812  1.1642 -0.4462 -0.3448
  857MOL0     C13044   4.235   4.449   1.346  0.2408 -1.0020  0.4071
  857MOL0     C13045   4.357   4.507   1.376  0.6428  0.2449 -0.6152
  857MOL0     C13046   4.721   4.769   1.339  0.5536  0.3860  0.3583
  857MOL0     C13047   4.794   4.711   1.441 -0.1861  0.5163 -1.1322
  857MOL0     C13048   4.890   4.778   1.513  0.5121  0.4540 -0.2877
  857MOL0     C13049   4.917   4.912   1.486 -0.1717  0.0324  0.8929
  857MOL0     O13050   4.983   4.991   1.575 -0.3730 -0.1117 -0.3422
  857MOL0     C13051   5.103   5.050   1.532  0.2790  0.5733 -0.9539
  857MOL0     C13052   5.212   4.996   1.616  0.9746  0.4247 -0.5327
  857MOL0     C13053   5.178   4.977   1.770 -0.2784  0.2932  0.0789
  857MOL0     C13054   5.130   5.114   1.818 -0.8893  0.3049  0.5277
  857MOL0     C13055   5.099   5.123   1.955  0.5463 -0.0681 -0.5629
  857MOL0     C13056   5.065   5.112   2.072 -0.2973 -0.1093 -0.1604
  857MOL0     C13057   4.850   4.978   1.384  0.2204 -0.0784 -0.6942
  857MOL0     C13058   4.755   4.900   1.308  0.4297  0.2129 -0.3298
  857MOL0     H13059   4.489   4.527   1.066 -1.3380 -0.6119 -2.5778
  857MOL0     H13060   4.252   4.444   1.013 -3.2632  0.9782 -0.2291
  857MOL0     H13061   4.051   4.180   1.275  0.7343 -0.7603  0.4553
  857MOL0     H13062   4.146   4.186   1.124  0.9843  0.4995  2.7624
  857MOL0     H13063   3.952   4.102   1.041 -0.7647 -0.2719  1.0312
  857MOL0     H13064   3.925   4.272   1.005  2.4294  1.6273  0.6458
  857MOL0     H13065   3.804   4.267   1.247  4.3912  0.6844 -1.5008
  857MOL0     H13066   3.811   4.097   1.236  1.9867 -0.2112  0.1292
  857MOL0     H13067   3.695   4.244   0.998  0.1976  3.0572  1.2426
  857MOL0     H13068   3.672   4.073   1.072  1.6622 -0.6197  1.9608
  857MOL0     H13069   3.587   4.339   1.217 -0.0583 -1.9487  2.6869
  857MOL0     H13070   3.553   4.183   1.244  4.1901  0.5256  0.8408
  857MOL0     H13071   3.428   4.162   1.024  1.5175  0.3556 -2.7430
  857MOL0     H13072   3.490   4.317   0.975  0.2990 -2.5825 -2.2362
  857MOL0     H13073   3.266   4.272   1.180  0.8776  1.2828  2.1041
  857MOL0     H13074   3.363   4.414   1.194 -1.9449 -0.1792  1.0109
  857MOL0     H13075   3.315   4.472   0.958 -0.2734  0.8363 -1.4217
  857MOL0     H13076   3.176   4.468   1.061  0.2731  0.6384 -1.2789
  857MOL0     H13077   3.037   4.223   1.082 -1.1779  2.3169 -1.5719
  857MOL0     H13078   2.980   3.968   0.913 -2.1975  0.0753 -0.2551
  857MOL0     H13079   2.909   4.051   0.772  0.0323 -3.3395  0.0530
  857MOL0     H13080   2.830   4.173   1.043  0.1848  3.1648 -1.6108
  857MOL0     H13081   2.769   4.015   0.982  4.7817 -1.5251  1.7599
  857MOL0     H13082   2.765   4.260   0.787 -0.0397  0.2217 -0.4796
  857MOL0     H13083   2.676   4.122   0.777 -2.5726  2.4216 -1.0717
  857MOL0     H13084   2.546   4.316   0.876 -2.5690 -0.3205  2.4407
  857MOL0     H13085   2.655   4.304   1.007  2.2192  1.6954 -2.0104
  857MOL0     H13086   2.373   4.383   0.954  2.6025  0.2405  1.1563
  857MOL0     H13087   2.145   4.413   1.036 -1.5197 -0.9754  1.0484
  857MOL0     H13088   1.758   3.905   1.186 -2.6310 -0.2262 -2.3755
  857MOL0     H13089   1.541   3.877   1.278  0.3691  0.4883  0.1001
  857MOL0     H13090   1.383   3.906   1.461  1.6360  2.7838  2.2836
  857MOL0     H13091   1.298   3.912   1.307 -1.5905 -1.6908  1.6544
  857MOL0     H13092   1.225   4.058   1.560  0.5178 -1.0038  0.9090
  857MOL0     H13093   1.135   3.919   1.498  0.8739  0.4271  1.6335
  857MOL0     H13094   1.112   4.068   1.275  0.1909 -0.7791 -0.5147
  857MOL0     H13095   1.145   4.197   1.379 -0.7826  0.1386 -0.4669
  857MOL0     H13096   0.922   3.994   1.438  0.4551 -0.3943 -1.5919
  857MOL0     H13097   0.953   4.142   1.524 -4.1763 -2.4213  1.2380
  857MOL0     H13098   0.909   4.179   1.234  0.3846 -0.9175  0.1969
  857MOL0     H13099   0.881   4.288   1.377  1.3817 -1.9281  4.2301
  857MOL0     H13100   0.697   4.156   1.460  0.2942  3.1885  0.4097
  857MOL0     H13101   0.691   4.059   1.310 -0.6915  0.3299  0.2298
  857MOL0     H13102   0.619   4.351   1.342 -0.2893 -1.5257  1.7082
  857MOL0     H13103   0.647   4.271   1.188  1.8199 -0.5730  0.4742
  857MOL0     H13104   0.458   4.100   1.251 -2.1827 -0.6490  1.4325
  857MOL0     H13105   0.397   4.263   1.268 -1.3422 -2.6209 -1.6014
  857MOL0     H13106   1.515   4.300   1.382  1.8882  2.2603 -1.3584
  857MOL0     H13107   1.766   4.321   1.325  2.7391 -1.9241 -1.5242
  857MOL0     H13108   2.152   4.026   1.222  0.2069 -0.1135 -0.0510
  857MOL0     H13109   2.384   3.993   1.124  0.3256  0.1169 -1.4542
  857MOL0     H13110   4.159   4.444   1.423 -2.0450  2.4456 -1.3881
  857MOL0     H13111   4.389   4.520   1.479  1.7777 -2.9735 -0.4360
  857MOL0     H13112   4.770   4.607   1.464  0.8998  0.5320  0.2081
  857MOL0     H13113   4.941   4.724   1.591  1.9016  2.2228  0.0961
  857MOL0     H13114   5.100   5.159   1.545  1.3581  0.3092  2.4688
  857MOL0     H13115   5.131   5.027   1.429  1.9337 -0.2536 -0.3468
  857MOL0     H13116   5.230   4.895   1.579 -0.6052  0.8334 -2.5793
  857MOL0     H13117   5.303   5.057   1.614 -0.5427  3.2204  3.5509
  857MOL0     H13118   5.265   4.954   1.832 -2.2068  2.9103  4.2353
  857MOL0     H13119   5.090   4.914   1.776  0.7122 -1.1217  0.1227
  857MOL0     H13120   5.215   5.183   1.805  0.0700 -0.2456  3.1709
  857MOL0     H13121   5.040   5.145   1.766 -1.4586  0.4068  1.5391
  857MOL0     H13122   5.040   5.113   2.176 -0.2867  0.8802 -0.1546
  857MOL0     H13123   4.865   5.086   1.379  0.0209 -0.0651 -1.0265
  857MOL0     H13124   4.686   4.941   1.236 -0.1916  0.0400  0.1544
  858MOL0     O13125   0.901   5.067   6.754  0.4939  0.3485 -0.4083
  858MOL0     C13126   0.928   5.091   6.869  0.5320  0.0893 -0.9528
  858MOL0     O13127   0.837   5.142   6.960 -0.4622  0.3030  0.0500
  858MOL0     C13128   0.703   5.148   6.921 -0.3044 -0.0104  0.1602
  858MOL0     C13129   0.600   5.117   7.004 -0.0348 -0.1482 -0.3697
  858MOL0     C13130   0.463   5.143   6.980 -0.8364  0.2646 -0.1527
  858MOL0     C13131   0.437   5.227   6.873 -0.5623 -0.0902 -0.3877
  858MOL0     O13132   0.313   5.289   6.876 -0.5944 -0.5938 -0.2614
  858MOL0     C13133   0.276   5.367   6.761  0.6130 -0.1540 -0.0712
  858MOL0     C13134   0.125   5.369   6.757  0.0965  0.2339 -0.5926
  858MOL0     C13135   0.056   5.411   6.888  1.1376 -0.7129  0.2944
  858MOL0     C13136  -0.085   5.445   6.876 -0.1383 -0.3652 -0.3033
  858MOL0     C13137  -0.126   5.520   7.006 -0.5076 -0.7097 -0.5566
  858MOL0     C13138  -0.274   5.492   7.029 -0.3626 -0.5361 -0.2934
  858MOL0     C13139  -0.326   5.580   7.147  0.2968 -0.3101 -0.1531
  858MOL0     C13140  -0.472   5.548   7.192 -0.5136 -0.6791  0.4452
  858MOL0     N13141  -0.484   5.595   7.330 -0.0283  0.0268 -0.4476
  858MOL0     C13142  -0.466   5.521   7.435 -0.1663  0.8698 -0.7555
  858MOL0     C13143  -0.484   5.593   7.551  0.5253 -0.5929  0.1835
  858MOL0     C13144  -0.440   5.558   7.691  0.2354 -0.2120 -0.0865
  858MOL0     C13145  -0.307   5.482   7.689 -0.1209  0.0652 -0.5980
  858MOL0     C13146  -0.196   5.584   7.654  0.4699  0.1998  0.8775
  858MOL0     C13147  -0.054   5.529   7.653  0.6938  0.1979  0.3795
  858MOL0     O13148  -0.055   5.428   7.548  0.5858  0.1939  0.7057
  858MOL0     C13149   0.069   5.374   7.524  0.4924  0.1788  0.2060
  858MOL0     C13150   0.117   5.370   7.391 -0.0892  0.7093  0.8591
  858MOL0     C13151   0.234   5.306   7.369  0.2823  0.3223  0.0240
  858MOL0     C13152   0.308   5.255   7.472  0.3540  0.4591 -1.3945
  858MOL0     C13153   0.426   5.165   7.445 -0.0220  0.4262  0.7125
  858MOL0     O13154   0.516   5.160   7.542  0.0267  0.1256 -0.3108
  858MOL0     C13155   0.631   5.092   7.508  0.2917  0.6567 -0.1777
  858MOL0     C13156   0.643   4.951   7.550  0.7011  0.6381  0.1046
  858MOL0     C13157   0.762   4.878   7.518  0.4925  0.2330 -0.2733
  858MOL0     C13158   0.871   4.955   7.472 -0.5008  0.6613 -0.1955
  858MOL0     O13159   0.993   4.881   7.470  0.3653  0.1295  0.0129
  858MOL0     C13160   1.112   4.956   7.434 -0.3214 -0.5190 -1.0533
  858MOL0     C13161   1.238   4.869   7.398  0.4307  1.0422  0.0810
  858MOL0     C13162   1.253   4.750   7.480  0.0936 -0.4798 -0.0614
  858MOL0     C13163   1.209   4.760   7.626 -0.3253  0.3379 -0.6262
  858MOL0     C13164   1.320   4.733   7.722  0.3159 -0.4934 -0.2419
  858MOL0     C13165   1.400   4.868   7.749  0.6976  1.2541 -0.3072
  858MOL0     C13166   1.465   4.873   7.887 -0.6271  0.2409 -0.1552
  858MOL0     C13167   1.362   4.859   8.007 -0.4965 -0.8091  0.0943
  858MOL0    Cl13168   1.261   5.010   8.045 -0.1430  0.4013 -0.3036
  858MOL0     C13169   0.852   5.087   7.422 -0.7112  0.3005 -0.5281
  858MOL0     C13170   0.732   5.152   7.433 -0.7302 -0.5088  0.8335
  858MOL0     O13171   0.434   5.102   7.337  0.0361  0.0981  0.6996
  858MOL0     C13172   0.259   5.255   7.600  0.9655  0.1368  0.8379
  858MOL0     C13173   0.146   5.329   7.626 -0.1231  0.1614 -0.4036
  858MOL0     N13174  -0.519   5.719   7.499 -0.1602  0.5618 -0.4204
  858MOL0     N13175  -0.531   5.715   7.373 -0.0066  0.4312  0.2906
  858MOL0     C13176   0.540   5.259   6.774  0.1604  0.3447 -0.0488
  858MOL0     C13177   0.671   5.219   6.798  0.1820  0.9161 -0.2432
  858MOL0     C13178   1.074   5.077   6.915 -0.7630  0.0262  0.3021
  858MOL0     C13179   1.170   5.055   6.817  0.1102 -0.7653  1.0805
  858MOL0     C13180   1.309   5.040   6.856 -0.5659  0.5478  0.0576
  858MOL0     C13181   1.350   5.030   6.988 -0.1301  0.4835  0.1630
  858MOL0     O13182   1.483   5.010   7.006  0.6107  0.9581 -0.1059
  858MOL0     C13183   1.523   4.978   7.140 -0.3733  0.8744 -0.0094
  858MOL0     C13184   1.681   4.961   7.137 -0.4391 -0.0618 -0.0768
  858MOL0     C13185   1.761   5.089   7.100  0.7256  0.0109 -0.0371
  858MOL0     C13186   1.896   5.094   7.165  0.3358  0.3883  0.0172
  858MOL0     C13187   1.977   5.192   7.089  1.8184  0.4975 -0.4833
  858MOL0     C13188   2.049   5.253   7.009  0.4241  0.4795 -0.7529
  858MOL0     C13189   1.259   5.053   7.085  0.3743 -1.2348  0.2185
  858MOL0     C13190   1.124   5.080   7.046 -0.3829  0.7641 -0.3447
  858MOL0     H13191   0.636   5.053   7.084 -0.3114 -1.7130 -1.4682
  858MOL0     H13192   0.392   5.122   7.059  0.7361 -0.6282  1.0904
  858MOL0     H13193   0.297   5.323   6.663 -1.4632  1.9035 -1.5228
  858MOL0     H13194   0.316   5.467   6.778  3.0409 -1.0452 -0.0605
  858MOL0     H13195   0.083   5.278   6.712 -0.7085  0.6097 -0.6159
  858MOL0     H13196   0.101   5.452   6.690 -1.6803  0.0934 -0.1963
  858MOL0     H13197   0.103   5.507   6.915 -1.7994  1.3596 -1.3730
  858MOL0     H13198   0.078   5.349   6.975  3.7749 -1.4946 -0.8130
  858MOL0     H13199  -0.109   5.508   6.789 -3.1204  1.6118  1.7517
  858MOL0     H13200  -0.142   5.352   6.875 -3.6343  1.5972 -0.3989
  858MOL0     H13201  -0.115   5.627   6.982  1.3608 -1.0460 -1.4119
  858MOL0     H13202  -0.061   5.483   7.086  0.4862 -4.2984 -2.8169
  858MOL0     H13203  -0.296   5.389   7.058  0.1025 -0.2030  1.3844
  858MOL0     H13204  -0.332   5.511   6.939  0.1022 -0.4416 -0.5749
  858MOL0     H13205  -0.254   5.573   7.229  0.7417  1.5581 -0.3501
  858MOL0     H13206  -0.317   5.685   7.118  1.9997  0.8376  3.8157
  858MOL0     H13207  -0.499   5.443   7.179  1.2368 -1.2499  1.0693
  858MOL0     H13208  -0.539   5.609   7.131  2.5832  1.8517 -0.6798
  858MOL0     H13209  -0.433   5.418   7.430  1.3093  1.2443  0.6042
  858MOL0     H13210  -0.523   5.516   7.749  0.8542  1.0810  1.8151
  858MOL0     H13211  -0.433   5.658   7.736  2.0438 -0.6927  0.7697
  858MOL0     H13212  -0.306   5.401   7.615  3.2317 -1.0964  0.5547
  858MOL0     H13213  -0.279   5.448   7.789  1.3306 -1.7734 -1.5694
  858MOL0     H13214  -0.217   5.620   7.552 -1.3300 -1.3975  0.6370
  858MOL0     H13215  -0.192   5.672   7.719 -1.7944 -0.3059  1.7618
  858MOL0     H13216  -0.034   5.497   7.756 -1.1732 -1.5502  0.2854
  858MOL0     H13217   0.018   5.609   7.637  1.6794 -0.0614  3.0219
  858MOL0     H13218   0.055   5.416   7.314  2.0363  2.4383  0.0469
  858MOL0     H13219   0.265   5.276   7.270 -2.1986 -0.2083 -0.6710
  858MOL0     H13220   0.556   4.906   7.597  0.6968 -1.9956 -2.1722
  858MOL0     H13221   0.775   4.773   7.545 -0.3700 -1.3266 -5.0242
  858MOL0     H13222   1.143   5.026   7.512 -1.4680  1.2198 -2.0883
  858MOL0     H13223   1.085   5.018   7.348  2.1341  0.0938 -1.4793
  858MOL0     H13224   1.326   4.933   7.391  0.7053  0.7688  0.9571
  858MOL0     H13225   1.225   4.842   7.293  2.1300 -3.1461  0.7720
  858MOL0     H13226   1.360   4.732   7.468 -0.0595 -1.7753  0.3766
  858MOL0     H13227   1.191   4.667   7.444 -1.2236  0.9210 -1.1719
  858MOL0     H13228   1.166   4.855   7.660 -3.9313 -0.9513 -1.2548
  858MOL0     H13229   1.135   4.683   7.647  2.1282 -2.0969 -0.2674
  858MOL0     H13230   1.387   4.658   7.679 -0.7838 -0.2858 -2.4888
  858MOL0     H13231   1.279   4.692   7.814 -1.6676  0.2067 -0.7583
  858MOL0     H13232   1.338   4.958   7.747 -0.8032  0.4907  3.4561
  858MOL0     H13233   1.477   4.854   7.673  1.2080 -0.5201  0.5023
  858MOL0     H13234   1.537   4.791   7.897 -1.0015 -0.5375 -2.9970
  858MOL0     H13235   1.518   4.968   7.895 -0.6387  0.2756 -0.5108
  858MOL0     H13236   1.418   4.832   8.097 -0.8222  0.6424  0.7640
  858MOL0     H13237   1.297   4.772   7.996 -1.9664 -0.0998  2.5730
  858MOL0     H13238   0.930   5.145   7.374  0.0377 -1.1336 -1.1012
  858MOL0     H13239   0.722   5.252   7.391 -0.1918 -0.0975  1.6307
  858MOL0     H13240   0.318   5.212   7.680  0.6796 -1.1139  0.4024
  858MOL0     H13241   0.113   5.333   7.730  2.2671 -1.4137  0.5021
  858MOL0     H13242   0.538   5.337   6.698  3.1771  1.6138  1.0233
  858MOL0     H13243   0.755   5.256   6.742 -0.3428 -1.0420 -2.4883
  858MOL0     H13244   1.148   5.044   6.711  3.3394  1.2485  0.0486
  858MOL0     H13245   1.385   5.017   6.783  0.2005  0.9901  0.6950
  858MOL0     H13246   1.478   4.887   7.181  1.1762  0.0429 -0.0681
  858MOL0     H13247   1.502   5.062   7.206  0.8253  0.0229  1.5187
  858MOL0     H13248   1.709   4.926   7.237  0.6840 -2.5714 -1.1743
  858MOL0     H13249   1.710   4.880   7.070  1.0316  0.6529 -0.3549
  858MOL0     H13250   1.702   5.175   7.134  0.5287  0.4043 -1.3359
  858MOL0     H13251   1.761   5.087   6.991  0.9173 -1.1549 -0.0237
  858MOL0     H13252   1.883   5.115   7.272  0.9185  1.6720 -0.1417
  858MOL0     H13253   1.942   4.996   7.156 -1.3882 -0.4373 -0.0777
  858MOL0     H13254   2.103   5.313   6.939 -0.0022  2.4934  0.5635
  858MOL0     H13255   1.286   5.048   7.190 -0.8086  1.8679  0.7852
  858MOL0     H13256   1.055   5.093   7.130  0.8116  0.6393  0.6821
  859MOL0     O13257   6.919   2.040   2.707 -0.2776  0.1113  0.1068
  859MOL0     C13258   6.959   1.948   2.772  0.2661  0.2643  0.8972
  859MOL0     O13259   6.901   1.814   2.756 -0.5536 -0.4075 -0.6145
  859MOL0     C13260   6.792   1.787   2.677  0.1201 -0.1978  0.1472
  859MOL0     C13261   6.689   1.882   2.667 -0.5211 -0.0227  0.3653
  859MOL0     C13262   6.574   1.857   2.601 -0.4219 -0.1403  0.0607
  859MOL0     C13263   6.556   1.743   2.524  0.4524 -0.6718  0.5996
  859MOL0     O13264   6.445   1.717   2.446 -0.1477  0.3030 -0.0802
  859MOL0     C13265   6.323   1.778   2.480  0.2583  0.1958  0.1627
  859MOL0     C13266   6.204   1.741   2.392 -0.3075  0.3058 -0.0999
  859MOL0     C13267   6.145   1.596   2.408 -0.8724  0.1068  0.3868
  859MOL0     C13268   6.075   1.563   2.540  0.1697 -0.4304  0.7156
  859MOL0     C13269   5.971   1.442   2.514 -0.2016 -0.3886  0.3809
  859MOL0     C13270   6.036   1.305   2.498 -1.0128  0.8183  0.7152
  859MOL0     C13271   5.946   1.189   2.449  0.4353 -0.3562  0.2100
  859MOL0     C13272   5.832   1.144   2.540 -0.2762  0.3083  0.3816
  859MOL0     N13273   5.736   1.064   2.463 -0.4941 -0.3669  0.0303
  859MOL0     C13274   5.718   0.931   2.472  0.4404  0.8175 -0.1154
  859MOL0     C13275   5.608   0.903   2.395 -0.0590  0.1977  0.6558
  859MOL0     C13276   5.567   0.764   2.386  0.3618  0.6628  0.3243
  859MOL0     C13277   5.444   0.729   2.301  0.0667 -0.6054 -0.1804
  859MOL0     C13278   5.315   0.779   2.369  0.3744 -0.2939 -0.1187
  859MOL0     C13279   5.208   0.781   2.267 -0.1443  0.3821 -0.1635
  859MOL0     O13280   5.085   0.815   2.333  0.5155 -0.7551  0.3973
  859MOL0     C13281   4.975   0.823   2.250  0.4296  0.4463 -0.6583
  859MOL0     C13282   4.853   0.844   2.312 -0.3947  0.7407  0.3750
  859MOL0     C13283   4.738   0.860   2.230 -0.1840  0.2131 -0.0625
  859MOL0     C13284   4.740   0.870   2.089  0.5660 -0.2000  0.6885
  859MOL0     C13285   4.623   0.907   2.011 -0.4612 -0.4717 -0.1042
  859MOL0     O13286   4.500   0.904   2.070  0.8928  0.2380  0.2697
  859MOL0     C13287   4.379   0.915   2.006  0.1190  0.1282  0.5167
  859MOL0     C13288   4.358   0.909   1.864 -0.2765 -0.5107  0.2907
  859MOL0     C13289   4.229   0.924   1.807  0.7255  0.2995 -0.0970
  859MOL0     C13290   4.118   0.945   1.896 -0.4482 -0.4894  0.0143
  859MOL0     O13291   3.998   0.937   1.828 -0.3320  0.2447  0.2007
  859MOL0     C13292   3.880   0.972   1.894  0.7902  0.3576 -0.3669
  859MOL0     C13293   3.771   0.995   1.783  0.1420  0.1437 -0.2089
  859MOL0     C13294   3.717   0.863   1.733  0.3739  1.0542 -0.9615
  859MOL0     C13295   3.599   0.861   1.632 -0.3478 -0.1928  0.0927
  859MOL0     C13296   3.544   0.723   1.599 -0.5594  0.2377 -0.9938
  859MOL0     C13297   3.429   0.726   1.487 -0.1878 -0.2453 -0.5085
  859MOL0     C13298   3.444   0.826   1.378 -0.8683 -0.0742 -1.0487
  859MOL0     C13299   3.333   0.817   1.283  1.1714  0.2758 -0.0676
  859MOL0    Cl13300   3.348   0.696   1.155  0.3481 -0.2982  0.2461
  859MOL0     C13301   4.147   0.969   2.032 -0.3079 -0.0461  0.0052
  859MOL0     C13302   4.272   0.950   2.081 -2.1069  0.1944 -0.4082
  859MOL0     O13303   4.651   0.956   1.900 -0.0827 -0.0750  0.1307
  859MOL0     C13304   4.862   0.838   2.026  0.8171 -0.5797 -0.6030
  859MOL0     C13305   4.976   0.814   2.104  0.1720  0.3616 -0.2244
  859MOL0     N13306   5.560   1.023   2.350  0.9915  0.1677  0.3748
  859MOL0     N13307   5.648   1.116   2.382  0.6967  0.8458 -0.4252
  859MOL0     C13308   6.654   1.641   2.540  0.2050  0.3526  0.8117
  859MOL0     C13309   6.773   1.660   2.614 -0.5828  0.3327 -0.5207
  859MOL0     C13310   7.058   1.962   2.872 -0.0844 -0.1979  0.1504
  859MOL0     C13311   7.164   2.057   2.858 -0.0427  0.7828 -0.1404
  859MOL0     C13312   7.253   2.071   2.960 -1.4332  0.2151  0.6211
  859MOL0     C13313   7.248   1.989   3.072 -0.6642 -0.0625 -0.0347
  859MOL0     O13314   7.338   2.009   3.176 -0.2300 -0.2623 -0.3612
  859MOL0     C13315   7.324   1.929   3.297 -0.0584 -0.3902  1.1484
  859MOL0     C13316   7.439   1.962   3.402  0.3299 -0.4323  0.0161
  859MOL0     C13317   7.578   1.974   3.339  0.9511  0.5003  1.0747
  859MOL0     C13318   7.694   1.965   3.441 -0.4792  0.4286  0.1617
  859MOL0     C13319   7.802   1.926   3.365 -0.4926  0.4202  1.0547
  859MOL0     C13320   7.894   1.894   3.290 -0.1535 -0.0393  0.1024
  859MOL0     C13321   7.149   1.893   3.090 -0.3964  0.3941  0.6905
  859MOL0     C13322   7.052   1.883   2.988 -0.7414 -0.1116  0.1542
  859MOL0     H13323   6.694   1.961   2.741  2.9109 -2.1987  2.7429
  859MOL0     H13324   6.505   1.940   2.613  1.5598  1.5472  0.2698
  859MOL0     H13325   6.332   1.886   2.463  2.1247 -0.3398 -3.2958
  859MOL0     H13326   6.295   1.752   2.582 -2.6175 -0.0758 -0.6120
  859MOL0     H13327   6.236   1.751   2.288  1.7031 -0.0675  0.4369
  859MOL0     H13328   6.116   1.804   2.410 -0.9532 -0.4673 -0.4868
  859MOL0     H13329   6.222   1.520   2.392 -0.8407  0.5974 -2.4783
  859MOL0     H13330   6.067   1.591   2.331  0.3411  0.6485 -0.9349
  859MOL0     H13331   6.152   1.533   2.612  3.0489  1.2578 -1.4230
  859MOL0     H13332   6.027   1.649   2.587 -0.9494  0.2098 -1.4553
  859MOL0     H13333   5.901   1.452   2.430  0.6632 -1.7810 -0.5346
  859MOL0     H13334   5.907   1.432   2.603 -1.2719 -1.7409 -0.4886
  859MOL0     H13335   6.089   1.272   2.588 -0.2133 -0.6741 -0.2787
  859MOL0     H13336   6.127   1.315   2.438  1.0542  1.0650  3.6426
  859MOL0     H13337   5.913   1.223   2.350  2.0245  2.7182  0.6312
  859MOL0     H13338   6.009   1.102   2.432  3.6897  1.7217  0.8242
  859MOL0     H13339   5.777   1.233   2.571  0.4837  3.2955 -5.3979
  859MOL0     H13340   5.871   1.084   2.623 -3.7660  2.7437  4.1338
  859MOL0     H13341   5.781   0.864   2.530 -1.2794  0.9767  2.0789
  859MOL0     H13342   5.578   0.699   2.473 -2.1785 -2.2930 -1.3058
  859MOL0     H13343   5.647   0.725   2.323 -0.4277 -0.5427  0.0244
  859MOL0     H13344   5.442   0.622   2.279  0.2062 -0.6519  0.0319
  859MOL0     H13345   5.455   0.785   2.207 -1.4417 -1.1992 -0.7357
  859MOL0     H13346   5.296   0.703   2.445  3.7566 -1.0268  0.1588
  859MOL0     H13347   5.323   0.874   2.423 -0.0674 -0.9057  1.0645
  859MOL0     H13348   5.219   0.684   2.217 -0.7587  0.2376 -0.0303
  859MOL0     H13349   5.230   0.853   2.188 -0.9912  2.0323  1.0541
  859MOL0     H13350   4.839   0.840   2.420  1.0236 -3.2163  0.5725
  859MOL0     H13351   4.650   0.879   2.290  0.9673 -0.8055  2.1014
  859MOL0     H13352   4.449   0.899   1.806  0.9633  1.9496  1.6540
  859MOL0     H13353   4.211   0.918   1.701 -2.5300  2.0486  0.2254
  859MOL0     H13354   3.884   1.066   1.950  2.3663 -0.2283  0.5758
  859MOL0     H13355   3.849   0.900   1.970  1.7905 -0.9062 -1.1226
  859MOL0     H13356   3.820   1.053   1.704 -0.2915  2.1109  0.8999
  859MOL0     H13357   3.692   1.060   1.819  0.1590  0.1819 -0.2402
  859MOL0     H13358   3.678   0.819   1.826 -2.6832  2.0946 -1.6323
  859MOL0     H13359   3.797   0.807   1.685 -0.1095  0.0526 -0.6308
  859MOL0     H13360   3.521   0.923   1.676  0.0982  0.1242  0.4321
  859MOL0     H13361   3.638   0.900   1.538 -0.1552 -2.2124 -0.7320
  859MOL0     H13362   3.524   0.664   1.689  0.2457  1.4287 -0.0057
  859MOL0     H13363   3.633   0.671   1.562  0.1153 -1.7989  2.9505
  859MOL0     H13364   3.335   0.741   1.541  1.1813  1.5439  1.5590
  859MOL0     H13365   3.429   0.624   1.448 -1.0557 -0.0764 -0.9913
  859MOL0     H13366   3.436   0.926   1.422 -2.6811  0.1467 -1.7853
  859MOL0     H13367   3.545   0.824   1.338 -0.6166  1.7550 -0.5933
  859MOL0     H13368   3.325   0.914   1.233  1.1314  0.2657 -0.0808
  859MOL0     H13369   3.237   0.823   1.334  1.7539  1.1799  0.9850
  859MOL0     H13370   4.068   0.993   2.102 -1.0507 -1.1859 -0.4186
  859MOL0     H13371   4.285   0.960   2.189 -2.1628 -2.2275 -0.1138
  859MOL0     H13372   4.866   0.841   1.918 -1.5982 -0.2702 -0.7436
  859MOL0     H13373   5.069   0.795   2.051  0.3862 -2.3670  0.9306
  859MOL0     H13374   6.635   1.549   2.487  0.0609 -0.6337  2.5143
  859MOL0     H13375   6.855   1.591   2.629  1.0170  2.6189  2.5554
  859MOL0     H13376   7.176   2.113   2.766  0.7688 -3.8471 -3.1970
  859MOL0     H13377   7.333   2.140   2.937  0.2519 -2.3390 -1.8904
  859MOL0     H13378   7.320   1.824   3.268 -4.6014  0.7024 -3.7616
  859MOL0     H13379   7.231   1.972   3.333 -1.3425  1.0090 -3.1645
  859MOL0     H13380   7.425   2.062   3.445  0.4343  1.3531 -3.6819
  859MOL0     H13381   7.439   1.881   3.475 -0.9164 -3.0028 -2.6420
  859MOL0     H13382   7.584   2.066   3.281 -2.0374  0.8133  1.1198
  859MOL0     H13383   7.586   1.896   3.262 -2.0002  0.3225  0.8486
  859MOL0     H13384   7.712   2.064   3.484 -0.5662 -0.2224  1.7463
  859MOL0     H13385   7.681   1.908   3.533  0.7175  0.1839  0.1962
  859MOL0     H13386   7.969   1.873   3.216  0.4003 -1.6469  1.0612
  859MOL0     H13387   7.153   1.831   3.179  2.0780  0.6858  0.8574
  859MOL0     H13388   6.971   1.811   3.000 -0.7000 -0.2198 -0.2265
  860MOL0     O13389   0.974   4.360   6.219  0.5975  0.9527 -0.1478
  860MOL0     C13390   0.982   4.462   6.147  0.2781 -0.3035  0.4122
  860MOL0     O13391   1.079   4.490   6.057 -0.1362  0.3808  0.4312
  860MOL0     C13392   1.196   4.427   6.053 -0.3558  0.2931  0.0168
  860MOL0     C13393   1.283   4.481   5.958  0.0390 -0.6884  0.4553
  860MOL0     C13394   1.422   4.461   5.953 -0.1634  0.5600  0.6246
  860MOL0     C13395   1.486   4.377   6.049 -0.9439 -0.9445  0.3583
  860MOL0     O13396   1.624   4.356   6.039  0.1207  0.2289  0.4950
  860MOL0     C13397   1.683   4.283   6.147 -0.2268  0.5314  0.5261
  860MOL0     C13398   1.837   4.277   6.120  0.4470  0.8105 -0.4612
  860MOL0     C13399   1.858   4.170   6.011 -0.0163  0.0127  1.1329
  860MOL0     C13400   2.005   4.160   5.978  0.2177  0.1955 -0.2550
  860MOL0     C13401   2.033   4.061   5.869 -0.6064 -0.4568  0.6456
  860MOL0     C13402   2.178   4.012   5.870 -0.3043 -0.3997 -0.7898
  860MOL0     C13403   2.201   3.929   5.742 -0.1931 -1.0839 -0.4791
  860MOL0     C13404   2.337   3.866   5.724  0.7564 -0.3806 -0.8780
  860MOL0     N13405   2.380   3.749   5.806  0.8247 -0.1636  0.4105
  860MOL0     C13406   2.430   3.767   5.935 -1.0888  0.4336 -0.3272
  860MOL0     C13407   2.470   3.646   5.974 -0.5479 -0.3886 -0.1261
  860MOL0     C13408   2.551   3.631   6.107 -1.1688 -0.7153 -0.2760
  860MOL0     C13409   2.462   3.595   6.227 -0.3021  0.2194 -0.7124
  860MOL0     C13410   2.390   3.457   6.196 -0.0060  0.4041 -0.2798
  860MOL0     C13411   2.295   3.398   6.303  0.7206 -0.6886 -0.6121
  860MOL0     O13412   2.176   3.486   6.318 -0.5381 -0.2786 -0.3748
  860MOL0     C13413   2.078   3.432   6.390 -0.1226  0.3246 -0.1694
  860MOL0     C13414   2.053   3.450   6.526  0.2678  0.3059 -0.2798
  860MOL0     C13415   1.934   3.413   6.589 -0.1027 -0.1750  0.0117
  860MOL0     C13416   1.827   3.366   6.513 -0.6662  0.4389  0.8860
  860MOL0     C13417   1.690   3.359   6.563 -0.0685  0.6347 -0.2882
  860MOL0     O13418   1.605   3.286   6.492 -0.2651 -0.1544  0.4148
  860MOL0     C13419   1.466   3.306   6.520 -0.3245 -0.5157  0.2785
  860MOL0     C13420   1.402   3.193   6.567  1.1674  0.3397 -0.5982
  860MOL0     C13421   1.264   3.207   6.589 -0.3224  0.3161  0.4926
  860MOL0     C13422   1.199   3.326   6.573  0.0205  0.0500  0.7002
  860MOL0     O13423   1.062   3.337   6.584 -0.9305 -0.1991 -0.6472
  860MOL0     C13424   1.014   3.317   6.716  0.8466 -0.6042 -0.5165
  860MOL0     C13425   0.863   3.274   6.709  0.4952  0.9153 -0.3818
  860MOL0     C13426   0.875   3.118   6.673  0.5614 -0.2139  0.2164
  860MOL0     C13427   0.731   3.062   6.636  0.3601 -0.1024 -0.4687
  860MOL0     C13428   0.734   2.908   6.629  0.1494  0.1793  0.5602
  860MOL0     C13429   0.598   2.852   6.581  0.1284 -0.6629  1.2905
  860MOL0     C13430   0.598   2.701   6.588 -0.4862  0.1323  1.2489
  860MOL0     C13431   0.468   2.625   6.552 -0.0227 -0.0505 -0.1334
  860MOL0    Cl13432   0.353   2.638   6.678  0.0994 -0.3731 -0.5028
  860MOL0     C13433   1.266   3.438   6.533  0.9872  0.1631  0.4288
  860MOL0     C13434   1.406   3.428   6.507 -0.6573 -0.5936  1.1320
  860MOL0     O13435   1.666   3.431   6.658 -0.9175  0.5304  0.1720
  860MOL0     C13436   1.857   3.345   6.375  0.0316  0.0428 -0.1306
  860MOL0     C13437   1.977   3.365   6.311  0.5431  0.6187  0.0091
  860MOL0     N13438   2.450   3.557   5.874 -0.3015 -0.0122 -0.4972
  860MOL0     N13439   2.394   3.621   5.770  0.1721  0.5926  0.5342
  860MOL0     C13440   1.400   4.317   6.145 -0.2458 -0.0597  0.5524
  860MOL0     C13441   1.264   4.339   6.143 -0.0144 -0.1696 -0.3539
  860MOL0     C13442   0.864   4.549   6.139 -0.6029  0.0851 -0.1385
  860MOL0     C13443   0.855   4.653   6.043  0.3507 -0.1403  0.6792
  860MOL0     C13444   0.756   4.743   6.040  0.6829 -0.4414  0.0273
  860MOL0     C13445   0.645   4.732   6.124  0.5872  0.4005 -0.5305
  860MOL0     O13446   0.535   4.822   6.099 -0.4478 -0.0317  0.7366
  860MOL0     C13447   0.425   4.814   6.192  0.1946 -0.4011 -0.1010
  860MOL0     C13448   0.313   4.717   6.144  0.0877 -0.2610  0.6337
  860MOL0     C13449   0.201   4.699   6.247  0.0325  0.1041 -0.8210
  860MOL0     C13450   0.115   4.582   6.202 -0.4174 -0.1936  0.0317
  860MOL0     C13451   0.063   4.596   6.064  0.7136 -0.7462 -0.3363
  860MOL0     C13452   0.007   4.627   5.961 -1.2741 -0.4973 -0.4531
  860MOL0     C13453   0.642   4.624   6.213 -0.3842  0.4860 -0.0780
  860MOL0     C13454   0.757   4.543   6.228  0.2905 -0.0387 -0.2814
  860MOL0     H13455   1.231   4.546   5.887  0.1481  0.3815  1.3218
  860MOL0     H13456   1.477   4.512   5.875 -2.5685  1.1951 -0.7829
  860MOL0     H13457   1.635   4.186   6.159 -1.2041  0.9549  0.1588
  860MOL0     H13458   1.677   4.341   6.239 -2.7181  1.8935 -0.3807
  860MOL0     H13459   1.886   4.242   6.212  0.6692 -1.3510 -1.3284
  860MOL0     H13460   1.872   4.373   6.081 -1.9433  1.5834 -0.8831
  860MOL0     H13461   1.800   4.199   5.923  1.0577 -0.9949  0.0586
  860MOL0     H13462   1.820   4.072   6.042  2.7592 -0.9846  1.6701
  860MOL0     H13463   2.030   4.263   5.950 -0.4837  1.0268  1.9309
  860MOL0     H13464   2.064   4.136   6.067  0.6386  1.8656 -0.0334
  860MOL0     H13465   2.012   4.095   5.768 -0.2975 -0.7856  0.4703
  860MOL0     H13466   1.963   3.982   5.897 -0.8388 -0.3045  0.5016
  860MOL0     H13467   2.190   3.945   5.955  0.5855 -0.4014 -0.9125
  860MOL0     H13468   2.245   4.097   5.883 -2.2503  0.9116  1.6466
  860MOL0     H13469   2.127   3.849   5.731  0.6491 -1.7999 -1.1412
  860MOL0     H13470   2.188   4.008   5.668 -1.1759 -0.0789  0.7298
  860MOL0     H13471   2.413   3.942   5.740  0.8142 -0.7267  0.6760
  860MOL0     H13472   2.333   3.838   5.618  1.3391 -1.0758 -0.7250
  860MOL0     H13473   2.437   3.863   5.985  1.2544 -1.3309  3.1521
  860MOL0     H13474   2.610   3.722   6.120  0.2863 -1.5396 -0.8753
  860MOL0     H13475   2.630   3.557   6.092 -2.8350 -2.4797 -0.7135
  860MOL0     H13476   2.389   3.671   6.257 -1.7451 -1.8306  1.3178
  860MOL0     H13477   2.531   3.589   6.312  0.1141 -0.9724 -1.1286
  860MOL0     H13478   2.348   3.452   6.095 -0.6263 -0.9330  0.0303
  860MOL0     H13479   2.470   3.383   6.201  0.6036  0.8915 -2.1041
  860MOL0     H13480   2.343   3.396   6.402 -2.7116  0.6867  1.2417
  860MOL0     H13481   2.269   3.292   6.288 -1.5402 -0.5599  1.7043
  860MOL0     H13482   2.137   3.487   6.584  0.0726  3.0026 -1.5586
  860MOL0     H13483   1.921   3.423   6.696  4.0514  1.2823  0.5516
  860MOL0     H13484   1.456   3.103   6.593 -1.4161 -1.0071  0.4141
  860MOL0     H13485   1.207   3.121   6.625 -0.0336  0.3104  0.9526
  860MOL0     H13486   1.020   3.416   6.763 -0.0961 -0.9206  0.2927
  860MOL0     H13487   1.072   3.247   6.775  0.3231  0.5570  1.4761
  860MOL0     H13488   0.799   3.327   6.637 -0.9653  3.2049  2.3891
  860MOL0     H13489   0.819   3.288   6.808  0.2713  0.8994 -0.4774
  860MOL0     H13490   0.920   3.064   6.757 -0.8081 -0.1783  1.0052
  860MOL0     H13491   0.937   3.108   6.584 -1.4938 -1.0564 -1.1960
  860MOL0     H13492   0.649   3.102   6.695  0.3304 -1.3772  0.3943
  860MOL0     H13493   0.703   3.099   6.537 -0.8715 -0.7280 -0.3662
  860MOL0     H13494   0.745   2.862   6.728 -1.3561 -0.2889  0.5340
  860MOL0     H13495   0.820   2.876   6.570 -0.7870  2.4771 -2.2938
  860MOL0     H13496   0.571   2.881   6.479 -3.5744  1.3681  2.6830
  860MOL0     H13497   0.529   2.888   6.657  3.0266  0.1855  3.7073
  860MOL0     H13498   0.678   2.687   6.515  2.4223  3.2145  3.5629
  860MOL0     H13499   0.640   2.668   6.683  1.8057 -2.6032 -0.5467
  860MOL0     H13500   0.495   2.521   6.533  0.5954 -0.0356  0.6083
  860MOL0     H13501   0.428   2.670   6.460  1.7336  1.9576 -0.0180
  860MOL0     H13502   1.212   3.531   6.514  0.0175 -0.7877 -1.8036
  860MOL0     H13503   1.466   3.513   6.476 -3.4691  0.7319 -1.1452
  860MOL0     H13504   1.774   3.332   6.305  0.4116  2.2118 -1.0627
  860MOL0     H13505   1.994   3.354   6.205 -0.8779  1.6194 -0.3657
  860MOL0     H13506   1.447   4.255   6.220 -2.7506 -2.1704  0.5088
  860MOL0     H13507   1.203   4.291   6.219 -1.5783  1.6400 -0.3953
  860MOL0     H13508   0.925   4.653   5.960  0.4508 -0.2271  0.7635
  860MOL0     H13509   0.746   4.816   5.961 -3.9853 -0.0487  0.6833
  860MOL0     H13510   0.375   4.911   6.188  2.5120  0.8491 -3.8038
  860MOL0     H13511   0.459   4.806   6.296 -0.0723  0.1019  0.0272
  860MOL0     H13512   0.277   4.738   6.043 -1.0657 -2.5569  0.5158
  860MOL0     H13513   0.358   4.618   6.132  1.8450  0.6525 -0.8387
  860MOL0     H13514   0.133   4.784   6.262 -1.3941 -1.4313  2.3935
  860MOL0     H13515   0.240   4.690   6.349  2.9022 -0.7730 -1.9063
  860MOL0     H13516   0.173   4.490   6.211 -0.6229 -0.3933 -0.5978
  860MOL0     H13517   0.040   4.575   6.281  2.9211 -1.9488  3.3102
  860MOL0     H13518  -0.039   4.656   5.869 -1.4117 -2.0651 -0.9129
  860MOL0     H13519   0.554   4.607   6.275 -1.3982  5.3582  0.2210
  860MOL0     H13520   0.748   4.459   6.296 -1.4294  0.2130 -0.1496
  861MOL0     O13521  11.264   3.500  10.819  0.4812 -0.7998  0.9400
  861MOL0     C13522  11.328   3.506  10.713 -0.5193 -0.6680  0.6994
  861MOL0     O13523  11.300   3.598  10.608 -0.7807  0.6135 -0.4727
  861MOL0     C13524  11.181   3.668  10.590 -0.4596  0.6848  0.4353
  861MOL0     C13525  11.159   3.700  10.451  0.0243 -0.2806 -0.5074
  861MOL0     C13526  11.043   3.769  10.419  0.2006 -0.3153 -0.6393
  861MOL0     C13527  10.940   3.796  10.511 -0.2633  0.0951  0.4594
  861MOL0     O13528  10.823   3.858  10.471  0.0945  0.0390 -0.3058
  861MOL0     C13529  10.729   3.767  10.396  0.1277  0.3412 -0.9474
  861MOL0     C13530  10.742   3.805  10.247 -0.3837 -0.2658 -0.3138
  861MOL0     C13531  10.642   3.735  10.162  0.6815 -0.3079  0.0562
  861MOL0     C13532  10.498   3.788  10.186  0.9363  0.3096 -0.3591
  861MOL0     C13533  10.407   3.685  10.103 -0.0950 -1.0655  0.6792
  861MOL0     C13534  10.260   3.702  10.143  0.1544 -0.2754  0.1359
  861MOL0     C13535  10.176   3.619  10.051  0.2082  0.6757 -0.2579
  861MOL0     C13536  10.032   3.607  10.113 -0.4545 -0.3880  0.5344
  861MOL0     N13537   9.952   3.489  10.073 -0.3537 -0.6474  0.1993
  861MOL0     C13538   9.812   3.484  10.067 -0.8466 -0.5585 -0.2207
  861MOL0     C13539   9.791   3.347  10.079 -0.1736 -0.7131 -0.2832
  861MOL0     C13540   9.658   3.286  10.104 -0.7821 -0.1161 -0.4421
  861MOL0     C13541   9.616   3.180   9.994  0.0535 -0.6005  0.5364
  861MOL0     C13542   9.668   3.046  10.017  0.0068 -0.4126 -0.9547
  861MOL0     C13543   9.621   2.955   9.902  0.3673  0.4035 -0.8117
  861MOL0     O13544   9.675   2.820   9.906 -0.0848  0.8788  0.0331
  861MOL0     C13545   9.629   2.723   9.995 -0.8984  0.5796  0.3560
  861MOL0     C13546   9.684   2.593   9.980 -0.2318 -0.0313  0.3294
  861MOL0     C13547   9.629   2.483  10.050  1.1537 -0.3446 -0.4048
  861MOL0     C13548   9.533   2.505  10.150 -0.1492  0.7945  0.3442
  861MOL0     C13549   9.496   2.396  10.244 -1.0576  0.5493  0.6583
  861MOL0     O13550   9.547   2.270  10.217  0.1491 -0.0400  0.3444
  861MOL0     C13551   9.467   2.160  10.193 -0.2332 -0.5273 -0.7971
  861MOL0     C13552   9.540   2.039  10.197  0.2368 -0.8218  0.5828
  861MOL0     C13553   9.471   1.919  10.167  0.0334  0.1355 -0.0321
  861MOL0     C13554   9.336   1.907  10.138  0.4039 -0.7568  0.2529
  861MOL0     O13555   9.292   1.779  10.120 -0.3857 -0.2386 -0.1684
  861MOL0     C13556   9.161   1.761  10.049 -0.5596 -0.1641  0.1144
  861MOL0     C13557   9.033   1.773  10.143 -0.4473  0.5851 -0.5188
  861MOL0     C13558   8.914   1.693  10.093  0.1943 -0.0408  0.9794
  861MOL0     C13559   8.786   1.752  10.157  0.2983 -0.1863  0.1115
  861MOL0     C13560   8.666   1.665  10.104 -0.2524 -0.6630 -0.5977
  861MOL0     C13561   8.539   1.674  10.186  0.1123  0.5270  0.0885
  861MOL0     C13562   8.463   1.540  10.167  0.2732  0.2210  0.1841
  861MOL0     C13563   8.348   1.527  10.268  0.0491  0.2013 -0.4261
  861MOL0    Cl13564   8.257   1.393  10.190 -0.2998  0.2534 -0.2742
  861MOL0     C13565   9.262   2.029  10.135 -0.0217 -0.0599 -1.2534
  861MOL0     C13566   9.326   2.153  10.169  0.0572 -0.6498  0.4273
  861MOL0     O13567   9.407   2.409  10.328 -0.7042  0.2606  0.1269
  861MOL0     C13568   9.486   2.635  10.167  0.7975 -0.6824 -0.0609
  861MOL0     C13569   9.521   2.741  10.085 -0.0413 -0.5792 -0.1140
  861MOL0     N13570   9.914   3.280  10.086  0.0639 -0.2643 -1.0049
  861MOL0     N13571  10.014   3.370  10.090 -0.4589  0.2641  0.3487
  861MOL0     C13572  10.952   3.749  10.642  0.2967  0.3833  0.0391
  861MOL0     C13573  11.070   3.677  10.679 -0.4878 -0.9740 -0.3511
  861MOL0     C13574  11.449   3.417  10.707 -0.2753 -0.2117  0.2598
  861MOL0     C13575  11.517   3.410  10.584 -0.1864  0.3577 -0.3842
  861MOL0     C13576  11.644   3.346  10.579  0.4523 -0.7366  0.1447
  861MOL0     C13577  11.712   3.307  10.696  1.0133 -0.1031 -0.2143
  861MOL0     O13578  11.829   3.237  10.686 -0.5129  1.1518 -0.0234
  861MOL0     C13579  11.867   3.171  10.564 -0.2627  0.1637 -0.3203
  861MOL0     C13580  11.995   3.092  10.577  1.0322  0.3235  0.0749
  861MOL0     C13581  12.094   3.181  10.651  1.1023  1.0288 -0.1399
  861MOL0     C13582  12.239   3.108  10.647  0.2328  0.5027 -0.0975
  861MOL0     C13583  12.344   3.207  10.657 -0.4870  0.6737  0.4196
  861MOL0     C13584  12.436   3.283  10.647  0.1911  0.0549  0.5984
  861MOL0     C13585  11.638   3.311  10.815  0.1039  0.0894  0.5398
  861MOL0     C13586  11.506   3.362  10.822 -0.8404 -0.5633 -0.1601
  861MOL0     H13587  11.230   3.674  10.372 -0.7086 -3.0849 -0.3469
  861MOL0     H13588  11.014   3.790  10.317 -0.9043 -1.3612 -0.5569
  861MOL0     H13589  10.635   3.791  10.445  1.1984 -0.6420  1.7938
  861MOL0     H13590  10.743   3.661  10.420 -0.8018  0.8877  2.5461
  861MOL0     H13591  10.844   3.786  10.214 -0.2714  0.0857 -0.1822
  861MOL0     H13592  10.742   3.915  10.247  4.4995 -0.0339  0.0258
  861MOL0     H13593  10.640   3.626  10.175 -0.8743 -0.4402 -1.0147
  861MOL0     H13594  10.668   3.752  10.057  0.5562  0.7796  0.1902
  861MOL0     H13595  10.470   3.775  10.291 -1.5174 -0.4644 -1.0476
  861MOL0     H13596  10.487   3.894  10.162 -0.8473  0.4276  0.7413
  861MOL0     H13597  10.443   3.584  10.127  2.3253  0.0507  2.0939
  861MOL0     H13598  10.410   3.699   9.995 -1.2420  0.8993  0.8651
  861MOL0     H13599  10.225   3.805  10.132  0.2558 -0.2946 -0.3744
  861MOL0     H13600  10.258   3.651  10.240 -0.1134  2.0564  1.4539
  861MOL0     H13601  10.171   3.663   9.951  1.8495 -3.0707 -2.1362
  861MOL0     H13602  10.223   3.523  10.032  1.7427  2.0087 -4.1700
  861MOL0     H13603   9.988   3.705  10.089 -0.0167 -0.4961 -0.7820
  861MOL0     H13604  10.047   3.608  10.221  0.7793  2.1153  0.4369
  861MOL0     H13605   9.739   3.562  10.052  0.4979  0.1998 -3.8708
  861MOL0     H13606   9.596   3.377  10.096 -0.0483  0.3264 -1.2749
  861MOL0     H13607   9.646   3.249  10.206  3.0745 -0.4758  0.0071
  861MOL0     H13608   9.635   3.224   9.896  0.9093 -0.6837  0.6602
  861MOL0     H13609   9.508   3.171  10.007  0.2435 -0.6156  2.3166
  861MOL0     H13610   9.777   3.047  10.017  0.1510 -1.1911  2.8733
  861MOL0     H13611   9.630   3.007  10.112  0.8602 -1.3357 -0.9784
  861MOL0     H13612   9.646   2.992   9.802  0.8183  1.9873 -0.1453
  861MOL0     H13613   9.512   2.946   9.898  0.5774 -3.0945 -2.8974
  861MOL0     H13614   9.756   2.568   9.903 -3.1968 -3.0572 -1.7774
  861MOL0     H13615   9.666   2.382  10.035  4.0634  0.6354 -0.4213
  861MOL0     H13616   9.645   2.040  10.225  0.5076  2.1246 -0.1349
  861MOL0     H13617   9.529   1.828  10.166  1.4991  1.0330 -0.5969
  861MOL0     H13618   9.147   1.661  10.007 -1.1092 -0.7080  1.5256
  861MOL0     H13619   9.154   1.835   9.969 -3.1566  0.3957  0.7727
  861MOL0     H13620   9.008   1.877  10.166 -1.1915 -0.0495  1.9140
  861MOL0     H13621   9.069   1.736  10.240 -0.1410  1.2820 -0.3601
  861MOL0     H13622   8.912   1.587  10.119  1.3026 -0.1277  0.7367
  861MOL0     H13623   8.908   1.690   9.983 -0.2256 -1.6681  1.0163
  861MOL0     H13624   8.795   1.721  10.261  0.7011 -2.6822 -0.5949
  861MOL0     H13625   8.786   1.854  10.118  4.5772 -0.6451 -1.6600
  861MOL0     H13626   8.701   1.563  10.122 -3.3499 -1.6638  0.4166
  861MOL0     H13627   8.633   1.675  10.001  2.8621  2.5349 -1.4970
  861MOL0     H13628   8.491   1.763  10.145 -1.9114 -1.7075 -2.8616
  861MOL0     H13629   8.568   1.687  10.290  2.4461  0.8129 -0.5462
  861MOL0     H13630   8.413   1.549  10.070  0.5896  0.5057  0.0437
  861MOL0     H13631   8.535   1.459  10.179  0.0896  0.2909  2.0430
  861MOL0     H13632   8.282   1.614  10.277  1.4003  1.1570  0.6254
  861MOL0     H13633   8.372   1.492  10.368  0.5397 -3.0299 -1.5574
  861MOL0     H13634   9.154   2.035  10.130 -0.5479 -4.5227  0.6736
  861MOL0     H13635   9.279   2.250  10.176  1.5404  0.5114 -3.3194
  861MOL0     H13636   9.427   2.655  10.256  3.1303  1.9519  1.0356
  861MOL0     H13637   9.476   2.839  10.098 -2.4382 -1.5420 -0.7277
  861MOL0     H13638  10.884   3.773  10.722  1.7766  2.5634  0.7202
  861MOL0     H13639  11.084   3.648  10.783 -0.5754 -0.1546 -0.0995
  861MOL0     H13640  11.468   3.445  10.493 -3.3132 -0.2561  0.9242
  861MOL0     H13641  11.694   3.337  10.482  1.1369  2.9160  0.0043
  861MOL0     H13642  11.864   3.245  10.483 -0.5349  2.7006  1.8511
  861MOL0     H13643  11.789   3.097  10.543  0.0528 -0.5319  0.8493
  861MOL0     H13644  11.979   3.005  10.641  0.1135 -0.4449 -1.1633
  861MOL0     H13645  12.037   3.057  10.482 -1.1225  0.8969 -1.1538
  861MOL0     H13646  12.057   3.206  10.751 -0.1579 -2.4389  0.3924
  861MOL0     H13647  12.098   3.278  10.601 -0.8604  1.4976  0.5292
  861MOL0     H13648  12.238   3.036  10.729  0.4582 -1.4654 -1.7305
  861MOL0     H13649  12.251   3.040  10.562  3.5190 -1.4608  1.7236
  861MOL0     H13650  12.511   3.358  10.632  0.0332 -0.1271 -1.5051
  861MOL0     H13651  11.684   3.258  10.897  1.6701 -0.8808 -0.8997
  861MOL0     H13652  11.452   3.358  10.916  0.0253 -0.3387  0.3649
  862MOL0     O13653   4.610   3.854   9.475  0.3737  0.3867 -0.6984
  862MOL0     C13654   4.703   3.791   9.433 -0.4763  0.4709 -0.7021
  862MOL0     O13655   4.706   3.693   9.345  0.8030  0.2754  0.1723
  862MOL0     C13656   4.586   3.644   9.298 -0.5474 -0.4058 -0.7520
  862MOL0     C13657   4.492   3.725   9.228  0.1136  0.1052 -0.7744
  862MOL0     C13658   4.388   3.670   9.160  0.4608  0.9709  0.8189
  862MOL0     C13659   4.356   3.533   9.181  0.6775  0.1741 -0.3722
  862MOL0     O13660   4.244   3.468   9.121 -0.7035  0.4741  0.2949
  862MOL0     C13661   4.133   3.537   9.062 -0.4069  0.3355 -0.2127
  862MOL0     C13662   4.025   3.435   9.034  0.7360 -0.5153 -0.4706
  862MOL0     C13663   3.918   3.477   8.933  0.3312 -0.2529 -0.2781
  862MOL0     C13664   3.833   3.350   8.917 -1.1837  0.1342 -0.0410
  862MOL0     C13665   3.708   3.387   8.834  0.1214 -0.3368 -0.7987
  862MOL0     C13666   3.589   3.282   8.832  0.4239 -0.4727  0.9367
  862MOL0     C13667   3.548   3.227   8.965 -0.8432 -0.1651  0.0685
  862MOL0     C13668   3.588   3.076   8.988  0.0269  0.0216 -0.5472
  862MOL0     N13669   3.529   3.028   9.114  0.9247 -0.0992  0.6693
  862MOL0     C13670   3.400   2.982   9.120 -1.3821  0.4209  0.1773
  862MOL0     C13671   3.369   2.979   9.252  0.1441  0.4776  0.3072
  862MOL0     C13672   3.240   2.938   9.310  0.5320  0.3255 -0.4536
  862MOL0     C13673   3.115   2.981   9.232  0.1488 -0.3293 -0.2853
  862MOL0     C13674   3.130   3.117   9.161 -0.5632 -0.1824 -1.2590
  862MOL0     C13675   2.993   3.181   9.135 -0.9001  0.5634 -0.5347
  862MOL0     O13676   2.918   3.098   9.035  0.4563  0.1792  0.1778
  862MOL0     C13677   2.787   3.134   9.014  0.4733 -0.8306 -0.8486
  862MOL0     C13678   2.723   3.237   9.089  0.1176  0.2602  0.3053
  862MOL0     C13679   2.588   3.269   9.061 -0.4945  0.5444 -0.9523
  862MOL0     C13680   2.520   3.193   8.963  0.4960 -0.5855  0.7483
  862MOL0     C13681   2.385   3.238   8.938  0.0848  0.4343  0.0745
  862MOL0     O13682   2.323   3.174   8.840  0.4181 -0.3622  0.0802
  862MOL0     C13683   2.187   3.179   8.812  0.5506 -0.8053  1.2365
  862MOL0     C13684   2.111   3.299   8.828 -0.1688  0.4998  0.1075
  862MOL0     C13685   1.979   3.296   8.776  0.4714 -1.0308  0.2114
  862MOL0     C13686   1.932   3.195   8.692  0.3017  0.0802 -0.0024
  862MOL0     O13687   1.811   3.190   8.634 -0.1032 -0.9678 -0.6074
  862MOL0     C13688   1.708   3.263   8.701  0.5007 -0.5808 -0.3628
  862MOL0     C13689   1.563   3.229   8.653  0.7471 -0.3775 -0.3979
  862MOL0     C13690   1.447   3.318   8.706 -1.4839 -0.6946  0.2976
  862MOL0     C13691   1.320   3.283   8.626  0.0692 -0.3539 -0.6012
  862MOL0     C13692   1.206   3.387   8.662  0.3845 -1.0283 -0.7313
  862MOL0     C13693   1.083   3.364   8.581  0.7314 -0.3001  0.7128
  862MOL0     C13694   1.086   3.433   8.443  0.0868 -1.2705 -0.0937
  862MOL0     C13695   0.963   3.432   8.363 -0.8946 -0.0117  0.5375
  862MOL0    Cl13696   0.941   3.280   8.280 -0.5637  0.2866  0.1909
  862MOL0     C13697   2.021   3.089   8.662  0.3008 -0.6191 -0.3748
  862MOL0     C13698   2.144   3.084   8.724 -0.2313 -0.0703  0.0209
  862MOL0     O13699   2.334   3.321   9.009 -0.3640 -0.2571  0.1317
  862MOL0     C13700   2.582   3.092   8.882 -0.0231  0.9401  0.2544
  862MOL0     C13701   2.709   3.060   8.923  0.4875  0.4739  0.5228
  862MOL0     N13702   3.474   3.032   9.321  0.0336 -0.5544  0.3556
  862MOL0     N13703   3.573   3.055   9.239 -0.0616  0.6920 -1.0154
  862MOL0     C13704   4.440   3.459   9.261  0.3209 -0.3665  1.4096
  862MOL0     C13705   4.559   3.509   9.309  0.1857 -0.2685 -0.2391
  862MOL0     C13706   4.829   3.823   9.499  0.0310  0.6850 -0.2147
  862MOL0     C13707   4.857   3.941   9.578 -0.8344 -0.2752 -0.0140
  862MOL0     C13708   4.983   3.963   9.630  0.5244 -0.1214  0.8285
  862MOL0     C13709   5.086   3.868   9.625 -0.1431 -0.0080 -0.2695
  862MOL0     O13710   5.206   3.897   9.684  0.0495 -0.5860  0.3443
  862MOL0     C13711   5.302   3.795   9.704  0.8052  0.2823  0.3265
  862MOL0     C13712   5.357   3.806   9.845 -0.1850 -0.0753 -0.2795
  862MOL0     C13713   5.477   3.710   9.876 -0.0428 -0.6751  0.9747
  862MOL0     C13714   5.550   3.752  10.004 -0.6132  0.6686 -0.8646
  862MOL0     C13715   5.464   3.725  10.118 -1.1005 -0.4815 -0.2883
  862MOL0     C13716   5.409   3.693  10.218 -0.7725 -0.3841  0.0723
  862MOL0     C13717   5.065   3.754   9.550 -1.1048 -0.5804 -0.3130
  862MOL0     C13718   4.948   3.735   9.479 -0.0597 -0.7403 -0.2235
  862MOL0     H13719   4.498   3.833   9.239  0.1151  0.1753 -1.4505
  862MOL0     H13720   4.318   3.724   9.098  1.5114 -2.6725 -4.1664
  862MOL0     H13721   4.174   3.579   8.970 -0.5511  0.1056 -0.3809
  862MOL0     H13722   4.090   3.605   9.137 -2.7868 -1.2688 -0.0204
  862MOL0     H13723   3.977   3.427   9.132  2.9895  3.3790  1.1953
  862MOL0     H13724   4.066   3.336   9.012 -1.0186 -1.8405  1.7800
  862MOL0     H13725   3.957   3.509   8.836 -2.1541 -0.5495 -1.4588
  862MOL0     H13726   3.865   3.567   8.965  1.3918  0.1891  0.2574
  862MOL0     H13727   3.893   3.275   8.866  3.7783  3.5363  0.0804
  862MOL0     H13728   3.808   3.315   9.017 -2.5301  1.6128  0.1836
  862MOL0     H13729   3.727   3.423   8.732 -0.6043  2.1469 -0.1277
  862MOL0     H13730   3.671   3.483   8.869  0.7594 -0.2965 -0.2014
  862MOL0     H13731   3.613   3.212   8.751 -0.1675  0.6304 -0.2269
  862MOL0     H13732   3.501   3.337   8.797  1.8003  2.5584  1.9272
  862MOL0     H13733   3.584   3.281   9.053 -4.0410  0.2473  1.2320
  862MOL0     H13734   3.440   3.239   8.969 -0.7841  0.6121 -0.3376
  862MOL0     H13735   3.697   3.066   8.991 -0.1381 -1.8423  0.9757
  862MOL0     H13736   3.539   3.022   8.906  2.4415 -0.2362 -1.9179
  862MOL0     H13737   3.332   2.955   9.040 -2.2746 -1.7156  1.5602
  862MOL0     H13738   3.231   2.978   9.411  2.1824 -0.0787 -0.1154
  862MOL0     H13739   3.243   2.831   9.329  0.9496  1.1574  7.2965
  862MOL0     H13740   3.024   2.990   9.292  0.1457  2.9216 -0.6137
  862MOL0     H13741   3.088   2.905   9.158 -1.0020 -0.0812 -0.1264
  862MOL0     H13742   3.186   3.191   9.219 -1.3699  0.7063 -1.5716
  862MOL0     H13743   3.181   3.114   9.064  1.3134  2.4699 -0.4722
  862MOL0     H13744   3.004   3.281   9.093 -0.2696  0.6287 -0.2209
  862MOL0     H13745   2.944   3.188   9.233 -1.2826  2.4220 -0.8282
  862MOL0     H13746   2.775   3.304   9.156 -1.1466  2.1176 -0.5037
  862MOL0     H13747   2.538   3.350   9.113 -2.1048 -1.6511  1.1587
  862MOL0     H13748   2.132   3.392   8.878 -1.4766  1.1856 -0.5582
  862MOL0     H13749   1.906   3.376   8.786 -0.3692 -1.5576 -1.3818
  862MOL0     H13750   1.725   3.370   8.687 -1.0061 -0.3391 -0.5084
  862MOL0     H13751   1.697   3.249   8.809  2.0961  0.4568 -0.0416
  862MOL0     H13752   1.546   3.126   8.687  0.0091 -0.2698 -0.4118
  862MOL0     H13753   1.561   3.230   8.543  2.3336 -2.2588 -0.5011
  862MOL0     H13754   1.472   3.423   8.689  0.5688 -1.4603 -2.0037
  862MOL0     H13755   1.416   3.310   8.811  1.6588 -0.0619  1.3582
  862MOL0     H13756   1.338   3.260   8.521 -1.3161 -1.1054 -0.6976
  862MOL0     H13757   1.286   3.186   8.665 -0.1778 -1.5235 -3.5269
  862MOL0     H13758   1.239   3.491   8.648  0.6918 -0.8731  0.8922
  862MOL0     H13759   1.191   3.386   8.771  1.8278 -1.6481 -0.5083
  862MOL0     H13760   1.000   3.409   8.638 -0.4230 -0.5632 -0.7020
  862MOL0     H13761   1.068   3.256   8.568 -0.1925 -0.0042 -0.9745
  862MOL0     H13762   1.108   3.537   8.468  3.4837 -2.4749  2.6467
  862MOL0     H13763   1.178   3.402   8.392  0.6425 -2.9335  1.8164
  862MOL0     H13764   0.965   3.515   8.292  1.9149 -1.5894 -1.4697
  862MOL0     H13765   0.874   3.446   8.425 -1.2174  0.3628 -0.0016
  862MOL0     H13766   1.984   3.014   8.593  1.6064 -1.5239 -0.1193
  862MOL0     H13767   2.208   3.003   8.691  0.0074  0.3786 -0.6505
  862MOL0     H13768   2.530   3.047   8.797 -0.9493  2.3313  0.0445
  862MOL0     H13769   2.756   2.986   8.860 -1.7760 -2.0104  1.5469
  862MOL0     H13770   4.400   3.360   9.281 -2.2397  0.2778 -0.0995
  862MOL0     H13771   4.631   3.458   9.373  0.7193 -0.8172 -1.2635
  862MOL0     H13772   4.779   4.012   9.606  1.1506  2.9526 -1.9831
  862MOL0     H13773   5.002   4.056   9.683  1.8168  0.0223  0.1502
  862MOL0     H13774   5.387   3.803   9.635  1.3982  0.6512  1.0772
  862MOL0     H13775   5.271   3.691   9.694 -0.2989  0.6753 -0.6407
  862MOL0     H13776   5.399   3.901   9.879  3.4392 -2.0162  1.2485
  862MOL0     H13777   5.269   3.783   9.906 -0.5327  1.6756 -0.0627
  862MOL0     H13778   5.548   3.712   9.794 -2.5379  0.2675 -1.3203
  862MOL0     H13779   5.429   3.611   9.881 -2.8994  0.5264 -0.3774
  862MOL0     H13780   5.641   3.691  10.003 -0.9078  0.2294 -2.0903
  862MOL0     H13781   5.572   3.859  10.002  0.7592  0.4414  0.2551
  862MOL0     H13782   5.344   3.653  10.294  1.2014  0.6481  2.4266
  862MOL0     H13783   5.142   3.684   9.519  0.7952  2.4448 -3.1002
  862MOL0     H13784   4.931   3.643   9.423  0.3175 -0.6774 -0.4421
  863MOL0     O13785   4.900   6.330   8.914  0.0819  0.1126  0.9816
  863MOL0     C13786   4.930   6.254   9.005 -0.0518 -0.2820 -0.1764
  863MOL0     O13787   4.838   6.201   9.093 -0.2933  0.3088  1.5506
  863MOL0     C13788   4.708   6.216   9.063 -0.2294 -0.0715 -0.6295
  863MOL0     C13789   4.618   6.242   9.157  1.1639 -0.0036 -1.0703
  863MOL0     C13790   4.485   6.222   9.130 -0.0773  0.0348  1.0220
  863MOL0     C13791   4.437   6.188   9.003 -0.5451  0.7437  0.7581
  863MOL0     O13792   4.303   6.156   8.973  0.0800 -0.7154  0.2487
  863MOL0     C13793   4.195   6.239   9.013 -0.3436  0.0820  0.8312
  863MOL0     C13794   4.066   6.159   9.047  0.8653  0.9208 -0.1960
  863MOL0     C13795   4.001   6.117   8.915  0.4189  0.3517 -0.0488
  863MOL0     C13796   3.873   6.037   8.953 -0.1303  0.5499  0.4516
  863MOL0     C13797   3.763   6.043   8.851  0.3728  0.0947 -0.0158
  863MOL0     C13798   3.623   6.016   8.902  0.0505 -0.5857 -0.8027
  863MOL0     C13799   3.511   6.016   8.793  0.4356  0.8983 -0.2192
  863MOL0     C13800   3.371   5.969   8.856  0.3404 -0.3866  0.4709
  863MOL0     N13801   3.267   5.929   8.759 -0.2150 -0.6379  0.5949
  863MOL0     C13802   3.199   6.023   8.685  0.2796  0.3564 -0.8163
  863MOL0     C13803   3.148   5.960   8.575  0.0417  0.9981 -0.2724
  863MOL0     C13804   3.064   6.017   8.467  0.0506 -0.0499 -0.7923
  863MOL0     C13805   2.921   6.008   8.491  0.3335 -0.8565  0.7241
  863MOL0     C13806   2.845   6.098   8.397  0.4190 -0.0191 -0.2924
  863MOL0     C13807   2.690   6.085   8.405 -0.9999 -0.4264  0.1886
  863MOL0     O13808   2.646   6.164   8.291  0.5277 -0.1404 -0.3315
  863MOL0     C13809   2.507   6.175   8.268  0.7393  0.1221  0.7569
  863MOL0     C13810   2.475   6.233   8.148  0.6480  0.6451 -0.1714
  863MOL0     C13811   2.340   6.258   8.111  0.3391 -0.2747  0.4561
  863MOL0     C13812   2.231   6.224   8.190  0.3851  0.7830  0.0713
  863MOL0     C13813   2.087   6.265   8.166  0.5570 -0.9244 -0.5077
  863MOL0     O13814   1.997   6.226   8.266  0.3471 -0.0684 -0.8151
  863MOL0     C13815   1.860   6.260   8.263 -0.4345  0.7762 -0.1916
  863MOL0     C13816   1.779   6.270   8.150 -0.1060  0.6604  0.0193
  863MOL0     C13817   1.642   6.297   8.153 -0.0909  1.6429 -0.1140
  863MOL0     C13818   1.578   6.295   8.274 -0.2766 -0.4977 -0.0794
  863MOL0     O13819   1.442   6.300   8.288  0.3174 -0.1851  0.8645
  863MOL0     C13820   1.358   6.335   8.173  0.0083 -0.8115  0.3742
  863MOL0     C13821   1.216   6.308   8.213  0.8356 -0.2152  0.1408
  863MOL0     C13822   1.149   6.401   8.327 -0.6381 -0.4290  1.0811
  863MOL0     C13823   1.005   6.365   8.362  0.5777  0.2318  0.9818
  863MOL0     C13824   0.965   6.411   8.509  0.4717 -0.1520  0.6834
  863MOL0     C13825   0.816   6.373   8.532  0.3639 -0.3521  0.2670
  863MOL0     C13826   0.767   6.403   8.676  0.0891 -0.5022 -0.4273
  863MOL0     C13827   0.620   6.362   8.699 -0.1546  0.0658 -0.7080
  863MOL0    Cl13828   0.500   6.502   8.693  0.2189 -0.0855 -0.3950
  863MOL0     C13829   1.655   6.266   8.389 -0.4848  1.1746 -1.1418
  863MOL0     C13830   1.792   6.252   8.382  0.5972 -0.0757  0.8743
  863MOL0     O13831   2.060   6.305   8.059  0.5404 -0.4756  0.3455
  863MOL0     C13832   2.268   6.154   8.308  1.0419 -1.0682 -0.0347
  863MOL0     C13833   2.399   6.133   8.346 -0.0802 -0.4023 -0.0137
  863MOL0     N13834   3.185   5.821   8.586  0.3524 -0.3869 -0.2512
  863MOL0     N13835   3.255   5.813   8.693 -0.3669  0.6707 -0.0341
  863MOL0     C13836   4.526   6.159   8.903  1.1226 -0.1733  0.2067
  863MOL0     C13837   4.662   6.169   8.937 -0.3903  0.0854  0.2222
  863MOL0     C13838   5.071   6.240   9.029 -0.3591 -0.0079 -0.7193
  863MOL0     C13839   5.117   6.129   9.115 -0.1070  0.1185 -0.0952
  863MOL0     C13840   5.252   6.106   9.139  0.1839 -0.1001 -0.0331
  863MOL0     C13841   5.358   6.190   9.082  0.7718  1.0714  0.1766
  863MOL0     O13842   5.489   6.188   9.115  0.0806  0.4982 -0.0729
  863MOL0     C13843   5.548   6.057   9.115 -0.4302 -0.5223  0.4156
  863MOL0     C13844   5.548   5.999   8.974 -0.4268 -0.2907  0.7536
  863MOL0     C13845   5.608   5.864   8.950  0.3003 -0.7598 -0.5025
  863MOL0     C13846   5.757   5.859   9.001 -0.3471 -1.0906 -0.7291
  863MOL0     C13847   5.793   5.720   9.010 -0.5870  0.3365 -0.5235
  863MOL0     C13848   5.805   5.596   9.031 -0.3680 -0.1586  0.1920
  863MOL0     C13849   5.311   6.289   8.990  0.4634 -0.2564 -0.4183
  863MOL0     C13850   5.178   6.310   8.964  0.2657 -0.1526 -0.5076
  863MOL0     H13851   4.660   6.265   9.255  1.9208  0.5149 -1.5105
  863MOL0     H13852   4.411   6.238   9.207 -1.5514  1.9997 -0.6877
  863MOL0     H13853   4.159   6.309   8.937  0.3998  2.8112  2.8261
  863MOL0     H13854   4.228   6.309   9.091  2.9175  0.5909 -0.8305
  863MOL0     H13855   4.001   6.231   9.098  0.8832  0.2213  0.8450
  863MOL0     H13856   4.086   6.076   9.116  1.3122  1.7696  0.7224
  863MOL0     H13857   4.069   6.061   8.850  1.2487  0.4019  0.7540
  863MOL0     H13858   3.978   6.207   8.857 -3.4954 -0.2985  0.2038
  863MOL0     H13859   3.896   5.932   8.974  3.2325  1.5355  2.5007
  863MOL0     H13860   3.842   6.077   9.050 -1.5935  0.6952 -0.0578
  863MOL0     H13861   3.782   5.969   8.773 -0.6385 -1.4612  1.1421
  863MOL0     H13862   3.768   6.145   8.813  0.7570  1.2594  2.8628
  863MOL0     H13863   3.606   6.073   8.994  0.8612 -2.1698  0.3826
  863MOL0     H13864   3.627   5.914   8.941 -2.1861 -0.0735  1.0323
  863MOL0     H13865   3.503   6.121   8.762 -1.4697  0.4419 -1.3882
  863MOL0     H13866   3.537   5.956   8.705  1.4021  2.2854 -0.9316
  863MOL0     H13867   3.333   6.054   8.913 -1.0313 -0.2955 -0.5195
  863MOL0     H13868   3.392   5.883   8.920 -1.9505 -0.1400  1.6788
  863MOL0     H13869   3.189   6.127   8.715  0.9836  0.1568  0.1540
  863MOL0     H13870   3.092   5.966   8.374  1.1008  0.9955 -1.0872
  863MOL0     H13871   3.097   6.120   8.450 -1.5292  0.5424 -0.4076
  863MOL0     H13872   2.899   6.018   8.598 -1.5144 -0.4355  0.3461
  863MOL0     H13873   2.897   5.905   8.462  1.3897 -0.9937  0.3045
  863MOL0     H13874   2.880   6.200   8.413 -1.1482  0.3800  0.8649
  863MOL0     H13875   2.866   6.070   8.293 -0.8676  4.7131 -2.0535
  863MOL0     H13876   2.663   6.142   8.494 -0.9549 -2.2101  1.3974
  863MOL0     H13877   2.648   5.986   8.389  0.9788 -1.2288 -0.4228
  863MOL0     H13878   2.559   6.267   8.088  3.9879 -5.7527  0.0037
  863MOL0     H13879   2.315   6.292   8.011  0.9482 -0.9629  0.0608
  863MOL0     H13880   1.822   6.278   8.051  0.9025 -2.1389  0.1498
  863MOL0     H13881   1.593   6.315   8.057 -0.2716  1.3908 -0.0723
  863MOL0     H13882   1.381   6.287   8.077  2.6708 -0.0406  0.5473
  863MOL0     H13883   1.381   6.440   8.152  0.5020 -0.7252  1.2654
  863MOL0     H13884   1.204   6.203   8.241  1.2145  0.1488  1.7253
  863MOL0     H13885   1.154   6.323   8.124  2.4714  0.4991 -0.9361
  863MOL0     H13886   1.155   6.502   8.285  0.3054 -0.9324 -0.0727
  863MOL0     H13887   1.216   6.389   8.413 -1.8460  0.0430  2.1123
  863MOL0     H13888   0.938   6.408   8.287 -1.4228 -1.0112  1.9665
  863MOL0     H13889   0.999   6.256   8.363 -2.4222  0.2949  3.6846
  863MOL0     H13890   0.961   6.520   8.515 -1.7339 -0.0210 -1.4348
  863MOL0     H13891   1.031   6.382   8.591  1.3862  0.4946  0.1921
  863MOL0     H13892   0.797   6.267   8.512 -0.1308  0.1286 -2.1514
  863MOL0     H13893   0.762   6.431   8.457  1.2960  0.7695  0.4357
  863MOL0     H13894   0.820   6.356   8.759 -2.6845 -1.0600  1.1233
  863MOL0     H13895   0.773   6.512   8.672 -0.5600 -0.3161  2.0090
  863MOL0     H13896   0.609   6.305   8.792  1.3467 -2.4804 -2.0221
  863MOL0     H13897   0.591   6.291   8.622  1.1349 -2.3280  0.9103
  863MOL0     H13898   1.613   6.259   8.489 -0.0174  0.5768 -0.9780
  863MOL0     H13899   1.837   6.240   8.480 -2.2695 -3.1616  1.9849
  863MOL0     H13900   2.189   6.126   8.376  0.7121  3.1181  1.6060
  863MOL0     H13901   2.417   6.095   8.446 -0.6447  2.6472  1.3685
  863MOL0     H13902   4.474   6.127   8.813 -3.0439  1.3574  1.7845
  863MOL0     H13903   4.734   6.147   8.859  1.9327  2.5066  1.5433
  863MOL0     H13904   5.047   6.061   9.163  1.5933 -0.5159  1.5992
  863MOL0     H13905   5.291   6.038   9.213 -1.1122 -0.3466  0.4366
  863MOL0     H13906   5.501   5.996   9.193 -0.4425  1.2833  1.8690
  863MOL0     H13907   5.652   6.073   9.148 -0.8589 -0.3807  1.7699
  863MOL0     H13908   5.443   5.990   8.947 -0.8709 -2.1216  2.8512
  863MOL0     H13909   5.598   6.056   8.895  0.5721 -3.0701 -0.7649
  863MOL0     H13910   5.602   5.860   8.841 -0.6837 -0.6009 -0.4666
  863MOL0     H13911   5.550   5.779   8.990  2.5174 -1.0531  2.3979
  863MOL0     H13912   5.814   5.912   8.924  0.8230 -1.1909  0.0380
  863MOL0     H13913   5.782   5.899   9.099  1.7264 -3.3901 -0.2049
  863MOL0     H13914   5.799   5.491   9.048 -0.4211 -0.7484 -2.8468
  863MOL0     H13915   5.376   6.360   8.940  0.8068  0.3217  0.8335
  863MOL0     H13916   5.147   6.402   8.916 -1.4357 -0.2371  0.3217
  864MOL0     O13917   2.067   6.456   8.524 -0.1449 -0.3528  0.5132
  864MOL0     C13918   2.108   6.407   8.627 -1.3991  0.3647 -1.4221
  864MOL0     O13919   2.037   6.349   8.724  0.2190  0.3164 -0.4980
  864MOL0     C13920   1.900   6.342   8.729 -0.6467 -0.0828  0.0321
  864MOL0     C13921   1.844   6.223   8.790  0.4125 -0.5965  0.0061
  864MOL0     C13922   1.707   6.217   8.811  0.4882 -0.6245 -0.0501
  864MOL0     C13923   1.623   6.316   8.762  1.1483 -0.7821 -0.3511
  864MOL0     O13924   1.488   6.309   8.803 -0.5681  0.2183 -0.1604
  864MOL0     C13925   1.419   6.426   8.811  0.9625  1.3862 -0.6796
  864MOL0     C13926   1.280   6.389   8.862  0.3859 -0.1611 -0.1818
  864MOL0     C13927   1.198   6.516   8.875  0.0303  0.1720  0.8568
  864MOL0     C13928   1.064   6.487   8.951  0.0145  0.3330  0.2707
  864MOL0     C13929   1.088   6.515   9.103  0.2518 -0.7515  0.6473
  864MOL0     C13930   0.959   6.504   9.178  0.3884  0.7351 -0.3089
  864MOL0     C13931   0.963   6.574   9.316  0.1474  0.0987 -0.3581
  864MOL0     C13932   0.828   6.553   9.392  0.2074 -0.9711 -0.1727
  864MOL0     N13933   0.835   6.602   9.526 -0.0783  0.0936  0.2813
  864MOL0     C13934   0.834   6.728   9.571 -0.0747  0.1226 -0.5128
  864MOL0     C13935   0.836   6.723   9.711 -0.8800  0.8186  1.1508
  864MOL0     C13936   0.821   6.838   9.801  0.7832 -0.2426  0.1738
  864MOL0     C13937   0.674   6.890   9.801  0.1997  0.1572 -0.5151
  864MOL0     C13938   0.649   6.969   9.935 -0.2116  0.6048  0.7361
  864MOL0     C13939   0.508   7.014   9.974  0.5489 -0.0098  0.3899
  864MOL0     O13940   0.460   7.105   9.868  0.6148  0.3579 -0.3468
  864MOL0     C13941   0.328   7.159   9.882  0.0694  0.1575 -0.1913
  864MOL0     C13942   0.251   7.156  10.005 -1.1997 -0.7011 -0.3822
  864MOL0     C13943   0.118   7.197  10.013 -0.7342  0.5748  0.0825
  864MOL0     C13944   0.053   7.250   9.906 -0.5651 -0.2595  0.2383
  864MOL0     C13945  -0.087   7.296   9.911 -0.2024 -0.7184 -0.5949
  864MOL0     O13946  -0.145   7.271  10.032  0.5982  0.1766  0.2256
  864MOL0     C13947  -0.282   7.304  10.042  0.4602  0.1255  0.1742
  864MOL0     C13948  -0.390   7.218  10.000 -0.3840 -0.3853 -0.2614
  864MOL0     C13949  -0.519   7.268  10.011 -0.7734  0.7024  0.7788
  864MOL0     C13950  -0.555   7.395  10.063  0.1656  0.4393 -0.3871
  864MOL0     O13951  -0.682   7.442  10.069  1.0541  0.1438  0.2294
  864MOL0     C13952  -0.711   7.567  10.124  0.3043 -0.1416 -0.5218
  864MOL0     C13953  -0.854   7.579  10.097  0.4483  0.3951  0.8221
  864MOL0     C13954  -0.883   7.601   9.950  0.1477  0.7876 -0.2915
  864MOL0     C13955  -1.036   7.617   9.912 -0.3171 -0.2735  0.1529
  864MOL0     C13956  -1.048   7.612   9.756 -0.4188  1.4270  0.7730
  864MOL0     C13957  -1.180   7.539   9.725 -0.4585 -0.3162 -0.4299
  864MOL0     C13958  -1.173   7.390   9.720  1.4902  0.2603 -0.7071
  864MOL0     C13959  -1.084   7.334   9.603  0.3143  0.5091  0.3505
  864MOL0    Cl13960  -1.087   7.151   9.585 -0.0581  0.2616  0.1943
  864MOL0     C13961  -0.444   7.468  10.115  0.3264  0.1910 -0.2177
  864MOL0     C13962  -0.310   7.432  10.092  0.0714 -0.3968 -0.6169
  864MOL0     O13963  -0.151   7.328   9.808 -0.1898  1.1058 -0.7160
  864MOL0     C13964   0.137   7.289   9.790 -0.2028  0.1574  0.6739
  864MOL0     C13965   0.268   7.230   9.780  0.8941 -0.0891  0.0438
  864MOL0     N13966   0.846   6.593   9.743 -0.0624  0.5414 -0.9029
  864MOL0     N13967   0.851   6.519   9.631 -0.0498 -0.5850 -1.0088
  864MOL0     C13968   1.677   6.432   8.696  0.1546 -0.8189 -0.9268
  864MOL0     C13969   1.811   6.440   8.674 -0.4263  0.2755 -0.2518
  864MOL0     C13970   2.257   6.391   8.636 -0.2172  0.2633  0.0249
  864MOL0     C13971   2.348   6.402   8.530 -0.0420  0.3776 -0.1657
  864MOL0     C13972   2.483   6.378   8.554 -0.5896 -0.8605 -0.0117
  864MOL0     C13973   2.537   6.338   8.682 -0.5152  1.0729  0.0873
  864MOL0     O13974   2.675   6.329   8.692 -0.2849  0.7829 -0.7862
  864MOL0     C13975   2.726   6.231   8.777  0.3408 -0.2934  0.5687
  864MOL0     C13976   2.777   6.279   8.921  0.2435 -0.1562  0.6095
  864MOL0     C13977   2.918   6.214   8.955  0.0304 -0.5745 -0.3130
  864MOL0     C13978   2.899   6.064   8.971 -0.8868 -0.0748 -0.1019
  864MOL0     C13979   3.016   6.000   9.023 -0.3432 -0.4491 -0.6119
  864MOL0     C13980   3.103   5.932   9.075  0.2384 -0.0886 -0.5276
  864MOL0     C13981   2.450   6.320   8.786  0.5120  0.5566  0.4331
  864MOL0     C13982   2.310   6.336   8.762  1.0643  0.6312  0.7542
  864MOL0     H13983   1.915   6.152   8.831  1.1675 -0.1271 -0.4628
  864MOL0     H13984   1.670   6.134   8.871  1.0475 -0.1591  0.9653
  864MOL0     H13985   1.390   6.479   8.720 -1.7825  3.2619  1.1249
  864MOL0     H13986   1.464   6.493   8.885 -3.6659  0.8247  3.1647
  864MOL0     H13987   1.285   6.333   8.956 -4.3041  0.3684  0.6598
  864MOL0     H13988   1.227   6.332   8.785  0.1753 -1.1980  0.7069
  864MOL0     H13989   1.171   6.552   8.776  0.8210  0.5045  0.7577
  864MOL0     H13990   1.250   6.600   8.923 -1.6271  2.7885 -1.6422
  864MOL0     H13991   0.984   6.546   8.906  0.6977 -0.5315 -2.2875
  864MOL0     H13992   1.036   6.382   8.932 -2.3101  0.9943 -0.3311
  864MOL0     H13993   1.128   6.615   9.122  0.1481 -0.4097 -0.8137
  864MOL0     H13994   1.165   6.447   9.141  1.1511  0.3553  0.8825
  864MOL0     H13995   0.927   6.400   9.192  1.2229  0.3483 -1.1806
  864MOL0     H13996   0.877   6.554   9.125 -0.4333  2.5840  2.4836
  864MOL0     H13997   1.038   6.524   9.379 -2.5750 -4.4917 -0.2947
  864MOL0     H13998   0.985   6.681   9.310  0.6457  0.0397  0.3159
  864MOL0     H13999   0.792   6.450   9.377 -1.0173 -0.3496 -1.8666
  864MOL0     H14000   0.754   6.614   9.339  2.5145  1.0196 -1.2679
  864MOL0     H14001   0.817   6.817   9.511  0.4140 -0.1825 -1.1126
  864MOL0     H14002   0.876   6.931   9.782  0.0896  0.4312  1.3344
  864MOL0     H14003   0.863   6.796   9.893  0.8409 -0.1528  0.1890
  864MOL0     H14004   0.604   6.807   9.788  1.3436 -1.0431  0.6004
  864MOL0     H14005   0.656   6.951   9.712 -2.4365  2.3466  1.3335
  864MOL0     H14006   0.708   6.920  10.013 -0.8454  2.3699  2.3917
  864MOL0     H14007   0.694   7.069   9.932 -3.3741  2.1400 -0.4065
  864MOL0     H14008   0.510   7.074  10.066 -0.2491  2.5346 -1.1421
  864MOL0     H14009   0.440   6.929   9.985  0.1296  0.2656 -0.0365
  864MOL0     H14010   0.290   7.126  10.102 -6.0146 -0.5367  1.8796
  864MOL0     H14011   0.074   7.183  10.111  0.9987 -0.7707  0.7261
  864MOL0     H14012  -0.370   7.112   9.989  1.5691 -0.1423  0.5341
  864MOL0     H14013  -0.602   7.205   9.981  2.2789 -3.8427  1.0215
  864MOL0     H14014  -0.653   7.650  10.082 -1.1881  1.2515  0.0662
  864MOL0     H14015  -0.709   7.565  10.233  2.5309  0.6455 -0.5007
  864MOL0     H14016  -0.888   7.667  10.153 -1.4039  1.1538 -1.3603
  864MOL0     H14017  -0.921   7.494  10.114 -0.4846  1.2058  1.3273
  864MOL0     H14018  -0.851   7.507   9.904  2.0314  0.7578  0.9727
  864MOL0     H14019  -0.830   7.685   9.904 -0.0177  0.2555 -1.4915
  864MOL0     H14020  -1.095   7.543   9.968 -1.3249  1.0751  0.9282
  864MOL0     H14021  -1.071   7.716   9.941  1.3549  1.0023 -1.9254
  864MOL0     H14022  -0.969   7.548   9.716 -2.8405 -0.2494 -1.6597
  864MOL0     H14023  -1.050   7.713   9.714 -1.0828  1.3812  0.6801
  864MOL0     H14024  -1.203   7.558   9.619  0.3239  1.8979 -0.2660
  864MOL0     H14025  -1.266   7.575   9.782 -1.1553 -3.2931  0.5830
  864MOL0     H14026  -1.140   7.358   9.820 -0.1340 -0.4182 -0.3604
  864MOL0     H14027  -1.276   7.353   9.717  1.3899  0.0633  2.0224
  864MOL0     H14028  -0.980   7.367   9.601  1.6064 -3.1469  0.0827
  864MOL0     H14029  -1.113   7.359   9.501  2.1509 -0.5935 -0.4892
  864MOL0     H14030  -0.460   7.567  10.158 -0.6385 -0.5012  1.0925
  864MOL0     H14031  -0.234   7.495  10.138 -0.7072  1.3835 -1.6529
  864MOL0     H14032   0.097   7.338   9.702 -0.6666 -4.3175 -1.8992
  864MOL0     H14033   0.321   7.256   9.688  3.1819  0.4332  1.4199
  864MOL0     H14034   1.612   6.512   8.662 -0.5819 -0.9602  0.0925
  864MOL0     H14035   1.838   6.529   8.617 -2.1429  1.7022  1.0555
  864MOL0     H14036   2.337   6.437   8.428  2.4651  0.9793 -0.3043
  864MOL0     H14037   2.561   6.389   8.480 -1.2977  0.8965 -0.5563
  864MOL0     H14038   2.806   6.184   8.719  1.8497  3.2934 -0.4977
  864MOL0     H14039   2.656   6.149   8.797 -1.1735  0.5987 -0.8579
  864MOL0     H14040   2.782   6.388   8.923  1.2559 -0.2102  1.6614
  864MOL0     H14041   2.709   6.251   9.002 -0.9524  2.4131  0.5824
  864MOL0     H14042   2.957   6.260   9.046 -0.6487  1.0778 -0.8102
  864MOL0     H14043   2.994   6.240   8.881  0.6410  1.3318  0.9229
  864MOL0     H14044   2.817   6.035   9.037  0.6228 -2.7327  0.7293
  864MOL0     H14045   2.879   6.010   8.877  1.0028 -2.4956  0.8078
  864MOL0     H14046   3.169   5.858   9.115 -1.4002 -1.3915 -0.0939
  864MOL0     H14047   2.488   6.314   8.888 -1.2696  1.6132  1.2020
  864MOL0     H14048   2.231   6.327   8.837 -2.5441  0.3766 -2.7300
  865MOL0     O14049  10.826   3.081   1.270 -0.1032 -0.2169  0.1902
  865MOL0     C14050  10.855   2.963   1.234 -0.0341  0.6755 -0.8130
  865MOL0     O14051  10.778   2.851   1.230  0.2462  0.5674  1.0096
  865MOL0     C14052  10.642   2.854   1.260 -0.1033 -0.3186 -0.2685
  865MOL0     C14053  10.556   2.939   1.184 -0.0525 -0.3762  0.1594
  865MOL0     C14054  10.417   2.931   1.207 -0.2971 -0.5219 -0.3056
  865MOL0     C14055  10.365   2.850   1.319 -0.1579 -0.2592  0.6662
  865MOL0     O14056  10.228   2.821   1.331  0.3561  0.2824  0.9365
  865MOL0     C14057  10.140   2.841   1.217  0.2424 -0.2768  0.1927
  865MOL0     C14058   9.998   2.796   1.264  0.1512  0.9450  0.0919
  865MOL0     C14059   9.890   2.817   1.150  0.2282  0.7885 -0.5607
  865MOL0     C14060   9.755   2.776   1.205 -0.2385 -0.2761  0.0278
  865MOL0     C14061   9.639   2.839   1.132  0.2520  0.7704  0.3092
  865MOL0     C14062   9.507   2.772   1.171  0.2346 -0.2031  0.1947
  865MOL0     C14063   9.377   2.850   1.127 -0.0594  0.3361  0.6713
  865MOL0     C14064   9.265   2.750   1.116  0.7034 -0.3105  0.1063
  865MOL0     N14065   9.138   2.821   1.091 -0.1847  0.8675  0.2520
  865MOL0     C14066   9.090   2.850   0.963 -0.3358  0.3380  0.0893
  865MOL0     C14067   8.971   2.904   0.988  0.4310 -0.5747  0.0130
  865MOL0     C14068   8.871   2.942   0.887  0.5342  0.4144 -0.1706
  865MOL0     C14069   8.775   3.057   0.924  0.4157  0.3023  0.1937
  865MOL0     C14070   8.673   3.089   0.812  0.3529 -0.2139 -0.0409
  865MOL0     C14071   8.551   2.990   0.811  0.2836 -0.7324  0.0706
  865MOL0     O14072   8.483   2.983   0.943  0.1382 -0.1455 -0.5664
  865MOL0     C14073   8.362   2.909   0.944 -0.7748 -0.7801 -0.8325
  865MOL0     C14074   8.309   2.887   1.068 -0.5163 -0.2623  0.0763
  865MOL0     C14075   8.197   2.817   1.096  0.6548  0.7134  0.3100
  865MOL0     C14076   8.119   2.773   0.991  0.6240 -0.0644 -0.2548
  865MOL0     C14077   8.002   2.685   1.003  0.0410 -0.3017  0.5743
  865MOL0     O14078   7.889   2.731   0.939 -0.1174  0.0378  0.0476
  865MOL0     C14079   7.764   2.692   0.970 -0.1186  0.8891  1.1387
  865MOL0     C14080   7.654   2.709   0.869  0.3229 -0.2334 -1.0832
  865MOL0     C14081   7.524   2.672   0.899 -0.5323 -0.3333 -0.2780
  865MOL0     C14082   7.497   2.606   1.017  0.5777 -0.4779  0.6289
  865MOL0     O14083   7.372   2.557   1.055  0.2202  0.1067  0.4836
  865MOL0     C14084   7.279   2.537   0.939  0.0624  0.7707  0.0736
  865MOL0     C14085   7.142   2.474   0.977 -0.3450 -0.0626 -0.6839
  865MOL0     C14086   7.139   2.323   0.962 -0.7357  0.0515 -0.4449
  865MOL0     C14087   7.019   2.256   1.016  0.4665  0.2658  0.4042
  865MOL0     C14088   7.005   2.104   0.975  0.3239  0.8427  0.5276
  865MOL0     C14089   6.877   2.050   1.029  0.0414 -0.2781 -0.2789
  865MOL0     C14090   6.856   1.903   1.010  0.5359 -0.0249  0.3065
  865MOL0     C14091   6.738   1.854   1.084 -0.3945  0.1647  0.4747
  865MOL0    Cl14092   6.701   1.690   1.020 -0.2714  0.7172  0.4658
  865MOL0     C14093   7.594   2.592   1.111 -0.8731  0.6724 -0.0706
  865MOL0     C14094   7.726   2.629   1.081 -0.6865 -0.4292  0.9395
  865MOL0     O14095   8.011   2.588   1.079 -0.3878 -0.0049 -0.4857
  865MOL0     C14096   8.160   2.792   0.861  0.0171 -0.0617  0.0035
  865MOL0     C14097   8.286   2.859   0.837  0.0432  0.1773 -1.3705
  865MOL0     N14098   8.942   2.899   1.125  1.1110  0.4369  0.4136
  865MOL0     N14099   9.048   2.853   1.181  0.2396  0.1728 -0.6885
  865MOL0     C14100  10.461   2.783   1.399  0.0607 -0.3067  0.1519
  865MOL0     C14101  10.589   2.785   1.370 -0.7946  0.2956  0.2308
  865MOL0     C14102  10.996   2.946   1.194 -1.6230 -1.1206 -0.2223
  865MOL0     C14103  11.068   3.061   1.161  0.0541  0.2433  0.0110
  865MOL0     C14104  11.211   3.045   1.142  0.0951 -0.5451  0.0658
  865MOL0     C14105  11.274   2.917   1.142 -0.5709 -0.3756 -0.0658
  865MOL0     O14106  11.407   2.893   1.120 -0.1672 -0.1683 -0.4635
  865MOL0     C14107  11.488   3.006   1.115 -0.3322 -0.2979 -0.3299
  865MOL0     C14108  11.628   2.953   1.125 -0.5116  0.4854  0.5607
  865MOL0     C14109  11.727   3.066   1.134  0.4062 -0.0825  1.1533
  865MOL0     C14110  11.880   3.020   1.133 -0.1045  0.0014 -0.5088
  865MOL0     C14111  11.976   3.131   1.127  0.3903 -0.4638 -0.4233
  865MOL0     C14112  12.058   3.221   1.120  0.5771  0.2007  0.3426
  865MOL0     C14113  11.190   2.802   1.176  0.6595  0.0160  0.7059
  865MOL0     C14114  11.053   2.822   1.208  0.7652  0.7491  1.4884
  865MOL0     H14115  10.603   3.000   1.107 -1.3522 -1.9158 -1.9356
  865MOL0     H14116  10.340   2.989   1.157 -0.5968  0.4591  1.2548
  865MOL0     H14117  10.176   2.784   1.132  3.9694 -0.6709  1.8402
  865MOL0     H14118  10.130   2.948   1.196 -0.9123  0.2461  2.8517
  865MOL0     H14119   9.980   2.865   1.347  0.6312  0.1951  0.8331
  865MOL0     H14120  10.011   2.692   1.293  0.7700  1.2217  0.8240
  865MOL0     H14121   9.916   2.754   1.065  1.1762  2.1232 -1.3009
  865MOL0     H14122   9.887   2.922   1.119 -0.0605  0.9495  0.0022
  865MOL0     H14123   9.740   2.669   1.185 -1.8449 -0.0968  0.0953
  865MOL0     H14124   9.739   2.786   1.313  2.4139  0.3207  0.4302
  865MOL0     H14125   9.660   2.830   1.025  0.6749 -1.0016  0.5120
  865MOL0     H14126   9.628   2.947   1.146  3.4899  1.5813 -2.1560
  865MOL0     H14127   9.490   2.750   1.277  1.4851 -3.3000 -0.1616
  865MOL0     H14128   9.502   2.671   1.128  0.5911 -0.6121  1.1002
  865MOL0     H14129   9.360   2.933   1.197 -1.8119 -0.3274  1.0820
  865MOL0     H14130   9.377   2.883   1.023 -0.7773 -1.4031  0.0809
  865MOL0     H14131   9.265   2.686   1.205  1.0251 -1.3467 -0.6166
  865MOL0     H14132   9.288   2.686   1.030  1.1031 -0.1053  0.0586
  865MOL0     H14133   9.127   2.840   0.862 -1.5666 -0.9822 -0.2662
  865MOL0     H14134   8.803   2.856   0.877  1.3710 -0.3837  0.7555
  865MOL0     H14135   8.915   2.960   0.788 -2.0586 -0.1025 -1.5125
  865MOL0     H14136   8.839   3.140   0.956  1.3156 -1.8593  4.8287
  865MOL0     H14137   8.723   3.020   1.013 -0.4541  2.7791  0.7932
  865MOL0     H14138   8.627   3.184   0.839 -2.5364 -1.4244 -0.2819
  865MOL0     H14139   8.714   3.087   0.710 -0.1571  1.0057 -0.2900
  865MOL0     H14140   8.583   2.893   0.772 -0.5572 -0.2321 -1.9972
  865MOL0     H14141   8.483   3.037   0.739  0.8577  1.3230  0.8169
  865MOL0     H14142   8.356   2.928   1.157  0.9300 -0.9845 -0.3206
  865MOL0     H14143   8.156   2.798   1.195  1.7425 -1.0143  0.4737
  865MOL0     H14144   7.680   2.763   0.779  1.2323  3.0613  1.0046
  865MOL0     H14145   7.449   2.696   0.825 -0.9185 -1.6377 -0.3438
  865MOL0     H14146   7.324   2.473   0.864 -1.9449 -0.5526 -0.0873
  865MOL0     H14147   7.251   2.635   0.899  0.2833  0.4216 -0.9466
  865MOL0     H14148   7.056   2.516   0.923  1.2688 -0.8460 -4.0991
  865MOL0     H14149   7.117   2.489   1.083 -2.2381 -0.6998 -1.0136
  865MOL0     H14150   7.219   2.290   1.028 -1.0540  2.4927  1.3273
  865MOL0     H14151   7.148   2.293   0.857 -1.5446  0.0621 -0.5282
  865MOL0     H14152   7.031   2.263   1.125  0.8003 -0.7437  0.4433
  865MOL0     H14153   6.924   2.298   0.982 -0.0654 -0.4164  1.0053
  865MOL0     H14154   7.089   2.046   1.014  1.5748  1.6186 -0.9012
  865MOL0     H14155   7.001   2.088   0.867 -1.3332 -0.6867  0.7649
  865MOL0     H14156   6.795   2.105   0.982  1.5540  0.8438 -1.7041
  865MOL0     H14157   6.883   2.064   1.137 -2.4216 -1.9242  0.1569
  865MOL0     H14158   6.829   1.894   0.904  3.5791  1.8798 -0.7600
  865MOL0     H14159   6.944   1.842   1.031  1.0329 -0.7360 -3.2636
  865MOL0     H14160   6.661   1.929   1.064  0.5846  1.4687  1.4389
  865MOL0     H14161   6.758   1.854   1.191  0.5035  2.4293  0.3727
  865MOL0     H14162   7.557   2.547   1.202 -0.2274 -1.0497 -0.6097
  865MOL0     H14163   7.799   2.610   1.159  1.8101  0.1797 -1.1312
  865MOL0     H14164   8.099   2.743   0.785  0.4305 -0.3360 -0.1515
  865MOL0     H14165   8.321   2.870   0.735  3.7597 -1.5670 -0.4410
  865MOL0     H14166  10.428   2.712   1.474  2.0718 -2.5283 -0.9153
  865MOL0     H14167  10.644   2.715   1.432 -1.3125  0.2731  0.6741
  865MOL0     H14168  11.026   3.159   1.138 -0.0252  0.2198  0.0555
  865MOL0     H14169  11.277   3.127   1.116 -2.3743  1.0375 -1.7447
  865MOL0     H14170  11.479   3.071   1.202 -2.2846 -1.2858  0.2463
  865MOL0     H14171  11.483   3.060   1.020  3.1173  0.8181 -0.0332
  865MOL0     H14172  11.650   2.886   1.208  1.2956  2.2752  1.6281
  865MOL0     H14173  11.644   2.901   1.030 -0.1119  1.4807  0.0745
  865MOL0     H14174  11.702   3.126   1.222 -1.6960 -2.1538  2.0571
  865MOL0     H14175  11.714   3.130   1.046  2.6488  0.3375  1.0652
  865MOL0     H14176  11.910   2.956   1.217 -1.5559  0.7048  0.5679
  865MOL0     H14177  11.892   2.951   1.048 -0.3087 -2.8766  1.6558
  865MOL0     H14178  12.130   3.300   1.123  1.5689 -0.7054  2.1934
  865MOL0     H14179  11.233   2.703   1.167  0.5906  0.1663 -1.8262
  865MOL0     H14180  10.992   2.734   1.220  2.9734 -1.2021 -0.5558
  866MOL0     O14181   8.924   3.867   4.792  0.0475 -0.6668  0.0212
  866MOL0     C14182   8.881   3.969   4.740 -0.4096  0.2512 -0.2812
  866MOL0     O14183   8.751   4.006   4.738  0.1582  0.3135 -0.5473
  866MOL0     C14184   8.654   3.909   4.764 -0.1361  0.6220  0.2948
  866MOL0     C14185   8.562   3.929   4.861 -0.4018  0.1314  0.1177
  866MOL0     C14186   8.461   3.830   4.887  0.6366  0.2662 -0.4073
  866MOL0     C14187   8.459   3.711   4.820  0.3572  0.9339 -0.9066
  866MOL0     O14188   8.358   3.620   4.853  1.0180  0.4545  0.1070
  866MOL0     C14189   8.244   3.649   4.938 -0.4755 -0.0787 -0.4669
  866MOL0     C14190   8.159   3.526   4.914  0.5597  0.2447  0.3566
  866MOL0     C14191   8.046   3.557   4.809  0.7364 -0.0265 -0.8163
  866MOL0     C14192   7.948   3.446   4.811  0.2024  1.0700 -1.0317
  866MOL0     C14193   7.832   3.450   4.714 -0.8067  0.2669  0.3031
  866MOL0     C14194   7.722   3.551   4.758 -0.1722  0.1272  0.8267
  866MOL0     C14195   7.592   3.527   4.678 -0.3240 -0.0296  0.0876
  866MOL0     C14196   7.480   3.621   4.731  0.1407  0.2540  1.0135
  866MOL0     N14197   7.365   3.614   4.646  1.0000  0.0583 -0.5116
  866MOL0     C14198   7.265   3.510   4.631 -0.3866 -0.4818 -0.1382
  866MOL0     C14199   7.181   3.558   4.531  0.3413 -0.0176  0.0057
  866MOL0     C14200   7.057   3.494   4.490 -0.3905  0.6466 -1.0943
  866MOL0     C14201   6.930   3.551   4.554 -0.1240  0.4631 -0.4762
  866MOL0     C14202   6.909   3.697   4.530  0.3331  0.5131 -1.1157
  866MOL0     C14203   6.761   3.741   4.557  0.4887 -0.5937  1.0831
  866MOL0     O14204   6.691   3.688   4.445  0.1517  0.1643  0.1325
  866MOL0     C14205   6.562   3.728   4.410  0.0044 -0.1095 -0.6222
  866MOL0     C14206   6.495   3.651   4.324  1.0370  1.2204  0.1729
  866MOL0     C14207   6.365   3.691   4.277  0.4548 -0.0844 -0.9781
  866MOL0     C14208   6.297   3.798   4.338 -0.3559 -0.7329 -0.1342
  866MOL0     C14209   6.157   3.835   4.316  0.0497  0.1895 -0.5290
  866MOL0     O14210   6.111   3.949   4.383  0.1103  0.4497 -0.4880
  866MOL0     C14211   5.987   4.006   4.355 -0.3304 -0.3284  0.1529
  866MOL0     C14212   5.974   4.085   4.237 -0.1324 -0.1147 -0.8667
  866MOL0     C14213   5.853   4.131   4.201  0.0996 -0.2143  0.3617
  866MOL0     C14214   5.737   4.109   4.278 -0.7504 -0.0027 -0.1464
  866MOL0     O14215   5.622   4.173   4.239  0.2469 -0.1821 -0.2450
  866MOL0     C14216   5.514   4.169   4.336 -0.1084  0.0200  0.1677
  866MOL0     C14217   5.424   4.279   4.291 -1.4037  1.3014 -0.2007
  866MOL0     C14218   5.352   4.249   4.155  0.8042 -0.6266 -0.0853
  866MOL0     C14219   5.299   4.376   4.092 -0.7244 -1.3191 -0.2896
  866MOL0     C14220   5.257   4.369   3.951  0.2455  0.1976 -0.3686
  866MOL0     C14221   5.370   4.362   3.851  0.5846 -0.5577 -0.7998
  866MOL0     C14222   5.479   4.468   3.882  0.2096  0.1156  0.3475
  866MOL0     C14223   5.444   4.623   3.889  0.1847 -0.2518  0.5295
  866MOL0    Cl14224   5.424   4.703   3.724  0.0341  0.3411  0.0582
  866MOL0     C14225   5.747   4.028   4.389  0.1075 -1.0967  1.1060
  866MOL0     C14226   5.874   3.983   4.431  0.0651  0.6661  0.4743
  866MOL0     O14227   6.093   3.772   4.233  0.4197  0.0120  0.3604
  866MOL0     C14228   6.365   3.867   4.439  0.3497 -0.3577  1.1706
  866MOL0     C14229   6.499   3.843   4.464 -0.9273 -0.1892  0.1395
  866MOL0     N14230   7.243   3.675   4.481  0.8790 -0.6897  0.6273
  866MOL0     N14231   7.340   3.712   4.552 -0.4118 -0.7283  0.4173
  866MOL0     C14232   8.547   3.682   4.717 -0.1583 -0.9246 -0.2864
  866MOL0     C14233   8.643   3.789   4.689  0.6120 -0.2816 -0.3967
  866MOL0     C14234   8.973   4.048   4.666 -0.0104 -0.1820 -0.3627
  866MOL0     C14235   8.928   4.175   4.616 -0.0660  0.1339  0.7482
  866MOL0     C14236   9.007   4.249   4.524 -0.3436 -1.1352 -0.1441
  866MOL0     C14237   9.133   4.206   4.490 -0.1246  0.8254  0.0460
  866MOL0     O14238   9.206   4.273   4.397  0.4639  0.1274  0.4658
  866MOL0     C14239   9.283   4.382   4.469  0.0998 -0.1892  0.3134
  866MOL0     C14240   9.352   4.477   4.375  0.5457  1.0531 -0.6945
  866MOL0     C14241   9.268   4.574   4.308  0.1274 -0.0285 -0.2077
  866MOL0     C14242   9.335   4.622   4.181  0.0276 -0.1804 -0.6440
  866MOL0     C14243   9.457   4.695   4.214 -0.7519 -0.4507 -0.4341
  866MOL0     C14244   9.561   4.757   4.248  0.1390 -0.0537 -0.3763
  866MOL0     C14245   9.174   4.083   4.549 -0.8688 -0.3594  0.4695
  866MOL0     C14246   9.099   4.016   4.638 -0.0907 -0.1125  0.2447
  866MOL0     H14247   8.591   4.018   4.916 -0.1403  1.2473 -1.7297
  866MOL0     H14248   8.388   3.856   4.963  1.0747 -0.4578  0.2749
  866MOL0     H14249   8.196   3.747   4.924  0.6654  0.8371  1.5346
  866MOL0     H14250   8.276   3.641   5.042  1.0555  2.8036 -0.6235
  866MOL0     H14251   8.107   3.492   5.004 -1.2302 -3.4369 -1.8421
  866MOL0     H14252   8.219   3.443   4.875  2.2611  1.7813 -0.4305
  866MOL0     H14253   8.087   3.579   4.711 -2.1582  4.1370 -1.3268
  866MOL0     H14254   7.994   3.646   4.845  1.4933  0.6625 -1.4067
  866MOL0     H14255   8.013   3.361   4.792 -0.8648 -0.8273  2.7556
  866MOL0     H14256   7.908   3.437   4.913  2.0745  1.0664 -0.2613
  866MOL0     H14257   7.792   3.349   4.723 -1.6024  0.4072 -1.2961
  866MOL0     H14258   7.869   3.476   4.614 -0.5232  1.9001  0.8063
  866MOL0     H14259   7.751   3.654   4.741 -1.0983  0.5950  1.9015
  866MOL0     H14260   7.695   3.543   4.864  1.3758 -0.2874  1.2196
  866MOL0     H14261   7.621   3.564   4.579 -1.3221  1.3380  0.2923
  866MOL0     H14262   7.566   3.421   4.681  1.6987 -0.6930 -2.2019
  866MOL0     H14263   7.522   3.722   4.724  1.2822 -0.3195 -4.9164
  866MOL0     H14264   7.455   3.593   4.834  1.0308 -1.9314  0.6769
  866MOL0     H14265   7.247   3.421   4.690  0.1999  0.2603  1.2139
  866MOL0     H14266   7.058   3.392   4.528 -1.7507 -0.2569 -3.3221
  866MOL0     H14267   7.043   3.480   4.383 -1.1982 -1.5713 -0.7520
  866MOL0     H14268   6.920   3.540   4.662  1.3110  0.9277 -0.2782
  866MOL0     H14269   6.848   3.499   4.504 -0.4102  2.4323 -2.1906
  866MOL0     H14270   6.969   3.749   4.606 -1.9743 -1.4396  2.3120
  866MOL0     H14271   6.933   3.722   4.426 -1.1576  1.3825 -1.2714
  866MOL0     H14272   6.768   3.850   4.555  0.5564 -0.5812 -1.7325
  866MOL0     H14273   6.714   3.710   4.651  0.4519 -1.5408  0.7629
  866MOL0     H14274   6.549   3.570   4.277  2.5901  2.4025 -0.1506
  866MOL0     H14275   6.315   3.624   4.208  0.0044  0.9507 -1.6730
  866MOL0     H14276   6.057   4.107   4.171 -0.1861  0.4993 -0.7423
  866MOL0     H14277   5.850   4.181   4.105  2.7363  0.5315  0.5913
  866MOL0     H14278   5.546   4.197   4.437 -2.2140 -2.2593  1.5627
  866MOL0     H14279   5.469   4.069   4.339 -4.0370  1.4867 -2.6971
  866MOL0     H14280   5.481   4.372   4.281  0.2630  0.3645  0.2540
  866MOL0     H14281   5.354   4.302   4.372 -1.7325 -3.0905  1.0242
  866MOL0     H14282   5.266   4.182   4.167 -2.1158  1.8123 -4.3702
  866MOL0     H14283   5.419   4.204   4.081 -0.0879  0.5366 -1.6839
  866MOL0     H14284   5.211   4.409   4.148  0.3535 -3.9597  3.3895
  866MOL0     H14285   5.366   4.461   4.112 -0.5203 -1.5979  0.2588
  866MOL0     H14286   5.193   4.453   3.925  0.5572  0.9346  1.1350
  866MOL0     H14287   5.200   4.276   3.942 -1.9942  1.1238  2.6232
  866MOL0     H14288   5.330   4.375   3.751 -0.4581 -1.7645 -0.5610
  866MOL0     H14289   5.407   4.260   3.838 -4.4146 -2.3884 -2.9287
  866MOL0     H14290   5.533   4.440   3.973  0.9109 -0.1882 -0.1585
  866MOL0     H14291   5.561   4.453   3.813  1.2893  1.0541  1.3793
  866MOL0     H14292   5.522   4.685   3.933 -1.9401  2.7266  0.4058
  866MOL0     H14293   5.354   4.629   3.951 -2.0722 -1.3348 -2.3922
  866MOL0     H14294   5.663   3.989   4.444 -1.5336 -0.5728 -0.9140
  866MOL0     H14295   5.872   3.939   4.530 -1.2900  0.6116  0.4368
  866MOL0     H14296   6.316   3.945   4.498  0.4073  2.1530 -1.8392
  866MOL0     H14297   6.547   3.895   4.545  0.9198 -1.9080  0.2369
  866MOL0     H14298   8.549   3.600   4.646  4.6111 -1.0475 -0.3274
  866MOL0     H14299   8.725   3.770   4.621  1.6892  2.3752  0.0341
  866MOL0     H14300   8.835   4.222   4.646 -0.0508 -0.2681  1.4422
  866MOL0     H14301   8.977   4.340   4.474 -4.0449 -1.5630  0.9275
  866MOL0     H14302   9.366   4.332   4.520 -1.6088 -4.0991 -0.3879
  866MOL0     H14303   9.223   4.438   4.542 -1.7837 -1.9488  0.1971
  866MOL0     H14304   9.434   4.514   4.438  0.4490 -1.0302  0.7717
  866MOL0     H14305   9.387   4.407   4.298 -0.5211  1.9907 -2.0758
  866MOL0     H14306   9.240   4.657   4.372 -0.0659  0.3389 -0.7574
  866MOL0     H14307   9.173   4.534   4.271 -0.6822  0.5648  1.1700
  866MOL0     H14308   9.373   4.535   4.127 -0.4828 -1.1478  0.5061
  866MOL0     H14309   9.272   4.682   4.115  0.5213  1.9959  0.7528
  866MOL0     H14310   9.650   4.815   4.262  0.5970  0.2441 -3.7882
  866MOL0     H14311   9.272   4.051   4.515 -1.6255  0.8297 -3.2810
  866MOL0     H14312   9.141   3.920   4.668 -2.8157 -1.8603 -1.1127
  867MOL0     O14313   4.277   6.143  11.208  0.4196  0.1125 -0.4785
  867MOL0     C14314   4.286   6.019  11.187 -0.0304 -0.5532  0.4635
  867MOL0     O14315   4.182   5.945  11.144 -0.6710  0.0051  0.1107
  867MOL0     C14316   4.070   6.000  11.089 -0.1845  0.8985  0.8787
  867MOL0     C14317   4.011   6.127  11.110  0.5785  0.2856  0.6285
  867MOL0     C14318   3.880   6.148  11.052  0.0325 -0.5621 -0.9396
  867MOL0     C14319   3.818   6.058  10.976  0.1104 -0.5038  0.5733
  867MOL0     O14320   3.705   6.099  10.912  0.2897  0.8165  0.5067
  867MOL0     C14321   3.613   5.995  10.867  0.2092 -1.0308  0.4684
  867MOL0     C14322   3.472   6.067  10.854 -0.2038  0.3279  1.1495
  867MOL0     C14323   3.384   6.077  10.981  0.0599 -0.2213 -0.2837
  867MOL0     C14324   3.234   6.092  10.958  0.7889  0.7078  1.0044
  867MOL0     C14325   3.158   5.957  10.929 -0.1283 -0.1714 -0.0393
  867MOL0     C14326   3.197   5.867  10.808  0.3106 -0.5934 -0.0466
  867MOL0     C14327   3.160   5.933  10.669 -0.9503 -0.6796 -0.4738
  867MOL0     C14328   3.229   5.866  10.542 -0.0127  0.0002 -0.7378
  867MOL0     N14329   3.377   5.890  10.538  0.4658 -0.1077 -0.0257
  867MOL0     C14330   3.429   6.012  10.510  0.2519  0.1078 -0.0390
  867MOL0     C14331   3.562   5.993  10.507  0.5498  0.5743  0.5137
  867MOL0     C14332   3.667   6.077  10.451 -0.5062  0.0252  0.9007
  867MOL0     C14333   3.781   6.115  10.556 -0.8768 -1.0942 -0.7397
  867MOL0     C14334   3.885   6.210  10.497 -0.5705 -0.1903 -0.4693
  867MOL0     C14335   4.000   6.248  10.595  0.1491 -0.2359  0.0417
  867MOL0     O14336   3.953   6.322  10.716  0.1424 -0.1483  1.3026
  867MOL0     C14337   4.058   6.370  10.783 -0.7371 -0.1101  1.0056
  867MOL0     C14338   4.145   6.292  10.865 -0.6714 -0.4344 -0.0257
  867MOL0     C14339   4.227   6.362  10.951  0.3064 -0.7008 -0.6780
  867MOL0     C14340   4.240   6.499  10.951  0.0130 -0.6610  0.0638
  867MOL0     C14341   4.352   6.560  11.019 -0.1845 -0.0653 -0.2320
  867MOL0     O14342   4.452   6.480  11.072  0.2996  0.0256  0.2104
  867MOL0     C14343   4.580   6.528  11.106 -0.1409 -0.2121  0.5580
  867MOL0     C14344   4.618   6.659  11.146  0.4653 -0.1940 -0.1636
  867MOL0     C14345   4.734   6.691  11.205  0.8343 -0.1407 -0.9376
  867MOL0     C14346   4.838   6.597  11.219 -0.7306 -0.6241 -0.3036
  867MOL0     O14347   4.956   6.629  11.281 -0.2823 -0.1835  0.6462
  867MOL0     C14348   5.069   6.556  11.239 -0.4463  0.5450 -0.0394
  867MOL0     C14349   5.194   6.614  11.307 -1.0203 -0.3708  0.6654
  867MOL0     C14350   5.327   6.545  11.267  0.9324 -0.0854  0.2196
  867MOL0     C14351   5.449   6.620  11.318 -0.3391 -0.1789  1.0614
  867MOL0     C14352   5.573   6.530  11.278 -0.0303  0.4566 -0.0696
  867MOL0     C14353   5.703   6.598  11.305  0.8503  0.7281 -0.7169
  867MOL0     C14354   5.804   6.513  11.383 -0.6606  0.6918 -0.2871
  867MOL0     C14355   5.908   6.592  11.464  0.0099  0.1747  0.6692
  867MOL0    Cl14356   6.003   6.676  11.346 -0.0614  0.2460 -0.3531
  867MOL0     C14357   4.810   6.467  11.163 -1.4887  0.1129  0.1596
  867MOL0     C14358   4.683   6.433  11.105  0.0434 -0.0964 -0.7585
  867MOL0     O14359   4.344   6.681  11.023  0.4532  0.3737  0.5018
  867MOL0     C14360   4.161   6.582  10.865  0.3378  0.8514  0.5502
  867MOL0     C14361   4.068   6.511  10.779  0.6480 -0.1418 -0.1081
  867MOL0     N14362   3.589   5.862  10.548  0.1985  0.2887  0.4691
  867MOL0     N14363   3.482   5.801  10.565 -0.1666  0.0421  0.4415
  867MOL0     C14364   3.883   5.938  10.942  0.4902  0.6178  0.0776
  867MOL0     C14365   4.000   5.909  11.004  1.9205  0.1061  0.1398
  867MOL0     C14366   4.418   5.960  11.194  0.6775  0.3442  0.7949
  867MOL0     C14367   4.536   6.031  11.210 -0.5011  0.0756 -0.2374
  867MOL0     C14368   4.660   5.956  11.209 -0.1147 -0.2102 -0.4591
  867MOL0     C14369   4.658   5.817  11.189  0.5174  0.7355 -0.2547
  867MOL0     O14370   4.775   5.743  11.167  0.6235  0.3448  0.0448
  867MOL0     C14371   4.902   5.804  11.180 -0.1249  0.8008  0.8387
  867MOL0     C14372   4.989   5.696  11.230  0.4583 -1.0859 -0.3002
  867MOL0     C14373   5.134   5.736  11.250  0.5669  0.0616 -0.1658
  867MOL0     C14374   5.241   5.624  11.245  0.2480 -0.1737  0.6522
  867MOL0     C14375   5.369   5.682  11.295 -0.1669  0.1839 -0.0244
  867MOL0     C14376   5.463   5.742  11.335  0.6108  0.2096  0.7992
  867MOL0     C14377   4.544   5.749  11.175 -0.0455  0.5625 -0.0956
  867MOL0     C14378   4.425   5.816  11.183  0.8271 -1.0947  0.0530
  867MOL0     H14379   4.056   6.212  11.160  2.2153 -0.0757 -0.1546
  867MOL0     H14380   3.838   6.246  11.070  2.6925  0.6501 -0.8488
  867MOL0     H14381   3.598   5.918  10.944  0.2248 -0.7622  0.7435
  867MOL0     H14382   3.641   5.946  10.773 -3.7311 -3.8819  0.5147
  867MOL0     H14383   3.418   6.013  10.776 -1.1103  1.7654  0.7292
  867MOL0     H14384   3.484   6.168  10.814 -0.9034 -0.4368 -1.1611
  867MOL0     H14385   3.425   6.164  11.034  1.5188  0.2663 -2.0942
  867MOL0     H14386   3.386   5.992  11.050  1.4694  0.7454  0.9556
  867MOL0     H14387   3.180   6.135  11.043  0.7753  0.6024  1.0493
  867MOL0     H14388   3.228   6.161  10.873  0.1440 -2.1975 -1.5185
  867MOL0     H14389   3.052   5.984  10.933  0.2712  1.3522  1.4176
  867MOL0     H14390   3.195   5.901  11.015  1.2217 -0.9721 -1.1109
  867MOL0     H14391   3.149   5.770  10.817  4.1536 -2.5935  0.7603
  867MOL0     H14392   3.303   5.845  10.821  0.1208 -3.9646 -2.8979
  867MOL0     H14393   3.052   5.951  10.666 -1.4122 -0.9681  4.6317
  867MOL0     H14394   3.203   6.033  10.670 -2.5295  0.0326 -0.6435
  867MOL0     H14395   3.179   5.899  10.450 -4.5713 -3.1213  0.2319
  867MOL0     H14396   3.215   5.758  10.528  1.9722 -0.1663 -1.7043
  867MOL0     H14397   3.373   6.091  10.460  2.3652 -0.2909 -3.3916
  867MOL0     H14398   3.620   6.169  10.415  2.8122  0.3541 -3.5936
  867MOL0     H14399   3.714   6.033  10.362  0.0563  0.3112  1.0484
  867MOL0     H14400   3.832   6.037  10.612  0.1970 -0.8175 -1.2999
  867MOL0     H14401   3.733   6.173  10.636 -0.6680 -0.6055 -0.9674
  867MOL0     H14402   3.926   6.156  10.410 -0.8045 -0.2389 -0.5488
  867MOL0     H14403   3.849   6.307  10.462  0.9985  1.6037  2.5170
  867MOL0     H14404   4.066   6.313  10.537 -0.5867 -0.4328 -1.0608
  867MOL0     H14405   4.059   6.161  10.627 -0.4788 -0.7277 -0.1288
  867MOL0     H14406   4.140   6.183  10.858 -0.5118 -0.3565 -2.0013
  867MOL0     H14407   4.277   6.295  11.020 -0.9457 -1.0599 -0.0712
  867MOL0     H14408   4.543   6.738  11.151 -0.0577 -0.7881  2.2896
  867MOL0     H14409   4.744   6.791  11.245  0.8996 -0.5898  0.2035
  867MOL0     H14410   5.088   6.569  11.132 -2.0258  1.7065 -0.2123
  867MOL0     H14411   5.052   6.452  11.271  1.2023  0.1313 -0.3722
  867MOL0     H14412   5.176   6.589  11.412  2.6960  0.7242  1.7058
  867MOL0     H14413   5.205   6.723  11.305  2.2400 -0.5848 -2.5629
  867MOL0     H14414   5.342   6.551  11.158  1.6166  4.3890  0.3522
  867MOL0     H14415   5.335   6.438  11.289 -0.0901  0.2726  2.5769
  867MOL0     H14416   5.461   6.717  11.269  1.5826  0.4067  2.5796
  867MOL0     H14417   5.439   6.632  11.426  2.0063 -1.2020  1.4427
  867MOL0     H14418   5.579   6.500  11.174 -1.0811 -0.7851  0.2043
  867MOL0     H14419   5.570   6.435  11.333 -1.9652  0.3451 -0.3078
  867MOL0     H14420   5.685   6.691  11.361 -0.3676 -0.1815  0.4923
  867MOL0     H14421   5.745   6.636  11.212 -1.2098 -0.2533 -2.1277
  867MOL0     H14422   5.749   6.457  11.458  0.0276 -0.5507 -0.6881
  867MOL0     H14423   5.847   6.439  11.315 -0.2351  0.2703  0.4299
  867MOL0     H14424   5.963   6.521  11.525 -1.3242 -1.2135  0.3120
  867MOL0     H14425   5.845   6.662  11.521 -0.3027 -0.3730  1.0062
  867MOL0     H14426   4.886   6.390  11.155 -1.9452 -0.2314 -1.1738
  867MOL0     H14427   4.648   6.333  11.084  0.6442 -0.6856  0.8883
  867MOL0     H14428   4.167   6.691  10.862 -3.2455  1.2495  2.3880
  867MOL0     H14429   3.991   6.561  10.720 -0.4078  0.0748  1.3840
  867MOL0     H14430   3.837   5.874  10.867 -0.8072  0.7939  0.6893
  867MOL0     H14431   4.041   5.814  10.973 -0.6603 -1.0859  0.1095
  867MOL0     H14432   4.531   6.139  11.221  0.0603 -0.0038  0.8468
  867MOL0     H14433   4.755   6.007  11.226  0.0546 -1.3257  2.5335
  867MOL0     H14434   4.906   5.893  11.243  1.4767  1.3943 -0.0448
  867MOL0     H14435   4.928   5.831  11.078 -1.7079 -0.3555  0.0772
  867MOL0     H14436   4.945   5.660  11.323  3.0684 -0.8572  1.1292
  867MOL0     H14437   4.989   5.610  11.163  0.7694 -1.4252  0.1297
  867MOL0     H14438   5.143   5.799  11.339  0.5480 -0.7183  0.3957
  867MOL0     H14439   5.156   5.792  11.159  2.5235 -1.8464 -0.9608
  867MOL0     H14440   5.216   5.531  11.297  1.3987 -0.5551  0.5676
  867MOL0     H14441   5.261   5.607  11.139  0.5999  0.2535  0.6444
  867MOL0     H14442   5.547   5.802  11.365 -0.4534  4.3878 -3.3309
  867MOL0     H14443   4.537   5.642  11.156  1.8695  0.9157 -3.8063
  867MOL0     H14444   4.329   5.764  11.180 -0.8197  1.5351  2.2760
  868MOL0     O14445   4.522   6.381   6.023 -0.3484  0.3768  0.3046
  868MOL0     C14446   4.512   6.293   6.099  1.2002  0.3375 -0.1891
  868MOL0     O14447   4.613   6.211   6.132 -0.5072 -0.7842  0.0985
  868MOL0     C14448   4.733   6.244   6.088  0.0445 -0.0779 -0.3183
  868MOL0     C14449   4.773   6.258   5.957 -0.2926 -0.3834 -0.5077
  868MOL0     C14450   4.909   6.279   5.923  0.4757  0.1012  0.0609
  868MOL0     C14451   5.007   6.291   6.031  0.2495  1.0049  1.0949
  868MOL0     O14452   5.131   6.312   5.986 -0.4626 -0.2687 -0.0486
  868MOL0     C14453   5.228   6.311   6.090  0.6174 -0.1002 -0.3513
  868MOL0     C14454   5.368   6.297   6.040  1.3002 -0.0000  0.3206
  868MOL0     C14455   5.388   6.166   5.966  0.5756  0.1095  0.4401
  868MOL0     C14456   5.527   6.133   5.916  0.0805  0.9815 -0.0822
  868MOL0     C14457   5.611   6.086   6.034 -0.6844  0.3570  0.9090
  868MOL0     C14458   5.757   6.074   6.015 -0.9107  0.4586  0.4695
  868MOL0     C14459   5.794   5.969   5.915  0.4945 -0.1125 -0.4220
  868MOL0     C14460   5.944   5.939   5.918 -0.2508  0.4295  0.2317
  868MOL0     N14461   5.974   5.854   6.037 -0.5734 -0.8639 -0.2140
  868MOL0     C14462   5.911   5.736   6.047 -0.2823  0.6859  0.6185
  868MOL0     C14463   5.978   5.677   6.153  0.6163 -0.4298 -0.1329
  868MOL0     C14464   5.944   5.538   6.213 -0.0960 -0.6710  0.5247
  868MOL0     C14465   6.077   5.464   6.251  0.6675  0.4811  0.4991
  868MOL0     C14466   6.078   5.324   6.314  0.8773 -0.7507 -0.2266
  868MOL0     C14467   6.042   5.344   6.464  0.1222 -0.0444 -0.0130
  868MOL0     O14468   6.071   5.220   6.539 -0.0233  0.5223  0.8067
  868MOL0     C14469   6.009   5.211   6.660  0.4133  0.4954 -0.2539
  868MOL0     C14470   6.012   5.315   6.761  0.2147  0.2757 -0.0949
  868MOL0     C14471   5.940   5.301   6.886 -1.6691 -0.2896  0.0124
  868MOL0     C14472   5.852   5.194   6.899 -0.0019  0.1126 -0.2264
  868MOL0     C14473   5.766   5.177   7.012 -0.0775  0.2343  0.4003
  868MOL0     O14474   5.723   5.300   7.061 -1.1124 -0.0408  0.8162
  868MOL0     C14475   5.627   5.293   7.150 -0.2087 -1.2005  1.6195
  868MOL0     C14476   5.647   5.239   7.279  0.3295 -0.5141  0.6560
  868MOL0     C14477   5.537   5.226   7.366 -0.0606 -0.3461 -0.3319
  868MOL0     C14478   5.407   5.268   7.324 -0.4437 -0.5265  0.3580
  868MOL0     O14479   5.297   5.279   7.403  0.3842  0.2188  0.5706
  868MOL0     C14480   5.269   5.183   7.503  0.6407  0.5459 -0.5888
  868MOL0     C14481   5.219   5.053   7.450  0.1354  0.2717  0.3935
  868MOL0     C14482   5.088   5.074   7.366  0.3723  0.1248  0.0723
  868MOL0     C14483   5.019   4.957   7.310  1.2443 -0.2767  0.4497
  868MOL0     C14484   4.978   4.838   7.409 -1.1634 -0.2925 -0.1085
  868MOL0     C14485   4.873   4.759   7.327 -0.5990  0.5773  0.2204
  868MOL0     C14486   4.865   4.616   7.377 -0.3203 -0.2235 -0.3360
  868MOL0     C14487   4.727   4.551   7.353  0.2660  0.6149 -0.0355
  868MOL0    Cl14488   4.681   4.450   7.497 -0.0866 -0.0095  0.1890
  868MOL0     C14489   5.393   5.326   7.199  0.1601 -0.3166 -0.1612
  868MOL0     C14490   5.499   5.336   7.116 -0.0536  0.0365 -0.3186
  868MOL0     O14491   5.744   5.067   7.055 -0.2272 -0.2556  0.3222
  868MOL0     C14492   5.858   5.085   6.809 -0.8447 -1.7885  0.2171
  868MOL0     C14493   5.934   5.100   6.691  0.1116 -0.6315  0.3218
  868MOL0     N14494   6.078   5.759   6.203  0.1223  0.6605 -0.3868
  868MOL0     N14495   6.063   5.866   6.138 -0.3050 -0.3508 -0.0509
  868MOL0     C14496   4.961   6.284   6.167 -0.1061  0.4747 -0.0708
  868MOL0     C14497   4.828   6.253   6.192  0.5582 -0.6055 -1.0233
  868MOL0     C14498   4.381   6.263   6.169 -0.4190 -0.5511  0.2964
  868MOL0     C14499   4.263   6.326   6.125 -0.6155 -0.6584  0.0835
  868MOL0     C14500   4.149   6.313   6.197  0.5215 -0.1490  0.0601
  868MOL0     C14501   4.135   6.229   6.315 -1.1308 -0.5320  0.8153
  868MOL0     O14502   4.010   6.231   6.364 -0.2327 -0.7689  0.3490
  868MOL0     C14503   3.998   6.181   6.489  0.3067 -0.1920 -0.5600
  868MOL0     C14504   3.850   6.224   6.519 -0.4699 -0.7658  0.1203
  868MOL0     C14505   3.752   6.128   6.452 -0.8834 -1.2705  0.1357
  868MOL0     C14506   3.615   6.198   6.465 -0.1279 -0.8076  0.3322
  868MOL0     C14507   3.545   6.125   6.571  0.2242  0.5021 -1.2595
  868MOL0     C14508   3.492   6.045   6.650 -0.1317  0.5101  0.6758
  868MOL0     C14509   4.255   6.160   6.347  1.0042 -0.4980 -0.6539
  868MOL0     C14510   4.374   6.183   6.284  1.1097  0.0093  0.6539
  868MOL0     H14511   4.700   6.244   5.878  1.2721 -2.3514 -1.7143
  868MOL0     H14512   4.938   6.267   5.819  1.5068  0.8404  0.2458
  868MOL0     H14513   5.224   6.223   6.155  1.4339 -0.0514 -0.2238
  868MOL0     H14514   5.211   6.392   6.161 -2.5610 -2.0874  1.3847
  868MOL0     H14515   5.440   6.291   6.122  1.5165  0.3027  0.1560
  868MOL0     H14516   5.392   6.376   5.968  0.5770  0.1276  0.2134
  868MOL0     H14517   5.313   6.160   5.887  0.5072  0.7966  0.4413
  868MOL0     H14518   5.354   6.083   6.029 -0.1247  1.2491  1.6198
  868MOL0     H14519   5.508   6.045   5.854  1.5128 -0.5947  1.5529
  868MOL0     H14520   5.575   6.213   5.860  0.9499  1.7513  1.6702
  868MOL0     H14521   5.575   5.990   6.072 -1.3063  0.0083 -0.4794
  868MOL0     H14522   5.594   6.157   6.115  2.1015  2.4663 -0.1752
  868MOL0     H14523   5.796   6.042   6.112 -1.1956 -3.8162 -0.6389
  868MOL0     H14524   5.792   6.173   5.984 -1.0873  0.6112  0.7418
  868MOL0     H14525   5.732   5.881   5.930  1.8966 -0.7861  2.0130
  868MOL0     H14526   5.770   6.007   5.815  1.9125  1.4712 -0.2213
  868MOL0     H14527   5.998   6.034   5.922 -0.3373  0.5643 -1.1347
  868MOL0     H14528   5.978   5.884   5.830 -2.1597  1.0344 -0.9426
  868MOL0     H14529   5.832   5.693   5.986  0.6940  1.5263 -1.3283
  868MOL0     H14530   5.896   5.481   6.133 -2.2704  1.3489  0.2774
  868MOL0     H14531   5.879   5.549   6.300 -1.7810 -1.2436 -0.6007
  868MOL0     H14532   6.121   5.530   6.326  0.1140  0.2273  1.0624
  868MOL0     H14533   6.134   5.459   6.158 -2.1651  1.9624 -1.4627
  868MOL0     H14534   5.998   5.270   6.262  0.0887 -1.1826  1.3671
  868MOL0     H14535   6.175   5.276   6.300  0.2991 -1.8233 -0.7033
  868MOL0     H14536   5.938   5.375   6.473  0.9659  3.0810  0.3391
  868MOL0     H14537   6.098   5.429   6.506  2.3427 -1.7501  0.6409
  868MOL0     H14538   6.054   5.412   6.738  0.8210 -0.8345 -4.5496
  868MOL0     H14539   5.945   5.383   6.957  1.0381  0.8801 -1.3563
  868MOL0     H14540   5.746   5.208   7.311 -0.4263 -0.9676  2.7321
  868MOL0     H14541   5.544   5.206   7.472  3.0048 -0.2106 -0.4266
  868MOL0     H14542   5.186   5.226   7.561 -0.8177 -1.3753 -1.1183
  868MOL0     H14543   5.351   5.174   7.574  1.4848 -0.8456 -1.6870
  868MOL0     H14544   5.206   4.988   7.537  1.0109  0.2646  0.5241
  868MOL0     H14545   5.301   5.021   7.385  0.2197  2.4549 -0.6670
  868MOL0     H14546   5.106   5.150   7.288 -0.0296  0.1797  0.0327
  868MOL0     H14547   5.023   5.134   7.430  1.7405  2.4084 -0.5301
  868MOL0     H14548   4.926   4.991   7.263  1.1340  0.3749  1.1200
  868MOL0     H14549   5.085   4.916   7.233  0.3416  1.0961 -1.1338
  868MOL0     H14550   4.932   4.888   7.495  0.3526 -0.8268  1.0613
  868MOL0     H14551   5.069   4.783   7.432  0.7476  2.4610 -0.5175
  868MOL0     H14552   4.903   4.754   7.222 -1.9422  2.6250 -0.3273
  868MOL0     H14553   4.772   4.802   7.331 -1.2084 -0.6711  5.0489
  868MOL0     H14554   4.946   4.555   7.335  1.8898  1.5411  1.1390
  868MOL0     H14555   4.889   4.612   7.484  1.0025  0.9770 -0.5571
  868MOL0     H14556   4.730   4.479   7.270  2.6724  0.3819  0.1832
  868MOL0     H14557   4.653   4.629   7.336  0.3576  0.5816 -0.6267
  868MOL0     H14558   5.296   5.353   7.158 -0.3455 -0.6631  0.7606
  868MOL0     H14559   5.487   5.372   7.014  0.7850 -3.1043 -1.6607
  868MOL0     H14560   5.822   4.985   6.833 -0.4277 -2.4599 -1.7149
  868MOL0     H14561   5.946   5.016   6.623 -0.3749 -0.4149 -0.0398
  868MOL0     H14562   5.021   6.323   6.249 -0.8187  0.8491  0.2808
  868MOL0     H14563   4.791   6.241   6.294 -0.5623 -0.5251 -1.4083
  868MOL0     H14564   4.270   6.392   6.038  2.0436 -1.3159 -0.2973
  868MOL0     H14565   4.068   6.382   6.175  1.9083  0.9934 -1.6506
  868MOL0     H14566   4.069   6.221   6.561 -1.5231  0.6054  0.8808
  868MOL0     H14567   4.020   6.074   6.483  1.6949 -0.0632  1.3130
  868MOL0     H14568   3.837   6.232   6.627  1.2058  1.9111  0.2182
  868MOL0     H14569   3.839   6.325   6.480 -0.2295 -1.3115 -1.4401
  868MOL0     H14570   3.753   6.033   6.505 -3.2956 -0.8743  1.0064
  868MOL0     H14571   3.782   6.124   6.347  2.2861 -2.2914  0.9817
  868MOL0     H14572   3.624   6.305   6.487 -1.7099 -0.3974 -0.9008
  868MOL0     H14573   3.556   6.202   6.374  0.1000 -0.0422  0.2077
  868MOL0     H14574   3.458   5.974   6.722  1.4914 -1.4683 -0.3930
  868MOL0     H14575   4.242   6.098   6.435 -2.5204  1.5976  0.4894
  868MOL0     H14576   4.473   6.142   6.305  0.5390 -2.2729 -0.7437
  869MOL0     O14577   1.209   0.075   6.662  0.1270 -0.0343  0.2431
  869MOL0     C14578   1.260   0.185   6.671  0.1402 -0.8419  0.0700
  869MOL0     O14579   1.191   0.306   6.684 -0.8051 -0.4620  0.0259
  869MOL0     C14580   1.056   0.307   6.695  0.7850 -0.2421  0.5537
  869MOL0     C14581   0.965   0.252   6.601 -0.4412  1.2962 -0.6172
  869MOL0     C14582   0.831   0.275   6.607  0.1075 -0.8527 -0.0136
  869MOL0     C14583   0.775   0.358   6.704  0.0801  0.9428  0.2803
  869MOL0     O14584   0.641   0.358   6.725  0.6066  0.3653 -1.4411
  869MOL0     C14585   0.541   0.326   6.616  0.1885 -0.5057  0.8661
  869MOL0     C14586   0.396   0.346   6.668  1.3183 -0.7928 -0.1371
  869MOL0     C14587   0.301   0.316   6.554  0.2329 -0.6536 -0.5368
  869MOL0     C14588   0.158   0.322   6.602  0.3262  0.3410  0.3242
  869MOL0     C14589   0.058   0.280   6.499 -0.3876  0.0453  0.0356
  869MOL0     C14590  -0.088   0.330   6.525  1.0227  0.4996  0.0674
  869MOL0     C14591  -0.149   0.289   6.665 -0.4771  0.6151  0.3707
  869MOL0     C14592  -0.295   0.237   6.669 -0.4284  0.1463  0.3086
  869MOL0     N14593  -0.394   0.322   6.621  0.4397 -0.2806 -0.6360
  869MOL0     C14594  -0.423   0.442   6.683  0.0621 -0.3139  0.2210
  869MOL0     C14595  -0.535   0.483   6.616 -0.6103 -0.0615  0.3121
  869MOL0     C14596  -0.606   0.615   6.632 -0.2663  0.5393 -0.1428
  869MOL0     C14597  -0.738   0.619   6.556  0.0409 -0.8171 -0.2070
  869MOL0     C14598  -0.821   0.716   6.631 -0.0986 -0.6185 -0.4009
  869MOL0     C14599  -0.770   0.855   6.667  0.8565  0.2518  0.3774
  869MOL0     O14600  -0.769   0.939   6.555 -0.0021  0.1647 -0.0785
  869MOL0     C14601  -0.882   1.007   6.517 -0.1881 -0.7037 -0.6242
  869MOL0     C14602  -0.877   1.091   6.409 -1.1905  0.3668  0.5833
  869MOL0     C14603  -0.994   1.151   6.354 -1.1238  0.2508 -0.0592
  869MOL0     C14604  -1.121   1.127   6.419 -0.3312 -0.1960  0.3513
  869MOL0     C14605  -1.245   1.182   6.372  0.4942  0.0865 -0.9172
  869MOL0     O14606  -1.233   1.292   6.291  0.0794  0.0559  0.0702
  869MOL0     C14607  -1.363   1.331   6.248 -0.1526  0.2141  0.3210
  869MOL0     C14608  -1.428   1.260   6.153  0.1946  0.2485  0.0924
  869MOL0     C14609  -1.560   1.297   6.107 -0.7515 -0.7931  1.5373
  869MOL0     C14610  -1.618   1.409   6.170  0.1195  1.0479  0.4538
  869MOL0     O14611  -1.745   1.430   6.133  0.8902  0.2733 -0.1699
  869MOL0     C14612  -1.842   1.451   6.232 -0.1794 -1.1262 -0.0431
  869MOL0     C14613  -1.984   1.450   6.178 -0.3641  0.7811  0.1335
  869MOL0     C14614  -2.005   1.304   6.127 -0.8277  0.7113  0.2061
  869MOL0     C14615  -2.141   1.299   6.054 -0.1592 -0.0233  0.2624
  869MOL0     C14616  -2.166   1.154   6.018 -0.4822 -0.1982  0.8560
  869MOL0     C14617  -2.290   1.147   5.929  0.1335 -0.8355  0.3983
  869MOL0     C14618  -2.318   0.997   5.898 -0.3128 -0.0379  0.3570
  869MOL0     C14619  -2.380   0.920   6.010 -0.2396 -0.1911  0.1500
  869MOL0    Cl14620  -2.492   0.805   5.944 -0.1655 -0.2852 -0.6072
  869MOL0     C14621  -1.546   1.481   6.261 -0.1387 -0.1738 -0.5118
  869MOL0     C14622  -1.423   1.435   6.311  0.2872  0.4091  1.3384
  869MOL0     O14623  -1.345   1.131   6.420  0.3015 -0.4563  0.1037
  869MOL0     C14624  -1.121   1.050   6.540  0.3789  0.8194  0.6452
  869MOL0     C14625  -1.005   0.993   6.581  0.1971  0.3319 -0.3659
  869MOL0     N14626  -0.577   0.391   6.532  0.8058 -0.2682  0.6232
  869MOL0     N14627  -0.500   0.290   6.544  0.7472 -0.3183  0.8317
  869MOL0     C14628   0.856   0.396   6.808  0.4170  0.2272 -0.3709
  869MOL0     C14629   0.996   0.374   6.800 -0.2572 -0.4517  1.2677
  869MOL0     C14630   1.408   0.199   6.661 -0.2022  0.7223  1.5537
  869MOL0     C14631   1.465   0.329   6.638  0.3297  0.1619  0.1782
  869MOL0     C14632   1.603   0.341   6.643  0.3389  0.2583 -0.0052
  869MOL0     C14633   1.687   0.225   6.641 -0.2640 -0.0989  0.0787
  869MOL0     O14634   1.827   0.223   6.636  0.2849 -0.6350 -0.0514
  869MOL0     C14635   1.894   0.333   6.575  0.0719  0.5903  0.5820
  869MOL0     C14636   2.026   0.296   6.530  0.0404  0.3036  0.3407
  869MOL0     C14637   2.098   0.192   6.621  0.4667  0.3345 -0.5845
  869MOL0     C14638   2.245   0.156   6.589 -1.1158  0.7956 -0.0398
  869MOL0     C14639   2.247   0.070   6.474 -0.2176 -1.2796  0.4811
  869MOL0     C14640   2.245   0.005   6.377 -0.5275  0.6746  0.4937
  869MOL0     C14641   1.626   0.103   6.665  0.1487 -0.1709  1.0788
  869MOL0     C14642   1.491   0.080   6.675 -0.6784 -0.6244  0.1269
  869MOL0     H14643   0.999   0.186   6.522 -2.3293 -0.5024 -0.0157
  869MOL0     H14644   0.771   0.213   6.540 -1.6598  0.9161 -0.1654
  869MOL0     H14645   0.546   0.226   6.572 -2.9882  0.3489 -1.8305
  869MOL0     H14646   0.555   0.387   6.526  2.4528 -0.3078  1.2972
  869MOL0     H14647   0.390   0.452   6.693  1.9695 -1.0095  1.0061
  869MOL0     H14648   0.370   0.291   6.759 -1.1673 -4.1581 -2.6307
  869MOL0     H14649   0.321   0.216   6.516  0.9114 -0.5987 -0.3294
  869MOL0     H14650   0.320   0.395   6.480 -2.5193  0.9928  0.3457
  869MOL0     H14651   0.165   0.264   6.695 -0.3360  1.5462  1.1578
  869MOL0     H14652   0.128   0.420   6.641 -3.8471 -0.7902  0.4235
  869MOL0     H14653   0.059   0.171   6.490 -3.4627  0.0244 -1.2279
  869MOL0     H14654   0.085   0.319   6.400 -1.0265 -0.0657 -0.1863
  869MOL0     H14655  -0.156   0.309   6.441 -1.7583  2.1327  1.7394
  869MOL0     H14656  -0.085   0.439   6.530 -2.9052  0.7355  0.0156
  869MOL0     H14657  -0.079   0.224   6.717 -3.6359 -2.0318  1.6858
  869MOL0     H14658  -0.157   0.382   6.723  0.9667 -1.1494  3.6425
  869MOL0     H14659  -0.319   0.208   6.772 -2.5569  0.3452 -0.0862
  869MOL0     H14660  -0.293   0.148   6.605 -3.6264 -0.5123  0.9336
  869MOL0     H14661  -0.369   0.502   6.754 -0.7268  0.9537 -0.2152
  869MOL0     H14662  -0.537   0.692   6.596  1.6167 -1.5424 -1.2232
  869MOL0     H14663  -0.621   0.634   6.739  1.1435  3.8638 -0.4083
  869MOL0     H14664  -0.786   0.521   6.550  0.1428 -0.9077  0.4720
  869MOL0     H14665  -0.724   0.661   6.455 -0.0572 -0.2804 -0.0009
  869MOL0     H14666  -0.915   0.726   6.577  0.8048 -0.2931 -1.9874
  869MOL0     H14667  -0.845   0.668   6.727  5.2858 -2.0829  0.5434
  869MOL0     H14668  -0.674   0.848   6.718  0.5142 -0.5228  0.9432
  869MOL0     H14669  -0.832   0.890   6.751  0.0717 -0.0851 -0.0499
  869MOL0     H14670  -0.785   1.112   6.354 -2.0542  0.0128 -1.0690
  869MOL0     H14671  -0.972   1.213   6.267 -0.3246 -0.4921 -0.4095
  869MOL0     H14672  -1.389   1.169   6.108 -2.3377 -0.3190 -1.1295
  869MOL0     H14673  -1.622   1.228   6.051 -0.4089 -1.9961  2.5860
  869MOL0     H14674  -1.817   1.541   6.289 -2.6272  1.4536 -2.6753
  869MOL0     H14675  -1.843   1.376   6.311  1.7590  3.1031  4.5538
  869MOL0     H14676  -1.995   1.519   6.094 -0.1831  1.3334  0.5601
  869MOL0     H14677  -2.058   1.482   6.251 -0.6877 -0.6460  0.4707
  869MOL0     H14678  -2.006   1.236   6.213 -0.8958 -0.0879 -0.4105
  869MOL0     H14679  -1.922   1.273   6.062  1.0434  2.1365  1.8124
  869MOL0     H14680  -2.229   1.334   6.109 -2.1086 -0.9414 -2.1086
  869MOL0     H14681  -2.138   1.351   5.958 -4.7569 -0.2948 -0.2522
  869MOL0     H14682  -2.180   1.087   6.104 -2.2964 -1.9157 -0.6708
  869MOL0     H14683  -2.090   1.102   5.958  0.0485 -2.2661  3.1245
  869MOL0     H14684  -2.281   1.186   5.827 -1.5310 -2.2019 -0.3344
  869MOL0     H14685  -2.373   1.203   5.973  3.2372  0.5666  5.2640
  869MOL0     H14686  -2.379   1.002   5.808  1.5278  0.0465 -0.9318
  869MOL0     H14687  -2.222   0.950   5.874  0.8682  2.3835  0.0398
  869MOL0     H14688  -2.437   0.986   6.076  0.2725  1.0657 -0.6325
  869MOL0     H14689  -2.312   0.870   6.080  1.1768 -0.5400 -1.4183
  869MOL0     H14690  -1.584   1.572   6.307  0.1816  0.4986 -1.5354
  869MOL0     H14691  -1.355   1.475   6.385  1.1485 -0.4589  1.0369
  869MOL0     H14692  -1.210   1.037   6.601 -0.1868 -2.2226 -0.6815
  869MOL0     H14693  -1.014   0.934   6.672 -0.7241  1.6291  0.4152
  869MOL0     H14694   0.812   0.443   6.895  0.2072 -2.3233  0.9899
  869MOL0     H14695   1.060   0.417   6.875 -0.2416 -0.4156  1.2338
  869MOL0     H14696   1.408   0.421   6.634  0.7821  0.4591 -4.4352
  869MOL0     H14697   1.651   0.439   6.648  0.9701  0.1305 -2.3695
  869MOL0     H14698   1.899   0.408   6.655  0.4405 -1.7710  2.9286
  869MOL0     H14699   1.836   0.376   6.493 -0.3639  2.6644  1.9075
  869MOL0     H14700   2.022   0.257   6.427 -0.3991 -0.3096  0.5840
  869MOL0     H14701   2.095   0.381   6.522 -0.0869  0.3319 -0.7080
  869MOL0     H14702   2.046   0.096   6.631 -0.1558  0.9351  4.4742
  869MOL0     H14703   2.095   0.246   6.716 -0.0068  1.7541 -1.3855
  869MOL0     H14704   2.309   0.242   6.569 -0.4580  0.0523 -1.2278
  869MOL0     H14705   2.292   0.113   6.678 -1.0683 -1.8538 -1.2416
  869MOL0     H14706   2.234  -0.057   6.291  3.8043  1.1481 -0.6524
  869MOL0     H14707   1.690   0.015   6.672 -1.3188 -1.1683  2.5699
  869MOL0     H14708   1.455  -0.021   6.694 -1.0884 -0.2826  1.3006
  870MOL0     O14709  10.810   3.599   7.574 -0.4064 -0.2544 -0.2768
  870MOL0     C14710  10.738   3.571   7.480  0.5775  0.1023  0.2184
  870MOL0     O14711  10.754   3.606   7.345  0.1375 -0.2131  0.2181
  870MOL0     C14712  10.887   3.654   7.320  1.1587  0.7624  0.3398
  870MOL0     C14713  10.988   3.565   7.271  0.4868  0.7955 -0.0721
  870MOL0     C14714  11.123   3.606   7.248 -0.1004  0.1355  0.7536
  870MOL0     C14715  11.154   3.743   7.275  0.2362  0.2108  0.2703
  870MOL0     O14716  11.281   3.779   7.237 -0.3142  0.7642  0.0008
  870MOL0     C14717  11.396   3.701   7.270  0.6234 -0.2822 -0.1407
  870MOL0     C14718  11.507   3.793   7.313 -0.8426 -0.2381 -0.9229
  870MOL0     C14719  11.636   3.716   7.329 -0.4843  0.8415  0.4980
  870MOL0     C14720  11.766   3.799   7.296 -0.0486 -0.0554  1.0871
  870MOL0     C14721  11.796   3.799   7.141 -0.8396 -0.8680 -1.2623
  870MOL0     C14722  11.905   3.901   7.103 -0.6161 -0.3120 -0.5772
  870MOL0     C14723  12.044   3.869   7.158 -1.1547  1.0169  0.6792
  870MOL0     C14724  12.099   3.736   7.103 -0.4292  0.4249 -0.0580
  870MOL0     N14725  12.126   3.728   6.964 -0.0473 -0.4696  0.7752
  870MOL0     C14726  12.240   3.770   6.896  1.2637 -0.2066  0.2001
  870MOL0     C14727  12.228   3.704   6.778  0.2664 -0.0631 -0.6690
  870MOL0     C14728  12.313   3.719   6.656  0.0109 -0.5794  0.4060
  870MOL0     C14729  12.303   3.854   6.583  0.4186 -0.0596  0.0517
  870MOL0     C14730  12.169   3.910   6.554  0.7007  0.1641  0.4156
  870MOL0     C14731  12.076   3.819   6.474 -0.6018 -0.3196  0.1621
  870MOL0     O14732  11.944   3.872   6.452 -0.3880  0.5557  0.3209
  870MOL0     C14733  11.842   3.838   6.530 -0.4392  0.0341 -0.8834
  870MOL0     C14734  11.853   3.813   6.661 -0.6724  0.1186 -0.3226
  870MOL0     C14735  11.742   3.782   6.742 -0.0828  0.4365 -0.1264
  870MOL0     C14736  11.614   3.776   6.684  0.9134 -0.1876  0.9046
  870MOL0     C14737  11.495   3.736   6.766  0.5113 -0.3757  1.0076
  870MOL0     O14738  11.384   3.708   6.686  0.2508 -0.6618  0.3486
  870MOL0     C14739  11.277   3.637   6.733 -0.7446  0.1122  0.3772
  870MOL0     C14740  11.270   3.573   6.865  0.5786 -0.6914  0.4449
  870MOL0     C14741  11.162   3.493   6.901 -0.5600  0.0864  0.3354
  870MOL0     C14742  11.055   3.466   6.813 -0.0265 -0.1010  0.0570
  870MOL0     O14743  10.942   3.389   6.832 -0.6401  0.5159 -0.3703
  870MOL0     C14744  10.957   3.307   6.948 -0.1293  0.0627 -0.4252
  870MOL0     C14745  10.819   3.231   6.955  0.6041 -0.3432 -0.0375
  870MOL0     C14746  10.697   3.329   6.957 -0.3628  0.9726  0.4065
  870MOL0     C14747  10.578   3.262   7.034  0.0998  0.5033 -0.3518
  870MOL0     C14748  10.455   3.344   7.062  0.5613  0.4272 -0.4891
  870MOL0     C14749  10.337   3.263   7.105 -0.1583  0.2993  0.5092
  870MOL0     C14750  10.239   3.365   7.168  0.0117  0.1932  0.1392
  870MOL0     C14751  10.122   3.278   7.221  0.0260 -0.2975  0.7773
  870MOL0    Cl14752   9.994   3.241   7.093 -0.3934  0.0100  0.0881
  870MOL0     C14753  11.067   3.527   6.684 -0.4921 -0.3855 -0.0033
  870MOL0     C14754  11.175   3.613   6.640  0.3528  0.2879 -0.9765
  870MOL0     O14755  11.506   3.742   6.888 -0.0346  0.3504 -0.4169
  870MOL0     C14756  11.611   3.806   6.543  0.1037 -0.3268 -0.2108
  870MOL0     C14757  11.722   3.844   6.468 -0.7106  0.3267 -0.0006
  870MOL0     N14758  12.114   3.628   6.782 -0.2573 -0.0527  0.4203
  870MOL0     N14759  12.060   3.640   6.894 -0.2192 -0.1074  0.1471
  870MOL0     C14760  11.061   3.826   7.321  0.2513 -0.2131  0.9414
  870MOL0     C14761  10.928   3.782   7.345  0.0656 -0.2058  0.4271
  870MOL0     C14762  10.627   3.474   7.508  0.1035 -1.0054  0.2566
  870MOL0     C14763  10.561   3.484   7.626 -0.4760  0.1526  0.0089
  870MOL0     C14764  10.472   3.382   7.664  0.5092  0.2798  0.5156
  870MOL0     C14765  10.454   3.271   7.584 -0.1064  0.5415 -0.2690
  870MOL0     O14766  10.394   3.163   7.646  0.9512  0.0945  0.5367
  870MOL0     C14767  10.262   3.139   7.580  0.3081  0.0743 -0.0337
  870MOL0     C14768  10.171   3.083   7.690  0.4757  0.8951 -0.1474
  870MOL0     C14769  10.157   3.179   7.805 -0.0647 -0.3479  0.1469
  870MOL0     C14770  10.059   3.112   7.912  1.0469 -0.4527 -0.4452
  870MOL0     C14771   9.916   3.099   7.874  0.2269  0.4981  1.0550
  870MOL0     C14772   9.800   3.101   7.843 -0.6488 -0.5278 -0.0107
  870MOL0     C14773  10.510   3.270   7.456 -0.1581 -1.1854 -0.4326
  870MOL0     C14774  10.590   3.378   7.415  0.2548  0.6594  0.1220
  870MOL0     H14775  10.981   3.457   7.256  0.8864  0.2929  2.7933
  870MOL0     H14776  11.204   3.542   7.213 -0.1070 -0.0261  1.0315
  870MOL0     H14777  11.425   3.640   7.184  1.2245  1.8380 -1.5376
  870MOL0     H14778  11.371   3.627   7.347 -1.2421 -1.0218 -1.3749
  870MOL0     H14779  11.489   3.863   7.394 -0.0467 -0.8778 -0.1737
  870MOL0     H14780  11.529   3.863   7.231  0.0589 -1.2295 -1.5576
  870MOL0     H14781  11.643   3.624   7.271  1.4208  0.0994  1.8074
  870MOL0     H14782  11.642   3.684   7.433  0.4243 -1.1591 -0.1162
  870MOL0     H14783  11.755   3.904   7.325  0.0070  0.3449 -0.2521
  870MOL0     H14784  11.854   3.758   7.346  0.4447 -0.3454  0.0231
  870MOL0     H14785  11.705   3.837   7.093 -0.5024  1.9740  0.1319
  870MOL0     H14786  11.810   3.700   7.097  1.3509 -0.6732 -1.1082
  870MOL0     H14787  11.875   4.000   7.139 -3.5185 -0.7314 -1.5867
  870MOL0     H14788  11.914   3.903   6.994 -1.3491 -1.4227 -0.6739
  870MOL0     H14789  12.124   3.942   7.144 -0.3365  0.0576  0.2209
  870MOL0     H14790  12.028   3.854   7.266 -0.2295  0.0637  0.7025
  870MOL0     H14791  12.037   3.653   7.137 -2.0680  0.7739 -2.0092
  870MOL0     H14792  12.193   3.726   7.157  1.0180  4.4667 -1.4450
  870MOL0     H14793  12.305   3.849   6.935  0.4519 -0.9727  3.3864
  870MOL0     H14794  12.291   3.632   6.593 -1.2625 -0.0350  0.0628
  870MOL0     H14795  12.419   3.710   6.678  0.0844  0.5983  0.5903
  870MOL0     H14796  12.352   3.843   6.486  0.1279 -1.3765  0.0375
  870MOL0     H14797  12.369   3.922   6.638  2.3924 -1.4091 -0.5383
  870MOL0     H14798  12.120   3.927   6.650 -1.3404 -0.0536 -0.5363
  870MOL0     H14799  12.183   4.007   6.504 -1.9209 -0.0430 -0.8628
  870MOL0     H14800  12.068   3.722   6.524 -0.8617 -0.7695 -0.7163
  870MOL0     H14801  12.122   3.793   6.378  1.4094 -0.1369  1.0479
  870MOL0     H14802  11.942   3.823   6.722 -1.3839  0.4437  0.6890
  870MOL0     H14803  11.756   3.751   6.845 -1.8633 -1.3728 -0.3653
  870MOL0     H14804  11.351   3.584   6.936  0.3444  0.9570  0.5071
  870MOL0     H14805  11.169   3.450   7.000  0.4561 -0.2876  0.1031
  870MOL0     H14806  10.984   3.358   7.041  0.0285 -1.8703  0.6288
  870MOL0     H14807  11.039   3.238   6.929  0.3465  0.4314  0.2377
  870MOL0     H14808  10.811   3.179   7.051 -0.3131 -0.9391 -0.4263
  870MOL0     H14809  10.815   3.164   6.869  2.7544 -0.3739 -0.1560
  870MOL0     H14810  10.664   3.354   6.856 -0.6906  1.5025  0.6414
  870MOL0     H14811  10.728   3.420   7.009 -0.8410  1.5582 -0.3163
  870MOL0     H14812  10.545   3.174   6.977 -1.8896  0.4459  0.7975
  870MOL0     H14813  10.616   3.219   7.128 -0.2971 -0.4926 -0.6307
  870MOL0     H14814  10.423   3.401   6.974 -0.2398  1.9394  0.7258
  870MOL0     H14815  10.493   3.416   7.135  0.2950 -0.6415  0.7467
  870MOL0     H14816  10.378   3.201   7.184  2.9471  2.4629  0.7901
  870MOL0     H14817  10.287   3.212   7.022 -1.2015  0.6141  0.9244
  870MOL0     H14818  10.299   3.412   7.245  0.9205  1.2637 -1.1680
  870MOL0     H14819  10.209   3.446   7.101  1.3496 -1.7221 -3.0066
  870MOL0     H14820  10.067   3.323   7.304  2.9521 -0.1838  2.7999
  870MOL0     H14821  10.167   3.193   7.274  1.3229  0.8858  1.6461
  870MOL0     H14822  10.989   3.505   6.611 -3.1647 -1.3078  2.9161
  870MOL0     H14823  11.178   3.647   6.538 -2.4516 -1.2607 -1.7073
  870MOL0     H14824  11.508   3.802   6.507 -0.8348 -0.3843  2.2990
  870MOL0     H14825  11.704   3.863   6.362 -2.5038 -4.1272 -0.7443
  870MOL0     H14826  11.089   3.928   7.347 -2.2941  1.1064 -1.0896
  870MOL0     H14827  10.859   3.857   7.384 -0.1138 -0.9484  1.5958
  870MOL0     H14828  10.569   3.556   7.706 -0.4409  1.8568 -1.4537
  870MOL0     H14829  10.414   3.383   7.756  2.9448 -0.7521  2.1516
  870MOL0     H14830  10.272   3.082   7.488  1.9241 -0.3736  0.3852
  870MOL0     H14831  10.207   3.230   7.556  2.4541  1.6407  0.6193
  870MOL0     H14832  10.070   3.066   7.650 -1.1873 -0.2365  4.0504
  870MOL0     H14833  10.211   2.993   7.737  0.6041  1.5366  1.0127
  870MOL0     H14834  10.116   3.277   7.777 -0.9071 -0.5922  0.4916
  870MOL0     H14835  10.253   3.200   7.852 -0.0860  1.3876 -0.4924
  870MOL0     H14836  10.084   3.010   7.940 -1.6730 -0.8507  0.8819
  870MOL0     H14837  10.065   3.184   7.994 -1.6486 -0.9747  0.3099
  870MOL0     H14838   9.701   3.113   7.806  0.0296 -0.8949 -2.0991
  870MOL0     H14839  10.499   3.182   7.394 -1.0006 -1.0261 -0.5137
  870MOL0     H14840  10.637   3.374   7.318  2.4670 -0.7953  1.1929
  871MOL0     O14841   5.028   4.550   3.686  0.8755  0.5889 -0.3480
  871MOL0     C14842   4.998   4.427   3.686 -0.5440 -1.2429 -0.3166
  871MOL0     O14843   4.920   4.369   3.781 -0.3062  0.1156  0.7265
  871MOL0     C14844   4.864   4.444   3.882 -0.2537  0.2786  0.8625
  871MOL0     C14845   4.776   4.554   3.858  0.5871 -0.1490  0.0569
  871MOL0     C14846   4.739   4.640   3.963 -0.4949  0.1189 -0.0622
  871MOL0     C14847   4.766   4.608   4.094  0.3784  0.4993 -0.6334
  871MOL0     O14848   4.700   4.676   4.190 -0.6139 -0.4567  0.5154
  871MOL0     C14849   4.779   4.689   4.311  0.2006  1.1068 -0.1798
  871MOL0     C14850   4.703   4.780   4.400 -0.0122 -0.0914  0.3699
  871MOL0     C14851   4.651   4.904   4.333 -0.1940 -0.0414  0.1468
  871MOL0     C14852   4.764   4.980   4.262  0.1781  0.3271 -0.1488
  871MOL0     C14853   4.701   5.091   4.177 -0.1492 -0.0245 -0.0926
  871MOL0     C14854   4.789   5.185   4.097  0.0840  0.0278  0.1114
  871MOL0     C14855   4.929   5.221   4.143  0.4669 -0.2510  0.2676
  871MOL0     C14856   4.963   5.368   4.103 -0.1967 -0.2806 -0.3241
  871MOL0     N14857   4.953   5.391   3.962  0.2131 -0.0134  0.1541
  871MOL0     C14858   5.053   5.351   3.879 -0.2925  0.1638  0.2532
  871MOL0     C14859   5.036   5.436   3.772 -0.2312  1.2310  0.6848
  871MOL0     C14860   5.125   5.445   3.654 -0.2325  0.0291  0.1176
  871MOL0     C14861   5.258   5.511   3.706  0.8320  0.1220 -0.0657
  871MOL0     C14862   5.233   5.661   3.738 -0.4911 -0.5528  0.0107
  871MOL0     C14863   5.359   5.730   3.799  0.2459  0.1345 -0.3151
  871MOL0     O14864   5.391   5.658   3.923  0.8161  0.2523  0.2532
  871MOL0     C14865   5.507   5.599   3.930 -0.6548  0.3447 -0.1774
  871MOL0     C14866   5.523   5.490   4.018 -0.0998 -0.6034  0.1402
  871MOL0     C14867   5.646   5.435   4.039  0.5876 -0.0789  0.1385
  871MOL0     C14868   5.761   5.486   3.983 -0.2656 -0.1842 -0.5372
  871MOL0     C14869   5.884   5.428   4.011  0.9284  0.6462  0.7669
  871MOL0     O14870   5.997   5.486   3.959  0.8074  0.1371  0.3236
  871MOL0     C14871   6.105   5.404   3.962  0.1347  1.0046 -0.0955
  871MOL0     C14872   6.211   5.430   4.052 -0.6854 -0.6243 -0.2633
  871MOL0     C14873   6.334   5.368   4.048  0.2823  0.4751 -0.3004
  871MOL0     C14874   6.343   5.256   3.968 -0.4579  0.2376  0.4742
  871MOL0     O14875   6.449   5.169   3.967  0.3661 -0.3667  0.5525
  871MOL0     C14876   6.536   5.151   4.080  0.3356 -0.6274  0.5915
  871MOL0     C14877   6.543   4.999   4.092  0.5295 -0.1356 -0.0716
  871MOL0     C14878   6.636   4.957   4.203 -0.2059 -0.3673  0.9572
  871MOL0     C14879   6.589   4.985   4.351  0.7583 -0.4296 -0.6040
  871MOL0     C14880   6.688   4.925   4.444  0.4007  0.2531 -0.1333
  871MOL0     C14881   6.805   5.019   4.480 -0.2627 -0.6039 -0.7658
  871MOL0     C14882   6.887   4.963   4.596 -0.5782  0.2332  0.5663
  871MOL0     C14883   7.009   5.058   4.616  0.4475 -0.1869  0.6863
  871MOL0    Cl14884   7.130   4.970   4.716  0.3734  0.3464 -0.0950
  871MOL0     C14885   6.245   5.222   3.874  0.4770 -0.1370  0.3592
  871MOL0     C14886   6.120   5.295   3.876  0.1097 -0.0038  0.4466
  871MOL0     O14887   5.879   5.320   4.078 -0.5475  0.0592 -0.5919
  871MOL0     C14888   5.747   5.587   3.892  0.2400 -0.0778  0.4289
  871MOL0     C14889   5.627   5.648   3.870 -0.1364  0.0943  0.7896
  871MOL0     N14890   4.922   5.498   3.786  0.1889  0.3013  0.1924
  871MOL0     N14891   4.868   5.479   3.902 -0.0326  0.5332  0.6801
  871MOL0     C14892   4.843   4.489   4.119  0.2321  0.1983 -0.8012
  871MOL0     C14893   4.898   4.418   4.019  0.2181  0.6428 -0.0075
  871MOL0     C14894   5.043   4.330   3.587  0.2049 -0.7323  0.5635
  871MOL0     C14895   5.156   4.353   3.512  0.0769 -0.4641 -0.0349
  871MOL0     C14896   5.182   4.258   3.406  0.2999 -0.0755 -0.2250
  871MOL0     C14897   5.108   4.139   3.386 -0.7944 -0.7093 -0.8391
  871MOL0     O14898   5.161   4.053   3.289  0.1366  0.3451 -0.6848
  871MOL0     C14899   5.092   3.933   3.267  0.4962  0.1669  0.0896
  871MOL0     C14900   5.031   3.950   3.113  0.4368  0.1142 -0.7849
  871MOL0     C14901   4.981   3.815   3.073 -0.7287  0.4808 -0.1515
  871MOL0     C14902   4.970   3.809   2.918  0.6022 -0.6175  0.6839
  871MOL0     C14903   4.857   3.712   2.884  0.6746 -0.3157 -0.4001
  871MOL0     C14904   4.769   3.640   2.845 -0.0912  0.2738  0.3262
  871MOL0     C14905   4.980   4.132   3.455 -0.0987  0.1199 -0.2199
  871MOL0     C14906   4.952   4.225   3.547  0.2686 -0.5093 -0.8143
  871MOL0     H14907   4.750   4.582   3.756 -1.6215  2.2536  1.1311
  871MOL0     H14908   4.671   4.724   3.952 -0.6210  0.2260  1.3587
  871MOL0     H14909   4.881   4.725   4.294  2.5607 -3.0676  3.2794
  871MOL0     H14910   4.791   4.596   4.366  0.1094  1.1985 -0.0031
  871MOL0     H14911   4.766   4.801   4.487  1.5301 -1.1181 -0.4788
  871MOL0     H14912   4.612   4.723   4.420 -0.4816  0.6203  0.3298
  871MOL0     H14913   4.609   4.972   4.408  0.8001 -0.1220  0.7926
  871MOL0     H14914   4.574   4.870   4.262  0.5995 -2.7865  0.4948
  871MOL0     H14915   4.837   5.013   4.337  0.7276 -1.7821  0.3240
  871MOL0     H14916   4.822   4.907   4.204  1.2855  2.0437 -1.2911
  871MOL0     H14917   4.640   5.150   4.246  1.3717 -1.9357  3.1156
  871MOL0     H14918   4.639   5.058   4.094 -3.4533  2.9364  0.9394
  871MOL0     H14919   4.735   5.277   4.076 -1.8022 -0.7697  1.1722
  871MOL0     H14920   4.786   5.129   4.003  0.4224 -0.2661  0.2721
  871MOL0     H14921   4.933   5.222   4.252 -0.9366  0.1770  0.3306
  871MOL0     H14922   5.005   5.149   4.111 -2.6928 -3.1100 -1.4999
  871MOL0     H14923   5.059   5.401   4.144 -0.5418  0.0612  0.2239
  871MOL0     H14924   4.889   5.437   4.144 -0.6936 -0.6356 -0.6157
  871MOL0     H14925   5.132   5.282   3.909  0.9584  1.6975  0.6051
  871MOL0     H14926   5.079   5.500   3.571 -2.4648 -3.1283 -0.9519
  871MOL0     H14927   5.148   5.341   3.628  0.8151 -0.3119  2.2162
  871MOL0     H14928   5.325   5.497   3.620 -1.4103  2.3327 -2.3399
  871MOL0     H14929   5.288   5.458   3.797 -1.3358 -0.9665  0.0666
  871MOL0     H14930   5.214   5.707   3.641  2.6727 -0.1402 -0.5181
  871MOL0     H14931   5.154   5.675   3.813 -0.7664 -1.0468 -0.1785
  871MOL0     H14932   5.342   5.835   3.828 -1.3346 -0.3831  0.7399
  871MOL0     H14933   5.440   5.716   3.726 -0.6526 -1.2671 -1.0785
  871MOL0     H14934   5.434   5.452   4.066  0.7571 -1.8850  0.7749
  871MOL0     H14935   5.652   5.365   4.122  1.1783  1.8827  1.8488
  871MOL0     H14936   6.212   5.526   4.103 -1.9240  0.1201 -1.5522
  871MOL0     H14937   6.424   5.400   4.099  1.5310 -0.2164 -1.9803
  871MOL0     H14938   6.512   5.204   4.172  1.4173  1.4890 -0.2857
  871MOL0     H14939   6.632   5.184   4.040  1.3112 -2.1735  1.5650
  871MOL0     H14940   6.587   4.945   4.008  0.0197  0.6478 -0.8507
  871MOL0     H14941   6.440   4.963   4.104  0.6924 -0.7921 -0.5671
  871MOL0     H14942   6.734   4.997   4.178 -0.0773 -0.8360  0.7095
  871MOL0     H14943   6.643   4.850   4.181 -2.3133 -0.2442 -0.6577
  871MOL0     H14944   6.581   5.091   4.377 -1.0442  0.1887 -3.2936
  871MOL0     H14945   6.498   4.927   4.367  0.6234 -0.3054 -0.9267
  871MOL0     H14946   6.738   4.837   4.401 -0.1120  0.6688 -1.6469
  871MOL0     H14947   6.631   4.901   4.534 -0.9919  0.9676 -0.7954
  871MOL0     H14948   6.766   5.117   4.511  4.0980  1.8761 -2.2987
  871MOL0     H14949   6.866   5.040   4.392  1.2079  1.8807  0.7197
  871MOL0     H14950   6.830   4.966   4.689  3.1151  1.2307  3.0526
  871MOL0     H14951   6.921   4.860   4.587 -2.1032 -0.2662  0.3326
  871MOL0     H14952   6.975   5.142   4.676  0.4113 -0.7933  1.5294
  871MOL0     H14953   7.052   5.085   4.519 -0.3424 -4.0407 -0.9075
  871MOL0     H14954   6.266   5.143   3.802  2.3038 -1.2411  2.0088
  871MOL0     H14955   6.061   5.256   3.793 -0.0301  1.1903 -0.0435
  871MOL0     H14956   5.832   5.628   3.838  1.1928  0.0063  1.9211
  871MOL0     H14957   5.633   5.727   3.795  1.1212 -1.8706 -1.3322
  871MOL0     H14958   4.866   4.449   4.217  2.3507 -1.9897 -2.1098
  871MOL0     H14959   4.966   4.336   4.038 -0.7146 -0.3809 -0.9923
  871MOL0     H14960   5.216   4.438   3.543  1.7179 -2.1355  1.6402
  871MOL0     H14961   5.277   4.269   3.356 -0.1080  2.4047 -0.5883
  871MOL0     H14962   5.017   3.918   3.345  1.0042 -0.5682  0.4472
  871MOL0     H14963   5.165   3.853   3.280 -0.0315  0.0764  3.0832
  871MOL0     H14964   4.953   4.027   3.111  0.4249  0.0838 -2.1496
  871MOL0     H14965   5.113   3.978   3.046  0.8645 -0.7273 -0.6252
  871MOL0     H14966   4.882   3.806   3.120 -2.7295  2.5579 -3.5596
  871MOL0     H14967   5.054   3.738   3.100  2.4315  3.3247  0.0518
  871MOL0     H14968   4.964   3.905   2.865  1.0424 -0.0055  1.7040
  871MOL0     H14969   5.063   3.772   2.877 -0.4258  1.1342 -3.7651
  871MOL0     H14970   4.703   3.563   2.810  0.2688  0.4313 -0.7437
  871MOL0     H14971   4.900   4.061   3.441  0.3257 -0.2159 -0.9953
  871MOL0     H14972   4.862   4.207   3.604  1.1126  1.0792  1.1611
  872MOL0     O14973   7.712   1.730   2.457 -0.3668  1.0461 -0.3778
  872MOL0     C14974   7.802   1.698   2.379  0.7496  0.6632 -0.4897
  872MOL0     O14975   7.797   1.587   2.302 -0.4613  0.0189  0.1002
  872MOL0     C14976   7.681   1.504   2.293  0.2837 -0.7085  0.2068
  872MOL0     C14977   7.570   1.540   2.211 -0.1457 -0.0396 -0.4044
  872MOL0     C14978   7.453   1.461   2.223 -0.1450 -0.7787 -0.0027
  872MOL0     C14979   7.450   1.358   2.315 -0.5996 -0.2236 -0.4333
  872MOL0     O14980   7.340   1.275   2.343  0.1524  0.2178 -0.3664
  872MOL0     C14981   7.231   1.265   2.255 -0.4053  0.4241  1.4473
  872MOL0     C14982   7.124   1.366   2.299 -0.3314  0.1233 -0.1416
  872MOL0     C14983   6.993   1.358   2.209 -0.1260 -0.2467  0.3487
  872MOL0     C14984   6.916   1.234   2.231  0.8237  0.6334 -0.1914
  872MOL0     C14985   6.775   1.241   2.155  0.9349  0.2959  0.3335
  872MOL0     C14986   6.673   1.335   2.199  0.3119 -0.8330 -0.2870
  872MOL0     C14987   6.596   1.282   2.321  1.1892 -1.0189  0.2697
  872MOL0     C14988   6.453   1.277   2.291  0.2015 -0.1884  0.4604
  872MOL0     N14989   6.430   1.161   2.207  1.0058  0.1119  0.4694
  872MOL0     C14990   6.398   1.174   2.074 -0.2507  0.8295 -0.0353
  872MOL0     C14991   6.385   1.043   2.038 -0.3934 -0.7617  0.3027
  872MOL0     C14992   6.358   0.997   1.899  0.0148  0.3089 -0.0978
  872MOL0     C14993   6.231   1.055   1.846 -0.2509 -0.0371 -0.3948
  872MOL0     C14994   6.187   0.983   1.723 -0.3366 -1.0724  1.0272
  872MOL0     C14995   6.036   0.990   1.702  0.0596  1.3754 -0.0152
  872MOL0     O14996   5.983   0.933   1.581 -0.7342 -0.1602 -0.6096
  872MOL0     C14997   5.853   0.926   1.551  0.0726  0.1651 -0.7491
  872MOL0     C14998   5.756   0.937   1.650  1.3482 -0.2292  0.0270
  872MOL0     C14999   5.621   0.946   1.617  0.5272 -0.5167  0.3828
  872MOL0     C15000   5.576   0.911   1.483 -0.1405  0.1171 -0.1194
  872MOL0     C15001   5.441   0.914   1.435 -0.0535 -0.0987 -0.0592
  872MOL0     O15002   5.346   0.907   1.530  0.2909  0.5688 -0.0491
  872MOL0     C15003   5.214   0.911   1.507 -0.6799 -0.6885  0.0266
  872MOL0     C15004   5.150   0.890   1.380 -0.3622 -0.6787  0.5578
  872MOL0     C15005   5.013   0.933   1.371 -0.5459  0.3170  0.4596
  872MOL0     C15006   4.940   0.977   1.481 -0.8781  0.1101  1.0775
  872MOL0     O15007   4.805   1.002   1.452 -0.5395  0.0984  0.0372
  872MOL0     C15008   4.730   1.056   1.564  0.3950 -0.1880  0.0115
  872MOL0     C15009   4.586   1.107   1.541  0.7975 -0.3285 -0.5531
  872MOL0     C15010   4.484   1.012   1.469  0.1802 -0.6239  0.5325
  872MOL0     C15011   4.349   1.077   1.426 -0.6123  0.5576 -0.9967
  872MOL0     C15012   4.241   0.973   1.400  0.6062  0.5999  0.0490
  872MOL0     C15013   4.110   1.027   1.348  0.8438  0.9701  0.4924
  872MOL0     C15014   4.040   1.128   1.444 -0.7794 -1.0112 -0.1183
  872MOL0     C15015   3.903   1.179   1.392  0.3319  0.8398 -0.9737
  872MOL0    Cl15016   3.781   1.043   1.403  0.4409 -0.5228 -0.0274
  872MOL0     C15017   5.000   0.978   1.604  0.9033 -0.0243 -0.7158
  872MOL0     C15018   5.134   0.942   1.622  0.6758  0.3411  0.4224
  872MOL0     O15019   5.429   0.921   1.309 -0.3785  0.5315  0.3596
  872MOL0     C15020   5.679   0.878   1.394  0.7934 -0.4047  0.5985
  872MOL0     C15021   5.813   0.892   1.429  0.1002  1.0343 -0.8408
  872MOL0     N15022   6.396   0.963   2.148 -0.6259  0.0419 -0.3327
  872MOL0     N15023   6.433   1.033   2.246  0.0929  0.3572  0.4665
  872MOL0     C15024   7.570   1.319   2.383  0.4995  0.2844  0.5719
  872MOL0     C15025   7.682   1.389   2.366 -1.0447  0.9471 -0.7272
  872MOL0     C15026   7.923   1.790   2.369  0.6483  1.0290  0.2629
  872MOL0     C15027   7.986   1.803   2.247  0.7475 -0.4408  0.1808
  872MOL0     C15028   8.093   1.892   2.237  0.0956  0.5372 -0.6745
  872MOL0     C15029   8.137   1.968   2.346  0.1315  0.4914  0.0963
  872MOL0     O15030   8.240   2.059   2.352  0.1012  0.2544 -0.8121
  872MOL0     C15031   8.309   2.104   2.238  1.0923  0.0459 -0.0574
  872MOL0     C15032   8.397   2.223   2.282 -0.4475  0.0465  0.5532
  872MOL0     C15033   8.482   2.268   2.160 -0.2500 -0.2579  1.2285
  872MOL0     C15034   8.573   2.383   2.196  0.1968  0.2027 -0.1470
  872MOL0     C15035   8.486   2.508   2.201  0.1539 -0.5360 -0.2028
  872MOL0     C15036   8.408   2.595   2.215  0.4869 -0.3667  0.2917
  872MOL0     C15037   8.076   1.947   2.470  0.0682 -0.2625  0.2829
  872MOL0     C15038   7.972   1.856   2.483  0.0148  0.2285  0.5683
  872MOL0     H15039   7.569   1.624   2.144 -0.2771 -1.4648 -2.2647
  872MOL0     H15040   7.366   1.500   2.172 -1.4128  0.5087  2.8980
  872MOL0     H15041   7.188   1.164   2.256 -0.1180  0.1381 -2.2120
  872MOL0     H15042   7.255   1.276   2.149  0.1041 -2.1735  1.2106
  872MOL0     H15043   7.171   1.465   2.303 -0.0676 -0.0291  0.5938
  872MOL0     H15044   7.104   1.336   2.402 -5.6402 -0.1120 -0.9961
  872MOL0     H15045   7.017   1.375   2.104  0.4961  1.9335  0.7826
  872MOL0     H15046   6.942   1.442   2.257 -0.4673 -0.8166  0.9981
  872MOL0     H15047   6.959   1.157   2.166  1.4151 -0.0143  0.9396
  872MOL0     H15048   6.909   1.193   2.332  1.6494  0.8118 -0.0535
  872MOL0     H15049   6.725   1.145   2.170 -1.6187  1.5262  0.2512
  872MOL0     H15050   6.798   1.258   2.049 -1.3928 -1.3900 -0.5317
  872MOL0     H15051   6.611   1.350   2.111  2.5324 -1.9572 -2.1577
  872MOL0     H15052   6.719   1.432   2.223  0.5884 -1.1194  0.3723
  872MOL0     H15053   6.624   1.181   2.354  1.0163 -0.8279  1.0361
  872MOL0     H15054   6.597   1.363   2.395  0.6023  1.6922 -2.5072
  872MOL0     H15055   6.423   1.374   2.251  2.7570  0.9979  1.2191
  872MOL0     H15056   6.400   1.261   2.385  1.0583 -1.8579  0.6857
  872MOL0     H15057   6.401   1.266   2.017 -0.8813  0.1051 -1.2827
  872MOL0     H15058   6.357   0.888   1.910  1.5752  0.2254 -0.4475
  872MOL0     H15059   6.438   1.026   1.830 -1.2260  0.6187 -1.4432
  872MOL0     H15060   6.261   1.159   1.826 -0.1307  0.6624  2.8379
  872MOL0     H15061   6.154   1.047   1.923  2.6146 -1.1927  2.6093
  872MOL0     H15062   6.238   1.021   1.634 -1.2294 -1.6721  0.2380
  872MOL0     H15063   6.206   0.876   1.736 -0.9521 -1.9867 -3.8688
  872MOL0     H15064   5.980   1.084   1.710 -3.8142 -0.4677 -2.5308
  872MOL0     H15065   5.999   0.932   1.787  2.0385 -2.4656 -1.5316
  872MOL0     H15066   5.774   0.932   1.757  3.3540  4.7958  0.2399
  872MOL0     H15067   5.545   0.972   1.690 -0.0113 -0.6092 -0.1306
  872MOL0     H15068   5.199   0.861   1.288 -1.8907 -1.0979 -0.1518
  872MOL0     H15069   4.973   0.928   1.270 -1.2003  4.0827  0.3824
  872MOL0     H15070   4.789   1.129   1.621  0.9056 -1.6188  1.3722
  872MOL0     H15071   4.710   0.975   1.634  0.3537  0.5895  0.9171
  872MOL0     H15072   4.593   1.206   1.494  2.8626 -0.1391  0.0568
  872MOL0     H15073   4.547   1.124   1.642  0.7737  1.8933 -0.8801
  872MOL0     H15074   4.464   0.930   1.538 -2.0526 -0.6927 -0.1184
  872MOL0     H15075   4.525   0.975   1.375  2.0148 -1.1751  1.5036
  872MOL0     H15076   4.316   1.140   1.509  2.0519 -1.9130  2.1833
  872MOL0     H15077   4.368   1.138   1.337  1.4849 -1.5432 -2.1124
  872MOL0     H15078   4.223   0.919   1.493 -0.1577  2.3360  0.9579
  872MOL0     H15079   4.270   0.894   1.330  0.7362  2.3602 -1.9826
  872MOL0     H15080   4.044   0.941   1.337 -0.1537  1.8438 -0.5417
  872MOL0     H15081   4.124   1.065   1.246 -0.1948 -1.1202 -0.4804
  872MOL0     H15082   4.038   1.091   1.547 -1.1104  0.0879  0.2883
  872MOL0     H15083   4.096   1.222   1.436 -1.7981 -0.4576 -1.0190
  872MOL0     H15084   3.911   1.235   1.298  2.5127  0.7087 -0.9191
  872MOL0     H15085   3.867   1.257   1.459 -0.2706 -2.8041  3.4586
  872MOL0     H15086   4.940   1.013   1.688  0.2901  0.0894 -1.1915
  872MOL0     H15087   5.188   0.949   1.716 -0.0220  1.8960  0.7379
  872MOL0     H15088   5.651   0.841   1.295  2.3837 -0.3384  0.0974
  872MOL0     H15089   5.876   0.889   1.341 -1.6205 -0.6357 -2.0824
  872MOL0     H15090   7.567   1.238   2.456 -0.0877  0.7010  1.0242
  872MOL0     H15091   7.771   1.366   2.424 -2.5001  1.1549  1.7558
  872MOL0     H15092   7.950   1.752   2.159  1.3265  1.5534 -1.2874
  872MOL0     H15093   8.142   1.905   2.141 -0.9160 -1.6886 -1.5608
  872MOL0     H15094   8.237   2.135   2.162  1.5026 -0.7014 -0.7647
  872MOL0     H15095   8.371   2.027   2.193 -0.0759 -1.1015  0.2315
  872MOL0     H15096   8.348   2.303   2.338  1.9836 -0.0273  3.0078
  872MOL0     H15097   8.463   2.169   2.351  1.2302 -0.9298 -1.7087
  872MOL0     H15098   8.419   2.298   2.076 -0.2129 -0.3533  1.1666
  872MOL0     H15099   8.541   2.184   2.122 -0.1562 -0.4617  1.8135
  872MOL0     H15100   8.618   2.370   2.294  0.1071 -3.5157 -0.4653
  872MOL0     H15101   8.644   2.394   2.113  1.2887 -2.0288  0.4158
  872MOL0     H15102   8.339   2.677   2.212  2.6338  1.5624  0.1144
  872MOL0     H15103   8.127   1.977   2.561  0.1511 -3.5418  1.4720
  872MOL0     H15104   7.931   1.838   2.582  0.4141  2.3907  1.1825
  873MOL0     O15105   1.572   2.469   4.072 -0.5990  0.6851 -0.7431
  873MOL0     C15106   1.652   2.526   4.142  0.4811 -0.3250  0.4373
  873MOL0     O15107   1.665   2.504   4.278  0.2253 -0.7058 -0.7024
  873MOL0     C15108   1.585   2.400   4.325  0.5601 -0.5282 -0.6562
  873MOL0     C15109   1.444   2.407   4.342 -0.2300 -0.0517 -0.1036
  873MOL0     C15110   1.366   2.301   4.387  0.2102 -0.0192 -0.2810
  873MOL0     C15111   1.436   2.185   4.433  0.0688  0.2852 -0.4624
  873MOL0     O15112   1.366   2.080   4.481 -0.5241 -0.2821  0.1216
  873MOL0     C15113   1.445   1.973   4.547  0.6570  0.6918  0.1478
  873MOL0     C15114   1.337   1.906   4.643 -0.5393 -0.1899  0.3323
  873MOL0     C15115   1.259   1.808   4.560  0.4481  0.2588 -0.2291
  873MOL0     C15116   1.129   1.770   4.630  0.4966  0.2481 -0.3914
  873MOL0     C15117   1.046   1.653   4.561  0.0465 -0.2113 -0.1187
  873MOL0     C15118   1.002   1.676   4.417  0.2732 -0.8448 -0.2854
  873MOL0     C15119   0.911   1.572   4.369  0.2121 -0.5088  0.2110
  873MOL0     C15120   0.771   1.602   4.422 -0.2326 -0.4350 -0.3513
  873MOL0     N15121   0.660   1.515   4.375 -0.0989 -0.2022  0.7744
  873MOL0     C15122   0.522   1.559   4.384 -0.0450  0.2920  0.5550
  873MOL0     C15123   0.456   1.447   4.362 -0.3304 -1.0148  0.5357
  873MOL0     C15124   0.306   1.455   4.353 -0.6254  0.5346 -0.2901
  873MOL0     C15125   0.237   1.340   4.410  0.2622  0.0933 -0.3251
  873MOL0     C15126   0.087   1.357   4.369  0.8517  0.7199  0.2130
  873MOL0     C15127  -0.007   1.292   4.466  0.0464  0.0915 -0.3357
  873MOL0     O15128  -0.011   1.374   4.589  0.5656  0.0979 -0.2046
  873MOL0     C15129  -0.129   1.365   4.666  0.5521  0.3585 -0.4616
  873MOL0     C15130  -0.210   1.249   4.702  0.7371 -0.9284  0.4545
  873MOL0     C15131  -0.327   1.260   4.780 -0.5544 -0.0779  1.2767
  873MOL0     C15132  -0.375   1.386   4.819 -0.0753 -0.2819 -0.0796
  873MOL0     C15133  -0.497   1.391   4.897 -0.0810  0.0806 -1.0307
  873MOL0     O15134  -0.561   1.508   4.884  1.1205 -0.1075 -0.5094
  873MOL0     C15135  -0.675   1.527   4.956 -0.0210 -0.7156 -0.1180
  873MOL0     C15136  -0.801   1.503   4.906 -0.8646 -0.7687  0.6649
  873MOL0     C15137  -0.913   1.520   4.984  0.2444  0.7367 -0.5401
  873MOL0     C15138  -0.907   1.568   5.120  0.0681 -0.3496 -0.7129
  873MOL0     O15139  -1.025   1.575   5.200 -0.4104 -0.3077  0.2026
  873MOL0     C15140  -1.023   1.613   5.337 -0.2405 -0.4374  0.2796
  873MOL0     C15141  -0.965   1.518   5.437 -0.1006 -0.1319  1.1200
  873MOL0     C15142  -1.032   1.375   5.450 -0.0488 -0.5831  0.3457
  873MOL0     C15143  -0.927   1.275   5.502  0.6222  1.0436  0.4316
  873MOL0     C15144  -0.993   1.138   5.506 -0.9758 -0.1858  0.6134
  873MOL0     C15145  -0.892   1.023   5.544  0.0417  0.8506  0.0647
  873MOL0     C15146  -0.960   0.877   5.520  0.2910 -0.2178 -0.3939
  873MOL0     C15147  -1.102   0.864   5.577  0.7689  1.2435  0.1957
  873MOL0    Cl15148  -1.110   0.861   5.753  0.0210 -0.1199 -0.3423
  873MOL0     C15149  -0.777   1.595   5.176  0.6053  0.0401 -0.0663
  873MOL0     C15150  -0.663   1.578   5.092  0.1764  0.5556 -0.5457
  873MOL0     O15151  -0.528   1.298   4.972  0.3027  0.5131  0.7231
  873MOL0     C15152  -0.301   1.501   4.780  1.2321 -0.1811  0.7826
  873MOL0     C15153  -0.178   1.488   4.720 -0.1444 -0.0871  0.0442
  873MOL0     N15154   0.539   1.342   4.345  0.1112 -0.4304  0.5514
  873MOL0     N15155   0.665   1.382   4.347 -0.3428 -0.3407 -0.2708
  873MOL0     C15156   1.580   2.183   4.407  0.2684  0.2563 -0.2682
  873MOL0     C15157   1.650   2.284   4.352 -0.0513  0.4651 -0.0458
  873MOL0     C15158   1.726   2.647   4.087  0.1140  0.2024 -0.2378
  873MOL0     C15159   1.734   2.677   3.950  0.6894 -0.5403 -0.1804
  873MOL0     C15160   1.804   2.784   3.904  0.3933  0.1824 -0.1644
  873MOL0     C15161   1.870   2.871   3.989 -0.4484 -0.0884  0.2833
  873MOL0     O15162   1.950   2.973   3.935  0.1371  0.9228  0.1746
  873MOL0     C15163   2.061   2.908   3.867  0.2283 -0.6805 -0.0292
  873MOL0     C15164   2.109   3.009   3.775 -0.6780  0.3471  0.8965
  873MOL0     C15165   2.188   2.930   3.663 -0.0082 -0.0169 -0.2866
  873MOL0     C15166   2.281   3.030   3.609  0.3844  0.1536  0.7700
  873MOL0     C15167   2.364   2.966   3.508  0.8204  0.4693  0.5298
  873MOL0     C15168   2.447   2.902   3.454  0.7484 -0.2412 -0.1539
  873MOL0     C15169   1.853   2.850   4.129  0.1595 -0.1528 -0.0776
  873MOL0     C15170   1.780   2.738   4.176 -0.1663 -0.4329 -0.3418
  873MOL0     H15171   1.397   2.494   4.296  0.8135  1.5932  1.7807
  873MOL0     H15172   1.258   2.296   4.390  0.2417 -0.4513  1.1830
  873MOL0     H15173   1.531   2.010   4.604  0.2972  0.0975  1.0992
  873MOL0     H15174   1.478   1.920   4.457  0.7308 -0.2011  0.6862
  873MOL0     H15175   1.271   1.987   4.675 -0.8855  0.4122 -1.7509
  873MOL0     H15176   1.390   1.867   4.731 -1.2653  0.8748  1.2735
  873MOL0     H15177   1.315   1.715   4.555  0.2161  0.0707  0.5421
  873MOL0     H15178   1.241   1.855   4.462 -0.9289  0.8279  0.2752
  873MOL0     H15179   1.153   1.724   4.726  2.0959  0.3615 -0.7033
  873MOL0     H15180   1.053   1.849   4.635 -1.6583 -1.7655  0.5733
  873MOL0     H15181   0.954   1.633   4.617 -1.2498  0.7795 -1.7856
  873MOL0     H15182   1.112   1.567   4.565 -1.8113 -1.6858  3.6543
  873MOL0     H15183   1.084   1.702   4.349 -0.6594 -0.8002 -1.4366
  873MOL0     H15184   0.948   1.771   4.410  3.1448  0.9747  0.5972
  873MOL0     H15185   0.907   1.576   4.259 -1.3169  3.6241  0.2700
  873MOL0     H15186   0.946   1.473   4.399 -0.1588 -0.1327  1.9568
  873MOL0     H15187   0.733   1.703   4.404  0.8441  0.3175  1.4092
  873MOL0     H15188   0.780   1.584   4.530  0.4679 -3.4954 -0.8222
  873MOL0     H15189   0.472   1.653   4.403 -1.0369 -0.1936  0.3885
  873MOL0     H15190   0.296   1.464   4.245  1.7054 -2.1032 -0.8221
  873MOL0     H15191   0.276   1.553   4.393  0.4527  1.8576 -2.5355
  873MOL0     H15192   0.252   1.346   4.518 -1.1499 -0.0416 -0.1135
  873MOL0     H15193   0.279   1.249   4.367  0.3382 -0.6643  1.2773
  873MOL0     H15194   0.061   1.463   4.363 -3.8331 -0.1958  0.0361
  873MOL0     H15195   0.072   1.315   4.269 -1.7225 -0.9316  1.1740
  873MOL0     H15196   0.023   1.188   4.479 -1.0524 -0.1640  0.2512
  873MOL0     H15197  -0.104   1.299   4.418 -0.1091  0.1960 -0.0096
  873MOL0     H15198  -0.179   1.156   4.655 -1.2182 -1.3692 -0.0472
  873MOL0     H15199  -0.383   1.170   4.803 -2.5686  0.4053 -1.1959
  873MOL0     H15200  -0.813   1.479   4.801 -0.1678  0.4167  0.2800
  873MOL0     H15201  -1.004   1.483   4.938  0.0103  0.5792  0.0539
  873MOL0     H15202  -1.129   1.623   5.363 -0.1348  3.0155 -0.1566
  873MOL0     H15203  -0.986   1.714   5.358 -3.9424  1.3057 -0.7709
  873MOL0     H15204  -0.949   1.559   5.537  2.9481  0.4956  0.4829
  873MOL0     H15205  -0.860   1.513   5.408 -0.6830  0.7352 -1.3589
  873MOL0     H15206  -1.061   1.347   5.348  0.1444 -0.2977  0.2088
  873MOL0     H15207  -1.124   1.371   5.510  1.8770 -0.3460  3.5386
  873MOL0     H15208  -0.832   1.276   5.448  0.2982 -0.4435 -0.2178
  873MOL0     H15209  -0.908   1.298   5.608 -0.3647 -0.2226  0.9080
  873MOL0     H15210  -1.045   1.120   5.411  2.0814 -1.9867 -0.8493
  873MOL0     H15211  -1.078   1.144   5.575 -2.3470 -0.8420 -0.9450
  873MOL0     H15212  -0.866   1.047   5.647 -1.0877  3.0575 -0.0945
  873MOL0     H15213  -0.800   1.041   5.487 -1.7679  0.5032 -3.2740
  873MOL0     H15214  -0.975   0.877   5.411  2.8327  1.9193 -0.8558
  873MOL0     H15215  -0.896   0.792   5.543 -1.2935 -1.5864 -0.8201
  873MOL0     H15216  -1.136   0.768   5.537  1.1264 -0.0530  2.8264
  873MOL0     H15217  -1.160   0.941   5.524  0.5263  1.2049  0.4054
  873MOL0     H15218  -0.757   1.624   5.279  0.6271  1.0730 -0.3554
  873MOL0     H15219  -0.572   1.603   5.147 -0.2162 -0.0948  0.4210
  873MOL0     H15220  -0.331   1.598   4.818 -1.5893 -0.2250 -1.0452
  873MOL0     H15221  -0.118   1.575   4.696  0.2818 -0.6531 -1.0029
  873MOL0     H15222   1.623   2.085   4.426 -0.7510 -0.4091 -1.3092
  873MOL0     H15223   1.757   2.268   4.341  0.4411  1.1408  2.7954
  873MOL0     H15224   1.680   2.613   3.881 -1.7989  0.7608  0.4391
  873MOL0     H15225   1.799   2.793   3.796  0.0363 -0.0261 -0.1678
  873MOL0     H15226   2.030   2.828   3.800  0.3491  0.5776 -1.6429
  873MOL0     H15227   2.137   2.872   3.936 -1.7602  1.1619  3.4653
  873MOL0     H15228   2.040   3.072   3.718  0.4372 -0.2453 -1.2276
  873MOL0     H15229   2.183   3.071   3.824 -2.0922  3.6198 -0.7804
  873MOL0     H15230   2.108   2.904   3.593 -1.1797  1.9075  0.2635
  873MOL0     H15231   2.242   2.845   3.704  0.1537  0.8079  1.2982
  873MOL0     H15232   2.226   3.107   3.553  0.4832 -1.6256 -1.9439
  873MOL0     H15233   2.341   3.075   3.688  1.1789  0.0953  0.2080
  873MOL0     H15234   2.538   2.875   3.403  0.9104  3.0703 -1.8758
  873MOL0     H15235   1.892   2.917   4.205  0.0493 -1.9914  1.6773
  873MOL0     H15236   1.785   2.715   4.282  0.0069 -0.5469 -0.3729
  874MOL0     O15237   8.931   2.140   2.182 -0.3283 -0.1095  0.3711
  874MOL0     C15238   8.875   2.083   2.095 -1.1512 -0.2085  1.1775
  874MOL0     O15239   8.898   2.098   1.961 -0.3335  0.2987  0.6202
  874MOL0     C15240   9.027   2.143   1.922  0.9210  0.3091  0.6225
  874MOL0     C15241   9.144   2.079   1.967 -0.6436 -0.1996  0.8040
  874MOL0     C15242   9.272   2.120   1.922  0.5179 -0.2692  0.5169
  874MOL0     C15243   9.270   2.237   1.825 -0.4643  0.0789 -0.1109
  874MOL0     O15244   9.382   2.273   1.759 -0.1836  0.3385  0.2693
  874MOL0     C15245   9.489   2.174   1.736 -0.0088 -0.4237 -0.6620
  874MOL0     C15246   9.580   2.224   1.622 -0.3246 -0.1982 -0.7059
  874MOL0     C15247   9.721   2.251   1.667  0.5046 -0.0713 -0.3390
  874MOL0     C15248   9.798   2.311   1.555  0.0138 -0.1029 -0.2380
  874MOL0     C15249   9.933   2.351   1.612 -0.9016  0.4856 -0.1953
  874MOL0     C15250  10.042   2.377   1.501  0.4017  0.4319 -0.1091
  874MOL0     C15251  10.175   2.308   1.529  0.1446  0.8829 -0.6053
  874MOL0     C15252  10.181   2.168   1.470 -0.5147 -0.1806 -0.0127
  874MOL0     N15253  10.313   2.108   1.439  0.2822 -0.8171 -0.2176
  874MOL0     C15254  10.430   2.171   1.389 -0.4242  0.3690 -0.2511
  874MOL0     C15255  10.524   2.075   1.395  0.1371 -0.2005  0.4990
  874MOL0     C15256  10.675   2.063   1.357 -0.0984 -0.8149  0.1621
  874MOL0     C15257  10.711   2.003   1.217 -0.5699 -1.1303 -1.2395
  874MOL0     C15258  10.638   2.081   1.117  0.7448 -0.3216 -0.4790
  874MOL0     C15259  10.663   2.027   0.976 -1.0377 -0.8675  0.1639
  874MOL0     O15260  10.586   1.903   0.945  0.2630 -0.2303 -0.2269
  874MOL0     C15261  10.448   1.910   0.920 -0.4355 -0.2906  0.4988
  874MOL0     C15262  10.361   1.920   1.026 -0.7036 -0.5273 -0.2195
  874MOL0     C15263  10.223   1.928   1.003 -0.9668  0.0231  0.3502
  874MOL0     C15264  10.178   1.938   0.868  0.4931 -0.8940  0.2296
  874MOL0     C15265  10.030   1.940   0.844 -0.0521 -0.1446 -0.1355
  874MOL0     O15266   9.953   2.021   0.922 -0.1838  0.1396  0.3882
  874MOL0     C15267   9.821   2.018   0.876 -0.6654  0.3323  0.9865
  874MOL0     C15268   9.787   2.142   0.818 -0.7471 -0.0485 -0.0346
  874MOL0     C15269   9.659   2.163   0.761  0.1124  0.0157 -0.4025
  874MOL0     C15270   9.560   2.063   0.786  1.0348 -0.5421  0.6167
  874MOL0     O15271   9.431   2.077   0.744 -0.1717  0.5376  0.0310
  874MOL0     C15272   9.402   2.178   0.655 -0.5245 -0.2127 -0.2203
  874MOL0     C15273   9.262   2.176   0.598  0.9119 -0.6385  0.1084
  874MOL0     C15274   9.147   2.155   0.693  0.1000  0.2553  0.0196
  874MOL0     C15275   9.010   2.137   0.625 -0.4811  0.2739 -0.4154
  874MOL0     C15276   8.900   2.069   0.708 -0.9328 -0.2992  0.0990
  874MOL0     C15277   8.846   2.157   0.821 -0.5367  0.6943  0.1813
  874MOL0     C15278   8.709   2.110   0.869  1.1312 -0.4625 -0.1387
  874MOL0     C15279   8.718   1.989   0.951 -0.7995 -0.2843 -0.1315
  874MOL0    Cl15280   8.557   1.921   0.978  0.0244 -0.2403 -0.0204
  874MOL0     C15281   9.590   1.946   0.855 -0.5316  0.4232  0.1054
  874MOL0     C15282   9.722   1.922   0.895 -0.5993  0.3528 -0.1308
  874MOL0     O15283   9.988   1.861   0.758  0.1964 -0.8241  0.0334
  874MOL0     C15284  10.263   1.921   0.760 -0.1708  0.6496  0.6348
  874MOL0     C15285  10.408   1.919   0.784  0.4430  0.6587 -0.7599
  874MOL0     N15286  10.454   1.953   1.423  0.6960  0.3916 -0.0360
  874MOL0     N15287  10.334   1.978   1.445  0.1235  0.2447 -0.3965
  874MOL0     C15288   9.154   2.295   1.785  0.2031  0.5484 -0.6733
  874MOL0     C15289   9.034   2.256   1.834  0.1562  0.6685  0.1509
  874MOL0     C15290   8.763   2.006   2.147 -0.1140  0.2655  0.5731
  874MOL0     C15291   8.668   1.965   2.059 -0.5075  0.3780 -0.7628
  874MOL0     C15292   8.559   1.877   2.101  0.2206 -0.4990  0.6306
  874MOL0     C15293   8.555   1.832   2.235 -1.0453 -0.3100 -1.7456
  874MOL0     O15294   8.462   1.736   2.268 -0.2777 -0.0011  0.6918
  874MOL0     C15295   8.408   1.722   2.399  0.3848 -0.7064 -0.0757
  874MOL0     C15296   8.299   1.612   2.381 -0.1612  0.4636 -1.0775
  874MOL0     C15297   8.220   1.581   2.503 -0.0704  0.5034 -0.7592
  874MOL0     C15298   8.106   1.494   2.478 -0.5892 -0.5443  0.5388
  874MOL0     C15299   8.036   1.456   2.604  0.0371  0.2070  0.5272
  874MOL0     C15300   7.980   1.444   2.711  0.9147  0.4080 -0.5692
  874MOL0     C15301   8.652   1.882   2.323  0.0547  0.2616  0.0341
  874MOL0     C15302   8.757   1.963   2.279 -0.3121  0.6181  0.0140
  874MOL0     H15303   9.122   1.990   2.026 -3.7682  0.8697  1.4562
  874MOL0     H15304   9.367   2.076   1.949 -0.0663 -2.4814 -0.7351
  874MOL0     H15305   9.448   2.078   1.703 -2.6364  0.5875 -0.6275
  874MOL0     H15306   9.549   2.173   1.827 -2.3749  0.0849  0.9965
  874MOL0     H15307   9.525   2.305   1.573  0.5302 -0.6786 -2.5794
  874MOL0     H15308   9.591   2.151   1.541  2.8537  0.9089 -1.4152
  874MOL0     H15309   9.777   2.165   1.705  5.1893  1.7825 -2.2266
  874MOL0     H15310   9.725   2.318   1.754 -1.4695 -2.1376  1.4772
  874MOL0     H15311   9.810   2.244   1.469 -1.6820 -1.9201  0.8568
  874MOL0     H15312   9.758   2.396   1.500 -1.4692 -1.0820 -0.7503
  874MOL0     H15313   9.973   2.279   1.685  0.9331 -0.4219 -1.9816
  874MOL0     H15314   9.919   2.444   1.667 -0.8199  0.5362 -0.2600
  874MOL0     H15315  10.057   2.484   1.487  1.1623  0.1026 -2.0005
  874MOL0     H15316   9.995   2.340   1.410 -3.1146  1.7450  0.9908
  874MOL0     H15317  10.257   2.367   1.488 -0.2191  1.2880 -0.7497
  874MOL0     H15318  10.200   2.294   1.634 -0.1104 -0.5421 -0.7145
  874MOL0     H15319  10.138   2.180   1.370 -1.1113  0.5088  0.3129
  874MOL0     H15320  10.109   2.112   1.531 -0.7130  2.1419  2.0716
  874MOL0     H15321  10.430   2.275   1.356  1.2563  0.3419 -0.3975
  874MOL0     H15322  10.716   2.009   1.443  1.9602  4.5000  3.0110
  874MOL0     H15323  10.723   2.161   1.368 -1.4376 -0.2900  1.9671
  874MOL0     H15324  10.683   1.897   1.224 -1.1986 -0.9018 -0.0885
  874MOL0     H15325  10.818   2.011   1.196 -0.7326 -0.3713 -1.8219
  874MOL0     H15326  10.533   2.098   1.140  0.5582  0.0961 -1.5679
  874MOL0     H15327  10.671   2.185   1.116 -0.7140  0.2221  1.3786
  874MOL0     H15328  10.771   2.017   0.959 -1.0184 -0.7448  0.2029
  874MOL0     H15329  10.627   2.104   0.908 -1.6424 -0.1896  1.2252
  874MOL0     H15330  10.396   1.913   1.129  0.0705  1.9585 -0.2325
  874MOL0     H15331  10.156   1.932   1.088  0.2416  0.4622  1.3039
  874MOL0     H15332   9.851   2.229   0.811  1.0094 -1.3573 -0.8228
  874MOL0     H15333   9.634   2.244   0.694 -0.9431 -1.3043 -1.6759
  874MOL0     H15334   9.473   2.169   0.572  0.2838 -1.8278  0.6041
  874MOL0     H15335   9.416   2.279   0.694  1.2387 -0.2588 -0.6413
  874MOL0     H15336   9.253   2.097   0.523  1.2510 -0.3226 -0.2702
  874MOL0     H15337   9.249   2.271   0.545  1.9148 -0.1678  0.6815
  874MOL0     H15338   9.131   2.238   0.763 -1.0311  0.1801 -0.1259
  874MOL0     H15339   9.166   2.066   0.754 -0.5884 -2.1292 -3.0028
  874MOL0     H15340   8.975   2.235   0.593  3.2490  1.4539 -1.3557
  874MOL0     H15341   9.005   2.068   0.540 -1.0079  0.1025 -0.2479
  874MOL0     H15342   8.949   1.987   0.761  0.9751  0.5941 -0.1972
  874MOL0     H15343   8.827   2.027   0.639 -0.5119  1.7328 -1.6941
  874MOL0     H15344   8.835   2.259   0.782  0.3068  0.2776 -1.1840
  874MOL0     H15345   8.915   2.170   0.905 -0.1441  1.2076 -0.2099
  874MOL0     H15346   8.667   2.189   0.931  3.6044  2.5652 -1.9999
  874MOL0     H15347   8.645   2.099   0.780 -2.5868 -1.3898  2.3908
  874MOL0     H15348   8.780   2.009   1.039  0.0153 -2.4230 -0.1621
  874MOL0     H15349   8.765   1.904   0.902 -1.2190 -0.9666  0.6363
  874MOL0     H15350   9.511   1.874   0.874  0.5959 -0.9395 -0.1585
  874MOL0     H15351   9.741   1.842   0.965 -3.3523  0.9586  1.4811
  874MOL0     H15352  10.224   1.920   0.659  0.1185 -2.1451  0.4814
  874MOL0     H15353  10.493   1.901   0.721  0.5201 -1.6947 -0.0596
  874MOL0     H15354   9.146   2.368   1.706 -5.3487 -2.0629 -3.0238
  874MOL0     H15355   8.940   2.286   1.788  2.1390  2.1223 -3.3110
  874MOL0     H15356   8.667   1.992   1.954 -0.8646 -0.2118 -0.9166
  874MOL0     H15357   8.504   1.840   2.016  0.4013  0.6396 -0.0049
  874MOL0     H15358   8.368   1.815   2.440  1.0882  1.4156 -3.7508
  874MOL0     H15359   8.493   1.685   2.456  2.3179  0.8736 -1.7887
  874MOL0     H15360   8.239   1.643   2.295 -2.2949 -0.0572  0.1553
  874MOL0     H15361   8.342   1.516   2.349  0.3754  0.4077 -0.2120
  874MOL0     H15362   8.177   1.667   2.556  1.5307  0.9981 -0.2050
  874MOL0     H15363   8.283   1.532   2.577 -0.8379  1.2988  0.4610
  874MOL0     H15364   8.041   1.535   2.400 -0.3924 -1.3178 -0.0447
  874MOL0     H15365   8.147   1.402   2.435 -2.9642 -1.2915 -0.3016
  874MOL0     H15366   7.931   1.415   2.802  1.8853 -1.2125 -0.5146
  874MOL0     H15367   8.650   1.860   2.429 -3.0579 -0.4561 -0.0797
  874MOL0     H15368   8.841   1.989   2.343 -0.1830  1.4268 -0.4615
  875MOL0     O15369   3.000   1.577   4.137 -0.6596  0.0931 -0.9120
  875MOL0     C15370   2.916   1.673   4.144  0.5782  0.4152  0.6839
  875MOL0     O15371   2.936   1.791   4.218  0.4570 -0.0874 -0.4676
  875MOL0     C15372   3.046   1.801   4.291  0.3123  0.2582  0.2554
  875MOL0     C15373   3.164   1.830   4.235 -0.8050 -0.1454 -0.5621
  875MOL0     C15374   3.272   1.834   4.328 -1.1657 -0.0287 -0.5603
  875MOL0     C15375   3.262   1.823   4.473 -0.6726 -1.5330 -0.8854
  875MOL0     O15376   3.370   1.865   4.549 -0.0334 -0.1819  0.0550
  875MOL0     C15377   3.497   1.797   4.529  0.8167  0.1460 -0.4010
  875MOL0     C15378   3.490   1.644   4.546  0.5253  0.4746  0.0009
  875MOL0     C15379   3.602   1.570   4.460 -0.3950  0.9256  0.7512
  875MOL0     C15380   3.749   1.618   4.491  0.0833  0.9395  0.2852
  875MOL0     C15381   3.782   1.615   4.642 -0.9896  0.2178  0.5034
  875MOL0     C15382   3.931   1.649   4.687  0.5689 -1.7400 -0.2474
  875MOL0     C15383   4.029   1.558   4.612 -0.3957 -0.4671  0.1492
  875MOL0     C15384   4.164   1.541   4.689  0.2050  0.0045 -0.3594
  875MOL0     N15385   4.228   1.676   4.700 -0.5059  0.9537  1.4168
  875MOL0     C15386   4.239   1.765   4.596 -0.8944  0.3638 -0.0961
  875MOL0     C15387   4.289   1.870   4.658  0.3063 -1.2255  0.2497
  875MOL0     C15388   4.334   2.001   4.588 -0.6354  1.0122 -0.5051
  875MOL0     C15389   4.210   2.088   4.557  0.2050 -0.4094 -0.2673
  875MOL0     C15390   4.237   2.220   4.476 -0.4625 -0.1723  0.0258
  875MOL0     C15391   4.111   2.299   4.500  0.1580 -0.7241  0.1099
  875MOL0     O15392   4.000   2.222   4.444  0.5886  0.1644 -0.4440
  875MOL0     C15393   3.881   2.270   4.402  0.4248 -0.9667 -0.1930
  875MOL0     C15394   3.785   2.182   4.353 -0.6828 -0.0890  0.6288
  875MOL0     C15395   3.672   2.226   4.286 -0.1412  0.7874 -0.6179
  875MOL0     C15396   3.648   2.358   4.270 -0.3112  0.1571 -0.4160
  875MOL0     C15397   3.532   2.409   4.206  0.2406 -0.5237 -0.0139
  875MOL0     O15398   3.459   2.315   4.141  0.6074 -0.7053 -0.3441
  875MOL0     C15399   3.344   2.347   4.084 -0.1155 -0.5173  1.0268
  875MOL0     C15400   3.238   2.377   4.170  0.0199  0.8127  0.0145
  875MOL0     C15401   3.121   2.425   4.120 -0.1618 -1.0243  0.0888
  875MOL0     C15402   3.109   2.465   3.983  0.5025  0.8232  0.6707
  875MOL0     O15403   3.007   2.519   3.915 -0.1221 -1.1111 -0.1617
  875MOL0     C15404   2.883   2.528   3.977 -0.4688 -0.5781 -0.4120
  875MOL0     C15405   2.808   2.398   3.995 -0.9905 -0.2985 -0.1377
  875MOL0     C15406   2.801   2.325   3.855 -0.0535 -0.2071 -0.3693
  875MOL0     C15407   2.812   2.174   3.866 -1.2610  0.2499  0.1147
  875MOL0     C15408   2.957   2.124   3.894  0.7481  0.5361  0.0399
  875MOL0     C15409   2.979   1.984   3.835  0.5634  0.1962 -0.4948
  875MOL0     C15410   3.129   1.946   3.811  0.2352  0.5287  0.0323
  875MOL0     C15411   3.152   1.802   3.803 -0.0748  0.6263  0.1690
  875MOL0    Cl15412   3.046   1.738   3.677  0.2440 -0.0641  0.1259
  875MOL0     C15413   3.213   2.427   3.899  0.1012 -1.2165  0.4071
  875MOL0     C15414   3.333   2.377   3.946 -0.0684 -0.3721 -0.3051
  875MOL0     O15415   3.520   2.531   4.202  0.4678  0.1258  0.0148
  875MOL0     C15416   3.733   2.447   4.340 -0.4056 -0.1397 -0.1588
  875MOL0     C15417   3.862   2.406   4.398 -0.3070 -0.5679  0.1062
  875MOL0     N15418   4.309   1.841   4.791 -0.1822 -0.5366 -0.6484
  875MOL0     N15419   4.262   1.720   4.820 -0.6954 -0.0171 -0.0373
  875MOL0     C15420   3.126   1.814   4.525 -0.5582 -0.6922 -0.8312
  875MOL0     C15421   3.021   1.788   4.433  0.3335 -0.5271  1.3831
  875MOL0     C15422   2.801   1.672   4.048 -0.3322 -0.3501  0.2292
  875MOL0     C15423   2.698   1.760   4.053 -0.0123 -0.4668 -0.2717
  875MOL0     C15424   2.586   1.747   3.965  0.3001  0.1693  0.1586
  875MOL0     C15425   2.570   1.634   3.877 -1.0217  0.4440 -0.6297
  875MOL0     O15426   2.463   1.608   3.800 -0.0206 -0.4192  0.4930
  875MOL0     C15427   2.344   1.702   3.809 -0.2355  0.5009  0.8681
  875MOL0     C15428   2.241   1.657   3.700  0.4183 -0.3754 -0.8571
  875MOL0     C15429   2.103   1.732   3.706  0.2034  0.2261  0.0150
  875MOL0     C15430   2.018   1.706   3.823  0.5107 -0.7726 -0.6199
  875MOL0     C15431   1.982   1.563   3.827  0.2489 -0.5840 -0.0292
  875MOL0     C15432   1.927   1.456   3.824 -0.1016 -0.2254  0.5715
  875MOL0     C15433   2.677   1.543   3.884 -0.3071 -0.2768  0.7525
  875MOL0     C15434   2.793   1.567   3.952  0.1803 -0.1792 -0.5290
  875MOL0     H15435   3.188   1.833   4.129  2.1363  1.4560  0.0212
  875MOL0     H15436   3.373   1.833   4.290  1.1709  3.7637  4.3727
  875MOL0     H15437   3.574   1.839   4.595  1.9391 -3.0660  0.5756
  875MOL0     H15438   3.524   1.813   4.425  0.4579 -2.2493 -0.9279
  875MOL0     H15439   3.394   1.604   4.512  0.6932  0.3960 -0.3817
  875MOL0     H15440   3.506   1.613   4.649  0.6109 -2.2243 -0.7523
  875MOL0     H15441   3.588   1.588   4.353  1.7594  0.0092  0.2655
  875MOL0     H15442   3.596   1.461   4.471 -0.2677  0.7124 -1.0659
  875MOL0     H15443   3.815   1.549   4.439  1.3189  1.7244  0.7748
  875MOL0     H15444   3.763   1.718   4.448 -2.4820  0.6018 -1.5778
  875MOL0     H15445   3.761   1.514   4.680 -1.5765 -0.3156 -1.1891
  875MOL0     H15446   3.710   1.681   4.691 -0.7577  1.3848 -0.6834
  875MOL0     H15447   3.940   1.636   4.796 -2.8256 -0.1544  0.3742
  875MOL0     H15448   3.964   1.752   4.677 -2.8797 -0.6161 -1.6551
  875MOL0     H15449   3.977   1.462   4.608 -4.9915  1.7727 -2.3110
  875MOL0     H15450   4.039   1.590   4.508  0.8449  2.3096  1.0285
  875MOL0     H15451   4.230   1.472   4.637 -0.2798 -0.5328 -0.2640
  875MOL0     H15452   4.146   1.505   4.791  1.6633 -3.0863 -1.0758
  875MOL0     H15453   4.218   1.741   4.492 -1.8801 -1.1903  0.4421
  875MOL0     H15454   4.393   1.989   4.496  1.9035  0.4363  1.0987
  875MOL0     H15455   4.394   2.058   4.659 -3.9789  0.1237  3.3393
  875MOL0     H15456   4.174   2.120   4.655  0.5808 -0.7830 -0.0024
  875MOL0     H15457   4.141   2.021   4.505  2.1610 -2.9877  0.2725
  875MOL0     H15458   4.314   2.280   4.525  1.8160 -2.8529  0.0111
  875MOL0     H15459   4.267   2.206   4.371 -0.7727  1.5184 -0.3092
  875MOL0     H15460   4.131   2.397   4.454  1.7285 -0.1345  1.8929
  875MOL0     H15461   4.095   2.316   4.606  2.2564  2.9013  0.0301
  875MOL0     H15462   3.793   2.075   4.337  0.9292 -0.0090  0.6914
  875MOL0     H15463   3.613   2.146   4.242 -1.3026  0.0158  2.1157
  875MOL0     H15464   3.254   2.359   4.276 -1.2497 -0.5476  0.0031
  875MOL0     H15465   3.042   2.459   4.187  0.9475 -0.3964  1.1116
  875MOL0     H15466   2.819   2.600   3.925  1.5127  1.1805 -0.5540
  875MOL0     H15467   2.890   2.566   4.079 -2.7212  3.7174 -1.6370
  875MOL0     H15468   2.708   2.430   4.026 -0.4257  0.1806  1.2420
  875MOL0     H15469   2.860   2.329   4.062  1.6648  0.3086 -1.4488
  875MOL0     H15470   2.873   2.362   3.781  0.0750  1.3511  0.4894
  875MOL0     H15471   2.699   2.341   3.819 -0.0325 -1.0262 -0.8252
  875MOL0     H15472   2.752   2.133   3.947  0.0320 -1.8107  0.0973
  875MOL0     H15473   2.780   2.119   3.778 -0.4624 -0.8781  0.5060
  875MOL0     H15474   2.977   2.122   4.002  2.0777 -0.3050 -0.1990
  875MOL0     H15475   3.025   2.191   3.841 -0.9385  0.9210 -1.7698
  875MOL0     H15476   2.926   1.974   3.740 -0.9260  0.1973  0.3073
  875MOL0     H15477   2.937   1.905   3.899  2.7844 -1.1028 -0.5270
  875MOL0     H15478   3.157   1.991   3.716 -3.3390  0.1984 -1.3541
  875MOL0     H15479   3.200   1.973   3.889  2.8602 -2.0279 -1.2773
  875MOL0     H15480   3.147   1.746   3.897  0.7269 -3.1338 -1.7886
  875MOL0     H15481   3.259   1.789   3.780 -0.3511  1.0648 -1.5134
  875MOL0     H15482   3.208   2.453   3.793  1.9821 -2.5023 -0.0318
  875MOL0     H15483   3.415   2.367   3.876  1.1348 -0.2174  1.0304
  875MOL0     H15484   3.720   2.555   4.345 -1.3175 -0.2825  1.0049
  875MOL0     H15485   3.931   2.481   4.434 -0.6697  0.6542 -1.6063
  875MOL0     H15486   3.107   1.825   4.631 -0.5139 -2.1040 -0.6591
  875MOL0     H15487   2.920   1.774   4.470  0.0463  3.6341  2.6756
  875MOL0     H15488   2.690   1.824   4.141  3.6738 -0.9193  0.5438
  875MOL0     H15489   2.511   1.824   3.956 -1.4994 -1.6952 -2.0878
  875MOL0     H15490   2.381   1.803   3.792  1.8910 -0.2745  0.5647
  875MOL0     H15491   2.300   1.698   3.909 -0.7219 -1.3616  0.6158
  875MOL0     H15492   2.275   1.686   3.600 -0.6906 -0.7512 -1.3484
  875MOL0     H15493   2.223   1.550   3.710 -2.0563  0.0505 -0.0508
  875MOL0     H15494   2.038   1.709   3.621 -0.4409  0.6024  0.3926
  875MOL0     H15495   2.132   1.837   3.692  3.4010 -0.6460 -0.7307
  875MOL0     H15496   2.051   1.749   3.917  0.8257  0.9369 -1.4784
  875MOL0     H15497   1.928   1.768   3.811  1.2164  0.3246 -0.3664
  875MOL0     H15498   1.876   1.361   3.828  0.6764 -0.7293 -0.8581
  875MOL0     H15499   2.668   1.458   3.817  1.7235 -1.2897  1.7062
  875MOL0     H15500   2.872   1.494   3.939 -0.0428 -0.2439 -1.5779
  876MOL0     O15501  10.906   8.132   3.583  0.4095 -0.1989 -0.1605
  876MOL0     C15502  10.902   8.218   3.496  0.9725  0.2227  0.9175
  876MOL0     O15503  10.795   8.260   3.419 -0.5766  0.5850 -0.0464
  876MOL0     C15504  10.667   8.210   3.428  1.1238 -1.0249  0.0636
  876MOL0     C15505  10.573   8.290   3.352 -0.4742 -0.3584  0.1344
  876MOL0     C15506  10.439   8.245   3.336 -0.1037  0.8576  0.1650
  876MOL0     C15507  10.403   8.122   3.389 -0.4154  0.4936 -0.2920
  876MOL0     O15508  10.275   8.060   3.377  0.5155 -0.1609  0.5129
  876MOL0     C15509  10.198   8.096   3.265 -0.1211  0.1580  0.4631
  876MOL0     C15510  10.095   7.991   3.255 -0.1157  0.2076  0.4718
  876MOL0     C15511   9.975   8.010   3.358  0.0959 -0.1141 -0.2862
  876MOL0     C15512   9.837   7.935   3.331 -1.2589 -0.3124  0.6604
  876MOL0     C15513   9.874   7.787   3.346 -0.4204  0.6838 -0.4830
  876MOL0     C15514   9.826   7.702   3.234  0.3401  1.5647  0.3841
  876MOL0     C15515   9.839   7.555   3.265  0.2831  0.1990  0.0425
  876MOL0     C15516   9.781   7.470   3.144  0.3923 -0.4459  0.4952
  876MOL0     N15517   9.879   7.454   3.035  0.2807  0.4967  0.4310
  876MOL0     C15518   9.896   7.541   2.939  0.5654  0.2682  0.1704
  876MOL0     C15519  10.001   7.503   2.871  0.1350 -1.2294 -0.0221
  876MOL0     C15520  10.045   7.583   2.753  0.4644  0.5039  0.0026
  876MOL0     C15521  10.139   7.691   2.808  0.4711  0.1635  0.7433
  876MOL0     C15522  10.289   7.647   2.798  1.1517 -0.5679 -0.3085
  876MOL0     C15523  10.377   7.743   2.895 -0.2688  0.6771 -0.5534
  876MOL0     O15524  10.405   7.869   2.837 -0.0572 -0.7370 -0.6585
  876MOL0     C15525  10.510   7.941   2.888  0.0010 -0.4097 -0.7503
  876MOL0     C15526  10.533   7.972   3.024  0.8913  0.6421  0.2663
  876MOL0     C15527  10.624   8.059   3.072  0.1326  0.3666  0.7807
  876MOL0     C15528  10.718   8.108   2.981  0.3992 -0.2552 -0.2991
  876MOL0     C15529  10.831   8.190   3.021  1.3639  0.1839  0.5146
  876MOL0     O15530  10.896   8.249   2.917 -0.2093  1.3533  1.3256
  876MOL0     C15531  11.017   8.303   2.919  0.2620  0.1925 -0.2850
  876MOL0     C15532  11.040   8.398   2.821 -0.7090 -1.1423  0.4047
  876MOL0     C15533  11.168   8.453   2.804  0.7194  0.5146 -0.2244
  876MOL0     C15534  11.270   8.424   2.898 -0.1096 -0.0970 -0.6366
  876MOL0     O15535  11.393   8.480   2.871  1.2021 -0.4692  0.0041
  876MOL0     C15536  11.500   8.385   2.885  0.2056  0.0483 -0.5495
  876MOL0     C15537  11.595   8.413   2.759  0.0979 -0.1046 -0.0354
  876MOL0     C15538  11.668   8.281   2.719  0.6652 -0.2531 -0.4629
  876MOL0     C15539  11.759   8.297   2.604  0.4178  1.0075 -0.0171
  876MOL0     C15540  11.850   8.192   2.575  0.3447  0.4347  0.0192
  876MOL0     C15541  11.960   8.189   2.682  0.1321 -0.5132 -0.7231
  876MOL0     C15542  12.072   8.095   2.654  0.3864 -0.0351 -0.1377
  876MOL0     C15543  12.161   8.080   2.774  0.1683 -0.1761  1.0518
  876MOL0    Cl15544  12.239   8.252   2.783  0.4399  0.2402  0.2977
  876MOL0     C15545  11.239   8.346   3.003 -0.4769 -0.7053  0.6646
  876MOL0     C15546  11.118   8.280   3.007  0.2955  0.1771 -0.3819
  876MOL0     O15547  10.859   8.200   3.139 -0.5508 -0.0364  0.3038
  876MOL0     C15548  10.707   8.078   2.846 -0.7106 -0.7143  0.0610
  876MOL0     C15549  10.597   7.998   2.796 -0.3543 -0.6251 -0.0460
  876MOL0     N15550  10.045   7.388   2.924  0.2180  0.2272  0.2493
  876MOL0     N15551   9.971   7.359   3.029  0.1657 -0.6318 -0.3498
  876MOL0     C15552  10.490   8.053   3.474 -0.7483 -0.0343 -1.0650
  876MOL0     C15553  10.625   8.091   3.489  0.4805  0.5558  0.6766
  876MOL0     C15554  11.038   8.277   3.454  0.6212  0.1174  0.3031
  876MOL0     C15555  11.037   8.385   3.366 -0.1450  0.4405  0.5540
  876MOL0     C15556  11.162   8.443   3.324 -0.1192  0.9875  0.3408
  876MOL0     C15557  11.278   8.423   3.403 -0.0756 -0.2418  0.3743
  876MOL0     O15558  11.396   8.498   3.399  0.0602 -0.0271 -0.6144
  876MOL0     C15559  11.395   8.613   3.316 -0.1913  0.8664  0.4750
  876MOL0     C15560  11.529   8.671   3.316 -0.2455  0.4621 -0.6887
  876MOL0     C15561  11.642   8.568   3.287 -0.1206  0.4743  0.2556
  876MOL0     C15562  11.779   8.636   3.325 -0.2370 -0.8067 -0.3564
  876MOL0     C15563  11.883   8.541   3.361 -0.5800 -0.6321 -0.6272
  876MOL0     C15564  11.969   8.460   3.394  0.6559  0.1080  0.4723
  876MOL0     C15565  11.273   8.311   3.490  0.6968 -0.0587 -0.7189
  876MOL0     C15566  11.163   8.241   3.513  0.1735 -0.0788 -0.5969
  876MOL0     H15567  10.600   8.384   3.304 -0.8340 -0.1679  0.2993
  876MOL0     H15568  10.385   8.317   3.276  1.0564  1.1287 -0.5966
  876MOL0     H15569  10.260   8.103   3.175  0.5588  1.1478  0.9817
  876MOL0     H15570  10.142   8.190   3.269  0.5591  0.8044 -2.3773
  876MOL0     H15571  10.130   7.888   3.246 -0.4305  0.1536 -0.2866
  876MOL0     H15572  10.060   7.996   3.151  1.4622 -1.9335 -0.2407
  876MOL0     H15573   9.955   8.118   3.364  2.9945  0.5622 -1.3984
  876MOL0     H15574  10.013   7.972   3.453 -2.5779  1.1412  1.4096
  876MOL0     H15575   9.775   7.968   3.415  0.4393 -0.0337  1.8542
  876MOL0     H15576   9.793   7.951   3.232  0.9638 -0.6750 -0.4432
  876MOL0     H15577   9.823   7.748   3.435  2.2079  1.0596  1.2818
  876MOL0     H15578   9.981   7.774   3.364 -1.1684 -0.0090  5.2573
  876MOL0     H15579   9.873   7.722   3.138 -0.3173 -1.0070 -0.5450
  876MOL0     H15580   9.722   7.729   3.209  0.4116  0.2626 -1.4985
  876MOL0     H15581   9.942   7.531   3.291  1.3065 -0.5651 -4.0290
  876MOL0     H15582   9.783   7.534   3.356  3.0642 -1.0610  1.5864
  876MOL0     H15583   9.692   7.513   3.097 -0.1681 -2.8507 -0.7849
  876MOL0     H15584   9.736   7.374   3.170 -1.3691 -0.2921 -1.7583
  876MOL0     H15585   9.826   7.623   2.929  1.4316  0.8101 -2.1204
  876MOL0     H15586   9.953   7.618   2.705  0.8480  0.6793 -0.6073
  876MOL0     H15587  10.099   7.528   2.675  1.2387  4.1192 -2.2336
  876MOL0     H15588  10.115   7.711   2.913  1.0160 -1.9283  1.3159
  876MOL0     H15589  10.132   7.781   2.747 -3.0159 -0.5542 -0.1393
  876MOL0     H15590  10.302   7.547   2.841  1.9765 -0.5784 -0.5626
  876MOL0     H15591  10.324   7.638   2.695 -2.0725 -2.0483 -1.3984
  876MOL0     H15592  10.470   7.689   2.918 -1.9383 -1.4791  1.6680
  876MOL0     H15593  10.325   7.748   2.991  2.1340 -4.5924  1.3694
  876MOL0     H15594  10.455   7.945   3.095 -2.0419  5.4940 -0.6268
  876MOL0     H15595  10.627   8.084   3.177  0.7958  1.4627  0.5130
  876MOL0     H15596  10.954   8.415   2.757 -0.5014 -3.9431 -0.7890
  876MOL0     H15597  11.170   8.515   2.715 -0.8036  3.6632  1.7588
  876MOL0     H15598  11.467   8.282   2.868  0.2882 -0.4109  1.7917
  876MOL0     H15599  11.551   8.391   2.982 -0.5456 -1.3455 -0.0466
  876MOL0     H15600  11.659   8.495   2.794 -0.5073 -0.4253  1.9665
  876MOL0     H15601  11.533   8.456   2.679 -2.6825  0.4701  2.2467
  876MOL0     H15602  11.590   8.208   2.696  2.6302 -2.5458 -0.1821
  876MOL0     H15603  11.733   8.247   2.800 -0.1919 -1.7144 -0.3660
  876MOL0     H15604  11.699   8.323   2.517  0.4127  1.6664  0.1747
  876MOL0     H15605  11.820   8.386   2.617  2.2860 -0.2639  0.3374
  876MOL0     H15606  11.892   8.212   2.475  1.8721  1.6127  0.8526
  876MOL0     H15607  11.802   8.094   2.580 -3.1580  2.0653  1.3407
  876MOL0     H15608  11.918   8.164   2.780  0.2962  3.4206  0.5489
  876MOL0     H15609  12.001   8.290   2.695  1.2209 -0.8665 -1.2769
  876MOL0     H15610  12.019   8.002   2.637 -0.5784  0.1944  1.4092
  876MOL0     H15611  12.122   8.137   2.566 -0.3494  2.1527  0.4054
  876MOL0     H15612  12.237   8.005   2.752  0.3951  0.4339 -0.3681
  876MOL0     H15613  12.114   8.033   2.861 -0.8567 -0.8042  0.1659
  876MOL0     H15614  11.320   8.323   3.071  0.3889  0.1640 -0.0449
  876MOL0     H15615  11.105   8.211   3.090  3.0805  0.5023  0.4264
  876MOL0     H15616  10.771   8.120   2.770 -2.8514  1.0671 -0.8498
  876MOL0     H15617  10.584   7.980   2.690  2.2710  2.4628 -1.0948
  876MOL0     H15618  10.462   7.960   3.522  2.6142 -1.0463 -0.7888
  876MOL0     H15619  10.699   8.026   3.535  1.8982 -0.3432 -2.5267
  876MOL0     H15620  10.946   8.432   3.332  0.8422  2.0882  0.0594
  876MOL0     H15621  11.155   8.519   3.247  1.0426  2.0595  1.2511
  876MOL0     H15622  11.316   8.686   3.334 -0.0726  2.5214 -4.3105
  876MOL0     H15623  11.383   8.589   3.210  1.9624 -1.2022  0.6212
  876MOL0     H15624  11.532   8.749   3.239 -3.2194 -0.6750 -2.1035
  876MOL0     H15625  11.543   8.709   3.418 -1.7933 -2.2273  0.6129
  876MOL0     H15626  11.630   8.546   3.181  0.6594 -0.9632  0.4361
  876MOL0     H15627  11.630   8.476   3.345 -1.6874 -0.6300 -1.6906
  876MOL0     H15628  11.817   8.691   3.239 -1.3855 -0.6021 -0.7581
  876MOL0     H15629  11.768   8.704   3.410 -0.6044  0.6770 -1.5439
  876MOL0     H15630  12.042   8.398   3.442 -0.1582 -0.4057  1.0633
  876MOL0     H15631  11.354   8.302   3.562 -0.4272  1.7872  0.8626
  876MOL0     H15632  11.161   8.154   3.578  2.1442  1.3794  1.5702
  877MOL0     O15633   2.758   0.975  10.558  0.1134 -0.9517 -0.6364
  877MOL0     C15634   2.843   0.959  10.471  0.5521  0.5482  0.0408
  877MOL0     O15635   2.827   0.985  10.347  0.3141  0.7526  0.7451
  877MOL0     C15636   2.704   1.021  10.301  1.6086  0.6640 -0.0870
  877MOL0     C15637   2.702   1.127  10.210 -0.4807  0.5348  0.1848
  877MOL0     C15638   2.591   1.179  10.156 -0.3303 -0.1645  0.6037
  877MOL0     C15639   2.464   1.141  10.199 -0.0244 -0.1279  0.3111
  877MOL0     O15640   2.345   1.202  10.152 -0.0996  0.1254  0.4275
  877MOL0     C15641   2.338   1.268  10.023 -0.3131 -0.3172  0.6515
  877MOL0     C15642   2.191   1.309   9.981 -0.9708 -0.4725  0.4164
  877MOL0     C15643   2.116   1.409  10.074 -1.3833 -0.0646  0.6351
  877MOL0     C15644   2.141   1.551  10.011  0.1896 -0.1095 -0.2864
  877MOL0     C15645   2.039   1.657  10.070 -0.5767 -0.4771 -0.0134
  877MOL0     C15646   2.052   1.790  10.005  0.3258  0.3819 -0.0840
  877MOL0     C15647   2.183   1.847  10.046  0.1257  0.4300  0.4074
  877MOL0     C15648   2.217   1.987   9.986 -0.7527 -1.1285  0.6036
  877MOL0     N15649   2.144   2.082  10.074 -0.1498 -0.1750  0.5745
  877MOL0     C15650   2.194   2.155  10.177 -0.5827  0.5142 -0.1913
  877MOL0     C15651   2.097   2.229  10.240 -0.5778  0.0550 -0.2393
  877MOL0     C15652   2.133   2.299  10.364 -0.1359 -0.9217  0.3572
  877MOL0     C15653   2.061   2.254  10.494 -0.3586  0.1964  0.0936
  877MOL0     C15654   1.906   2.263  10.494 -0.5091 -0.0324  0.1933
  877MOL0     C15655   1.837   2.228  10.633 -0.2335 -0.5693 -0.7676
  877MOL0     O15656   1.849   2.335  10.730  0.0699  0.0085 -0.5002
  877MOL0     C15657   1.745   2.427  10.748 -0.3065 -0.0691  0.8695
  877MOL0     C15658   1.762   2.511  10.850  0.0547  0.1633 -0.1863
  877MOL0     C15659   1.671   2.607  10.875 -0.0185 -1.2104 -0.5895
  877MOL0     C15660   1.549   2.633  10.798 -0.0129 -0.5379  0.1436
  877MOL0     C15661   1.457   2.744  10.825 -0.7926 -0.0761 -0.0473
  877MOL0     O15662   1.449   2.792  10.958  0.3377  0.2704  0.7426
  877MOL0     C15663   1.344   2.876  11.002 -0.2535  0.1528  0.0034
  877MOL0     C15664   1.290   2.983  10.920 -0.8771  0.0121 -0.4708
  877MOL0     C15665   1.189   3.058  10.959  0.6663  0.2146 -1.6838
  877MOL0     C15666   1.141   3.045  11.097 -0.0335 -0.7520  1.0705
  877MOL0     O15667   1.054   3.135  11.163 -0.0382  0.1718  0.1823
  877MOL0     C15668   0.936   3.173  11.093  0.1230 -0.3369  0.2370
  877MOL0     C15669   0.857   3.270  11.183 -0.1122  0.8635  0.1194
  877MOL0     C15670   0.934   3.403  11.197  0.1488  0.8648  0.0881
  877MOL0     C15671   0.855   3.505  11.283 -0.1303 -0.4347  0.7097
  877MOL0     C15672   0.860   3.478  11.429  0.6022 -0.5049  0.6111
  877MOL0     C15673   0.755   3.579  11.490  0.8112 -0.0088  0.3163
  877MOL0     C15674   0.753   3.583  11.637 -0.1745  1.2348 -0.5793
  877MOL0     C15675   0.671   3.466  11.705  0.5744 -0.2366  0.0565
  877MOL0    Cl15676   0.521   3.432  11.616  0.1333  0.0889  0.1275
  877MOL0     C15677   1.189   2.954  11.179 -0.2769 -0.1225 -0.9741
  877MOL0     C15678   1.288   2.868  11.132 -0.6478 -0.0543 -0.2028
  877MOL0     O15679   1.391   2.779  10.729 -0.0675  0.2807  0.1769
  877MOL0     C15680   1.541   2.551  10.688 -0.4730  0.8593  0.4332
  877MOL0     C15681   1.632   2.444  10.665  0.0012 -0.3442 -0.0209
  877MOL0     N15682   1.993   2.209  10.158  0.9838 -0.0124 -0.2267
  877MOL0     N15683   2.020   2.126  10.062  0.9295  0.2633 -0.5415
  877MOL0     C15684   2.453   1.040  10.300 -0.4061  0.3842  0.0351
  877MOL0     C15685   2.573   0.981  10.347 -0.1889  0.7571 -0.4899
  877MOL0     C15686   2.968   0.912  10.511 -0.5298  0.9026  0.3800
  877MOL0     C15687   3.059   0.879  10.406  0.1165 -0.1407 -0.3463
  877MOL0     C15688   3.189   0.853  10.439 -0.1873 -0.4404 -0.2602
  877MOL0     C15689   3.244   0.841  10.570  0.1220 -0.2475 -0.0719
  877MOL0     O15690   3.374   0.799  10.604  0.6468 -0.7909 -0.3420
  877MOL0     C15691   3.473   0.852  10.518  0.7217 -0.5114  0.1139
  877MOL0     C15692   3.616   0.822  10.571  0.1376  0.4198  0.6039
  877MOL0     C15693   3.638   0.888  10.704  0.5775 -0.1079 -0.3504
  877MOL0     C15694   3.764   0.831  10.770  0.8265  0.0025  0.3996
  877MOL0     C15695   3.886   0.839  10.689  0.0614  0.3280 -0.1619
  877MOL0     C15696   3.995   0.853  10.637 -0.4185  0.5991  0.6246
  877MOL0     C15697   3.149   0.867  10.672  0.1774 -0.4200  0.8731
  877MOL0     C15698   3.021   0.908  10.638 -0.4116  0.6403  0.0724
  877MOL0     H15699   2.800   1.150  10.168 -1.1997 -1.0730 -2.6697
  877MOL0     H15700   2.595   1.252  10.075  2.8295 -2.0433 -1.1260
  877MOL0     H15701   2.363   1.192   9.948 -3.3037  0.3682 -1.2123
  877MOL0     H15702   2.401   1.357  10.030 -1.2804  0.5040 -0.7086
  877MOL0     H15703   2.142   1.211   9.985 -1.0036 -0.4081  2.4333
  877MOL0     H15704   2.180   1.337   9.875 -2.8170 -1.4177  0.3134
  877MOL0     H15705   2.153   1.400  10.177 -1.3428  0.0992  0.6341
  877MOL0     H15706   2.010   1.383  10.080 -1.6980  1.4588  2.9438
  877MOL0     H15707   2.243   1.573  10.042 -0.6670  1.0237  1.9512
  877MOL0     H15708   2.123   1.555   9.903 -1.0261  0.2972 -0.0857
  877MOL0     H15709   2.053   1.659  10.178  1.6168 -1.5545 -0.2182
  877MOL0     H15710   1.938   1.619  10.057 -0.1064 -1.8106  0.0720
  877MOL0     H15711   1.970   1.858  10.032  0.6623  1.4696 -1.6831
  877MOL0     H15712   2.051   1.765   9.899  2.4829 -2.3904  0.4315
  877MOL0     H15713   2.165   1.867  10.152 -0.4232  0.1359  0.3712
  877MOL0     H15714   2.268   1.782  10.019 -1.9858 -2.2559 -0.2026
  877MOL0     H15715   2.170   1.999   9.887 -2.4229 -0.7992  1.4061
  877MOL0     H15716   2.324   2.010   9.984 -0.8557 -0.6750 -0.3837
  877MOL0     H15717   2.298   2.152  10.209 -0.5027 -1.3107 -0.5051
  877MOL0     H15718   2.100   2.401  10.339 -0.4240 -0.8427  1.0534
  877MOL0     H15719   2.241   2.302  10.382 -0.3865 -1.7775  2.1510
  877MOL0     H15720   2.108   2.317  10.570 -1.1786  0.4231  0.4296
  877MOL0     H15721   2.093   2.151  10.515  2.2527 -0.5691 -5.7431
  877MOL0     H15722   1.879   2.367  10.473  0.0289 -0.0513 -0.6481
  877MOL0     H15723   1.863   2.201  10.416 -1.0734  1.1045 -0.4209
  877MOL0     H15724   1.879   2.131  10.662  0.4923  0.5656  2.4715
  877MOL0     H15725   1.732   2.208  10.612 -0.9413  0.6693  1.2705
  877MOL0     H15726   1.838   2.499  10.926  1.3726 -1.2247 -1.6430
  877MOL0     H15727   1.709   2.674  10.951 -0.5615 -2.1650  0.5526
  877MOL0     H15728   1.346   3.010  10.830  0.5788  4.9009  1.5865
  877MOL0     H15729   1.147   3.136  10.896  2.5191  0.5411 -2.5707
  877MOL0     H15730   0.875   3.087  11.061  0.2270 -0.4095  0.2347
  877MOL0     H15731   0.958   3.224  10.999  0.1357 -1.2111 -0.2514
  877MOL0     H15732   0.830   3.223  11.278  1.5284  0.6404  0.4921
  877MOL0     H15733   0.762   3.293  11.132  1.4672  3.1973 -1.9895
  877MOL0     H15734   0.934   3.440  11.094 -0.6366 -0.0258 -0.2461
  877MOL0     H15735   1.036   3.381  11.229 -0.3491  0.0606  1.1809
  877MOL0     H15736   0.912   3.598  11.279  2.2387 -1.8155  0.4244
  877MOL0     H15737   0.757   3.532  11.242 -0.1962 -2.1161 -0.3360
  877MOL0     H15738   0.953   3.502  11.480  0.6351  0.6560  0.0311
  877MOL0     H15739   0.818   3.382  11.460 -3.2062  0.8596  0.3274
  877MOL0     H15740   0.654   3.558  11.453  0.4667  1.7945  0.1403
  877MOL0     H15741   0.782   3.681  11.459  1.1785 -0.1386  0.2114
  877MOL0     H15742   0.855   3.562  11.671  0.2164  3.5601 -0.2001
  877MOL0     H15743   0.724   3.679  11.678 -0.7694  0.1036  1.8315
  877MOL0     H15744   0.634   3.487  11.806 -0.8049 -1.4249 -0.1658
  877MOL0     H15745   0.734   3.377  11.713  1.9736  0.6564 -0.6460
  877MOL0     H15746   1.169   2.960  11.286  1.7912  1.6610 -0.6193
  877MOL0     H15747   1.324   2.788  11.196 -1.7625 -1.4713 -1.2455
  877MOL0     H15748   1.456   2.572  10.624  1.0115 -1.9656 -2.8082
  877MOL0     H15749   1.616   2.401  10.566 -0.9926 -1.1316  0.4658
  877MOL0     H15750   2.359   1.022  10.351  0.8816  3.5297  4.0283
  877MOL0     H15751   2.556   0.904  10.422  0.3002  0.2926 -0.8468
  877MOL0     H15752   3.041   0.871  10.299  4.7795 -1.3565 -1.3092
  877MOL0     H15753   3.242   0.841  10.346  0.2884 -1.2037  0.1005
  877MOL0     H15754   3.475   0.960  10.508  1.4602 -0.4285  0.9982
  877MOL0     H15755   3.451   0.798  10.426 -2.1724 -0.3488  0.6142
  877MOL0     H15756   3.644   0.717  10.586  2.8947  1.5075  4.6464
  877MOL0     H15757   3.693   0.859  10.502  0.8549 -2.0236  0.0125
  877MOL0     H15758   3.552   0.883  10.772  1.3382  0.7774  0.7242
  877MOL0     H15759   3.653   0.994  10.685  1.8007  0.0131  1.1267
  877MOL0     H15760   3.790   0.887  10.860 -1.7205  0.1436  1.1405
  877MOL0     H15761   3.746   0.740  10.828 -1.3806  2.4972  4.0734
  877MOL0     H15762   4.093   0.862  10.595 -0.6930  3.3126  0.3931
  877MOL0     H15763   3.172   0.850  10.777  0.8341 -1.0786  0.6350
  877MOL0     H15764   2.963   0.934  10.726  0.7886  2.6079  0.3494
  878MOL0     O15765  11.285   8.557   1.807  0.5192  1.0450  0.3978
  878MOL0     C15766  11.337   8.597   1.703 -0.4412  0.3388  0.2790
  878MOL0     O15767  11.273   8.612   1.584  0.9463  0.1673  0.2703
  878MOL0     C15768  11.136   8.633   1.582  0.5582 -0.9315  0.8507
  878MOL0     C15769  11.062   8.577   1.483  0.4014  0.3918 -0.1535
  878MOL0     C15770  10.932   8.599   1.464  0.2335  0.4916 -0.3617
  878MOL0     C15771  10.856   8.698   1.535 -1.2592 -0.0242  0.6380
  878MOL0     O15772  10.729   8.706   1.519  0.0056  0.4475 -0.9857
  878MOL0     C15773  10.655   8.814   1.578 -0.0895  0.4168  0.5156
  878MOL0     C15774  10.511   8.819   1.512  0.1595 -0.3345  0.1398
  878MOL0     C15775  10.503   8.818   1.354  0.5672  0.0788 -0.6626
  878MOL0     C15776  10.358   8.818   1.315 -0.3574  0.2676  0.2243
  878MOL0     C15777  10.343   8.714   1.197 -0.0062 -0.1441 -0.2771
  878MOL0     C15778  10.212   8.739   1.114  0.6335  0.4880  0.0130
  878MOL0     C15779  10.090   8.657   1.152 -0.7665  0.1542  0.5215
  878MOL0     C15780  10.088   8.515   1.095 -0.0666 -0.3381 -0.2187
  878MOL0     N15781   9.953   8.463   1.121 -0.6666 -0.4893 -0.4653
  878MOL0     C15782   9.841   8.513   1.063 -0.6041 -0.5277  0.6238
  878MOL0     C15783   9.734   8.456   1.130  0.2716  0.0216  0.0766
  878MOL0     C15784   9.598   8.509   1.127 -0.7283  0.5667 -0.4746
  878MOL0     C15785   9.492   8.395   1.168 -0.2222 -0.0730  0.0271
  878MOL0     C15786   9.346   8.445   1.151  0.1657 -0.1544 -0.2144
  878MOL0     C15787   9.242   8.350   1.203  0.6938 -0.5420  0.1319
  878MOL0     O15788   9.106   8.393   1.171  0.5562 -0.0390 -0.4729
  878MOL0     C15789   9.005   8.326   1.244 -0.7028 -0.0012  0.9584
  878MOL0     C15790   9.020   8.209   1.322 -0.5756 -0.2574  0.3286
  878MOL0     C15791   8.914   8.137   1.371  1.0737  1.0207 -0.4348
  878MOL0     C15792   8.781   8.172   1.347  0.3231  0.4347 -0.5310
  878MOL0     C15793   8.671   8.082   1.394 -0.3676 -0.5515  0.3562
  878MOL0     O15794   8.545   8.140   1.363  0.3544  0.0180 -0.6858
  878MOL0     C15795   8.427   8.065   1.365 -0.0266  0.6917  1.1001
  878MOL0     C15796   8.339   8.071   1.256  0.1289 -0.6461 -0.2345
  878MOL0     C15797   8.213   8.016   1.274 -0.4068  0.6582 -0.8046
  878MOL0     C15798   8.182   7.933   1.377 -0.1401  0.0853 -0.3845
  878MOL0     O15799   8.056   7.888   1.375 -0.5846 -0.1346 -0.2438
  878MOL0     C15800   7.953   7.956   1.458 -1.1822 -1.3057  0.4542
  878MOL0     C15801   7.815   7.907   1.404 -0.5196 -0.1865 -0.5160
  878MOL0     C15802   7.688   7.960   1.482 -0.7893  0.0055 -0.1412
  878MOL0     C15803   7.668   7.872   1.606 -0.7456  0.5070 -1.3585
  878MOL0     C15804   7.601   7.930   1.722 -0.5309 -0.3299  0.7411
  878MOL0     C15805   7.457   7.992   1.697 -0.0510 -0.8205 -0.4840
  878MOL0     C15806   7.357   7.900   1.628  0.0091  0.6345 -0.1511
  878MOL0     C15807   7.226   7.972   1.582 -0.6123 -0.6211 -0.5708
  878MOL0    Cl15808   7.128   8.032   1.716  0.5933 -0.1166 -0.7076
  878MOL0     C15809   8.271   7.925   1.482  0.1332 -0.6920 -0.5010
  878MOL0     C15810   8.394   7.990   1.477  1.3208  0.6671  0.1765
  878MOL0     O15811   8.693   7.969   1.429  0.1883  0.0700  0.1689
  878MOL0     C15812   8.757   8.282   1.261 -0.8906 -0.4310  0.0142
  878MOL0     C15813   8.871   8.357   1.215 -0.0647 -0.4714 -0.1646
  878MOL0     N15814   9.783   8.358   1.210 -0.6311  0.8841 -0.2243
  878MOL0     N15815   9.920   8.367   1.214  0.5042 -0.1353  0.1365
  878MOL0     C15816  10.926   8.765   1.640  0.5528  0.3403  0.3197
  878MOL0     C15817  11.068   8.736   1.651  0.7495  0.2901 -0.4836
  878MOL0     C15818  11.485   8.584   1.708 -0.1593 -1.0932 -0.1700
  878MOL0     C15819  11.566   8.627   1.594  0.0673  0.4108  0.3532
  878MOL0     C15820  11.709   8.622   1.599 -0.4192 -0.6613 -0.5433
  878MOL0     C15821  11.773   8.571   1.712 -0.0001  0.0990  1.2559
  878MOL0     O15822  11.906   8.556   1.732 -0.2231 -0.6069  0.6787
  878MOL0     C15823  11.994   8.518   1.620 -0.6733 -0.1888 -0.9118
  878MOL0     C15824  12.127   8.475   1.673  0.1138 -0.4433 -0.8803
  878MOL0     C15825  12.200   8.584   1.755  0.8512  0.3529  0.3976
  878MOL0     C15826  12.328   8.520   1.802 -0.1984 -0.4689  0.2812
  878MOL0     C15827  12.414   8.619   1.864  0.4767  0.4133  0.0555
  878MOL0     C15828  12.489   8.701   1.917 -0.9569 -1.0416  0.3780
  878MOL0     C15829  11.700   8.551   1.825  0.2663 -0.4350  0.5826
  878MOL0     C15830  11.557   8.553   1.825  0.1012 -0.2457  0.0631
  878MOL0     H15831  11.106   8.493   1.431 -0.6582 -1.1888  1.3936
  878MOL0     H15832  10.886   8.541   1.384  2.1438  1.7608 -2.5024
  878MOL0     H15833  10.705   8.907   1.551 -1.6511  0.6520 -1.8952
  878MOL0     H15834  10.644   8.811   1.686  0.7580  0.8479  0.6173
  878MOL0     H15835  10.446   8.898   1.550 -0.8157 -1.0222 -0.0642
  878MOL0     H15836  10.459   8.725   1.536 -1.9649  0.2751 -1.7445
  878MOL0     H15837  10.553   8.728   1.316  4.2538  1.3415  0.7494
  878MOL0     H15838  10.555   8.907   1.315  1.1059  0.5342  1.0125
  878MOL0     H15839  10.292   8.781   1.395 -1.8453 -0.2110 -1.1596
  878MOL0     H15840  10.324   8.917   1.285  1.9171  0.7912 -0.8574
  878MOL0     H15841  10.355   8.612   1.235 -0.8069 -0.3991 -0.6952
  878MOL0     H15842  10.415   8.725   1.115 -4.3387  1.4603 -4.2892
  878MOL0     H15843  10.233   8.715   1.010 -0.0175 -0.9336  0.1920
  878MOL0     H15844  10.199   8.848   1.112  1.1211  0.5451 -0.0518
  878MOL0     H15845  10.063   8.651   1.258 -0.0845 -0.1143  0.6847
  878MOL0     H15846  10.011   8.720   1.108 -0.8819 -0.2398  0.1594
  878MOL0     H15847  10.166   8.458   1.146  1.9585  1.6675 -0.9171
  878MOL0     H15848  10.095   8.518   0.986 -2.0357  1.8152 -0.3688
  878MOL0     H15849   9.828   8.591   0.990  1.8997 -0.8985 -0.3255
  878MOL0     H15850   9.571   8.537   1.025 -1.7970  4.5576  0.7267
  878MOL0     H15851   9.590   8.598   1.191  1.7618 -0.7351  1.8444
  878MOL0     H15852   9.513   8.383   1.275 -1.6105  3.6924  0.8903
  878MOL0     H15853   9.510   8.303   1.112 -1.0851  1.2154 -2.4826
  878MOL0     H15854   9.331   8.546   1.190  0.1656 -0.3329  0.2571
  878MOL0     H15855   9.324   8.435   1.045  0.0332 -4.5760  0.0234
  878MOL0     H15856   9.262   8.342   1.310  1.4788 -0.6816 -0.0205
  878MOL0     H15857   9.270   8.258   1.151 -0.0005  0.8844 -2.9826
  878MOL0     H15858   9.121   8.168   1.328 -0.4567  0.0887  0.7851
  878MOL0     H15859   8.925   8.036   1.408  1.6024 -0.0635 -3.3086
  878MOL0     H15860   8.358   8.129   1.166 -0.1385 -2.3994 -1.4538
  878MOL0     H15861   8.139   8.007   1.196  0.1778 -2.3490 -1.1499
  878MOL0     H15862   7.957   8.065   1.452 -1.1474 -1.3523 -0.5953
  878MOL0     H15863   7.977   7.931   1.561  1.3226 -1.0654 -0.0233
  878MOL0     H15864   7.810   7.798   1.412 -1.2597 -0.0757  0.8366
  878MOL0     H15865   7.809   7.950   1.303 -1.0225  1.9286  0.3537
  878MOL0     H15866   7.605   7.960   1.411 -0.0832 -2.9880 -1.1169
  878MOL0     H15867   7.717   8.059   1.517 -2.8174  1.1827 -1.5746
  878MOL0     H15868   7.627   7.776   1.573  1.4891 -0.6972 -0.8680
  878MOL0     H15869   7.769   7.858   1.646 -1.4239  1.5551  0.8808
  878MOL0     H15870   7.670   8.010   1.751 -0.9784 -0.0708  1.1091
  878MOL0     H15871   7.594   7.863   1.809  3.3809 -1.5904  0.2710
  878MOL0     H15872   7.461   8.085   1.639  0.7086 -0.4247  0.1834
  878MOL0     H15873   7.417   8.024   1.793  0.2642  1.1744 -0.9799
  878MOL0     H15874   7.399   7.855   1.537 -5.0902 -2.5219 -1.3437
  878MOL0     H15875   7.316   7.818   1.687 -1.8909 -0.8185 -3.2614
  878MOL0     H15876   7.158   7.894   1.547 -2.7769 -0.0706  2.0785
  878MOL0     H15877   7.250   8.049   1.507 -2.1606  1.3828  0.8700
  878MOL0     H15878   8.243   7.863   1.567 -1.0355 -0.7139 -0.8735
  878MOL0     H15879   8.469   7.978   1.554 -0.7689 -0.1014  2.1994
  878MOL0     H15880   8.661   8.299   1.214 -1.1937 -4.0392 -0.9142
  878MOL0     H15881   8.856   8.449   1.159 -2.7614 -0.9734 -0.3907
  878MOL0     H15882  10.891   8.853   1.693  1.8070  0.8305  0.3624
  878MOL0     H15883  11.130   8.795   1.718  1.4813 -0.8808 -0.0966
  878MOL0     H15884  11.530   8.665   1.499  2.1758  0.6791 -0.3704
  878MOL0     H15885  11.769   8.660   1.517 -0.3627 -0.2010 -0.2903
  878MOL0     H15886  12.011   8.601   1.551  0.4695  1.3205  1.0585
  878MOL0     H15887  11.944   8.432   1.575 -1.2971 -0.5511  0.4061
  878MOL0     H15888  12.100   8.395   1.742 -1.5172 -1.5087 -2.6437
  878MOL0     H15889  12.181   8.432   1.588  0.0840 -2.0451 -0.1240
  878MOL0     H15890  12.134   8.607   1.840 -0.9835  3.2071 -1.6334
  878MOL0     H15891  12.209   8.679   1.702 -1.6733  0.2554 -0.3541
  878MOL0     H15892  12.316   8.442   1.878  1.3069  1.6483  2.8694
  878MOL0     H15893  12.382   8.476   1.718  0.7700 -1.4265  1.3621
  878MOL0     H15894  12.564   8.760   1.966  0.5682  0.0393 -2.9556
  878MOL0     H15895  11.752   8.515   1.913  0.5640  1.1962  1.1135
  878MOL0     H15896  11.516   8.522   1.921  3.2993 -2.4354  0.9229
  879MOL0     O15897   3.431   8.287   9.527 -0.0691  0.2194 -0.2312
  879MOL0     C15898   3.410   8.192   9.449  0.0812  0.0620 -0.0166
  879MOL0     O15899   3.495   8.090   9.428 -0.1997 -0.5758 -0.5906
  879MOL0     C15900   3.612   8.061   9.499  0.0047 -1.0471  0.3216
  879MOL0     C15901   3.616   8.083   9.636  0.1598  1.0935 -0.6240
  879MOL0     C15902   3.715   8.026   9.705 -0.8192 -0.4507  0.1869
  879MOL0     C15903   3.822   7.960   9.653 -0.7477  0.1686 -0.3685
  879MOL0     O15904   3.915   7.929   9.747  0.0734 -0.7272  0.3548
  879MOL0     C15905   4.053   7.900   9.719 -0.9007 -0.2447  0.7172
  879MOL0     C15906   4.134   7.991   9.803 -0.5242  0.1187  0.3449
  879MOL0     C15907   4.089   8.137   9.805  0.0446 -0.2658  0.4281
  879MOL0     C15908   4.187   8.214   9.897  0.5242 -0.8470 -0.7311
  879MOL0     C15909   4.172   8.367   9.871  0.1981  0.2298  1.1577
  879MOL0     C15910   4.032   8.425   9.895 -0.3480  0.2335 -0.7558
  879MOL0     C15911   3.968   8.380  10.021  0.0586  0.5783 -0.3145
  879MOL0     C15912   3.834   8.455  10.043 -0.2152  0.0578 -0.1723
  879MOL0     N15913   3.854   8.580  10.113 -0.4052 -0.8941  0.1609
  879MOL0     C15914   3.773   8.699  10.101 -0.0846  0.5964  0.2250
  879MOL0     C15915   3.822   8.785  10.196  0.4978 -1.0391 -0.3161
  879MOL0     C15916   3.780   8.935  10.232  0.5332  0.3857  1.0820
  879MOL0     C15917   3.666   8.951  10.343 -0.9627  0.1629  0.3541
  879MOL0     C15918   3.525   8.925  10.299 -0.3178  1.2737  0.6485
  879MOL0     C15919   3.486   8.773  10.290 -0.6404 -0.0241 -0.6590
  879MOL0     O15920   3.344   8.742  10.310  0.1293  0.2410  0.2573
  879MOL0     C15921   3.252   8.791  10.226 -1.0297  0.0760  0.1913
  879MOL0     C15922   3.130   8.827  10.274 -0.2765 -0.7622 -0.2572
  879MOL0     C15923   3.032   8.886  10.199  0.6031 -0.2117 -0.3190
  879MOL0     C15924   3.048   8.897  10.064 -0.7955 -0.8192  1.0530
  879MOL0     C15925   2.945   8.970   9.980  0.9710 -0.6247 -0.3267
  879MOL0     O15926   2.825   9.002  10.043 -0.4296 -0.4957  0.1773
  879MOL0     C15927   2.719   9.041   9.963 -0.2073  1.4521 -0.8020
  879MOL0     C15928   2.700   9.165   9.907 -0.3213  0.6365  0.4600
  879MOL0     C15929   2.587   9.186   9.826  0.8208 -0.2918  0.4034
  879MOL0     C15930   2.488   9.093   9.799  0.0748  0.3824 -0.6204
  879MOL0     O15931   2.387   9.110   9.716  0.3718 -0.0668  0.5022
  879MOL0     C15932   2.340   9.243   9.688 -0.0882 -0.8650 -0.3791
  879MOL0     C15933   2.213   9.232   9.604 -0.7463  0.0474  0.6090
  879MOL0     C15934   2.098   9.182   9.684 -0.1006  0.3782 -0.1334
  879MOL0     C15935   1.972   9.159   9.596  0.2722 -0.0116  0.0436
  879MOL0     C15936   1.853   9.090   9.671 -0.1416  0.2856 -0.9138
  879MOL0     C15937   1.788   9.167   9.793  0.5307  1.0435 -0.0884
  879MOL0     C15938   1.687   9.077   9.866  0.8939 -0.6489  0.2925
  879MOL0     C15939   1.620   9.140   9.984 -0.1343 -0.3662 -0.2420
  879MOL0    Cl15940   1.742   9.195  10.106  0.5230  0.5289  0.0465
  879MOL0     C15941   2.503   8.965   9.855 -0.0818 -0.4214 -0.1520
  879MOL0     C15942   2.614   8.947   9.943 -0.2425 -0.5438 -0.2875
  879MOL0     O15943   2.967   8.980   9.857  0.4237 -0.1673  0.2387
  879MOL0     C15944   3.173   8.863  10.004 -1.1475 -0.7650 -0.1148
  879MOL0     C15945   3.272   8.804  10.091  0.0339  0.8869 -0.5565
  879MOL0     N15946   3.916   8.718  10.273 -0.0033 -0.9968 -0.1088
  879MOL0     N15947   3.942   8.602  10.219  0.6646 -0.2714 -0.5165
  879MOL0     C15948   3.820   7.944   9.517  0.1476 -0.3323 -0.8300
  879MOL0     C15949   3.709   7.988   9.432 -0.0442  0.4226 -0.4243
  879MOL0     C15950   3.283   8.177   9.380 -0.6309  0.6403 -0.1531
  879MOL0     C15951   3.166   8.260   9.409  0.1192 -0.1216 -0.5710
  879MOL0     C15952   3.041   8.245   9.354  0.5472  0.0944 -0.2630
  879MOL0     C15953   3.006   8.133   9.279  0.3387  0.3807  0.2104
  879MOL0     O15954   2.880   8.101   9.230 -0.0406  0.7113 -0.2522
  879MOL0     C15955   2.755   8.152   9.285  0.3564 -0.4204 -0.0508
  879MOL0     C15956   2.716   8.283   9.215 -0.3950  0.3722  0.1767
  879MOL0     C15957   2.583   8.332   9.274  0.2611  0.1604  0.4144
  879MOL0     C15958   2.536   8.463   9.213  0.5370  0.0064  0.1902
  879MOL0     C15959   2.483   8.451   9.073  1.0030 -0.5733 -0.1621
  879MOL0     C15960   2.421   8.451   8.960  0.3492 -0.0007 -0.0547
  879MOL0     C15961   3.117   8.048   9.243 -0.4033  0.4927 -0.6994
  879MOL0     C15962   3.257   8.073   9.291  0.8931  0.1442 -0.2238
  879MOL0     H15963   3.528   8.122   9.687  1.3304  0.9726  1.6180
  879MOL0     H15964   3.722   8.031   9.814  3.5738  1.5563  0.0504
  879MOL0     H15965   4.080   7.927   9.616  0.7734  0.6334  1.3425
  879MOL0     H15966   4.083   7.798   9.744 -1.2811  0.1416  2.9727
  879MOL0     H15967   4.241   7.983   9.783 -0.6521  0.2747 -0.4324
  879MOL0     H15968   4.129   7.946   9.902 -2.1013  0.2041  0.3393
  879MOL0     H15969   3.989   8.153   9.847  0.0940 -1.4634  1.0695
  879MOL0     H15970   4.092   8.175   9.703 -1.6815 -0.0922  0.4097
  879MOL0     H15971   4.174   8.184  10.001 -2.3452 -2.0404 -1.3257
  879MOL0     H15972   4.289   8.183   9.873  0.7603 -1.5930  1.1304
  879MOL0     H15973   4.204   8.397   9.771  1.1560 -2.3467  0.6095
  879MOL0     H15974   4.237   8.419   9.941  0.0449 -1.0260  2.2736
  879MOL0     H15975   3.967   8.404   9.810 -1.3476 -0.3269  0.1248
  879MOL0     H15976   4.030   8.534   9.901 -3.4969  0.3646 -2.2129
  879MOL0     H15977   3.939   8.276  10.001 -0.4724  0.4474  0.9910
  879MOL0     H15978   4.033   8.391  10.108  0.4956 -2.1830 -0.2124
  879MOL0     H15979   3.766   8.392  10.101  1.3916 -0.2640  1.4779
  879MOL0     H15980   3.773   8.474   9.954 -2.9041 -1.1333  1.2958
  879MOL0     H15981   3.690   8.712  10.031 -2.6232 -2.8054  2.2806
  879MOL0     H15982   3.765   8.976  10.132  3.2247 -0.3599  0.2916
  879MOL0     H15983   3.864   8.998  10.261 -0.6754  3.3959 -1.4148
  879MOL0     H15984   3.679   9.054  10.379  2.1148 -0.3666  0.9573
  879MOL0     H15985   3.697   8.890  10.428 -1.2593 -1.6331 -0.7755
  879MOL0     H15986   3.457   8.972  10.370 -1.9229  0.0942 -0.0382
  879MOL0     H15987   3.498   8.963  10.200  0.2944 -4.5175 -2.1746
  879MOL0     H15988   3.537   8.714  10.367 -2.1192  1.2174  1.3464
  879MOL0     H15989   3.523   8.731  10.196 -0.1322  1.3877 -1.1123
  879MOL0     H15990   3.120   8.818  10.382  0.6475  1.0525  0.0136
  879MOL0     H15991   2.945   8.928  10.249  0.2802 -0.0288 -1.0223
  879MOL0     H15992   2.774   9.243   9.918  2.1976 -1.5505 -0.0447
  879MOL0     H15993   2.584   9.289   9.792 -0.5293 -0.1433  0.9259
  879MOL0     H15994   2.414   9.309   9.640 -2.0441  1.8111  0.0307
  879MOL0     H15995   2.327   9.302   9.779  3.8553 -1.1707  0.5780
  879MOL0     H15996   2.230   9.171   9.515 -2.4553 -1.8109  1.4838
  879MOL0     H15997   2.191   9.335   9.575  2.8748  1.0465  0.8826
  879MOL0     H15998   2.082   9.241   9.775  0.1214 -0.7311  0.6444
  879MOL0     H15999   2.123   9.078   9.707 -0.8941 -0.1320 -1.4586
  879MOL0     H16000   1.945   9.258   9.557  0.1454 -0.2118 -0.3855
  879MOL0     H16001   1.989   9.108   9.500 -1.4130  2.5673 -1.7751
  879MOL0     H16002   1.876   8.986   9.698 -1.7656 -0.2369 -1.4399
  879MOL0     H16003   1.777   9.077   9.593 -0.6858 -1.3081 -0.1653
  879MOL0     H16004   1.742   9.262   9.765  0.3029  0.9603  0.0054
  879MOL0     H16005   1.871   9.189   9.862  0.5610  2.6596 -0.5817
  879MOL0     H16006   1.608   9.042   9.798 -1.5266 -1.4001  3.2743
  879MOL0     H16007   1.745   8.996   9.911 -0.5478 -0.1750  3.2214
  879MOL0     H16008   1.551   9.070  10.032  1.6470 -0.0937  2.9868
  879MOL0     H16009   1.563   9.221   9.935 -0.7149 -1.2279 -1.0359
  879MOL0     H16010   2.450   8.873   9.832 -0.2014 -0.5906  0.7585
  879MOL0     H16011   2.624   8.843   9.973  1.3719  0.0362  1.2731
  879MOL0     H16012   3.175   8.862   9.896 -0.4303 -0.5522 -0.1129
  879MOL0     H16013   3.365   8.761  10.054  0.5017 -2.1799  3.5250
  879MOL0     H16014   3.904   7.887   9.477  1.1873 -1.8948  3.0596
  879MOL0     H16015   3.702   7.948   9.332  0.4114 -0.0118 -0.2903
  879MOL0     H16016   3.184   8.344   9.475 -2.9394 -0.3839  0.7292
  879MOL0     H16017   2.957   8.311   9.374  1.8923  1.1853  2.3610
  879MOL0     H16018   2.759   8.170   9.392 -1.8030  1.3096 -0.1971
  879MOL0     H16019   2.672   8.085   9.259  1.2452 -1.4238 -0.3677
  879MOL0     H16020   2.789   8.364   9.227 -1.9247  1.5612  2.1788
  879MOL0     H16021   2.697   8.257   9.110  1.4009 -1.3362  0.2146
  879MOL0     H16022   2.607   8.367   9.375 -0.9829  1.2359  0.3612
  879MOL0     H16023   2.505   8.255   9.271  0.1659  0.2379  0.7970
  879MOL0     H16024   2.458   8.502   9.279  0.9477 -0.3309  0.8910
  879MOL0     H16025   2.619   8.534   9.220  1.5204 -1.1704  1.0134
  879MOL0     H16026   2.357   8.457   8.875  1.1303  2.4908 -0.5388
  879MOL0     H16027   3.108   7.959   9.183  1.8237  0.0976 -0.5112
  879MOL0     H16028   3.339   8.007   9.266  2.7186  1.2496  2.3197
  880MOL0     O16029   3.443   0.253   9.371  0.1004 -0.1581 -0.9117
  880MOL0     C16030   3.431   0.325   9.278 -0.0988  0.4652 -0.0196
  880MOL0     O16031   3.312   0.386   9.249  0.5392 -0.5122 -0.5504
  880MOL0     C16032   3.199   0.362   9.319 -0.6652 -0.8287  0.4203
  880MOL0     C16033   3.185   0.344   9.460 -0.6310  0.5999  0.4963
  880MOL0     C16034   3.056   0.344   9.511  0.6758 -0.1067 -0.2471
  880MOL0     C16035   2.940   0.368   9.435  0.0976  0.5514 -0.9411
  880MOL0     O16036   2.827   0.387   9.503 -0.1255 -0.2710  0.2825
  880MOL0     C16037   2.819   0.524   9.544 -0.4853  0.2650 -0.3326
  880MOL0     C16038   2.691   0.558   9.620 -0.7138 -0.2657 -0.2589
  880MOL0     C16039   2.563   0.519   9.551  0.2942  0.0003  0.0944
  880MOL0     C16040   2.513   0.626   9.454  0.0545  0.3334 -0.8915
  880MOL0     C16041   2.398   0.556   9.381  0.3087 -0.3479  0.0358
  880MOL0     C16042   2.350   0.642   9.263 -0.2318 -0.1090 -1.0842
  880MOL0     C16043   2.235   0.579   9.182 -0.1808 -0.4605  0.0861
  880MOL0     C16044   2.164   0.694   9.106  0.5894 -0.9026  0.4927
  880MOL0     N16045   2.254   0.760   9.005  0.0996  0.8896 -0.8645
  880MOL0     C16046   2.324   0.884   9.012 -0.1768  1.6706 -0.8754
  880MOL0     C16047   2.403   0.878   8.900  0.6977 -0.1084 -0.2878
  880MOL0     C16048   2.519   0.967   8.862  0.3748  0.3448  0.4502
  880MOL0     C16049   2.639   0.880   8.811  0.6370  0.2861 -0.3946
  880MOL0     C16050   2.747   0.974   8.766  0.7256 -0.3074  0.2026
  880MOL0     C16051   2.870   0.897   8.750 -0.4061 -0.5019  0.0167
  880MOL0     O16052   2.976   0.985   8.710 -0.0958  0.3595 -0.1831
  880MOL0     C16053   3.102   0.937   8.709 -0.3601  0.7612  0.1479
  880MOL0     C16054   3.204   1.025   8.677 -0.2874 -0.1637 -0.1558
  880MOL0     C16055   3.341   0.979   8.681  0.5217  0.1285 -0.4053
  880MOL0     C16056   3.375   0.846   8.703 -1.1563 -0.3356  0.3899
  880MOL0     C16057   3.516   0.796   8.712  0.7281  0.2335  0.1128
  880MOL0     O16058   3.613   0.891   8.692 -0.0361  0.1728  0.3167
  880MOL0     C16059   3.742   0.857   8.681 -1.1705  0.1055  0.0414
  880MOL0     C16060   3.806   0.871   8.560 -0.0367  0.0959 -0.3956
  880MOL0     C16061   3.934   0.832   8.531  0.6636 -1.0450  0.3029
  880MOL0     C16062   4.023   0.790   8.631  0.0843 -0.0061  0.6939
  880MOL0     O16063   4.152   0.759   8.586  0.5105  0.0585 -0.5437
  880MOL0     C16064   4.225   0.696   8.691  0.1402  0.4325  0.6992
  880MOL0     C16065   4.346   0.628   8.632 -0.6363  0.2498 -0.3812
  880MOL0     C16066   4.433   0.722   8.552  0.3582 -0.6476  0.6780
  880MOL0     C16067   4.575   0.662   8.524 -0.1507  0.0889  0.2594
  880MOL0     C16068   4.621   0.688   8.378 -0.3858 -0.0868  0.8973
  880MOL0     C16069   4.645   0.841   8.350  0.1410 -0.6145 -0.4705
  880MOL0     C16070   4.725   0.848   8.214  0.1779 -0.2094  0.2339
  880MOL0     C16071   4.854   0.930   8.236  0.5118  0.1366  0.9649
  880MOL0    Cl16072   4.937   0.942   8.081 -0.0442 -0.1387  0.2648
  880MOL0     C16073   3.960   0.769   8.761  0.3326  0.0332  0.0987
  880MOL0     C16074   3.830   0.814   8.781  0.1897 -0.2149  0.3995
  880MOL0     O16075   3.536   0.678   8.742 -0.0530 -0.5820 -0.4326
  880MOL0     C16076   3.273   0.754   8.722  0.0392  0.3265  0.2101
  880MOL0     C16077   3.140   0.801   8.723 -0.0596  0.1378 -0.7277
  880MOL0     N16078   2.363   0.768   8.820 -0.0256  0.3311  0.5158
  880MOL0     N16079   2.284   0.700   8.891 -0.3059  0.3166 -0.5385
  880MOL0     C16080   2.954   0.388   9.301  0.1476 -0.2329  0.0916
  880MOL0     C16081   3.086   0.388   9.244 -0.0465  0.2620 -0.2759
  880MOL0     C16082   3.545   0.361   9.193 -0.3932  0.3900  0.4115
  880MOL0     C16083   3.679   0.313   9.229  0.2808 -0.1258  0.1972
  880MOL0     C16084   3.792   0.347   9.154  0.0674 -0.6636 -0.3550
  880MOL0     C16085   3.777   0.423   9.038 -0.3162  0.5114 -0.0064
  880MOL0     O16086   3.892   0.444   8.963 -0.2636 -0.1629  0.0410
  880MOL0     C16087   3.974   0.336   8.895 -0.0391 -0.2797 -0.2348
  880MOL0     C16088   3.941   0.318   8.750 -0.0213 -0.0532 -0.6628
  880MOL0     C16089   3.807   0.258   8.724 -0.0351  0.6910 -0.8021
  880MOL0     C16090   3.732   0.343   8.631  0.3664 -1.3857  0.6265
  880MOL0     C16091   3.614   0.277   8.589 -0.4389 -0.4541 -0.2485
  880MOL0     C16092   3.528   0.208   8.542  0.7749  0.1808  0.2433
  880MOL0     C16093   3.654   0.472   9.007 -0.5636 -0.4492  0.0706
  880MOL0     C16094   3.541   0.439   9.072  0.0472  0.2797 -0.9376
  880MOL0     H16095   3.274   0.335   9.522  1.0866  0.6478 -1.8657
  880MOL0     H16096   3.044   0.327   9.617 -0.2794 -0.6371 -0.4183
  880MOL0     H16097   2.810   0.592   9.459 -0.7221 -0.6640 -1.0799
  880MOL0     H16098   2.903   0.554   9.608 -0.7129 -2.5781  1.5220
  880MOL0     H16099   2.682   0.663   9.651 -0.5730 -0.3449  0.0563
  880MOL0     H16100   2.693   0.492   9.707 -0.0439 -2.5424 -1.9215
  880MOL0     H16101   2.481   0.504   9.622  0.5556  0.7132  0.5544
  880MOL0     H16102   2.582   0.427   9.496 -2.8114 -1.2556  0.9320
  880MOL0     H16103   2.475   0.712   9.508  0.3840 -0.4556  0.6586
  880MOL0     H16104   2.599   0.660   9.396  1.7781 -0.0080  1.3338
  880MOL0     H16105   2.313   0.542   9.448 -3.1732  1.6475 -3.5148
  880MOL0     H16106   2.434   0.461   9.340 -0.6932 -0.0844 -1.5285
  880MOL0     H16107   2.435   0.656   9.195 -0.3958 -0.4765 -1.3713
  880MOL0     H16108   2.320   0.740   9.299  0.1375  0.4052 -2.1407
  880MOL0     H16109   2.283   0.515   9.108  2.1804  1.0099  0.2684
  880MOL0     H16110   2.168   0.531   9.255 -1.9146  3.2799  1.1870
  880MOL0     H16111   2.133   0.771   9.176 -0.2301 -1.3769  0.6603
  880MOL0     H16112   2.073   0.670   9.051 -2.0076  3.2931  2.4720
  880MOL0     H16113   2.320   0.958   9.091 -5.3245  1.3095 -0.4859
  880MOL0     H16114   2.540   1.038   8.943 -0.2639  1.1013 -0.0267
  880MOL0     H16115   2.488   1.018   8.770 -0.3988 -3.4796 -1.6164
  880MOL0     H16116   2.603   0.819   8.728 -0.5382 -0.3504  0.5455
  880MOL0     H16117   2.659   0.807   8.890  1.6408 -0.6146 -1.4477
  880MOL0     H16118   2.728   1.033   8.676  1.2340  2.0323  1.5302
  880MOL0     H16119   2.760   1.050   8.844 -0.9579 -0.2045  0.4125
  880MOL0     H16120   2.860   0.816   8.677  1.6871  1.8133 -3.0945
  880MOL0     H16121   2.894   0.847   8.845 -1.0314 -3.0712 -1.0859
  880MOL0     H16122   3.193   1.131   8.656  0.1470  0.0285  0.5638
  880MOL0     H16123   3.412   1.060   8.669 -2.3439  2.7667 -0.7878
  880MOL0     H16124   3.749   0.894   8.470 -0.9161 -1.0556 -0.1591
  880MOL0     H16125   3.966   0.850   8.429  0.1258 -0.5778  0.2133
  880MOL0     H16126   4.170   0.616   8.741  0.4196 -2.9425 -3.7990
  880MOL0     H16127   4.262   0.771   8.761  2.3578  0.1085 -0.0414
  880MOL0     H16128   4.315   0.558   8.553 -0.4311  1.8121 -1.9271
  880MOL0     H16129   4.404   0.582   8.712  0.2242  1.9916  0.0498
  880MOL0     H16130   4.451   0.817   8.604  2.5287 -1.5806  1.7521
  880MOL0     H16131   4.392   0.748   8.454  0.3837  2.7190  1.4254
  880MOL0     H16132   4.644   0.701   8.599  1.5908 -0.7465 -0.8407
  880MOL0     H16133   4.578   0.552   8.523  3.2388  0.0793  1.1754
  880MOL0     H16134   4.545   0.649   8.310  0.6780  2.0143 -1.6801
  880MOL0     H16135   4.708   0.627   8.351 -1.4868 -1.3500  0.0972
  880MOL0     H16136   4.701   0.887   8.432 -0.4924  0.4567 -0.6253
  880MOL0     H16137   4.552   0.897   8.336 -0.0074 -0.8810 -0.5522
  880MOL0     H16138   4.737   0.748   8.172  1.3857  0.7310 -1.8268
  880MOL0     H16139   4.669   0.895   8.132  1.2112 -2.7317 -2.0960
  880MOL0     H16140   4.922   0.890   8.312  0.1193 -1.0377  0.7160
  880MOL0     H16141   4.843   1.034   8.269  3.3325  0.1683  2.0515
  880MOL0     H16142   4.016   0.730   8.846  2.6304  1.4488 -0.6438
  880MOL0     H16143   3.789   0.808   8.882 -0.4999 -0.0234  0.1324
  880MOL0     H16144   3.310   0.652   8.717 -0.8643  0.0746 -2.2639
  880MOL0     H16145   3.071   0.718   8.728 -3.3013  2.7024 -0.0665
  880MOL0     H16146   2.865   0.419   9.247 -0.3894  0.0686  1.1191
  880MOL0     H16147   3.095   0.392   9.136 -1.1354 -3.2621 -0.6262
  880MOL0     H16148   3.698   0.249   9.315 -2.5285 -2.6549 -0.8582
  880MOL0     H16149   3.886   0.302   9.183 -0.7088 -2.3772 -0.3648
  880MOL0     H16150   3.981   0.244   8.954  0.3933  1.0246  1.8694
  880MOL0     H16151   4.079   0.367   8.896 -0.2781  0.5403  0.3031
  880MOL0     H16152   3.951   0.413   8.696 -0.3637 -0.1227 -0.8504
  880MOL0     H16153   4.016   0.250   8.710  2.5848  0.2181  3.2060
  880MOL0     H16154   3.769   0.245   8.826  0.3563 -0.0774 -0.7433
  880MOL0     H16155   3.809   0.159   8.678 -1.4427 -1.1722  2.7569
  880MOL0     H16156   3.709   0.437   8.681 -0.0331 -1.3060  0.3005
  880MOL0     H16157   3.791   0.369   8.542  2.3762 -3.7634  1.1522
  880MOL0     H16158   3.458   0.147   8.490 -0.8816  2.4435 -0.3642
  880MOL0     H16159   3.650   0.540   8.922  3.4167 -1.0417 -0.8219
  880MOL0     H16160   3.444   0.482   9.051  0.1378 -0.2527 -2.5752
  881MOL0     O16161   4.830  11.111   2.284 -0.1087 -0.5422 -0.8420
  881MOL0     C16162   4.838  11.013   2.220  0.4194  0.6188  0.1513
  881MOL0     O16163   4.734  10.928   2.179 -0.0909  0.2146 -0.6732
  881MOL0     C16164   4.610  10.950   2.195  0.9777  0.2984  0.6085
  881MOL0     C16165   4.553  11.043   2.289  1.0925  0.2039  0.4081
  881MOL0     C16166   4.414  11.058   2.312 -0.2383  0.3809 -0.1133
  881MOL0     C16167   4.326  10.983   2.231 -0.0170 -0.6601  0.1536
  881MOL0     O16168   4.193  11.001   2.233 -0.0427 -0.1689 -0.5167
  881MOL0     C16169   4.161  11.139   2.238 -0.4439  1.0391  0.0545
  881MOL0     C16170   4.010  11.169   2.208  1.1035 -0.2616  0.6021
  881MOL0     C16171   3.976  11.154   2.056  0.4124  0.1220  0.1595
  881MOL0     C16172   3.827  11.167   2.014 -0.1861 -0.5918  0.6234
  881MOL0     C16173   3.741  11.053   2.064  0.3912 -0.4218  0.1469
  881MOL0     C16174   3.606  11.016   1.992 -0.4285  0.4414  0.7098
  881MOL0     C16175   3.533  11.137   1.972  0.1057  0.7291 -0.3002
  881MOL0     C16176   3.384  11.106   1.936 -1.2044 -0.2765 -0.8614
  881MOL0     N16177   3.307  11.229   1.933 -0.1601  0.5620  0.4249
  881MOL0     C16178   3.250  11.295   2.037  0.3912 -0.1772 -0.1886
  881MOL0     C16179   3.164  11.392   1.982  0.4270  0.0242 -0.0981
  881MOL0     C16180   3.095  11.504   2.059  0.2221  1.2508  0.3681
  881MOL0     C16181   2.958  11.479   2.119 -0.9334  0.3777  0.6715
  881MOL0     C16182   2.893  11.609   2.170 -0.2738  0.0014 -0.3564
  881MOL0     C16183   2.779  11.584   2.276 -0.3018  0.1063 -0.5215
  881MOL0     O16184   2.690  11.478   2.232 -0.8943  0.1657 -0.2679
  881MOL0     C16185   2.558  11.460   2.268  0.8084  0.6169  0.3797
  881MOL0     C16186   2.495  11.350   2.212  0.6085 -0.4754  0.9751
  881MOL0     C16187   2.355  11.324   2.229  0.0967 -0.2149  0.4034
  881MOL0     C16188   2.278  11.418   2.299 -0.3437  0.1280 -0.6952
  881MOL0     C16189   2.133  11.411   2.303 -0.6130  0.6318  0.3460
  881MOL0     O16190   2.058  11.518   2.339 -0.3952 -0.5999  0.5274
  881MOL0     C16191   1.922  11.506   2.334 -0.5061 -0.4050 -0.6925
  881MOL0     C16192   1.849  11.547   2.227  0.7483  0.2709  0.3487
  881MOL0     C16193   1.708  11.517   2.219  0.7617 -0.7542 -0.7633
  881MOL0     C16194   1.646  11.471   2.333  0.5012  0.1606 -0.4456
  881MOL0     O16195   1.507  11.450   2.349  0.7280 -0.0909  0.1349
  881MOL0     C16196   1.414  11.500   2.252 -0.3522  0.2302 -0.0059
  881MOL0     C16197   1.283  11.424   2.264  0.8050 -0.5163 -0.4263
  881MOL0     C16198   1.209  11.412   2.400 -0.3252 -0.2155 -0.2349
  881MOL0     C16199   1.082  11.320   2.408 -0.2962  0.2489 -0.4152
  881MOL0     C16200   0.996  11.332   2.536 -0.1343  0.0958  0.7171
  881MOL0     C16201   1.078  11.314   2.665 -0.1068  0.2700  0.0594
  881MOL0     C16202   0.997  11.354   2.787  0.2582 -1.1879  0.5084
  881MOL0     C16203   1.076  11.357   2.911  0.2859  0.4293 -0.6461
  881MOL0    Cl16204   0.971  11.403   3.047  0.1726 -0.3485  0.3432
  881MOL0     C16205   1.721  11.437   2.441  0.5831  0.2370  0.4886
  881MOL0     C16206   1.854  11.458   2.444  0.6545  0.6168 -0.2558
  881MOL0     O16207   2.092  11.303   2.269  0.3956  0.6187  0.6972
  881MOL0     C16208   2.344  11.521   2.364 -0.7455 -0.1558 -0.3483
  881MOL0     C16209   2.482  11.543   2.352 -0.1700 -0.0836  1.2582
  881MOL0     N16210   3.165  11.384   1.844  0.4440 -0.5149  0.6575
  881MOL0     N16211   3.250  11.288   1.818  0.2066 -0.3317  0.2351
  881MOL0     C16212   4.378  10.910   2.124 -0.6785  0.4927  0.2607
  881MOL0     C16213   4.513  10.878   2.118  0.0022 -0.4982 -0.2521
  881MOL0     C16214   4.974  10.975   2.173  0.1881 -0.3561  0.9473
  881MOL0     C16215   5.094  11.013   2.236 -0.6570 -0.2721  0.1975
  881MOL0     C16216   5.214  10.984   2.170  0.0240  0.3143 -0.3651
  881MOL0     C16217   5.226  10.905   2.055  0.6955  0.1109  0.3190
  881MOL0     O16218   5.343  10.873   1.992 -0.4780  0.2914  0.6618
  881MOL0     C16219   5.462  10.910   2.043  0.4857  0.5618 -0.5743
  881MOL0     C16220   5.571  10.883   1.930  0.7786  0.3869 -0.6164
  881MOL0     C16221   5.682  10.780   1.965  0.4204 -0.6287  0.1641
  881MOL0     C16222   5.799  10.787   1.869  0.0115 -0.0607  0.8838
  881MOL0     C16223   5.897  10.677   1.902 -0.8523 -1.0485 -0.5689
  881MOL0     C16224   5.963  10.584   1.928 -0.4544 -0.1993 -0.6232
  881MOL0     C16225   5.105  10.856   2.002 -0.3505  0.2345 -0.6550
  881MOL0     C16226   4.986  10.886   2.063  0.3494 -0.0534 -0.9436
  881MOL0     H16227   4.623  11.101   2.348  0.3216  2.5093 -0.8483
  881MOL0     H16228   4.382  11.118   2.397 -0.6182  0.6453 -0.4399
  881MOL0     H16229   4.233  11.186   2.170  2.2948 -1.4754  1.0070
  881MOL0     H16230   4.187  11.184   2.333 -2.1063  1.4145  0.3692
  881MOL0     H16231   3.983  11.268   2.246  2.7035  1.3771 -2.2177
  881MOL0     H16232   3.945  11.100   2.262  0.7499  0.5167  1.1970
  881MOL0     H16233   4.021  11.059   2.024  2.0612 -0.2359  3.1789
  881MOL0     H16234   4.035  11.232   2.006  1.1855 -1.8005 -2.1449
  881MOL0     H16235   3.790  11.260   2.060  3.9790  0.9405  1.3608
  881MOL0     H16236   3.810  11.159   1.907 -0.9905 -3.2771  0.8941
  881MOL0     H16237   3.722  11.065   2.172 -0.9154 -0.4319 -0.0661
  881MOL0     H16238   3.797  10.959   2.066  0.4205 -0.5331 -2.7102
  881MOL0     H16239   3.548  10.942   2.048 -0.7908 -1.1664 -1.6512
  881MOL0     H16240   3.627  10.976   1.893  0.2885  2.0574  0.1820
  881MOL0     H16241   3.529  11.189   2.068 -1.1131 -1.6385  1.0256
  881MOL0     H16242   3.568  11.202   1.891  0.9398  0.1767 -0.4015
  881MOL0     H16243   3.335  11.040   2.008  1.6605 -2.2753 -0.5551
  881MOL0     H16244   3.377  11.061   1.837 -1.8187 -0.8515 -0.5624
  881MOL0     H16245   3.273  11.289   2.143  1.5669  1.0879 -0.3419
  881MOL0     H16246   3.077  11.584   1.987 -0.2770 -1.1988 -2.4848
  881MOL0     H16247   3.166  11.541   2.133  0.0433  1.2456  0.5419
  881MOL0     H16248   2.973  11.405   2.198 -0.8791 -2.3992 -1.7824
  881MOL0     H16249   2.880  11.444   2.051 -0.4935  1.4500 -0.4295
  881MOL0     H16250   2.973  11.674   2.208  1.4282 -2.0126 -0.3299
  881MOL0     H16251   2.847  11.660   2.085 -1.2987  1.4850  1.0225
  881MOL0     H16252   2.724  11.678   2.285 -0.1099  0.3577 -1.8300
  881MOL0     H16253   2.818  11.565   2.376 -0.1303  0.4821 -0.5164
  881MOL0     H16254   2.545  11.276   2.151  2.2603  2.0604 -0.9357
  881MOL0     H16255   2.321  11.237   2.172 -1.0368  0.3729  0.1568
  881MOL0     H16256   1.897  11.576   2.135  3.0344  0.9410  1.6684
  881MOL0     H16257   1.650  11.545   2.132 -0.4303  1.4261  0.6235
  881MOL0     H16258   1.450  11.481   2.150 -1.7297 -0.6406 -0.3511
  881MOL0     H16259   1.401  11.608   2.257 -1.3754  0.3473 -3.0991
  881MOL0     H16260   1.302  11.324   2.224  1.0047  0.0247 -1.7352
  881MOL0     H16261   1.213  11.471   2.194  0.2462  1.4525  1.3790
  881MOL0     H16262   1.181  11.512   2.435  1.3498  0.9811 -2.0716
  881MOL0     H16263   1.281  11.372   2.473 -1.0182 -1.8294 -0.4134
  881MOL0     H16264   1.007  11.331   2.329 -2.6563 -1.5395  1.4176
  881MOL0     H16265   1.125  11.219   2.412  3.1292  1.6013  0.5333
  881MOL0     H16266   0.910  11.270   2.510  0.8490  0.0680 -2.9756
  881MOL0     H16267   0.975  11.439   2.528 -0.5522 -0.1336 -3.2903
  881MOL0     H16268   1.161  11.386   2.661  0.7856 -0.6995  0.4620
  881MOL0     H16269   1.116  11.212   2.670 -0.8394 -0.1483 -2.1275
  881MOL0     H16270   0.968  11.458   2.775  1.2338 -0.8957  0.5658
  881MOL0     H16271   0.916  11.281   2.788  1.2153 -2.2854  1.1629
  881MOL0     H16272   1.166  11.418   2.914  0.0685  0.7187  1.4937
  881MOL0     H16273   1.105  11.254   2.934 -1.0974 -0.1650 -1.3963
  881MOL0     H16274   1.659  11.411   2.526 -2.3093  5.3819  0.3672
  881MOL0     H16275   1.899  11.413   2.531 -3.9229 -1.1905  1.5105
  881MOL0     H16276   2.284  11.586   2.427 -0.6876  0.3478 -0.8066
  881MOL0     H16277   2.529  11.637   2.380 -0.2841  2.7088 -5.7706
  881MOL0     H16278   4.319  10.854   2.052  0.4828 -3.0143  1.8502
  881MOL0     H16279   4.557  10.803   2.054  3.1382  0.7245  0.2764
  881MOL0     H16280   5.091  11.076   2.324 -0.0228  0.5365 -0.3486
  881MOL0     H16281   5.295  11.021   2.232  0.2608  1.5141 -1.3484
  881MOL0     H16282   5.481  10.851   2.133  0.6907  1.7957  0.2216
  881MOL0     H16283   5.475  11.013   2.079 -2.2521  0.4298  1.1075
  881MOL0     H16284   5.517  10.835   1.848  3.1657 -1.2569 -1.3406
  881MOL0     H16285   5.617  10.972   1.886  0.3639  0.8989 -0.0295
  881MOL0     H16286   5.645  10.678   1.955  1.9805 -1.6684  3.4654
  881MOL0     H16287   5.706  10.783   2.072 -1.9229 -0.0577  0.7322
  881MOL0     H16288   5.768  10.762   1.768  1.4115 -1.7708  0.8317
  881MOL0     H16289   5.841  10.888   1.871 -0.1632  0.0766 -0.9255
  881MOL0     H16290   6.021  10.504   1.970 -1.0380  1.0135  2.8140
  881MOL0     H16291   5.121  10.793   1.915 -0.8865 -0.8858  0.0335
  881MOL0     H16292   4.895  10.843   2.024  1.1220 -1.1115 -1.6305
  882MOL0     O16293   6.170   7.919   5.454  0.2216  0.2687 -0.4726
  882MOL0     C16294   6.155   7.900   5.336 -0.4849 -0.2567  0.3021
  882MOL0     O16295   6.245   7.856   5.253 -0.3072  0.3286  0.4445
  882MOL0     C16296   6.379   7.830   5.306  0.8992  0.0965 -0.2388
  882MOL0     C16297   6.418   7.698   5.339  0.3437  0.8257  0.8289
  882MOL0     C16298   6.557   7.670   5.374  0.6156 -0.5640 -0.4745
  882MOL0     C16299   6.648   7.768   5.389  0.7817 -1.0928  0.5991
  882MOL0     O16300   6.776   7.754   5.425  0.2649  0.3207 -0.4015
  882MOL0     C16301   6.830   7.616   5.413  0.3911  0.4145  0.0052
  882MOL0     C16302   6.985   7.635   5.430  0.7071  0.1838 -0.2174
  882MOL0     C16303   7.059   7.502   5.442  0.7629  0.3743 -0.5080
  882MOL0     C16304   7.201   7.528   5.426  0.0701 -0.0148 -0.5181
  882MOL0     C16305   7.293   7.409   5.453 -0.9662  1.0172 -0.5301
  882MOL0     C16306   7.445   7.421   5.393  0.3621  0.2211  0.1494
  882MOL0     C16307   7.506   7.560   5.399 -0.3976  0.3563 -0.3385
  882MOL0     C16308   7.551   7.588   5.543 -0.9609  0.2471 -0.7750
  882MOL0     N16309   7.659   7.494   5.580 -0.8816 -0.6526  0.8014
  882MOL0     C16310   7.773   7.478   5.504  0.4249 -0.1625 -0.3151
  882MOL0     C16311   7.838   7.380   5.565  0.0427  0.3000 -0.6196
  882MOL0     C16312   7.969   7.337   5.516  0.2843 -0.3905 -1.7410
  882MOL0     C16313   7.984   7.320   5.367 -0.4097  0.4166 -0.1961
  882MOL0     C16314   7.884   7.224   5.308  0.2225  0.2030  0.6235
  882MOL0     C16315   7.876   7.237   5.156 -0.0846  0.1250  0.7592
  882MOL0     O16316   7.777   7.158   5.088 -0.3262  0.2480  0.0022
  882MOL0     C16317   7.654   7.212   5.055 -0.2275 -0.0843  0.8358
  882MOL0     C16318   7.541   7.150   5.112  1.1373  0.6565 -0.1860
  882MOL0     C16319   7.411   7.206   5.092 -1.0083  0.6257  0.2370
  882MOL0     C16320   7.395   7.312   5.003 -0.5581 -0.6385 -0.0758
  882MOL0     C16321   7.266   7.380   4.967 -1.0020  0.1056 -0.3199
  882MOL0     O16322   7.175   7.368   5.064  0.6252 -0.1101 -0.0768
  882MOL0     C16323   7.049   7.427   5.041  0.0278  0.7747  0.0798
  882MOL0     C16324   7.014   7.562   5.068 -0.0976 -0.0025 -0.1046
  882MOL0     C16325   6.886   7.611   5.046  0.4940  1.0810  0.5297
  882MOL0     C16326   6.781   7.516   5.014  0.8662 -0.6585 -0.1217
  882MOL0     O16327   6.660   7.578   5.007  0.0189 -0.4906 -0.0880
  882MOL0     C16328   6.543   7.512   4.970 -0.3251 -1.0392  0.1025
  882MOL0     C16329   6.434   7.615   4.938  0.0925 -0.3138  0.3422
  882MOL0     C16330   6.293   7.580   4.979 -0.4981 -0.2889  0.0944
  882MOL0     C16331   6.175   7.679   4.945 -1.3549 -0.2061  0.5187
  882MOL0     C16332   6.040   7.607   4.946 -0.2510 -0.4891 -0.0470
  882MOL0     C16333   5.941   7.678   4.840  0.7505 -0.7461 -0.2605
  882MOL0     C16334   5.896   7.817   4.883 -0.3082  0.9359 -0.4024
  882MOL0     C16335   5.829   7.912   4.780 -0.4755  0.3502  0.4232
  882MOL0    Cl16336   5.947   7.972   4.652  0.2507 -0.1963 -0.3058
  882MOL0     C16337   6.817   7.382   4.989  0.0511 -1.2224 -0.5695
  882MOL0     C16338   6.952   7.344   5.003  0.8218  0.1587  1.1697
  882MOL0     O16339   7.258   7.440   4.859  0.6349  0.6291  0.0939
  882MOL0     C16340   7.512   7.365   4.938 -0.8297 -0.4656 -1.2524
  882MOL0     C16341   7.642   7.313   4.969  1.0132  0.8633 -0.0774
  882MOL0     N16342   7.777   7.346   5.686 -0.3863 -0.5159 -0.0101
  882MOL0     N16343   7.663   7.412   5.695 -0.4627  0.1252 -0.0978
  882MOL0     C16344   6.610   7.897   5.357  0.1269 -0.1536  0.7935
  882MOL0     C16345   6.479   7.931   5.319  0.1119  0.4258  0.5447
  882MOL0     C16346   6.034   7.962   5.278  0.1457 -0.0054 -0.5046
  882MOL0     C16347   5.914   7.968   5.362 -0.1971 -1.1739  1.0446
  882MOL0     C16348   5.805   8.028   5.306  0.6513  0.7423 -0.1786
  882MOL0     C16349   5.794   8.080   5.179 -0.4226  0.7259  0.5540
  882MOL0     O16350   5.691   8.128   5.098 -0.2189 -0.1934  0.5043
  882MOL0     C16351   5.572   8.160   5.164 -1.0685 -0.0965  0.6699
  882MOL0     C16352   5.584   8.280   5.259 -1.0566  0.5346  0.5768
  882MOL0     C16353   5.612   8.409   5.181 -0.0885  0.5526  0.5921
  882MOL0     C16354   5.633   8.531   5.277  0.0126  0.9191 -0.7006
  882MOL0     C16355   5.651   8.659   5.209  0.4407  0.7735 -0.0214
  882MOL0     C16356   5.660   8.772   5.152 -0.6754  0.4814  0.6941
  882MOL0     C16357   5.906   8.062   5.100  0.2480  0.3996  0.2803
  882MOL0     C16358   6.027   8.007   5.144 -1.1060  0.1749 -0.4487
  882MOL0     H16359   6.342   7.622   5.354  0.5809  0.4903  0.3570
  882MOL0     H16360   6.599   7.573   5.400 -0.2812 -0.4666  1.4965
  882MOL0     H16361   6.803   7.578   5.315 -2.4057  3.2946 -0.4967
  882MOL0     H16362   6.795   7.553   5.495  0.5286 -0.5976 -0.7084
  882MOL0     H16363   7.011   7.688   5.522 -0.7251  1.7473 -0.6737
  882MOL0     H16364   7.023   7.697   5.348  0.5197  2.6801  1.4811
  882MOL0     H16365   7.028   7.440   5.357 -4.4399  0.4306  0.9931
  882MOL0     H16366   7.024   7.462   5.538  0.1712  0.3140 -0.7430
  882MOL0     H16367   7.228   7.571   5.329 -1.5363  0.7080 -0.6800
  882MOL0     H16368   7.224   7.608   5.497  1.3688 -2.0840  1.5272
  882MOL0     H16369   7.239   7.326   5.407  1.0218 -1.2641  0.9399
  882MOL0     H16370   7.302   7.381   5.559  1.8426  2.0617 -0.4161
  882MOL0     H16371   7.444   7.382   5.291  0.9833 -0.1010  0.2601
  882MOL0     H16372   7.498   7.346   5.453 -0.6858 -2.4292 -2.0000
  882MOL0     H16373   7.590   7.572   5.330 -0.1711  0.6185 -0.0193
  882MOL0     H16374   7.447   7.647   5.368  3.3766  2.9867 -0.8238
  882MOL0     H16375   7.463   7.591   5.609 -1.9566  1.6569 -2.0930
  882MOL0     H16376   7.594   7.688   5.558 -0.2127 -0.2941  0.9969
  882MOL0     H16377   7.807   7.537   5.420  0.2534 -0.0969 -0.3390
  882MOL0     H16378   7.994   7.242   5.565  1.0237  0.0243 -1.3001
  882MOL0     H16379   8.048   7.404   5.552 -2.5359  2.0313  0.4935
  882MOL0     H16380   8.078   7.268   5.348 -0.8491 -0.5010  0.0924
  882MOL0     H16381   7.987   7.417   5.317 -0.5076  0.4072 -0.2221
  882MOL0     H16382   7.913   7.120   5.326  2.1314  0.8940  1.8768
  882MOL0     H16383   7.783   7.251   5.337 -0.2058  1.8690 -2.0346
  882MOL0     H16384   7.976   7.220   5.115 -0.1607 -0.2275  0.7158
  882MOL0     H16385   7.845   7.341   5.140 -2.4486 -0.4716  1.1964
  882MOL0     H16386   7.541   7.070   5.186 -0.8085  0.6066 -0.1864
  882MOL0     H16387   7.322   7.157   5.131  0.3046 -0.0345  2.5858
  882MOL0     H16388   7.091   7.630   5.102  0.0261 -0.5698  0.7659
  882MOL0     H16389   6.845   7.711   5.061 -1.8265  0.9403 -3.5125
  882MOL0     H16390   6.517   7.459   5.061 -1.2548  0.9267  1.0543
  882MOL0     H16391   6.560   7.448   4.883 -0.6012 -3.3732  1.6974
  882MOL0     H16392   6.435   7.639   4.831 -0.7652  0.8888  0.5856
  882MOL0     H16393   6.473   7.708   4.979  0.6654 -0.5345  0.3122
  882MOL0     H16394   6.297   7.570   5.088  1.7582  1.9438  0.3024
  882MOL0     H16395   6.268   7.484   4.932 -2.8508  1.4731 -2.6094
  882MOL0     H16396   6.167   7.757   5.021 -0.3496 -1.0963  1.5997
  882MOL0     H16397   6.194   7.726   4.848  0.3282  1.8805  1.7744
  882MOL0     H16398   5.985   7.622   5.039 -2.1200  1.6222 -1.3836
  882MOL0     H16399   6.038   7.504   4.910 -3.4014 -0.0556 -1.4833
  882MOL0     H16400   5.845   7.627   4.826 -1.1205  2.8653 -1.7697
  882MOL0     H16401   5.990   7.673   4.743 -0.3720  1.2727 -0.9759
  882MOL0     H16402   5.832   7.807   4.971  2.7720  0.9327  2.0261
  882MOL0     H16403   5.981   7.877   4.919 -0.4499  0.3265  1.0448
  882MOL0     H16404   5.788   8.000   4.830  0.2289  1.1362 -0.3417
  882MOL0     H16405   5.742   7.868   4.730 -0.2843 -1.0490  1.2780
  882MOL0     H16406   6.741   7.309   4.964  1.4068 -2.7845 -0.3291
  882MOL0     H16407   6.973   7.240   4.982  0.3327  0.0552  1.1683
  882MOL0     H16408   7.512   7.446   4.867  3.2828  0.1393 -0.7975
  882MOL0     H16409   7.729   7.357   4.921 -0.1969  1.1167 -2.1981
  882MOL0     H16410   6.687   7.973   5.361 -0.6058  0.8204 -1.5332
  882MOL0     H16411   6.455   8.036   5.301 -0.4472  0.3598  0.8928
  882MOL0     H16412   5.911   7.932   5.464 -0.2941 -1.5099  0.9227
  882MOL0     H16413   5.719   8.024   5.372  0.1626 -1.8472 -0.8507
  882MOL0     H16414   5.546   8.077   5.230  1.8106 -0.6735  1.2111
  882MOL0     H16415   5.489   8.179   5.095 -0.6575  0.9411  0.4437
  882MOL0     H16416   5.484   8.284   5.303 -1.6485 -0.3928 -0.6299
  882MOL0     H16417   5.656   8.257   5.339 -0.6744 -3.0682 -0.6053
  882MOL0     H16418   5.527   8.447   5.123  0.3466  1.1247  0.3156
  882MOL0     H16419   5.706   8.386   5.129 -0.4870 -0.7012  0.3849
  882MOL0     H16420   5.545   8.531   5.341 -0.9263 -1.3207 -1.8440
  882MOL0     H16421   5.715   8.497   5.341 -0.0880 -0.2206 -1.1442
  882MOL0     H16422   5.650   8.862   5.094 -1.0777 -0.2797 -0.4719
  882MOL0     H16423   5.901   8.087   4.994 -0.6661 -1.8377 -0.2581
  882MOL0     H16424   6.121   8.004   5.090 -1.5542 -1.8407 -1.2111
  883MOL0     O16425   4.044   9.324   8.927  0.6985 -0.0720 -0.1557
  883MOL0     C16426   4.102   9.222   8.974  0.5542 -0.8530 -0.0928
  883MOL0     O16427   4.046   9.139   9.066 -0.1682 -0.1321 -0.0053
  883MOL0     C16428   3.923   9.165   9.133 -1.4545 -0.4673 -0.0647
  883MOL0     C16429   3.813   9.251   9.102  0.4996 -0.1385 -0.0997
  883MOL0     C16430   3.696   9.249   9.182  0.1374 -0.9944  0.8409
  883MOL0     C16431   3.693   9.182   9.307 -0.1878  0.4255 -0.0619
  883MOL0     O16432   3.592   9.184   9.404 -0.2861  0.3204  0.0780
  883MOL0     C16433   3.463   9.206   9.357 -0.0360 -1.1247  0.0410
  883MOL0     C16434   3.383   9.275   9.470  0.8073  0.0334  0.1563
  883MOL0     C16435   3.267   9.360   9.420 -0.5689  0.3232 -0.9115
  883MOL0     C16436   3.160   9.283   9.340 -0.5318 -0.0610 -0.1897
  883MOL0     C16437   3.075   9.209   9.439 -0.0236  0.5837  0.0786
  883MOL0     C16438   2.969   9.124   9.358 -0.0231  0.3720  0.2201
  883MOL0     C16439   2.874   9.038   9.441  0.5774  0.1328 -0.1934
  883MOL0     C16440   2.804   9.121   9.556  0.1570 -0.8919  0.6035
  883MOL0     N16441   2.716   9.224   9.500 -0.0843  0.0763 -0.7487
  883MOL0     C16442   2.622   9.202   9.395  0.9065  0.4256 -0.8253
  883MOL0     C16443   2.565   9.326   9.378 -0.3761 -0.6386 -1.1765
  883MOL0     C16444   2.451   9.346   9.289  0.9463  1.0759 -0.0167
  883MOL0     C16445   2.446   9.468   9.181  0.2953 -0.3428 -0.3787
  883MOL0     C16446   2.562   9.464   9.089 -0.7302  0.8619  0.2048
  883MOL0     C16447   2.691   9.506   9.157  0.6311 -0.2793  0.0631
  883MOL0     O16448   2.770   9.600   9.071  0.0839  0.0396  0.5185
  883MOL0     C16449   2.848   9.552   8.972 -0.2482  0.2294 -0.7667
  883MOL0     C16450   2.973   9.500   9.017  0.7189 -0.3450 -0.8417
  883MOL0     C16451   3.067   9.447   8.941 -0.7963 -0.2798 -0.4939
  883MOL0     C16452   3.047   9.439   8.805  0.2220  0.5150  0.3545
  883MOL0     C16453   3.153   9.375   8.714  0.7441  0.2911 -0.6928
  883MOL0     O16454   3.275   9.382   8.760  0.3794 -0.5973  0.4228
  883MOL0     C16455   3.385   9.327   8.698  0.1493 -0.0309 -0.1748
  883MOL0     C16456   3.387   9.279   8.564 -0.6198  0.1147 -0.2927
  883MOL0     C16457   3.505   9.236   8.509 -0.0202 -0.7140 -0.7753
  883MOL0     C16458   3.632   9.225   8.582  0.5466 -0.3413  0.9135
  883MOL0     O16459   3.752   9.172   8.530 -0.0577 -0.2944 -0.4554
  883MOL0     C16460   3.876   9.161   8.601 -0.3903 -0.6187 -0.2100
  883MOL0     C16461   3.962   9.051   8.545  0.0768  0.3745 -0.5948
  883MOL0     C16462   4.096   9.050   8.613  0.2486  0.7776  0.7316
  883MOL0     C16463   4.179   8.927   8.557 -0.8514  0.1920  0.5436
  883MOL0     C16464   4.304   8.901   8.639  1.0449 -0.0207 -0.1983
  883MOL0     C16465   4.350   8.761   8.611  0.4243 -0.2135 -0.1700
  883MOL0     C16466   4.484   8.707   8.652 -0.0867 -0.5461  0.3735
  883MOL0     C16467   4.488   8.564   8.629 -0.2456 -0.6263 -0.7952
  883MOL0    Cl16468   4.634   8.514   8.726 -0.1342  0.0507 -0.0385
  883MOL0     C16469   3.629   9.280   8.707 -0.2374 -1.1006 -0.0873
  883MOL0     C16470   3.506   9.329   8.767 -0.7498 -0.2554  0.2592
  883MOL0     O16471   3.116   9.336   8.609  0.1123  0.4752  0.3849
  883MOL0     C16472   2.922   9.493   8.753 -0.6231  0.6875  0.4554
  883MOL0     C16473   2.832   9.545   8.835 -0.1198  0.5095 -0.5085
  883MOL0     N16474   2.618   9.425   9.459  0.2710 -0.1747 -0.6744
  883MOL0     N16475   2.711   9.361   9.516 -0.7956 -0.9383 -0.0857
  883MOL0     C16476   3.804   9.100   9.339  0.3219  0.0194 -0.3604
  883MOL0     C16477   3.906   9.086   9.247 -0.5179  0.3683  0.5750
  883MOL0     C16478   4.239   9.189   8.930  0.4771 -1.2282 -0.1962
  883MOL0     C16479   4.315   9.094   8.995  0.3181  0.0943 -0.6532
  883MOL0     C16480   4.453   9.063   8.949 -0.0264 -1.0150 -0.0761
  883MOL0     C16481   4.510   9.142   8.856 -0.1250 -1.5233  0.0433
  883MOL0     O16482   4.640   9.126   8.817 -0.4950 -0.3020  0.0672
  883MOL0     C16483   4.720   9.024   8.877 -0.0303 -0.8178 -0.3870
  883MOL0     C16484   4.842   9.018   8.775  0.2984 -0.2850 -0.6977
  883MOL0     C16485   4.970   9.092   8.819  0.0129  0.2613  0.3219
  883MOL0     C16486   5.027   9.191   8.712 -0.0800  0.0989 -0.8457
  883MOL0     C16487   5.170   9.217   8.732 -0.0697 -0.1211 -1.4990
  883MOL0     C16488   5.289   9.234   8.769  0.4061  0.1203  0.1954
  883MOL0     C16489   4.431   9.231   8.789  0.3271 -0.8945 -0.4815
  883MOL0     C16490   4.301   9.263   8.831  0.1043  0.2438  0.4134
  883MOL0     H16491   3.816   9.312   9.012 -2.1925 -1.0044 -0.8845
  883MOL0     H16492   3.617   9.320   9.159 -0.6076 -1.5995  1.4398
  883MOL0     H16493   3.414   9.109   9.341 -5.0790  0.9801  0.7880
  883MOL0     H16494   3.446   9.267   9.268 -0.1152  0.0166  0.8205
  883MOL0     H16495   3.455   9.345   9.514 -0.8575  0.8485  1.7420
  883MOL0     H16496   3.352   9.203   9.546 -2.3200  1.6015  0.5381
  883MOL0     H16497   3.310   9.436   9.354  2.8322 -0.2000  0.5203
  883MOL0     H16498   3.219   9.412   9.504  1.0860  0.0039  0.2843
  883MOL0     H16499   3.104   9.363   9.289  0.0156  1.7144  1.8387
  883MOL0     H16500   3.203   9.210   9.271 -2.6303 -3.0576  1.4465
  883MOL0     H16501   3.009   9.279   9.492 -5.4179 -4.3782  1.0376
  883MOL0     H16502   3.126   9.141   9.507 -1.4449  2.9879  3.8754
  883MOL0     H16503   3.039   9.056   9.309  0.2604 -0.1020  1.2463
  883MOL0     H16504   2.913   9.182   9.284  0.2116  0.0772 -0.1907
  883MOL0     H16505   2.793   8.992   9.383 -1.5639  1.0656  1.9089
  883MOL0     H16506   2.925   8.951   9.483 -0.0780  0.9164  2.3653
  883MOL0     H16507   2.878   9.172   9.618  2.9126 -0.4141 -2.8174
  883MOL0     H16508   2.743   9.055   9.619 -2.3199 -0.5974 -1.3176
  883MOL0     H16509   2.599   9.112   9.339  1.4469 -0.1764 -0.1094
  883MOL0     H16510   2.362   9.359   9.351  1.3184 -1.2574  1.1280
  883MOL0     H16511   2.426   9.256   9.232 -1.0059  2.8867 -2.2400
  883MOL0     H16512   2.432   9.563   9.233 -2.6441 -0.2951 -1.0777
  883MOL0     H16513   2.356   9.443   9.125  0.0565 -1.2647  0.3977
  883MOL0     H16514   2.569   9.363   9.046  1.2530  0.5484  1.1361
  883MOL0     H16515   2.544   9.535   9.008 -3.3935  0.1484  0.0793
  883MOL0     H16516   2.755   9.424   9.189 -0.9551 -1.5293  0.1561
  883MOL0     H16517   2.677   9.577   9.239 -1.8120 -0.0581 -0.4644
  883MOL0     H16518   2.993   9.514   9.123 -0.6039 -1.2318 -0.4434
  883MOL0     H16519   3.159   9.419   8.992 -0.9318  1.0629  0.5506
  883MOL0     H16520   3.297   9.267   8.505 -0.5224 -0.5879 -0.3106
  883MOL0     H16521   3.481   9.195   8.412 -1.3022 -0.4126 -0.6013
  883MOL0     H16522   3.860   9.147   8.708  1.7085  1.0538  0.4051
  883MOL0     H16523   3.931   9.255   8.597  3.4616 -2.5059  2.0816
  883MOL0     H16524   3.956   9.067   8.437 -2.8532 -3.0047 -1.1229
  883MOL0     H16525   3.917   8.953   8.564  0.1721  0.7387  1.8313
  883MOL0     H16526   4.090   9.028   8.720 -2.4293 -1.1372  0.2744
  883MOL0     H16527   4.156   9.142   8.603 -1.0126  1.9799  3.2430
  883MOL0     H16528   4.130   8.830   8.551  0.1260 -0.2863 -0.0365
  883MOL0     H16529   4.221   8.943   8.458  0.2624 -1.5209  0.6944
  883MOL0     H16530   4.284   8.902   8.747 -1.1591 -0.7886 -0.5394
  883MOL0     H16531   4.378   8.975   8.607  0.5829  0.0559 -1.1086
  883MOL0     H16532   4.346   8.744   8.503 -0.8075 -2.8657  0.2031
  883MOL0     H16533   4.270   8.698   8.651 -1.1623  1.7488 -0.0409
  883MOL0     H16534   4.553   8.756   8.584 -1.2153  0.7854  0.1341
  883MOL0     H16535   4.497   8.717   8.760  0.8067  0.2384  0.2029
  883MOL0     H16536   4.484   8.541   8.522 -0.7952  0.0787 -0.9345
  883MOL0     H16537   4.403   8.513   8.677  1.5459 -3.4846 -0.4067
  883MOL0     H16538   3.723   9.293   8.760  0.8562  0.3206 -2.2225
  883MOL0     H16539   3.503   9.362   8.871 -1.7243  1.2480 -0.2194
  883MOL0     H16540   2.916   9.475   8.646  2.1856  2.1365 -0.0490
  883MOL0     H16541   2.738   9.576   8.792 -1.1756 -0.7432  0.8075
  883MOL0     H16542   3.790   9.045   9.432 -0.0789  3.1084  1.5464
  883MOL0     H16543   3.978   9.008   9.267 -0.6277  0.5745  1.8957
  883MOL0     H16544   4.270   9.040   9.078  0.4580  0.0950 -0.5756
  883MOL0     H16545   4.499   8.974   8.991  0.1183 -1.3658 -0.9623
  883MOL0     H16546   4.671   8.926   8.869  0.9193 -1.4096  0.7522
  883MOL0     H16547   4.749   9.042   8.981  0.5987 -1.3845 -0.4588
  883MOL0     H16548   4.866   8.912   8.762  3.7329  0.3232 -0.3015
  883MOL0     H16549   4.812   9.058   8.678  2.1840  0.7808 -0.8868
  883MOL0     H16550   5.038   9.008   8.836 -2.5808 -1.5987  2.4216
  883MOL0     H16551   4.956   9.134   8.919 -0.9507 -1.1108  0.8069
  883MOL0     H16552   5.028   9.157   8.609 -0.5471 -0.2591 -0.7324
  883MOL0     H16553   4.971   9.285   8.724  1.1623  0.7563  0.0946
  883MOL0     H16554   5.387   9.213   8.808 -0.1841 -0.5374  1.4144
  883MOL0     H16555   4.468   9.282   8.700  0.2438  0.6332  0.3264
  883MOL0     H16556   4.259   9.346   8.775  1.2484 -0.2582 -1.2611
  884MOL0     O16557   8.245   0.222   4.853 -0.0661  0.1521 -0.2274
  884MOL0     C16558   8.295   0.126   4.896 -0.4942 -0.1324 -0.4582
  884MOL0     O16559   8.256  -0.008   4.885 -0.0181 -0.0288  0.0662
  884MOL0     C16560   8.127  -0.036   4.847  0.3439  0.3136  1.5453
  884MOL0     C16561   8.017   0.029   4.894  0.1886 -1.4105 -0.5434
  884MOL0     C16562   7.891  -0.013   4.860  1.0122  0.7541  0.9315
  884MOL0     C16563   7.869  -0.113   4.764 -0.3733  0.7707 -0.2913
  884MOL0     O16564   7.740  -0.155   4.721  0.3445  0.2146 -0.8023
  884MOL0     C16565   7.624  -0.089   4.767 -0.2846  0.3203  0.1060
  884MOL0     C16566   7.517  -0.186   4.757 -0.8423  0.5510 -0.3703
  884MOL0     C16567   7.370  -0.139   4.776 -0.7727 -0.2356 -0.2716
  884MOL0     C16568   7.266  -0.253   4.764  0.3810 -0.0078  0.4695
  884MOL0     C16569   7.119  -0.219   4.795  0.6795  0.6694 -0.2675
  884MOL0     C16570   7.087  -0.157   4.933 -0.7868 -0.2804  1.0149
  884MOL0     C16571   7.088  -0.271   5.031  0.1555 -0.3199 -0.2327
  884MOL0     C16572   7.065  -0.213   5.171 -0.3126  0.6385 -0.4154
  884MOL0     N16573   7.079  -0.307   5.288  0.2293 -0.5879  0.3344
  884MOL0     C16574   7.193  -0.299   5.369  0.4681  0.8920  0.7535
  884MOL0     C16575   7.178  -0.406   5.447  0.0650  0.2026 -0.2289
  884MOL0     C16576   7.281  -0.458   5.547  0.5212 -0.3646 -0.6045
  884MOL0     C16577   7.322  -0.598   5.513 -0.8975 -0.6323 -0.3308
  884MOL0     C16578   7.402  -0.603   5.386 -0.0199  0.1133  0.0373
  884MOL0     C16579   7.385  -0.741   5.320  0.2538  0.1185  0.3496
  884MOL0     O16580   7.466  -0.749   5.201  0.0517 -0.0299 -0.0697
  884MOL0     C16581   7.402  -0.713   5.086  0.0523  0.2454 -0.5203
  884MOL0     C16582   7.269  -0.664   5.069 -0.0380 -0.4752 -0.3248
  884MOL0     C16583   7.220  -0.630   4.940  0.3952  0.3156 -0.1639
  884MOL0     C16584   7.295  -0.651   4.830  0.0642  0.4283  0.6498
  884MOL0     C16585   7.242  -0.627   4.700 -0.4356  0.0627  0.2547
  884MOL0     O16586   7.328  -0.644   4.590 -0.3861 -0.4443  0.2251
  884MOL0     C16587   7.282  -0.602   4.467 -0.0097 -0.3432 -0.7512
  884MOL0     C16588   7.198  -0.496   4.436  0.1414 -0.0622  0.0853
  884MOL0     C16589   7.144  -0.466   4.315 -0.4666 -0.4657 -0.4971
  884MOL0     C16590   7.180  -0.546   4.207 -0.1980  0.6352  0.1080
  884MOL0     O16591   7.137  -0.542   4.084 -0.0396 -0.4474 -0.5196
  884MOL0     C16592   7.009  -0.598   4.071 -0.0264  0.1577  0.5357
  884MOL0     C16593   6.906  -0.486   4.066  0.2747 -0.0796 -0.3258
  884MOL0     C16594   6.768  -0.528   4.007 -0.4185  0.2013  0.4954
  884MOL0     C16595   6.680  -0.409   4.015 -0.3809  0.3753 -0.0623
  884MOL0     C16596   6.538  -0.462   4.024  0.2900 -0.7264 -0.0698
  884MOL0     C16597   6.441  -0.363   3.983 -0.4611 -0.4029  0.5471
  884MOL0     C16598   6.293  -0.392   3.976 -0.9938  1.2605 -0.7123
  884MOL0     C16599   6.214  -0.295   3.891  0.4099 -0.4155 -0.9263
  884MOL0    Cl16600   6.039  -0.338   3.915  0.0032 -0.2903 -0.3236
  884MOL0     C16601   7.265  -0.659   4.231  0.1315 -1.4409  0.7316
  884MOL0     C16602   7.321  -0.682   4.361 -0.2483  0.7441  0.6331
  884MOL0     O16603   7.127  -0.583   4.691  0.1589 -0.4900  0.4151
  884MOL0     C16604   7.424  -0.709   4.839 -0.6781 -0.0858  0.3718
  884MOL0     C16605   7.483  -0.722   4.969 -0.2275  1.0626  0.2579
  884MOL0     N16606   7.048  -0.456   5.429 -1.3345  0.8390  0.3905
  884MOL0     N16607   6.988  -0.394   5.335 -0.6371 -0.2184  0.2667
  884MOL0     C16608   7.982  -0.185   4.710  0.4329 -0.1433  0.4597
  884MOL0     C16609   8.110  -0.138   4.752 -0.4873  0.3116  0.6195
  884MOL0     C16610   8.429   0.152   4.948  0.7892  0.5286  0.1443
  884MOL0     C16611   8.461   0.266   5.019 -0.6931  0.2099 -0.3834
  884MOL0     C16612   8.592   0.290   5.061  0.8603 -0.3462  0.6408
  884MOL0     C16613   8.700   0.204   5.035 -0.7416  0.2922 -0.1461
  884MOL0     O16614   8.828   0.238   5.089  0.1114  0.5732  0.2638
  884MOL0     C16615   8.945   0.172   5.048 -0.2475  0.0962 -0.1629
  884MOL0     C16616   9.063   0.259   5.107 -0.3375  0.1067  0.5755
  884MOL0     C16617   9.090   0.234   5.259  0.3154 -0.9926 -0.4374
  884MOL0     C16618   9.134   0.367   5.330 -0.0368  0.7022  0.1592
  884MOL0     C16619   9.151   0.318   5.470 -0.6327  0.0684  0.8335
  884MOL0     C16620   9.162   0.282   5.584 -0.0551  0.4789  0.2459
  884MOL0     C16621   8.669   0.085   4.963  0.0714  0.5027  0.2764
  884MOL0     C16622   8.539   0.057   4.928  0.0046 -0.3327  0.5350
  884MOL0     H16623   8.021   0.107   4.969 -4.5215  0.3690 -1.7691
  884MOL0     H16624   7.810   0.044   4.902 -0.8147 -1.0716  0.0736
  884MOL0     H16625   7.597   0.001   4.710  0.9433  0.2630 -0.6131
  884MOL0     H16626   7.640  -0.058   4.870  3.2306  1.2026 -0.5526
  884MOL0     H16627   7.536  -0.269   4.825  4.7131  2.2173  0.6590
  884MOL0     H16628   7.529  -0.216   4.652 -1.2413  2.6880 -1.0833
  884MOL0     H16629   7.344  -0.052   4.714 -0.0532  0.8914  0.9545
  884MOL0     H16630   7.374  -0.103   4.880  3.6747  2.2573 -1.0759
  884MOL0     H16631   7.277  -0.298   4.665  2.5855  0.9447  0.2206
  884MOL0     H16632   7.284  -0.339   4.830 -0.1935 -0.3449  0.2004
  884MOL0     H16633   7.055  -0.307   4.789 -0.1095  0.9096  3.0683
  884MOL0     H16634   7.085  -0.145   4.722 -1.2882 -0.9206 -1.0387
  884MOL0     H16635   6.984  -0.120   4.927 -0.5159  0.2727 -2.5309
  884MOL0     H16636   7.163  -0.081   4.949 -0.0803 -0.4948 -1.0106
  884MOL0     H16637   7.015  -0.344   4.996 -2.3413  1.0758  1.7804
  884MOL0     H16638   7.186  -0.321   5.033  0.3294  0.0494  0.6147
  884MOL0     H16639   6.963  -0.174   5.174 -0.8226 -0.2098 -3.3268
  884MOL0     H16640   7.141  -0.135   5.185 -1.0313  1.1839  0.5258
  884MOL0     H16641   7.281  -0.238   5.352 -0.9623  3.1357  0.8342
  884MOL0     H16642   7.240  -0.455   5.648  2.6038 -3.5346  0.4754
  884MOL0     H16643   7.369  -0.394   5.536 -0.1582  0.6897 -0.1136
  884MOL0     H16644   7.239  -0.670   5.513 -1.6463  0.1923  1.1098
  884MOL0     H16645   7.393  -0.626   5.592 -1.2736 -2.5416 -0.6159
  884MOL0     H16646   7.349  -0.544   5.311 -1.5324 -0.9719  0.2068
  884MOL0     H16647   7.505  -0.570   5.398 -0.7715  1.8989  2.3991
  884MOL0     H16648   7.280  -0.772   5.319  0.4675 -0.6238  0.5269
  884MOL0     H16649   7.421  -0.814   5.393 -1.1498 -0.0319  0.9234
  884MOL0     H16650   7.204  -0.648   5.154 -3.5961  0.0588 -2.9197
  884MOL0     H16651   7.118  -0.599   4.920  1.3275  2.8716 -1.4213
  884MOL0     H16652   7.164  -0.424   4.510  2.1622  1.9422 -0.7786
  884MOL0     H16653   7.077  -0.383   4.299  1.4649  1.4431  0.7565
  884MOL0     H16654   6.989  -0.678   4.143  0.2363 -2.3288 -2.0033
  884MOL0     H16655   7.002  -0.646   3.973  1.1959  0.0844  0.4721
  884MOL0     H16656   6.939  -0.398   4.010  0.4577 -0.4747 -0.8510
  884MOL0     H16657   6.899  -0.443   4.166  0.1536  1.6477 -1.0406
  884MOL0     H16658   6.740  -0.610   4.074 -2.7742 -0.6815 -1.4391
  884MOL0     H16659   6.791  -0.565   3.907 -0.4057  2.6712 -0.5023
  884MOL0     H16660   6.695  -0.343   4.101  1.8372  2.4736 -1.8889
  884MOL0     H16661   6.685  -0.346   3.925 -2.8641 -1.8912 -1.9723
  884MOL0     H16662   6.514  -0.476   4.130 -0.6394 -0.8461 -0.2870
  884MOL0     H16663   6.530  -0.556   3.968  2.6604 -0.6346 -0.6695
  884MOL0     H16664   6.479  -0.347   3.881 -1.0381 -0.7712  0.2711
  884MOL0     H16665   6.459  -0.269   4.036  2.3788 -1.1293  1.0440
  884MOL0     H16666   6.272  -0.497   3.952 -0.6437 -0.1356  4.0213
  884MOL0     H16667   6.257  -0.389   4.079  2.8610  0.5483  0.8439
  884MOL0     H16668   6.246  -0.294   3.786 -1.3675 -0.1162 -1.5036
  884MOL0     H16669   6.237  -0.191   3.918  3.0270 -0.7895 -1.4062
  884MOL0     H16670   7.281  -0.733   4.154 -0.5560 -0.8311 -0.0183
  884MOL0     H16671   7.383  -0.770   4.374 -0.1060  0.4315 -1.8048
  884MOL0     H16672   7.493  -0.722   4.757  0.5133  2.1149  0.9580
  884MOL0     H16673   7.586  -0.754   4.976  0.4637  2.8936 -0.9858
  884MOL0     H16674   7.954  -0.259   4.635 -2.0814  0.7245  0.4501
  884MOL0     H16675   8.200  -0.170   4.700  0.1206  0.4832  1.5556
  884MOL0     H16676   8.384   0.339   5.044  0.1529  0.6640  1.0583
  884MOL0     H16677   8.610   0.377   5.124  0.0497  0.4906 -0.2620
  884MOL0     H16678   8.955   0.160   4.940  3.1797 -0.3506  0.0916
  884MOL0     H16679   8.961   0.070   5.085  0.7363  0.4301  0.3795
  884MOL0     H16680   9.156   0.232   5.056 -0.4233 -1.6285  1.2527
  884MOL0     H16681   9.048   0.367   5.098 -2.5883  0.1638  3.5947
  884MOL0     H16682   9.148   0.143   5.273  1.0318 -1.0166 -3.0789
  884MOL0     H16683   8.989   0.209   5.295  0.0299  1.6280  0.8684
  884MOL0     H16684   9.234   0.399   5.299  0.8559 -1.6949  0.3369
  884MOL0     H16685   9.059   0.446   5.325 -0.6834  0.0182 -2.2947
  884MOL0     H16686   9.161   0.254   5.687 -1.1546  1.5136  0.5437
  884MOL0     H16687   8.741   0.016   4.921 -1.7135 -2.4596  1.7668
  884MOL0     H16688   8.522  -0.025   4.860  0.9159  2.2118 -3.0523
  885MOL0     O16689   0.927  11.265   6.447  0.2424 -0.8333 -0.0811
  885MOL0     C16690   0.935  11.173   6.372 -0.5367  0.0328  0.6299
  885MOL0     O16691   0.834  11.114   6.309  0.1262  0.2679 -0.1083
  885MOL0     C16692   0.711  11.152   6.339  0.4002  0.2327  0.5292
  885MOL0     C16693   0.632  11.093   6.442  0.5974 -0.2526 -0.4750
  885MOL0     C16694   0.507  11.133   6.469  0.0853 -1.2886  0.3257
  885MOL0     C16695   0.451  11.242   6.395  0.3548 -0.4243  0.2804
  885MOL0     O16696   0.323  11.282   6.429  0.5852  0.4459  0.4226
  885MOL0     C16697   0.247  11.276   6.304 -0.2675 -0.5585 -0.2151
  885MOL0     C16698   0.099  11.257   6.337  0.0989  0.6511  0.6378
  885MOL0     C16699   0.017  11.304   6.210 -0.1625 -0.4144 -0.7197
  885MOL0     C16700  -0.136  11.264   6.218  0.3491 -0.2556 -0.2839
  885MOL0     C16701  -0.203  11.265   6.074 -0.4816 -0.1766  0.0337
  885MOL0     C16702  -0.279  11.134   6.044  0.0937  0.5553  0.0372
  885MOL0     C16703  -0.348  11.146   5.906  0.4883 -0.6265 -0.5049
  885MOL0     C16704  -0.363  11.006   5.850 -0.5154 -0.4294 -0.5310
  885MOL0     N16705  -0.463  10.923   5.920 -0.3815 -0.7702  0.5014
  885MOL0     C16706  -0.593  10.946   5.949  0.2064 -0.6118  0.7881
  885MOL0     C16707  -0.634  10.832   6.016 -0.0995 -0.2155  0.6535
  885MOL0     C16708  -0.765  10.796   6.074  0.6095  0.2654 -0.4541
  885MOL0     C16709  -0.863  10.735   5.977 -0.0788 -0.5190 -0.4371
  885MOL0     C16710  -0.971  10.679   6.070  0.1007 -0.9174  0.3788
  885MOL0     C16711  -1.089  10.619   5.998 -0.9162 -0.1293  0.1395
  885MOL0     O16712  -1.152  10.526   6.083 -0.1934 -0.8182  0.3176
  885MOL0     C16713  -1.279  10.489   6.053  0.3127 -0.2556  0.3869
  885MOL0     C16714  -1.349  10.497   5.935  0.3076  0.0408 -0.3671
  885MOL0     C16715  -1.473  10.439   5.915 -0.1239  0.0940 -0.6100
  885MOL0     C16716  -1.541  10.373   6.019 -0.7277 -0.3460  0.2025
  885MOL0     C16717  -1.674  10.323   5.992 -0.7687 -0.2530 -0.1244
  885MOL0     O16718  -1.720  10.239   6.088 -0.8185  0.8808  0.2320
  885MOL0     C16719  -1.826  10.158   6.082 -0.0277  0.3994  0.0389
  885MOL0     C16720  -1.825  10.024   6.126  0.1247  0.2467 -0.0648
  885MOL0     C16721  -1.931   9.948   6.165  0.2115  0.2485  0.1018
  885MOL0     C16722  -2.055   9.988   6.117  0.4435 -0.5352  0.1754
  885MOL0     O16723  -2.165   9.920   6.145  0.1012  0.9251  0.0473
  885MOL0     C16724  -2.244   9.885   6.035  0.0347  0.5029 -0.0845
  885MOL0     C16725  -2.390   9.859   6.079  0.3161 -0.8869 -0.0802
  885MOL0     C16726  -2.408   9.735   6.167  0.3301  1.0307 -0.8282
  885MOL0     C16727  -2.556   9.697   6.167 -0.3932 -0.0129 -0.0971
  885MOL0     C16728  -2.573   9.585   6.262  0.1911  0.4334  0.2275
  885MOL0     C16729  -2.717   9.578   6.320 -0.4558 -1.0177  0.0092
  885MOL0     C16730  -2.816   9.539   6.204  0.2345 -0.3186 -1.2866
  885MOL0     C16731  -2.973   9.537   6.242  0.4950 -0.6170 -0.2491
  885MOL0    Cl16732  -3.023   9.702   6.265 -0.4522 -0.1392  0.6241
  885MOL0     C16733  -2.062  10.121   6.052  0.0110 -0.2048  1.2229
  885MOL0     C16734  -1.952  10.206   6.039  0.6076 -0.3901 -0.3261
  885MOL0     O16735  -1.737  10.354   5.891 -0.1581 -0.1751 -0.2014
  885MOL0     C16736  -1.468  10.359   6.137  0.4187 -0.1617  0.3746
  885MOL0     C16737  -1.335  10.419   6.155  0.7824  0.3013 -0.0087
  885MOL0     N16738  -0.523  10.753   6.043  0.3410 -0.2239 -0.0825
  885MOL0     N16739  -0.422  10.810   5.989  0.0742  0.7133 -0.6171
  885MOL0     C16740   0.524  11.307   6.299  0.1329 -0.2932 -0.1038
  885MOL0     C16741   0.660  11.266   6.282  0.1319 -0.0541  0.0493
  885MOL0     C16742   1.068  11.141   6.335  0.1867  0.5558  0.4226
  885MOL0     C16743   1.177  11.150   6.428  0.5324 -0.0601  0.6365
  885MOL0     C16744   1.305  11.123   6.385  0.0942  0.0974 -0.3313
  885MOL0     C16745   1.331  11.082   6.252  1.1348  0.0970 -0.3997
  885MOL0     O16746   1.456  11.067   6.204  0.4583  0.0348 -0.7872
  885MOL0     C16747   1.544  10.969   6.277  0.6324  0.1958  0.1159
  885MOL0     C16748   1.670  10.943   6.199 -0.6629  0.2516  1.3381
  885MOL0     C16749   1.772  10.866   6.290  0.6703 -0.6578  0.5118
  885MOL0     C16750   1.907  10.835   6.220 -0.5493  0.2011 -0.0264
  885MOL0     C16751   1.993  10.950   6.188  0.5768  0.2996 -0.3166
  885MOL0     C16752   2.077  11.035   6.155 -0.3658 -0.7188  0.6447
  885MOL0     C16753   1.225  11.077   6.160  0.6784  0.4348  0.2117
  885MOL0     C16754   1.098  11.112   6.199  0.2612  0.0373  0.2714
  885MOL0     H16755   0.678  11.024   6.513  0.3596 -1.7290 -1.6858
  885MOL0     H16756   0.446  11.091   6.548  0.6157 -1.0353  0.8689
  885MOL0     H16757   0.281  11.199   6.235  0.0907  1.4245 -2.3747
  885MOL0     H16758   0.260  11.368   6.246  3.1261 -0.2738  0.7808
  885MOL0     H16759   0.081  11.324   6.421 -0.2146  4.1577 -2.0044
  885MOL0     H16760   0.066  11.155   6.360 -1.7846  1.5511  2.1521
  885MOL0     H16761   0.064  11.247   6.130  2.9149  0.8264  0.0229
  885MOL0     H16762   0.033  11.411   6.194 -1.0016 -0.4558 -2.0196
  885MOL0     H16763  -0.151  11.174   6.278 -1.9151 -0.5401 -1.1905
  885MOL0     H16764  -0.188  11.344   6.272 -1.4405 -1.6110  0.0845
  885MOL0     H16765  -0.139  11.274   5.985 -1.8464 -1.7544 -1.1869
  885MOL0     H16766  -0.273  11.348   6.068 -0.7563 -0.3593  0.6998
  885MOL0     H16767  -0.360  11.118   6.116 -1.2966 -2.6964 -2.0365
  885MOL0     H16768  -0.213  11.047   6.047 -0.2448  0.2681 -0.7177
  885MOL0     H16769  -0.439  11.203   5.922  1.7278  1.6667 -1.1926
  885MOL0     H16770  -0.282  11.202   5.838  0.6577  1.3345  1.2113
  885MOL0     H16771  -0.264  10.960   5.849  0.2099  1.0474  0.8869
  885MOL0     H16772  -0.390  11.015   5.744 -0.2295 -0.2557 -0.5898
  885MOL0     H16773  -0.645  11.031   5.907  3.3598  1.0728 -0.0342
  885MOL0     H16774  -0.820  10.879   6.119 -1.3027 -1.2659  0.2080
  885MOL0     H16775  -0.749  10.721   6.153 -0.3265  0.8159  0.2796
  885MOL0     H16776  -0.814  10.655   5.921  1.6479 -0.3183  0.7019
  885MOL0     H16777  -0.901  10.808   5.905  0.7821 -2.2700 -2.7960
  885MOL0     H16778  -0.920  10.600   6.126  1.3389  0.3303  1.0861
  885MOL0     H16779  -0.998  10.752   6.147  0.2576 -0.0062 -0.4013
  885MOL0     H16780  -1.068  10.580   5.898  0.9465  1.0615  0.0170
  885MOL0     H16781  -1.159  10.702   5.987  2.6604  2.8581 -2.1925
  885MOL0     H16782  -1.309  10.554   5.852  1.0132  4.7946  2.8597
  885MOL0     H16783  -1.523  10.463   5.822 -0.8418 -0.8254 -0.4784
  885MOL0     H16784  -1.730   9.991   6.167 -0.0575 -1.4986 -0.9389
  885MOL0     H16785  -1.922   9.850   6.210 -1.5228 -0.5546 -1.1445
  885MOL0     H16786  -2.208   9.795   5.984 -1.7726  0.6045 -1.6461
  885MOL0     H16787  -2.239   9.963   5.958 -0.4359 -0.5372 -1.1952
  885MOL0     H16788  -2.458   9.848   5.994 -0.8722  1.3137  0.5037
  885MOL0     H16789  -2.419   9.944   6.140 -2.4468 -0.4969 -1.7634
  885MOL0     H16790  -2.385   9.748   6.273 -1.6880  2.2445 -0.4871
  885MOL0     H16791  -2.351   9.651   6.127 -0.3225  2.0119 -4.1519
  885MOL0     H16792  -2.614   9.787   6.190 -0.6457  0.9246 -3.7242
  885MOL0     H16793  -2.592   9.683   6.064  1.8227  2.4204 -1.3166
  885MOL0     H16794  -2.502   9.601   6.343 -1.1577 -0.3731  1.6203
  885MOL0     H16795  -2.543   9.491   6.216  0.3142 -0.4322  1.9933
  885MOL0     H16796  -2.743   9.673   6.368  0.8372 -1.9117  2.7141
  885MOL0     H16797  -2.727   9.492   6.388 -1.2883 -1.2429 -0.3869
  885MOL0     H16798  -2.798   9.592   6.110  1.6170  2.3004  0.3225
  885MOL0     H16799  -2.794   9.433   6.188 -4.0810 -2.0998  2.4776
  885MOL0     H16800  -2.991   9.478   6.332  0.2448  1.6163  1.2283
  885MOL0     H16801  -3.040   9.488   6.171 -0.6855  0.4435  0.0979
  885MOL0     H16802  -2.153  10.167   6.015  2.2245  0.5930 -4.1546
  885MOL0     H16803  -1.959  10.311   6.016  0.2616  0.3943  2.8260
  885MOL0     H16804  -1.504  10.309   6.226 -2.8152 -0.6160 -1.0481
  885MOL0     H16805  -1.303  10.412   6.259  1.0542  1.1986 -0.0236
  885MOL0     H16806   0.484  11.392   6.244 -0.2993 -0.4271  0.0045
  885MOL0     H16807   0.728  11.323   6.219 -0.1071 -0.0655 -0.2175
  885MOL0     H16808   1.169  11.168   6.534  3.1783 -3.8942  1.6817
  885MOL0     H16809   1.385  11.122   6.458  0.6568 -1.7223 -0.9297
  885MOL0     H16810   1.487  10.876   6.288  1.2018 -0.4213 -1.7870
  885MOL0     H16811   1.576  11.010   6.373 -1.1681  0.3247  0.7013
  885MOL0     H16812   1.659  10.897   6.100  3.3670 -0.0023  0.8324
  885MOL0     H16813   1.711  11.044   6.189 -0.2124 -0.1200 -1.5256
  885MOL0     H16814   1.725  10.775   6.330  1.2906 -0.7168  1.1355
  885MOL0     H16815   1.786  10.933   6.376 -1.6206  0.3242  0.1881
  885MOL0     H16816   1.967  10.777   6.290 -1.8557  0.1985  1.1367
  885MOL0     H16817   1.889  10.781   6.127  1.0669  0.9000 -0.7789
  885MOL0     H16818   2.152  11.104   6.121  0.1362 -0.7505  1.6484
  885MOL0     H16819   1.247  11.053   6.057  1.6105  2.7354 -0.2018
  885MOL0     H16820   1.018  11.113   6.126  0.5798 -0.3161 -0.0915
  886MOL0     O16821   6.205   8.945   0.984 -0.2105 -0.2419 -0.5889
  886MOL0     C16822   6.189   8.888   0.881 -0.0497  0.6810 -0.2584
  886MOL0     O16823   6.068   8.830   0.838 -0.2315  0.1942 -0.5555
  886MOL0     C16824   5.952   8.851   0.907  0.1675 -0.5503 -0.2077
  886MOL0     C16825   5.891   8.742   0.971  0.5864 -0.1476  0.6028
  886MOL0     C16826   5.771   8.764   1.032  0.0910  0.5026 -0.1256
  886MOL0     C16827   5.707   8.891   1.044 -0.5067  1.3302 -0.6770
  886MOL0     O16828   5.596   8.900   1.113 -0.0515 -0.4393  0.2786
  886MOL0     C16829   5.490   8.810   1.083  1.3901 -0.6553 -0.4039
  886MOL0     C16830   5.360   8.872   1.155 -0.0685  0.3281 -0.9004
  886MOL0     C16831   5.242   8.815   1.086  0.7252  0.2556 -0.4874
  886MOL0     C16832   5.112   8.848   1.171 -1.1413 -0.3333  0.3352
  886MOL0     C16833   4.979   8.778   1.141  0.3862 -0.4279 -0.1923
  886MOL0     C16834   4.970   8.754   0.989 -0.1287 -0.1686 -0.5637
  886MOL0     C16835   4.847   8.689   0.949  0.1228  0.3511 -1.0010
  886MOL0     C16836   4.857   8.651   0.804  0.1696  0.4109  0.6655
  886MOL0     N16837   4.741   8.572   0.747  0.9255  0.0897 -0.4764
  886MOL0     C16838   4.703   8.447   0.778 -0.5310  0.5940 -1.0662
  886MOL0     C16839   4.606   8.413   0.697 -0.4946 -0.7722  1.1750
  886MOL0     C16840   4.532   8.280   0.701 -0.3670 -0.1306 -0.8955
  886MOL0     C16841   4.410   8.263   0.796 -0.1384 -0.4889  0.1101
  886MOL0     C16842   4.302   8.384   0.789  0.0822 -0.2248  0.8382
  886MOL0     C16843   4.214   8.394   0.660  0.1120 -0.4420  0.3173
  886MOL0     O16844   4.126   8.506   0.683  0.9977  1.1380 -0.5101
  886MOL0     C16845   3.995   8.474   0.671 -0.5092 -0.3214 -0.5654
  886MOL0     C16846   3.909   8.492   0.782 -0.4885 -0.7666  0.0881
  886MOL0     C16847   3.775   8.454   0.769  0.1535 -0.3578 -1.0276
  886MOL0     C16848   3.729   8.400   0.643 -0.2989 -0.5066  0.3000
  886MOL0     C16849   3.587   8.338   0.625 -0.6819 -0.7263  0.4697
  886MOL0     O16850   3.515   8.342   0.740 -0.3563 -0.0549  0.6959
  886MOL0     C16851   3.411   8.260   0.750 -0.7745 -0.3476 -0.5055
  886MOL0     C16852   3.417   8.125   0.748  0.2632  0.1797 -0.0792
  886MOL0     C16853   3.300   8.044   0.764 -0.5927 -0.1397 -0.3278
  886MOL0     C16854   3.173   8.102   0.764  0.5561  0.0627  0.1576
  886MOL0     O16855   3.055   8.032   0.765  0.3096 -0.5742  0.6173
  886MOL0     C16856   3.038   7.944   0.871 -0.2735  0.1035  0.0743
  886MOL0     C16857   2.895   7.922   0.904 -0.6973 -0.4369  0.1143
  886MOL0     C16858   2.813   7.884   0.780  0.3227 -0.2757  0.0895
  886MOL0     C16859   2.665   7.872   0.822  0.3053  0.4898  0.4462
  886MOL0     C16860   2.574   7.867   0.705 -0.3891 -0.7693 -0.0315
  886MOL0     C16861   2.425   7.847   0.737 -0.1041  0.4261 -0.1389
  886MOL0     C16862   2.336   7.878   0.611 -0.2675 -0.4464 -1.0391
  886MOL0     C16863   2.309   7.745   0.543 -0.1754 -0.3500 -0.2834
  886MOL0    Cl16864   2.192   7.659   0.643 -0.1751  0.0914  0.0091
  886MOL0     C16865   3.166   8.243   0.771  0.2444 -0.2803  1.2564
  886MOL0     C16866   3.288   8.321   0.760  0.1553  0.6922  0.4488
  886MOL0     O16867   3.554   8.278   0.518  0.7804 -0.1359 -1.3590
  886MOL0     C16868   3.821   8.378   0.536  0.3013  0.5857 -0.5857
  886MOL0     C16869   3.951   8.409   0.561  0.2873 -0.5589  0.2342
  886MOL0     N16870   4.570   8.526   0.621  0.1706  0.2074 -0.2792
  886MOL0     N16871   4.651   8.625   0.656  0.1317 -0.2991  0.3924
  886MOL0     C16872   5.785   9.005   0.992  0.5169 -0.2452  0.1950
  886MOL0     C16873   5.903   8.982   0.927 -0.3018 -0.8427 -0.5807
  886MOL0     C16874   6.303   8.865   0.800 -0.0107  0.2961 -0.6405
  886MOL0     C16875   6.285   8.814   0.673 -0.6183  1.0584 -0.8130
  886MOL0     C16876   6.395   8.767   0.596  0.7466  0.4016  0.6636
  886MOL0     C16877   6.521   8.805   0.630 -0.4644 -1.0263  0.2450
  886MOL0     O16878   6.632   8.757   0.553  0.1216 -0.0265  0.4100
  886MOL0     C16879   6.730   8.678   0.620 -0.4112  0.7965  0.3180
  886MOL0     C16880   6.757   8.562   0.526  0.3238  0.0818  0.3827
  886MOL0     C16881   6.849   8.464   0.588  0.3949 -0.2290  0.5215
  886MOL0     C16882   6.878   8.338   0.517 -0.7339 -0.1439 -0.7014
  886MOL0     C16883   6.759   8.260   0.519  0.4277  0.8086  0.5133
  886MOL0     C16884   6.650   8.198   0.523  0.9185 -0.4502 -0.1159
  886MOL0     C16885   6.548   8.878   0.747  0.3051 -0.2577  0.7933
  886MOL0     C16886   6.436   8.904   0.832  0.3074  0.7060  0.2964
  886MOL0     H16887   5.930   8.641   0.978  1.5323  0.1276 -0.4252
  886MOL0     H16888   5.720   8.676   1.070  2.1332 -0.5250  0.3395
  886MOL0     H16889   5.505   8.713   1.132  2.4529  0.0961  0.8479
  886MOL0     H16890   5.472   8.802   0.976 -0.2999  1.1518 -0.3138
  886MOL0     H16891   5.360   8.981   1.145 -0.3230  0.5215  0.8242
  886MOL0     H16892   5.364   8.841   1.260 -1.2607 -3.6181 -1.8469
  886MOL0     H16893   5.253   8.708   1.103  2.2545  0.4786  0.0108
  886MOL0     H16894   5.241   8.834   0.978  0.9141  0.1306 -0.5107
  886MOL0     H16895   5.128   8.824   1.277  0.8286 -0.1151  0.1149
  886MOL0     H16896   5.096   8.956   1.166  0.5943 -0.0496  0.3913
  886MOL0     H16897   4.905   8.846   1.185 -0.1704 -1.5118  0.5699
  886MOL0     H16898   4.978   8.679   1.186 -0.9373 -0.1312  0.5152
  886MOL0     H16899   5.052   8.689   0.958 -2.3482 -3.3753 -0.2240
  886MOL0     H16900   4.975   8.855   0.946  1.4128 -0.4793 -1.1673
  886MOL0     H16901   4.828   8.605   1.015 -1.9902  2.6265  1.5019
  886MOL0     H16902   4.768   8.761   0.971  1.3398  0.8859  2.0684
  886MOL0     H16903   4.938   8.582   0.783 -1.8139 -1.4432 -1.3936
  886MOL0     H16904   4.868   8.741   0.743  0.7917 -0.8930 -1.2072
  886MOL0     H16905   4.745   8.381   0.853  1.1524 -1.1532 -3.3614
  886MOL0     H16906   4.609   8.204   0.721 -2.9093 -2.3459  1.1300
  886MOL0     H16907   4.497   8.256   0.601 -0.5872  0.1268 -0.8819
  886MOL0     H16908   4.461   8.256   0.893  0.2019 -1.8086 -0.1377
  886MOL0     H16909   4.355   8.170   0.778 -2.3157  0.9478 -1.1134
  886MOL0     H16910   4.243   8.382   0.881 -0.7916  4.4138  0.6322
  886MOL0     H16911   4.351   8.481   0.800  1.6328 -1.1570  2.5535
  886MOL0     H16912   4.169   8.295   0.646  2.0332 -1.1895 -0.9888
  886MOL0     H16913   4.285   8.423   0.583 -1.8058 -1.1581 -1.8282
  886MOL0     H16914   3.950   8.537   0.872  2.3112  0.6322 -1.7390
  886MOL0     H16915   3.711   8.462   0.856  1.3041  0.4958 -0.2315
  886MOL0     H16916   3.516   8.083   0.732  1.2081  2.5612 -0.9592
  886MOL0     H16917   3.297   7.936   0.775  0.0637 -0.4376 -2.5204
  886MOL0     H16918   3.072   7.982   0.967  0.3564  1.9045 -0.8117
  886MOL0     H16919   3.093   7.850   0.857 -1.0889 -0.4170  0.2711
  886MOL0     H16920   2.860   8.016   0.947  0.6062  0.3091 -0.4084
  886MOL0     H16921   2.887   7.838   0.974 -2.9240 -1.3087 -1.1098
  886MOL0     H16922   2.855   7.790   0.741  0.6114  0.4252 -1.3630
  886MOL0     H16923   2.814   7.954   0.696 -2.2216 -0.7421 -0.3938
  886MOL0     H16924   2.658   7.781   0.882 -1.0899  2.4732  3.5868
  886MOL0     H16925   2.640   7.948   0.896  3.2670  2.4288 -0.3680
  886MOL0     H16926   2.605   7.785   0.640  2.3412  0.1820 -0.0570
  886MOL0     H16927   2.582   7.957   0.643 -2.2039  0.5532  1.5201
  886MOL0     H16928   2.404   7.920   0.815 -0.7533 -1.4267  1.5092
  886MOL0     H16929   2.406   7.747   0.778 -0.2797  1.4723  2.4946
  886MOL0     H16930   2.247   7.929   0.647  1.6419  1.7694  0.9326
  886MOL0     H16931   2.393   7.949   0.549 -2.2669  2.6194  0.4144
  886MOL0     H16932   2.409   7.699   0.544  2.5903  4.7277 -2.6516
  886MOL0     H16933   2.270   7.775   0.445  1.7701  2.1253 -0.4091
  886MOL0     H16934   3.065   8.282   0.781 -0.0996 -1.1192  1.1079
  886MOL0     H16935   3.276   8.428   0.774 -0.2967  0.3333  3.3391
  886MOL0     H16936   3.799   8.325   0.443 -1.1913 -1.4495  0.8320
  886MOL0     H16937   4.023   8.380   0.484  0.5532 -0.9401  0.6188
  886MOL0     H16938   5.753   9.108   0.996  0.0335 -0.3305 -1.2047
  886MOL0     H16939   5.967   9.064   0.894  2.7686 -1.8455  2.2277
  886MOL0     H16940   6.181   8.797   0.645 -0.5312  0.5577 -0.8457
  886MOL0     H16941   6.371   8.702   0.513 -0.0569 -2.4123  2.9387
  886MOL0     H16942   6.689   8.624   0.706  1.0597 -3.6028 -1.4786
  886MOL0     H16943   6.818   8.738   0.646  1.1756 -0.8253 -1.0214
  886MOL0     H16944   6.664   8.517   0.491  1.8973 -2.0982 -1.2832
  886MOL0     H16945   6.797   8.604   0.434 -3.6554 -1.0841 -2.1159
  886MOL0     H16946   6.807   8.445   0.687 -0.6114 -2.1141 -0.2098
  886MOL0     H16947   6.947   8.511   0.600 -0.6380  2.5016 -0.9498
  886MOL0     H16948   6.910   8.362   0.415 -1.9715  1.5371 -0.7291
  886MOL0     H16949   6.959   8.283   0.567 -1.7505 -2.1678 -1.2122
  886MOL0     H16950   6.558   8.145   0.537  1.3113 -1.3607 -0.8823
  886MOL0     H16951   6.638   8.933   0.772 -0.1612  0.6461  0.5360
  886MOL0     H16952   6.459   8.953   0.926  0.7477 -1.4133  1.3640
  887MOL0     O16953   5.206   2.867   2.100  0.3729  0.0508 -0.0676
  887MOL0     C16954   5.260   2.803   2.011 -0.7269 -0.2146  0.4450
  887MOL0     O16955   5.231   2.681   1.961  0.0860 -0.1233 -0.2781
  887MOL0     C16956   5.136   2.598   2.020  0.0050 -0.8609 -0.4780
  887MOL0     C16957   5.185   2.486   2.093 -0.5446  0.0673  0.9819
  887MOL0     C16958   5.106   2.380   2.133  0.2864 -0.6914 -0.1305
  887MOL0     C16959   4.969   2.397   2.121  0.5838 -0.2273 -0.1713
  887MOL0     O16960   4.893   2.288   2.150 -0.3997  0.5150  0.2587
  887MOL0     C16961   4.775   2.313   2.222  0.3849 -0.9373 -1.2787
  887MOL0     C16962   4.731   2.184   2.287  0.1103  0.7230 -0.2789
  887MOL0     C16963   4.604   2.189   2.381 -0.5341 -0.8139  0.4710
  887MOL0     C16964   4.543   2.046   2.412 -0.5632  0.4130 -0.5863
  887MOL0     C16965   4.411   2.055   2.489 -0.6400  0.7781  0.0936
  887MOL0     C16966   4.294   2.104   2.402  0.3667 -0.1664  0.0864
  887MOL0     C16967   4.170   2.036   2.437  1.5779  0.0216 -0.1362
  887MOL0     C16968   4.059   2.076   2.336 -0.6417 -0.6705 -0.7763
  887MOL0     N16969   3.941   1.993   2.362  0.1819 -0.4105 -0.3803
  887MOL0     C16970   3.942   1.883   2.436  0.4542  0.5886 -0.3321
  887MOL0     C16971   3.822   1.822   2.408 -0.6487 -0.2299 -0.0370
  887MOL0     C16972   3.780   1.694   2.456  0.6081 -0.5089  0.3124
  887MOL0     C16973   3.648   1.645   2.393  0.5408 -0.3452  0.2659
  887MOL0     C16974   3.601   1.503   2.424 -0.6269  0.1188 -0.6107
  887MOL0     C16975   3.458   1.506   2.377 -0.2812  0.2601  0.3244
  887MOL0     O16976   3.371   1.592   2.451 -0.0437  0.1349  0.5504
  887MOL0     C16977   3.247   1.619   2.397 -0.7184  0.4860 -0.1962
  887MOL0     C16978   3.161   1.702   2.473  0.8611 -0.5221 -0.5429
  887MOL0     C16979   3.031   1.737   2.450  0.0748  0.8803  0.2175
  887MOL0     C16980   2.979   1.692   2.326  0.0240 -0.1598 -0.3780
  887MOL0     C16981   2.847   1.734   2.281  0.0461 -0.3553 -0.3701
  887MOL0     O16982   2.814   1.747   2.148  0.2974  0.8738 -0.2795
  887MOL0     C16983   2.692   1.724   2.092 -0.3707  0.1158 -0.0402
  887MOL0     C16984   2.664   1.770   1.962 -0.2313  0.2333 -0.1087
  887MOL0     C16985   2.543   1.737   1.900 -0.0580 -0.3418  0.2211
  887MOL0     C16986   2.444   1.659   1.965 -0.1296 -0.9026 -0.6415
  887MOL0     O16987   2.322   1.639   1.900 -1.1160 -0.6333 -0.4361
  887MOL0     C16988   2.208   1.577   1.970 -0.1856 -0.0539  0.1379
  887MOL0     C16989   2.196   1.434   1.933  0.9910  0.3287  0.3637
  887MOL0     C16990   2.190   1.409   1.775 -0.7371  0.1250  0.0650
  887MOL0     C16991   2.146   1.266   1.749  0.1084  0.4256 -0.0863
  887MOL0     C16992   2.118   1.225   1.602  0.0083  0.6808  0.5300
  887MOL0     C16993   1.982   1.264   1.546 -0.0165  0.8091  0.8687
  887MOL0     C16994   2.000   1.247   1.389  0.2226  1.1784 -0.0679
  887MOL0     C16995   1.873   1.230   1.320 -0.5490  0.1592 -0.5168
  887MOL0    Cl16996   1.781   1.376   1.321 -0.2114 -0.3514 -0.1801
  887MOL0     C16997   2.477   1.610   2.090  1.1406 -0.4857 -0.0195
  887MOL0     C16998   2.593   1.647   2.151  0.7697  0.3555 -0.4417
  887MOL0     O16999   2.768   1.751   2.372  0.1886  0.7007  0.3155
  887MOL0     C17000   3.054   1.622   2.239  0.3772  0.2316 -0.5886
  887MOL0     C17001   3.181   1.573   2.281 -0.2697  0.2956 -0.7197
  887MOL0     N17002   3.751   1.919   2.330  0.2981  0.1414  0.5784
  887MOL0     N17003   3.824   2.020   2.303  0.1759  0.6361  0.1457
  887MOL0     C17004   4.916   2.512   2.067 -0.3236  0.0188 -0.2318
  887MOL0     C17005   4.996   2.617   2.013 -0.6698 -0.4763  0.1149
  887MOL0     C17006   5.376   2.862   1.949  0.0875 -0.0600  0.5143
  887MOL0     C17007   5.374   3.005   1.911 -0.6130  0.1955 -0.7246
  887MOL0     C17008   5.495   3.057   1.860  0.0590 -1.1584 -0.1528
  887MOL0     C17009   5.610   2.974   1.837  0.6990 -0.4864  0.1729
  887MOL0     O17010   5.711   3.052   1.781 -0.1650  0.6087  0.3880
  887MOL0     C17011   5.846   3.003   1.796  0.0317 -0.1720  0.9090
  887MOL0     C17012   5.888   2.911   1.681 -0.0071 -0.0785  0.4114
  887MOL0     C17013   5.880   2.979   1.542 -0.1427  1.2568 -0.0909
  887MOL0     C17014   5.943   3.123   1.520 -0.0024 -0.3527  0.1101
  887MOL0     C17015   6.082   3.085   1.525  0.1104 -0.3057  0.1164
  887MOL0     C17016   6.199   3.053   1.543 -0.4153 -0.4382 -0.3453
  887MOL0     C17017   5.608   2.841   1.867  0.2100  0.1575 -0.4149
  887MOL0     C17018   5.492   2.791   1.920 -0.0391  1.5655 -0.6385
  887MOL0     H17019   5.293   2.484   2.094 -0.3296  2.0290 -2.3599
  887MOL0     H17020   5.150   2.288   2.169  0.2035 -1.9590 -3.0158
  887MOL0     H17021   4.691   2.342   2.158 -2.7172 -0.2032  2.6852
  887MOL0     H17022   4.795   2.389   2.299 -3.0704 -1.2602  0.1492
  887MOL0     H17023   4.806   2.141   2.355  1.6586  1.7487 -1.2929
  887MOL0     H17024   4.728   2.114   2.203  0.9487 -0.7849  0.8730
  887MOL0     H17025   4.521   2.248   2.342 -1.1729 -0.1250  2.7224
  887MOL0     H17026   4.626   2.241   2.475 -0.9563 -0.0959  0.1778
  887MOL0     H17027   4.534   1.989   2.320  1.5165 -3.9894  1.6579
  887MOL0     H17028   4.613   1.981   2.465 -0.1770  2.3398  1.4416
  887MOL0     H17029   4.439   2.113   2.578  0.9484 -0.3367  0.3646
  887MOL0     H17030   4.382   1.956   2.526  0.6058 -0.3798 -1.8491
  887MOL0     H17031   4.321   2.080   2.299  0.1384  1.2500 -0.3291
  887MOL0     H17032   4.282   2.213   2.409 -0.0178 -0.3051  2.4617
  887MOL0     H17033   4.193   1.929   2.445 -0.5923 -0.4279  0.8388
  887MOL0     H17034   4.135   2.061   2.538 -0.0356  0.0548 -0.6844
  887MOL0     H17035   4.106   2.055   2.239  1.3097  1.8688 -0.5149
  887MOL0     H17036   4.027   2.180   2.351 -0.3973 -0.4438 -1.7357
  887MOL0     H17037   4.031   1.827   2.463  0.5447  1.8291  2.2583
  887MOL0     H17038   3.778   1.696   2.565  0.6791  1.2689  0.3040
  887MOL0     H17039   3.852   1.621   2.418  0.0126 -0.9092 -0.0743
  887MOL0     H17040   3.646   1.666   2.286  1.0731  1.3644  0.5554
  887MOL0     H17041   3.571   1.713   2.431  0.8000  0.7368 -1.0568
  887MOL0     H17042   3.651   1.429   2.361 -1.4320  0.4656 -1.6866
  887MOL0     H17043   3.602   1.489   2.533 -0.6950  2.4837 -0.2406
  887MOL0     H17044   3.419   1.404   2.380 -3.3450  1.3565  1.1644
  887MOL0     H17045   3.462   1.526   2.269  2.7341  0.1919  0.3450
  887MOL0     H17046   3.212   1.757   2.552 -1.1902 -1.0291  1.2310
  887MOL0     H17047   2.984   1.808   2.517  1.1076 -0.3639  2.3468
  887MOL0     H17048   2.738   1.825   1.904 -1.0718 -1.0604 -2.5451
  887MOL0     H17049   2.519   1.788   1.807  2.6623 -1.7218 -1.3737
  887MOL0     H17050   2.119   1.620   1.923  0.0778  0.5202  0.1578
  887MOL0     H17051   2.220   1.579   2.078  0.6145  2.0222  0.0517
  887MOL0     H17052   2.103   1.397   1.976  0.3229  0.5493 -0.8474
  887MOL0     H17053   2.284   1.396   1.986  1.9860  3.7742  1.4964
  887MOL0     H17054   2.289   1.422   1.732  0.0652 -0.2642  1.7029
  887MOL0     H17055   2.121   1.472   1.717 -3.7136 -2.5336  0.4438
  887MOL0     H17056   2.230   1.208   1.789 -0.1139 -0.1725 -0.4729
  887MOL0     H17057   2.054   1.242   1.802 -1.7651 -1.6521 -3.8660
  887MOL0     H17058   2.124   1.116   1.594  2.6313  0.8561 -0.9474
  887MOL0     H17059   2.204   1.253   1.540  1.1126 -2.4532  0.4314
  887MOL0     H17060   1.962   1.369   1.567  2.7913  1.2165  1.9208
  887MOL0     H17061   1.900   1.202   1.584 -0.6596  1.4428  0.5275
  887MOL0     H17062   2.048   1.335   1.345  2.0886  0.6443  0.8027
  887MOL0     H17063   2.061   1.160   1.364  0.4578  1.6377 -1.1503
  887MOL0     H17064   1.818   1.146   1.364 -0.9858  0.2505 -0.8746
  887MOL0     H17065   1.897   1.203   1.216 -0.5914 -2.0936 -0.0078
  887MOL0     H17066   2.410   1.540   2.140  0.8886  0.0532  0.3966
  887MOL0     H17067   2.612   1.613   2.253 -0.3330  3.6590  0.9826
  887MOL0     H17068   3.013   1.579   2.148 -2.7864  1.2908  0.2385
  887MOL0     H17069   3.227   1.503   2.212 -1.9269 -1.1140 -0.4662
  887MOL0     H17070   4.810   2.522   2.049 -0.1369 -0.6115 -1.8816
  887MOL0     H17071   4.948   2.705   1.971 -1.7287 -0.7619  0.6818
  887MOL0     H17072   5.282   3.061   1.926 -0.8421  0.2995 -2.2912
  887MOL0     H17073   5.506   3.159   1.826 -0.1789 -0.6018  1.3767
  887MOL0     H17074   5.863   2.948   1.889 -0.5872  1.3467  1.9647
  887MOL0     H17075   5.912   3.091   1.799  3.3705 -2.4318 -0.6408
  887MOL0     H17076   5.994   2.886   1.695  0.3940 -1.0032 -3.2454
  887MOL0     H17077   5.842   2.812   1.687  1.4879 -0.8981 -0.9439
  887MOL0     H17078   5.773   2.991   1.521 -0.8570 -2.2110  0.9855
  887MOL0     H17079   5.913   2.910   1.464 -1.5586 -2.2780  2.2046
  887MOL0     H17080   5.924   3.171   1.423  3.6953  2.6026  0.6201
  887MOL0     H17081   5.930   3.193   1.603 -0.2730 -1.7580  1.2819
  887MOL0     H17082   6.299   3.025   1.569 -1.5115 -0.5391  4.9133
  887MOL0     H17083   5.698   2.781   1.857 -0.2933 -0.1972 -4.3147
  887MOL0     H17084   5.499   2.689   1.955 -0.2253  1.7048 -0.1901
  888MOL0     O17085  10.583   6.174   4.749  0.7614  0.1504  0.6294
  888MOL0     C17086  10.610   6.090   4.662 -0.1937  0.1610 -0.1924
  888MOL0     O17087  10.520   5.996   4.601  0.7218  0.7506 -0.3442
  888MOL0     C17088  10.381   6.015   4.605  0.4033  0.4900 -0.0766
  888MOL0     C17089  10.328   6.129   4.548 -0.3150 -0.7828 -0.0968
  888MOL0     C17090  10.190   6.156   4.562  0.2927 -0.1319 -0.3889
  888MOL0     C17091  10.103   6.066   4.615  0.7782 -0.5664 -0.1391
  888MOL0     O17092   9.967   6.105   4.627  0.1515  0.2937  0.3812
  888MOL0     C17093   9.886   6.019   4.706 -0.5572  0.3950  0.0616
  888MOL0     C17094   9.746   6.077   4.715 -0.0427 -0.0728 -0.0965
  888MOL0     C17095   9.659   5.973   4.769  0.2626 -0.6353 -0.4728
  888MOL0     C17096   9.512   6.011   4.772 -0.6134  0.5598 -0.0206
  888MOL0     C17097   9.421   5.901   4.834 -0.2368 -0.1471  0.4553
  888MOL0     C17098   9.272   5.922   4.817  0.5517 -0.0677 -0.4860
  888MOL0     C17099   9.185   5.853   4.920  1.2137  0.3665  0.6517
  888MOL0     C17100   9.030   5.867   4.879  0.2759 -0.7042 -0.7957
  888MOL0     N17101   8.936   5.830   4.989 -0.4995 -0.0789  0.2393
  888MOL0     C17102   8.907   5.902   5.104 -0.4123  0.4330  0.3226
  888MOL0     C17103   8.824   5.825   5.175 -0.0927 -0.2924  1.0355
  888MOL0     C17104   8.781   5.864   5.311 -0.1932  0.1306 -0.3585
  888MOL0     C17105   8.629   5.862   5.309 -0.1501 -0.4207 -1.0380
  888MOL0     C17106   8.591   5.843   5.457 -0.5619 -0.3030  0.3749
  888MOL0     C17107   8.445   5.825   5.477  0.3384 -0.6112  0.2958
  888MOL0     O17108   8.413   5.823   5.617 -0.2107  0.0466  0.0185
  888MOL0     C17109   8.280   5.805   5.647 -0.0518  0.8326 -0.9579
  888MOL0     C17110   8.251   5.734   5.770 -0.4706  0.4523  0.2274
  888MOL0     C17111   8.124   5.726   5.828 -0.7941  0.4515 -0.9451
  888MOL0     C17112   8.020   5.765   5.748  0.8629  0.8772 -0.3066
  888MOL0     C17113   7.880   5.741   5.787  0.7797 -0.1794  0.9399
  888MOL0     O17114   7.780   5.783   5.698 -0.0093  0.0037  0.2331
  888MOL0     C17115   7.655   5.749   5.737  0.4859 -0.1485 -0.4447
  888MOL0     C17116   7.584   5.784   5.852 -0.7190 -0.9029 -0.5854
  888MOL0     C17117   7.457   5.728   5.879  0.1000 -0.4374  0.5543
  888MOL0     C17118   7.390   5.655   5.782  0.3999 -0.0775  0.0708
  888MOL0     O17119   7.272   5.601   5.813  0.5221  0.6071  0.0114
  888MOL0     C17120   7.179   5.551   5.715  0.3069  1.2845  0.0053
  888MOL0     C17121   7.024   5.546   5.758 -0.4933  0.3415 -0.7507
  888MOL0     C17122   6.978   5.693   5.761 -0.4964 -0.3746  0.5464
  888MOL0     C17123   6.857   5.715   5.847  0.9640  0.6300  0.5399
  888MOL0     C17124   6.767   5.838   5.810 -0.8315 -0.0061  0.2717
  888MOL0     C17125   6.847   5.975   5.850 -0.0428 -0.2716 -0.6155
  888MOL0     C17126   6.744   6.073   5.906 -0.0653  0.5694 -0.1137
  888MOL0     C17127   6.701   6.038   6.044  0.1675 -0.3828  0.2628
  888MOL0    Cl17128   6.572   6.167   6.077 -0.0795 -0.2513  0.4476
  888MOL0     C17129   7.458   5.642   5.663 -0.2207  0.4786  0.1473
  888MOL0     C17130   7.591   5.682   5.639 -0.2493  0.6872  0.4215
  888MOL0     O17131   7.859   5.672   5.889  0.8149 -0.5739 -0.2310
  888MOL0     C17132   8.044   5.828   5.624 -0.0826 -1.3823  0.9519
  888MOL0     C17133   8.169   5.859   5.583  0.1920 -0.7849 -0.2057
  888MOL0     N17134   8.801   5.707   5.103 -1.4849  0.4895  0.3758
  888MOL0     N17135   8.860   5.715   4.986  0.7255  0.2373  0.4471
  888MOL0     C17136  10.159   5.945   4.657  0.2958  0.9347 -0.2265
  888MOL0     C17137  10.292   5.920   4.664 -0.1060 -0.0190  0.2147
  888MOL0     C17138  10.757   6.077   4.631 -0.6255  1.0283  0.5171
  888MOL0     C17139  10.863   6.130   4.710 -0.7201 -0.2759 -0.3386
  888MOL0     C17140  11.001   6.109   4.679 -0.4029 -1.0360  0.2024
  888MOL0     C17141  11.051   6.043   4.566  0.5809 -0.7451  0.1570
  888MOL0     O17142  11.187   6.037   4.544 -0.5883  0.4300  0.7204
  888MOL0     C17143  11.231   5.909   4.509 -0.5530  0.4168  0.4536
  888MOL0     C17144  11.382   5.907   4.542  0.2597  0.2411  0.0620
  888MOL0     C17145  11.440   5.778   4.499 -0.2752 -0.4841 -0.4237
  888MOL0     C17146  11.374   5.651   4.552 -0.2835 -0.1126  0.1854
  888MOL0     C17147  11.377   5.642   4.700  0.2550 -0.5005 -0.0696
  888MOL0     C17148  11.401   5.636   4.816 -0.3121 -0.4259 -0.2996
  888MOL0     C17149  10.946   5.979   4.490  0.1746 -1.2787 -0.5751
  888MOL0     C17150  10.806   5.995   4.523  0.5920 -0.1339 -0.8670
  888MOL0     H17151  10.392   6.200   4.497  0.6375 -2.3237 -1.1128
  888MOL0     H17152  10.145   6.249   4.528 -0.7145  0.6667  2.7539
  888MOL0     H17153   9.917   6.007   4.810  0.1656 -1.0781 -0.2986
  888MOL0     H17154   9.882   5.918   4.665 -0.2368  1.0705 -1.6983
  888MOL0     H17155   9.723   6.107   4.612  3.8127  2.4963 -0.4120
  888MOL0     H17156   9.735   6.167   4.777 -1.1562  1.6686 -2.6335
  888MOL0     H17157   9.690   5.945   4.871  1.0861 -0.1463 -0.5784
  888MOL0     H17158   9.669   5.880   4.712 -0.0412 -2.1441  1.7724
  888MOL0     H17159   9.492   6.094   4.841  0.4932  1.1533 -0.4047
  888MOL0     H17160   9.479   6.045   4.673 -1.0647  1.2783  0.3674
  888MOL0     H17161   9.460   5.900   4.937  0.3879  0.8216  0.2415
  888MOL0     H17162   9.444   5.805   4.787  1.9562  0.7693 -0.4665
  888MOL0     H17163   9.233   5.904   4.716  0.4782  1.5893 -0.7804
  888MOL0     H17164   9.252   6.028   4.833 -1.2024 -0.1473 -1.8343
  888MOL0     H17165   9.204   5.745   4.918 -0.4187 -0.0742  3.2145
  888MOL0     H17166   9.196   5.888   5.023  0.5419 -1.2533  1.3212
  888MOL0     H17167   9.014   5.808   4.789  0.4358 -1.1175 -0.5583
  888MOL0     H17168   9.011   5.971   4.853 -1.6971 -0.3391  1.6586
  888MOL0     H17169   8.951   6.000   5.122  1.4323 -0.0713 -1.1478
  888MOL0     H17170   8.810   5.967   5.337  1.1572 -0.1984 -0.4596
  888MOL0     H17171   8.825   5.789   5.377 -1.3137  0.4944  0.8452
  888MOL0     H17172   8.590   5.787   5.240 -1.5663 -1.8206  1.1633
  888MOL0     H17173   8.594   5.958   5.269  2.4755  2.0963  2.1435
  888MOL0     H17174   8.646   5.762   5.505 -0.1160 -0.0341  0.3295
  888MOL0     H17175   8.626   5.936   5.504  0.4695  0.0801 -1.0979
  888MOL0     H17176   8.423   5.729   5.430 -2.3814 -2.1179  4.1838
  888MOL0     H17177   8.385   5.908   5.438  0.3109  0.5161  2.5479
  888MOL0     H17178   8.335   5.700   5.828  0.3743  0.8322 -0.7472
  888MOL0     H17179   8.112   5.668   5.919 -2.9752  3.2064  0.6867
  888MOL0     H17180   7.631   5.848   5.925  1.0240 -3.5245  0.7673
  888MOL0     H17181   7.413   5.742   5.977  2.0612 -3.1232  1.9619
  888MOL0     H17182   7.197   5.446   5.693  0.2915  1.7153 -2.3266
  888MOL0     H17183   7.185   5.604   5.619  2.6848  0.4759 -0.3734
  888MOL0     H17184   7.007   5.512   5.861 -1.0530  0.0672 -0.9314
  888MOL0     H17185   6.959   5.482   5.698 -3.0001  1.2189  0.8758
  888MOL0     H17186   6.952   5.739   5.665 -0.9557  2.3102  1.8595
  888MOL0     H17187   7.059   5.753   5.804 -1.0053  1.1202 -0.5018
  888MOL0     H17188   6.793   5.626   5.850  1.7109  0.1071  2.1872
  888MOL0     H17189   6.893   5.726   5.950  0.5798 -2.9947  1.2273
  888MOL0     H17190   6.678   5.829   5.874 -1.2941  0.5064 -0.2881
  888MOL0     H17191   6.716   5.846   5.714 -1.0773  0.4084  0.4290
  888MOL0     H17192   6.899   6.017   5.763  0.0180  0.7653 -0.0880
  888MOL0     H17193   6.923   5.959   5.926  0.8625  1.5099 -1.0975
  888MOL0     H17194   6.777   6.177   5.906 -1.1045  0.9424 -2.1529
  888MOL0     H17195   6.662   6.085   5.835 -0.8955  2.3591  1.0878
  888MOL0     H17196   6.790   6.042   6.109  0.6711  1.9733 -0.4762
  888MOL0     H17197   6.656   5.939   6.040  1.1223 -0.8810 -4.7850
  888MOL0     H17198   7.405   5.614   5.573  1.3484 -0.0352 -0.6732
  888MOL0     H17199   7.646   5.683   5.545 -1.9261  0.5280 -0.6084
  888MOL0     H17200   7.957   5.869   5.574  1.8085  0.1027 -1.3684
  888MOL0     H17201   8.188   5.919   5.494  0.3786 -1.4927 -0.6562
  888MOL0     H17202  10.106   5.855   4.688  0.0647  1.3053  0.4940
  888MOL0     H17203  10.337   5.826   4.693 -0.8235 -0.9231 -1.4212
  888MOL0     H17204  10.849   6.184   4.803  0.2736 -2.7039  1.3370
  888MOL0     H17205  11.074   6.161   4.739 -1.1212 -2.2659  2.2520
  888MOL0     H17206  11.218   5.898   4.401 -0.8340 -1.4108  0.6505
  888MOL0     H17207  11.162   5.841   4.558 -2.7235  2.2982  0.1782
  888MOL0     H17208  11.441   5.987   4.496  1.6007  0.9059  2.7187
  888MOL0     H17209  11.380   5.934   4.648 -1.6094  0.2311  0.0735
  888MOL0     H17210  11.546   5.762   4.521 -0.6074 -2.8540 -0.2436
  888MOL0     H17211  11.433   5.767   4.390  0.3451  0.9221 -0.6175
  888MOL0     H17212  11.273   5.650   4.509 -0.1554  1.2079 -0.1997
  888MOL0     H17213  11.428   5.563   4.516  2.7672  1.6348  0.1712
  888MOL0     H17214  11.425   5.639   4.920 -2.1494 -2.6279  0.2632
  888MOL0     H17215  10.952   5.926   4.395  3.5360  1.7515 -2.3292
  888MOL0     H17216  10.731   5.944   4.463  0.0068  0.5778 -0.7526
  889MOL0     O17217  10.623   5.996   9.044 -0.2930  0.1475  0.2859
  889MOL0     C17218  10.653   5.886   9.084  0.0385  0.0654  0.3727
  889MOL0     O17219  10.569   5.787   9.129 -0.3833 -0.1577  0.5690
  889MOL0     C17220  10.440   5.821   9.133  0.3805  0.3965  0.8236
  889MOL0     C17221  10.384   5.852   9.257  0.4090 -0.9148  0.4565
  889MOL0     C17222  10.255   5.892   9.274  0.1334  0.5829  0.0208
  889MOL0     C17223  10.172   5.896   9.167  0.5367  0.6905  0.6110
  889MOL0     O17224  10.045   5.935   9.197  0.1848  0.3335  0.1633
  889MOL0     C17225   9.966   5.999   9.089 -0.0710  0.1286  0.0901
  889MOL0     C17226   9.837   6.041   9.170  0.2691 -0.1410  0.0608
  889MOL0     C17227   9.746   6.116   9.078  0.0762 -0.5019 -0.4519
  889MOL0     C17228   9.617   6.162   9.145  0.2571 -0.3929 -0.2970
  889MOL0     C17229   9.508   6.047   9.148  0.3936 -1.0138  0.3869
  889MOL0     C17230   9.389   6.095   9.224  0.1141  0.3703 -0.4820
  889MOL0     C17231   9.278   5.997   9.218  0.7154  0.6906  0.0781
  889MOL0     C17232   9.160   6.018   9.315  0.2150  0.7951 -0.3254
  889MOL0     N17233   9.085   6.136   9.284 -0.2124 -0.5428  0.1184
  889MOL0     C17234   8.947   6.137   9.275 -0.2784 -0.1374 -0.1400
  889MOL0     C17235   8.919   6.262   9.237  0.3719 -0.7306 -0.9527
  889MOL0     C17236   8.775   6.304   9.205  0.9512 -0.3137  0.1790
  889MOL0     C17237   8.761   6.386   9.077 -0.1230 -0.6267  0.0540
  889MOL0     C17238   8.628   6.448   9.067  0.0599  0.0614 -0.5582
  889MOL0     C17239   8.532   6.352   9.019  0.5941 -0.1604 -0.5575
  889MOL0     O17240   8.429   6.439   8.962  0.1290  0.6250 -0.1300
  889MOL0     C17241   8.301   6.420   9.015  0.5374  0.4436  0.3929
  889MOL0     C17242   8.187   6.412   8.931 -0.4686 -0.2271 -0.4028
  889MOL0     C17243   8.062   6.390   8.991  0.3055  0.0613  0.3243
  889MOL0     C17244   8.041   6.372   9.128 -0.4658  1.2044  0.2901
  889MOL0     C17245   7.905   6.343   9.191 -0.3592 -0.1184  0.7584
  889MOL0     O17246   7.813   6.277   9.110  0.7655 -0.3029  0.6125
  889MOL0     C17247   7.695   6.228   9.153  0.7436  0.3476  0.1121
  889MOL0     C17248   7.620   6.171   9.048 -0.0896  0.0850 -0.2016
  889MOL0     C17249   7.504   6.096   9.075  0.0198  0.2392 -0.1482
  889MOL0     C17250   7.466   6.070   9.207  0.0716  0.1041  0.0598
  889MOL0     O17251   7.348   5.994   9.238  0.2546  0.0888  0.6229
  889MOL0     C17252   7.301   5.893   9.146 -0.3809  0.2140 -0.7316
  889MOL0     C17253   7.176   5.931   9.061 -0.7478  0.9170 -0.1628
  889MOL0     C17254   7.055   5.890   9.140 -0.6428  0.9013 -0.2610
  889MOL0     C17255   6.928   5.915   9.056  0.9816 -0.5671  0.7323
  889MOL0     C17256   6.801   5.869   9.121 -0.3718 -1.2437  0.3068
  889MOL0     C17257   6.759   5.960   9.246 -0.0436 -0.0783  0.3951
  889MOL0     C17258   6.613   5.920   9.298 -0.4112 -0.0696  0.1275
  889MOL0     C17259   6.594   5.978   9.428  0.6480  0.1387 -0.9872
  889MOL0    Cl17260   6.444   5.913   9.514  0.2123 -0.1327  0.2571
  889MOL0     C17261   7.542   6.124   9.306  0.6332  0.6748 -0.5164
  889MOL0     C17262   7.652   6.202   9.286 -0.3139 -0.6898  0.0953
  889MOL0     O17263   7.889   6.365   9.313  0.3480 -0.0951  0.0230
  889MOL0     C17264   8.156   6.396   9.211  0.2949  0.5025 -0.1333
  889MOL0     C17265   8.281   6.415   9.151 -0.1425  0.0980  0.8358
  889MOL0     N17266   9.028   6.336   9.237 -0.4260 -0.8241  0.5830
  889MOL0     N17267   9.132   6.262   9.266  0.6181  0.8185 -0.4351
  889MOL0     C17268  10.217   5.862   9.037  0.0094  0.4022  0.4309
  889MOL0     C17269  10.353   5.818   9.019 -0.5905 -1.2192 -0.1301
  889MOL0     C17270  10.790   5.861   9.071  0.5155 -0.2780  0.0668
  889MOL0     C17271  10.863   5.907   8.962 -0.2341 -0.0565  1.3231
  889MOL0     C17272  11.002   5.895   8.966 -0.0664 -0.6449  0.1323
  889MOL0     C17273  11.075   5.826   9.068  0.2216 -0.3734  0.5187
  889MOL0     O17274  11.211   5.803   9.092  0.4049 -0.6736  0.6255
  889MOL0     C17275  11.304   5.876   9.008 -0.3452 -0.0929 -0.3788
  889MOL0     C17276  11.449   5.879   9.050  0.1971 -0.1506  0.7946
  889MOL0     C17277  11.536   5.919   8.930 -0.3952 -0.1695 -0.4851
  889MOL0     C17278  11.573   5.816   8.829 -0.6148  0.4170 -0.4700
  889MOL0     C17279  11.464   5.802   8.731 -1.0954  0.9460 -0.9399
  889MOL0     C17280  11.383   5.795   8.642 -0.5441 -0.1828 -0.8149
  889MOL0     C17281  10.989   5.780   9.170 -0.0586 -0.0567 -0.2947
  889MOL0     C17282  10.848   5.786   9.171  0.6298 -0.0724  0.5793
  889MOL0     H17283  10.454   5.841   9.339  1.8854  2.1918 -0.2545
  889MOL0     H17284  10.217   5.920   9.372  1.4181 -0.8330  0.9882
  889MOL0     H17285   9.949   5.934   9.002 -1.0081  0.4130  0.0499
  889MOL0     H17286  10.008   6.096   9.060 -2.3136  0.4617 -2.4797
  889MOL0     H17287   9.867   6.104   9.254 -1.9223  0.1647  0.6882
  889MOL0     H17288   9.782   5.952   9.202 -1.0457  1.0030  1.1002
  889MOL0     H17289   9.718   6.056   8.990 -2.9622 -0.0549  0.1155
  889MOL0     H17290   9.806   6.199   9.040  0.8386 -1.4107 -1.3085
  889MOL0     H17291   9.638   6.204   9.243 -2.6702 -2.1982  1.2401
  889MOL0     H17292   9.570   6.245   9.092 -3.3622 -2.2068 -0.2349
  889MOL0     H17293   9.549   5.957   9.196 -1.3406 -1.3644  1.2878
  889MOL0     H17294   9.488   6.011   9.047  3.1860 -0.9173 -0.3025
  889MOL0     H17295   9.351   6.192   9.191  0.8632  1.1305  0.7941
  889MOL0     H17296   9.424   6.098   9.328 -1.6506 -2.1495  0.3026
  889MOL0     H17297   9.229   5.994   9.120 -5.0773 -1.4602  2.5912
  889MOL0     H17298   9.323   5.904   9.253  0.0914 -0.0515 -1.0422
  889MOL0     H17299   9.197   6.014   9.418  0.8848  0.0904 -0.5781
  889MOL0     H17300   9.093   5.932   9.319  0.9695  0.2569  1.1448
  889MOL0     H17301   8.880   6.053   9.287 -0.1049 -0.2058  0.3380
  889MOL0     H17302   8.729   6.352   9.292 -0.6061  0.5332 -1.0546
  889MOL0     H17303   8.714   6.215   9.187 -2.5116  2.1766 -1.6081
  889MOL0     H17304   8.791   6.325   8.991  1.6969 -0.4155  0.4931
  889MOL0     H17305   8.830   6.469   9.092  2.9601 -2.7305 -1.3388
  889MOL0     H17306   8.584   6.480   9.162  2.1573 -2.9295  1.6209
  889MOL0     H17307   8.643   6.533   9.000 -0.7749  1.1372  0.5799
  889MOL0     H17308   8.495   6.279   9.092  3.1878 -0.8082  0.2154
  889MOL0     H17309   8.569   6.286   8.939 -1.3386 -1.2830 -0.5972
  889MOL0     H17310   8.189   6.430   8.825  0.7353  0.0863 -0.3448
  889MOL0     H17311   7.977   6.390   8.923  1.5107  0.0561 -1.2264
  889MOL0     H17312   7.650   6.182   8.944 -1.9930  3.0888 -0.5272
  889MOL0     H17313   7.441   6.064   8.993 -0.3772 -0.5715  0.4683
  889MOL0     H17314   7.292   5.802   9.206  0.1151  0.6197 -0.0176
  889MOL0     H17315   7.384   5.870   9.078 -1.0973  0.3371 -1.6575
  889MOL0     H17316   7.184   5.874   8.967 -1.7202 -0.1835  0.3889
  889MOL0     H17317   7.174   6.039   9.048  2.3923  0.8314 -2.8018
  889MOL0     H17318   7.043   5.942   9.236 -0.8153  2.8589 -1.2893
  889MOL0     H17319   7.063   5.783   9.160 -1.0078  0.9490  0.1647
  889MOL0     H17320   6.915   6.022   9.035  1.5724 -0.5939  0.2126
  889MOL0     H17321   6.933   5.865   8.959  1.4564 -0.9288  0.9408
  889MOL0     H17322   6.806   5.762   9.146 -1.2873 -1.7223 -1.3883
  889MOL0     H17323   6.729   5.879   9.040  1.6726  0.6826 -1.4027
  889MOL0     H17324   6.740   6.061   9.209  0.9546 -0.0282  0.0041
  889MOL0     H17325   6.826   5.966   9.332  2.2058 -2.4519 -1.0486
  889MOL0     H17326   6.538   5.937   9.220  1.1490  0.1180 -1.3938
  889MOL0     H17327   6.601   5.812   9.315 -2.2815  0.1990  0.6903
  889MOL0     H17328   6.588   6.087   9.432 -5.2986  0.1939 -2.1562
  889MOL0     H17329   6.673   5.951   9.498  1.3010 -1.9512 -2.4233
  889MOL0     H17330   7.533   6.106   9.412  1.3202 -0.2762 -0.6055
  889MOL0     H17331   7.698   6.240   9.377 -2.4163  3.7439 -0.4204
  889MOL0     H17332   8.148   6.384   9.318  0.2340 -3.0560 -0.4143
  889MOL0     H17333   8.365   6.428   9.219  0.4041  0.6619  0.0690
  889MOL0     H17334  10.151   5.859   8.951 -2.2485 -1.6605  2.0897
  889MOL0     H17335  10.391   5.765   8.933  1.7984  0.9428 -0.5348
  889MOL0     H17336  10.813   5.961   8.883 -2.5037 -2.9988  0.5507
  889MOL0     H17337  11.069   5.940   8.894 -0.8404 -0.2794 -0.3617
  889MOL0     H17338  11.267   5.979   9.008 -0.6350 -0.1956 -0.1373
  889MOL0     H17339  11.299   5.837   8.906  0.5567  1.0400 -0.8772
  889MOL0     H17340  11.467   5.949   9.132 -2.7781  1.8331 -0.1177
  889MOL0     H17341  11.480   5.784   9.095 -0.2168 -0.2052  0.9687
  889MOL0     H17342  11.634   5.958   8.959 -0.5551  1.7199 -2.2438
  889MOL0     H17343  11.486   6.001   8.878  0.2331  0.4467 -0.1363
  889MOL0     H17344  11.661   5.834   8.767 -0.9570  0.4185 -0.9580
  889MOL0     H17345  11.595   5.727   8.888 -0.6330  2.4237  2.8263
  889MOL0     H17346  11.326   5.788   8.552 -0.6287  0.4350 -0.8111
  889MOL0     H17347  11.036   5.721   9.248 -0.4194  1.1851  0.9025
  889MOL0     H17348  10.806   5.766   9.269  1.2159  1.0576  1.0739
  890MOL0     O17349   7.011   4.178   5.909  0.1448 -0.3509 -0.5251
  890MOL0     C17350   7.094   4.261   5.865 -0.0945  0.2577  0.2167
  890MOL0     O17351   7.083   4.319   5.749  0.2634 -0.7088  0.0674
  890MOL0     C17352   6.976   4.303   5.671  1.0696  0.2663 -0.1256
  890MOL0     C17353   6.957   4.176   5.612 -0.0079  0.2592 -0.1483
  890MOL0     C17354   6.851   4.154   5.527  0.4004  0.3142  0.9242
  890MOL0     C17355   6.757   4.261   5.501  0.5632  0.1242  0.0872
  890MOL0     O17356   6.644   4.240   5.424 -0.6128  0.5891 -0.0789
  890MOL0     C17357   6.520   4.307   5.458  0.7910 -0.4567 -0.6572
  890MOL0     C17358   6.415   4.211   5.389  0.7863 -0.3900 -0.5124
  890MOL0     C17359   6.264   4.233   5.423 -0.1722  0.1615  0.0685
  890MOL0     C17360   6.231   4.171   5.558 -0.2207  0.1168  0.3400
  890MOL0     C17361   6.075   4.174   5.594 -0.0076 -0.1823 -0.2188
  890MOL0     C17362   6.066   4.174   5.746 -0.5023  0.6807  0.2734
  890MOL0     C17363   5.927   4.136   5.787  0.8035 -0.1491 -0.6896
  890MOL0     C17364   5.818   4.219   5.720  0.6413 -0.2391 -0.4654
  890MOL0     N17365   5.690   4.227   5.797 -0.4338  0.3243  0.2760
  890MOL0     C17366   5.598   4.129   5.810  0.3918 -0.3619 -0.3838
  890MOL0     C17367   5.490   4.190   5.858 -0.0437  0.0163  0.3086
  890MOL0     C17368   5.357   4.124   5.887 -0.3842 -0.2728  0.3491
  890MOL0     C17369   5.243   4.152   5.772 -0.5729  0.3409 -0.3802
  890MOL0     C17370   5.115   4.101   5.825  0.0562  0.0053 -0.1702
  890MOL0     C17371   5.015   4.120   5.715 -0.1061  0.3130 -0.1780
  890MOL0     O17372   4.898   4.036   5.729 -0.4276  0.0864  0.0393
  890MOL0     C17373   4.792   4.080   5.654 -0.1211  0.1180 -0.4374
  890MOL0     C17374   4.683   3.992   5.646  0.1560  0.3169 -0.6288
  890MOL0     C17375   4.567   4.024   5.571 -1.2586 -0.3783 -1.2578
  890MOL0     C17376   4.563   4.155   5.509 -0.5765 -0.1977 -0.3262
  890MOL0     C17377   4.446   4.201   5.436  0.3264 -0.5625 -0.2456
  890MOL0     O17378   4.367   4.104   5.394  0.2083 -0.6236 -0.1014
  890MOL0     C17379   4.229   4.116   5.377 -1.0849  0.0039  0.2865
  890MOL0     C17380   4.164   4.008   5.319  0.6556  0.3253  0.5836
  890MOL0     C17381   4.022   4.000   5.301  0.3773  0.0155  0.3018
  890MOL0     C17382   3.945   4.114   5.339 -0.0332  0.9427 -0.8345
  890MOL0     O17383   3.813   4.116   5.306  0.1583  0.2987 -0.0326
  890MOL0     C17384   3.716   4.159   5.408  0.4821 -0.2598 -0.8222
  890MOL0     C17385   3.571   4.189   5.354 -0.7515 -0.5366  0.4882
  890MOL0     C17386   3.573   4.326   5.285 -0.7345  0.2033  0.5804
  890MOL0     C17387   3.442   4.396   5.281  0.3550  0.4400 -0.1572
  890MOL0     C17388   3.437   4.521   5.197  0.5792  1.1102  0.0337
  890MOL0     C17389   3.405   4.497   5.045 -0.1927 -0.1290 -0.8705
  890MOL0     C17390   3.400   4.621   4.964 -0.6557 -0.7733 -0.7124
  890MOL0     C17391   3.410   4.584   4.816 -1.1740  0.5824  0.3506
  890MOL0    Cl17392   3.248   4.516   4.761  0.4935  0.1417 -0.1586
  890MOL0     C17393   4.010   4.218   5.413  0.3641 -0.1357 -0.5342
  890MOL0     C17394   4.150   4.218   5.428  0.3135  0.3491  0.2679
  890MOL0     O17395   4.419   4.321   5.430  0.6060 -0.0578 -0.1171
  890MOL0     C17396   4.672   4.241   5.519  0.5292 -0.2289  0.7942
  890MOL0     C17397   4.783   4.209   5.589 -0.3856 -0.5982  0.5397
  890MOL0     N17398   5.517   4.320   5.871  0.3577  0.2943  0.0451
  890MOL0     N17399   5.634   4.342   5.838  0.6445 -1.5353  0.0146
  890MOL0     C17400   6.776   4.385   5.571 -0.1801  0.5961  0.1001
  890MOL0     C17401   6.887   4.404   5.647 -0.3449  0.4273 -0.2651
  890MOL0     C17402   7.220   4.266   5.943  0.3164  0.8098  0.7945
  890MOL0     C17403   7.253   4.162   6.027 -0.3824  0.2222  0.1324
  890MOL0     C17404   7.370   4.175   6.105 -1.3577  0.4492 -0.0791
  890MOL0     C17405   7.464   4.279   6.082 -0.5686 -0.6253  0.3886
  890MOL0     O17406   7.586   4.272   6.149 -0.0428  0.1584 -0.7708
  890MOL0     C17407   7.650   4.399   6.169 -0.6293  0.4617 -0.9502
  890MOL0     C17408   7.769   4.380   6.260  0.2966 -0.9489 -0.1856
  890MOL0     C17409   7.843   4.519   6.260 -0.0659  0.4201 -0.0384
  890MOL0     C17410   7.920   4.559   6.129 -0.7011  0.1681  1.2160
  890MOL0     C17411   8.002   4.449   6.078 -0.2477 -0.1283  0.2946
  890MOL0     C17412   8.063   4.356   6.021 -0.2716  0.6100 -0.0433
  890MOL0     C17413   7.433   4.384   5.995 -0.9515  0.1101  0.3188
  890MOL0     C17414   7.307   4.374   5.938  0.2815 -0.8276 -0.5967
  890MOL0     H17415   7.021   4.091   5.632 -0.6010  0.0016  0.6989
  890MOL0     H17416   6.858   4.053   5.488 -0.1024  0.5595  0.1847
  890MOL0     H17417   6.502   4.402   5.407 -0.8734 -0.8778 -0.9214
  890MOL0     H17418   6.495   4.330   5.562 -2.0298  4.0648 -2.0238
  890MOL0     H17419   6.429   4.108   5.423  0.9900  0.6740  3.0446
  890MOL0     H17420   6.439   4.226   5.283  2.9689  3.1171  0.2771
  890MOL0     H17421   6.205   4.182   5.347  0.6720 -1.1611  0.2600
  890MOL0     H17422   6.242   4.340   5.427 -0.8630 -0.0136  2.2522
  890MOL0     H17423   6.265   4.067   5.564 -1.9600 -0.7457 -2.5589
  890MOL0     H17424   6.283   4.235   5.629  0.8461  0.1600 -0.4652
  890MOL0     H17425   6.016   4.094   5.549  2.1563 -1.2775 -1.2840
  890MOL0     H17426   6.028   4.266   5.556 -5.2479 -1.8946  1.2229
  890MOL0     H17427   6.083   4.274   5.788  1.0639 -0.5075  2.7043
  890MOL0     H17428   6.141   4.106   5.787 -0.5669 -1.4310 -2.7866
  890MOL0     H17429   5.904   4.034   5.754  0.4300  0.7618 -3.4867
  890MOL0     H17430   5.916   4.147   5.896 -1.2747 -1.0702 -0.7722
  890MOL0     H17431   5.790   4.184   5.620  3.1341 -0.9647 -0.9789
  890MOL0     H17432   5.860   4.317   5.695  3.1134 -1.5864 -2.0342
  890MOL0     H17433   5.600   4.025   5.781 -0.3040 -0.0356 -1.6783
  890MOL0     H17434   5.336   4.163   5.986  0.8256 -0.8832  0.8694
  890MOL0     H17435   5.363   4.017   5.909  1.1491 -0.4215 -0.6017
  890MOL0     H17436   5.268   4.098   5.680 -1.0208  0.7343 -0.7325
  890MOL0     H17437   5.227   4.258   5.750  2.0390  1.3050  1.7561
  890MOL0     H17438   5.142   3.998   5.849  2.8233  0.6823 -0.0132
  890MOL0     H17439   5.092   4.154   5.917 -3.2331  2.1790 -2.0268
  890MOL0     H17440   5.055   4.102   5.614  1.7073 -3.0728  0.9991
  890MOL0     H17441   4.994   4.227   5.720  0.1379  0.2983  1.7348
  890MOL0     H17442   4.689   3.901   5.703  0.0334  0.4409 -0.4196
  890MOL0     H17443   4.483   3.955   5.568 -1.3979 -0.4289  1.3717
  890MOL0     H17444   4.227   3.935   5.269  0.2701  1.3310 -1.4679
  890MOL0     H17445   3.981   3.922   5.237 -1.0187 -0.6806  1.9776
  890MOL0     H17446   3.743   4.252   5.459 -2.6577 -0.7598  2.1173
  890MOL0     H17447   3.703   4.082   5.485  0.6710 -1.6137 -2.1075
  890MOL0     H17448   3.498   4.197   5.436 -1.5285  1.6157 -0.3541
  890MOL0     H17449   3.545   4.108   5.286  2.5380 -1.7253  0.5099
  890MOL0     H17450   3.615   4.309   5.186 -0.1290 -2.2577  1.1926
  890MOL0     H17451   3.642   4.392   5.338  0.4793  0.4641 -1.2406
  890MOL0     H17452   3.361   4.335   5.239 -0.5744  2.7272 -1.9787
  890MOL0     H17453   3.407   4.416   5.382  0.0975 -2.4729  0.4151
  890MOL0     H17454   3.529   4.575   5.217  1.0942  0.1154  0.4447
  890MOL0     H17455   3.357   4.586   5.235 -0.2312  0.0622  0.1911
  890MOL0     H17456   3.310   4.445   5.035  1.4523 -3.4377 -0.8722
  890MOL0     H17457   3.481   4.429   5.004 -1.5118 -2.1130 -0.1287
  890MOL0     H17458   3.310   4.675   4.996  0.3038 -1.2879  3.4314
  890MOL0     H17459   3.483   4.688   4.988 -1.1710 -0.1424 -0.6730
  890MOL0     H17460   3.487   4.507   4.805 -0.4873  1.1625  0.9308
  890MOL0     H17461   3.435   4.667   4.750  1.1471 -1.1724 -1.1462
  890MOL0     H17462   3.957   4.303   5.453  2.9562  2.2211 -1.8125
  890MOL0     H17463   4.185   4.301   5.488 -0.3400  1.9555 -1.4719
  890MOL0     H17464   4.675   4.335   5.465 -0.8674 -2.4581 -3.6478
  890MOL0     H17465   4.855   4.290   5.587  0.3714 -1.2718 -0.9292
  890MOL0     H17466   6.699   4.461   5.567  0.0248  1.0234  2.5726
  890MOL0     H17467   6.898   4.505   5.685 -0.9295  0.7098 -0.8113
  890MOL0     H17468   7.187   4.082   6.059 -1.3342  1.5976  1.7566
  890MOL0     H17469   7.395   4.101   6.179  1.0695  1.5070  0.2638
  890MOL0     H17470   7.582   4.469   6.218  1.4462  1.1747  1.0423
  890MOL0     H17471   7.686   4.435   6.073  1.7421 -1.0817 -0.7335
  890MOL0     H17472   7.748   4.348   6.363  0.8765  1.4973  0.7583
  890MOL0     H17473   7.833   4.297   6.227 -0.7768 -2.8272  2.1317
  890MOL0     H17474   7.924   4.506   6.332  0.6757  1.0176 -0.7421
  890MOL0     H17475   7.776   4.602   6.283 -2.0477 -0.8193 -1.1057
  890MOL0     H17476   7.848   4.590   6.053 -1.8105 -2.7361  0.9601
  890MOL0     H17477   7.976   4.651   6.148  0.5362 -0.7985  2.4107
  890MOL0     H17478   8.113   4.274   5.974 -0.3273  1.4603 -1.6448
  890MOL0     H17479   7.499   4.469   5.977  0.0642 -0.6691  0.2408
  890MOL0     H17480   7.263   4.450   5.875 -0.7556 -1.2767 -0.4285
  891MOL0     O17481  11.139   8.944  11.003  0.7232 -0.7225  0.8347
  891MOL0     C17482  11.138   8.824  11.026  0.5242  0.0661 -1.3899
  891MOL0     O17483  11.033   8.750  11.076  0.3281  0.1220 -0.3340
  891MOL0     C17484  10.910   8.814  11.079  0.6913  0.5172  0.7232
  891MOL0     C17485  10.849   8.883  10.980 -0.5996 -0.2652  0.7907
  891MOL0     C17486  10.724   8.946  11.002 -0.4042  0.5579  0.7027
  891MOL0     C17487  10.661   8.940  11.128  0.3700  0.1078  1.2205
  891MOL0     O17488  10.545   9.002  11.163 -0.3127 -0.5111 -1.0633
  891MOL0     C17489  10.460   9.050  11.058 -0.4153  1.0338 -0.2575
  891MOL0     C17490  10.352   9.129  11.125  0.6674  0.4774  0.8264
  891MOL0     C17491  10.242   9.158  11.010 -0.3738 -0.2271 -0.1341
  891MOL0     C17492  10.136   9.231  11.087 -0.0831  0.0448  0.5064
  891MOL0     C17493  10.002   9.252  11.003  0.0862  0.0129  0.2570
  891MOL0     C17494   9.897   9.343  11.058  0.3729 -0.0147 -0.1190
  891MOL0     C17495   9.770   9.264  11.101  0.1846  0.0183  1.0552
  891MOL0     C17496   9.665   9.346  11.165  0.6863  0.2025  0.1301
  891MOL0     N17497   9.551   9.272  11.232 -0.5565 -0.0158 -0.0012
  891MOL0     C17498   9.474   9.181  11.163 -0.9891 -0.8272 -0.8638
  891MOL0     C17499   9.410   9.108  11.258 -0.4527  0.5033 -1.4032
  891MOL0     C17500   9.316   8.995  11.236 -1.0423 -0.8040  0.7517
  891MOL0     C17501   9.204   8.990  11.333 -0.7286  0.8856 -0.6315
  891MOL0     C17502   9.109   9.107  11.323 -0.0398  0.0877 -0.1796
  891MOL0     C17503   8.997   9.090  11.413  1.2370  0.0290 -0.3077
  891MOL0     O17504   8.904   9.201  11.383 -0.9070 -0.3734  0.3045
  891MOL0     C17505   8.765   9.184  11.379 -0.1857 -0.1828 -0.6910
  891MOL0     C17506   8.690   9.297  11.338 -0.1310 -0.3201  0.2122
  891MOL0     C17507   8.555   9.302  11.335  0.8658  0.0173 -0.7977
  891MOL0     C17508   8.476   9.192  11.390 -0.7853 -0.5058 -0.9255
  891MOL0     C17509   8.334   9.215  11.432 -0.6859 -0.2730  0.6745
  891MOL0     O17510   8.255   9.109  11.460  0.1406 -0.1715 -0.8968
  891MOL0     C17511   8.117   9.110  11.478  0.2051 -1.7141 -0.6182
  891MOL0     C17512   8.051   9.215  11.548 -0.1484 -0.0279 -0.0924
  891MOL0     C17513   7.913   9.213  11.562  0.5943  0.9376  0.2590
  891MOL0     C17514   7.854   9.087  11.536  0.2274  0.2231 -0.2085
  891MOL0     O17515   7.713   9.078  11.548  0.4064  0.7471  0.4043
  891MOL0     C17516   7.644   8.956  11.522  0.1163 -0.6381  0.7905
  891MOL0     C17517   7.493   8.976  11.536  1.6019  0.3890 -0.5524
  891MOL0     C17518   7.420   8.848  11.507 -0.5148  0.0721  0.1445
  891MOL0     C17519   7.268   8.857  11.534 -0.6935  0.2141  0.9869
  891MOL0     C17520   7.207   8.724  11.491 -0.3009 -0.2881 -0.3130
  891MOL0     C17521   7.057   8.708  11.542 -0.5214 -0.4373  0.2610
  891MOL0     C17522   7.005   8.571  11.491  0.4098 -0.4487 -0.2022
  891MOL0     C17523   7.000   8.543  11.348 -0.8829  0.4638 -0.1409
  891MOL0    Cl17524   6.896   8.664  11.269  0.2957 -0.4673 -0.0850
  891MOL0     C17525   7.930   8.978  11.488  0.2510  0.5596  0.5693
  891MOL0     C17526   8.064   8.994  11.453 -0.3184 -0.9436  0.2026
  891MOL0     O17527   8.295   9.330  11.421 -0.6383  0.1994  0.2098
  891MOL0     C17528   8.547   9.079  11.435 -0.2451 -0.5084  0.5485
  891MOL0     C17529   8.684   9.067  11.416 -0.2479 -0.1295  1.1505
  891MOL0     N17530   9.441   9.154  11.387  0.3648  0.1737  0.0836
  891MOL0     N17531   9.525   9.248  11.364  0.5495 -0.2631 -0.2485
  891MOL0     C17532  10.730   8.877  11.229 -0.2264 -0.6699  0.3261
  891MOL0     C17533  10.848   8.809  11.206 -0.5230  0.6337  0.1548
  891MOL0     C17534  11.253   8.736  10.992  0.0268 -0.0571  0.1500
  891MOL0     C17535  11.372   8.794  10.972  0.0214 -0.0925 -0.2378
  891MOL0     C17536  11.495   8.721  10.951 -0.0945 -0.3888 -0.1025
  891MOL0     C17537  11.498   8.588  10.959  0.3779 -0.8540 -0.0617
  891MOL0     O17538  11.621   8.532  10.936 -0.0217 -0.2575 -0.1533
  891MOL0     C17539  11.613   8.382  10.939 -0.3565  0.0208 -0.5962
  891MOL0     C17540  11.750   8.338  10.908  0.0850  0.1767 -0.4040
  891MOL0     C17541  11.859   8.382  11.009  0.5395 -0.7868 -0.3889
  891MOL0     C17542  11.994   8.342  10.954 -0.2088  0.2015  0.1913
  891MOL0     C17543  12.111   8.375  11.038  0.5180 -0.2366 -0.5882
  891MOL0     C17544  12.203   8.408  11.109 -0.3099  0.4418 -0.4398
  891MOL0     C17545  11.373   8.526  10.990 -0.0230  0.9486  0.1893
  891MOL0     C17546  11.250   8.599  11.008  0.1626 -0.9408 -0.1740
  891MOL0     H17547  10.901   8.895  10.885  2.1496 -2.7502  1.8142
  891MOL0     H17548  10.694   9.019  10.928  2.2211  1.4396  0.4161
  891MOL0     H17549  10.427   8.964  10.998 -1.1620  0.5743  0.7822
  891MOL0     H17550  10.512   9.119  10.992  0.8664  3.5334  3.0775
  891MOL0     H17551  10.390   9.222  11.169  0.7751  2.0916 -2.3717
  891MOL0     H17552  10.316   9.062  11.205  1.8858 -1.2182  0.0061
  891MOL0     H17553  10.199   9.067  10.965 -0.1252  0.3889 -1.6703
  891MOL0     H17554  10.281   9.225  10.933  0.9060  0.5957  1.1964
  891MOL0     H17555  10.110   9.166  11.172 -1.2606  1.8154  1.5641
  891MOL0     H17556  10.180   9.323  11.127  0.1867 -0.4870  1.4760
  891MOL0     H17557   9.957   9.155  10.978 -0.8030 -0.2197  2.5519
  891MOL0     H17558  10.033   9.299  10.909 -0.8456 -0.7689 -0.4734
  891MOL0     H17559   9.864   9.411  10.978  1.1102  0.6091  0.1046
  891MOL0     H17560   9.942   9.398  11.141 -0.0065  3.1554 -1.8567
  891MOL0     H17561   9.731   9.215  11.012  0.0947  0.4108  0.8740
  891MOL0     H17562   9.806   9.202  11.184  3.6496  0.0793 -0.2328
  891MOL0     H17563   9.624   9.416  11.091  0.0379  0.7990  1.0362
  891MOL0     H17564   9.724   9.399  11.240  1.5554 -2.6423  1.6267
  891MOL0     H17565   9.470   9.183  11.054 -0.4345  0.0428 -0.8796
  891MOL0     H17566   9.372   8.901  11.238 -1.6659 -1.2144 -0.1950
  891MOL0     H17567   9.266   9.010  11.140  0.7168  2.4014  0.1978
  891MOL0     H17568   9.238   8.972  11.435 -1.2357  3.2696  0.0191
  891MOL0     H17569   9.144   8.901  11.309 -0.0520  0.2002  0.1424
  891MOL0     H17570   9.159   9.200  11.351  1.7434 -1.0393  0.5918
  891MOL0     H17571   9.076   9.113  11.220  2.2205 -1.3565 -1.0723
  891MOL0     H17572   9.031   9.098  11.517  0.7258 -1.3336 -0.0210
  891MOL0     H17573   8.959   8.988  11.401 -1.8971  0.9632  0.6181
  891MOL0     H17574   8.745   9.387  11.314 -0.1544 -0.2016  0.5882
  891MOL0     H17575   8.518   9.400  11.308  0.8519 -0.2292 -1.6831
  891MOL0     H17576   8.102   9.308  11.573 -2.3968  0.5329  2.9772
  891MOL0     H17577   7.848   9.296  11.587 -2.2997  0.1776 -3.8314
  891MOL0     H17578   7.669   8.895  11.609 -0.7665  1.6710  2.7868
  891MOL0     H17579   7.665   8.919  11.421 -0.0029  3.1518 -0.8265
  891MOL0     H17580   7.456   9.059  11.474 -1.6722  0.1808  0.9331
  891MOL0     H17581   7.476   8.998  11.641 -0.2118  0.2523 -0.7908
  891MOL0     H17582   7.470   8.769  11.563 -1.0304  1.1141  2.1643
  891MOL0     H17583   7.431   8.826  11.400 -1.5713  3.9111 -0.9214
  891MOL0     H17584   7.258   8.865  11.642  1.2081  0.0899  1.1921
  891MOL0     H17585   7.217   8.928  11.467  1.8653  0.1319 -1.2314
  891MOL0     H17586   7.261   8.640  11.535 -1.1648 -2.2876 -2.8252
  891MOL0     H17587   7.225   8.702  11.385  0.3513 -0.3697 -0.1865
  891MOL0     H17588   7.005   8.798  11.508  1.9723  1.3852  0.9905
  891MOL0     H17589   7.071   8.712  11.650  0.9414  1.3001  0.0688
  891MOL0     H17590   7.076   8.498  11.532  1.7749  0.9437 -0.0081
  891MOL0     H17591   6.901   8.565  11.525  0.2392 -0.3053 -0.6927
  891MOL0     H17592   6.974   8.437  11.337  3.1568 -0.9549  1.8347
  891MOL0     H17593   7.102   8.547  11.307 -1.2366  1.8014 -0.9349
  891MOL0     H17594   7.895   8.878  11.465  2.2990  0.2718 -1.6218
  891MOL0     H17595   8.123   8.909  11.421 -0.4136 -0.0631 -2.6076
  891MOL0     H17596   8.491   9.000  11.486 -1.1713  0.3852  0.9682
  891MOL0     H17597   8.728   8.972  11.445  0.3992 -0.0348  0.5075
  891MOL0     H17598  10.691   8.878  11.330  0.4899 -1.1821  0.6133
  891MOL0     H17599  10.907   8.755  11.280 -1.9322  1.1047  1.6776
  891MOL0     H17600  11.383   8.902  10.966  3.7058 -0.3450 -0.8270
  891MOL0     H17601  11.581   8.784  10.929 -1.6672  2.6867  1.7724
  891MOL0     H17602  11.544   8.347  10.862  0.4869 -0.0099 -1.3551
  891MOL0     H17603  11.579   8.350  11.038 -0.0500  0.0787 -0.4733
  891MOL0     H17604  11.738   8.230  10.906 -1.7391  0.3036  0.6801
  891MOL0     H17605  11.786   8.376  10.812  2.2476 -0.5873  0.0481
  891MOL0     H17606  11.839   8.322  11.099 -1.5112  0.7032  0.2068
  891MOL0     H17607  11.861   8.490  11.022  0.0510 -0.5671 -1.8965
  891MOL0     H17608  11.998   8.234  10.933 -0.7645 -0.1875  1.9051
  891MOL0     H17609  12.008   8.397  10.861 -0.6254 -0.3242 -0.1883
  891MOL0     H17610  12.280   8.443  11.175  1.3381 -0.4836 -1.8077
  891MOL0     H17611  11.372   8.419  11.010  2.1814  1.2742  2.5244
  891MOL0     H17612  11.160   8.550  11.044 -1.3889  0.1062 -2.4444
  892MOL0     O17613   0.114   7.579   0.533  0.3147  0.0587 -0.0190
  892MOL0     C17614   0.121   7.492   0.448 -0.5201  0.2515 -0.0464
  892MOL0     O17615   0.022   7.441   0.370 -0.2399  0.2966 -0.2963
  892MOL0     C17616  -0.103   7.496   0.362  0.2509 -0.0575 -0.1421
  892MOL0     C17617  -0.196   7.423   0.287  0.2675 -0.1246 -0.0925
  892MOL0     C17618  -0.321   7.472   0.260 -0.2097  0.9175 -0.5807
  892MOL0     C17619  -0.362   7.594   0.300 -0.3837  0.1247 -1.4098
  892MOL0     O17620  -0.489   7.642   0.277  0.3024 -0.5795  0.5425
  892MOL0     C17621  -0.547   7.748   0.351 -0.0295  0.8093  0.1952
  892MOL0     C17622  -0.690   7.759   0.302  0.2716  1.3785  0.5014
  892MOL0     C17623  -0.792   7.672   0.373 -1.4798 -0.4910  0.2159
  892MOL0     C17624  -0.934   7.726   0.375  0.4043  0.4347  1.1495
  892MOL0     C17625  -1.051   7.659   0.445  0.0591 -0.1705  0.0421
  892MOL0     C17626  -1.046   7.505   0.449  0.7691 -1.2691  0.5411
  892MOL0     C17627  -1.174   7.453   0.521  0.0008 -0.3096 -0.1135
  892MOL0     C17628  -1.284   7.464   0.420  0.8515 -0.5600  0.6172
  892MOL0     N17629  -1.419   7.445   0.469 -0.7853 -0.5929  0.8126
  892MOL0     C17630  -1.476   7.326   0.509 -1.1019 -0.9975 -0.4716
  892MOL0     C17631  -1.610   7.354   0.539  0.0022 -0.4480  1.0745
  892MOL0     C17632  -1.720   7.259   0.559 -0.1797  0.1645 -0.2657
  892MOL0     C17633  -1.748   7.254   0.715  0.0582  0.1312  0.2647
  892MOL0     C17634  -1.783   7.378   0.784 -0.2996 -0.5321 -0.2181
  892MOL0     C17635  -1.819   7.365   0.933 -0.4903 -0.1414 -0.6012
  892MOL0     O17636  -1.917   7.273   0.960  0.7893  0.2191  0.0408
  892MOL0     C17637  -2.057   7.308   0.937 -0.7891 -0.6785  1.2053
  892MOL0     C17638  -2.145   7.203   0.931  1.1150 -1.2990  0.3262
  892MOL0     C17639  -2.280   7.220   0.925 -0.4179  0.4704 -0.8039
  892MOL0     C17640  -2.331   7.355   0.943 -0.4912 -0.2367  0.0876
  892MOL0     C17641  -2.479   7.373   0.945  0.0858  0.1054 -0.3205
  892MOL0     O17642  -2.561   7.267   0.972  0.1560  0.2700 -0.4870
  892MOL0     C17643  -2.695   7.303   0.987  0.3220 -0.3884 -0.4226
  892MOL0     C17644  -2.745   7.344   1.107 -0.1808  0.0331  0.4559
  892MOL0     C17645  -2.883   7.382   1.119 -0.6118  0.6768 -0.2742
  892MOL0     C17646  -2.973   7.370   1.012 -0.3399  0.1183  0.7811
  892MOL0     O17647  -3.112   7.386   1.037  0.2240  0.0638  0.0165
  892MOL0     C17648  -3.150   7.503   1.108 -0.8283 -0.3331  0.1298
  892MOL0     C17649  -3.278   7.564   1.051  0.5131  0.3962  0.4750
  892MOL0     C17650  -3.408   7.539   1.137  0.1152  0.0237  0.6854
  892MOL0     C17651  -3.530   7.628   1.099  1.0202  0.4929 -0.3148
  892MOL0     C17652  -3.651   7.631   1.193 -1.6198 -1.4174 -0.2074
  892MOL0     C17653  -3.777   7.707   1.134 -1.4227 -0.4246  0.4019
  892MOL0     C17654  -3.878   7.709   1.250 -0.5731 -0.4760  0.1831
  892MOL0     C17655  -4.019   7.733   1.195  0.1053 -0.6574 -0.8474
  892MOL0    Cl17656  -4.035   7.912   1.175 -0.0050 -0.3036  0.3132
  892MOL0     C17657  -2.916   7.334   0.885  0.8655 -0.2314 -0.2492
  892MOL0     C17658  -2.777   7.306   0.883 -0.5178 -0.0082  0.8821
  892MOL0     O17659  -2.524   7.479   0.928  0.3429  0.2165  0.2667
  892MOL0     C17660  -2.239   7.464   0.948  0.2790  0.3426  0.2416
  892MOL0     C17661  -2.104   7.439   0.944 -0.3760  1.4919 -0.2677
  892MOL0     N17662  -1.619   7.493   0.542 -0.3318 -0.3184  0.6289
  892MOL0     N17663  -1.513   7.544   0.495 -0.0502 -0.5826  0.2645
  892MOL0     C17664  -0.274   7.661   0.387 -0.5445  0.8039  0.2863
  892MOL0     C17665  -0.143   7.616   0.405  0.4344  0.3352  0.6367
  892MOL0     C17666   0.256   7.436   0.415  0.3521 -0.5333  0.1623
  892MOL0     C17667   0.367   7.519   0.437 -0.3555 -0.3250 -0.7830
  892MOL0     C17668   0.499   7.465   0.425 -0.9109 -0.1939 -0.2154
  892MOL0     C17669   0.513   7.332   0.376 -0.9622 -0.5774 -0.7689
  892MOL0     O17670   0.645   7.287   0.374 -0.3096 -0.5363 -0.0750
  892MOL0     C17671   0.677   7.167   0.299 -0.2559 -0.0987  0.2135
  892MOL0     C17672   0.822   7.126   0.324 -0.5057 -0.3085  1.4565
  892MOL0     C17673   0.870   7.011   0.236 -0.2833 -0.4078 -0.5452
  892MOL0     C17674   1.019   7.021   0.210 -0.3712 -0.0797 -0.1909
  892MOL0     C17675   1.072   6.914   0.133  0.9200 -0.3479  0.1375
  892MOL0     C17676   1.113   6.811   0.086  0.4072  0.9962 -0.1759
  892MOL0     C17677   0.395   7.257   0.349  0.2412  0.1775  0.5629
  892MOL0     C17678   0.272   7.308   0.362  0.1049  0.5134  0.6789
  892MOL0     H17679  -0.170   7.324   0.253  0.3159 -0.7689  1.7119
  892MOL0     H17680  -0.394   7.420   0.199  1.7140 -1.4751 -1.0049
  892MOL0     H17681  -0.496   7.843   0.330  1.5288  0.5503  2.4159
  892MOL0     H17682  -0.544   7.710   0.454 -1.8845  0.1733  0.0480
  892MOL0     H17683  -0.704   7.744   0.195 -0.2294 -2.6081  0.9681
  892MOL0     H17684  -0.716   7.864   0.323 -1.3518  1.1553 -0.2115
  892MOL0     H17685  -0.747   7.676   0.473  0.6374  1.1469 -0.7243
  892MOL0     H17686  -0.793   7.573   0.327  0.9286 -0.5354  0.1380
  892MOL0     H17687  -0.935   7.830   0.409 -2.6384  1.6179 -1.9605
  892MOL0     H17688  -0.947   7.738   0.267  0.8487 -1.6590  0.8190
  892MOL0     H17689  -1.142   7.703   0.403  0.3602  2.5970  2.0068
  892MOL0     H17690  -1.041   7.691   0.549  0.0271  1.1791 -0.3537
  892MOL0     H17691  -0.961   7.492   0.517  1.0022 -0.6688  0.3731
  892MOL0     H17692  -1.042   7.464   0.347 -1.6132  0.5964 -0.3942
  892MOL0     H17693  -1.169   7.349   0.555 -0.5059  0.9744  4.5975
  892MOL0     H17694  -1.183   7.499   0.620  3.4830 -4.6948  2.6652
  892MOL0     H17695  -1.256   7.392   0.342  0.0257  0.9857 -1.1859
  892MOL0     H17696  -1.281   7.564   0.375  3.8290 -1.3912 -1.2958
  892MOL0     H17697  -1.424   7.232   0.497  0.3124 -0.4016  0.6957
  892MOL0     H17698  -1.684   7.161   0.527 -0.6413 -1.6335  4.0856
  892MOL0     H17699  -1.809   7.297   0.507  0.0202  0.2239 -0.5679
  892MOL0     H17700  -1.657   7.218   0.764  1.1450 -1.3398 -2.5722
  892MOL0     H17701  -1.829   7.180   0.726 -2.3748  2.4483 -0.9493
  892MOL0     H17702  -1.698   7.446   0.773  1.6721 -3.0171 -1.5927
  892MOL0     H17703  -1.863   7.426   0.726 -0.3150 -1.9138 -1.4010
  892MOL0     H17704  -1.834   7.463   0.979 -2.9598 -0.4010 -0.7360
  892MOL0     H17705  -1.732   7.324   0.985 -0.3255 -0.2345 -0.9473
  892MOL0     H17706  -2.102   7.105   0.912  1.5542 -0.8144 -1.3790
  892MOL0     H17707  -2.344   7.133   0.917  1.5135 -1.3398  1.5855
  892MOL0     H17708  -2.681   7.354   1.194 -1.2697 -1.4522  1.4749
  892MOL0     H17709  -2.916   7.412   1.218 -0.3597  1.8212 -0.5183
  892MOL0     H17710  -3.074   7.582   1.098  0.2976 -1.3825  0.0937
  892MOL0     H17711  -3.153   7.476   1.214  2.1349 -1.6128 -0.0089
  892MOL0     H17712  -3.296   7.519   0.952  3.0393  2.2206 -0.9437
  892MOL0     H17713  -3.257   7.670   1.035 -0.0814  0.4917  0.3328
  892MOL0     H17714  -3.400   7.555   1.245 -1.5498 -0.2500  0.8788
  892MOL0     H17715  -3.428   7.432   1.126  1.5890 -0.5429  2.9118
  892MOL0     H17716  -3.505   7.733   1.084  1.3668  0.6387  1.1407
  892MOL0     H17717  -3.559   7.599   0.998  0.2260 -1.1166  0.3397
  892MOL0     H17718  -3.619   7.683   1.283  0.6045  0.2301 -1.8630
  892MOL0     H17719  -3.679   7.530   1.226  0.0181 -1.4663  1.0934
  892MOL0     H17720  -3.820   7.653   1.050 -0.3052 -0.9458  0.1510
  892MOL0     H17721  -3.754   7.809   1.101  0.8778  0.6540  4.6263
  892MOL0     H17722  -3.876   7.609   1.294  2.3269 -0.0239  1.2404
  892MOL0     H17723  -3.835   7.776   1.325  1.9338 -0.8589 -0.8342
  892MOL0     H17724  -4.092   7.698   1.267  1.6166  0.0499  1.1160
  892MOL0     H17725  -4.038   7.672   1.106  2.3490 -1.3988 -0.8971
  892MOL0     H17726  -2.976   7.343   0.795  2.2289  2.3815 -1.0004
  892MOL0     H17727  -2.738   7.284   0.783 -1.0426  1.7430  0.2514
  892MOL0     H17728  -2.275   7.566   0.959 -0.0867  0.6255 -2.7842
  892MOL0     H17729  -2.037   7.524   0.950 -2.5709  3.3172 -0.1683
  892MOL0     H17730  -0.311   7.753   0.431 -2.9366 -0.2443  0.6506
  892MOL0     H17731  -0.090   7.690   0.464  0.9729 -1.2073  2.1685
  892MOL0     H17732   0.353   7.616   0.483 -0.9787 -0.2674 -1.0762
  892MOL0     H17733   0.574   7.538   0.456 -1.9972  0.3325  1.2794
  892MOL0     H17734   0.643   7.180   0.196 -0.6569 -3.1614 -0.1342
  892MOL0     H17735   0.621   7.086   0.347  2.5562 -1.3307  1.7020
  892MOL0     H17736   0.889   7.208   0.297 -0.8700 -0.3851  0.2713
  892MOL0     H17737   0.822   7.113   0.432 -4.2104 -3.2749  1.3357
  892MOL0     H17738   0.832   7.022   0.134 -1.0657  0.0790 -0.2123
  892MOL0     H17739   0.844   6.912   0.274 -1.1668  0.4343  1.1688
  892MOL0     H17740   1.039   7.107   0.146  2.2248 -0.8570 -0.5129
  892MOL0     H17741   1.069   7.023   0.307  2.2590 -3.2487 -1.3178
  892MOL0     H17742   1.139   6.713   0.051  0.1163  0.5164  0.9146
  892MOL0     H17743   0.398   7.152   0.322  1.7481  0.7668 -1.9550
  892MOL0     H17744   0.186   7.244   0.351  0.4117 -0.1050  1.8112
  893MOL0     O17745   3.895   7.849   9.066 -0.2441 -0.2282 -1.0069
  893MOL0     C17746   3.911   7.725   9.064 -0.6062 -0.1741  0.0143
  893MOL0     O17747   3.812   7.635   9.061 -0.7573 -0.5437 -0.2793
  893MOL0     C17748   3.684   7.670   9.032 -0.9019 -0.3720  0.7566
  893MOL0     C17749   3.574   7.601   9.081  0.3738  0.1398 -0.7568
  893MOL0     C17750   3.451   7.644   9.047  0.4565  0.4304  0.2126
  893MOL0     C17751   3.422   7.753   8.967  0.4239  0.6977  0.0966
  893MOL0     O17752   3.290   7.793   8.957 -0.0229  0.1497  0.4041
  893MOL0     C17753   3.266   7.907   8.865 -0.8693 -0.1123  0.1890
  893MOL0     C17754   3.118   7.939   8.863 -0.5132 -0.9271 -0.8030
  893MOL0     C17755   3.085   8.030   8.749 -0.7872 -0.5199  0.4118
  893MOL0     C17756   3.158   8.165   8.758  0.0774  0.1555  0.2135
  893MOL0     C17757   3.145   8.246   8.890  0.0133 -0.0657 -0.0511
  893MOL0     C17758   2.992   8.268   8.915  0.4298 -0.6097  0.3124
  893MOL0     C17759   2.934   8.360   8.806  0.5693 -0.5919  0.3779
  893MOL0     C17760   2.780   8.392   8.829 -0.5193  0.1484 -0.3435
  893MOL0     N17761   2.688   8.296   8.759 -0.6305  0.3863 -0.4313
  893MOL0     C17762   2.621   8.203   8.828  0.5930  0.8113 -0.2560
  893MOL0     C17763   2.510   8.176   8.747 -0.3634 -0.1632 -0.3142
  893MOL0     C17764   2.401   8.078   8.777 -0.2307 -0.2329  0.5610
  893MOL0     C17765   2.258   8.117   8.739  0.0924  0.4548  0.3194
  893MOL0     C17766   2.216   8.126   8.593 -0.4536  0.0847 -0.1061
  893MOL0     C17767   2.065   8.115   8.586 -0.0536 -0.2796  0.8279
  893MOL0     O17768   2.033   8.127   8.451  0.2921  0.6022  0.4316
  893MOL0     C17769   1.910   8.195   8.436  0.9661  0.8712 -1.0944
  893MOL0     C17770   1.798   8.166   8.513  0.2594 -0.4844 -0.5365
  893MOL0     C17771   1.678   8.221   8.483  0.5878 -0.1491  0.1509
  893MOL0     C17772   1.657   8.319   8.373 -0.1461  0.0344 -0.1438
  893MOL0     C17773   1.523   8.379   8.342 -0.0226  0.6994  0.1723
  893MOL0     O17774   1.422   8.319   8.406 -0.0195  1.0946  0.0621
  893MOL0     C17775   1.295   8.383   8.395  0.2419  0.2032  1.3068
  893MOL0     C17776   1.246   8.485   8.475  0.5177  0.1149 -0.9448
  893MOL0     C17777   1.118   8.536   8.459  0.9759  0.4479  0.1048
  893MOL0     C17778   1.041   8.487   8.350  0.4558  0.0766  0.3958
  893MOL0     O17779   0.913   8.521   8.317  0.9347 -0.2538 -0.0482
  893MOL0     C17780   0.815   8.431   8.378  0.2041  0.6957  0.5368
  893MOL0     C17781   0.676   8.437   8.308  0.0650 -0.3289  0.0709
  893MOL0     C17782   0.669   8.325   8.207 -0.4372  0.2156  0.7770
  893MOL0     C17783   0.547   8.331   8.116  0.9914  0.2597  0.0947
  893MOL0     C17784   0.568   8.234   7.998  0.9482  0.5364  0.6139
  893MOL0     C17785   0.460   8.274   7.893 -0.0303  0.4194  0.2960
  893MOL0     C17786   0.474   8.199   7.762 -0.8038 -0.8596 -0.2877
  893MOL0     C17787   0.340   8.195   7.682 -0.6895 -0.5712 -0.0049
  893MOL0    Cl17788   0.319   8.363   7.611  0.3809  0.0100  0.1381
  893MOL0     C17789   1.100   8.408   8.252  0.5515  0.1671  0.1322
  893MOL0     C17790   1.229   8.359   8.278 -0.8058  0.8878  1.5508
  893MOL0     O17791   1.523   8.475   8.264  0.4294  0.5663 -0.4502
  893MOL0     C17792   1.779   8.356   8.310  0.6438  0.3110  0.3361
  893MOL0     C17793   1.896   8.289   8.336  1.0884 -0.8062  0.3543
  893MOL0     N17794   2.525   8.253   8.628 -0.2511 -0.1955 -0.7552
  893MOL0     N17795   2.626   8.322   8.640 -1.2256  0.0755  0.6394
  893MOL0     C17796   3.529   7.815   8.908 -0.5273  0.0574 -0.1526
  893MOL0     C17797   3.655   7.773   8.937 -0.9242  0.2799  0.2476
  893MOL0     C17798   4.052   7.681   9.096  0.9938  0.0665  0.1191
  893MOL0     C17799   4.059   7.542   9.118  0.4310  0.3012 -0.2121
  893MOL0     C17800   4.180   7.482   9.164  0.2670 -1.3062  0.8543
  893MOL0     C17801   4.298   7.556   9.168  0.4558  0.2321  0.2734
  893MOL0     O17802   4.420   7.488   9.183  0.1425 -0.1788 -0.2350
  893MOL0     C17803   4.537   7.571   9.198 -0.4195 -0.7332  0.2989
  893MOL0     C17804   4.659   7.481   9.217 -0.7924  0.0823 -1.1657
  893MOL0     C17805   4.692   7.411   9.084  0.8624  1.2328 -0.1802
  893MOL0     C17806   4.768   7.503   8.992 -0.2191  0.2180 -0.0499
  893MOL0     C17807   4.874   7.429   8.917 -0.3250 -0.3430  0.4056
  893MOL0     C17808   4.943   7.372   8.838 -0.0104 -0.6325 -0.7318
  893MOL0     C17809   4.286   7.691   9.147 -0.2237  0.1124  0.5280
  893MOL0     C17810   4.162   7.759   9.112  0.0084  0.2707 -0.3091
  893MOL0     H17811   3.596   7.514   9.142  0.6672  1.2790  0.8244
  893MOL0     H17812   3.372   7.585   9.093  1.1016  0.6301  1.6400
  893MOL0     H17813   3.295   7.872   8.766  0.9494  1.1617  0.2180
  893MOL0     H17814   3.327   7.992   8.896 -1.1081  1.5596 -3.4427
  893MOL0     H17815   3.101   7.985   8.960  3.6948 -2.5103  0.8951
  893MOL0     H17816   3.063   7.844   8.861  0.3538 -1.7230  3.4266
  893MOL0     H17817   2.981   8.063   8.741  0.3340  3.6296  0.6084
  893MOL0     H17818   3.122   7.971   8.665 -0.7978 -3.0459  2.0459
  893MOL0     H17819   3.264   8.137   8.756 -0.5168 -2.8827  2.3696
  893MOL0     H17820   3.121   8.223   8.674  1.8333 -1.3506 -1.6824
  893MOL0     H17821   3.203   8.338   8.880  0.7019 -0.1915  2.2092
  893MOL0     H17822   3.179   8.191   8.978 -1.0639  0.8788  1.0058
  893MOL0     H17823   2.987   8.307   9.017 -2.0029 -0.6410  0.2617
  893MOL0     H17824   2.949   8.169   8.900  0.9440 -0.8382  0.3066
  893MOL0     H17825   2.980   8.459   8.808  0.1283 -0.3079 -1.5959
  893MOL0     H17826   2.946   8.316   8.706 -0.3551  0.1354 -0.0741
  893MOL0     H17827   2.771   8.496   8.794 -1.0600  0.2760  0.1507
  893MOL0     H17828   2.773   8.382   8.938  1.4500 -0.0516 -0.1979
  893MOL0     H17829   2.653   8.158   8.922 -2.8267  0.6793  1.0117
  893MOL0     H17830   2.402   8.077   8.887 -0.7379 -2.0827  0.5743
  893MOL0     H17831   2.421   7.977   8.741 -0.0500  0.3121 -0.9276
  893MOL0     H17832   2.235   8.215   8.782 -0.8648  1.1169 -1.5765
  893MOL0     H17833   2.192   8.038   8.779  0.5447  1.0973  2.4384
  893MOL0     H17834   2.249   8.221   8.551  0.6948 -0.3254 -0.1606
  893MOL0     H17835   2.271   8.056   8.529  1.8379  1.6534  0.0417
  893MOL0     H17836   2.007   8.188   8.643 -2.7528 -1.4839 -0.2181
  893MOL0     H17837   2.040   8.016   8.626  0.1719 -0.2424  1.0675
  893MOL0     H17838   1.799   8.089   8.590  2.1236 -0.8854 -0.9201
  893MOL0     H17839   1.590   8.187   8.537 -1.4730 -2.0651 -3.8771
  893MOL0     H17840   1.305   8.526   8.557  0.8020 -0.4848 -0.8423
  893MOL0     H17841   1.071   8.596   8.536  2.7262  0.3441  1.3073
  893MOL0     H17842   0.795   8.457   8.483  4.4542  0.9799  1.4655
  893MOL0     H17843   0.858   8.331   8.366  2.2746  1.6966 -0.9955
  893MOL0     H17844   0.672   8.535   8.259  0.1580 -0.5858 -0.4554
  893MOL0     H17845   0.591   8.428   8.375  0.9600  0.0337  1.2866
  893MOL0     H17846   0.672   8.226   8.252 -0.1294 -0.1962 -0.1302
  893MOL0     H17847   0.758   8.327   8.144 -0.2022 -0.0069  1.0983
  893MOL0     H17848   0.459   8.310   8.177  0.4815  2.0697  0.0260
  893MOL0     H17849   0.517   8.429   8.080 -2.3181 -0.8353 -0.4210
  893MOL0     H17850   0.561   8.130   8.028  0.8861  0.4871  0.4327
  893MOL0     H17851   0.661   8.250   7.941 -0.4776  1.4053 -1.6156
  893MOL0     H17852   0.486   8.376   7.863  5.6828 -1.2998 -1.8401
  893MOL0     H17853   0.357   8.267   7.930 -0.0299 -0.7636  0.0922
  893MOL0     H17854   0.541   8.251   7.692  0.6310 -1.5375  0.5311
  893MOL0     H17855   0.518   8.100   7.777  2.4275  0.4789 -0.0915
  893MOL0     H17856   0.254   8.179   7.748 -2.2280  3.5437 -0.7451
  893MOL0     H17857   0.343   8.114   7.608  3.7181 -1.0754  0.4378
  893MOL0     H17858   1.040   8.376   8.168  2.8639  2.0856 -2.4159
  893MOL0     H17859   1.276   8.290   8.209  0.2675  2.0157  1.1295
  893MOL0     H17860   1.760   8.413   8.219 -2.1869  0.6080  1.0160
  893MOL0     H17861   1.980   8.310   8.269  3.1737 -1.9061  2.4893
  893MOL0     H17862   3.524   7.902   8.844 -2.1089  0.6877  0.7815
  893MOL0     H17863   3.741   7.813   8.883  2.7885 -2.3030  3.7402
  893MOL0     H17864   3.964   7.489   9.107 -0.6588  1.8023  1.4206
  893MOL0     H17865   4.188   7.375   9.177  1.9117 -1.1920  0.9401
  893MOL0     H17866   4.538   7.641   9.282 -2.6719  1.5123 -1.4066
  893MOL0     H17867   4.564   7.634   9.114  1.1444  1.4671  2.3079
  893MOL0     H17868   4.747   7.540   9.244 -0.9257 -1.3062  2.9446
  893MOL0     H17869   4.636   7.412   9.298 -1.8423  1.8472  0.1046
  893MOL0     H17870   4.609   7.380   9.020  1.1167  2.0283 -0.9153
  893MOL0     H17871   4.751   7.324   9.114 -0.0536  0.1804 -1.3333
  893MOL0     H17872   4.704   7.559   8.922 -0.5091 -1.3696 -1.1146
  893MOL0     H17873   4.817   7.579   9.053  1.0537 -2.1643  2.0424
  893MOL0     H17874   5.018   7.322   8.780 -0.3122  0.3010 -1.9527
  893MOL0     H17875   4.368   7.759   9.164 -0.5490  0.7461 -0.3852
  893MOL0     H17876   4.164   7.867   9.105  2.3126  0.3453  0.6719
  894MOL0     O17877   6.356   8.199   5.091  0.3532  0.5099 -0.5639
  894MOL0     C17878   6.329   8.206   4.969 -0.4331 -0.8728  0.7986
  894MOL0     O17879   6.416   8.163   4.869  0.3630  0.7930 -0.2259
  894MOL0     C17880   6.538   8.114   4.910  0.2404  0.0330  0.6227
  894MOL0     C17881   6.551   7.994   4.981  0.0152 -0.6637  0.5531
  894MOL0     C17882   6.677   7.940   5.001 -0.3733  0.0699 -0.2764
  894MOL0     C17883   6.792   8.009   4.976 -0.3296 -0.3035  0.0405
  894MOL0     O17884   6.911   7.949   4.996 -0.1630 -0.4564  0.0492
  894MOL0     C17885   6.999   8.046   5.062  0.1108  0.1306  0.9380
  894MOL0     C17886   7.089   7.974   5.156  1.0657 -0.2973  0.1226
  894MOL0     C17887   7.204   8.058   5.213  0.6235 -0.3090  0.6597
  894MOL0     C17888   7.306   7.978   5.300  0.3772  0.9823 -0.0377
  894MOL0     C17889   7.420   8.062   5.340 -0.4267  0.0203  1.3188
  894MOL0     C17890   7.518   8.009   5.450  0.8862  0.6912 -0.0260
  894MOL0     C17891   7.650   8.074   5.425 -0.1618  0.7059 -0.1025
  894MOL0     C17892   7.730   8.000   5.316  0.0789 -0.1213  0.7620
  894MOL0     N17893   7.848   7.921   5.376  0.2422  0.1288 -0.5110
  894MOL0     C17894   7.933   7.951   5.482 -0.2702  0.6218 -1.2120
  894MOL0     C17895   8.007   7.836   5.508  0.3806  0.5180 -1.0374
  894MOL0     C17896   8.124   7.824   5.601  0.0030  0.6251  0.1513
  894MOL0     C17897   8.136   7.683   5.668  0.1094 -0.7164 -0.2962
  894MOL0     C17898   8.009   7.664   5.740  0.8290  0.1567 -0.3988
  894MOL0     C17899   8.000   7.727   5.880  0.7307  1.0279  0.1361
  894MOL0     O17900   7.938   7.850   5.870 -1.1126 -0.5570 -0.1764
  894MOL0     C17901   7.801   7.847   5.844 -0.0848  0.0766 -0.3143
  894MOL0     C17902   7.712   7.732   5.842  0.3230  0.6257 -0.8553
  894MOL0     C17903   7.577   7.742   5.825 -0.1289  0.4472  0.2221
  894MOL0     C17904   7.520   7.865   5.796  0.6888  0.1550 -0.0787
  894MOL0     C17905   7.376   7.869   5.770  0.7908 -0.2935  0.0106
  894MOL0     O17906   7.320   7.993   5.790  0.3916 -0.5936 -0.0968
  894MOL0     C17907   7.181   8.017   5.780  0.1251 -1.0117  0.1091
  894MOL0     C17908   7.133   8.130   5.853  0.1857  0.2153  0.9862
  894MOL0     C17909   6.999   8.170   5.842 -0.4832 -0.0565  0.1181
  894MOL0     C17910   6.912   8.093   5.772  0.0460 -0.9939  0.2346
  894MOL0     O17911   6.777   8.140   5.758 -0.2022  0.5224 -0.4443
  894MOL0     C17912   6.674   8.053   5.717 -0.0807 -0.4086 -0.4752
  894MOL0     C17913   6.543   8.099   5.781  0.0026  0.1538  0.6190
  894MOL0     C17914   6.488   8.234   5.729  0.6591  0.0100  0.2015
  894MOL0     C17915   6.333   8.248   5.722 -0.6808 -0.5272 -0.6469
  894MOL0     C17916   6.298   8.393   5.690 -0.2715  0.0813  0.0664
  894MOL0     C17917   6.146   8.403   5.654  0.0725 -0.2144 -0.3702
  894MOL0     C17918   6.111   8.366   5.507 -0.0949  0.2151 -0.5336
  894MOL0     C17919   5.965   8.385   5.467 -0.2811 -0.6332  0.1076
  894MOL0    Cl17920   5.845   8.304   5.574 -0.1105  0.3541 -0.0210
  894MOL0     C17921   6.962   7.993   5.693 -0.5795  0.9549  0.6618
  894MOL0     C17922   7.096   7.950   5.692  0.0172  0.3276 -0.5010
  894MOL0     O17923   7.313   7.768   5.733  0.0401  0.3363 -0.4725
  894MOL0     C17924   7.606   7.980   5.791  0.0286 -0.5314  0.0459
  894MOL0     C17925   7.746   7.968   5.810  0.4511 -0.2393  0.9349
  894MOL0     N17926   7.952   7.738   5.431  0.5611 -0.2968  0.1555
  894MOL0     N17927   7.859   7.786   5.360  0.3125 -0.5230  0.4829
  894MOL0     C17928   6.779   8.125   4.907 -0.0541  0.4590 -0.1304
  894MOL0     C17929   6.658   8.175   4.869  0.5509  0.3372 -0.2082
  894MOL0     C17930   6.199   8.258   4.936  0.4046 -0.4367  0.2419
  894MOL0     C17931   6.138   8.233   4.810  0.6671 -0.1303 -0.2974
  894MOL0     C17932   6.013   8.292   4.779 -0.6082 -0.1660 -0.6762
  894MOL0     C17933   5.939   8.364   4.871  0.4587 -0.9327  0.1271
  894MOL0     O17934   5.816   8.427   4.850  0.2232  0.0949  0.5740
  894MOL0     C17935   5.727   8.387   4.747  0.0967  0.1672  0.7731
  894MOL0     C17936   5.609   8.299   4.811  0.3770 -0.6444 -0.0020
  894MOL0     C17937   5.475   8.331   4.733  0.5037 -0.1078 -0.6328
  894MOL0     C17938   5.388   8.434   4.814  0.8166 -0.6424 -0.1131
  894MOL0     C17939   5.310   8.365   4.918  1.2750  0.2193 -0.3258
  894MOL0     C17940   5.234   8.328   5.009 -0.1211 -0.5258 -0.1547
  894MOL0     C17941   5.996   8.396   4.995  0.0773 -0.0362  0.1105
  894MOL0     C17942   6.122   8.339   5.028 -0.0170  0.5495  0.1548
  894MOL0     H17943   6.460   7.946   5.017 -0.9679 -0.7589 -1.8881
  894MOL0     H17944   6.678   7.843   5.050  1.3056  0.8309  1.3340
  894MOL0     H17945   6.947   8.113   5.131  0.0976  1.4382 -0.3005
  894MOL0     H17946   7.056   8.107   4.990  0.9787 -0.9320  0.7032
  894MOL0     H17947   7.134   7.881   5.121  2.3273 -0.9461  3.1154
  894MOL0     H17948   7.030   7.940   5.242 -0.3383  2.6922  0.4734
  894MOL0     H17949   7.167   8.148   5.264  1.3669  0.8484 -0.7688
  894MOL0     H17950   7.255   8.106   5.130 -0.8228 -1.0105 -0.6793
  894MOL0     H17951   7.248   7.952   5.389 -2.2960  0.2706 -1.8557
  894MOL0     H17952   7.334   7.887   5.244 -0.8936 -0.3460  1.3841
  894MOL0     H17953   7.375   8.156   5.376 -1.0566 -0.0964  0.8457
  894MOL0     H17954   7.480   8.079   5.250 -0.1389  2.9171  1.9612
  894MOL0     H17955   7.530   7.901   5.460  1.6974  0.9719  4.6339
  894MOL0     H17956   7.481   8.042   5.548  0.0057 -0.3403 -0.0039
  894MOL0     H17957   7.629   8.174   5.387 -2.2571 -0.0492 -1.0749
  894MOL0     H17958   7.710   8.088   5.516  1.0173 -1.2619 -0.5327
  894MOL0     H17959   7.762   8.074   5.243 -0.2150  1.0795  1.8230
  894MOL0     H17960   7.661   7.928   5.270  1.5880  0.0794 -2.0403
  894MOL0     H17961   7.933   8.044   5.539  0.9508  0.6441 -1.2219
  894MOL0     H17962   8.126   7.900   5.679 -0.7840 -1.5620  2.4666
  894MOL0     H17963   8.214   7.830   5.539  0.1116 -2.8896 -0.2354
  894MOL0     H17964   8.223   7.673   5.734  0.8968  1.5714 -0.8985
  894MOL0     H17965   8.153   7.612   5.587 -3.1848 -2.6401  0.4985
  894MOL0     H17966   7.921   7.687   5.680  0.8457 -2.0538 -1.3887
  894MOL0     H17967   7.995   7.560   5.772  0.1890  1.2514  3.3520
  894MOL0     H17968   8.100   7.741   5.922  1.6447 -3.7548  0.1130
  894MOL0     H17969   7.954   7.662   5.956  4.9494 -1.4499  0.9238
  894MOL0     H17970   7.758   7.637   5.868  1.4778  1.0722 -1.1934
  894MOL0     H17971   7.514   7.656   5.845 -0.3651  0.8820  1.4781
  894MOL0     H17972   7.195   8.189   5.919 -0.3298  1.4436  0.4157
  894MOL0     H17973   6.970   8.261   5.893  0.1822  0.3672 -0.2530
  894MOL0     H17974   6.705   7.958   5.762 -1.5707 -0.3400  0.7529
  894MOL0     H17975   6.659   8.063   5.609  1.4336  2.1486 -0.5218
  894MOL0     H17976   6.547   8.097   5.890 -1.4902 -3.7014  0.7558
  894MOL0     H17977   6.462   8.028   5.761 -0.7895  0.6120  2.1195
  894MOL0     H17978   6.522   8.255   5.627 -1.4171  1.3383 -0.2932
  894MOL0     H17979   6.534   8.307   5.796 -0.0541  0.5430  0.1266
  894MOL0     H17980   6.299   8.187   5.638 -3.8601 -1.9637  1.4720
  894MOL0     H17981   6.276   8.211   5.808 -0.5165  5.1633  2.3908
  894MOL0     H17982   6.357   8.443   5.612  0.2410 -0.8145 -0.1305
  894MOL0     H17983   6.320   8.454   5.778 -0.2686  1.0980 -0.6189
  894MOL0     H17984   6.103   8.503   5.662  1.4294  0.4490 -1.0585
  894MOL0     H17985   6.102   8.334   5.727 -0.3630  0.8355  0.3825
  894MOL0     H17986   6.160   8.445   5.449  3.1982 -1.0125  0.3551
  894MOL0     H17987   6.135   8.261   5.486 -2.0473 -0.5866  0.9407
  894MOL0     H17988   5.946   8.366   5.361  0.8330  3.9988 -1.1419
  894MOL0     H17989   5.940   8.490   5.478 -2.5565 -1.0950 -0.2146
  894MOL0     H17990   6.895   7.939   5.625  1.1194  0.1856 -0.4692
  894MOL0     H17991   7.141   7.878   5.623  2.8979 -1.6730  3.1194
  894MOL0     H17992   7.561   8.075   5.764  0.6660 -0.6258 -1.4912
  894MOL0     H17993   7.805   8.059   5.814  0.0431  0.2616 -2.0533
  894MOL0     H17994   6.867   8.178   4.870 -0.3584  1.5393  0.6516
  894MOL0     H17995   6.639   8.253   4.795  1.9736  3.2161  2.2558
  894MOL0     H17996   6.199   8.180   4.738  0.7485 -0.4107 -0.0252
  894MOL0     H17997   5.969   8.281   4.680  0.7634 -0.4162 -1.2762
  894MOL0     H17998   5.777   8.332   4.667 -1.3220  1.9887 -1.4842
  894MOL0     H17999   5.691   8.476   4.695 -0.4862 -2.7675 -4.5259
  894MOL0     H18000   5.612   8.190   4.806 -2.0531 -0.8026  0.7532
  894MOL0     H18001   5.592   8.315   4.918  1.1360 -1.4499  0.2511
  894MOL0     H18002   5.413   8.242   4.719  1.3504 -0.7398 -0.4422
  894MOL0     H18003   5.499   8.371   4.634  1.9849 -2.2481 -1.2011
  894MOL0     H18004   5.455   8.500   4.870 -0.4118  0.1178  0.5151
  894MOL0     H18005   5.331   8.487   4.738  1.1034  0.3331  0.3338
  894MOL0     H18006   5.167   8.297   5.086  0.0152 -0.5508 -0.0459
  894MOL0     H18007   5.943   8.456   5.068 -1.8834  0.6471 -1.7849
  894MOL0     H18008   6.169   8.350   5.125 -1.0326 -2.1609  1.0414
  895MOL0     O18009   3.529   5.150   0.416 -1.1348 -0.0201 -0.3870
  895MOL0     C18010   3.525   5.270   0.384  0.3601 -0.1490 -0.0218
  895MOL0     O18011   3.411   5.349   0.403  0.0038  0.3145 -0.6706
  895MOL0     C18012   3.299   5.296   0.462  0.2370  1.0396 -0.3305
  895MOL0     C18013   3.297   5.282   0.602 -0.4715  0.2598 -1.1194
  895MOL0     C18014   3.180   5.237   0.670  0.0325 -0.2822  0.4894
  895MOL0     C18015   3.070   5.197   0.596  1.0499 -0.5593 -0.2689
  895MOL0     O18016   2.959   5.141   0.663  0.4173 -0.2281 -0.2169
  895MOL0     C18017   2.842   5.113   0.584 -0.3339  0.3173 -0.1527
  895MOL0     C18018   2.719   5.080   0.680  0.4281 -0.6463 -0.4295
  895MOL0     C18019   2.602   5.044   0.574 -0.0746 -0.2645  0.2429
  895MOL0     C18020   2.500   4.962   0.657  0.4677 -0.9840 -0.6733
  895MOL0     C18021   2.354   4.985   0.601  0.0230 -0.4832 -0.4531
  895MOL0     C18022   2.346   4.924   0.458  0.0832  0.2928 -0.4853
  895MOL0     C18023   2.212   4.883   0.406  0.7419  0.7457 -0.0907
  895MOL0     C18024   2.176   4.753   0.473  0.8151  0.3365 -0.3264
  895MOL0     N18025   2.036   4.725   0.424 -0.4799  0.2449 -0.0812
  895MOL0     C18026   1.986   4.629   0.334  0.0822 -0.4383  0.3592
  895MOL0     C18027   1.849   4.644   0.343  0.5064 -0.0828  0.2710
  895MOL0     C18028   1.740   4.558   0.258  0.2828 -0.2367 -0.1015
  895MOL0     C18029   1.663   4.438   0.320 -0.1538 -1.3952 -1.4527
  895MOL0     C18030   1.607   4.467   0.463 -0.1120 -0.1176 -0.6557
  895MOL0     C18031   1.508   4.581   0.476 -0.0102 -0.4379 -0.4984
  895MOL0     O18032   1.398   4.548   0.388 -0.0936  0.1415 -0.5779
  895MOL0     C18033   1.271   4.565   0.435 -0.0250  0.0576  0.5311
  895MOL0     C18034   1.233   4.648   0.540  0.2012  0.5319 -0.4124
  895MOL0     C18035   1.098   4.661   0.587 -0.5699  1.3211 -0.0438
  895MOL0     C18036   0.999   4.586   0.517  0.3112 -0.3965 -0.3348
  895MOL0     C18037   0.859   4.590   0.568  0.7133 -0.1114 -0.2153
  895MOL0     O18038   0.765   4.519   0.501  0.1958 -0.5824 -0.2371
  895MOL0     C18039   0.646   4.492   0.563 -0.0996  0.0667  0.2422
  895MOL0     C18040   0.641   4.378   0.634 -0.2764 -0.5022 -1.4085
  895MOL0     C18041   0.515   4.314   0.650  0.1069 -0.5334  0.1725
  895MOL0     C18042   0.401   4.364   0.591  0.9315  0.0621  0.1733
  895MOL0     O18043   0.283   4.291   0.578  0.1882 -0.0507 -0.2615
  895MOL0     C18044   0.284   4.143   0.595 -0.2844  0.7731  0.1866
  895MOL0     C18045   0.148   4.070   0.569  0.7218 -0.3911  0.6326
  895MOL0     C18046   0.037   4.154   0.509  0.3506 -0.2367  0.3477
  895MOL0     C18047  -0.082   4.058   0.486 -0.0512 -0.0650 -0.9111
  895MOL0     C18048  -0.221   4.124   0.463 -0.4712 -0.3325  0.0414
  895MOL0     C18049  -0.285   4.207   0.577  0.4199  0.0545 -0.7256
  895MOL0     C18050  -0.436   4.232   0.540  0.3314  0.4694 -0.1915
  895MOL0     C18051  -0.498   4.323   0.639 -0.2902 -0.4941 -0.9566
  895MOL0    Cl18052  -0.678   4.312   0.615 -0.6008 -0.0740  0.1414
  895MOL0     C18053   0.404   4.481   0.521 -0.1924 -0.7104 -0.0135
  895MOL0     C18054   0.534   4.543   0.501  0.5091  0.7369 -0.1569
  895MOL0     O18055   0.852   4.645   0.678 -0.4768 -1.0083  0.4684
  895MOL0     C18056   1.037   4.508   0.405  0.6038  0.1943  0.1872
  895MOL0     C18057   1.171   4.497   0.359  0.3824  0.9122 -0.6741
  895MOL0     N18058   1.823   4.736   0.443  0.5936 -0.3541  0.2377
  895MOL0     N18059   1.935   4.779   0.492 -0.2653  0.0860  0.7812
  895MOL0     C18060   3.074   5.218   0.456 -0.0529 -0.0873 -0.0390
  895MOL0     C18061   3.191   5.260   0.392  0.2122 -0.6241 -0.4589
  895MOL0     C18062   3.656   5.330   0.334 -1.0071 -0.2886  0.2877
  895MOL0     C18063   3.676   5.470   0.339 -0.1769  0.6217 -0.3986
  895MOL0     C18064   3.803   5.531   0.310  0.7396  0.2398  0.8089
  895MOL0     C18065   3.907   5.448   0.276  0.5189  0.5859 -0.3516
  895MOL0     O18066   4.022   5.514   0.260 -0.1034  0.1247 -0.3736
  895MOL0     C18067   4.129   5.436   0.314  0.3232 -0.1153  0.8988
  895MOL0     C18068   4.257   5.499   0.260  0.0185  0.3605  0.1871
  895MOL0     C18069   4.270   5.455   0.107  0.2072  0.0286  0.7579
  895MOL0     C18070   4.382   5.530   0.048  0.2372 -0.7474 -0.7012
  895MOL0     C18071   4.513   5.465   0.077 -0.2390  0.0876 -0.1528
  895MOL0     C18072   4.616   5.406   0.089 -0.5878 -0.5652 -0.3929
  895MOL0     C18073   3.891   5.312   0.257  0.1426  0.0428 -0.7164
  895MOL0     C18074   3.770   5.249   0.287  1.5451  0.4161 -0.2924
  895MOL0     H18075   3.387   5.289   0.663 -0.4843 -1.4096 -0.8541
  895MOL0     H18076   3.177   5.229   0.778 -2.2515  1.0854  0.5953
  895MOL0     H18077   2.863   5.034   0.511  0.1919  0.2776  0.0399
  895MOL0     H18078   2.809   5.190   0.513 -2.0133 -1.6312 -1.6292
  895MOL0     H18079   2.694   5.170   0.736  0.0533 -1.1920  0.2873
  895MOL0     H18080   2.751   4.997   0.743  2.3205  0.7111  0.4994
  895MOL0     H18081   2.642   4.987   0.490  0.6538  0.8827 -0.2161
  895MOL0     H18082   2.551   5.134   0.538  0.6657 -0.0641 -0.3494
  895MOL0     H18083   2.546   4.862   0.654  0.5134 -1.0509  1.0440
  895MOL0     H18084   2.504   4.997   0.761  2.0106 -1.0003 -0.7087
  895MOL0     H18085   2.327   5.090   0.616 -4.3286 -1.6349  1.6041
  895MOL0     H18086   2.285   4.929   0.665  0.2247  0.2499  0.4104
  895MOL0     H18087   2.420   4.844   0.449  0.6143  0.5846  1.0690
  895MOL0     H18088   2.373   5.010   0.396 -0.8928  1.9080  1.2327
  895MOL0     H18089   2.137   4.953   0.444 -1.3900 -0.7636 -1.2545
  895MOL0     H18090   2.226   4.873   0.298  1.1257 -3.8451  0.1857
  895MOL0     H18091   2.185   4.759   0.582  0.7352  0.7772 -0.3415
  895MOL0     H18092   2.246   4.676   0.441 -0.4562 -2.7638  3.5687
  895MOL0     H18093   2.041   4.574   0.258 -3.2768  2.0609 -4.4266
  895MOL0     H18094   1.799   4.508   0.181  1.8537 -1.5220  1.8153
  895MOL0     H18095   1.656   4.620   0.225  0.2626 -0.6706 -0.8938
  895MOL0     H18096   1.733   4.356   0.339  0.5533 -0.4700  0.1008
  895MOL0     H18097   1.585   4.412   0.249 -0.3816 -3.1197 -0.6106
  895MOL0     H18098   1.563   4.376   0.504 -0.4732  1.2639  2.2912
  895MOL0     H18099   1.681   4.479   0.542  0.1187 -5.7882  0.3972
  895MOL0     H18100   1.544   4.678   0.440  0.4267 -0.8566 -1.2360
  895MOL0     H18101   1.492   4.587   0.584  3.0513 -0.1102  0.0486
  895MOL0     H18102   1.309   4.715   0.576  0.8001  1.2175 -2.7498
  895MOL0     H18103   1.088   4.724   0.674  0.3734  2.0632 -0.4453
  895MOL0     H18104   0.730   4.326   0.667 -0.4266  0.1830  0.1720
  895MOL0     H18105   0.499   4.228   0.715 -1.4842 -1.7325 -1.6805
  895MOL0     H18106   0.306   4.122   0.700  1.7965  0.0940 -0.3481
  895MOL0     H18107   0.357   4.098   0.527  0.1107  1.8922 -0.1491
  895MOL0     H18108   0.107   4.021   0.658  1.1778  1.7771  2.1104
  895MOL0     H18109   0.165   3.990   0.497  0.4651  1.0792 -1.1287
  895MOL0     H18110   0.082   4.200   0.421  5.4015 -0.6927  2.3095
  895MOL0     H18111   0.004   4.232   0.578 -1.4586  0.8874 -1.6875
  895MOL0     H18112  -0.059   3.988   0.405 -2.2015 -0.4730 -1.2455
  895MOL0     H18113  -0.096   3.991   0.572  1.8394 -2.0702 -2.0607
  895MOL0     H18114  -0.294   4.043   0.452  0.3450 -1.0062 -0.5944
  895MOL0     H18115  -0.211   4.185   0.373  1.9228  1.0390  1.1437
  895MOL0     H18116  -0.218   4.292   0.592  0.7206 -0.6329  2.7386
  895MOL0     H18117  -0.277   4.159   0.675 -0.9091 -0.0654 -0.6566
  895MOL0     H18118  -0.461   4.262   0.437 -2.9177  1.1282  0.6832
  895MOL0     H18119  -0.487   4.139   0.565  1.7006  0.5744  3.5341
  895MOL0     H18120  -0.447   4.419   0.628 -1.5857  0.3901  0.4573
  895MOL0     H18121  -0.483   4.283   0.740 -2.3341  1.5174  0.2267
  895MOL0     H18122   0.320   4.521   0.466 -0.3519  1.5983  1.7650
  895MOL0     H18123   0.552   4.627   0.435  1.9571 -0.7527 -1.7515
  895MOL0     H18124   0.955   4.465   0.347 -0.2463  1.6665  0.2425
  895MOL0     H18125   1.187   4.430   0.275 -1.2372 -4.3857  2.7416
  895MOL0     H18126   2.995   5.198   0.385 -0.5147 -2.4284  1.0341
  895MOL0     H18127   3.195   5.275   0.285 -1.4522  2.9155 -0.1655
  895MOL0     H18128   3.598   5.529   0.387  1.4279  1.4910  1.2255
  895MOL0     H18129   3.834   5.632   0.334 -1.0127  0.4537  2.4134
  895MOL0     H18130   4.141   5.338   0.267  0.3451  0.7158 -0.9344
  895MOL0     H18131   4.128   5.430   0.423  1.1519 -0.4782  0.8989
  895MOL0     H18132   4.243   5.606   0.273  3.7296  1.2220 -1.6063
  895MOL0     H18133   4.341   5.477   0.326 -0.6975 -3.7722  0.0416
  895MOL0     H18134   4.180   5.475   0.049 -0.3141  0.5993  1.7394
  895MOL0     H18135   4.297   5.351   0.086 -1.2931  0.1595 -2.3109
  895MOL0     H18136   4.379   5.550  -0.060  1.7488  4.0480 -0.0717
  895MOL0     H18137   4.376   5.632   0.085 -3.5861 -0.0078 -2.8537
  895MOL0     H18138   4.697   5.342   0.117 -1.1199 -0.7442  0.8036
  895MOL0     H18139   3.978   5.252   0.232  0.6967  1.6234 -2.8247
  895MOL0     H18140   3.752   5.142   0.283 -0.5841  0.7667 -1.9461
  896MOL0     O18141   2.488   1.572  10.157 -0.4999  1.1906  0.9089
  896MOL0     C18142   2.551   1.673  10.126  0.7877  0.0351  0.2387
  896MOL0     O18143   2.641   1.689  10.018  0.0267  0.6046  0.7576
  896MOL0     C18144   2.696   1.582   9.954  0.5367 -0.3586  0.2846
  896MOL0     C18145   2.833   1.600   9.925  0.0462 -0.4139  0.3366
  896MOL0     C18146   2.903   1.508   9.848 -0.0095  0.8171 -0.4762
  896MOL0     C18147   2.830   1.401   9.783  0.3019 -0.2347 -0.3545
  896MOL0     O18148   2.898   1.307   9.715 -0.0745  0.6315 -0.2432
  896MOL0     C18149   2.912   1.350   9.580 -0.7244 -0.2832  0.0330
  896MOL0     C18150   3.023   1.276   9.498 -0.2107 -1.0939  0.0917
  896MOL0     C18151   3.156   1.281   9.568  0.1286  0.2252 -0.5476
  896MOL0     C18152   3.268   1.234   9.482 -0.6128 -0.6749  0.6839
  896MOL0     C18153   3.394   1.259   9.567 -0.4435  0.5002  0.4207
  896MOL0     C18154   3.445   1.153   9.667 -0.6259  0.1225 -0.4794
  896MOL0     C18155   3.592   1.168   9.704 -0.2848 -0.1036 -0.7379
  896MOL0     C18156   3.613   1.285   9.798  0.3491 -0.4875 -0.5523
  896MOL0     N18157   3.748   1.335   9.799  0.8732 -0.7240 -0.0807
  896MOL0     C18158   3.844   1.279   9.884 -0.9226  0.0103 -0.0226
  896MOL0     C18159   3.954   1.341   9.852 -0.9941  0.8004  0.3948
  896MOL0     C18160   4.092   1.325   9.923  0.0154  0.7498  0.6509
  896MOL0     C18161   4.194   1.409   9.847  0.0580  0.2577  0.2932
  896MOL0     C18162   4.345   1.403   9.899 -0.6680 -0.2609 -0.3281
  896MOL0     C18163   4.430   1.515   9.835 -0.0162 -0.0324 -0.0262
  896MOL0     O18164   4.463   1.478   9.702 -0.0146  0.6272 -0.3210
  896MOL0     C18165   4.582   1.400   9.694  0.2122  0.3886 -0.3719
  896MOL0     C18166   4.566   1.268   9.657  0.1908  0.4015  0.8894
  896MOL0     C18167   4.668   1.178   9.666  0.1368 -0.0189 -0.1202
  896MOL0     C18168   4.799   1.224   9.692  0.0021 -0.3181  0.2472
  896MOL0     C18169   4.915   1.135   9.702 -0.4969 -0.6121 -0.3120
  896MOL0     O18170   5.045   1.183   9.710 -0.1052 -0.1793 -0.0487
  896MOL0     C18171   5.150   1.092   9.706 -0.3876  0.4270 -0.6331
  896MOL0     C18172   5.160   0.970   9.641 -0.5435 -0.9637 -0.1120
  896MOL0     C18173   5.271   0.888   9.644  0.1923  0.0975 -0.1267
  896MOL0     C18174   5.372   0.912   9.729 -0.0018 -0.6850 -0.5329
  896MOL0     O18175   5.482   0.825   9.713 -0.4973  0.3739  0.3682
  896MOL0     C18176   5.610   0.879   9.759 -0.0631 -0.3621 -0.1782
  896MOL0     C18177   5.713   0.772   9.721  0.3837  0.2481 -0.4335
  896MOL0     C18178   5.853   0.825   9.758  0.2298 -0.3678  0.6398
  896MOL0     C18179   5.966   0.736   9.700  1.1790 -0.2497 -0.1061
  896MOL0     C18180   6.108   0.792   9.710  0.4092 -0.1287  0.4412
  896MOL0     C18181   6.216   0.682   9.669  0.6186 -0.2957 -0.5995
  896MOL0     C18182   6.343   0.751   9.634 -0.3698  0.5632  0.2172
  896MOL0     C18183   6.420   0.658   9.536 -0.5154 -0.7654 -0.1161
  896MOL0    Cl18184   6.329   0.628   9.384  0.3942 -0.0142 -0.2624
  896MOL0     C18185   5.364   1.030   9.806  0.6724 -0.4282 -0.6978
  896MOL0     C18186   5.259   1.116   9.788  1.1534 -0.6824 -0.7815
  896MOL0     O18187   4.884   1.018   9.713  0.8902  0.3092  0.2396
  896MOL0     C18188   4.819   1.357   9.729  0.4705  0.7552 -0.1943
  896MOL0     C18189   4.712   1.447   9.731 -0.0516 -0.5896 -0.0278
  896MOL0     N18190   3.927   1.421   9.744  0.4648  0.9109  0.3764
  896MOL0     N18191   3.809   1.403   9.697  0.4490  0.6112 -0.7055
  896MOL0     C18192   2.695   1.388   9.801  0.5205  0.6570  0.0097
  896MOL0     C18193   2.625   1.470   9.891 -0.2264  0.1330  0.0135
  896MOL0     C18194   2.516   1.791  10.204  0.5708 -1.1044 -1.0794
  896MOL0     C18195   2.582   1.912  10.180 -0.6778 -0.6288  0.3250
  896MOL0     C18196   2.571   2.029  10.262 -0.9082 -0.1273  0.1481
  896MOL0     C18197   2.481   2.028  10.373 -0.5165  0.1780  0.0448
  896MOL0     O18198   2.456   2.124  10.471 -0.1424  0.3591  0.5554
  896MOL0     C18199   2.546   2.234  10.473 -0.4824  0.3678  0.3816
  896MOL0     C18200   2.486   2.316  10.585 -1.1845  0.8084  0.4963
  896MOL0     C18201   2.566   2.449  10.610 -0.3805  0.9940 -1.6330
  896MOL0     C18202   2.496   2.535  10.718  0.0707  0.6238 -0.9039
  896MOL0     C18203   2.512   2.679  10.707 -0.4039 -0.5560  0.3913
  896MOL0     C18204   2.513   2.799  10.709 -0.0956 -0.3539 -0.0274
  896MOL0     C18205   2.400   1.914  10.381 -0.1480  0.5391 -0.2018
  896MOL0     C18206   2.416   1.802  10.302 -0.7187  0.7623 -0.6989
  896MOL0     H18207   2.885   1.687   9.965  0.2001  1.1249 -2.9372
  896MOL0     H18208   3.010   1.519   9.833  0.2280  0.3018  0.7776
  896MOL0     H18209   2.937   1.456   9.571 -3.5788  0.5981  1.3984
  896MOL0     H18210   2.814   1.345   9.533 -1.6768 -0.8683  1.9721
  896MOL0     H18211   3.027   1.309   9.394 -5.6350 -0.1536 -0.1517
  896MOL0     H18212   2.996   1.171   9.481  4.1293 -2.5323  0.9178
  896MOL0     H18213   3.157   1.209   9.650 -2.0785 -0.1137 -0.7542
  896MOL0     H18214   3.177   1.380   9.609  0.3855  0.3114 -0.8843
  896MOL0     H18215   3.259   1.128   9.455 -1.6076 -0.7350  1.2016
  896MOL0     H18216   3.279   1.282   9.384  0.9079 -0.8155  0.7580
  896MOL0     H18217   3.394   1.359   9.612 -1.7157  0.5720  0.3132
  896MOL0     H18218   3.479   1.265   9.498 -0.2045 -0.8502  0.5567
  896MOL0     H18219   3.448   1.053   9.624  1.4480 -1.2059  2.4076
  896MOL0     H18220   3.376   1.138   9.751  2.3569 -0.2552  2.0975
  896MOL0     H18221   3.618   1.072   9.752 -3.7379 -2.2768 -2.7786
  896MOL0     H18222   3.654   1.193   9.617  1.7657 -0.0246  0.6605
  896MOL0     H18223   3.583   1.263   9.901 -2.1389 -0.6970 -1.2552
  896MOL0     H18224   3.536   1.357   9.768 -2.1614 -1.6932  2.4544
  896MOL0     H18225   3.827   1.206   9.963 -1.0834 -2.5251 -2.2691
  896MOL0     H18226   4.118   1.219   9.921 -3.7001 -0.3132  1.1411
  896MOL0     H18227   4.078   1.343  10.030  0.4666 -1.8700  1.2156
  896MOL0     H18228   4.165   1.514   9.859 -0.2776  0.2273 -0.2020
  896MOL0     H18229   4.190   1.373   9.744 -0.1175  1.9518 -0.3239
  896MOL0     H18230   4.352   1.425  10.005  2.3672 -2.3835  0.0193
  896MOL0     H18231   4.391   1.305   9.883  0.3824 -0.0570  1.2916
  896MOL0     H18232   4.526   1.527   9.887 -0.5939 -1.1017  1.3398
  896MOL0     H18233   4.375   1.609   9.831  0.7198  0.4249  0.2925
  896MOL0     H18234   4.465   1.246   9.622  0.0868  1.5038  0.4484
  896MOL0     H18235   4.642   1.076   9.638 -0.8945  0.3344 -0.5065
  896MOL0     H18236   5.082   0.943   9.570 -1.8041  0.7734  0.5268
  896MOL0     H18237   5.270   0.791   9.596  0.4938 -0.5872  1.2246
  896MOL0     H18238   5.625   0.891   9.867 -1.3254  0.5250 -0.0775
  896MOL0     H18239   5.623   0.975   9.709  0.5487  0.1470  0.9330
  896MOL0     H18240   5.706   0.756   9.613 -0.1987  0.1024 -0.3756
  896MOL0     H18241   5.710   0.684   9.785 -0.8781  0.8891  0.4253
  896MOL0     H18242   5.855   0.831   9.867 -2.3993  1.4086  0.6762
  896MOL0     H18243   5.875   0.924   9.717  3.8519 -1.7776 -1.2875
  896MOL0     H18244   5.961   0.635   9.743 -3.7109  0.0158  0.5521
  896MOL0     H18245   5.937   0.722   9.595 -1.4849  1.6132  0.2779
  896MOL0     H18246   6.129   0.823   9.813  0.4401 -0.1528  0.4426
  896MOL0     H18247   6.118   0.879   9.645 -0.4044 -1.3558 -1.4360
  896MOL0     H18248   6.178   0.630   9.580 -3.5541 -0.5977  1.1286
  896MOL0     H18249   6.228   0.601   9.741  0.5803  0.8458  0.7466
  896MOL0     H18250   6.328   0.849   9.589  1.0524 -0.4376 -2.7145
  896MOL0     H18251   6.401   0.753   9.727  0.3355 -1.7260 -0.0939
  896MOL0     H18252   6.451   0.568   9.591 -1.2472  0.4506  2.4425
  896MOL0     H18253   6.513   0.707   9.507 -1.2103  0.4881 -0.2995
  896MOL0     H18254   5.436   1.043   9.886 -1.1053 -2.1909  1.3307
  896MOL0     H18255   5.262   1.209   9.845 -2.0411 -0.8401 -0.1803
  896MOL0     H18256   4.918   1.383   9.765 -0.5299  1.7421  2.0195
  896MOL0     H18257   4.715   1.550   9.762 -3.1035 -0.5214  0.3289
  896MOL0     H18258   2.640   1.303   9.761  0.1017  0.8572  0.1625
  896MOL0     H18259   2.518   1.465   9.911  0.2663  1.7193  4.1632
  896MOL0     H18260   2.642   1.917  10.089 -1.7470  0.6961 -0.3339
  896MOL0     H18261   2.621   2.122  10.236 -3.8070  1.7822  0.9768
  896MOL0     H18262   2.535   2.284  10.377  0.6427 -2.5754 -1.3887
  896MOL0     H18263   2.650   2.205  10.490 -0.8893  0.0751  2.8695
  896MOL0     H18264   2.380   2.335  10.565 -0.7118 -0.1583 -3.9966
  896MOL0     H18265   2.493   2.261  10.678 -0.5677 -1.3354 -0.7563
  896MOL0     H18266   2.574   2.504  10.516  0.1543  3.2490 -0.3293
  896MOL0     H18267   2.671   2.433  10.634 -0.0556  2.7249 -1.7691
  896MOL0     H18268   2.391   2.506  10.701  1.0242 -2.7501 -1.7621
  896MOL0     H18269   2.527   2.502  10.817  1.0140  1.9551 -0.7378
  896MOL0     H18270   2.501   2.905  10.708  0.8847 -0.2384 -0.0495
  896MOL0     H18271   2.322   1.912  10.458 -0.3257 -0.6798 -0.3808
  896MOL0     H18272   2.353   1.718  10.327 -0.7061  0.7198 -0.8103
  897MOL0     O18273   4.266   5.153   8.774 -0.0595 -0.2164 -0.2693
  897MOL0     C18274   4.361   5.082   8.753  0.4714 -0.1298 -0.0812
  897MOL0     O18275   4.345   4.960   8.691 -0.5518  0.5838  0.6122
  897MOL0     C18276   4.223   4.905   8.660  1.3514  0.9179  0.6016
  897MOL0     C18277   4.126   4.892   8.753  0.5224 -0.1873  0.3961
  897MOL0     C18278   4.000   4.841   8.717  1.0446  0.6181  0.9723
  897MOL0     C18279   3.959   4.815   8.585 -0.7436 -0.3685 -0.0287
  897MOL0     O18280   3.827   4.774   8.551  0.0236  0.2545 -0.4718
  897MOL0     C18281   3.807   4.660   8.467  0.7214 -0.5013  0.4805
  897MOL0     C18282   3.700   4.576   8.531 -0.5663 -0.1174  1.2932
  897MOL0     C18283   3.661   4.461   8.445  0.0979 -0.1601  0.1169
  897MOL0     C18284   3.542   4.397   8.521 -0.3863  0.2301  0.6106
  897MOL0     C18285   3.489   4.278   8.440 -0.0100  0.1318  0.8051
  897MOL0     C18286   3.334   4.255   8.453  0.3041 -0.1949 -0.0597
  897MOL0     C18287   3.301   4.185   8.575  0.5354  0.1662 -0.0530
  897MOL0     C18288   3.152   4.134   8.579  0.1773  0.4140 -0.1939
  897MOL0     N18289   3.127   4.025   8.481  0.9484  0.0910  0.1286
  897MOL0     C18290   3.105   3.889   8.506 -0.5934  0.0956  0.6456
  897MOL0     C18291   3.081   3.833   8.390  0.6247  0.0521  0.0516
  897MOL0     C18292   3.056   3.687   8.378 -0.2981  0.7163  0.1495
  897MOL0     C18293   2.910   3.658   8.356  0.5245  0.3337  0.0336
  897MOL0     C18294   2.871   3.673   8.200  0.2741  0.4340  0.4692
  897MOL0     C18295   2.744   3.587   8.175 -0.2506 -1.1093 -0.2027
  897MOL0     O18296   2.624   3.642   8.245  0.2544  0.1467  0.3185
  897MOL0     C18297   2.513   3.570   8.216  0.2999 -0.8181 -0.0225
  897MOL0     C18298   2.400   3.630   8.276  0.6329  0.4949 -0.4950
  897MOL0     C18299   2.273   3.569   8.271 -0.1176 -0.1484 -0.4211
  897MOL0     C18300   2.261   3.455   8.194  1.1995  0.3352 -0.2306
  897MOL0     C18301   2.129   3.388   8.183 -0.0432  0.1154 -0.2118
  897MOL0     O18302   2.038   3.422   8.281  0.3569 -0.0466  0.5046
  897MOL0     C18303   1.910   3.444   8.232 -1.0643  0.5803  0.2377
  897MOL0     C18304   1.804   3.405   8.320  0.4760 -0.0627 -0.2328
  897MOL0     C18305   1.670   3.411   8.290 -0.1652 -1.1930 -0.0988
  897MOL0     C18306   1.631   3.472   8.168 -0.2498  0.6268 -0.1177
  897MOL0     O18307   1.504   3.483   8.132  0.9685  0.4497  0.2745
  897MOL0     C18308   1.463   3.565   8.016  0.4964  0.1032  0.4257
  897MOL0     C18309   1.309   3.578   8.030 -0.4553 -0.0607 -0.0629
  897MOL0     C18310   1.249   3.650   7.898 -0.1569  0.0861 -0.6488
  897MOL0     C18311   1.111   3.704   7.944  0.9954 -0.1448  0.4349
  897MOL0     C18312   0.994   3.598   7.954 -0.4000  0.6721  0.2270
  897MOL0     C18313   0.965   3.503   7.838 -0.5251  0.4695  0.4157
  897MOL0     C18314   0.851   3.409   7.887  0.3078 -0.5153 -0.4520
  897MOL0     C18315   0.803   3.302   7.785 -0.0258  0.4857 -0.1173
  897MOL0    Cl18316   0.902   3.151   7.793 -0.0107  0.0393  0.4162
  897MOL0     C18317   1.740   3.507   8.078  0.0816  0.9758  0.1731
  897MOL0     C18318   1.875   3.500   8.115 -0.5478 -0.2209 -0.6452
  897MOL0     O18319   2.105   3.326   8.079  0.4277  0.5467  0.8141
  897MOL0     C18320   2.375   3.405   8.125 -0.2614 -0.4275 -0.2531
  897MOL0     C18321   2.502   3.462   8.133 -0.4174  0.1306 -0.9099
  897MOL0     N18322   3.084   3.927   8.288 -0.5737  0.6965  0.4660
  897MOL0     N18323   3.115   4.033   8.347 -0.2737 -0.2095 -0.2403
  897MOL0     C18324   4.056   4.824   8.491  0.9788  0.1185  0.2407
  897MOL0     C18325   4.178   4.877   8.523 -0.3918 -0.1285  0.0025
  897MOL0     C18326   4.499   5.119   8.800 -0.3307 -0.0407  0.1465
  897MOL0     C18327   4.526   5.257   8.811 -0.4589 -0.3506  0.4173
  897MOL0     C18328   4.652   5.306   8.825 -0.4605 -1.4143 -0.9320
  897MOL0     C18329   4.750   5.212   8.867 -0.6890 -0.1353 -0.5629
  897MOL0     O18330   4.876   5.248   8.900  0.0631 -0.0160 -0.1221
  897MOL0     C18331   4.898   5.387   8.892  0.7262  0.2531 -0.9325
  897MOL0     C18332   5.043   5.423   8.916  0.0499 -0.4943  0.0115
  897MOL0     C18333   5.141   5.325   8.848  0.7258 -0.0286  0.0815
  897MOL0     C18334   5.289   5.361   8.879 -0.7014 -0.2521  0.9998
  897MOL0     C18335   5.373   5.260   8.820  0.0761  0.2664  0.6445
  897MOL0     C18336   5.447   5.171   8.773  0.2113 -1.0077  0.1013
  897MOL0     C18337   4.720   5.074   8.868  0.5848  0.0411  0.0723
  897MOL0     C18338   4.592   5.026   8.836 -0.1384  0.6609  0.4957
  897MOL0     H18339   4.141   4.933   8.852 -1.6656  1.0809  0.2755
  897MOL0     H18340   3.924   4.813   8.790  0.6366 -1.8470 -0.2819
  897MOL0     H18341   3.901   4.606   8.459  0.4408 -0.9443  0.1286
  897MOL0     H18342   3.775   4.700   8.370 -0.1590 -1.0462  0.5362
  897MOL0     H18343   3.610   4.638   8.537  1.1189  2.6700 -0.3362
  897MOL0     H18344   3.722   4.533   8.629 -1.7034  0.2956  1.7530
  897MOL0     H18345   3.746   4.393   8.439  2.6820  2.9823 -2.2863
  897MOL0     H18346   3.637   4.496   8.344 -0.6742  1.6353  0.8731
  897MOL0     H18347   3.571   4.364   8.621  1.3083  0.1885  0.1201
  897MOL0     H18348   3.453   4.461   8.531 -0.4668  0.6099 -1.9057
  897MOL0     H18349   3.548   4.188   8.460 -0.3229 -0.2750 -0.0459
  897MOL0     H18350   3.495   4.298   8.332 -3.9178 -1.2420  0.1601
  897MOL0     H18351   3.295   4.194   8.370 -1.1928 -0.1053  0.5364
  897MOL0     H18352   3.286   4.354   8.449  2.2499  0.7973  0.1721
  897MOL0     H18353   3.360   4.093   8.576  2.4795  1.3177  2.1640
  897MOL0     H18354   3.328   4.236   8.668 -0.5865 -4.0925  2.9129
  897MOL0     H18355   3.085   4.216   8.552  1.1410  1.8320  1.5128
  897MOL0     H18356   3.124   4.103   8.680 -0.0599 -0.1759 -0.4340
  897MOL0     H18357   3.086   3.852   8.606 -0.2652  0.7833  0.9742
  897MOL0     H18358   3.091   3.641   8.471 -0.9565  2.4742  1.3311
  897MOL0     H18359   3.121   3.656   8.296  1.6456 -0.2383  1.9776
  897MOL0     H18360   2.856   3.729   8.418 -0.4865 -1.6656  1.5541
  897MOL0     H18361   2.893   3.555   8.391 -1.6817  0.2571 -1.0964
  897MOL0     H18362   2.854   3.780   8.187  0.3692  0.3179 -0.7250
  897MOL0     H18363   2.956   3.652   8.134  0.2397 -0.7066  0.7758
  897MOL0     H18364   2.763   3.485   8.209  0.5607 -0.1393  2.5100
  897MOL0     H18365   2.731   3.602   8.068 -0.7345  1.5635  0.1548
  897MOL0     H18366   2.411   3.727   8.322  3.0256 -0.4054  1.0181
  897MOL0     H18367   2.187   3.627   8.304 -0.1438 -0.3296 -0.1751
  897MOL0     H18368   1.847   3.345   8.400  2.3098 -0.3699 -1.3964
  897MOL0     H18369   1.591   3.379   8.358 -0.3081 -0.5477  0.0468
  897MOL0     H18370   1.487   3.514   7.922  0.5231 -1.6638  1.3585
  897MOL0     H18371   1.521   3.657   8.029  3.9449 -2.1413  2.6381
  897MOL0     H18372   1.292   3.636   8.121  0.4088  1.3586 -0.7578
  897MOL0     H18373   1.255   3.483   8.032 -1.6887  0.5518 -1.5829
  897MOL0     H18374   1.244   3.591   7.806 -2.2154 -0.1460 -0.4445
  897MOL0     H18375   1.313   3.735   7.876  0.9126 -1.1758 -2.6850
  897MOL0     H18376   1.118   3.751   8.043 -0.4253 -0.1612  0.5649
  897MOL0     H18377   1.070   3.787   7.886 -2.6738  1.0641  4.2579
  897MOL0     H18378   0.905   3.660   7.969 -1.4042 -0.6610 -0.0641
  897MOL0     H18379   1.010   3.539   8.045  3.4514  1.5180  0.2842
  897MOL0     H18380   1.053   3.441   7.816 -1.5835 -0.5845 -1.1098
  897MOL0     H18381   0.941   3.557   7.747 -0.2125 -1.3660 -0.8175
  897MOL0     H18382   0.879   3.369   7.984 -2.3173 -1.5290 -0.0156
  897MOL0     H18383   0.768   3.479   7.903  1.6477  1.3678 -1.4133
  897MOL0     H18384   0.801   3.333   7.680  1.8456  0.3563 -0.2154
  897MOL0     H18385   0.703   3.269   7.815  0.8396  0.8046  3.6274
  897MOL0     H18386   1.727   3.531   7.973 -0.6150  2.5559  0.5887
  897MOL0     H18387   1.952   3.544   8.052 -2.1627  1.1311 -1.7721
  897MOL0     H18388   2.369   3.316   8.063 -2.0958 -0.0069 -0.7241
  897MOL0     H18389   2.587   3.441   8.069 -0.0074  0.5295 -0.5071
  897MOL0     H18390   4.026   4.795   8.391  1.2187  0.2914  0.1153
  897MOL0     H18391   4.249   4.879   8.441  1.4458 -4.9100  1.1430
  897MOL0     H18392   4.443   5.325   8.808  0.0043  0.2369 -2.4618
  897MOL0     H18393   4.659   5.414   8.830  5.9501 -1.4961  0.3078
  897MOL0     H18394   4.833   5.435   8.966  0.4061 -0.1333 -0.9627
  897MOL0     H18395   4.884   5.433   8.794 -1.4324  2.8611  0.4634
  897MOL0     H18396   5.068   5.525   8.887 -3.4529 -0.1237 -2.2280
  897MOL0     H18397   5.067   5.406   9.022 -1.7467 -0.5497  0.4591
  897MOL0     H18398   5.114   5.331   8.742  1.0986 -1.8922 -0.1613
  897MOL0     H18399   5.122   5.224   8.885  2.4872 -0.4376 -0.0070
  897MOL0     H18400   5.308   5.460   8.838 -1.6817 -0.3911  0.1617
  897MOL0     H18401   5.308   5.351   8.986 -1.7775  0.2898  1.2571
  897MOL0     H18402   5.520   5.095   8.754  1.3488  0.4165 -1.4077
  897MOL0     H18403   4.806   5.009   8.880  4.2741  4.1120 -1.3577
  897MOL0     H18404   4.557   4.923   8.836  2.0554 -0.1411  0.5933
  898MOL0     O18405   2.494   9.206   0.067 -0.6436 -0.0886 -0.9762
  898MOL0     C18406   2.448   9.143  -0.027 -0.6207  0.4581 -0.2634
  898MOL0     O18407   2.334   9.176  -0.094 -0.0470 -0.5972  0.0727
  898MOL0     C18408   2.262   9.283  -0.047 -0.6398 -0.6755 -1.4106
  898MOL0     C18409   2.200   9.348  -0.154 -0.7215  0.5284  0.4485
  898MOL0     C18410   2.109   9.451  -0.132  0.5128 -0.6584 -0.4776
  898MOL0     C18411   2.071   9.493   0.004  0.3687  0.8451 -0.2360
  898MOL0     O18412   1.976   9.587   0.029 -0.5153  0.3232 -0.1482
  898MOL0     C18413   1.952   9.679  -0.075  0.3626 -0.3511 -0.7107
  898MOL0     C18414   1.859   9.802  -0.027 -0.6337  1.2869  0.7217
  898MOL0     C18415   1.925   9.914   0.043 -0.3176  0.4390  0.9528
  898MOL0     C18416   1.821  10.014   0.092  0.1413  1.1879  0.3564
  898MOL0     C18417   1.753  10.079  -0.025  0.4795 -0.8077  0.5976
  898MOL0     C18418   1.640  10.170   0.028  0.5335  0.1291 -0.0625
  898MOL0     C18419   1.554  10.235  -0.087  0.5236 -0.1414 -0.3554
  898MOL0     C18420   1.471  10.124  -0.164 -0.2643  0.1484 -0.0315
  898MOL0     N18421   1.390  10.166  -0.279  0.9474  1.0115  0.8834
  898MOL0     C18422   1.254  10.191  -0.280  0.3902 -0.0416  0.1639
  898MOL0     C18423   1.209  10.201  -0.406 -0.7260 -0.2968  0.8181
  898MOL0     C18424   1.062  10.210  -0.443 -0.6048  0.3443  0.2214
  898MOL0     C18425   1.024  10.359  -0.458 -0.2887 -0.0996  0.6129
  898MOL0     C18426   0.992  10.442  -0.328 -0.0955 -0.6308  0.2669
  898MOL0     C18427   0.955  10.586  -0.358  0.3256  0.7361 -0.5952
  898MOL0     O18428   0.820  10.624  -0.373  0.7554 -0.2724 -0.1508
  898MOL0     C18429   0.744  10.630  -0.265 -0.4770  0.6639 -0.1237
  898MOL0     C18430   0.622  10.564  -0.261  0.2772  0.1825 -0.7944
  898MOL0     C18431   0.539  10.567  -0.150  0.2448  0.5749 -0.2401
  898MOL0     C18432   0.581  10.637  -0.033 -0.6479  0.7852  0.4100
  898MOL0     C18433   0.498  10.647   0.083  0.6252  0.6888 -0.0010
  898MOL0     O18434   0.365  10.606   0.074  0.4862 -0.4110  0.5560
  898MOL0     C18435   0.283  10.620   0.180 -0.0169 -0.1107 -0.5391
  898MOL0     C18436   0.255  10.746   0.229  0.5162 -0.0870 -0.4605
  898MOL0     C18437   0.157  10.757   0.325  0.3332  0.5599 -0.1817
  898MOL0     C18438   0.078  10.635   0.352  0.6171  0.9359 -0.6110
  898MOL0     O18439  -0.037  10.638   0.422  0.2696  0.1563 -0.3984
  898MOL0     C18440  -0.144  10.716   0.365  0.4075  0.0344 -0.2845
  898MOL0     C18441  -0.182  10.823   0.465 -0.4256  0.1651 -0.3726
  898MOL0     C18442  -0.300  10.906   0.429  0.0609  0.9286  0.1097
  898MOL0     C18443  -0.434  10.849   0.445  0.4473  0.3403  0.0533
  898MOL0     C18444  -0.533  10.963   0.404  0.0733 -0.6767  0.3749
  898MOL0     C18445  -0.685  10.939   0.418  0.2067 -0.1711 -0.4383
  898MOL0     C18446  -0.714  10.904   0.570 -0.5500 -0.2074  0.4780
  898MOL0     C18447  -0.864  10.882   0.614  1.0462  0.4565  0.8700
  898MOL0    Cl18448  -0.903  10.702   0.565 -0.0777  0.9938 -0.1148
  898MOL0     C18449   0.111  10.513   0.296 -0.0028 -1.0173 -0.2008
  898MOL0     C18450   0.221  10.504   0.213  0.4572  0.1748  0.8309
  898MOL0     O18451   0.547  10.695   0.184 -0.4054  0.9042 -0.9435
  898MOL0     C18452   0.705  10.710  -0.035  1.0892  0.1545 -0.5505
  898MOL0     C18453   0.782  10.708  -0.155  0.1100  0.0255 -1.5467
  898MOL0     N18454   1.331  10.185  -0.482  0.6550  0.3657  0.2417
  898MOL0     N18455   1.421  10.142  -0.414  0.4394  0.3369 -0.5233
  898MOL0     C18456   2.119   9.406   0.107  0.1305 -0.2902 -0.1011
  898MOL0     C18457   2.216   9.311   0.083  0.4221  1.0367 -0.4767
  898MOL0     C18458   2.524   9.020  -0.075  0.5728  0.1882  0.7565
  898MOL0     C18459   2.635   8.968  -0.006  0.1922 -0.1667  0.0184
  898MOL0     C18460   2.710   8.871  -0.062 -0.4361 -0.1365  0.9044
  898MOL0     C18461   2.692   8.830  -0.193 -0.1145  0.2309 -0.8593
  898MOL0     O18462   2.801   8.753  -0.233  0.1929 -0.3388 -0.2895
  898MOL0     C18463   2.789   8.685  -0.360  0.5749  0.4569 -0.1753
  898MOL0     C18464   2.834   8.774  -0.470  0.4394 -0.0315 -0.1353
  898MOL0     C18465   2.777   8.747  -0.613 -0.8054  0.4530  0.7509
  898MOL0     C18466   2.628   8.748  -0.632 -0.3254  0.6406  0.7989
  898MOL0     C18467   2.583   8.885  -0.642  0.7678  0.0159 -0.1391
  898MOL0     C18468   2.539   9.002  -0.629 -0.0079 -0.6762 -0.6657
  898MOL0     C18469   2.575   8.874  -0.261  0.6292 -0.0314  0.3806
  898MOL0     C18470   2.491   8.962  -0.195  0.8726 -0.0793  0.5167
  898MOL0     H18471   2.227   9.316  -0.254 -1.8244  1.1882 -0.0858
  898MOL0     H18472   2.060   9.502  -0.215 -1.5268  0.2203  1.1673
  898MOL0     H18473   1.910   9.628  -0.162 -0.9901  1.6544 -1.3066
  898MOL0     H18474   2.044   9.731  -0.103  0.9303 -0.7114  0.4245
  898MOL0     H18475   1.778   9.758   0.031 -0.7454 -2.8906 -2.1102
  898MOL0     H18476   1.822   9.838  -0.124  0.1540 -0.1614 -0.1665
  898MOL0     H18477   1.998   9.970  -0.015  1.6903 -2.5496  0.3964
  898MOL0     H18478   1.984   9.882   0.129  1.9909  2.8711  0.4236
  898MOL0     H18479   1.754   9.956   0.158  0.9873  0.5998  0.7195
  898MOL0     H18480   1.873  10.097   0.140 -1.5313  2.1175  0.6472
  898MOL0     H18481   1.715  10.000  -0.090  0.7149 -0.0980 -0.4161
  898MOL0     H18482   1.819  10.133  -0.092 -1.9340 -0.1545 -1.3931
  898MOL0     H18483   1.682  10.261   0.072  0.5238  1.0915 -1.9515
  898MOL0     H18484   1.575  10.112   0.095 -1.0105 -0.4944 -2.0016
  898MOL0     H18485   1.485  10.308  -0.044  0.4719  0.2409 -1.0824
  898MOL0     H18486   1.610  10.293  -0.160 -0.1902  0.2063 -0.6355
  898MOL0     H18487   1.404  10.068  -0.098 -2.4862  0.9140 -1.4960
  898MOL0     H18488   1.537  10.051  -0.210 -0.6903 -0.6866  0.6622
  898MOL0     H18489   1.182  10.176  -0.201  2.5398  0.5347  2.3468
  898MOL0     H18490   0.996  10.153  -0.376 -0.0750 -0.8256 -0.2303
  898MOL0     H18491   1.048  10.173  -0.545  1.9551  1.4452 -0.6080
  898MOL0     H18492   0.935  10.368  -0.520  0.0675 -2.2395 -0.2752
  898MOL0     H18493   1.098  10.408  -0.521  1.0324 -3.1888 -0.3842
  898MOL0     H18494   0.913  10.402  -0.264 -1.0428  3.1099  1.6900
  898MOL0     H18495   1.091  10.437  -0.281  0.3034  3.6556  0.2971
  898MOL0     H18496   0.993  10.610  -0.458  0.9100 -0.2426 -0.6178
  898MOL0     H18497   1.007  10.655  -0.290  0.6266 -1.9679  2.0851
  898MOL0     H18498   0.597  10.523  -0.359  0.5048 -2.4073  0.1597
  898MOL0     H18499   0.443  10.518  -0.163  0.8244 -0.5505 -0.4201
  898MOL0     H18500   0.294  10.836   0.183 -0.7038  0.1626 -1.0342
  898MOL0     H18501   0.126  10.851   0.370  3.0618  1.0770  0.8037
  898MOL0     H18502  -0.231  10.649   0.360  1.7000 -1.7551  0.2610
  898MOL0     H18503  -0.118  10.750   0.265  4.9846 -1.1645  0.2920
  898MOL0     H18504  -0.096  10.888   0.485 -1.0124  0.5517  0.9735
  898MOL0     H18505  -0.205  10.771   0.558 -2.1579  0.3459 -0.6531
  898MOL0     H18506  -0.296  10.947   0.328  0.9148  0.5876 -0.0095
  898MOL0     H18507  -0.295  10.992   0.496  0.1216 -0.3840  1.8850
  898MOL0     H18508  -0.458  10.774   0.370  1.2507 -0.1665  0.2985
  898MOL0     H18509  -0.449  10.811   0.547 -1.9835 -0.6250 -0.5981
  898MOL0     H18510  -0.522  10.974   0.296 -1.4668 -1.3296  0.1363
  898MOL0     H18511  -0.510  11.050   0.467 -1.5561  0.1199 -0.0869
  898MOL0     H18512  -0.708  10.851   0.357 -0.2027 -1.6248  1.6802
  898MOL0     H18513  -0.743  11.021   0.375  1.3415  0.5949 -0.5345
  898MOL0     H18514  -0.650  10.818   0.593  4.8760  2.2472 -3.4644
  898MOL0     H18515  -0.670  10.991   0.619 -1.6083 -0.4613  1.9724
  898MOL0     H18516  -0.938  10.952   0.573  0.8671  0.2011  0.7529
  898MOL0     H18517  -0.884  10.889   0.721  2.0262 -0.2730  1.1104
  898MOL0     H18518   0.051  10.423   0.309 -0.6446 -0.9693 -2.5024
  898MOL0     H18519   0.257  10.418   0.158  0.1063  1.0308 -0.8246
  898MOL0     H18520   0.750  10.761   0.050  1.4153  1.2487 -1.3543
  898MOL0     H18521   0.871  10.771  -0.159  1.0670 -1.2628 -1.1344
  898MOL0     H18522   2.089   9.431   0.208  0.4709 -4.7595  1.3257
  898MOL0     H18523   2.266   9.259   0.164 -0.3975  1.8168  0.5583
  898MOL0     H18524   2.666   9.018   0.085  3.3974  1.1759 -1.6225
  898MOL0     H18525   2.791   8.823  -0.008 -1.8180 -3.1247  0.5261
  898MOL0     H18526   2.690   8.647  -0.386  1.6611 -1.2187 -2.1556
  898MOL0     H18527   2.847   8.592  -0.368 -2.1210 -1.5752  1.7921
  898MOL0     H18528   2.809   8.879  -0.450  1.7097  0.0539  1.1818
  898MOL0     H18529   2.943   8.770  -0.482  0.1867 -0.4355 -2.9840
  898MOL0     H18530   2.809   8.645  -0.638 -0.2576  1.1292 -1.4878
  898MOL0     H18531   2.828   8.804  -0.691 -0.6443 -1.2179 -0.4096
  898MOL0     H18532   2.607   8.702  -0.729  1.6696  1.2032  0.0682
  898MOL0     H18533   2.568   8.706  -0.551 -0.8163 -1.0469 -0.3895
  898MOL0     H18534   2.503   9.103  -0.627 -2.1981 -1.2840 -3.0499
  898MOL0     H18535   2.558   8.838  -0.362  0.1647  1.4847 -0.1029
  898MOL0     H18536   2.396   8.997  -0.235 -0.2449 -1.3448  1.9336
  899MOL0     O18537   7.844   0.548   9.540  0.4130  0.9963  0.4581
  899MOL0     C18538   7.873   0.433   9.492  0.4726  0.9959 -0.2794
  899MOL0     O18539   7.803   0.372   9.395 -0.4008 -0.0409 -0.7543
  899MOL0     C18540   7.694   0.436   9.336 -0.0186  0.7780 -0.0574
  899MOL0     C18541   7.570   0.438   9.407  0.1410  0.4605 -0.2839
  899MOL0     C18542   7.452   0.492   9.345  0.2939 -0.1369  0.2992
  899MOL0     C18543   7.466   0.547   9.211  0.2127  0.4016 -1.0811
  899MOL0     O18544   7.360   0.599   9.129  0.7219  1.0072  0.0463
  899MOL0     C18545   7.238   0.527   9.125  0.3335  0.6164 -0.0931
  899MOL0     C18546   7.229   0.480   8.973 -0.4031 -0.4078 -0.2575
  899MOL0     C18547   7.132   0.368   8.952 -0.3632 -0.0715 -0.3780
  899MOL0     C18548   6.988   0.424   8.948  0.0813  0.2311 -0.4469
  899MOL0     C18549   6.887   0.313   8.941 -0.4936 -0.4290 -0.5551
  899MOL0     C18550   6.892   0.227   8.818 -0.9391  0.6956 -0.4741
  899MOL0     C18551   6.761   0.137   8.823 -0.0591  0.5843 -0.0531
  899MOL0     C18552   6.762   0.027   8.937 -0.3910  0.4664  0.0803
  899MOL0     N18553   6.899  -0.025   8.962  0.0198  0.4384 -0.1329
  899MOL0     C18554   6.973  -0.112   8.884  0.2636  0.1209 -0.1855
  899MOL0     C18555   7.083  -0.146   8.963  0.0621  0.8947  0.7003
  899MOL0     C18556   7.188  -0.246   8.925 -0.3963 -0.3259 -0.1362
  899MOL0     C18557   7.291  -0.180   8.840 -0.5268  0.1167 -0.0865
  899MOL0     C18558   7.395  -0.088   8.913 -0.0419  0.8219  0.1538
  899MOL0     C18559   7.489  -0.020   8.819  0.0809  0.6267  0.2140
  899MOL0     O18560   7.555   0.075   8.910 -0.2673  0.0838  0.2078
  899MOL0     C18561   7.694   0.101   8.903 -0.0398  0.1920 -0.5681
  899MOL0     C18562   7.741   0.198   8.995 -0.5115 -0.1193 -0.1292
  899MOL0     C18563   7.876   0.238   9.008 -0.0174 -0.3940 -0.0201
  899MOL0     C18564   7.974   0.172   8.926  0.2878 -0.8246 -0.2897
  899MOL0     C18565   8.111   0.196   8.957 -0.5327  0.0720 -0.2235
  899MOL0     O18566   8.201   0.144   8.871  0.6753  0.4049  0.3596
  899MOL0     C18567   8.336   0.171   8.882 -0.2044 -0.0249 -0.5684
  899MOL0     C18568   8.374   0.299   8.897  0.4064 -0.5148 -0.1965
  899MOL0     C18569   8.509   0.336   8.911  0.1613  0.6958  0.4818
  899MOL0     C18570   8.613   0.241   8.900  0.1147  1.0433  0.1352
  899MOL0     O18571   8.745   0.264   8.886  0.4730 -0.2605 -0.1685
  899MOL0     C18572   8.797   0.392   8.862  0.2400 -0.0544 -0.7919
  899MOL0     C18573   8.950   0.411   8.851  1.9890  0.1254  0.1662
  899MOL0     C18574   8.996   0.474   8.987 -0.5517 -0.2512 -0.0728
  899MOL0     C18575   8.943   0.623   9.023  0.5787  0.3207  0.3840
  899MOL0     C18576   8.957   0.642   9.179  1.4955 -0.1258 -0.8784
  899MOL0     C18577   9.088   0.616   9.244 -0.2439 -0.4530 -0.4394
  899MOL0     C18578   9.105   0.623   9.395 -0.5618 -0.6760 -0.1369
  899MOL0     C18579   9.255   0.646   9.433  0.1625  0.1209 -0.0946
  899MOL0    Cl18580   9.256   0.633   9.613  0.6532  0.0305 -0.5106
  899MOL0     C18581   8.571   0.107   8.884  0.6133  0.3444 -0.1654
  899MOL0     C18582   8.437   0.077   8.867  0.4801 -0.3920  0.2995
  899MOL0     O18583   8.145   0.258   9.063 -0.5352 -0.0077  0.0955
  899MOL0     C18584   7.931   0.076   8.836  0.5681 -0.3020  0.8082
  899MOL0     C18585   7.790   0.040   8.820 -0.1345 -0.8762 -0.2199
  899MOL0     N18586   7.071  -0.073   9.078 -0.0932 -0.6693 -0.2942
  899MOL0     N18587   6.959  -0.021   9.084  0.1686 -0.4196 -0.1478
  899MOL0     C18588   7.595   0.550   9.157 -1.0628 -0.4033 -0.0745
  899MOL0     C18589   7.702   0.504   9.218  0.4057 -0.0960 -0.4180
  899MOL0     C18590   7.991   0.364   9.539 -0.7671  0.7417  0.1800
  899MOL0     C18591   8.073   0.413   9.640 -0.5466 -0.2777  0.0044
  899MOL0     C18592   8.195   0.343   9.679 -0.2459 -0.3201 -1.4320
  899MOL0     C18593   8.231   0.232   9.619  0.1376  0.6584  0.5186
  899MOL0     O18594   8.337   0.155   9.642  0.6230 -0.6983  0.4386
  899MOL0     C18595   8.442   0.210   9.721 -0.5265 -0.6806 -0.4565
  899MOL0     C18596   8.576   0.145   9.683  0.9621 -0.5229  0.6038
  899MOL0     C18597   8.584   0.009   9.751 -0.3089  0.6153  0.1627
  899MOL0     C18598   8.575   0.009   9.904 -0.3285 -0.1021 -0.8993
  899MOL0     C18599   8.613  -0.124   9.953 -0.8766 -0.0840 -0.4334
  899MOL0     C18600   8.662  -0.226   9.991  0.4960  0.1486  0.4280
  899MOL0     C18601   8.143   0.174   9.523  0.7516 -0.1196  0.2407
  899MOL0     C18602   8.025   0.238   9.481  0.1743 -0.2580 -0.2714
  899MOL0     H18603   7.573   0.388   9.503 -0.7182  1.0828  0.0803
  899MOL0     H18604   7.356   0.479   9.395  0.6069 -1.2326  0.6314
  899MOL0     H18605   7.148   0.580   9.157 -1.9415 -3.2461  0.5398
  899MOL0     H18606   7.238   0.441   9.192 -1.2962  0.9665  0.4176
  899MOL0     H18607   7.328   0.442   8.946  0.4954  2.3663 -1.2684
  899MOL0     H18608   7.212   0.565   8.905  2.1378  0.3416 -0.0760
  899MOL0     H18609   7.134   0.311   9.045  0.1194 -1.6757 -1.3433
  899MOL0     H18610   7.155   0.297   8.873  0.6517 -2.4345  1.8970
  899MOL0     H18611   6.965   0.484   9.036  2.8561  0.5243  0.1663
  899MOL0     H18612   6.982   0.497   8.867 -0.0973  3.2778  2.1343
  899MOL0     H18613   6.790   0.363   8.946 -1.9490 -3.1248  0.8130
  899MOL0     H18614   6.892   0.256   9.034  0.0032 -1.0939 -0.9712
  899MOL0     H18615   6.981   0.164   8.821 -0.2726  1.6239  0.2018
  899MOL0     H18616   6.876   0.290   8.730 -3.3263  0.7938 -0.0501
  899MOL0     H18617   6.679   0.203   8.851 -1.3758 -1.1440  0.3564
  899MOL0     H18618   6.739   0.080   8.732  2.8707 -1.8904  0.6139
  899MOL0     H18619   6.700  -0.058   8.908  1.8954 -0.8752 -1.0848
  899MOL0     H18620   6.716   0.070   9.026 -1.0885 -1.5821  0.7458
  899MOL0     H18621   6.949  -0.145   8.783 -0.4291  1.6169 -0.5322
  899MOL0     H18622   7.141  -0.334   8.881  3.5110 -1.5692 -2.3420
  899MOL0     H18623   7.238  -0.270   9.019 -0.4973  3.1003  0.9380
  899MOL0     H18624   7.242  -0.143   8.750 -1.1668 -1.3692 -0.3742
  899MOL0     H18625   7.352  -0.264   8.807 -2.1473 -0.1597 -2.6200
  899MOL0     H18626   7.342  -0.002   8.954  0.4411  1.2775 -0.1712
  899MOL0     H18627   7.450  -0.146   8.988 -0.0686 -0.9201 -1.1038
  899MOL0     H18628   7.435   0.033   8.741  1.0199 -0.8961 -1.5632
  899MOL0     H18629   7.559  -0.090   8.771 -0.8872 -0.5972  0.5216
  899MOL0     H18630   7.668   0.236   9.066 -2.0980 -1.4218 -0.9891
  899MOL0     H18631   7.908   0.321   9.070  0.5356 -0.2724 -0.4589
  899MOL0     H18632   8.298   0.377   8.892 -0.2809 -0.9500  2.2153
  899MOL0     H18633   8.533   0.441   8.924 -0.1873  0.8455 -0.0206
  899MOL0     H18634   8.764   0.462   8.940 -0.0896  1.0996 -1.9305
  899MOL0     H18635   8.756   0.433   8.770 -1.6618  0.9941  0.4522
  899MOL0     H18636   8.984   0.465   8.762  3.5021 -2.7013 -1.0790
  899MOL0     H18637   9.012   0.322   8.837  3.3381  0.9145  0.9244
  899MOL0     H18638   9.105   0.476   8.982 -0.2021 -5.9073 -0.8563
  899MOL0     H18639   8.975   0.406   9.070  1.2725 -2.6549 -1.4461
  899MOL0     H18640   9.010   0.697   8.977  0.8084  0.0137  0.2278
  899MOL0     H18641   8.841   0.640   8.986  0.2045  1.0106  1.6528
  899MOL0     H18642   8.883   0.586   9.236  0.1047  1.6922 -0.8098
  899MOL0     H18643   8.920   0.741   9.208 -1.5021 -0.6242 -2.5630
  899MOL0     H18644   9.159   0.692   9.209 -0.3543 -0.2932 -0.3207
  899MOL0     H18645   9.136   0.522   9.217 -0.1926 -1.3265  2.3409
  899MOL0     H18646   9.036   0.698   9.433 -2.2074 -2.6916  1.0532
  899MOL0     H18647   9.082   0.523   9.433  1.4736 -1.5070 -0.9606
  899MOL0     H18648   9.289   0.742   9.393  1.3488 -0.6003 -0.8852
  899MOL0     H18649   9.314   0.563   9.394  0.9524  1.1254 -1.1268
  899MOL0     H18650   8.646   0.029   8.885  0.3242  0.0671  0.6732
  899MOL0     H18651   8.411  -0.026   8.843  2.0986  0.1042 -4.9523
  899MOL0     H18652   8.008   0.021   8.783  0.9448  0.5893  0.4206
  899MOL0     H18653   7.762  -0.042   8.755  0.9163 -3.9972  2.8851
  899MOL0     H18654   7.597   0.582   9.054  0.5325 -0.2930 -0.0249
  899MOL0     H18655   7.798   0.498   9.168 -0.4452 -2.1057 -1.9501
  899MOL0     H18656   8.035   0.503   9.685 -0.4150 -1.0618  1.7569
  899MOL0     H18657   8.264   0.385   9.752  1.8364 -2.1326 -2.2474
  899MOL0     H18658   8.415   0.194   9.825 -2.2465 -2.3799 -1.1159
  899MOL0     H18659   8.465   0.317   9.713  0.9618 -0.9286  0.2384
  899MOL0     H18660   8.601   0.143   9.576 -1.2165 -2.5292  0.0477
  899MOL0     H18661   8.652   0.212   9.724 -0.5560  1.2024  0.7556
  899MOL0     H18662   8.674  -0.039   9.712 -0.4414  0.7250 -0.2912
  899MOL0     H18663   8.508  -0.052   9.702  0.3654  0.9054 -1.3115
  899MOL0     H18664   8.647   0.075   9.951 -0.7115 -0.6520  0.5174
  899MOL0     H18665   8.475   0.038   9.936  0.6183  3.3054 -0.7181
  899MOL0     H18666   8.716  -0.315  10.014  1.4344 -0.2359 -2.8176
  899MOL0     H18667   8.150   0.069   9.498 -0.1050 -0.1914  0.2492
  899MOL0     H18668   7.971   0.177   9.409 -0.1021 -1.0263  0.5670
  900MOL0     O18669   9.638   4.328   6.757  0.1919  0.0254  0.0073
  900MOL0     C18670   9.687   4.415   6.693 -0.3059 -0.1851 -0.1580
  900MOL0     O18671   9.619   4.507   6.618 -0.0338 -0.2462  0.2581
  900MOL0     C18672   9.485   4.499   6.615  0.0664 -0.4085 -0.3895
  900MOL0     C18673   9.407   4.504   6.734  0.4971  0.5335  0.8493
  900MOL0     C18674   9.264   4.501   6.726  0.6646 -0.5068  0.2079
  900MOL0     C18675   9.203   4.488   6.595 -0.6539  0.2848 -1.0417
  900MOL0     O18676   9.062   4.500   6.592 -0.3588 -0.3589 -0.2026
  900MOL0     C18677   9.008   4.569   6.478  0.1518 -0.1103 -0.1590
  900MOL0     C18678   8.867   4.592   6.497  0.2567  0.9060  0.5851
  900MOL0     C18679   8.797   4.659   6.376 -0.6630 -0.0569  0.4206
  900MOL0     C18680   8.654   4.662   6.410 -0.2024  0.2723  0.0597
  900MOL0     C18681   8.582   4.740   6.300 -0.0610  1.2498 -0.0446
  900MOL0     C18682   8.429   4.705   6.305  0.1150 -0.0047  0.9426
  900MOL0     C18683   8.332   4.779   6.215 -0.2335 -0.6864 -0.9376
  900MOL0     C18684   8.309   4.731   6.076 -0.2725  1.5460  0.2239
  900MOL0     N18685   8.434   4.696   6.003 -0.7386  0.2915  0.1713
  900MOL0     C18686   8.509   4.788   5.939  0.1248 -0.2894 -0.1077
  900MOL0     C18687   8.601   4.711   5.865 -0.9430  0.4567 -0.0729
  900MOL0     C18688   8.703   4.763   5.774  0.1314  0.5105  0.0326
  900MOL0     C18689   8.804   4.859   5.839  0.1189  0.7841  0.9078
  900MOL0     C18690   8.870   4.810   5.962 -0.8837 -0.0701 -0.2402
  900MOL0     C18691   8.929   4.666   5.952 -0.3236 -0.8082  1.7525
  900MOL0     O18692   8.984   4.627   6.081 -0.3045 -0.1723 -0.1240
  900MOL0     C18693   9.115   4.652   6.091  0.2977  0.3963 -0.5311
  900MOL0     C18694   9.155   4.782   6.127  0.7427  0.1751  0.2530
  900MOL0     C18695   9.285   4.817   6.151 -0.3713  0.3992  0.0131
  900MOL0     C18696   9.384   4.709   6.153 -0.1281  0.1461 -0.2578
  900MOL0     C18697   9.532   4.727   6.182 -0.2496  0.8955  0.1043
  900MOL0     O18698   9.603   4.616   6.189  0.0915  0.5693  0.8409
  900MOL0     C18699   9.736   4.606   6.199  0.7665 -0.4038 -0.8831
  900MOL0     C18700   9.827   4.710   6.209  0.5308  0.4660  0.3886
  900MOL0     C18701   9.965   4.686   6.206  1.0586  0.1224 -0.2255
  900MOL0     C18702  10.018   4.560   6.228 -0.4571  0.2306 -0.6493
  900MOL0     O18703  10.165   4.543   6.227  0.4282  0.0919 -0.1612
  900MOL0     C18704  10.244   4.654   6.274  0.3821 -0.4220  0.2156
  900MOL0     C18705  10.390   4.621   6.260 -0.4352 -0.0172 -0.6576
  900MOL0     C18706  10.459   4.729   6.351 -0.0226  0.5147  0.1992
  900MOL0     C18707  10.618   4.715   6.340  0.0528 -0.9011 -0.5554
  900MOL0     C18708  10.677   4.719   6.195 -0.6979 -0.3066 -0.4991
  900MOL0     C18709  10.833   4.739   6.173  0.9763  0.0853 -0.5665
  900MOL0     C18710  10.920   4.630   6.250 -0.6607 -0.0028 -0.1082
  900MOL0     C18711  11.058   4.636   6.188 -0.2485 -0.2299  1.0790
  900MOL0    Cl18712  11.123   4.799   6.247 -0.1368 -0.1073  0.0694
  900MOL0     C18713   9.934   4.452   6.213  0.2776 -0.3024 -0.0071
  900MOL0     C18714   9.789   4.479   6.199  0.3735  0.2873  0.8408
  900MOL0     O18715   9.568   4.837   6.214  0.3998  0.3184 -0.1039
  900MOL0     C18716   9.344   4.582   6.106  1.2745  0.6247 -0.3672
  900MOL0     C18717   9.206   4.550   6.084 -0.8660  0.8582 -0.5121
  900MOL0     N18718   8.572   4.579   5.896  0.0384  0.6271  0.6288
  900MOL0     N18719   8.467   4.570   5.965  0.3728  0.4583  0.0194
  900MOL0     C18720   9.284   4.482   6.480 -0.2648 -0.2544  0.0375
  900MOL0     C18721   9.422   4.484   6.489 -0.2769 -0.1284 -0.7138
  900MOL0     C18722   9.834   4.412   6.679  0.2095  0.5357 -0.1852
  900MOL0     C18723   9.907   4.481   6.579  0.8545 -0.1440 -0.5140
  900MOL0     C18724  10.045   4.488   6.576  0.3530 -0.7528  0.8954
  900MOL0     C18725  10.114   4.403   6.658  0.8143 -0.1168 -0.7362
  900MOL0     O18726  10.248   4.387   6.664 -0.3439  0.9452  0.3408
  900MOL0     C18727  10.330   4.457   6.568 -0.1143  0.2004 -0.7031
  900MOL0     C18728  10.481   4.431   6.606  0.1353 -0.0543  0.4223
  900MOL0     C18729  10.512   4.278   6.618 -0.4538 -0.7289 -0.5809
  900MOL0     C18730  10.656   4.243   6.656 -1.3496 -0.6058 -0.3533
  900MOL0     C18731  10.737   4.288   6.554 -0.3419 -0.1086 -0.2506
  900MOL0     C18732  10.802   4.305   6.455 -1.3992  0.3598 -0.2551
  900MOL0     C18733  10.048   4.319   6.755  0.8187  0.8708  0.8726
  900MOL0     C18734   9.910   4.324   6.771  0.1980  0.0260  0.2031
  900MOL0     H18735   9.435   4.511   6.839  0.5036  0.1566  0.8741
  900MOL0     H18736   9.198   4.515   6.811  0.7531  0.3636  0.1487
  900MOL0     H18737   9.014   4.506   6.389 -3.0778 -1.0256  0.1304
  900MOL0     H18738   9.061   4.662   6.456  0.9555 -0.0950  1.6279
  900MOL0     H18739   8.855   4.658   6.584  2.2459  2.5079 -0.2743
  900MOL0     H18740   8.811   4.501   6.523 -1.1055  1.0083 -1.7225
  900MOL0     H18741   8.811   4.611   6.279 -0.1528 -2.3406  1.5576
  900MOL0     H18742   8.840   4.756   6.351  1.3590 -1.0370 -0.1977
  900MOL0     H18743   8.609   4.562   6.414  0.5420 -0.0416  3.8329
  900MOL0     H18744   8.633   4.708   6.507  0.6871  0.5924  0.1068
  900MOL0     H18745   8.613   4.714   6.199 -3.1528  0.9414 -0.9984
  900MOL0     H18746   8.596   4.848   6.311 -1.4850  1.4910 -0.4505
  900MOL0     H18747   8.384   4.718   6.403 -2.4904  1.4762 -0.3396
  900MOL0     H18748   8.420   4.597   6.286 -0.6549  0.2287 -0.0856
  900MOL0     H18749   8.234   4.766   6.262  0.2118  2.8641  1.3479
  900MOL0     H18750   8.378   4.878   6.207 -0.0245 -0.6909  0.0917
  900MOL0     H18751   8.260   4.809   6.016 -0.4734  0.2534 -1.3862
  900MOL0     H18752   8.241   4.645   6.076 -2.2853  2.8947 -3.4845
  900MOL0     H18753   8.492   4.895   5.929 -1.5029 -0.6436 -1.5085
  900MOL0     H18754   8.635   4.815   5.705 -0.3238  1.0473  0.8644
  900MOL0     H18755   8.749   4.680   5.721 -0.5094 -0.9429  1.6371
  900MOL0     H18756   8.750   4.951   5.859  0.2992  1.1543 -0.2087
  900MOL0     H18757   8.881   4.883   5.764 -0.4497  0.1919  0.1175
  900MOL0     H18758   8.940   4.891   5.981 -0.9771 -0.6113  2.9062
  900MOL0     H18759   8.793   4.825   6.039  1.5584  0.7489  2.1840
  900MOL0     H18760   9.004   4.672   5.873 -2.6177 -0.9041 -0.5730
  900MOL0     H18761   8.854   4.599   5.909  0.4016 -0.5990  0.0622
  900MOL0     H18762   9.072   4.852   6.125  0.7125  0.1706 -2.0435
  900MOL0     H18763   9.305   4.919   6.183 -0.6972 -0.0462  1.7234
  900MOL0     H18764   9.795   4.813   6.217 -0.3033  0.3253 -0.8566
  900MOL0     H18765  10.031   4.771   6.196  1.6157 -0.0097  1.8464
  900MOL0     H18766  10.221   4.678   6.379  0.1360 -0.7466  0.2373
  900MOL0     H18767  10.226   4.742   6.211 -1.6678 -0.0532  1.2026
  900MOL0     H18768  10.432   4.634   6.160  1.7232  2.9956  0.4892
  900MOL0     H18769  10.408   4.517   6.289  1.6540  0.0574 -1.4901
  900MOL0     H18770  10.421   4.716   6.452 -0.7140 -1.7139 -0.2945
  900MOL0     H18771  10.426   4.830   6.324 -0.3848  0.8418  1.7734
  900MOL0     H18772  10.654   4.803   6.394 -0.2201 -1.2280  0.1690
  900MOL0     H18773  10.645   4.628   6.401 -2.5627 -2.7585 -1.8441
  900MOL0     H18774  10.641   4.807   6.143  1.3674  0.5705 -0.5369
  900MOL0     H18775  10.659   4.627   6.138  0.4378 -0.3094 -0.8742
  900MOL0     H18776  10.860   4.835   6.218 -0.2204  0.3878 -0.4543
  900MOL0     H18777  10.861   4.740   6.068 -2.0941  5.0815 -1.6958
  900MOL0     H18778  10.929   4.648   6.357  3.1854 -0.2051 -0.2538
  900MOL0     H18779  10.878   4.529   6.244  0.7914 -0.6067 -0.5637
  900MOL0     H18780  11.064   4.627   6.079  3.4727  1.5218  0.9613
  900MOL0     H18781  11.124   4.560   6.231  2.5522  1.9674  0.9552
  900MOL0     H18782   9.969   4.350   6.206  2.0087  0.2797 -0.3867
  900MOL0     H18783   9.727   4.390   6.206 -2.1505  2.0847  4.1636
  900MOL0     H18784   9.416   4.502   6.106  1.5501  0.8395  1.2368
  900MOL0     H18785   9.178   4.445   6.075 -0.4234  0.4225  2.4411
  900MOL0     H18786   9.222   4.473   6.391 -1.1435 -1.3687  0.7287
  900MOL0     H18787   9.476   4.495   6.396 -0.1984 -0.1718 -0.6731
  900MOL0     H18788   9.861   4.551   6.509 -0.9216 -1.9686 -1.2637
  900MOL0     H18789  10.089   4.568   6.518  0.9716 -1.0206  0.9885
  900MOL0     H18790  10.310   4.565   6.562 -4.6360 -0.2191  2.1558
  900MOL0     H18791  10.301   4.424   6.467 -1.9710  1.8543 -0.7877
  900MOL0     H18792  10.539   4.480   6.527 -1.0847 -3.1562 -2.6574
  900MOL0     H18793  10.499   4.467   6.708  4.4009 -1.0434  0.1987
  900MOL0     H18794  10.489   4.218   6.530 -4.1639 -0.3708 -0.0053
  900MOL0     H18795  10.453   4.235   6.700 -0.0916 -0.3597 -0.1181
  900MOL0     H18796  10.687   4.296   6.747 -1.4184  2.0314 -1.7601
  900MOL0     H18797  10.661   4.135   6.671 -0.5992 -0.7887 -1.7391
  900MOL0     H18798  10.863   4.324   6.370  0.3103  3.1061  1.4146
  900MOL0     H18799  10.106   4.260   6.826 -2.1730 -3.6176  0.0515
  900MOL0     H18800   9.859   4.258   6.841  0.8444 -0.7699 -0.0567
  901MOL0     O18801  10.369   4.148   7.739 -0.6678  1.0276 -0.0884
  901MOL0     C18802  10.403   4.146   7.856 -0.0089  0.1027 -0.1990
  901MOL0     O18803  10.333   4.206   7.960 -0.3004  0.3070 -0.0826
  901MOL0     C18804  10.206   4.251   7.964  0.0702 -0.1940  0.0347
  901MOL0     C18805  10.114   4.232   7.864 -0.5515  0.6895  0.6671
  901MOL0     C18806   9.979   4.260   7.887  0.3280 -0.7053 -0.2147
  901MOL0     C18807   9.945   4.331   8.004  0.3912 -0.6758  0.8900
  901MOL0     O18808   9.817   4.373   8.021  0.6564 -0.1591 -0.2373
  901MOL0     C18809   9.715   4.270   7.999 -0.0050  0.0407 -0.1889
  901MOL0     C18810   9.591   4.310   8.073  0.0933 -0.6290  0.4894
  901MOL0     C18811   9.591   4.356   8.214  0.4557  0.4569 -0.5746
  901MOL0     C18812   9.445   4.389   8.265 -0.9368 -0.1930 -0.7817
  901MOL0     C18813   9.381   4.519   8.226 -0.5666 -0.9017  0.5466
  901MOL0     C18814   9.242   4.533   8.254 -0.0281  0.2172 -0.7660
  901MOL0     C18815   9.153   4.519   8.131  0.7746  0.0699 -0.0151
  901MOL0     C18816   9.003   4.491   8.155 -0.2608 -1.1388 -0.8892
  901MOL0     N18817   8.940   4.519   8.025 -0.1249 -0.2669  0.2714
  901MOL0     C18818   8.945   4.425   7.918 -0.5633  0.4948 -0.3909
  901MOL0     C18819   8.828   4.445   7.850 -1.2189 -1.0659 -0.0070
  901MOL0     C18820   8.783   4.352   7.745  0.2409 -0.3778 -0.2788
  901MOL0     C18821   8.625   4.349   7.743 -0.3257 -0.2767  0.0999
  901MOL0     C18822   8.577   4.220   7.693  0.3179  0.7092  0.3066
  901MOL0     C18823   8.582   4.112   7.809  0.0522  0.5034  0.3545
  901MOL0     O18824   8.480   4.150   7.904 -0.3286  1.0280  0.4197
  901MOL0     C18825   8.342   4.133   7.889  0.6363 -0.3424  0.4460
  901MOL0     C18826   8.283   4.057   7.789  0.2766 -0.1554  0.0373
  901MOL0     C18827   8.140   4.040   7.786 -1.1790 -0.4747 -0.4361
  901MOL0     C18828   8.061   4.103   7.879 -0.5842  0.6309  0.0543
  901MOL0     C18829   7.917   4.080   7.884  0.1895 -0.0641  1.2710
  901MOL0     O18830   7.846   4.130   7.989  0.9972 -0.8052  0.0057
  901MOL0     C18831   7.706   4.119   7.984 -1.3206 -0.5664 -0.0753
  901MOL0     C18832   7.635   4.156   7.877  0.5138  0.2965  0.5014
  901MOL0     C18833   7.495   4.143   7.877  0.2358  0.1994  0.9542
  901MOL0     C18834   7.420   4.084   7.982 -1.6354  0.5091  0.9181
  901MOL0     O18835   7.281   4.076   7.973  0.7584  0.0219 -0.0584
  901MOL0     C18836   7.215   4.006   8.078 -0.9805  0.2539 -0.3980
  901MOL0     C18837   7.064   4.021   8.040 -0.2950  0.5241 -0.4727
  901MOL0     C18838   6.969   3.925   8.128 -0.8282 -0.2758 -0.2212
  901MOL0     C18839   6.821   3.926   8.117  0.5974 -0.1638 -0.0488
  901MOL0     C18840   6.747   4.030   8.207 -0.1771  0.0190  0.2331
  901MOL0     C18841   6.595   4.032   8.182 -0.4832  0.1706 -0.6492
  901MOL0     C18842   6.519   3.913   8.241 -0.0457  0.1022 -0.3358
  901MOL0     C18843   6.559   3.880   8.383 -0.2598 -0.5329 -0.4098
  901MOL0    Cl18844   6.427   3.814   8.483  0.1984 -0.0245  0.2948
  901MOL0     C18845   7.503   4.038   8.085 -0.1657  0.9259 -0.0733
  901MOL0     C18846   7.642   4.058   8.091 -0.4662  0.6545  0.3650
  901MOL0     O18847   7.862   4.025   7.795 -0.3825 -0.0207 -0.1461
  901MOL0     C18848   8.115   4.189   7.976  0.4343  0.4388 -0.6229
  901MOL0     C18849   8.255   4.192   7.979  0.1778 -0.4775 -0.9092
  901MOL0     N18850   8.757   4.552   7.914  0.4811  0.7344 -0.3859
  901MOL0     N18851   8.828   4.591   8.014  0.0195 -0.2428  0.3613
  901MOL0     C18852  10.039   4.363   8.096  0.2940 -0.4463 -0.3007
  901MOL0     C18853  10.171   4.322   8.076 -0.8534 -0.8023  0.1835
  901MOL0     C18854  10.541   4.108   7.869 -0.5571 -0.1510 -0.4905
  901MOL0     C18855  10.623   4.133   7.983  0.3334 -0.2189 -0.2487
  901MOL0     C18856  10.761   4.105   7.997  0.5120 -0.1823  0.2966
  901MOL0     C18857  10.822   4.036   7.899  0.8973 -0.5121  1.2405
  901MOL0     O18858  10.954   4.005   7.909 -0.1453  0.1114  0.0864
  901MOL0     C18859  11.022   3.963   7.791 -0.0512  0.0031  0.3460
  901MOL0     C18860  11.164   3.905   7.829  0.8413  0.4841  0.2505
  901MOL0     C18861  11.245   3.860   7.705 -0.1408  0.0736  0.0379
  901MOL0     C18862  11.356   3.759   7.737 -0.3652  0.3968  0.4000
  901MOL0     C18863  11.433   3.792   7.855 -0.2330  0.9240 -1.4990
  901MOL0     C18864  11.516   3.812   7.950  0.2084  0.2699 -0.9265
  901MOL0     C18865  10.741   4.003   7.788  0.2171 -0.0005 -0.2624
  901MOL0     C18866  10.608   4.040   7.771  0.6435  0.1831 -0.1481
  901MOL0     H18867  10.123   4.177   7.771  0.0399  0.5247  0.8226
  901MOL0     H18868   9.906   4.247   7.809  0.7506  1.8856 -1.1373
  901MOL0     H18869   9.752   4.170   8.024  1.4599  0.6854  0.3734
  901MOL0     H18870   9.683   4.268   7.895 -0.6031 -0.3663 -0.0054
  901MOL0     H18871   9.517   4.231   8.060  0.9913 -0.9781 -4.0772
  901MOL0     H18872   9.547   4.394   8.018  0.7766 -0.3568  0.3493
  901MOL0     H18873   9.647   4.448   8.232 -0.5500  1.2266 -1.2595
  901MOL0     H18874   9.656   4.289   8.272 -0.5926 -1.0008 -1.0220
  901MOL0     H18875   9.383   4.305   8.233  0.8944 -1.0551 -2.3120
  901MOL0     H18876   9.452   4.384   8.374 -0.3099 -3.0044 -0.8560
  901MOL0     H18877   9.398   4.530   8.119 -0.7115  0.1974  0.6265
  901MOL0     H18878   9.439   4.604   8.264 -1.5796  0.5816 -1.0897
  901MOL0     H18879   9.227   4.625   8.311 -0.0244 -1.6923  2.5456
  901MOL0     H18880   9.216   4.454   8.325  1.7835  0.8998  0.7246
  901MOL0     H18881   9.153   4.617   8.083 -1.2996 -0.6808 -1.7512
  901MOL0     H18882   9.192   4.442   8.063 -0.7308  2.1145 -3.4779
  901MOL0     H18883   8.981   4.563   8.234  0.2752 -3.0522  1.0988
  901MOL0     H18884   8.967   4.394   8.190 -1.4670 -0.6787 -0.8062
  901MOL0     H18885   9.011   4.341   7.904  1.1224  2.0164 -2.1723
  901MOL0     H18886   8.818   4.249   7.757 -1.3872 -0.9222  0.0307
  901MOL0     H18887   8.811   4.382   7.644 -1.9616 -1.3220 -1.2394
  901MOL0     H18888   8.594   4.426   7.672  0.1841 -0.2469 -0.0900
  901MOL0     H18889   8.588   4.377   7.841  3.1478  0.4956  1.3099
  901MOL0     H18890   8.478   4.244   7.653 -0.3293  1.3194  2.1379
  901MOL0     H18891   8.645   4.182   7.617  1.7121  3.1017  0.2519
  901MOL0     H18892   8.680   4.118   7.857 -0.9609 -2.1433  3.0100
  901MOL0     H18893   8.569   4.006   7.784 -1.7974  0.6384  0.5740
  901MOL0     H18894   8.341   4.033   7.701 -0.3127  0.9634 -0.6786
  901MOL0     H18895   8.093   4.000   7.696 -2.4200 -1.1892  0.4973
  901MOL0     H18896   7.662   4.210   7.787  1.7749 -0.6235  0.3008
  901MOL0     H18897   7.430   4.176   7.797 -1.9088 -2.3955  1.4890
  901MOL0     H18898   7.241   4.035   8.181  0.8559  0.2057 -0.8119
  901MOL0     H18899   7.240   3.902   8.058 -0.5720 -0.1962  2.1136
  901MOL0     H18900   7.058   4.002   7.933 -0.9763  1.0732 -0.5404
  901MOL0     H18901   7.026   4.122   8.061 -0.5084 -0.1008  2.6377
  901MOL0     H18902   6.992   3.939   8.234 -0.8224 -2.6819  0.1449
  901MOL0     H18903   6.995   3.824   8.097 -2.1861 -1.1391  1.3108
  901MOL0     H18904   6.809   3.958   8.013 -1.0969  1.5403  0.5979
  901MOL0     H18905   6.771   3.831   8.136  0.9172 -0.4839 -0.7923
  901MOL0     H18906   6.786   4.127   8.175 -0.3823  0.4624  1.2879
  901MOL0     H18907   6.783   4.017   8.310  1.2033 -1.8449 -0.4141
  901MOL0     H18908   6.569   4.042   8.077 -0.4005 -1.5538 -0.8647
  901MOL0     H18909   6.567   4.127   8.227  0.3406  0.4977 -0.8054
  901MOL0     H18910   6.411   3.932   8.241 -0.2918 -0.7645  2.6690
  901MOL0     H18911   6.544   3.826   8.179  1.1787  1.6677 -2.1469
  901MOL0     H18912   6.592   3.971   8.435 -2.9065  0.2656  0.0078
  901MOL0     H18913   6.629   3.796   8.376 -0.0891 -0.5333  1.0919
  901MOL0     H18914   7.464   3.975   8.164 -0.4625 -1.7759 -2.2020
  901MOL0     H18915   7.685   4.034   8.187  0.1933  0.1761 -0.0392
  901MOL0     H18916   8.050   4.254   8.033 -2.8911 -1.4574 -2.0256
  901MOL0     H18917   8.303   4.242   8.063  0.3572 -1.1565 -0.6049
  901MOL0     H18918  10.016   4.409   8.192 -0.7762  1.7199 -1.5186
  901MOL0     H18919  10.250   4.349   8.146  0.5598 -4.2234  0.0836
  901MOL0     H18920  10.574   4.188   8.063 -1.2678 -3.6992  1.3573
  901MOL0     H18921  10.816   4.138   8.084  1.6427 -1.1257 -0.0273
  901MOL0     H18922  11.031   4.041   7.716 -0.0021  0.1572  0.5123
  901MOL0     H18923  10.968   3.877   7.750  0.2683 -0.1650  0.2803
  901MOL0     H18924  11.215   3.991   7.874  1.9310 -0.8553  1.7053
  901MOL0     H18925  11.170   3.828   7.907  0.1756 -0.1042 -0.2583
  901MOL0     H18926  11.278   3.944   7.643  0.2339  0.2059  0.4133
  901MOL0     H18927  11.178   3.808   7.635  0.0953  1.2842 -1.1334
  901MOL0     H18928  11.310   3.662   7.758  1.2280 -0.4164  0.2592
  901MOL0     H18929  11.409   3.748   7.642  0.0539  0.5575  0.6166
  901MOL0     H18930  11.590   3.821   8.027  0.6060  1.9870 -1.4638
  901MOL0     H18931  10.770   3.944   7.701 -2.4599  1.6555 -2.4666
  901MOL0     H18932  10.560   3.998   7.683 -0.0501 -0.8787  0.7120
  902MOL0     O18933   8.916   7.619   9.438  0.1224 -0.1631 -0.4039
  902MOL0     C18934   9.009   7.534   9.426  0.1000 -0.2991 -0.6705
  902MOL0     O18935   8.998   7.407   9.439  0.3686 -1.2474  0.5433
  902MOL0     C18936   8.874   7.349   9.450  0.4230 -0.0854  0.4554
  902MOL0     C18937   8.761   7.383   9.373 -0.5539 -0.4400  0.3651
  902MOL0     C18938   8.642   7.319   9.380  0.8812  0.3394  0.7488
  902MOL0     C18939   8.628   7.220   9.478 -0.6073  0.5961  0.1783
  902MOL0     O18940   8.510   7.152   9.509 -0.0736 -0.3254  0.1144
  902MOL0     C18941   8.402   7.241   9.542 -0.7296  0.1410  0.1850
  902MOL0     C18942   8.278   7.154   9.553  0.1717  0.3179  1.1429
  902MOL0     C18943   8.158   7.244   9.587  0.3326 -0.1232  0.7047
  902MOL0     C18944   8.035   7.185   9.656  0.0049  0.6693  0.1194
  902MOL0     C18945   7.943   7.298   9.679  0.3374  0.7465 -0.2678
  902MOL0     C18946   7.857   7.270   9.809 -1.0133  0.6998  1.2549
  902MOL0     C18947   7.750   7.159   9.806  0.5565  0.4924  0.4120
  902MOL0     C18948   7.626   7.203   9.726  0.8226  0.1943 -0.4343
  902MOL0     N18949   7.515   7.109   9.721  1.1312 -0.9322 -0.3033
  902MOL0     C18950   7.407   7.107   9.636 -0.5541 -0.2340 -0.1973
  902MOL0     C18951   7.327   7.008   9.680 -1.0984  0.3170 -0.0641
  902MOL0     C18952   7.203   6.962   9.622  0.6106  0.0366  0.5917
  902MOL0     C18953   7.083   7.036   9.674 -0.0976  0.1980 -0.5461
  902MOL0     C18954   7.059   7.034   9.831  0.6152  1.7813  0.8423
  902MOL0     C18955   7.051   6.892   9.895 -0.0362 -0.8012  0.4212
  902MOL0     O18956   6.962   6.814   9.816  0.1623  0.0548 -0.0530
  902MOL0     C18957   6.826   6.829   9.828 -0.3551  0.2073 -0.0755
  902MOL0     C18958   6.747   6.756   9.746  0.0624  0.0594  0.2011
  902MOL0     C18959   6.612   6.759   9.748 -0.2705 -0.2432 -0.1969
  902MOL0     C18960   6.543   6.847   9.835  0.4141  0.6647  1.1642
  902MOL0     C18961   6.391   6.849   9.848 -0.5453 -0.8264 -0.3717
  902MOL0     O18962   6.326   6.774   9.753 -0.3014 -0.4562 -0.4767
  902MOL0     C18963   6.190   6.759   9.753 -0.1932 -0.8867 -0.2732
  902MOL0     C18964   6.135   6.642   9.803 -0.0132 -0.1648  0.7909
  902MOL0     C18965   5.993   6.627   9.817  0.6454 -0.2578 -0.5550
  902MOL0     C18966   5.907   6.731   9.786 -0.6449  0.9370  1.4775
  902MOL0     O18967   5.775   6.686   9.788  0.9426 -0.8899 -0.4242
  902MOL0     C18968   5.666   6.788   9.789 -0.0683  0.3721  0.7841
  902MOL0     C18969   5.530   6.716   9.764 -0.4745 -0.2275 -0.3248
  902MOL0     C18970   5.410   6.808   9.771  0.0698  0.7524  0.7372
  902MOL0     C18971   5.292   6.728   9.709 -0.6839 -0.3546 -1.3406
  902MOL0     C18972   5.144   6.778   9.721  0.3983 -1.2552 -0.1712
  902MOL0     C18973   5.116   6.817   9.866  0.3795  0.6677 -1.1078
  902MOL0     C18974   4.977   6.873   9.908  0.2883 -0.6680  0.6648
  902MOL0     C18975   4.859   6.803   9.837  0.4547 -0.1362 -0.0717
  902MOL0    Cl18976   4.698   6.862   9.893 -0.3804 -0.1697  0.1020
  902MOL0     C18977   5.964   6.855   9.750 -0.2415 -0.2421  0.6356
  902MOL0     C18978   6.100   6.863   9.732  0.3542 -0.4365 -0.1082
  902MOL0     O18979   6.336   6.907   9.940  0.0779  0.0679 -0.2238
  902MOL0     C18980   6.620   6.918   9.930  0.0432  0.5692  0.2037
  902MOL0     C18981   6.762   6.912   9.925  0.1551  0.0820  0.7994
  902MOL0     N18982   7.387   6.962   9.798 -0.0159 -0.2827  0.3897
  902MOL0     N18983   7.496   7.019   9.818 -0.5715 -0.0019  0.5141
  902MOL0     C18984   8.738   7.181   9.551  0.2928 -0.1441 -0.0288
  902MOL0     C18985   8.861   7.241   9.545  0.0895  1.4624 -0.6014
  902MOL0     C18986   9.152   7.573   9.407 -0.3738 -0.2062 -1.0810
  902MOL0     C18987   9.189   7.702   9.462 -0.4312 -0.1296 -0.2432
  902MOL0     C18988   9.323   7.746   9.463  0.2563  0.9508  0.6314
  902MOL0     C18989   9.418   7.663   9.402 -0.9082  0.0388  0.6790
  902MOL0     O18990   9.543   7.718   9.416 -0.0137  0.2630  0.0948
  902MOL0     C18991   9.661   7.652   9.365  0.5960 -0.0353 -0.0478
  902MOL0     C18992   9.796   7.722   9.407  0.6188  0.4245  0.1497
  902MOL0     C18993   9.931   7.644   9.379  0.7781 -0.3366  0.4794
  902MOL0     C18994  10.056   7.732   9.368  0.4283 -1.3904  0.8119
  902MOL0     C18995  10.179   7.655   9.324 -0.3335  0.3083 -1.0730
  902MOL0     C18996  10.275   7.591   9.300  0.0669  0.6263  0.1003
  902MOL0     C18997   9.378   7.545   9.338  0.1531 -0.0595  0.1946
  902MOL0     C18998   9.246   7.498   9.335  0.3022  0.5630  0.1486
  902MOL0     H18999   8.764   7.473   9.312  0.5377 -0.4884  0.3278
  902MOL0     H19000   8.558   7.344   9.316  1.2776 -2.3906 -0.9962
  902MOL0     H19001   8.388   7.305   9.454 -3.2676 -0.4011  0.1246
  902MOL0     H19002   8.422   7.307   9.626  3.7981 -0.1669 -0.4267
  902MOL0     H19003   8.288   7.095   9.644  2.2746  1.4762  1.7334
  902MOL0     H19004   8.262   7.086   9.469  0.7763  2.4469 -0.8338
  902MOL0     H19005   8.136   7.291   9.490  0.2610  0.7628  1.1439
  902MOL0     H19006   8.200   7.310   9.663  2.1744 -3.1010  2.4895
  902MOL0     H19007   8.002   7.096   9.602 -1.1711  1.4013 -0.4193
  902MOL0     H19008   8.062   7.143   9.754  0.0262  1.3364  0.4064
  902MOL0     H19009   7.875   7.319   9.595 -2.1031  1.4450  1.7761
  902MOL0     H19010   8.006   7.384   9.703  1.0821  0.1788 -0.1596
  902MOL0     H19011   7.809   7.364   9.838  1.5498  1.9330  1.7991
  902MOL0     H19012   7.929   7.250   9.890  0.4980  1.3708  0.1268
  902MOL0     H19013   7.799   7.070   9.765  1.7405  1.6519 -0.7561
  902MOL0     H19014   7.716   7.137   9.908 -0.7271 -0.0128 -0.1073
  902MOL0     H19015   7.667   7.226   9.627  2.6226 -1.6381 -0.1815
  902MOL0     H19016   7.596   7.294   9.777 -0.5636 -1.3228  1.6263
  902MOL0     H19017   7.412   7.165   9.545  0.7472  0.2382  0.1453
  902MOL0     H19018   7.198   6.854   9.639 -0.0657  0.0247  0.3635
  902MOL0     H19019   7.196   6.964   9.513  1.7408 -0.6552  0.4975
  902MOL0     H19020   6.998   6.990   9.622 -0.8579  0.7766  0.1582
  902MOL0     H19021   7.087   7.138   9.635 -0.5231 -0.4943 -2.5433
  902MOL0     H19022   7.136   7.101   9.869  2.1171  0.8158 -0.3523
  902MOL0     H19023   6.966   7.087   9.852 -0.0580  1.5280 -1.2746
  902MOL0     H19024   7.028   6.904  10.001 -0.6181  2.3903  0.0135
  902MOL0     H19025   7.145   6.838   9.884 -0.0640 -1.1253  1.6754
  902MOL0     H19026   6.794   6.696   9.669 -2.0530  0.6846 -1.6905
  902MOL0     H19027   6.558   6.692   9.682  1.7595 -3.1047  0.8415
  902MOL0     H19028   6.203   6.558   9.813 -1.9140 -1.7840  1.0680
  902MOL0     H19029   5.953   6.528   9.835 -1.7504  0.6430 -0.6158
  902MOL0     H19030   5.686   6.864   9.713  0.1176 -0.0772  0.3771
  902MOL0     H19031   5.671   6.837   9.887  0.9104  0.9085  0.4901
  902MOL0     H19032   5.528   6.650   9.851  2.4766  4.0668  3.4706
  902MOL0     H19033   5.538   6.658   9.672 -1.6709  0.0389 -0.6194
  902MOL0     H19034   5.430   6.894   9.707 -2.6567  0.5476 -0.5308
  902MOL0     H19035   5.397   6.848   9.871  1.5602 -1.7965  2.0632
  902MOL0     H19036   5.323   6.709   9.606  0.8908 -0.6392 -0.8371
  902MOL0     H19037   5.294   6.638   9.771  1.2323  1.3317  1.2355
  902MOL0     H19038   5.083   6.692   9.693 -0.5000 -1.3811  1.9938
  902MOL0     H19039   5.135   6.862   9.652  2.2143 -1.6844 -0.9796
  902MOL0     H19040   5.178   6.905   9.885  1.0341  0.3501 -1.7087
  902MOL0     H19041   5.125   6.739   9.941 -1.7005  2.2157  0.8708
  902MOL0     H19042   4.975   6.864  10.017  1.8674  0.9007  0.8636
  902MOL0     H19043   4.971   6.979   9.883 -1.0446 -1.0057 -0.5686
  902MOL0     H19044   4.867   6.694   9.848 -3.3553 -0.7009 -1.1485
  902MOL0     H19045   4.862   6.821   9.730 -5.0496  2.5553 -0.1380
  902MOL0     H19046   5.889   6.929   9.723 -0.0257  0.0965  0.9572
  902MOL0     H19047   6.142   6.955   9.695 -1.6774  1.6912  2.4652
  902MOL0     H19048   6.577   6.982  10.005 -1.4508 -0.3828  0.1882
  902MOL0     H19049   6.811   6.974   9.998 -3.9460  4.6235  0.2026
  902MOL0     H19050   8.721   7.107   9.630 -2.4410  1.6286  1.1933
  902MOL0     H19051   8.948   7.212   9.602 -0.5511 -2.3212 -1.2761
  902MOL0     H19052   9.108   7.761   9.504 -2.7364 -3.1062 -0.2107
  902MOL0     H19053   9.339   7.848   9.495 -0.9884  0.7395  2.0726
  902MOL0     H19054   9.666   7.644   9.257 -2.6297 -3.2116 -0.1510
  902MOL0     H19055   9.644   7.561   9.423 -3.3742  0.7824  0.3653
  902MOL0     H19056   9.780   7.819   9.361 -0.4905  0.1648 -0.0461
  902MOL0     H19057   9.792   7.737   9.516 -2.0659  2.2698 -0.1214
  902MOL0     H19058   9.915   7.602   9.279  2.2117 -0.5620  0.3196
  902MOL0     H19059   9.946   7.564   9.452 -0.1372 -0.0594  0.9864
  902MOL0     H19060  10.036   7.806   9.290 -0.2996 -0.7639  1.5684
  902MOL0     H19061  10.063   7.787   9.462 -2.7454  1.2814 -0.3180
  902MOL0     H19062  10.353   7.518   9.291 -0.2431  0.3773 -0.6069
  902MOL0     H19063   9.451   7.493   9.276  1.3334 -1.1351  2.3883
  902MOL0     H19064   9.222   7.421   9.263  1.4653 -1.3265  1.6653
  903MOL0     O19065   7.629   1.156  11.173  0.5782  0.4488 -0.0895
  903MOL0     C19066   7.661   1.224  11.272  0.1050 -0.5634  0.2779
  903MOL0     O19067   7.598   1.225  11.395  0.9568  0.3635 -0.2033
  903MOL0     C19068   7.513   1.124  11.430  0.7436  1.3584  0.0009
  903MOL0     C19069   7.547   1.014  11.506 -0.6668 -0.1133 -0.3871
  903MOL0     C19070   7.449   0.924  11.548  1.1095  0.0064 -0.0589
  903MOL0     C19071   7.306   0.952  11.530 -0.1164  0.5566 -0.0909
  903MOL0     O19072   7.210   0.861  11.578  0.2916 -0.0074 -0.1831
  903MOL0     C19073   7.077   0.905  11.592 -0.4664 -0.1433 -0.0562
  903MOL0     C19074   6.987   0.786  11.622 -0.4238 -0.3091  0.3942
  903MOL0     C19075   6.855   0.824  11.682  0.6159  0.8145  0.0400
  903MOL0     C19076   6.781   0.692  11.688  1.2106 -0.4649  0.0743
  903MOL0     C19077   6.624   0.730  11.683  1.2080 -0.5111 -0.4707
  903MOL0     C19078   6.530   0.603  11.682  0.1927  0.9415  0.4450
  903MOL0     C19079   6.386   0.653  11.671 -0.4900  0.2787  0.6856
  903MOL0     C19080   6.296   0.523  11.650 -0.3004  0.1242  0.5890
  903MOL0     N19081   6.153   0.563  11.633 -0.3621 -0.5652  0.4467
  903MOL0     C19082   6.094   0.616  11.522  0.6011  0.5438  0.3758
  903MOL0     C19083   5.973   0.665  11.564 -0.2792 -0.5289  0.8176
  903MOL0     C19084   5.866   0.726  11.496 -0.0840 -1.2383 -0.3669
  903MOL0     C19085   5.804   0.634  11.400 -0.0279  0.1364  0.3166
  903MOL0     C19086   5.662   0.657  11.355  0.9347 -0.4773 -0.8781
  903MOL0     C19087   5.638   0.798  11.308 -0.5495 -0.5184 -0.5333
  903MOL0     O19088   5.544   0.879  11.383 -0.4631  0.3804 -0.6452
  903MOL0     C19089   5.416   0.821  11.360  0.1601 -0.0623 -0.5248
  903MOL0     C19090   5.364   0.776  11.234 -0.7715 -0.0571  0.1256
  903MOL0     C19091   5.225   0.733  11.224 -0.4326  0.4599  0.1046
  903MOL0     C19092   5.146   0.747  11.335  0.8672  0.7800 -0.1135
  903MOL0     C19093   5.002   0.692  11.337 -0.2600  0.4433  0.0651
  903MOL0     O19094   4.943   0.690  11.465 -0.2828  0.1160  0.5517
  903MOL0     C19095   4.807   0.692  11.484 -0.3376 -0.8034 -0.2749
  903MOL0     C19096   4.770   0.666  11.610 -0.3351  0.1913  0.0347
  903MOL0     C19097   4.636   0.673  11.650 -0.2620  0.0134  0.1979
  903MOL0     C19098   4.538   0.708  11.558 -0.1624  0.2681  0.2999
  903MOL0     O19099   4.409   0.724  11.602 -0.2489 -0.1313 -0.5412
  903MOL0     C19100   4.304   0.764  11.513  0.7189  0.0203  0.0751
  903MOL0     C19101   4.180   0.721  11.593  0.0016  0.6697  0.1619
  903MOL0     C19102   4.047   0.738  11.518 -0.3690  0.1414  0.1096
  903MOL0     C19103   3.922   0.714  11.608 -0.6838  0.1382  0.3511
  903MOL0     C19104   3.789   0.780  11.558  0.2720  0.1209  0.3187
  903MOL0     C19105   3.652   0.741  11.621 -0.5466  0.3813  0.0604
  903MOL0     C19106   3.535   0.832  11.560 -0.5182 -0.6834 -0.6439
  903MOL0     C19107   3.404   0.825  11.633  0.6010 -0.4290  0.2288
  903MOL0    Cl19108   3.355   0.662  11.651 -0.3669  0.4332 -0.2618
  903MOL0     C19109   4.582   0.728  11.424 -0.9113  0.2394  0.4987
  903MOL0     C19110   4.716   0.734  11.391 -0.8902  0.3270  0.5382
  903MOL0     O19111   4.953   0.657  11.233  0.6065 -0.1391 -0.4966
  903MOL0     C19112   5.204   0.793  11.459  0.8127  0.6046 -0.0351
  903MOL0     C19113   5.332   0.836  11.466  0.0187 -0.2387 -0.0077
  903MOL0     N19114   5.968   0.651  11.698  0.0785  0.2396 -0.5699
  903MOL0     N19115   6.074   0.596  11.738 -0.1737 -0.9796 -0.4961
  903MOL0     C19116   7.278   1.064  11.454 -0.0964 -0.3142 -0.3329
  903MOL0     C19117   7.383   1.140  11.395  0.1426  0.3128  0.4647
  903MOL0     C19118   7.779   1.306  11.265 -0.3508 -0.2946 -0.5959
  903MOL0     C19119   7.867   1.288  11.163 -0.5420  0.1648  0.2302
  903MOL0     C19120   7.982   1.369  11.156  0.3363 -0.5505 -0.7613
  903MOL0     C19121   8.001   1.476  11.248 -0.4890 -0.1994 -0.4397
  903MOL0     O19122   8.111   1.549  11.230  0.3928 -0.9562  0.1609
  903MOL0     C19123   8.130   1.655  11.323  0.6274  0.4719  0.5830
  903MOL0     C19124   8.181   1.602  11.450 -0.0193  0.0071  0.0583
  903MOL0     C19125   8.183   1.720  11.555 -0.6343  0.2175  0.0424
  903MOL0     C19126   8.221   1.684  11.696  1.0410 -0.1508  0.4344
  903MOL0     C19127   8.351   1.627  11.718 -0.1104  0.1182 -0.1123
  903MOL0     C19128   8.470   1.592  11.738 -1.1408  0.2033 -0.4937
  903MOL0     C19129   7.901   1.498  11.347  0.3212  0.2320 -0.0408
  903MOL0     C19130   7.789   1.412  11.361 -0.2109  0.4051  0.5828
  903MOL0     H19131   7.651   0.999  11.535 -0.3472  0.4245 -1.2205
  903MOL0     H19132   7.492   0.844  11.607  1.6082 -0.1866 -0.6772
  903MOL0     H19133   7.032   0.943  11.499 -1.9359 -1.4533  0.0762
  903MOL0     H19134   7.074   0.978  11.673  1.5514 -2.0856  1.9070
  903MOL0     H19135   7.039   0.721  11.693  1.2503  1.0644  0.4915
  903MOL0     H19136   6.968   0.739  11.525  2.3136 -0.5133 -0.1065
  903MOL0     H19137   6.799   0.898  11.625 -0.5532  1.7091  2.2341
  903MOL0     H19138   6.864   0.864  11.783 -0.5422  3.3325 -0.7765
  903MOL0     H19139   6.803   0.636  11.596  0.0078 -0.4095 -0.2643
  903MOL0     H19140   6.809   0.635  11.777 -0.3286  1.3151  1.7754
  903MOL0     H19141   6.598   0.770  11.585  1.0116  0.2802 -0.1079
  903MOL0     H19142   6.590   0.802  11.758 -1.3835 -2.5801  0.5258
  903MOL0     H19143   6.544   0.551  11.778  4.4493  1.2705  0.2182
  903MOL0     H19144   6.554   0.538  11.598 -0.1564  2.2523 -0.7004
  903MOL0     H19145   6.342   0.720  11.746  0.5288 -0.9238  2.4448
  903MOL0     H19146   6.374   0.708  11.577 -2.8736 -2.1593 -0.5681
  903MOL0     H19147   6.298   0.460  11.740  0.1430 -0.7462 -0.0120
  903MOL0     H19148   6.326   0.462  11.564  0.3640  1.2463  0.0107
  903MOL0     H19149   6.140   0.608  11.424 -0.3200 -2.1118  0.0895
  903MOL0     H19150   5.896   0.826  11.465  0.1538 -1.3468 -0.4905
  903MOL0     H19151   5.789   0.758  11.567 -0.0186  1.9950 -1.6021
  903MOL0     H19152   5.822   0.533  11.437  4.7387  1.1476  1.3808
  903MOL0     H19153   5.862   0.641  11.308  0.0164 -1.6239  0.1785
  903MOL0     H19154   5.647   0.596  11.266 -1.7775 -0.4928 -0.4845
  903MOL0     H19155   5.586   0.643  11.432 -0.1449 -3.6898 -2.3719
  903MOL0     H19156   5.611   0.798  11.202  1.0985  0.4700 -0.9799
  903MOL0     H19157   5.735   0.848  11.315 -1.2889  0.8048  0.6605
  903MOL0     H19158   5.420   0.775  11.141  1.5554  0.3781  1.4231
  903MOL0     H19159   5.189   0.686  11.132  0.0006 -0.1237  0.2261
  903MOL0     H19160   4.844   0.634  11.683 -0.4436  0.8907  0.4593
  903MOL0     H19161   4.602   0.669  11.753  2.0854  1.7158  1.1429
  903MOL0     H19162   4.307   0.704  11.421 -0.0155  0.1335 -0.0234
  903MOL0     H19163   4.290   0.870  11.492 -1.7312 -0.6390 -2.1109
  903MOL0     H19164   4.190   0.771  11.690 -0.9596 -0.3940  0.8260
  903MOL0     H19165   4.177   0.613  11.609 -5.3693  0.3860 -0.9097
  903MOL0     H19166   4.036   0.661  11.441 -3.8335  1.8142 -1.2789
  903MOL0     H19167   4.046   0.840  11.479  3.1234  1.9495  3.9710
  903MOL0     H19168   3.901   0.609  11.630 -0.4535 -0.3115 -1.4244
  903MOL0     H19169   3.930   0.761  11.707 -0.5400 -0.0721  0.4401
  903MOL0     H19170   3.773   0.756  11.453  0.2492  1.1819  0.0626
  903MOL0     H19171   3.805   0.887  11.576  3.9744 -0.4248  1.0160
  903MOL0     H19172   3.674   0.749  11.728  4.0046  1.1886 -0.7357
  903MOL0     H19173   3.633   0.633  11.621 -0.7668  0.4183  0.1801
  903MOL0     H19174   3.559   0.938  11.544  2.3264 -0.9433  1.1411
  903MOL0     H19175   3.526   0.782  11.463  0.6549 -0.0023 -1.1339
  903MOL0     H19176   3.331   0.883  11.576  1.0371 -1.3391 -1.3134
  903MOL0     H19177   3.426   0.863  11.733 -0.1755 -0.8365  0.5613
  903MOL0     H19178   4.506   0.745  11.348  0.0208 -0.0457 -0.5199
  903MOL0     H19179   4.744   0.750  11.287 -1.8850 -1.4443 -0.0427
  903MOL0     H19180   5.146   0.799  11.551 -0.3602 -1.1070 -0.6284
  903MOL0     H19181   5.366   0.875  11.562  1.1288 -3.8185  1.2338
  903MOL0     H19182   7.179   1.090  11.421  0.0487  0.2880 -0.2982
  903MOL0     H19183   7.359   1.228  11.336 -1.1534 -0.9871 -1.0366
  903MOL0     H19184   7.858   1.203  11.096  1.7732 -0.5202  0.6872
  903MOL0     H19185   8.059   1.355  11.081  3.5638 -1.6525  2.4758
  903MOL0     H19186   8.037   1.712  11.334  1.4792  2.8011 -2.6987
  903MOL0     H19187   8.196   1.731  11.279  0.0968  1.2500  1.0894
  903MOL0     H19188   8.137   1.509  11.486  0.9063 -0.5086 -0.1033
  903MOL0     H19189   8.286   1.574  11.435  0.2060  0.3937  0.8530
  903MOL0     H19190   8.086   1.770  11.567  0.1012  2.2676 -1.9154
  903MOL0     H19191   8.256   1.794  11.522  1.3421 -1.3809  0.6415
  903MOL0     H19192   8.203   1.775  11.754 -0.7572  0.9987 -1.7548
  903MOL0     H19193   8.146   1.614  11.734 -1.8796  2.0505 -0.8477
  903MOL0     H19194   8.570   1.558  11.759 -0.8272  0.8842 -0.8451
  903MOL0     H19195   7.906   1.571  11.427  3.1221  1.0079 -0.8205
  903MOL0     H19196   7.716   1.422  11.440  0.8269 -2.3059  2.0464
  904MOL0     O19197   9.647   8.618   5.220 -0.4052 -0.1054  0.5187
  904MOL0     C19198   9.660   8.647   5.339 -0.8654  0.4054 -0.5465
  904MOL0     O19199   9.595   8.596   5.445  0.0535  0.0152  0.6751
  904MOL0     C19200   9.537   8.479   5.438 -0.3070 -0.9672 -0.1832
  904MOL0     C19201   9.436   8.465   5.531 -0.8233 -0.0539 -0.1063
  904MOL0     C19202   9.377   8.340   5.553 -0.1049 -0.6185 -0.3137
  904MOL0     C19203   9.425   8.232   5.479  0.3626 -0.1607  0.1711
  904MOL0     O19204   9.357   8.112   5.507 -0.5261  0.2259 -0.0611
  904MOL0     C19205   9.373   8.001   5.421  0.3698  0.3837  0.0018
  904MOL0     C19206   9.297   7.887   5.479  0.1825  0.0591  0.1314
  904MOL0     C19207   9.378   7.809   5.586 -0.1753  0.1717 -0.5376
  904MOL0     C19208   9.282   7.722   5.665 -0.9649  0.3678 -0.6349
  904MOL0     C19209   9.256   7.596   5.588 -0.0816 -0.3408  0.0814
  904MOL0     C19210   9.155   7.499   5.653 -0.2792  0.4729 -0.4384
  904MOL0     C19211   9.137   7.371   5.571  0.8821  0.9633  0.4161
  904MOL0     C19212   9.034   7.265   5.636  0.1936 -0.5764 -0.6551
  904MOL0     N19213   8.898   7.320   5.611  0.7353 -0.7907 -0.3946
  904MOL0     C19214   8.810   7.379   5.702 -0.0256  0.2538 -0.2629
  904MOL0     C19215   8.686   7.385   5.638  0.4991  0.1466  0.5012
  904MOL0     C19216   8.554   7.442   5.676 -0.0428  0.0171 -0.3692
  904MOL0     C19217   8.459   7.332   5.734  1.2187  0.9945 -0.9692
  904MOL0     C19218   8.398   7.232   5.628 -0.0162  0.8434 -0.9479
  904MOL0     C19219   8.313   7.122   5.687  0.2800 -0.0461 -0.0587
  904MOL0     O19220   8.218   7.180   5.776 -0.5307 -1.0061 -0.1789
  904MOL0     C19221   8.118   7.110   5.837  1.1771  0.2367 -0.1586
  904MOL0     C19222   8.111   6.973   5.833 -0.0584  0.3751  0.8559
  904MOL0     C19223   7.997   6.907   5.889 -0.4583  0.0471 -0.5708
  904MOL0     C19224   7.895   6.983   5.952 -0.4121  0.2402 -0.2743
  904MOL0     C19225   7.776   6.910   6.012 -0.1865  0.1581 -0.2886
  904MOL0     O19226   7.707   6.974   6.111  0.0811 -0.6584  0.0504
  904MOL0     C19227   7.578   6.940   6.119  0.3722  1.2309 -0.9717
  904MOL0     C19228   7.534   6.850   6.217 -1.1136 -0.2825  0.3341
  904MOL0     C19229   7.396   6.842   6.248  0.0489 -0.0247 -0.6041
  904MOL0     C19230   7.304   6.917   6.182  0.0443 -0.3651  0.5499
  904MOL0     O19231   7.170   6.888   6.201  0.5116  0.4059  0.7428
  904MOL0     C19232   7.091   6.936   6.318  0.6109  0.1535 -0.4548
  904MOL0     C19233   7.126   6.868   6.448  0.2454  0.1830  1.1294
  904MOL0     C19234   7.077   6.718   6.449  0.0872 -0.3066  0.5483
  904MOL0     C19235   7.131   6.626   6.347 -0.5464  0.1424  0.1016
  904MOL0     C19236   7.101   6.481   6.388  0.1322 -0.4415  0.0094
  904MOL0     C19237   6.965   6.431   6.352  0.0754 -0.3136  0.5302
  904MOL0     C19238   6.955   6.284   6.383  0.5792  1.4767 -0.4572
  904MOL0     C19239   6.826   6.220   6.343 -0.0429 -0.2197  0.0134
  904MOL0    Cl19240   6.799   6.056   6.409  0.2933 -0.1870 -0.0123
  904MOL0     C19241   7.346   6.994   6.071 -0.2224 -0.6322  0.1183
  904MOL0     C19242   7.484   7.006   6.045  0.2687 -0.4299 -0.3772
  904MOL0     O19243   7.743   6.801   5.967  0.3136 -0.2310  0.1394
  904MOL0     C19244   7.914   7.123   5.964  1.0327  0.2717 -0.3449
  904MOL0     C19245   8.023   7.184   5.907 -0.0188 -0.2595  0.0435
  904MOL0     N19246   8.711   7.315   5.516  0.5095 -0.1969  0.0735
  904MOL0     N19247   8.832   7.282   5.503  1.3218 -0.4035  0.5200
  904MOL0     C19248   9.535   8.241   5.391 -0.4123  0.7360  0.1400
  904MOL0     C19249   9.594   8.365   5.371 -0.1417 -0.6426  0.7671
  904MOL0     C19250   9.785   8.725   5.377  0.1983 -0.1219  0.4007
  904MOL0     C19251   9.846   8.724   5.507  0.1060  0.0712 -0.3760
  904MOL0     C19252   9.975   8.780   5.528  0.0952  0.1545  0.1551
  904MOL0     C19253  10.026   8.870   5.429 -0.6045 -1.1100 -0.5059
  904MOL0     O19254  10.127   8.957   5.441 -0.2280  0.2150 -0.0627
  904MOL0     C19255  10.216   8.932   5.558  0.5154 -0.5098  0.0536
  904MOL0     C19256  10.326   9.036   5.551 -1.3769  0.1039  0.1457
  904MOL0     C19257  10.417   9.020   5.671 -0.1262  0.0816 -1.1689
  904MOL0     C19258  10.567   8.981   5.647 -0.1208 -0.2840 -0.2796
  904MOL0     C19259  10.571   8.845   5.600  0.0864 -0.3111 -0.2476
  904MOL0     C19260  10.602   8.726   5.574  0.3011 -0.2610 -0.1099
  904MOL0     C19261   9.965   8.867   5.303  0.0814  0.4470  0.1992
  904MOL0     C19262   9.850   8.798   5.279  0.2492 -0.0977 -0.1827
  904MOL0     H19263   9.407   8.548   5.595 -2.8905 -0.1150 -0.8795
  904MOL0     H19264   9.292   8.332   5.620  0.7184 -0.5147  0.7809
  904MOL0     H19265   9.477   7.968   5.420  0.1635 -0.3689  1.4606
  904MOL0     H19266   9.341   8.014   5.317 -1.4791  1.5101  0.6582
  904MOL0     H19267   9.272   7.814   5.401 -0.8371  1.2732 -0.7287
  904MOL0     H19268   9.202   7.919   5.523  0.9110  1.8729  0.4468
  904MOL0     H19269   9.411   7.886   5.657 -1.7343  2.9055 -2.5825
  904MOL0     H19270   9.465   7.755   5.549 -0.7113 -3.1555  2.4476
  904MOL0     H19271   9.336   7.697   5.756  5.6220  3.7013 -3.0042
  904MOL0     H19272   9.194   7.785   5.681 -0.1295  1.2957  0.4386
  904MOL0     H19273   9.353   7.546   5.585  0.3436  0.4427  0.4774
  904MOL0     H19274   9.223   7.619   5.487  0.4893  0.5091  0.0732
  904MOL0     H19275   9.057   7.536   5.682  0.5722 -0.2393  3.9590
  904MOL0     H19276   9.189   7.463   5.750 -3.1176 -0.1046  0.4193
  904MOL0     H19277   9.090   7.405   5.478 -0.6120  0.1651  0.8294
  904MOL0     H19278   9.232   7.322   5.551  0.6044  0.3961  0.4453
  904MOL0     H19279   9.047   7.252   5.744 -1.4641  0.9624 -0.2233
  904MOL0     H19280   9.050   7.166   5.593  1.7695  0.0615 -1.6298
  904MOL0     H19281   8.832   7.411   5.803 -0.0071 -0.7729  0.0648
  904MOL0     H19282   8.498   7.495   5.597 -1.6072 -2.7235 -1.2242
  904MOL0     H19283   8.570   7.515   5.756 -0.0256 -0.3623 -0.0251
  904MOL0     H19284   8.376   7.392   5.773 -0.6804 -2.2858  0.4398
  904MOL0     H19285   8.503   7.271   5.813  0.6589 -0.1390 -1.5126
  904MOL0     H19286   8.330   7.269   5.551 -0.6472 -2.8867 -2.4100
  904MOL0     H19287   8.489   7.192   5.583  0.7112  0.4396  0.8013
  904MOL0     H19288   8.365   7.044   5.743  1.3758  0.5447 -0.2375
  904MOL0     H19289   8.265   7.066   5.607 -3.2080  1.2852  0.9185
  904MOL0     H19290   8.193   6.914   5.794  0.4677  0.7033  1.4419
  904MOL0     H19291   7.986   6.799   5.896  1.0397 -0.0100  2.0233
  904MOL0     H19292   7.605   6.793   6.276 -0.9805 -2.1270 -1.4824
  904MOL0     H19293   7.363   6.773   6.325 -2.5079 -1.3293 -2.7037
  904MOL0     H19294   6.984   6.934   6.299  0.5572 -0.3534 -0.1207
  904MOL0     H19295   7.120   7.041   6.330  0.7006 -0.0373  1.2898
  904MOL0     H19296   7.079   6.917   6.534  0.7258  2.6874  0.0809
  904MOL0     H19297   7.235   6.870   6.458  0.1811  0.9981  1.8865
  904MOL0     H19298   6.969   6.720   6.431 -0.3684  0.6417  2.9972
  904MOL0     H19299   7.086   6.681   6.551 -0.4397 -2.0238 -0.0055
  904MOL0     H19300   7.104   6.647   6.243  0.7116  1.0983 -0.0605
  904MOL0     H19301   7.240   6.622   6.357 -0.4815  2.0032  0.3355
  904MOL0     H19302   7.120   6.463   6.494  1.6915 -0.4758 -0.2530
  904MOL0     H19303   7.172   6.418   6.333  1.6509 -0.8358  2.3150
  904MOL0     H19304   6.940   6.448   6.247  0.1057  4.0024  1.0237
  904MOL0     H19305   6.889   6.492   6.401 -1.5825  0.2525 -2.5059
  904MOL0     H19306   7.025   6.237   6.314  0.3387 -0.1610  0.3843
  904MOL0     H19307   6.990   6.277   6.487  0.3884  3.1034 -0.2434
  904MOL0     H19308   6.830   6.211   6.234  0.0863  1.0771 -0.1043
  904MOL0     H19309   6.744   6.280   6.383 -0.1890  0.2428 -0.9567
  904MOL0     H19310   7.270   7.050   6.017 -1.1205 -0.2519  1.7257
  904MOL0     H19311   7.529   7.074   5.974 -2.6334 -0.8075 -2.7646
  904MOL0     H19312   7.842   7.184   6.018  1.5143  0.8787 -0.3890
  904MOL0     H19313   8.057   7.286   5.924  0.2776 -0.5565  1.4111
  904MOL0     H19314   9.585   8.159   5.342  0.1137  1.4671 -0.5660
  904MOL0     H19315   9.657   8.369   5.282  0.1590 -4.3095  0.6570
  904MOL0     H19316   9.804   8.661   5.585 -1.2958  0.1572 -1.0279
  904MOL0     H19317  10.026   8.769   5.623 -1.1183 -0.3609  0.7778
  904MOL0     H19318  10.255   8.830   5.550  2.1914  0.2281 -1.8145
  904MOL0     H19319  10.162   8.950   5.651 -0.3353  1.1072 -0.7121
  904MOL0     H19320  10.376   9.033   5.453  2.0431  3.0347  1.5435
  904MOL0     H19321  10.284   9.137   5.561  1.0092  1.2336 -0.5494
  904MOL0     H19322  10.374   8.947   5.740  2.6827  1.1534  2.0380
  904MOL0     H19323  10.423   9.111   5.732  2.0533 -0.3509 -0.6556
  904MOL0     H19324  10.610   9.050   5.573  3.7422  0.0175  2.0127
  904MOL0     H19325  10.626   8.983   5.739  1.2333  1.7592 -1.1198
  904MOL0     H19326  10.602   8.624   5.540 -0.1196 -0.0876 -0.6454
  904MOL0     H19327  10.003   8.928   5.222  0.2678 -0.8274 -0.7023
  904MOL0     H19328   9.807   8.817   5.182 -2.1879  1.8738  1.1823
  905MOL0     O19329   6.961  11.098   9.963 -0.2472 -0.0962  0.3247
  905MOL0     C19330   7.037  11.147   9.873 -1.1175 -0.2493  1.4268
  905MOL0     O19331   6.996  11.254   9.796  0.0839 -0.7814 -0.3654
  905MOL0     C19332   6.887  11.331   9.814 -0.2294 -0.1362  0.2157
  905MOL0     C19333   6.831  11.368   9.934  0.3073  0.2394  0.5037
  905MOL0     C19334   6.718  11.457   9.934  0.1726 -0.3116  0.3177
  905MOL0     C19335   6.658  11.494   9.811 -0.6493  1.2802  0.6496
  905MOL0     O19336   6.548  11.569   9.791  0.1388  0.6551 -0.2281
  905MOL0     C19337   6.439  11.562   9.884 -0.2542 -0.1901  0.5651
  905MOL0     C19338   6.330  11.665   9.846  0.1638 -0.4402  0.1155
  905MOL0     C19339   6.235  11.615   9.741  0.4235  0.1149 -1.0252
  905MOL0     C19340   6.290  11.654   9.600 -0.3900  0.7690 -0.0787
  905MOL0     C19341   6.287  11.533   9.508  0.3309 -0.7881  0.1959
  905MOL0     C19342   6.365  11.406   9.532  0.5414 -0.3451  0.6313
  905MOL0     C19343   6.301  11.303   9.432 -0.4100 -0.9350  0.0759
  905MOL0     C19344   6.389  11.171   9.427  0.0467  0.1737 -0.3856
  905MOL0     N19345   6.318  11.069   9.357  0.4615  0.6718  1.1218
  905MOL0     C19346   6.254  11.090   9.236 -0.2188 -0.4139  0.1060
  905MOL0     C19347   6.182  10.972   9.222  0.2096 -0.9609  0.4763
  905MOL0     C19348   6.080  10.948   9.116 -0.0827 -0.5129  0.0100
  905MOL0     C19349   5.944  11.014   9.143  0.7135 -0.4313  0.2558
  905MOL0     C19350   5.828  10.936   9.064 -0.1241  0.4109 -0.0197
  905MOL0     C19351   5.692  11.002   9.093 -0.0144  0.4569  0.4659
  905MOL0     O19352   5.584  10.917   9.043  0.6136  0.9102  0.4278
  905MOL0     C19353   5.464  10.969   9.060  1.1944 -0.4552  0.4064
  905MOL0     C19354   5.405  11.001   9.186  0.2723  0.1374  0.6350
  905MOL0     C19355   5.267  11.031   9.194 -0.0780 -0.2456  0.1315
  905MOL0     C19356   5.192  11.051   9.078  0.4642  0.7932 -0.1758
  905MOL0     C19357   5.049  11.081   9.105  0.3303  0.3457 -0.1569
  905MOL0     O19358   4.975  11.057   8.996  0.2259 -0.0220  0.2759
  905MOL0     C19359   4.838  11.064   9.008  0.9023  0.2414 -0.4140
  905MOL0     C19360   4.768  10.956   9.081  0.3690 -0.0766  0.2958
  905MOL0     C19361   4.627  10.962   9.106 -0.6215 -0.5282  1.1933
  905MOL0     C19362   4.552  11.062   9.044  0.2083  0.2870 -0.0869
  905MOL0     O19363   4.415  11.059   9.027  0.7610  0.3389  0.1472
  905MOL0     C19364   4.345  10.965   9.111 -0.6930 -0.0864  0.0352
  905MOL0     C19365   4.207  10.972   9.048  0.4746  0.1793  0.4573
  905MOL0     C19366   4.195  10.915   8.902  0.1587  0.5738 -1.3022
  905MOL0     C19367   4.043  10.900   8.872 -0.3135 -0.5614  0.4625
  905MOL0     C19368   4.020  10.918   8.729  0.9510  0.1282  0.3014
  905MOL0     C19369   3.863  10.895   8.707 -0.0636 -0.3390  0.1598
  905MOL0     C19370   3.809  10.947   8.573  0.2968  0.1293  0.0507
  905MOL0     C19371   3.867  10.851   8.466 -0.2875 -0.5604  0.0554
  905MOL0    Cl19372   3.823  10.680   8.479  0.7055 -0.3502 -0.5779
  905MOL0     C19373   4.614  11.160   8.964 -0.7355  0.8087 -0.1730
  905MOL0     C19374   4.756  11.161   8.952 -0.8118 -0.9663 -0.5662
  905MOL0     O19375   5.003  11.118   9.212  0.1023 -1.0466  0.8190
  905MOL0     C19376   5.245  11.026   8.953  0.4368  0.2022 -0.4158
  905MOL0     C19377   5.382  10.984   8.942 -0.1678  0.9905 -0.0597
  905MOL0     N19378   6.216  10.878   9.324  1.4038  0.5737 -0.0914
  905MOL0     N19379   6.293  10.945   9.407  0.0437 -0.2584  0.4701
  905MOL0     C19380   6.720  11.459   9.689  0.4543  0.7918  0.0372
  905MOL0     C19381   6.838  11.385   9.695 -0.1458 -0.9132 -0.1146
  905MOL0     C19382   7.160  11.083   9.836 -0.5622  0.1390  0.0113
  905MOL0     C19383   7.215  10.980   9.916 -0.1294  1.2994 -0.0055
  905MOL0     C19384   7.337  10.926   9.881 -1.0517 -0.3759 -0.0706
  905MOL0     C19385   7.408  10.967   9.763 -0.8745 -0.3758 -0.3642
  905MOL0     O19386   7.538  10.928   9.724  0.5133 -0.7411 -0.4915
  905MOL0     C19387   7.617  10.837   9.796  0.4076  0.3820 -1.3031
  905MOL0     C19388   7.745  10.794   9.724  0.7184 -0.3623 -0.4202
  905MOL0     C19389   7.836  10.692   9.806 -0.2989  0.1206 -0.3751
  905MOL0     C19390   7.839  10.544   9.751  0.5468  0.3440  0.8002
  905MOL0     C19391   7.856  10.550   9.604 -0.0713 -0.4964 -0.2070
  905MOL0     C19392   7.877  10.539   9.487 -0.2566 -1.2940 -0.1081
  905MOL0     C19393   7.345  11.052   9.671  0.2915 -0.3375  0.0400
  905MOL0     C19394   7.222  11.113   9.714  0.1503 -0.5500 -0.2936
  905MOL0     H19395   6.872  11.338  10.030 -1.1543  0.0242  1.0982
  905MOL0     H19396   6.664  11.478  10.026 -1.5031 -3.3745  0.1900
  905MOL0     H19397   6.471  11.586   9.986  0.3309  0.3323  0.2683
  905MOL0     H19398   6.387  11.468   9.864 -1.2261  0.5939 -0.8405
  905MOL0     H19399   6.380  11.755   9.809 -0.4877 -0.5726 -1.1309
  905MOL0     H19400   6.270  11.689   9.934  2.7629 -0.2838  1.9717
  905MOL0     H19401   6.138  11.663   9.761 -1.8351 -4.6666  1.1800
  905MOL0     H19402   6.211  11.509   9.754 -1.6281  0.5650 -0.8086
  905MOL0     H19403   6.238  11.744   9.563 -0.4202  2.1349  3.0170
  905MOL0     H19404   6.396  11.679   9.608 -0.3151 -0.1657  2.6117
  905MOL0     H19405   6.337  11.573   9.420 -0.9360 -1.2435 -0.7694
  905MOL0     H19406   6.178  11.523   9.500  0.1507  1.0575 -0.1663
  905MOL0     H19407   6.345  11.369   9.633 -1.9506 -0.7128  0.0648
  905MOL0     H19408   6.473  11.423   9.522  0.4727  1.2736  2.2313
  905MOL0     H19409   6.194  11.288   9.449 -1.2161 -1.8539 -4.4862
  905MOL0     H19410   6.294  11.348   9.333 -0.8221 -1.1506  0.0038
  905MOL0     H19411   6.409  11.143   9.531  1.0347  4.5363  0.7751
  905MOL0     H19412   6.482  11.194   9.374 -0.4982  0.3741 -1.2778
  905MOL0     H19413   6.227  11.182   9.185 -4.2300  0.2988  3.0684
  905MOL0     H19414   6.061  10.841   9.104 -1.4376 -0.1486 -1.5211
  905MOL0     H19415   6.122  10.991   9.024 -0.5436  1.2587  0.5847
  905MOL0     H19416   5.939  11.119   9.111  0.2295 -0.1430  1.2351
  905MOL0     H19417   5.920  11.010   9.250 -0.3699 -2.7824 -0.0256
  905MOL0     H19418   5.863  10.926   8.961 -0.1036 -0.1808  0.0407
  905MOL0     H19419   5.828  10.835   9.108  4.1314  0.3750  0.2971
  905MOL0     H19420   5.694  11.099   9.042 -3.8159  0.1522 -0.6006
  905MOL0     H19421   5.670  11.020   9.198 -1.3886  0.6288  0.1650
  905MOL0     H19422   5.457  10.986   9.280  0.1045 -0.0147  0.7064
  905MOL0     H19423   5.232  11.048   9.295  1.2035  0.3025  0.4992
  905MOL0     H19424   4.836  10.891   9.137  0.6618  0.3322  0.4188
  905MOL0     H19425   4.582  10.888   9.172  1.7707 -3.5793 -0.3890
  905MOL0     H19426   4.345  10.995   9.216 -0.1629 -0.3922  0.1252
  905MOL0     H19427   4.390  10.865   9.104  2.9451  1.4759 -1.6079
  905MOL0     H19428   4.189  11.080   9.048  4.1544  1.0440 -2.6554
  905MOL0     H19429   4.129  10.922   9.105  1.8232 -1.4193  0.9753
  905MOL0     H19430   4.240  10.815   8.898 -3.0632 -1.2837  2.2671
  905MOL0     H19431   4.251  10.977   8.832  4.4916 -4.1836 -2.6871
  905MOL0     H19432   4.021  10.797   8.901  1.6603 -1.2281 -0.2288
  905MOL0     H19433   3.983  10.975   8.923 -0.1127 -0.8701  1.1542
  905MOL0     H19434   4.082  10.841   8.683 -2.2961 -3.2353  1.0864
  905MOL0     H19435   4.048  11.022   8.713 -0.7326  1.1677  3.3030
  905MOL0     H19436   3.812  10.952   8.785  0.6512 -1.3236  1.3812
  905MOL0     H19437   3.833  10.790   8.712  0.9044 -0.7658 -1.9209
  905MOL0     H19438   3.701  10.962   8.573  0.4243  1.3349 -2.1382
  905MOL0     H19439   3.854  11.045   8.560  0.6416  0.2209  1.7210
  905MOL0     H19440   3.976  10.862   8.467 -0.3221 -0.1509  0.9840
  905MOL0     H19441   3.834  10.880   8.366 -0.4885 -1.8216 -0.2641
  905MOL0     H19442   4.549  11.233   8.918 -0.4111  0.7502 -0.7346
  905MOL0     H19443   4.800  11.241   8.893 -2.0973  0.9417  0.9449
  905MOL0     H19444   5.189  11.035   8.861 -0.4607 -0.2430  0.0642
  905MOL0     H19445   5.438  10.975   8.850 -0.0291 -3.5655  0.2411
  905MOL0     H19446   6.671  11.461   9.593  0.8365  3.5245 -0.1893
  905MOL0     H19447   6.895  11.375   9.603 -0.6197  1.0590 -0.6825
  905MOL0     H19448   7.179  10.957  10.016  3.8353  1.2465  1.6051
  905MOL0     H19449   7.398  10.872   9.953  0.9044  2.7510  0.7832
  905MOL0     H19450   7.562  10.748   9.828 -0.6276  0.8838 -1.6360
  905MOL0     H19451   7.651  10.880   9.890  0.1571 -2.1161  0.0105
  905MOL0     H19452   7.703  10.768   9.626  2.0181  4.0160 -2.3963
  905MOL0     H19453   7.801  10.884   9.695 -1.3422  0.0829 -3.6197
  905MOL0     H19454   7.791  10.690   9.906 -0.4522  0.2520 -0.4416
  905MOL0     H19455   7.939  10.727   9.811  1.1046 -3.4099 -1.3869
  905MOL0     H19456   7.911  10.483   9.805  1.2944 -0.3810 -0.9348
  905MOL0     H19457   7.744  10.494   9.775 -0.1382  1.8505  1.3448
  905MOL0     H19458   7.913  10.525   9.387  2.5469 -0.2704  0.6446
  905MOL0     H19459   7.397  11.080   9.580  2.5051 -2.2364  0.6333
  905MOL0     H19460   7.183  11.193   9.652  0.2620  0.3544  0.7839
  906MOL0     O19461   5.295   8.469   0.221  0.0903  0.2824 -0.0870
  906MOL0     C19462   5.270   8.567   0.294  0.0638  0.3477  0.1037
  906MOL0     O19463   5.180   8.580   0.394 -0.8195  0.5204 -0.0807
  906MOL0     C19464   5.111   8.466   0.436  0.1769 -0.2041 -0.0048
  906MOL0     C19465   4.974   8.490   0.468 -0.9585 -0.5829 -0.6317
  906MOL0     C19466   4.896   8.384   0.501  0.2053 -0.4341  0.7633
  906MOL0     C19467   4.937   8.256   0.506 -0.0718  0.5811  0.7455
  906MOL0     O19468   4.840   8.169   0.534  0.6274 -0.3935  0.4164
  906MOL0     C19469   4.864   8.024   0.511 -0.2505 -0.4293  0.0200
  906MOL0     C19470   4.755   7.948   0.589 -0.1460 -0.4844  1.0512
  906MOL0     C19471   4.619   7.957   0.513  0.1485  0.2596 -0.4284
  906MOL0     C19472   4.520   7.871   0.592  1.1789 -0.3334  0.2857
  906MOL0     C19473   4.400   7.847   0.499 -0.0594 -0.1066 -0.1036
  906MOL0     C19474   4.282   7.754   0.559  0.8759 -0.3438  0.2057
  906MOL0     C19475   4.193   7.717   0.444 -0.5116 -0.1610 -0.7242
  906MOL0     C19476   4.083   7.626   0.499  0.4501 -0.6080 -0.1182
  906MOL0     N19477   4.042   7.545   0.391  0.1405 -0.1050 -1.2488
  906MOL0     C19478   3.938   7.580   0.300 -0.0875  1.0417 -0.4797
  906MOL0     C19479   3.936   7.474   0.213 -0.0341 -0.6416 -0.7711
  906MOL0     C19480   3.835   7.435   0.113  0.1847  0.0760  0.2740
  906MOL0     C19481   3.696   7.462   0.177 -0.4404  0.4340 -0.2502
  906MOL0     C19482   3.593   7.397   0.090  0.8613 -0.7296  1.5105
  906MOL0     C19483   3.545   7.487  -0.030  0.0396  1.2965  0.4670
  906MOL0     O19484   3.487   7.422  -0.144  0.4592 -0.5319  0.9363
  906MOL0     C19485   3.351   7.403  -0.150 -0.4231  0.2883 -0.1443
  906MOL0     C19486   3.305   7.291  -0.225 -0.2950  0.3307  0.2951
  906MOL0     C19487   3.170   7.257  -0.224  0.5143  0.8809 -0.8325
  906MOL0     C19488   3.075   7.328  -0.141  0.3892  0.0560  0.1833
  906MOL0     C19489   2.930   7.285  -0.119 -0.1080 -0.2251  0.4793
  906MOL0     O19490   2.892   7.155  -0.154 -0.0500 -0.0559 -0.1217
  906MOL0     C19491   2.767   7.103  -0.126 -0.1209 -0.0094  0.2826
  906MOL0     C19492   2.656   7.135  -0.202 -0.0596  1.1191 -0.3928
  906MOL0     C19493   2.536   7.066  -0.185  1.0307 -0.0262 -0.1999
  906MOL0     C19494   2.517   6.979  -0.076 -1.2820 -0.1185 -0.1720
  906MOL0     O19495   2.406   6.910  -0.039 -0.2870 -0.2114  0.3341
  906MOL0     C19496   2.279   6.966  -0.092 -1.0666  0.5844 -0.6258
  906MOL0     C19497   2.165   6.899  -0.017  0.8525 -0.1406 -0.7257
  906MOL0     C19498   2.126   6.967   0.113  0.5060  0.8942 -0.1598
  906MOL0     C19499   2.236   6.927   0.224  0.3655 -0.2866 -0.0463
  906MOL0     C19500   2.288   7.053   0.300  1.1705  0.8614 -0.7199
  906MOL0     C19501   2.406   7.044   0.394 -0.4564 -0.0278  0.0288
  906MOL0     C19502   2.471   7.176   0.419  0.8084  0.2136 -0.1956
  906MOL0     C19503   2.606   7.171   0.486  0.1741  0.3401 -0.3431
  906MOL0    Cl19504   2.711   7.039   0.428  0.0375  0.0528  0.4487
  906MOL0     C19505   2.626   6.944  -0.000 -1.0685  0.1449 -0.0641
  906MOL0     C19506   2.750   7.000  -0.029 -0.0401  0.6388 -0.4894
  906MOL0     O19507   2.854   7.361  -0.062 -0.2616  0.0909 -0.2028
  906MOL0     C19508   3.121   7.451  -0.087 -0.2456 -0.4068 -0.2445
  906MOL0     C19509   3.257   7.487  -0.094  0.7690 -0.4151  0.3673
  906MOL0     N19510   4.026   7.383   0.261  0.4011  0.0864 -0.2472
  906MOL0     N19511   4.096   7.431   0.363 -0.8083  0.3882  0.0051
  906MOL0     C19512   5.073   8.229   0.468 -0.4058 -0.0649  1.3194
  906MOL0     C19513   5.155   8.334   0.446  0.0441 -1.1784 -0.4115
  906MOL0     C19514   5.351   8.683   0.263 -1.2874 -0.8032 -0.3191
  906MOL0     C19515   5.477   8.668   0.204  0.2090 -0.1717 -0.1880
  906MOL0     C19516   5.559   8.783   0.198  0.6853  1.1976  0.6296
  906MOL0     C19517   5.519   8.910   0.237 -1.0948 -0.5106 -0.4871
  906MOL0     O19518   5.609   9.010   0.233 -0.4641  0.1201 -0.2175
  906MOL0     C19519   5.594   9.127   0.316  0.0374  0.0786  0.0941
  906MOL0     C19520   5.703   9.227   0.279 -0.1448 -0.0456 -0.3999
  906MOL0     C19521   5.846   9.170   0.231  0.5317 -0.4270  0.0093
  906MOL0     C19522   5.965   9.254   0.267  1.2630 -0.1422 -0.3594
  906MOL0     C19523   5.991   9.275   0.409  0.3398  0.0640 -0.2612
  906MOL0     C19524   6.037   9.275   0.518  0.3746 -0.3756  0.3003
  906MOL0     C19525   5.389   8.926   0.290  0.6017  0.3334  0.7633
  906MOL0     C19526   5.316   8.810   0.313  0.5998  0.0556 -0.4954
  906MOL0     H19527   4.930   8.589   0.463  0.2021 -0.0108 -0.0478
  906MOL0     H19528   4.793   8.407   0.525 -0.0496  1.0094 -1.4205
  906MOL0     H19529   4.959   7.995   0.557 -0.6485 -0.5018  0.8150
  906MOL0     H19530   4.858   8.010   0.403 -0.1013  0.1359 -0.0643
  906MOL0     H19531   4.746   7.991   0.689 -0.6219  2.2025 -0.0331
  906MOL0     H19532   4.788   7.844   0.589  2.0685  0.1637  0.1532
  906MOL0     H19533   4.646   7.920   0.414 -2.6016 -0.3635 -1.0273
  906MOL0     H19534   4.591   8.062   0.502 -1.0316 -0.0454 -0.4996
  906MOL0     H19535   4.556   7.769   0.611  0.1733 -0.5158  1.3132
  906MOL0     H19536   4.493   7.919   0.686 -1.0112 -0.0363 -0.4409
  906MOL0     H19537   4.445   7.786   0.421  0.2333  1.7774 -1.4683
  906MOL0     H19538   4.351   7.937   0.461  1.2189  0.6297 -0.0590
  906MOL0     H19539   4.219   7.809   0.628 -1.4450  0.4129 -2.3539
  906MOL0     H19540   4.329   7.669   0.609  4.7800  0.7639 -1.2011
  906MOL0     H19541   4.144   7.793   0.383  1.3760  1.4948 -0.2500
  906MOL0     H19542   4.258   7.664   0.375 -1.1478  2.2694 -3.3682
  906MOL0     H19543   3.993   7.673   0.541  0.5775 -0.7369  0.3109
  906MOL0     H19544   4.123   7.570   0.584 -0.9954  1.0900  1.7806
  906MOL0     H19545   3.868   7.663   0.298 -0.3586  0.8203 -0.2562
  906MOL0     H19546   3.845   7.336   0.068 -1.3718  0.3399 -0.7441
  906MOL0     H19547   3.838   7.504   0.028 -3.8759  1.4826  1.0294
  906MOL0     H19548   3.678   7.569   0.187 -0.4153  0.4246 -0.0974
  906MOL0     H19549   3.693   7.406   0.271  1.1962 -2.9316 -2.0144
  906MOL0     H19550   3.626   7.302   0.046 -2.1958 -1.4989  0.6130
  906MOL0     H19551   3.501   7.373   0.143 -0.2666  2.2324  1.1062
  906MOL0     H19552   3.632   7.534  -0.077  0.4312  0.6379  0.5082
  906MOL0     H19553   3.489   7.566   0.020 -2.3425 -0.4480  0.7102
  906MOL0     H19554   3.380   7.223  -0.266  0.1976  0.2593  1.2699
  906MOL0     H19555   3.137   7.158  -0.254  0.8184  0.0464  1.3950
  906MOL0     H19556   2.668   7.212  -0.278 -1.2740 -0.3446 -2.1733
  906MOL0     H19557   2.448   7.086  -0.245  0.6327 -0.8529  0.1074
  906MOL0     H19558   2.283   6.936  -0.197  4.1946  0.9289 -0.7804
  906MOL0     H19559   2.274   7.075  -0.093 -0.4393  0.6491  0.6631
  906MOL0     H19560   2.183   6.791  -0.013  0.8577 -0.1223 -0.1924
  906MOL0     H19561   2.082   6.906  -0.088 -0.2847  2.7643  0.7209
  906MOL0     H19562   2.025   6.940   0.146  0.1687 -0.5792 -2.1799
  906MOL0     H19563   2.134   7.076   0.106  1.7998  1.0119  2.1510
  906MOL0     H19564   2.189   6.853   0.291 -2.5076 -1.7422 -3.3701
  906MOL0     H19565   2.326   6.887   0.176  0.2856  0.5911 -0.9495
  906MOL0     H19566   2.195   7.083   0.349 -0.9237 -3.2119 -1.7683
  906MOL0     H19567   2.301   7.136   0.230 -0.3742  1.2497 -0.5742
  906MOL0     H19568   2.471   6.959   0.372  1.8583  2.1821 -2.4641
  906MOL0     H19569   2.374   7.029   0.498  0.6475  4.1028  1.1495
  906MOL0     H19570   2.497   7.217   0.321 -1.3107  0.6395 -0.6205
  906MOL0     H19571   2.398   7.237   0.473  1.6228  0.3749  0.7427
  906MOL0     H19572   2.594   7.167   0.595  0.6131 -0.5212 -0.3219
  906MOL0     H19573   2.653   7.270   0.481 -1.7227  1.3698  1.0721
  906MOL0     H19574   2.621   6.882   0.089  1.1365 -1.6977 -1.1148
  906MOL0     H19575   2.833   6.973   0.036  2.2957 -1.1661 -3.9444
  906MOL0     H19576   3.056   7.518  -0.032 -0.2980 -0.4355 -0.2721
  906MOL0     H19577   3.292   7.578  -0.047  1.3097 -0.5969  0.3147
  906MOL0     H19578   5.117   8.130   0.476 -3.0157 -1.2637  2.0014
  906MOL0     H19579   5.262   8.322   0.431  0.1484  1.5247 -2.5090
  906MOL0     H19580   5.515   8.574   0.166  1.5563  0.4518 -0.4431
  906MOL0     H19581   5.657   8.771   0.154  0.3978  1.1858 -0.0245
  906MOL0     H19582   5.594   9.107   0.423  0.2892 -1.0755 -0.0998
  906MOL0     H19583   5.498   9.172   0.292 -0.9853 -1.5706  0.9051
  906MOL0     H19584   5.655   9.299   0.212 -0.0654  0.1161 -0.2855
  906MOL0     H19585   5.730   9.293   0.362  1.1123 -1.1771  0.1257
  906MOL0     H19586   5.839   9.161   0.122 -3.0562  0.1981  0.0445
  906MOL0     H19587   5.858   9.076   0.286 -1.8643 -0.1783  1.1252
  906MOL0     H19588   6.055   9.214   0.219  0.3672 -0.8178 -1.5036
  906MOL0     H19589   5.953   9.355   0.227 -0.6611  0.1584  0.8309
  906MOL0     H19590   6.097   9.272   0.607 -1.6461 -0.7384  1.7200
  906MOL0     H19591   5.350   9.022   0.321  0.1645 -0.2519  2.0933
  906MOL0     H19592   5.227   8.829   0.372 -0.2423 -1.5290 -1.2129
  907MOL0     O19593   8.309   4.459   1.416  0.0578 -0.0324  0.6846
  907MOL0     C19594   8.376   4.482   1.515 -0.1316  0.2538 -0.7618
  907MOL0     O19595   8.327   4.513   1.635 -0.6593  0.1328 -0.4828
  907MOL0     C19596   8.203   4.464   1.669  0.0285  0.3279  0.6619
  907MOL0     C19597   8.093   4.530   1.621  0.2347 -0.2268  0.0416
  907MOL0     C19598   7.965   4.475   1.642  0.2251  0.0451 -0.0573
  907MOL0     C19599   7.940   4.362   1.728  0.6596 -0.8437  0.2999
  907MOL0     O19600   7.811   4.313   1.750  0.2026 -0.2203  0.0934
  907MOL0     C19601   7.795   4.169   1.762  0.1288  0.1440 -0.7418
  907MOL0     C19602   7.645   4.135   1.745 -0.9612  0.7021 -0.0919
  907MOL0     C19603   7.571   4.177   1.876 -0.2305 -0.1265 -0.5458
  907MOL0     C19604   7.430   4.119   1.892 -0.0377  0.2096 -0.2751
  907MOL0     C19605   7.343   4.168   1.776 -0.0795  0.0100  0.2889
  907MOL0     C19606   7.211   4.100   1.773  0.4664 -0.0045 -0.6266
  907MOL0     C19607   7.124   4.162   1.662  1.4698 -0.7124 -0.0814
  907MOL0     C19608   7.192   4.210   1.529  0.0630 -0.7498 -1.0186
  907MOL0     N19609   7.094   4.257   1.432 -0.1780 -0.6911 -0.2078
  907MOL0     C19610   7.037   4.181   1.332 -0.0425 -0.0356  0.5125
  907MOL0     C19611   6.941   4.268   1.284  0.9148  0.3097  0.1573
  907MOL0     C19612   6.857   4.234   1.161  0.1003  1.0528  1.1615
  907MOL0     C19613   6.746   4.118   1.204  0.0392 -0.3981  0.0608
  907MOL0     C19614   6.633   4.118   1.107 -0.1155 -0.9809  0.2726
  907MOL0     C19615   6.518   4.031   1.146  0.0477  0.3073 -0.3507
  907MOL0     O19616   6.429   4.056   1.042  0.4982 -0.0757 -0.4041
  907MOL0     C19617   6.306   3.995   1.042 -0.0322 -0.2120 -0.5367
  907MOL0     C19618   6.217   4.023   0.938  0.1082 -0.2963 -0.4224
  907MOL0     C19619   6.090   3.968   0.940  0.0707 -0.0117 -0.0072
  907MOL0     C19620   6.030   3.903   1.052 -0.2680  0.0489  0.0563
  907MOL0     C19621   5.899   3.836   1.035  0.0039 -1.4892  1.0523
  907MOL0     O19622   5.828   3.845   0.914 -0.6345 -0.0193  0.3020
  907MOL0     C19623   5.697   3.798   0.916 -0.3840 -1.1470 -0.1653
  907MOL0     C19624   5.676   3.685   0.841 -0.1385  0.0747  0.0623
  907MOL0     C19625   5.550   3.643   0.804 -0.2093  0.8924  0.6276
  907MOL0     C19626   5.437   3.709   0.844 -0.6786  0.2593 -0.3174
  907MOL0     O19627   5.316   3.654   0.816 -0.1106 -0.5119 -0.4926
  907MOL0     C19628   5.193   3.704   0.876  0.5059  0.9223  0.7545
  907MOL0     C19629   5.079   3.596   0.840  0.2786  0.7122 -0.1260
  907MOL0     C19630   4.936   3.653   0.820  0.0447  0.5672 -0.0828
  907MOL0     C19631   4.862   3.676   0.945  0.3410 -0.0152  1.0827
  907MOL0     C19632   4.730   3.756   0.922  0.1250  0.1985  0.1572
  907MOL0     C19633   4.645   3.777   1.046  0.5150 -0.3418 -0.5326
  907MOL0     C19634   4.613   3.651   1.134 -0.6124 -0.2411  0.4087
  907MOL0     C19635   4.501   3.561   1.073  0.0329 -1.1200  0.3332
  907MOL0    Cl19636   4.484   3.416   1.161  0.7982 -0.0697  0.0253
  907MOL0     C19637   5.458   3.834   0.910  0.2705 -0.7188  0.2950
  907MOL0     C19638   5.585   3.881   0.938  0.3741 -1.0948 -0.1924
  907MOL0     O19639   5.868   3.773   1.136  0.4499 -0.0633  0.1140
  907MOL0     C19640   6.114   3.885   1.165  1.0291 -0.1010  0.1526
  907MOL0     C19641   6.250   3.924   1.154 -0.8852 -0.7849 -0.1671
  907MOL0     N19642   6.944   4.386   1.355  0.3792  0.1501 -0.3312
  907MOL0     N19643   7.033   4.383   1.445 -0.6600  0.1621  0.4249
  907MOL0     C19644   8.050   4.306   1.779  0.1363  0.6137 -0.4855
  907MOL0     C19645   8.182   4.350   1.749 -0.4066 -0.6051 -0.5881
  907MOL0     C19646   8.517   4.490   1.503 -0.0451 -0.2004  0.3917
  907MOL0     C19647   8.601   4.499   1.611 -0.3055 -0.1722 -0.7083
  907MOL0     C19648   8.743   4.512   1.586 -0.6503  0.0994  1.2677
  907MOL0     C19649   8.798   4.504   1.460  1.4049 -0.3505  0.1151
  907MOL0     O19650   8.931   4.537   1.422 -0.5728 -0.9735  0.3381
  907MOL0     C19651   9.031   4.568   1.530  0.1930  0.3335  0.3693
  907MOL0     C19652   9.163   4.556   1.474 -1.0391  0.6918  0.4697
  907MOL0     C19653   9.265   4.642   1.553 -0.5361 -0.3595  0.3568
  907MOL0     C19654   9.409   4.618   1.489 -0.1900 -1.5214  0.4255
  907MOL0     C19655   9.491   4.734   1.532  0.0944 -0.2036 -0.3952
  907MOL0     C19656   9.572   4.823   1.565 -0.6799 -0.0774 -0.6236
  907MOL0     C19657   8.715   4.488   1.360 -0.1863  0.3302 -0.0950
  907MOL0     C19658   8.571   4.485   1.372  0.9513  0.1304  0.5638
  907MOL0     H19659   8.115   4.614   1.555  0.5593  1.1814  1.8520
  907MOL0     H19660   7.887   4.524   1.585 -0.3135  0.6995  1.2158
  907MOL0     H19661   7.820   4.143   1.865 -1.2959 -1.9145 -0.8645
  907MOL0     H19662   7.863   4.126   1.687 -2.1133 -0.7497 -2.3706
  907MOL0     H19663   7.629   4.030   1.719  0.2143  1.1172 -2.7867
  907MOL0     H19664   7.606   4.188   1.658 -1.5009  1.0228  0.3394
  907MOL0     H19665   7.574   4.286   1.884 -1.7575 -0.1021 -0.0354
  907MOL0     H19666   7.627   4.138   1.962  0.6083 -0.6493 -1.3021
  907MOL0     H19667   7.432   4.010   1.890  1.4987  0.2199 -0.7112
  907MOL0     H19668   7.389   4.152   1.988  2.4900  0.5529  0.7646
  907MOL0     H19669   7.394   4.159   1.680  0.4678  1.6920  0.3918
  907MOL0     H19670   7.319   4.274   1.781 -3.0694 -0.6195  1.8294
  907MOL0     H19671   7.169   4.129   1.870 -1.0650  2.2862 -1.8660
  907MOL0     H19672   7.224   3.993   1.753 -1.5300 -0.2728 -0.6810
  907MOL0     H19673   7.055   4.079   1.644 -0.8018  1.1369 -0.4354
  907MOL0     H19674   7.068   4.240   1.714  0.5968 -1.0956 -0.4199
  907MOL0     H19675   7.249   4.135   1.474  0.8285  1.7029 -3.8314
  907MOL0     H19676   7.258   4.295   1.547 -0.0107 -0.0570 -3.6782
  907MOL0     H19677   7.062   4.083   1.293 -0.3333 -0.2688  0.9024
  907MOL0     H19678   6.921   4.201   1.079 -0.6267 -3.8269  2.2397
  907MOL0     H19679   6.808   4.330   1.142 -3.1706 -0.2009  2.3862
  907MOL0     H19680   6.709   4.140   1.305 -1.2978 -0.6042 -0.3585
  907MOL0     H19681   6.793   4.019   1.201 -1.3581 -1.1105  0.5872
  907MOL0     H19682   6.597   4.219   1.087 -1.1644 -1.4028 -0.0092
  907MOL0     H19683   6.665   4.072   1.013  2.3269 -2.8524  1.8807
  907MOL0     H19684   6.480   4.070   1.241 -1.5984  1.5463 -1.4653
  907MOL0     H19685   6.546   3.925   1.150 -1.6213 -0.1823 -0.9807
  907MOL0     H19686   6.240   4.078   0.848 -0.6756 -0.2484 -0.6036
  907MOL0     H19687   6.041   3.972   0.844 -0.1394  0.9951  0.1313
  907MOL0     H19688   5.762   3.624   0.813  1.8598  0.8259  3.8817
  907MOL0     H19689   5.545   3.550   0.747 -3.3167  1.0948  0.3992
  907MOL0     H19690   5.176   3.804   0.835  0.2322  0.5094 -0.1790
  907MOL0     H19691   5.205   3.714   0.984 -0.4104 -0.0723  0.9720
  907MOL0     H19692   5.075   3.521   0.919  3.2380 -2.2867 -2.5186
  907MOL0     H19693   5.094   3.541   0.747  1.7122 -1.2392  1.1853
  907MOL0     H19694   4.878   3.578   0.767  0.6198  0.1212 -0.0929
  907MOL0     H19695   4.939   3.745   0.761  1.9559  0.1734 -0.6946
  907MOL0     H19696   4.835   3.581   0.991  0.4829 -0.6111 -0.0293
  907MOL0     H19697   4.927   3.735   1.010 -1.1627  2.7654  0.2049
  907MOL0     H19698   4.677   3.697   0.846  1.3957  0.9253 -1.3483
  907MOL0     H19699   4.760   3.852   0.877 -0.7464  1.0861  1.4020
  907MOL0     H19700   4.552   3.829   1.023  0.8439  0.6603  0.3503
  907MOL0     H19701   4.696   3.851   1.108  0.8929 -1.5305  0.6351
  907MOL0     H19702   4.697   3.587   1.162 -0.2363  0.3405  0.6179
  907MOL0     H19703   4.579   3.692   1.229 -1.3569  1.4585 -0.5436
  907MOL0     H19704   4.544   3.546   0.973 -1.9298 -2.6237 -0.3445
  907MOL0     H19705   4.404   3.612   1.066  1.2501  1.1420 -1.9945
  907MOL0     H19706   5.375   3.896   0.942  0.6799 -1.0263  2.1056
  907MOL0     H19707   5.590   3.977   0.989 -0.6475 -1.9900  1.6873
  907MOL0     H19708   6.079   3.834   1.254  0.8345  0.5971  0.4771
  907MOL0     H19709   6.307   3.901   1.244 -1.0820 -2.3426 -0.4060
  907MOL0     H19710   8.034   4.218   1.840 -2.6697  1.1083 -0.3346
  907MOL0     H19711   8.274   4.311   1.793  1.7095  1.2360 -3.0722
  907MOL0     H19712   8.561   4.501   1.712 -1.5261 -1.6597 -1.1242
  907MOL0     H19713   8.808   4.520   1.672  0.9070  0.7194  0.0627
  907MOL0     H19714   9.016   4.498   1.612 -0.6558 -1.7360 -1.4662
  907MOL0     H19715   9.019   4.665   1.579  1.1586  0.1569  0.9808
  907MOL0     H19716   9.192   4.451   1.463  0.6058  1.2580 -0.9727
  907MOL0     H19717   9.162   4.595   1.372  0.3807  0.5999  0.4032
  907MOL0     H19718   9.266   4.615   1.658 -3.7413  0.3434  0.6784
  907MOL0     H19719   9.237   4.747   1.539  1.8339  0.2521 -0.2905
  907MOL0     H19720   9.446   4.531   1.543 -0.3034 -2.6136 -1.1873
  907MOL0     H19721   9.398   4.614   1.380 -1.4625 -1.8289  0.5479
  907MOL0     H19722   9.646   4.890   1.602 -0.8744 -0.6694  0.9002
  907MOL0     H19723   8.766   4.466   1.267 -0.7638 -3.2393  0.3081
  907MOL0     H19724   8.503   4.472   1.289 -0.9135 -1.5556  2.2512
  908MOL0     O19725   5.553   2.446  10.328 -0.0488  0.4925 -0.6890
  908MOL0     C19726   5.644   2.375  10.366  0.2428 -0.3549  0.1188
  908MOL0     O19727   5.630   2.277  10.463 -0.2598 -0.7642  0.7307
  908MOL0     C19728   5.513   2.270  10.532  0.3100 -0.0702  0.0113
  908MOL0     C19729   5.515   2.288  10.674  1.0094  0.5773 -1.1603
  908MOL0     C19730   5.402   2.261  10.750  0.1971 -0.4698 -0.5796
  908MOL0     C19731   5.280   2.236  10.684  0.0885  0.2873 -0.8460
  908MOL0     O19732   5.156   2.228  10.748 -0.4426  0.5521 -1.3156
  908MOL0     C19733   5.158   2.290  10.880 -0.3554  0.4359 -0.8143
  908MOL0     C19734   5.029   2.262  10.950  0.2931  1.3751 -0.0066
  908MOL0     C19735   4.976   2.375  11.032  0.7593 -0.2914  0.6660
  908MOL0     C19736   4.855   2.347  11.115  0.0370 -0.0459 -1.2140
  908MOL0     C19737   4.729   2.397  11.045 -0.4884  0.5058  0.3849
  908MOL0     C19738   4.666   2.313  10.931  0.2914  0.3523 -0.6225
  908MOL0     C19739   4.521   2.370  10.910  0.9682 -0.0921 -0.4982
  908MOL0     C19740   4.475   2.344  10.767  0.5182  0.3325 -0.6892
  908MOL0     N19741   4.519   2.454  10.674 -0.4196 -0.3300  0.2817
  908MOL0     C19742   4.442   2.562  10.636 -0.1103  0.7382  0.2262
  908MOL0     C19743   4.492   2.601  10.520  0.9690 -0.7788 -0.9000
  908MOL0     C19744   4.449   2.723  10.439 -0.2530 -0.9569  0.0407
  908MOL0     C19745   4.307   2.718  10.387  0.8043 -0.2992 -0.3585
  908MOL0     C19746   4.284   2.823  10.276  0.6899 -0.4588 -0.4891
  908MOL0     C19747   4.262   2.972  10.330 -0.5967 -0.9687  0.4989
  908MOL0     O19748   4.249   3.066  10.221  0.2107  0.0115  0.0420
  908MOL0     C19749   4.129   3.082  10.152  0.1394  0.6783 -0.1836
  908MOL0     C19750   4.139   3.155  10.037 -0.6042  0.4723 -0.2976
  908MOL0     C19751   4.017   3.189   9.974  0.4379  0.3688 -0.0150
  908MOL0     C19752   3.891   3.155  10.024  0.2035 -0.5080 -0.3611
  908MOL0     C19753   3.766   3.189   9.944 -0.5083 -0.2958 -0.8922
  908MOL0     O19754   3.646   3.169  10.002  0.3037 -0.6071  0.3568
  908MOL0     C19755   3.530   3.251  10.002 -0.4589  0.4099  0.7216
  908MOL0     C19756   3.534   3.383   9.975 -0.9942  0.2174  0.3974
  908MOL0     C19757   3.415   3.459   9.986 -0.4202  1.0578  0.3592
  908MOL0     C19758   3.288   3.403  10.003 -0.3704 -0.3552 -0.1928
  908MOL0     O19759   3.169   3.479  10.006 -0.6895 -0.6306 -0.0926
  908MOL0     C19760   3.111   3.512   9.875 -0.6798  0.0804  0.2632
  908MOL0     C19761   2.963   3.475   9.875  0.2144 -0.6260  0.1588
  908MOL0     C19762   2.877   3.585   9.941  0.0960  0.0142  0.0388
  908MOL0     C19763   2.729   3.551   9.901  0.6098 -0.3139  0.6558
  908MOL0     C19764   2.649   3.681   9.925  0.1671  0.1413 -0.3013
  908MOL0     C19765   2.500   3.665   9.893  0.6996  0.0660 -0.0786
  908MOL0     C19766   2.433   3.570  10.001  0.2537  0.2851  0.6532
  908MOL0     C19767   2.281   3.586  10.023 -0.3081  0.4618  0.2174
  908MOL0    Cl19768   2.258   3.738  10.111 -0.3577  0.2984  0.1128
  908MOL0     C19769   3.284   3.267  10.031  0.6600  0.1627 -0.3027
  908MOL0     C19770   3.404   3.195  10.022 -0.0540  0.0771 -0.3943
  908MOL0     O19771   3.782   3.244   9.834 -0.0100 -0.0710 -0.5419
  908MOL0     C19772   3.890   3.088  10.144  0.6685  0.6331  0.3963
  908MOL0     C19773   4.010   3.048  10.210  0.7353 -0.3487  0.1572
  908MOL0     N19774   4.591   2.515  10.480 -1.3235  0.0443 -0.1637
  908MOL0     N19775   4.608   2.433  10.575  0.5743  0.2768 -0.0837
  908MOL0     C19776   5.275   2.229  10.544  0.4449 -0.4864  0.2753
  908MOL0     C19777   5.393   2.239  10.471  0.0352 -0.5455 -0.3056
  908MOL0     C19778   5.786   2.402  10.330  0.0940 -0.0455  0.6324
  908MOL0     C19779   5.895   2.343  10.401 -0.1090 -0.0474  1.0464
  908MOL0     C19780   6.027   2.381  10.374 -0.3614  0.3032 -0.6332
  908MOL0     C19781   6.053   2.456  10.261 -0.1575 -0.5466 -0.6082
  908MOL0     O19782   6.183   2.503  10.232 -0.2688  0.0771  0.1056
  908MOL0     C19783   6.300   2.462  10.308 -0.6805  0.2452 -0.5711
  908MOL0     C19784   6.422   2.523  10.243  0.4254  0.3932  0.7861
  908MOL0     C19785   6.538   2.494  10.319  0.0576 -0.0449 -0.4491
  908MOL0     C19786   6.650   2.553  10.235 -0.3745  0.0076  0.3022
  908MOL0     C19787   6.780   2.549  10.303 -1.0077  0.2589  0.9508
  908MOL0     C19788   6.898   2.537  10.341  0.4333  1.0314 -0.6136
  908MOL0     C19789   5.958   2.513  10.189  0.1559  0.5944  1.1909
  908MOL0     C19790   5.824   2.494  10.223 -0.4869 -0.7802 -0.4477
  908MOL0     H19791   5.611   2.285  10.724 -0.2246 -2.0127  1.3519
  908MOL0     H19792   5.413   2.268  10.858  2.3262 -3.9454 -0.4093
  908MOL0     H19793   5.183   2.396  10.868 -1.2544  0.3920 -3.9637
  908MOL0     H19794   5.228   2.231  10.940 -0.9731 -0.4225 -0.9204
  908MOL0     H19795   5.033   2.168  11.006 -1.9469  2.0163  1.3705
  908MOL0     H19796   4.954   2.240  10.873 -0.0157 -2.4234  1.1533
  908MOL0     H19797   4.960   2.456  10.959  0.0537 -2.0128 -1.1936
  908MOL0     H19798   5.058   2.402  11.099  2.0002 -2.3445  0.0719
  908MOL0     H19799   4.856   2.240  11.138  3.4495 -0.3178 -2.1196
  908MOL0     H19800   4.869   2.392  11.213 -0.5962 -1.3690 -0.4877
  908MOL0     H19801   4.740   2.500  11.010 -4.3176  1.1528  0.6074
  908MOL0     H19802   4.649   2.402  11.120 -1.9211  0.9074 -1.1171
  908MOL0     H19803   4.655   2.210  10.964 -2.6947  0.1914 -1.8301
  908MOL0     H19804   4.724   2.323  10.839 -0.2079  0.4436 -0.9333
  908MOL0     H19805   4.448   2.328  10.980  0.8749  2.2551  0.9405
  908MOL0     H19806   4.513   2.478  10.928 -0.5789 -0.3467  0.5867
  908MOL0     H19807   4.366   2.346  10.775  0.5882  0.8730  0.2940
  908MOL0     H19808   4.494   2.244  10.727 -0.8239 -0.2766  0.1384
  908MOL0     H19809   4.357   2.605  10.688 -0.5464 -1.1997  1.2386
  908MOL0     H19810   4.523   2.734  10.359 -0.8809 -0.1637 -0.4472
  908MOL0     H19811   4.462   2.817  10.495  2.2084 -1.5209  0.5692
  908MOL0     H19812   4.240   2.744  10.470  0.5359  0.1391 -0.7087
  908MOL0     H19813   4.294   2.617  10.347  0.7004 -0.3698 -0.1503
  908MOL0     H19814   4.362   2.829  10.199  0.6734 -0.2297 -0.4889
  908MOL0     H19815   4.193   2.799  10.220  0.0611  3.2444 -1.3167
  908MOL0     H19816   4.345   3.003  10.395 -1.2964  0.0110  0.9426
  908MOL0     H19817   4.178   2.972  10.400  0.1651  1.2396  1.5154
  908MOL0     H19818   4.233   3.185   9.993 -0.5806  1.6148  0.5096
  908MOL0     H19819   4.024   3.238   9.878  0.1147  0.8647  0.2077
  908MOL0     H19820   3.627   3.437   9.959 -2.3746  3.4371  2.3674
  908MOL0     H19821   3.415   3.563   9.957 -2.7187  0.7623 -0.9388
  908MOL0     H19822   3.172   3.465   9.798  1.2193 -3.9028  3.7662
  908MOL0     H19823   3.117   3.621   9.877 -0.1487  0.0809  2.5404
  908MOL0     H19824   2.958   3.375   9.921  1.3631 -0.4287  0.7345
  908MOL0     H19825   2.929   3.464   9.772 -1.0463 -0.2243  0.5144
  908MOL0     H19826   2.895   3.689   9.911  0.1364 -0.0645 -0.2167
  908MOL0     H19827   2.882   3.581  10.050 -2.2878  3.0738  0.3962
  908MOL0     H19828   2.722   3.518   9.797 -0.3102 -0.2339  0.6837
  908MOL0     H19829   2.692   3.468   9.962 -1.4955 -0.8386 -1.1824
  908MOL0     H19830   2.698   3.760   9.867  1.8367 -2.4677 -2.7554
  908MOL0     H19831   2.660   3.705  10.031 -3.5639 -1.8648  0.7028
  908MOL0     H19832   2.483   3.624   9.793  2.5648 -1.6733  0.2724
  908MOL0     H19833   2.451   3.763   9.893 -2.0506 -1.2064 -0.9402
  908MOL0     H19834   2.430   3.469   9.958  1.4592  1.2730 -1.9835
  908MOL0     H19835   2.484   3.563  10.097  0.0018  0.4921  0.8001
  908MOL0     H19836   2.250   3.496  10.078 -4.8984  0.5068 -1.8588
  908MOL0     H19837   2.223   3.588   9.931 -2.8234  3.4797  1.6481
  908MOL0     H19838   3.188   3.219  10.051  1.8989 -2.4745 -0.2684
  908MOL0     H19839   3.407   3.090  10.050  1.5111 -0.2173 -1.5367
  908MOL0     H19840   3.790   3.066  10.178  0.8511  1.7951  1.7697
  908MOL0     H19841   3.995   3.002  10.307 -1.4340  0.2618  0.1720
  908MOL0     H19842   5.175   2.227  10.503  1.9262  3.0629 -4.3954
  908MOL0     H19843   5.391   2.211  10.366  3.1585 -7.0525  0.9060
  908MOL0     H19844   5.883   2.275  10.485  0.6570 -1.6409 -0.0814
  908MOL0     H19845   6.108   2.318  10.410 -1.5990 -0.8299  0.3111
  908MOL0     H19846   6.314   2.354  10.300  0.1977  0.3587 -0.6849
  908MOL0     H19847   6.288   2.497  10.411 -0.6111  0.4813 -0.6416
  908MOL0     H19848   6.441   2.478  10.145 -0.0303 -0.0879  0.9178
  908MOL0     H19849   6.405   2.630  10.223  2.1736  0.4362 -0.7569
  908MOL0     H19850   6.559   2.387  10.326 -2.1779 -0.4965 -0.0624
  908MOL0     H19851   6.543   2.548  10.414 -1.1143 -1.7671  0.6317
  908MOL0     H19852   6.664   2.498  10.142  3.9591  2.0274 -0.4811
  908MOL0     H19853   6.628   2.657  10.212 -2.3811 -0.5921 -0.7659
  908MOL0     H19854   7.005   2.531  10.353  0.5018  1.3586 -1.0488
  908MOL0     H19855   5.995   2.571  10.105  3.4203 -0.3297  1.8339
  908MOL0     H19856   5.753   2.553  10.166 -2.5287 -0.4765  2.2030
  909MOL0     O19857   0.031   1.354   9.777 -0.2671  0.1291 -0.1893
  909MOL0     C19858   0.042   1.307   9.668  0.1239 -0.1395 -0.5548
  909MOL0     O19859  -0.064   1.285   9.587  0.1791 -0.1264  0.1226
  909MOL0     C19860  -0.194   1.316   9.620 -0.7022  0.2030 -0.6526
  909MOL0     C19861  -0.232   1.428   9.696 -0.5132 -0.3475  0.2886
  909MOL0     C19862  -0.360   1.449   9.737 -0.4961 -0.6497  0.0048
  909MOL0     C19863  -0.464   1.373   9.687 -0.2035  1.2079  0.2498
  909MOL0     O19864  -0.587   1.407   9.716  0.2237  1.0045  0.1717
  909MOL0     C19865  -0.683   1.308   9.680 -0.1539 -0.4298  0.6015
  909MOL0     C19866  -0.826   1.357   9.725  0.2395  0.6302  0.2981
  909MOL0     C19867  -0.871   1.490   9.662 -0.1831 -0.8774  0.1170
  909MOL0     C19868  -1.027   1.502   9.665 -1.4127 -0.7731 -0.0887
  909MOL0     C19869  -1.089   1.546   9.802  0.0046  0.6480 -0.7173
  909MOL0     C19870  -1.238   1.517   9.799 -0.5607 -0.1086  0.1301
  909MOL0     C19871  -1.286   1.409   9.896  0.5009 -0.0768  0.0195
  909MOL0     C19872  -1.292   1.452  10.039 -0.9336 -0.4449 -1.0249
  909MOL0     N19873  -1.166   1.427  10.110 -0.1555 -0.1614 -0.1849
  909MOL0     C19874  -1.079   1.521  10.145 -0.5638 -0.5725  0.7480
  909MOL0     C19875  -0.976   1.456  10.203  0.4424  0.5022 -0.3531
  909MOL0     C19876  -0.843   1.529  10.231  0.3076 -0.3626 -0.1813
  909MOL0     C19877  -0.760   1.518  10.107  0.2443  0.9917 -0.1194
  909MOL0     C19878  -0.629   1.586  10.097 -0.1641 -0.2160  0.3500
  909MOL0     C19879  -0.524   1.548  10.212  1.3290  0.3267  0.2458
  909MOL0     O19880  -0.458   1.431  10.176  0.2131  0.1166 -0.6527
  909MOL0     C19881  -0.325   1.436  10.206  0.2599 -0.5910  0.1446
  909MOL0     C19882  -0.263   1.500  10.324 -0.3675 -0.1514  1.4910
  909MOL0     C19883  -0.131   1.502  10.339 -0.6933 -0.6893  0.8251
  909MOL0     C19884  -0.050   1.454  10.237 -0.9187  0.1003 -0.0310
  909MOL0     C19885   0.102   1.446  10.258 -0.3528  0.9433 -0.5345
  909MOL0     O19886   0.169   1.398  10.155  0.2860  0.2560  0.6527
  909MOL0     C19887   0.308   1.421  10.148  0.1870 -0.4247 -1.2040
  909MOL0     C19888   0.392   1.310  10.182  0.1684  0.0874 -0.5962
  909MOL0     C19889   0.532   1.312  10.164 -0.6446 -0.6008 -0.1569
  909MOL0     C19890   0.594   1.427  10.107  0.3655 -0.3165 -0.3131
  909MOL0     O19891   0.721   1.439  10.059  1.0521  0.7940  0.2409
  909MOL0     C19892   0.822   1.336  10.080  0.6734 -0.0137  0.3310
  909MOL0     C19893   0.873   1.334  10.225  0.3622  0.0514  0.4802
  909MOL0     C19894   0.991   1.232  10.246 -0.2568 -0.1352  0.7381
  909MOL0     C19895   1.116   1.281  10.168  0.4750  0.1798  0.9159
  909MOL0     C19896   1.236   1.195  10.183 -0.3192  1.0342  1.0079
  909MOL0     C19897   1.354   1.252  10.106 -0.7721  0.2475  0.4732
  909MOL0     C19898   1.488   1.179  10.104 -0.0304  0.1206  0.6101
  909MOL0     C19899   1.582   1.273  10.035 -0.0090  0.0950 -0.0915
  909MOL0    Cl19900   1.742   1.195  10.001  0.5144  0.5498 -0.0453
  909MOL0     C19901   0.511   1.540  10.094  0.0285 -0.9870  0.3930
  909MOL0     C19902   0.365   1.542  10.112  0.2540  0.3144 -0.0099
  909MOL0     O19903   0.146   1.474  10.363 -0.0282 -0.8318 -0.4601
  909MOL0     C19904  -0.102   1.406  10.121 -0.0930 -0.1825  0.7851
  909MOL0     C19905  -0.238   1.391  10.109  0.7559  0.1331 -0.3155
  909MOL0     N19906  -1.004   1.319  10.192 -0.0684 -0.2173  0.1322
  909MOL0     N19907  -1.126   1.305  10.148 -0.7244  0.2236  0.0466
  909MOL0     C19908  -0.431   1.264   9.599  0.5618  0.1161 -0.3566
  909MOL0     C19909  -0.294   1.240   9.570 -0.6194  0.2865  0.2462
  909MOL0     C19910   0.181   1.309   9.611 -0.4415 -0.0116 -0.2701
  909MOL0     C19911   0.207   1.307   9.476 -0.2211 -0.7985 -0.2989
  909MOL0     C19912   0.339   1.297   9.425 -0.0952 -0.7474 -0.7609
  909MOL0     C19913   0.447   1.291   9.522 -0.3900 -0.2221 -0.4459
  909MOL0     O19914   0.575   1.302   9.471  0.0082  1.1375 -0.2634
  909MOL0     C19915   0.602   1.259   9.331 -0.0030  0.2193  0.3737
  909MOL0     C19916   0.745   1.214   9.295 -0.2955 -0.4415  0.4780
  909MOL0     C19917   0.799   1.134   9.411 -0.2726  0.4968 -0.2751
  909MOL0     C19918   0.935   1.077   9.388  0.1924  0.5863 -0.4328
  909MOL0     C19919   1.028   1.183   9.355 -0.1620 -0.3526 -0.0006
  909MOL0     C19920   1.097   1.271   9.314 -0.0676  0.2265 -0.2801
  909MOL0     C19921   0.424   1.302   9.662 -0.5076  0.7385  0.3683
  909MOL0     C19922   0.290   1.313   9.705 -0.3702 -0.1376 -0.4179
  909MOL0     H19923  -0.157   1.494   9.739  0.2471 -1.6296  0.9870
  909MOL0     H19924  -0.379   1.540   9.792  2.0818  0.1169 -0.2743
  909MOL0     H19925  -0.661   1.208   9.720  0.0059 -1.0141 -0.8977
  909MOL0     H19926  -0.694   1.301   9.572 -2.0618 -0.6379  0.7705
  909MOL0     H19927  -0.824   1.361   9.834  0.7808  0.1920  0.3081
  909MOL0     H19928  -0.897   1.278   9.699  0.1709  0.1594  1.8082
  909MOL0     H19929  -0.827   1.474   9.563  2.3093 -0.1569  1.0249
  909MOL0     H19930  -0.816   1.576   9.700 -0.6452 -1.0696  1.2430
  909MOL0     H19931  -1.058   1.581   9.596  2.1406 -0.4879 -1.5556
  909MOL0     H19932  -1.061   1.405   9.630 -0.0664 -0.9234 -1.0474
  909MOL0     H19933  -1.065   1.650   9.824 -0.2144  0.3103  1.3560
  909MOL0     H19934  -1.035   1.490   9.879  1.1275  1.4618 -0.8841
  909MOL0     H19935  -1.275   1.479   9.703 -0.8226 -0.8449  0.5102
  909MOL0     H19936  -1.291   1.612   9.811  2.3295  2.2194 -3.4555
  909MOL0     H19937  -1.390   1.385   9.873  0.5289 -0.4958  0.3161
  909MOL0     H19938  -1.217   1.324   9.885  0.4271  0.2329 -4.1885
  909MOL0     H19939  -1.372   1.396  10.090 -0.5176  0.3481  0.5791
  909MOL0     H19940  -1.315   1.558  10.052  1.8201  0.1256  0.0556
  909MOL0     H19941  -1.084   1.628  10.128  2.0659 -0.3421  0.9995
  909MOL0     H19942  -0.788   1.493  10.319  1.6212 -0.9039 -1.2037
  909MOL0     H19943  -0.872   1.634  10.243 -2.2863 -0.9198 -0.8601
  909MOL0     H19944  -0.826   1.550  10.026 -0.2499 -2.1906 -1.1407
  909MOL0     H19945  -0.734   1.412  10.101 -0.2778  0.7477  1.3615
  909MOL0     H19946  -0.580   1.550  10.006  1.1609 -2.8912  1.9805
  909MOL0     H19947  -0.644   1.694  10.094  3.0651  0.3079 -0.7654
  909MOL0     H19948  -0.577   1.549  10.307  0.4032  0.1433 -0.2536
  909MOL0     H19949  -0.464   1.639  10.221 -2.8732  3.2318  1.4228
  909MOL0     H19950  -0.314   1.553  10.404  0.4171  1.6182  0.8672
  909MOL0     H19951  -0.097   1.555  10.427 -0.4543  4.0657 -1.8187
  909MOL0     H19952   0.336   1.218  10.196 -0.7086  0.5822 -0.7686
  909MOL0     H19953   0.582   1.224  10.201 -1.5469  0.0588  2.9464
  909MOL0     H19954   0.906   1.352  10.011  0.0857 -0.4910 -0.5046
  909MOL0     H19955   0.787   1.236  10.053 -0.9527  0.7064 -0.3027
  909MOL0     H19956   0.794   1.291  10.288 -1.8913  0.9462 -1.6007
  909MOL0     H19957   0.910   1.433  10.254  0.7513  0.4074 -1.1525
  909MOL0     H19958   0.968   1.131  10.209  0.1804 -1.2034  3.1935
  909MOL0     H19959   1.017   1.216  10.351  0.3365 -2.3229  0.3252
  909MOL0     H19960   1.096   1.293  10.061  0.5720  0.3838  0.9224
  909MOL0     H19961   1.144   1.374  10.217  0.1148  0.2470  0.9999
  909MOL0     H19962   1.206   1.096  10.149  1.7529  1.1027 -1.2159
  909MOL0     H19963   1.257   1.205  10.290 -0.2062  0.4576  1.0411
  909MOL0     H19964   1.373   1.353  10.144  0.2567 -0.2893  1.4371
  909MOL0     H19965   1.320   1.255  10.002  0.8757 -1.2570 -0.1671
  909MOL0     H19966   1.541   1.151  10.196 -0.8393  0.1882  1.1068
  909MOL0     H19967   1.478   1.082  10.055  3.9291 -0.8171  1.2774
  909MOL0     H19968   1.610   1.357  10.100  1.6894 -0.4801 -0.0368
  909MOL0     H19969   1.525   1.309   9.948 -3.7428 -3.3107  0.6300
  909MOL0     H19970   0.555   1.632  10.056 -3.6668  0.1301 -1.6994
  909MOL0     H19971   0.320   1.638  10.087  0.7986  0.4092 -0.6486
  909MOL0     H19972  -0.044   1.375  10.036 -3.3339  0.6528 -1.9613
  909MOL0     H19973  -0.272   1.336  10.022  3.0477 -4.6038  1.4270
  909MOL0     H19974  -0.503   1.199   9.550 -0.4124  1.4489 -0.7607
  909MOL0     H19975  -0.266   1.167   9.494 -1.6973 -0.3670  0.4554
  909MOL0     H19976   0.121   1.307   9.410 -0.0711 -0.3146 -0.4952
  909MOL0     H19977   0.352   1.300   9.317 -2.2437 -2.4021 -1.1434
  909MOL0     H19978   0.564   1.329   9.256 -2.9066 -2.0128 -0.4247
  909MOL0     H19979   0.539   1.172   9.313 -2.6439  1.9983  0.4198
  909MOL0     H19980   0.737   1.161   9.199  2.6280 -0.8144  0.3541
  909MOL0     H19981   0.804   1.305   9.285 -1.2768  0.5753  3.1096
  909MOL0     H19982   0.731   1.051   9.431 -1.6331  1.1232 -2.0651
  909MOL0     H19983   0.816   1.191   9.503  0.2292 -1.7461  1.1120
  909MOL0     H19984   0.977   1.021   9.472  2.9754  1.1917 -1.3171
  909MOL0     H19985   0.929   1.001   9.310  1.5090 -0.4726  0.4556
  909MOL0     H19986   1.158   1.348   9.271 -0.3900 -0.1199 -1.3893
  909MOL0     H19987   0.510   1.311   9.727  1.4730 -0.5489 -1.9104
  909MOL0     H19988   0.274   1.309   9.813  0.4158  0.1462 -0.2865
  910MOL0     O19989   7.037   2.763   5.463 -1.7260 -0.9285  0.2032
  910MOL0     C19990   7.107   2.829   5.383  0.4233  0.5814  0.1511
  910MOL0     O19991   7.060   2.866   5.254 -0.7127 -1.0769 -0.2421
  910MOL0     C19992   6.938   2.833   5.181 -0.4723 -0.3900 -0.6128
  910MOL0     C19993   6.832   2.766   5.242 -0.3474  0.4407  0.0451
  910MOL0     C19994   6.712   2.751   5.179  0.1757  0.6325 -0.4113
  910MOL0     C19995   6.692   2.795   5.052  0.4825 -0.0092  0.2069
  910MOL0     O19996   6.568   2.764   4.996 -0.1872 -0.0093  0.3491
  910MOL0     C19997   6.548   2.801   4.859  0.1337 -0.1081 -1.0502
  910MOL0     C19998   6.402   2.772   4.810 -0.0867  0.2657  0.1701
  910MOL0     C19999   6.294   2.835   4.888 -0.0085  0.0228  0.4099
  910MOL0     C20000   6.150   2.804   4.867  0.2771  0.2143  0.2876
  910MOL0     C20001   6.109   2.847   4.730  0.2427  0.1940 -0.4422
  910MOL0     C20002   5.972   2.841   4.669  0.8619  0.0829 -0.0483
  910MOL0     C20003   5.920   2.700   4.670 -1.2475  0.5877  0.2598
  910MOL0     C20004   5.801   2.666   4.582 -0.0315  0.1882  0.9594
  910MOL0     N20005   5.835   2.629   4.444 -0.5701  0.2629 -0.5258
  910MOL0     C20006   5.865   2.720   4.348  0.6272 -0.2885 -0.0364
  910MOL0     C20007   5.895   2.646   4.241  0.7051  0.6293  0.2051
  910MOL0     C20008   5.942   2.701   4.108 -0.0590  0.0368 -0.2885
  910MOL0     C20009   6.088   2.757   4.125  0.1404 -0.9012  0.2640
  910MOL0     C20010   6.185   2.647   4.141 -0.0040 -0.0073  0.4306
  910MOL0     C20011   6.320   2.691   4.110  0.5674  0.5396 -0.2469
  910MOL0     O20012   6.361   2.799   4.197  0.0807  0.3364  0.0138
  910MOL0     C20013   6.487   2.807   4.259 -0.6431  0.1748 -0.0103
  910MOL0     C20014   6.597   2.770   4.184  0.0573 -0.8266 -0.8178
  910MOL0     C20015   6.726   2.770   4.240 -0.1459 -0.5121  0.1700
  910MOL0     C20016   6.749   2.822   4.371  0.2271  0.5609  0.2187
  910MOL0     C20017   6.872   2.825   4.444  0.0808  0.8919  1.6471
  910MOL0     O20018   6.883   2.891   4.556  0.4702 -0.4229 -0.5435
  910MOL0     C20019   6.987   2.866   4.639  0.7964  1.0903 -0.6485
  910MOL0     C20020   7.039   2.981   4.693 -1.0717 -0.5649  0.2153
  910MOL0     C20021   7.143   2.972   4.785 -0.3333  0.1064 -0.2193
  910MOL0     C20022   7.186   2.839   4.819 -0.2980  0.8087  0.3618
  910MOL0     O20023   7.295   2.840   4.898 -1.0798  0.0524  0.0242
  910MOL0     C20024   7.376   2.721   4.923  0.0795  0.0499  0.1945
  910MOL0     C20025   7.507   2.734   4.836  1.0485 -0.6228 -0.8434
  910MOL0     C20026   7.612   2.649   4.887 -0.4204  0.0375  0.8736
  910MOL0     C20027   7.752   2.708   4.843  0.0980 -0.0328 -1.2797
  910MOL0     C20028   7.873   2.618   4.876  0.2228  0.2175  0.7886
  910MOL0     C20029   7.893   2.609   5.034  0.4459 -0.0264 -0.7613
  910MOL0     C20030   8.024   2.526   5.056  0.3063 -0.2930  0.4656
  910MOL0     C20031   8.050   2.489   5.207 -0.0873  0.1502  0.3623
  910MOL0    Cl20032   7.966   2.355   5.274  0.3655 -0.4158  0.4135
  910MOL0     C20033   7.126   2.719   4.761 -0.2415  0.1752 -0.3031
  910MOL0     C20034   7.026   2.735   4.671 -0.3521  0.0350 -1.0189
  910MOL0     O20035   6.963   2.767   4.389  0.3151 -0.0784  0.5612
  910MOL0     C20036   6.641   2.880   4.443 -0.5432  0.1895  0.6188
  910MOL0     C20037   6.517   2.872   4.384 -0.4746 -0.4150  0.8618
  910MOL0     N20038   5.862   2.508   4.270 -0.1618 -0.9840 -0.5885
  910MOL0     N20039   5.827   2.501   4.392 -0.3374  0.5147  0.7718
  910MOL0     C20040   6.804   2.850   4.985 -0.8378 -0.1297  0.2999
  910MOL0     C20041   6.921   2.872   5.050 -0.6384  0.6566 -0.6766
  910MOL0     C20042   7.232   2.888   5.439  0.4801 -0.5265  0.8767
  910MOL0     C20043   7.301   2.991   5.368 -0.4626 -1.0852  0.3840
  910MOL0     C20044   7.415   3.041   5.421  0.3633 -0.2258 -0.1059
  910MOL0     C20045   7.477   2.994   5.541  1.0155  0.1581  0.3982
  910MOL0     O20046   7.595   3.047   5.577  0.0022 -0.3274 -0.5259
  910MOL0     C20047   7.701   2.955   5.605 -0.2836  1.0386 -0.1053
  910MOL0     C20048   7.839   3.025   5.579  0.2163 -0.9270  0.3037
  910MOL0     C20049   7.872   3.052   5.423 -0.1560  0.5101 -1.1146
  910MOL0     C20050   7.864   2.936   5.323 -0.0775  0.1158 -0.1536
  910MOL0     C20051   7.735   2.913   5.246 -0.8941 -0.4770 -1.5243
  910MOL0     C20052   7.634   2.912   5.172 -0.2811  0.7485 -0.7458
  910MOL0     C20053   7.406   2.889   5.615 -0.4719  0.2853  0.1106
  910MOL0     C20054   7.295   2.841   5.559  0.2030  1.1240  0.3575
  910MOL0     H20055   6.841   2.733   5.345  2.5140 -1.1532 -0.5876
  910MOL0     H20056   6.632   2.705   5.236  0.9495 -2.7898 -1.8272
  910MOL0     H20057   6.615   2.738   4.799 -0.3803 -0.6174 -1.0960
  910MOL0     H20058   6.583   2.904   4.844  1.8830 -0.8314 -2.3293
  910MOL0     H20059   6.391   2.663   4.799  1.1159 -0.1244  2.2084
  910MOL0     H20060   6.389   2.808   4.708 -0.5674 -0.6704 -0.1102
  910MOL0     H20061   6.304   2.942   4.866 -2.0548 -0.0935 -1.4721
  910MOL0     H20062   6.308   2.820   4.996  3.5275 -2.2226 -0.1949
  910MOL0     H20063   6.131   2.697   4.880 -1.7620  0.6121  0.8706
  910MOL0     H20064   6.101   2.852   4.952  0.6766  0.0968  0.5896
  910MOL0     H20065   6.177   2.789   4.667  2.9642 -0.2646  2.6549
  910MOL0     H20066   6.137   2.953   4.719  2.3248  0.2547  3.4805
  910MOL0     H20067   5.969   2.872   4.564  0.1949 -0.9354 -0.3449
  910MOL0     H20068   5.911   2.913   4.723 -0.1408 -0.5609 -0.2846
  910MOL0     H20069   5.990   2.622   4.641 -1.8982  0.4187 -0.8972
  910MOL0     H20070   5.887   2.683   4.773 -1.1670 -1.0947  0.0294
  910MOL0     H20071   5.728   2.748   4.583  3.6339  3.7949  0.5614
  910MOL0     H20072   5.755   2.577   4.625  1.6663 -1.0615  0.3148
  910MOL0     H20073   5.878   2.828   4.352  1.7244  0.0186 -5.1606
  910MOL0     H20074   5.880   2.781   4.067  0.0135  0.3996  0.2984
  910MOL0     H20075   5.938   2.619   4.036 -0.1148 -0.5879  0.4095
  910MOL0     H20076   6.093   2.824   4.212 -3.0304  0.2174 -0.2771
  910MOL0     H20077   6.116   2.817   4.038 -3.7645 -0.2473 -0.7076
  910MOL0     H20078   6.183   2.604   4.241  1.3931  0.5131  0.6980
  910MOL0     H20079   6.155   2.563   4.077 -0.4503  0.8566 -0.5182
  910MOL0     H20080   6.327   2.719   4.004  1.0436  0.2204 -0.3056
  910MOL0     H20081   6.394   2.611   4.117 -0.3837 -0.1971  2.4511
  910MOL0     H20082   6.590   2.721   4.087  0.3945  0.1277 -1.3400
  910MOL0     H20083   6.811   2.717   4.196  0.8743  1.9740 -1.0902
  910MOL0     H20084   7.010   3.083   4.668  4.2185  0.9044 -1.3928
  910MOL0     H20085   7.196   3.061   4.817 -3.1594  1.3164  1.5831
  910MOL0     H20086   7.330   2.634   4.875 -0.6903  1.9937 -2.9299
  910MOL0     H20087   7.406   2.708   5.027  2.0113 -0.8882 -0.4279
  910MOL0     H20088   7.538   2.838   4.849  0.0056 -0.5018  0.9808
  910MOL0     H20089   7.490   2.713   4.730  0.3596 -0.1655 -0.8264
  910MOL0     H20090   7.594   2.554   4.835 -0.6095 -0.3070  1.5571
  910MOL0     H20091   7.617   2.633   4.995  0.4530 -1.2886  0.6761
  910MOL0     H20092   7.754   2.727   4.735 -0.1634 -1.4617 -1.5578
  910MOL0     H20093   7.757   2.801   4.901 -1.7031 -0.5696 -0.1972
  910MOL0     H20094   7.963   2.656   4.828  1.7928 -2.2078  1.5834
  910MOL0     H20095   7.866   2.517   4.833  0.9827  0.1292  0.8520
  910MOL0     H20096   7.815   2.547   5.080 -0.8642  2.0018 -0.1134
  910MOL0     H20097   7.902   2.710   5.073  1.4146 -0.1807 -0.5523
  910MOL0     H20098   8.014   2.429   5.006  2.1068 -1.6639  2.5745
  910MOL0     H20099   8.105   2.593   5.027  0.1459  0.2985  1.3341
  910MOL0     H20100   8.013   2.580   5.257  1.3267  1.2438 -0.5222
  910MOL0     H20101   8.158   2.474   5.210 -0.1066 -0.6823 -1.6541
  910MOL0     H20102   7.151   2.616   4.784 -2.2251  0.1983  2.5397
  910MOL0     H20103   6.983   2.645   4.629 -1.8339 -0.1417  0.7562
  910MOL0     H20104   6.645   2.937   4.536  1.6659  1.8920 -0.4178
  910MOL0     H20105   6.434   2.921   4.434 -2.3666 -0.6233 -1.8899
  910MOL0     H20106   6.807   2.879   4.881 -2.0807 -0.6447  0.1014
  910MOL0     H20107   6.998   2.927   4.996 -0.8874  0.7751 -0.9143
  910MOL0     H20108   7.269   3.031   5.272  0.9995  0.5751  0.5335
  910MOL0     H20109   7.466   3.122   5.369  0.0328  2.1979  3.0388
  910MOL0     H20110   7.688   2.865   5.544 -1.5400  1.4443 -0.4671
  910MOL0     H20111   7.701   2.924   5.710 -1.7487 -2.4838 -0.9991
  910MOL0     H20112   7.856   3.124   5.622  1.6711 -0.2181 -1.7596
  910MOL0     H20113   7.919   2.965   5.624  0.4044 -0.9720 -0.0894
  910MOL0     H20114   7.964   3.111   5.429 -1.7871  3.0374  1.2739
  910MOL0     H20115   7.800   3.132   5.402  0.3220  2.0951  2.4771
  910MOL0     H20116   7.917   2.955   5.230 -1.0544  2.2545 -0.3239
  910MOL0     H20117   7.916   2.849   5.364 -0.2982 -0.3129 -0.7799
  910MOL0     H20118   7.550   2.907   5.105  0.3215 -0.6947 -1.4459
  910MOL0     H20119   7.426   2.848   5.713 -0.1868 -0.7049 -0.3425
  910MOL0     H20120   7.239   2.763   5.610  1.3685 -0.4534 -0.6993
  911MOL0     O20121   2.184   6.261   4.284 -0.2951  0.1619 -0.4941
  911MOL0     C20122   2.302   6.291   4.307 -0.9629  0.4824 -0.7375
  911MOL0     O20123   2.352   6.329   4.435 -0.5761  0.2405 -0.2536
  911MOL0     C20124   2.270   6.343   4.546 -0.2503 -0.6684  0.4912
  911MOL0     C20125   2.333   6.322   4.666 -0.9674 -1.1360 -0.9946
  911MOL0     C20126   2.266   6.359   4.793 -0.1342 -0.8296  0.3819
  911MOL0     C20127   2.140   6.423   4.795 -0.4658 -0.0157 -0.1666
  911MOL0     O20128   2.071   6.454   4.915 -0.0904 -0.5802 -0.1992
  911MOL0     C20129   2.107   6.394   5.037 -0.8666 -1.3874 -0.5956
  911MOL0     C20130   1.991   6.416   5.141 -0.4448  1.0532 -0.3647
  911MOL0     C20131   1.886   6.326   5.097 -0.4513  0.5208  0.5842
  911MOL0     C20132   1.771   6.325   5.198 -0.2873  0.7587  0.8409
  911MOL0     C20133   1.629   6.296   5.150 -0.3077  0.5875  0.7369
  911MOL0     C20134   1.530   6.313   5.266 -0.1120  0.0084  1.0768
  911MOL0     C20135   1.395   6.243   5.229 -0.5330  0.5458  0.3141
  911MOL0     C20136   1.296   6.259   5.336  0.4611  0.2930  0.3947
  911MOL0     N20137   1.159   6.224   5.288 -0.8267  0.2677  0.3420
  911MOL0     C20138   1.094   6.101   5.297 -0.0383  0.4242  0.5976
  911MOL0     C20139   0.965   6.138   5.294 -0.0983  0.1407  0.2350
  911MOL0     C20140   0.848   6.034   5.316  0.6420  0.5818  0.8186
  911MOL0     C20141   0.743   6.099   5.396 -0.4867  0.9310 -0.7329
  911MOL0     C20142   0.625   6.006   5.434  0.3059 -0.6608  0.6834
  911MOL0     C20143   0.529   6.081   5.526  0.1286  0.2420  0.3319
  911MOL0     O20144   0.428   5.985   5.570 -0.5607  0.3089 -0.1738
  911MOL0     C20145   0.314   6.036   5.624  0.0476 -0.4664 -0.9923
  911MOL0     C20146   0.296   6.152   5.695 -0.4795  0.1322 -0.6715
  911MOL0     C20147   0.175   6.189   5.756  0.2965  0.1358 -0.5728
  911MOL0     C20148   0.057   6.110   5.724  0.0424 -0.0419 -0.2297
  911MOL0     C20149  -0.082   6.156   5.771 -1.5065 -0.8482 -0.0382
  911MOL0     O20150  -0.075   6.265   5.864  0.0358  0.1915  0.3186
  911MOL0     C20151  -0.187   6.345   5.879 -0.9248 -0.1422  0.2147
  911MOL0     C20152  -0.236   6.419   5.778 -0.2304  0.3411 -0.5720
  911MOL0     C20153  -0.356   6.479   5.792  0.7631 -0.6482  0.1665
  911MOL0     C20154  -0.434   6.457   5.910 -0.7751 -0.7905 -0.5019
  911MOL0     O20155  -0.552   6.520   5.938 -0.9665  0.4123 -1.0761
  911MOL0     C20156  -0.599   6.616   5.839 -0.6729  0.0982 -0.7913
  911MOL0     C20157  -0.713   6.700   5.899 -0.5919  0.0055 -0.0672
  911MOL0     C20158  -0.835   6.617   5.938 -0.4580  0.3900 -0.0032
  911MOL0     C20159  -0.949   6.687   6.016  0.1268 -0.0556  0.6184
  911MOL0     C20160  -1.019   6.794   5.934 -0.2252  0.2215  0.0253
  911MOL0     C20161  -1.112   6.873   6.029  0.5259  0.3637  0.6036
  911MOL0     C20162  -1.232   6.786   6.066  0.2584  0.5955 -0.9649
  911MOL0     C20163  -1.328   6.863   6.169  0.2220  1.4813  0.4734
  911MOL0    Cl20164  -1.493   6.796   6.179 -0.3618  0.0548 -0.2865
  911MOL0     C20165  -0.376   6.385   6.013 -0.8682  0.5979 -0.5063
  911MOL0     C20166  -0.253   6.315   5.996  1.1831  0.5527  0.7792
  911MOL0     O20167  -0.184   6.099   5.748 -0.3187  0.0213  0.8005
  911MOL0     C20168   0.076   5.991   5.652 -0.1255  0.3919 -0.1374
  911MOL0     C20169   0.201   5.950   5.608 -0.2183 -0.7875 -0.0038
  911MOL0     N20170   0.963   6.273   5.273 -0.0113  0.3398 -0.4684
  911MOL0     N20171   1.077   6.320   5.269 -0.5089 -0.3878 -0.0337
  911MOL0     C20172   2.083   6.444   4.674  0.9503 -0.1505  0.6051
  911MOL0     C20173   2.142   6.403   4.551  0.7180 -0.0508  0.3708
  911MOL0     C20174   2.394   6.308   4.194  0.3012  1.1220  0.3953
  911MOL0     C20175   2.333   6.308   4.067  0.2947  0.5418 -0.0061
  911MOL0     C20176   2.422   6.328   3.958 -0.0208  0.2851  0.3825
  911MOL0     C20177   2.561   6.330   3.969 -0.0729 -0.7658  0.4018
  911MOL0     O20178   2.649   6.341   3.869  0.3772 -0.1689  0.4291
  911MOL0     C20179   2.616   6.338   3.730 -0.2441 -0.7184  0.1010
  911MOL0     C20180   2.743   6.343   3.642 -0.0008  0.7322  0.4605
  911MOL0     C20181   2.820   6.474   3.631 -0.7174  0.2228 -0.1215
  911MOL0     C20182   2.934   6.484   3.725 -0.6241 -0.0733 -0.4841
  911MOL0     C20183   3.013   6.613   3.720  0.2317  0.7510 -0.8399
  911MOL0     C20184   3.058   6.726   3.735  0.3276 -1.2140 -0.2671
  911MOL0     C20185   2.615   6.329   4.097 -0.5880  0.1741  1.0993
  911MOL0     C20186   2.529   6.323   4.206  0.6410 -0.4903 -0.0497
  911MOL0     H20187   2.435   6.287   4.657 -1.2940 -1.7721 -2.4686
  911MOL0     H20188   2.303   6.333   4.891 -0.3969 -1.2959  0.3603
  911MOL0     H20189   2.196   6.441   5.081 -2.8107 -0.7393  3.0023
  911MOL0     H20190   2.119   6.286   5.036 -1.7857 -1.4953 -0.1048
  911MOL0     H20191   1.962   6.521   5.137 -0.3460  1.0389 -2.0223
  911MOL0     H20192   2.016   6.397   5.246 -0.3151  2.1234 -0.1949
  911MOL0     H20193   1.922   6.223   5.086 -1.0253  0.3056  0.6732
  911MOL0     H20194   1.850   6.361   5.000  0.9008 -1.1916 -0.5811
  911MOL0     H20195   1.798   6.252   5.275  0.4189  2.0592  1.8763
  911MOL0     H20196   1.774   6.427   5.237  2.7453  0.5972  1.2520
  911MOL0     H20197   1.632   6.196   5.105  0.6797  0.9536 -0.0379
  911MOL0     H20198   1.601   6.358   5.064 -0.7224  2.0734  1.9056
  911MOL0     H20199   1.507   6.417   5.293  0.9663  0.0656  1.8376
  911MOL0     H20200   1.560   6.274   5.364 -2.0985  1.7522  2.4841
  911MOL0     H20201   1.360   6.288   5.135  1.8348 -0.0513 -0.9459
  911MOL0     H20202   1.404   6.135   5.215 -0.0922  0.8161 -1.9993
  911MOL0     H20203   1.286   6.365   5.361 -0.2703  0.2774  0.1842
  911MOL0     H20204   1.330   6.210   5.428  0.3596 -0.4031  0.0723
  911MOL0     H20205   1.129   5.998   5.304 -0.5160  0.2865  0.9946
  911MOL0     H20206   0.892   5.951   5.371  2.0795  0.9012  0.1986
  911MOL0     H20207   0.804   5.988   5.226  1.0253  2.5323 -0.4283
  911MOL0     H20208   0.697   6.183   5.342  0.5817  1.1021 -1.4108
  911MOL0     H20209   0.782   6.142   5.489 -1.5910 -0.8345  0.6109
  911MOL0     H20210   0.576   5.979   5.340  2.4367 -1.2747 -0.3061
  911MOL0     H20211   0.674   5.921   5.482  1.1248  0.5624  2.0755
  911MOL0     H20212   0.473   6.149   5.462 -1.6682  0.4657  2.0297
  911MOL0     H20213   0.584   6.118   5.613 -0.5848 -0.9557  1.3389
  911MOL0     H20214   0.377   6.221   5.719 -2.3246  1.8081  1.2739
  911MOL0     H20215   0.170   6.273   5.826 -0.0142  0.0075 -0.4386
  911MOL0     H20216  -0.179   6.414   5.685  2.3151 -3.4331  0.9603
  911MOL0     H20217  -0.380   6.543   5.708  0.2180  0.1610  0.9286
  911MOL0     H20218  -0.636   6.560   5.753  1.0938 -3.2708  0.4943
  911MOL0     H20219  -0.516   6.682   5.812 -0.1603  0.2661  1.0593
  911MOL0     H20220  -0.748   6.775   5.826 -1.9775 -0.9236 -0.3937
  911MOL0     H20221  -0.672   6.756   5.983  2.2138 -3.0104  0.7463
  911MOL0     H20222  -0.796   6.536   6.001  0.0270  0.7260  0.1289
  911MOL0     H20223  -0.878   6.563   5.853 -1.6307 -3.8692  2.9239
  911MOL0     H20224  -1.021   6.605   6.030 -2.6789  2.1852  0.1607
  911MOL0     H20225  -0.920   6.718   6.116  0.6454 -2.5363  1.3021
  911MOL0     H20226  -1.079   6.749   5.855 -0.8367  0.2542  0.4647
  911MOL0     H20227  -0.939   6.859   5.898 -1.1393  0.5333 -1.5002
  911MOL0     H20228  -1.141   6.965   5.976 -0.5199 -0.9537 -1.2233
  911MOL0     H20229  -1.062   6.914   6.117  4.4130  0.5365 -1.4605
  911MOL0     H20230  -1.296   6.776   5.978 -1.1436 -0.4399  0.1295
  911MOL0     H20231  -1.222   6.688   6.113 -1.8650  0.4394 -0.7122
  911MOL0     H20232  -1.338   6.963   6.125 -2.6944  1.8644  1.7871
  911MOL0     H20233  -1.282   6.874   6.268 -0.5232 -1.5441  1.2635
  911MOL0     H20234  -0.420   6.369   6.111 -2.9531  2.2600 -1.1055
  911MOL0     H20235  -0.209   6.250   6.070  2.4150  1.2189  0.6569
  911MOL0     H20236  -0.018   5.938   5.636  0.1486 -1.2205  2.9130
  911MOL0     H20237   0.221   5.856   5.558 -0.2758 -1.6504  1.5270
  911MOL0     H20238   1.983   6.486   4.679  1.3459  0.9863 -0.4324
  911MOL0     H20239   2.105   6.425   4.451  0.5200  0.0743  0.4717
  911MOL0     H20240   2.225   6.303   4.056  0.3771 -0.6001 -0.5441
  911MOL0     H20241   2.382   6.334   3.858 -1.8473 -2.4168  0.8568
  911MOL0     H20242   2.537   6.412   3.711 -0.1692 -0.1676  1.7609
  911MOL0     H20243   2.557   6.249   3.706 -0.9209  0.0613 -1.2275
  911MOL0     H20244   2.802   6.261   3.684 -1.6795 -0.3336  0.8620
  911MOL0     H20245   2.721   6.324   3.536 -3.9320  4.1153  0.4157
  911MOL0     H20246   2.766   6.568   3.643  4.2490  3.3733  0.6715
  911MOL0     H20247   2.873   6.470   3.535  0.3695  0.5518  0.4482
  911MOL0     H20248   2.915   6.456   3.829  2.1507  1.8791  0.6704
  911MOL0     H20249   3.010   6.411   3.696  1.7811  2.3292 -0.6203
  911MOL0     H20250   3.108   6.818   3.753 -0.7486 -0.3595 -1.4507
  911MOL0     H20251   2.723   6.335   4.106 -0.7304  1.1160  2.2547
  911MOL0     H20252   2.575   6.316   4.304 -0.0575  0.8316  0.4036
  912MOL0     O20253   6.005   2.930   5.262  1.0148 -0.5299  0.1420
  912MOL0     C20254   6.027   2.900   5.377  0.3697  1.1282  0.0948
  912MOL0     O20255   5.936   2.892   5.475  0.1727 -0.1055  0.5216
  912MOL0     C20256   5.796   2.898   5.448 -0.1826 -0.0989 -0.9013
  912MOL0     C20257   5.731   2.854   5.325  0.0611 -0.1476 -0.1805
  912MOL0     C20258   5.607   2.892   5.297  0.9589  0.3162  0.1350
  912MOL0     C20259   5.519   2.962   5.378  0.2492  0.1730  0.5799
  912MOL0     O20260   5.392   2.997   5.335 -0.4275 -0.3430 -0.6188
  912MOL0     C20261   5.309   2.915   5.264  0.3719 -0.3432  0.5123
  912MOL0     C20262   5.163   2.959   5.239  1.0050  0.3826 -0.1640
  912MOL0     C20263   5.054   2.849   5.263 -0.6095  0.3364  1.3321
  912MOL0     C20264   5.070   2.744   5.145  0.0881 -0.0090 -0.3293
  912MOL0     C20265   4.976   2.627   5.146 -0.2918 -0.2461 -0.7855
  912MOL0     C20266   4.857   2.637   5.059 -0.4243 -0.5073 -0.6876
  912MOL0     C20267   4.753   2.739   5.113  0.4249 -0.4668  0.3959
  912MOL0     C20268   4.776   2.880   5.041 -0.5563 -0.0379  0.1982
  912MOL0     N20269   4.718   2.875   4.906 -0.4330 -0.1084  0.1647
  912MOL0     C20270   4.600   2.821   4.865 -0.1496 -0.0451  0.3246
  912MOL0     C20271   4.603   2.845   4.727 -0.5555 -0.2606  0.3413
  912MOL0     C20272   4.491   2.822   4.620  0.3253 -0.6431  0.0952
  912MOL0     C20273   4.371   2.921   4.634 -0.5426 -0.2971  0.4785
  912MOL0     C20274   4.241   2.886   4.574  0.4417  0.3759 -0.1397
  912MOL0     C20275   4.241   2.913   4.423 -0.4664  0.1723  1.1013
  912MOL0     O20276   4.119   2.863   4.363 -0.1148  0.0800 -0.3019
  912MOL0     C20277   4.004   2.934   4.348  0.3919  0.3794 -0.2540
  912MOL0     C20278   3.991   3.066   4.393 -0.4728 -0.1337 -1.5933
  912MOL0     C20279   3.864   3.138   4.371 -0.0156  0.4629 -0.8891
  912MOL0     C20280   3.765   3.080   4.295  0.4997  1.1088  0.7741
  912MOL0     C20281   3.643   3.155   4.267 -0.2411 -0.4830  0.3154
  912MOL0     O20282   3.551   3.089   4.203 -0.0577  0.6911 -0.6419
  912MOL0     C20283   3.424   3.139   4.187  0.5103  0.3256 -0.5035
  912MOL0     C20284   3.377   3.187   4.062  0.3896  0.0695 -0.1064
  912MOL0     C20285   3.241   3.229   4.044  0.5850  1.1326  0.4107
  912MOL0     C20286   3.154   3.226   4.157 -0.0783 -0.2298 -0.7202
  912MOL0     O20287   3.023   3.263   4.148 -0.0409  0.9535 -0.3041
  912MOL0     C20288   2.991   3.369   4.063  0.6518  0.1143  0.5418
  912MOL0     C20289   2.861   3.427   4.113 -0.5216  0.2290  0.8819
  912MOL0     C20290   2.729   3.350   4.093  0.4651 -0.0387 -0.0003
  912MOL0     C20291   2.681   3.351   3.944 -0.3480 -0.8446 -0.0680
  912MOL0     C20292   2.549   3.292   3.943 -0.2983 -0.2878 -0.7247
  912MOL0     C20293   2.429   3.375   4.003 -0.3347 -0.6990 -0.7435
  912MOL0     C20294   2.299   3.308   3.976 -1.0751  0.0165  0.0872
  912MOL0     C20295   2.193   3.407   4.020 -0.1354 -1.5513  0.1863
  912MOL0    Cl20296   2.038   3.318   4.036 -0.1048 -0.6866 -0.7396
  912MOL0     C20297   3.200   3.186   4.279  0.0745 -0.7578 -0.3056
  912MOL0     C20298   3.335   3.146   4.294  0.2873  0.5245 -1.3982
  912MOL0     O20299   3.644   3.272   4.304 -0.7460 -0.3870 -0.4944
  912MOL0     C20300   3.779   2.940   4.247 -0.4842  0.1008  0.3099
  912MOL0     C20301   3.896   2.870   4.281 -0.5348  0.2014  0.3961
  912MOL0     N20302   4.726   2.907   4.695  0.3407  0.3847 -0.7029
  912MOL0     N20303   4.795   2.927   4.801  0.9763  0.4565  0.1181
  912MOL0     C20304   5.569   2.994   5.504  0.1769  0.7314  0.2371
  912MOL0     C20305   5.707   2.966   5.538 -0.2944  0.2166 -0.5248
  912MOL0     C20306   6.166   2.862   5.414 -0.2910  0.0306  0.5426
  912MOL0     C20307   6.189   2.805   5.536 -0.0259 -0.2615 -0.0925
  912MOL0     C20308   6.314   2.755   5.583  1.2911  1.0026  0.1760
  912MOL0     C20309   6.427   2.783   5.507  0.2236  0.2915  0.4540
  912MOL0     O20310   6.557   2.756   5.548 -0.1541  0.3134 -0.1139
  912MOL0     C20311   6.596   2.715   5.676  0.3342 -0.5847  0.4962
  912MOL0     C20312   6.591   2.561   5.708  0.7351 -0.3360 -0.5117
  912MOL0     C20313   6.602   2.466   5.595  0.1195 -0.5257  1.2073
  912MOL0     C20314   6.758   2.462   5.558 -0.2071 -0.2950 -0.4354
  912MOL0     C20315   6.768   2.371   5.443  0.3767  0.1878  0.3024
  912MOL0     C20316   6.765   2.284   5.359  0.7246 -0.9390  0.3721
  912MOL0     C20317   6.414   2.853   5.385  0.8811 -0.4566 -0.0629
  912MOL0     C20318   6.282   2.887   5.334  0.1495  0.4516  0.4203
  912MOL0     H20319   5.787   2.806   5.246 -1.0520 -1.3212 -0.3001
  912MOL0     H20320   5.577   2.878   5.193  1.5472 -1.2223  0.1511
  912MOL0     H20321   5.307   2.826   5.327 -0.0625 -0.1366  0.7951
  912MOL0     H20322   5.351   2.894   5.165  0.3620  2.7893 -0.2491
  912MOL0     H20323   5.153   3.008   5.141  0.8508 -0.5492 -0.6240
  912MOL0     H20324   5.148   3.042   5.308 -1.5754  0.5558 -0.8521
  912MOL0     H20325   4.962   2.907   5.249 -0.5446  0.2079  0.2638
  912MOL0     H20326   5.065   2.804   5.362  0.1806  2.1275  2.1185
  912MOL0     H20327   5.074   2.796   5.049  0.5898  1.1543  0.2961
  912MOL0     H20328   5.167   2.694   5.157 -0.1033 -0.0711  1.1716
  912MOL0     H20329   4.941   2.608   5.248  3.2451  0.0040  0.6042
  912MOL0     H20330   5.044   2.545   5.120  1.8343  0.7924  1.1719
  912MOL0     H20331   4.803   2.544   5.035 -2.0685  0.1536  0.3158
  912MOL0     H20332   4.891   2.672   4.961  1.9773  0.9212  0.5747
  912MOL0     H20333   4.648   2.707   5.105 -0.3433  1.5778  1.4329
  912MOL0     H20334   4.775   2.765   5.217  0.9195  0.5573  0.0514
  912MOL0     H20335   4.882   2.909   5.038  0.1945 -2.3192  1.6783
  912MOL0     H20336   4.727   2.958   5.098 -1.3263  1.4194 -2.3061
  912MOL0     H20337   4.526   2.781   4.934  2.9662 -0.0719  3.9671
  912MOL0     H20338   4.458   2.717   4.619 -1.5699 -0.0858  0.5979
  912MOL0     H20339   4.527   2.848   4.520 -0.1500 -0.6318 -0.0750
  912MOL0     H20340   4.400   3.010   4.577 -0.8213 -1.5226 -1.7046
  912MOL0     H20341   4.361   2.953   4.738  0.9313  0.6748  0.3548
  912MOL0     H20342   4.215   2.781   4.590  3.9540 -0.5520  0.2871
  912MOL0     H20343   4.163   2.935   4.633  0.4754 -2.2808  2.3802
  912MOL0     H20344   4.318   2.859   4.368 -1.2997 -1.5268  1.5360
  912MOL0     H20345   4.248   3.019   4.397  0.1833 -0.1873 -0.2705
  912MOL0     H20346   4.063   3.116   4.456 -1.6925  1.3837 -1.3284
  912MOL0     H20347   3.855   3.233   4.423 -0.3116 -0.1567  0.2223
  912MOL0     H20348   3.451   3.188   3.983 -0.0409  1.7416 -0.5299
  912MOL0     H20349   3.212   3.272   3.949 -0.4494  0.4716  0.4116
  912MOL0     H20350   2.969   3.330   3.963 -0.4711 -0.7116  1.0830
  912MOL0     H20351   3.070   3.443   4.052  1.3272 -0.3174  2.2118
  912MOL0     H20352   2.845   3.523   4.062  2.0337  0.6054  0.6775
  912MOL0     H20353   2.871   3.444   4.220 -1.3166  0.7747  0.8815
  912MOL0     H20354   2.660   3.397   4.163  2.0516  0.4652  1.2976
  912MOL0     H20355   2.733   3.247   4.129  3.7104  0.1310  0.4537
  912MOL0     H20356   2.693   3.455   3.914  2.6598 -0.7383  1.1777
  912MOL0     H20357   2.744   3.290   3.879  0.6312  0.9889 -0.9294
  912MOL0     H20358   2.553   3.204   4.008 -1.8395  1.1784  1.4674
  912MOL0     H20359   2.524   3.262   3.840 -2.6849  0.7437 -0.5213
  912MOL0     H20360   2.429   3.472   3.952 -1.6939  0.3849  1.1889
  912MOL0     H20361   2.446   3.380   4.111  4.8070  0.4812 -1.3385
  912MOL0     H20362   2.294   3.282   3.870 -1.4415 -0.8639  0.3128
  912MOL0     H20363   2.290   3.220   4.040  0.4715  0.4026  0.8852
  912MOL0     H20364   2.170   3.500   3.967 -0.7190  0.4361  3.5962
  912MOL0     H20365   2.213   3.433   4.124 -0.6353  0.2305 -0.1307
  912MOL0     H20366   3.136   3.195   4.367 -1.0276  2.9875 -1.2986
  912MOL0     H20367   3.362   3.117   4.395 -4.2503  1.8598  0.5068
  912MOL0     H20368   3.698   2.896   4.190  0.6662  1.7570 -2.8457
  912MOL0     H20369   3.915   2.772   4.239  1.4019  1.3281 -1.5538
  912MOL0     H20370   5.516   3.043   5.585  1.3249  2.2193  0.1388
  912MOL0     H20371   5.744   2.992   5.637 -0.0205 -0.3304 -0.4789
  912MOL0     H20372   6.097   2.805   5.594 -2.3249  3.2121 -3.2583
  912MOL0     H20373   6.323   2.712   5.682 -0.9475 -2.1532 -0.8140
  912MOL0     H20374   6.542   2.762   5.759 -0.2927 -0.1947 -0.1139
  912MOL0     H20375   6.697   2.754   5.690  2.0961 -4.0832 -1.2042
  912MOL0     H20376   6.665   2.545   5.788 -0.2772  1.6511  0.9147
  912MOL0     H20377   6.493   2.538   5.750  1.6750 -0.6496  1.6653
  912MOL0     H20378   6.534   2.494   5.514 -1.1801 -1.1930  2.0230
  912MOL0     H20379   6.569   2.366   5.626  0.7045 -1.2331 -0.3934
  912MOL0     H20380   6.788   2.564   5.531  1.6417 -1.1917 -2.0027
  912MOL0     H20381   6.819   2.426   5.641 -2.0742  0.0933  1.2006
  912MOL0     H20382   6.772   2.208   5.284  0.3718  0.2869 -0.9661
  912MOL0     H20383   6.502   2.880   5.328  2.8265 -1.9716  2.0030
  912MOL0     H20384   6.274   2.932   5.235  0.9503 -1.6139 -0.6540
  913MOL0     O20385   7.496   9.239   3.721 -0.0309  0.0236  0.3607
  913MOL0     C20386   7.473   9.232   3.846  0.0545 -1.0744  0.4298
  913MOL0     O20387   7.351   9.255   3.904 -0.1447 -0.4601 -0.4789
  913MOL0     C20388   7.231   9.270   3.834 -0.0265  0.5435 -0.4091
  913MOL0     C20389   7.202   9.276   3.702  0.7971 -0.0185  0.5505
  913MOL0     C20390   7.078   9.319   3.654  0.9337 -0.1390  0.4763
  913MOL0     C20391   6.972   9.366   3.739 -0.4283  0.4380  0.9196
  913MOL0     O20392   6.854   9.412   3.692  0.6869  0.9187  0.3483
  913MOL0     C20393   6.806   9.376   3.564 -0.8601 -0.1616 -1.1346
  913MOL0     C20394   6.669   9.431   3.521  0.3253  0.1388 -0.3434
  913MOL0     C20395   6.630   9.379   3.387 -0.5256 -0.0959 -0.3037
  913MOL0     C20396   6.492   9.428   3.357  0.3482  0.5167 -0.3640
  913MOL0     C20397   6.448   9.388   3.222 -0.1929 -0.2032  0.2347
  913MOL0     C20398   6.303   9.417   3.195 -0.0371 -0.9384 -0.7951
  913MOL0     C20399   6.258   9.405   3.049  0.5641 -1.1164 -0.7130
  913MOL0     C20400   6.260   9.533   2.965 -1.0507 -0.3817 -0.0665
  913MOL0     N20401   6.208   9.655   3.038 -1.1921  0.4499  0.6346
  913MOL0     C20402   6.083   9.674   3.093 -0.3771  0.6722  0.5630
  913MOL0     C20403   6.093   9.777   3.179 -0.3522  0.4068  0.3206
  913MOL0     C20404   5.986   9.862   3.245  0.2663  0.2358  0.0090
  913MOL0     C20405   5.867   9.780   3.272 -0.4200 -0.1296 -0.0054
  913MOL0     C20406   5.761   9.867   3.319  1.0371  0.5141 -0.9019
  913MOL0     C20407   5.631   9.782   3.345 -0.0130  0.5776  0.4200
  913MOL0     O20408   5.531   9.874   3.371  0.1782 -0.6005 -1.3116
  913MOL0     C20409   5.405   9.829   3.377 -0.7374  0.1268  0.7591
  913MOL0     C20410   5.300   9.905   3.319 -0.3112 -0.3803 -0.3988
  913MOL0     C20411   5.167   9.844   3.316 -0.2245  0.1334  0.4102
  913MOL0     C20412   5.140   9.720   3.373  0.4125 -0.6565 -0.5930
  913MOL0     C20413   5.000   9.664   3.356  0.4169  0.3961 -0.5420
  913MOL0     O20414   4.917   9.710   3.258 -0.9729 -0.0516 -0.1239
  913MOL0     C20415   4.789   9.674   3.282  0.1739  0.3349 -1.0626
  913MOL0     C20416   4.726   9.580   3.199 -0.4802  0.4183  0.5856
  913MOL0     C20417   4.589   9.555   3.202 -0.4040  0.4546  0.8894
  913MOL0     C20418   4.510   9.610   3.304  0.6529 -0.2015 -0.2326
  913MOL0     O20419   4.372   9.605   3.319 -0.2679  0.4512  0.6846
  913MOL0     C20420   4.291   9.628   3.204  0.3639 -0.1587  1.2112
  913MOL0     C20421   4.154   9.679   3.249 -0.3757  0.0464  0.2680
  913MOL0     C20422   4.058   9.698   3.133  0.4352  0.4693 -0.0645
  913MOL0     C20423   3.916   9.709   3.184 -0.6087  0.4415 -0.3637
  913MOL0     C20424   3.826   9.739   3.061  0.0753  0.1148 -0.0657
  913MOL0     C20425   3.787   9.611   2.969 -0.1552  0.6519 -0.9894
  913MOL0     C20426   3.719   9.490   3.050  0.6310 -0.8562  0.7151
  913MOL0     C20427   3.610   9.425   2.975  0.2640  0.3483  0.0132
  913MOL0    Cl20428   3.467   9.529   2.980  0.1863  0.3148  0.2174
  913MOL0     C20429   4.573   9.697   3.389 -0.5281 -0.4155  0.4656
  913MOL0     C20430   4.709   9.732   3.381  0.3403  0.2168  0.2645
  913MOL0     O20431   4.969   9.580   3.445  0.0857  0.2554  0.5554
  913MOL0     C20432   5.239   9.662   3.439 -0.5618 -0.6274  0.6972
  913MOL0     C20433   5.365   9.715   3.444 -0.1870  0.1629  0.2782
  913MOL0     N20434   6.228   9.811   3.190 -1.1245  0.0530 -0.4862
  913MOL0     N20435   6.297   9.744   3.101 -0.0228 -0.2741  0.0159
  913MOL0     C20436   7.005   9.367   3.880  0.2648 -0.8812  1.3636
  913MOL0     C20437   7.130   9.317   3.924  0.7468  0.0763  0.2123
  913MOL0     C20438   7.573   9.165   3.925 -0.2113  0.5774 -0.4953
  913MOL0     C20439   7.540   9.094   4.042 -0.4192  0.4684 -0.1396
  913MOL0     C20440   7.639   9.017   4.115 -0.1278 -0.5128  0.3820
  913MOL0     C20441   7.763   9.016   4.066 -0.4055  0.9879 -0.1161
  913MOL0     O20442   7.856   8.940   4.133 -0.2804 -0.2030 -0.1439
  913MOL0     C20443   7.836   8.797   4.119 -0.1449 -0.6231 -0.6995
  913MOL0     C20444   7.816   8.741   3.984  0.7999  0.0106  0.0733
  913MOL0     C20445   7.841   8.590   3.971 -0.6034  0.1517 -0.3436
  913MOL0     C20446   7.725   8.520   4.041 -0.0590  0.0357  0.0678
  913MOL0     C20447   7.594   8.522   3.966 -0.1552 -0.8458 -0.3285
  913MOL0     C20448   7.491   8.527   3.901  1.0454  0.7140  0.6496
  913MOL0     C20449   7.790   9.073   3.944 -0.4941 -0.0144  0.3584
  913MOL0     C20450   7.708   9.158   3.882 -0.3062 -0.3582 -0.4977
  913MOL0     H20451   7.278   9.269   3.625  1.6850  1.3791  1.2514
  913MOL0     H20452   7.078   9.319   3.546 -1.3896  3.7686  0.2912
  913MOL0     H20453   6.801   9.267   3.557  0.4582 -0.1555 -2.6967
  913MOL0     H20454   6.874   9.402   3.483  0.8375 -0.4181  0.1505
  913MOL0     H20455   6.657   9.539   3.517 -1.8032 -0.0196  0.1456
  913MOL0     H20456   6.600   9.398   3.600  2.4820 -1.3169  1.0602
  913MOL0     H20457   6.640   9.270   3.384 -0.3597 -0.2229  2.5387
  913MOL0     H20458   6.700   9.425   3.316 -0.7983 -0.6133 -0.9249
  913MOL0     H20459   6.425   9.374   3.424  1.0134  1.9392  1.5529
  913MOL0     H20460   6.469   9.534   3.371 -0.1056  0.5927 -1.6088
  913MOL0     H20461   6.473   9.282   3.208 -1.8622 -0.6647  0.5850
  913MOL0     H20462   6.511   9.457   3.165 -0.8940 -1.1581 -1.7818
  913MOL0     H20463   6.280   9.514   3.239 -1.9630 -2.8916  2.9668
  913MOL0     H20464   6.239   9.351   3.253 -1.8144 -3.3961 -5.0515
  913MOL0     H20465   6.314   9.318   3.013 -1.8118 -3.3384  0.5972
  913MOL0     H20466   6.153   9.377   3.058  1.3450 -3.4822  3.1520
  913MOL0     H20467   6.196   9.509   2.879 -2.3902 -2.1162  1.3333
  913MOL0     H20468   6.356   9.558   2.919 -0.2740  0.7548  2.0671
  913MOL0     H20469   6.002   9.612   3.054  1.6221 -3.5338  2.4801
  913MOL0     H20470   5.948   9.940   3.178  1.0505  1.2195  0.6839
  913MOL0     H20471   6.017   9.910   3.338  3.8345 -0.9150 -0.4501
  913MOL0     H20472   5.895   9.692   3.331  0.3179 -0.2841 -0.5754
  913MOL0     H20473   5.819   9.742   3.182  1.4945 -0.0174 -1.1181
  913MOL0     H20474   5.790   9.902   3.418 -2.3348 -1.3587  0.9413
  913MOL0     H20475   5.737   9.943   3.244  0.1182  0.4516 -0.6867
  913MOL0     H20476   5.636   9.704   3.422 -1.9051 -0.1421 -0.1133
  913MOL0     H20477   5.604   9.734   3.250 -1.4104  3.4113 -0.7360
  913MOL0     H20478   5.336   9.999   3.277  0.6199 -0.4552  0.1995
  913MOL0     H20479   5.096   9.908   3.266 -1.0459 -2.4614 -2.0130
  913MOL0     H20480   4.784   9.543   3.116  0.2588 -0.0480  1.2979
  913MOL0     H20481   4.542   9.474   3.147  0.6656 -0.7050  1.6480
  913MOL0     H20482   4.275   9.534   3.150 -3.3831 -0.3840  2.4437
  913MOL0     H20483   4.344   9.697   3.137  0.3999  0.4645  1.8747
  913MOL0     H20484   4.180   9.775   3.293  0.3393  0.1270 -0.3099
  913MOL0     H20485   4.114   9.610   3.324 -0.9072  0.0404 -0.0138
  913MOL0     H20486   4.057   9.605   3.075 -3.3415 -0.6833  1.5683
  913MOL0     H20487   4.092   9.781   3.070 -0.6253  1.6101  0.8001
  913MOL0     H20488   3.893   9.618   3.240 -1.8131  0.4261 -0.8395
  913MOL0     H20489   3.908   9.789   3.258  0.7139  0.6486 -0.4274
  913MOL0     H20490   3.867   9.821   3.003 -0.6399  1.0960  0.7797
  913MOL0     H20491   3.733   9.781   3.101  1.7541  2.6210  1.4267
  913MOL0     H20492   3.867   9.575   2.905 -1.2201 -3.7291 -0.1597
  913MOL0     H20493   3.709   9.637   2.896 -1.9771 -1.9441 -0.1330
  913MOL0     H20494   3.788   9.416   3.091  0.5143  0.4900  3.5582
  913MOL0     H20495   3.668   9.536   3.136 -1.0451 -2.7383  0.8118
  913MOL0     H20496   3.580   9.326   3.010  0.1920  0.4962  0.3676
  913MOL0     H20497   3.632   9.414   2.868 -1.7585  2.9781 -0.7937
  913MOL0     H20498   4.506   9.740   3.463  0.1950  0.5610  0.5614
  913MOL0     H20499   4.756   9.802   3.449 -0.9336 -0.1677  1.6056
  913MOL0     H20500   5.218   9.560   3.469  1.5849 -0.5823  2.4956
  913MOL0     H20501   5.443   9.654   3.489 -1.4340 -1.7238 -0.0176
  913MOL0     H20502   6.947   9.411   3.960 -0.0548 -3.0139  2.3751
  913MOL0     H20503   7.147   9.307   4.030 -0.5498 -0.4480  0.3897
  913MOL0     H20504   7.440   9.098   4.084 -0.3780  0.6671 -0.0570
  913MOL0     H20505   7.601   8.970   4.205  3.7134  1.8861  3.5695
  913MOL0     H20506   7.746   8.770   4.174 -0.3389  0.4055 -0.4844
  913MOL0     H20507   7.921   8.750   4.169 -0.6454 -0.4261  0.3601
  913MOL0     H20508   7.716   8.767   3.947 -0.8207 -1.8428  2.8767
  913MOL0     H20509   7.882   8.804   3.923  1.6181 -0.8063  0.1014
  913MOL0     H20510   7.938   8.557   4.010 -0.2456 -0.3455 -1.5673
  913MOL0     H20511   7.839   8.578   3.862 -3.4453  0.1563 -0.3507
  913MOL0     H20512   7.760   8.417   4.045 -0.2982 -0.0029  2.0359
  913MOL0     H20513   7.711   8.561   4.142  2.0623  0.8631  0.0821
  913MOL0     H20514   7.396   8.512   3.854  0.7807  2.3911  0.5658
  913MOL0     H20515   7.883   9.055   3.890  1.7504 -0.3716  3.9924
  913MOL0     H20516   7.751   9.208   3.797 -1.5339 -1.9553 -2.1492
  914MOL0     O20517   4.879   8.704   6.208 -0.1831 -0.7212  0.1267
  914MOL0     C20518   4.933   8.601   6.186  0.6524 -0.5822  0.6073
  914MOL0     O20519   4.883   8.502   6.100  0.1532  0.4145  0.3042
  914MOL0     C20520   4.755   8.496   6.054 -0.3213  1.1164  0.5126
  914MOL0     C20521   4.644   8.566   6.102  1.0092  0.2293  0.2667
  914MOL0     C20522   4.518   8.551   6.039  0.4666 -0.3453  0.3629
  914MOL0     C20523   4.496   8.456   5.934 -0.3486  0.2330  0.0548
  914MOL0     O20524   4.382   8.432   5.873 -0.7494  0.6909  0.4525
  914MOL0     C20525   4.262   8.454   5.940  0.5308  0.0077 -0.7820
  914MOL0     C20526   4.160   8.332   5.938 -0.7773 -0.4026  0.3220
  914MOL0     C20527   4.190   8.233   5.828 -0.0782  0.8165  0.1033
  914MOL0     C20528   4.076   8.116   5.838 -0.1693 -1.0322 -0.3117
  914MOL0     C20529   3.932   8.170   5.819  0.1076 -0.6966 -0.3665
  914MOL0     C20530   3.832   8.052   5.801 -0.0320  0.5542  0.1443
  914MOL0     C20531   3.816   7.947   5.907 -0.6768 -0.2300 -0.5829
  914MOL0     C20532   3.796   7.814   5.827  0.5469 -0.4406  0.3158
  914MOL0     N20533   3.656   7.805   5.789  0.5447 -0.7709 -0.2717
  914MOL0     C20534   3.599   7.813   5.667 -0.5358  0.4293 -0.0799
  914MOL0     C20535   3.469   7.785   5.677 -0.8285  0.1173 -0.0663
  914MOL0     C20536   3.362   7.810   5.574 -0.8082  0.1460  0.8251
  914MOL0     C20537   3.308   7.677   5.518 -0.9535 -0.9085 -0.5363
  914MOL0     C20538   3.193   7.683   5.423 -0.1404 -0.6690 -0.2001
  914MOL0     C20539   3.214   7.595   5.300  0.4903 -0.1257  0.6351
  914MOL0     O20540   3.127   7.640   5.190 -1.3422  0.2871  0.2109
  914MOL0     C20541   3.174   7.655   5.062  0.1183  0.1087  0.1431
  914MOL0     C20542   3.267   7.754   5.031  0.0485  0.3952 -0.0062
  914MOL0     C20543   3.311   7.776   4.897 -0.3681 -0.1112  0.4472
  914MOL0     C20544   3.254   7.715   4.789 -0.0545 -0.4349  0.3909
  914MOL0     C20545   3.315   7.726   4.651 -0.1035 -0.1503  0.1716
  914MOL0     O20546   3.427   7.809   4.629  0.7038  1.4304  0.2134
  914MOL0     C20547   3.478   7.828   4.504  0.1764  0.0326 -0.6353
  914MOL0     C20548   3.612   7.811   4.476  0.3186  0.5371  0.5428
  914MOL0     C20549   3.670   7.831   4.352  0.3617  0.2113 -0.5339
  914MOL0     C20550   3.582   7.889   4.249  0.0157 -0.0029 -0.0011
  914MOL0     O20551   3.619   7.926   4.126 -0.3755  0.3016  0.0524
  914MOL0     C20552   3.758   7.891   4.075  0.5325  0.5647  0.3607
  914MOL0     C20553   3.764   7.842   3.927 -0.0446  0.7780  0.0442
  914MOL0     C20554   3.663   7.729   3.894 -0.0320  1.0662  1.0203
  914MOL0     C20555   3.517   7.778   3.890  0.3741  0.5272  0.3637
  914MOL0     C20556   3.418   7.712   3.789  0.3546  0.1064 -0.4039
  914MOL0     C20557   3.271   7.759   3.830 -0.2357  0.5820  0.3235
  914MOL0     C20558   3.170   7.668   3.755  0.6282 -0.4631  1.0069
  914MOL0     C20559   3.032   7.698   3.798 -0.0510 -0.4698  0.4766
  914MOL0    Cl20560   2.897   7.643   3.684 -0.4022 -0.4397  0.2845
  914MOL0     C20561   3.445   7.907   4.287  0.5126 -0.4463 -0.8616
  914MOL0     C20562   3.390   7.878   4.410  0.4762  0.0847  0.4306
  914MOL0     O20563   3.255   7.670   4.563  0.6134  0.8226  0.5368
  914MOL0     C20564   3.155   7.615   4.820  0.9060  0.4107 -0.0618
  914MOL0     C20565   3.116   7.589   4.952  0.5117  0.2616 -0.6454
  914MOL0     N20566   3.447   7.756   5.811 -0.3816  0.4959  0.2013
  914MOL0     N20567   3.557   7.774   5.876  0.0013  0.0000  0.2506
  914MOL0     C20568   4.600   8.374   5.899  0.4321  0.1437 -0.2159
  914MOL0     C20569   4.727   8.395   5.954 -0.7163 -0.5274 -1.2361
  914MOL0     C20570   5.070   8.564   6.243  0.9560 -0.2602 -0.1469
  914MOL0     C20571   5.145   8.461   6.178 -0.1048 -0.0811 -0.1622
  914MOL0     C20572   5.261   8.416   6.234 -0.8699  0.1098 -0.6584
  914MOL0     C20573   5.316   8.484   6.340  0.1724  0.6426  0.6458
  914MOL0     O20574   5.447   8.453   6.381  0.0087 -0.8422 -0.9548
  914MOL0     C20575   5.534   8.374   6.302 -0.4736  0.0487  0.6501
  914MOL0     C20576   5.681   8.369   6.360 -0.2022 -0.9532 -0.2029
  914MOL0     C20577   5.775   8.309   6.259 -0.5026 -0.1965  0.1510
  914MOL0     C20578   5.923   8.331   6.300 -0.2875 -0.3364 -0.2605
  914MOL0     C20579   6.016   8.307   6.189 -0.5543  0.2281 -0.5274
  914MOL0     C20580   6.097   8.298   6.102 -0.8299 -0.2561  0.5311
  914MOL0     C20581   5.251   8.600   6.392  0.4546 -0.1026  0.7254
  914MOL0     C20582   5.125   8.637   6.344  1.1433 -0.4177 -1.3375
  914MOL0     H20583   4.653   8.638   6.183  0.6359 -1.3263  1.7293
  914MOL0     H20584   4.441   8.624   6.060 -0.2320 -1.0140  0.1779
  914MOL0     H20585   4.211   8.535   5.887  0.2890  0.7693  0.5433
  914MOL0     H20586   4.271   8.484   6.045 -0.6702  0.0932 -0.6855
  914MOL0     H20587   4.064   8.381   5.921 -1.2839 -1.1702  0.8975
  914MOL0     H20588   4.169   8.276   6.032 -0.2026 -3.4546 -1.4313
  914MOL0     H20589   4.292   8.195   5.843  1.0812  4.0908  1.4016
  914MOL0     H20590   4.179   8.286   5.733 -0.3172 -0.2927 -0.5013
  914MOL0     H20591   4.091   8.037   5.763 -1.0537 -1.6790  0.1706
  914MOL0     H20592   4.091   8.064   5.933  0.4832 -2.6003 -1.2118
  914MOL0     H20593   3.932   8.245   5.739  0.4084  1.0600  1.2201
  914MOL0     H20594   3.911   8.220   5.914  2.2159 -0.7820  0.1806
  914MOL0     H20595   3.858   8.019   5.700  0.5311 -3.3252  1.4076
  914MOL0     H20596   3.732   8.097   5.792  0.4296  1.1769 -3.6015
  914MOL0     H20597   3.897   7.939   5.981  0.9308  2.4769 -1.9126
  914MOL0     H20598   3.721   7.959   5.961 -0.7078 -1.1551 -0.4141
  914MOL0     H20599   3.824   7.733   5.895  1.9850  0.3367  0.7142
  914MOL0     H20600   3.860   7.817   5.738  0.7973  1.4327  0.5081
  914MOL0     H20601   3.652   7.844   5.578 -1.6778  1.4062 -0.4448
  914MOL0     H20602   3.398   7.871   5.490  0.6753 -2.1451 -0.3157
  914MOL0     H20603   3.283   7.860   5.630  0.6276  0.6277  2.5175
  914MOL0     H20604   3.263   7.634   5.607 -3.9163 -1.1129 -2.0283
  914MOL0     H20605   3.396   7.625   5.479  1.8585  3.4647 -0.7884
  914MOL0     H20606   3.108   7.639   5.475  0.7615  0.0281  1.9888
  914MOL0     H20607   3.176   7.786   5.390 -1.2892 -1.0798 -0.9799
  914MOL0     H20608   3.193   7.490   5.325  1.8359 -1.0556 -1.7686
  914MOL0     H20609   3.318   7.607   5.268  0.1166  1.6303 -0.0472
  914MOL0     H20610   3.319   7.800   5.115 -1.9819 -2.4360  3.0531
  914MOL0     H20611   3.399   7.832   4.870 -1.6886  1.8239 -0.0292
  914MOL0     H20612   3.659   7.768   4.564 -4.1076 -1.3471  2.2442
  914MOL0     H20613   3.776   7.810   4.349 -0.0391 -1.9939 -3.7511
  914MOL0     H20614   3.793   7.810   4.139 -0.2509 -0.5297 -0.5730
  914MOL0     H20615   3.828   7.975   4.081  1.3299  0.0905 -1.5901
  914MOL0     H20616   3.867   7.810   3.910 -0.1203  0.2174  0.5990
  914MOL0     H20617   3.751   7.936   3.872 -0.0859  2.6528  3.0527
  914MOL0     H20618   3.662   7.647   3.966 -4.1162 -0.8183 -0.8145
  914MOL0     H20619   3.688   7.695   3.793 -0.7530 -0.4371  1.3198
  914MOL0     H20620   3.469   7.771   3.988  0.3560  0.1450  0.3306
  914MOL0     H20621   3.516   7.881   3.853 -2.4150  0.5002  0.1361
  914MOL0     H20622   3.420   7.603   3.793  0.0930  0.0224 -2.0338
  914MOL0     H20623   3.447   7.740   3.687  2.3417 -4.6827 -1.4061
  914MOL0     H20624   3.249   7.861   3.799 -4.2472  0.7513  2.9694
  914MOL0     H20625   3.269   7.748   3.939 -2.1325  1.7375  0.4476
  914MOL0     H20626   3.183   7.689   3.648 -1.6199 -0.3050  0.7327
  914MOL0     H20627   3.195   7.561   3.761  2.0886 -0.4092 -1.9410
  914MOL0     H20628   3.024   7.806   3.813  0.1831 -0.3706 -0.1038
  914MOL0     H20629   3.009   7.646   3.892 -3.5675 -2.0808 -1.1200
  914MOL0     H20630   3.373   7.948   4.216 -1.4776 -0.4710  1.0218
  914MOL0     H20631   3.283   7.895   4.421  0.4741  0.1589  0.3018
  914MOL0     H20632   3.114   7.560   4.736 -2.2955  3.4219 -0.6688
  914MOL0     H20633   3.053   7.503   4.970 -0.0551  0.8185  0.0872
  914MOL0     H20634   4.579   8.298   5.824 -3.1423  2.2261 -1.5803
  914MOL0     H20635   4.805   8.331   5.915 -1.0293 -0.6950 -1.6027
  914MOL0     H20636   5.103   8.407   6.093 -1.7864  0.4847  0.2716
  914MOL0     H20637   5.314   8.332   6.190 -2.2337 -1.0166 -0.2277
  914MOL0     H20638   5.536   8.415   6.200 -1.5654  0.4970  0.8001
  914MOL0     H20639   5.496   8.272   6.302 -1.8329  0.4743 -1.3904
  914MOL0     H20640   5.725   8.468   6.377 -1.9567 -0.0812 -0.5099
  914MOL0     H20641   5.678   8.313   6.454 -1.5101  1.7802  1.5196
  914MOL0     H20642   5.765   8.350   6.158  3.7809  1.4220  0.1987
  914MOL0     H20643   5.748   8.205   6.237  0.8034 -0.5914  0.3476
  914MOL0     H20644   5.945   8.431   6.340 -1.3014 -0.2257  0.0440
  914MOL0     H20645   5.956   8.247   6.362  0.2076 -0.8231 -1.1649
  914MOL0     H20646   6.164   8.284   6.020 -0.3272 -0.1712  0.9216
  914MOL0     H20647   5.300   8.650   6.475  1.5255  0.9615 -0.5004
  914MOL0     H20648   5.080   8.715   6.405 -2.3309 -2.5498 -0.8930
  915MOL0     O20649   0.697   6.041   3.420 -0.3038  0.0655 -0.0339
  915MOL0     C20650   0.636   6.143   3.393  0.5804  1.0017  0.2455
  915MOL0     O20651   0.675   6.243   3.303  0.4136  0.0516  0.2947
  915MOL0     C20652   0.808   6.274   3.292  0.4673 -0.2484 -0.1484
  915MOL0     C20653   0.919   6.194   3.325 -0.5441  0.2319 -0.8283
  915MOL0     C20654   1.050   6.227   3.291  0.6479 -0.6672  0.1199
  915MOL0     C20655   1.081   6.352   3.246 -0.4257  0.1390  0.5132
  915MOL0     O20656   1.201   6.393   3.222 -1.0759 -0.0066  0.7688
  915MOL0     C20657   1.310   6.343   3.303  0.4120 -0.2858  0.6345
  915MOL0     C20658   1.392   6.245   3.217  0.6154  0.3452  0.0043
  915MOL0     C20659   1.500   6.181   3.304 -0.0746  0.8610  0.6073
  915MOL0     C20660   1.574   6.077   3.215 -0.3354  0.0995 -0.0948
  915MOL0     C20661   1.701   6.011   3.291  0.5648  0.4128 -0.2680
  915MOL0     C20662   1.801   6.108   3.358  1.0742 -1.0518  0.8134
  915MOL0     C20663   1.845   6.206   3.246 -0.4428 -0.2737  0.0680
  915MOL0     C20664   1.939   6.133   3.150  0.5025 -0.0771 -0.7492
  915MOL0     N20665   1.993   6.229   3.059 -0.0806 -0.1309  0.2672
  915MOL0     C20666   1.930   6.268   2.944  0.6293  0.7454  0.1075
  915MOL0     C20667   2.003   6.381   2.902  0.6649  0.2727 -0.6623
  915MOL0     C20668   1.948   6.467   2.791 -0.2643 -0.3528  0.1656
  915MOL0     C20669   1.822   6.554   2.825 -0.4959 -0.3278  0.2024
  915MOL0     C20670   1.699   6.487   2.783 -0.7806  0.1668  0.1457
  915MOL0     C20671   1.560   6.554   2.791  0.4205 -0.4549  0.2602
  915MOL0     O20672   1.464   6.464   2.839  0.4465  0.8779 -0.1238
  915MOL0     C20673   1.329   6.488   2.820 -0.3066 -0.2961  0.2901
  915MOL0     C20674   1.274   6.602   2.752  0.3125 -0.1846  0.3288
  915MOL0     C20675   1.135   6.624   2.742 -0.3103  0.5186 -0.7211
  915MOL0     C20676   1.048   6.542   2.817 -0.4083  0.2345 -0.0652
  915MOL0     C20677   0.896   6.555   2.829  0.4777  0.7336  0.2298
  915MOL0     O20678   0.831   6.444   2.886  0.4611 -0.2830  0.4196
  915MOL0     C20679   0.691   6.437   2.903  0.3731  0.5815 -0.3203
  915MOL0     C20680   0.638   6.309   2.932  0.4286 -0.6191  0.3837
  915MOL0     C20681   0.503   6.291   2.957 -0.1995 -0.2622 -1.1110
  915MOL0     C20682   0.412   6.393   2.946  0.6330  0.3331 -0.2359
  915MOL0     O20683   0.277   6.384   2.959  0.2311  0.0765  0.0745
  915MOL0     C20684   0.206   6.260   2.965 -0.4342  1.3868 -0.8752
  915MOL0     C20685   0.202   6.204   3.106  0.6568 -0.9823  0.0548
  915MOL0     C20686   0.082   6.113   3.140  0.1655  0.4643 -0.8073
  915MOL0     C20687   0.082   6.059   3.286 -0.1735 -0.2009  0.3458
  915MOL0     C20688  -0.046   5.999   3.320  0.5353 -0.2774 -0.0885
  915MOL0     C20689  -0.067   5.964   3.467  0.1054 -0.1426 -0.4477
  915MOL0     C20690   0.043   5.864   3.519 -0.1438  0.4064 -0.5448
  915MOL0     C20691  -0.002   5.793   3.652 -0.0987 -0.5080  0.3101
  915MOL0    Cl20692  -0.068   5.623   3.640  0.0565 -0.3152  0.1004
  915MOL0     C20693   0.460   6.522   2.929  0.1900  0.5175  0.0744
  915MOL0     C20694   0.602   6.548   2.905 -0.0275  0.3130 -0.6099
  915MOL0     O20695   0.843   6.646   2.766  0.2234  0.1650  0.1865
  915MOL0     C20696   1.102   6.428   2.882 -0.0262 -0.3573  0.1836
  915MOL0     C20697   1.242   6.401   2.883  0.1702  0.9026 -0.2526
  915MOL0     N20698   2.099   6.410   2.995 -0.1794 -0.4323 -0.1005
  915MOL0     N20699   2.084   6.324   3.093  0.2593  0.2715  0.8553
  915MOL0     C20700   0.975   6.431   3.197 -0.4071 -0.3009 -0.6184
  915MOL0     C20701   0.837   6.399   3.236 -0.3162  0.1478  0.6766
  915MOL0     C20702   0.504   6.155   3.460 -0.4062 -0.0413  0.6327
  915MOL0     C20703   0.471   6.061   3.561  0.2818 -0.9001 -0.0327
  915MOL0     C20704   0.353   6.071   3.632 -0.1720  0.1600  0.1084
  915MOL0     C20705   0.267   6.178   3.607  0.0512 -0.0633  0.0195
  915MOL0     O20706   0.154   6.219   3.673 -0.0845 -0.8588  0.0578
  915MOL0     C20707   0.122   6.154   3.788 -0.6575 -0.4913  0.5433
  915MOL0     C20708   0.006   6.226   3.851  0.4467 -0.2318  0.5235
  915MOL0     C20709  -0.129   6.187   3.791  0.1428  0.2255  0.1090
  915MOL0     C20710  -0.251   6.244   3.862  0.5482 -0.1778  0.0749
  915MOL0     C20711  -0.271   6.204   4.001 -0.2483  0.4883 -0.9565
  915MOL0     C20712  -0.293   6.181   4.122  0.4141 -1.2568  0.1534
  915MOL0     C20713   0.294   6.259   3.499 -0.6813  0.6251  1.1933
  915MOL0     C20714   0.414   6.248   3.423  0.3016 -0.9615  0.4280
  915MOL0     H20715   0.924   6.099   3.377  0.2156 -0.8470 -2.7631
  915MOL0     H20716   1.128   6.162   3.331  3.8282  2.5514 -0.2975
  915MOL0     H20717   1.274   6.291   3.393 -1.2493  1.1404  0.8264
  915MOL0     H20718   1.372   6.430   3.326 -0.1805  0.5207 -0.7545
  915MOL0     H20719   1.435   6.301   3.133  0.3273 -0.6083 -0.7924
  915MOL0     H20720   1.317   6.174   3.183  0.8356 -0.2727  0.8086
  915MOL0     H20721   1.447   6.132   3.386  0.7192 -0.0460  0.5996
  915MOL0     H20722   1.567   6.259   3.341  0.7493 -0.7716  2.7534
  915MOL0     H20723   1.510   5.990   3.199  0.2387 -0.2149 -0.6935
  915MOL0     H20724   1.595   6.121   3.117  1.3165 -1.8219 -0.6785
  915MOL0     H20725   1.744   5.939   3.221 -1.7652 -2.1828  0.7695
  915MOL0     H20726   1.684   5.934   3.368  1.7970 -0.5394 -0.9132
  915MOL0     H20727   1.882   6.053   3.407  2.0013 -1.5404 -1.1656
  915MOL0     H20728   1.759   6.174   3.434  0.4125  2.2240 -2.1255
  915MOL0     H20729   1.762   6.252   3.191 -1.4232 -0.2557  1.5069
  915MOL0     H20730   1.895   6.286   3.303  1.9731 -2.4067  1.1760
  915MOL0     H20731   1.886   6.056   3.092 -2.7247  1.7870 -0.5471
  915MOL0     H20732   2.015   6.080   3.208  0.4500  0.4793 -0.1670
  915MOL0     H20733   1.839   6.236   2.893  0.7462  2.7708 -1.5278
  915MOL0     H20734   1.938   6.403   2.703 -0.0776 -0.9243  0.5526
  915MOL0     H20735   2.025   6.534   2.754  1.5013 -3.1541 -1.6495
  915MOL0     H20736   1.835   6.649   2.773  0.8630  0.0425  1.1725
  915MOL0     H20737   1.817   6.577   2.932 -0.7937  2.6324 -0.3579
  915MOL0     H20738   1.705   6.466   2.676 -1.4706  0.3403  0.0685
  915MOL0     H20739   1.689   6.389   2.829 -1.3582  0.6400  1.0526
  915MOL0     H20740   1.543   6.600   2.693 -2.0038 -1.3851  0.1731
  915MOL0     H20741   1.558   6.619   2.878 -0.7759 -1.7768  1.2780
  915MOL0     H20742   1.322   6.678   2.692  0.3907 -0.4566  0.0437
  915MOL0     H20743   1.098   6.707   2.683 -2.8598  0.4420  0.6413
  915MOL0     H20744   0.709   6.227   2.936  0.6836 -0.4004  0.3891
  915MOL0     H20745   0.459   6.194   2.978 -1.8352  0.6766  0.0817
  915MOL0     H20746   0.262   6.181   2.914 -0.7738 -1.1032  2.3037
  915MOL0     H20747   0.109   6.292   2.926 -0.8137  2.0886  0.5971
  915MOL0     H20748   0.193   6.295   3.167 -1.0934  1.7923 -3.9251
  915MOL0     H20749   0.298   6.153   3.119 -0.1125 -2.5176 -0.0736
  915MOL0     H20750   0.079   6.032   3.067 -0.4044 -0.0568 -0.2155
  915MOL0     H20751  -0.012   6.165   3.118  0.1160  0.6698 -0.1346
  915MOL0     H20752   0.161   5.985   3.301  3.0026  3.2703  2.4979
  915MOL0     H20753   0.101   6.133   3.365  3.8364 -0.6874  0.0543
  915MOL0     H20754  -0.059   5.907   3.262 -1.4632 -0.1278  0.0367
  915MOL0     H20755  -0.125   6.067   3.286  2.2277  1.4263 -0.8069
  915MOL0     H20756  -0.166   5.920   3.481  1.3193 -2.9248 -0.0071
  915MOL0     H20757  -0.065   6.057   3.525 -0.7580 -1.0336  1.0768
  915MOL0     H20758   0.062   5.783   3.449  2.7117 -0.9557  1.6055
  915MOL0     H20759   0.135   5.914   3.549 -1.2320  2.5386 -0.5661
  915MOL0     H20760  -0.080   5.849   3.706  2.0325  0.5647  2.4383
  915MOL0     H20761   0.080   5.784   3.724 -0.1129  3.6121  1.1006
  915MOL0     H20762   0.395   6.608   2.932 -1.8197 -0.8501 -1.6435
  915MOL0     H20763   0.633   6.651   2.890  0.5872 -0.1436 -2.9936
  915MOL0     H20764   1.047   6.349   2.933 -2.0792  0.8737 -0.0249
  915MOL0     H20765   1.282   6.312   2.930  1.5660  1.6652  0.0567
  915MOL0     H20766   0.997   6.521   3.140  3.2233  0.6033  1.8777
  915MOL0     H20767   0.763   6.470   3.200  0.8362  1.5058  0.8926
  915MOL0     H20768   0.548   5.993   3.597 -0.3696 -0.4023  2.5686
  915MOL0     H20769   0.330   6.011   3.720 -3.5141  1.2010  0.1049
  915MOL0     H20770   0.210   6.153   3.853 -1.4925  0.5019  1.7396
  915MOL0     H20771   0.098   6.050   3.765 -0.5121 -0.4258  0.0732
  915MOL0     H20772  -0.000   6.190   3.954 -1.0129 -1.0713  0.1696
  915MOL0     H20773   0.013   6.335   3.852 -2.6685  0.0991 -0.7135
  915MOL0     H20774  -0.127   6.079   3.778  1.0899 -0.0449  2.1648
  915MOL0     H20775  -0.143   6.233   3.692 -0.0566  0.7917  0.3958
  915MOL0     H20776  -0.238   6.352   3.870 -1.5225  0.0527  0.9231
  915MOL0     H20777  -0.340   6.240   3.799  1.5174  3.0670 -1.7293
  915MOL0     H20778  -0.307   6.157   4.226  1.0243  3.5734  1.6135
  915MOL0     H20779   0.228   6.342   3.476 -0.1553  0.8355  0.3887
  915MOL0     H20780   0.434   6.295   3.328 -2.5860 -1.0977 -0.3501
  916MOL0     O20781   0.693   8.011   1.158 -0.3551  0.1777 -0.3348
  916MOL0     C20782   0.607   8.089   1.195  0.2550 -0.5083  0.1248
  916MOL0     O20783   0.608   8.167   1.309  0.5187 -0.0070 -0.4926
  916MOL0     C20784   0.728   8.153   1.387  1.2925 -0.7140 -0.2638
  916MOL0     C20785   0.746   8.043   1.472 -0.1129  0.8903 -0.2536
  916MOL0     C20786   0.878   8.026   1.524  0.2208 -0.2650  0.7855
  916MOL0     C20787   0.980   8.111   1.477 -0.4561 -0.4155 -0.4258
  916MOL0     O20788   1.110   8.080   1.524 -0.0024  0.3870  0.5616
  916MOL0     C20789   1.223   8.142   1.467 -0.7463 -0.5284  0.1556
  916MOL0     C20790   1.351   8.072   1.508 -0.8668 -0.6723 -0.0820
  916MOL0     C20791   1.365   7.934   1.440  0.3283 -0.2495  0.8616
  916MOL0     C20792   1.492   7.860   1.481 -1.0673  0.0764 -1.1504
  916MOL0     C20793   1.543   7.746   1.382  0.9079  0.7388 -0.5695
  916MOL0     C20794   1.616   7.784   1.261 -0.2456 -0.5912 -0.0433
  916MOL0     C20795   1.603   7.696   1.139  0.3738  0.0666 -0.4517
  916MOL0     C20796   1.492   7.741   1.048  0.3038  0.1377 -0.1024
  916MOL0     N20797   1.352   7.698   1.093 -0.4667 -0.5829  0.3607
  916MOL0     C20798   1.258   7.789   1.128  0.4882 -0.1829 -0.9386
  916MOL0     C20799   1.144   7.717   1.146  0.1654 -1.1116  0.1193
  916MOL0     C20800   1.009   7.781   1.169  0.6586  1.4089 -0.3504
  916MOL0     C20801   0.936   7.787   1.040  0.2979 -0.1311 -0.9282
  916MOL0     C20802   0.977   7.894   0.931  0.0765 -0.2326 -0.2636
  916MOL0     C20803   1.002   8.032   0.984 -0.5117  0.1140  0.4136
  916MOL0     O20804   1.001   8.120   0.871 -0.6218  0.5394  0.1161
  916MOL0     C20805   0.892   8.194   0.835 -0.5012 -1.1466  0.1567
  916MOL0     C20806   0.849   8.277   0.940  0.8594 -0.0955  0.7799
  916MOL0     C20807   0.741   8.362   0.915  0.1107  0.0882  0.3709
  916MOL0     C20808   0.667   8.351   0.799 -0.3479  0.7016 -0.7697
  916MOL0     C20809   0.543   8.430   0.782  0.4899 -0.5072 -0.1085
  916MOL0     O20810   0.499   8.512   0.882  0.1936 -0.1151  0.0395
  916MOL0     C20811   0.382   8.585   0.868 -0.1050 -0.8905 -0.4330
  916MOL0     C20812   0.269   8.561   0.942 -0.7173 -0.2468 -0.0294
  916MOL0     C20813   0.149   8.625   0.928  0.2511 -0.4845 -0.3440
  916MOL0     C20814   0.144   8.727   0.840 -0.5718 -0.1897  0.0367
  916MOL0     O20815   0.021   8.782   0.818 -0.4246  0.1269 -0.0273
  916MOL0     C20816  -0.022   8.800   0.681 -0.1535  0.6179  0.5477
  916MOL0     C20817  -0.172   8.842   0.666 -0.2577 -0.5414  0.0086
  916MOL0     C20818  -0.197   8.984   0.714 -0.5710 -0.0940 -0.2211
  916MOL0     C20819  -0.344   9.024   0.688 -0.0610  0.0280 -0.0503
  916MOL0     C20820  -0.361   9.175   0.702 -1.3894 -0.4614 -0.3463
  916MOL0     C20821  -0.504   9.224   0.703  0.2890  0.2060 -0.3830
  916MOL0     C20822  -0.514   9.364   0.766  0.3510 -0.4820  0.5265
  916MOL0     C20823  -0.474   9.487   0.683 -0.2029 -0.4677 -0.4480
  916MOL0    Cl20824  -0.470   9.635   0.791 -0.3033 -0.2220  0.1735
  916MOL0     C20825   0.257   8.763   0.765 -0.2735 -0.1875 -0.2360
  916MOL0     C20826   0.375   8.693   0.774 -0.4792  0.7180 -0.5275
  916MOL0     O20827   0.475   8.400   0.683 -0.8131 -0.9528  0.4572
  916MOL0     C20828   0.711   8.262   0.707  0.0970  0.2903  0.9687
  916MOL0     C20829   0.830   8.191   0.715  0.4944  0.1496  0.3091
  916MOL0     N20830   1.177   7.582   1.132  0.2642 -0.0589 -0.2580
  916MOL0     N20831   1.299   7.571   1.098  0.5778 -0.2332 -0.3893
  916MOL0     C20832   0.948   8.224   1.392  0.0723  0.7531  0.7262
  916MOL0     C20833   0.820   8.248   1.357 -0.2693  0.4539  0.5838
  916MOL0     C20834   0.480   8.102   1.120 -0.3193  0.2658  0.1529
  916MOL0     C20835   0.352   8.123   1.183 -0.4424 -0.8630  0.4209
  916MOL0     C20836   0.238   8.146   1.104  0.2579 -0.6389 -0.2560
  916MOL0     C20837   0.254   8.152   0.966 -0.0847 -0.5871  0.0426
  916MOL0     O20838   0.139   8.178   0.892  0.2031 -0.2509  0.2013
  916MOL0     C20839   0.135   8.277   0.781 -0.4063  0.3484  0.1646
  916MOL0     C20840   0.144   8.185   0.656 -0.6902  0.1522 -0.4660
  916MOL0     C20841   0.182   8.258   0.528 -0.4064  0.5826 -0.3843
  916MOL0     C20842   0.073   8.364   0.502 -0.1973 -0.6823 -1.0832
  916MOL0     C20843  -0.064   8.311   0.487  0.4560  0.1434 -0.1424
  916MOL0     C20844  -0.184   8.284   0.474 -0.0936  0.3907 -0.4817
  916MOL0     C20845   0.379   8.143   0.905  0.9977 -0.1040  0.2027
  916MOL0     C20846   0.492   8.111   0.983  0.6573  0.2600  0.5636
  916MOL0     H20847   0.666   7.977   1.505  0.9869 -0.1699  0.3546
  916MOL0     H20848   0.894   7.940   1.588 -1.3029 -1.7711 -0.7476
  916MOL0     H20849   1.223   8.246   1.502  0.4313 -0.5220  0.1777
  916MOL0     H20850   1.218   8.150   1.358  1.5681 -2.3562 -0.1594
  916MOL0     H20851   1.341   8.064   1.617  0.7907 -1.2510  0.0630
  916MOL0     H20852   1.438   8.135   1.487 -1.7406  1.7337  2.7726
  916MOL0     H20853   1.369   7.950   1.332  0.6444 -1.3146  0.7116
  916MOL0     H20854   1.276   7.875   1.463 -0.6103 -0.0077 -1.7959
  916MOL0     H20855   1.564   7.939   1.505 -3.3349  1.4596  1.6886
  916MOL0     H20856   1.484   7.822   1.583  0.5205  3.9400  0.5904
  916MOL0     H20857   1.458   7.682   1.360 -1.4616  2.8071  1.9020
  916MOL0     H20858   1.608   7.676   1.436  1.2108  1.1639 -0.3760
  916MOL0     H20859   1.721   7.799   1.284 -0.1835  1.2284 -1.3311
  916MOL0     H20860   1.589   7.886   1.234  4.2572  1.6880  2.9023
  916MOL0     H20861   1.693   7.719   1.081 -0.3411 -1.0133 -2.0538
  916MOL0     H20862   1.599   7.590   1.163 -1.0225  0.4524  1.2839
  916MOL0     H20863   1.512   7.710   0.945  0.7716  0.3386 -0.0736
  916MOL0     H20864   1.494   7.850   1.044  4.0311  0.1480 -1.7307
  916MOL0     H20865   1.278   7.895   1.136  0.2122 -0.2246  0.7035
  916MOL0     H20866   1.012   7.877   1.221 -0.6146  0.5471  1.3761
  916MOL0     H20867   0.950   7.716   1.233 -1.3221  2.1381 -1.3690
  916MOL0     H20868   0.832   7.815   1.056 -0.2229 -0.7910 -2.8182
  916MOL0     H20869   0.932   7.692   0.985  1.8036 -0.4643 -0.5026
  916MOL0     H20870   1.069   7.866   0.877  1.0104  3.1724 -0.6334
  916MOL0     H20871   0.895   7.893   0.859 -1.4982  0.6708  1.4538
  916MOL0     H20872   1.101   8.042   1.029 -0.6812  2.0725  0.4287
  916MOL0     H20873   0.931   8.058   1.064  0.1658  2.2983  0.3727
  916MOL0     H20874   0.905   8.294   1.031  0.5208 -2.1295  1.4180
  916MOL0     H20875   0.699   8.421   0.996 -2.8032  0.8129 -1.5146
  916MOL0     H20876   0.271   8.472   1.006 -1.0940 -2.0863 -2.4468
  916MOL0     H20877   0.069   8.596   0.995  1.5544 -0.4743  1.3071
  916MOL0     H20878  -0.019   8.706   0.624 -3.8786  1.9587 -2.2505
  916MOL0     H20879   0.047   8.869   0.631 -0.2287  0.0408 -0.3793
  916MOL0     H20880  -0.230   8.770   0.725 -1.0576  0.0347 -0.0741
  916MOL0     H20881  -0.196   8.841   0.559  3.8623 -1.2317 -1.0823
  916MOL0     H20882  -0.124   9.042   0.657  2.0662 -2.1407  0.8453
  916MOL0     H20883  -0.171   8.982   0.821 -0.7374 -2.3813 -0.1706
  916MOL0     H20884  -0.367   8.983   0.589 -2.5448 -1.2562  0.9801
  916MOL0     H20885  -0.406   8.967   0.757  1.9539  0.8392  2.6312
  916MOL0     H20886  -0.295   9.236   0.639 -1.2562 -0.3574 -0.1093
  916MOL0     H20887  -0.312   9.201   0.797 -1.3690  0.2293 -0.5385
  916MOL0     H20888  -0.557   9.153   0.766  2.1953 -1.2135 -0.2737
  916MOL0     H20889  -0.549   9.220   0.604  3.2818 -0.1007 -1.8400
  916MOL0     H20890  -0.620   9.376   0.789 -0.4203 -2.4704 -1.6198
  916MOL0     H20891  -0.459   9.357   0.861  0.6080 -3.0071  0.2703
  916MOL0     H20892  -0.542   9.501   0.598 -2.0563 -0.8488  0.9071
  916MOL0     H20893  -0.370   9.477   0.652  0.1434  1.5788 -0.1183
  916MOL0     H20894   0.262   8.847   0.697  4.1968  0.3256  0.4499
  916MOL0     H20895   0.466   8.719   0.722 -0.2016  0.7367 -0.0416
  916MOL0     H20896   0.647   8.254   0.620  2.3127 -0.4750 -0.6817
  916MOL0     H20897   0.851   8.116   0.640 -0.2479  0.7655 -0.5420
  916MOL0     H20898   1.023   8.294   1.358  1.5166  0.0934  2.4143
  916MOL0     H20899   0.798   8.331   1.290  0.1664  0.3555  0.3164
  916MOL0     H20900   0.330   8.110   1.288  0.1075 -0.3331  0.6051
  916MOL0     H20901   0.141   8.167   1.149  0.5101 -1.2980  0.6311
  916MOL0     H20902   0.222   8.343   0.791 -0.1616 -0.1560  1.6505
  916MOL0     H20903   0.039   8.327   0.790  0.0419  1.3133 -0.2877
  916MOL0     H20904   0.225   8.114   0.674 -1.2052 -0.4888 -0.6451
  916MOL0     H20905   0.055   8.121   0.657  1.0703 -2.7787  4.2220
  916MOL0     H20906   0.197   8.191   0.442 -1.4246  0.6089 -0.5925
  916MOL0     H20907   0.283   8.300   0.538 -1.1958  2.6492 -0.7020
  916MOL0     H20908   0.076   8.444   0.576  1.3569 -1.9738  0.3386
  916MOL0     H20909   0.097   8.421   0.412  1.7441  0.9497  0.3729
  916MOL0     H20910  -0.287   8.253   0.480  0.5244 -1.8801 -0.4408
  916MOL0     H20911   0.389   8.173   0.801 -1.7374  1.6593  0.3389
  916MOL0     H20912   0.591   8.115   0.939 -0.1843  1.2408 -1.3486
  917MOL0     O20913   6.797  10.087   8.270  0.5339  0.1800 -0.3620
  917MOL0     C20914   6.873   9.998   8.291 -0.5696  0.6894 -0.3916
  917MOL0     O20915   6.860   9.905   8.398 -0.5875  0.0345  0.1047
  917MOL0     C20916   6.746   9.915   8.465  0.5101 -0.1375  0.8838
  917MOL0     C20917   6.621   9.884   8.403  0.6278  0.0104  0.7899
  917MOL0     C20918   6.501   9.919   8.467 -0.4049 -0.8123 -0.7266
  917MOL0     C20919   6.501   9.967   8.600  0.1683  0.6050  0.4612
  917MOL0     O20920   6.382   9.990   8.659  0.3995 -0.2226  0.7269
  917MOL0     C20921   6.370  10.058   8.780  0.5876 -0.2027 -0.0008
  917MOL0     C20922   6.226  10.063   8.807 -0.8201  0.2512 -0.4255
  917MOL0     C20923   6.148  10.123   8.685  0.0214  0.1724  0.6536
  917MOL0     C20924   5.999  10.108   8.701 -0.1180  0.0795 -0.1473
  917MOL0     C20925   5.912  10.153   8.577  0.0255  0.0471 -0.2513
  917MOL0     C20926   5.915  10.044   8.472 -0.4539  0.6086  0.5469
  917MOL0     C20927   5.846  10.094   8.347 -0.2631  0.2356 -0.1174
  917MOL0     C20928   5.938  10.189   8.275 -0.2018 -1.0920 -0.2065
  917MOL0     N20929   5.871  10.237   8.156 -0.2812  1.7494 -0.5491
  917MOL0     C20930   5.759  10.315   8.148  0.5345 -0.4290 -0.2461
  917MOL0     C20931   5.746  10.338   8.016  0.4071 -0.2447 -1.0029
  917MOL0     C20932   5.636  10.415   7.951 -0.5120 -1.2012 -0.0124
  917MOL0     C20933   5.704  10.513   7.856 -0.2390 -0.3489  0.3536
  917MOL0     C20934   5.602  10.596   7.780 -0.2183  1.1587  0.8386
  917MOL0     C20935   5.559  10.513   7.654 -0.9048 -0.7727  0.6482
  917MOL0     O20936   5.452  10.583   7.595 -0.2165 -0.0307 -0.3219
  917MOL0     C20937   5.321  10.562   7.638  0.3357 -0.0393  0.2192
  917MOL0     C20938   5.291  10.483   7.747 -0.5182  0.4042  0.6262
  917MOL0     C20939   5.158  10.456   7.793 -0.2088  0.9471 -0.1819
  917MOL0     C20940   5.048  10.522   7.734 -0.2461  0.3440  0.1349
  917MOL0     C20941   4.911  10.523   7.790  0.0376  1.1176  0.7919
  917MOL0     O20942   4.878  10.422   7.877 -0.2614  1.2469  0.6000
  917MOL0     C20943   4.777  10.448   7.969 -0.1035  1.0051 -0.6465
  917MOL0     C20944   4.758  10.563   8.039 -0.8456 -0.2704 -1.4295
  917MOL0     C20945   4.668  10.572   8.143 -0.3656 -0.4813  0.0435
  917MOL0     C20946   4.581  10.469   8.168  0.8364 -0.0558 -0.5034
  917MOL0     O20947   4.487  10.473   8.268  0.1834  0.0078  0.0903
  917MOL0     C20948   4.395  10.588   8.257  0.6649  0.3778 -0.9040
  917MOL0     C20949   4.278  10.554   8.355  0.7126 -0.4542 -0.0532
  917MOL0     C20950   4.316  10.560   8.505  1.3441  0.2327 -0.6261
  917MOL0     C20951   4.195  10.510   8.586  0.2889  0.1592  0.4549
  917MOL0     C20952   4.218  10.526   8.738  0.7047 -1.1397 -0.6574
  917MOL0     C20953   4.132  10.432   8.828 -1.0823  0.9630  0.4909
  917MOL0     C20954   4.115  10.474   8.974 -0.0137 -0.0394  0.6569
  917MOL0     C20955   4.016  10.391   9.054 -0.3116 -0.6924  0.5124
  917MOL0    Cl20956   4.045  10.217   9.047 -0.2255  0.3241  0.1322
  917MOL0     C20957   4.576  10.357   8.080  0.3308  0.4867  0.4097
  917MOL0     C20958   4.678  10.342   7.988 -0.5973  0.4802 -0.3305
  917MOL0     O20959   4.840  10.613   7.764 -0.7529 -0.2808  0.2667
  917MOL0     C20960   5.085  10.600   7.624  0.3134  0.8082  0.1720
  917MOL0     C20961   5.215  10.620   7.572  0.4115  0.1370 -0.1513
  917MOL0     N20962   5.852  10.283   7.952 -0.1644 -1.4729  0.2608
  917MOL0     N20963   5.935  10.231   8.039  0.0640  0.3300  0.5442
  917MOL0     C20964   6.623   9.989   8.660  0.7334 -0.2510 -0.1429
  917MOL0     C20965   6.743   9.971   8.594  0.3239  0.3434 -0.7034
  917MOL0     C20966   6.976   9.969   8.197  0.6656  0.4070 -0.1326
  917MOL0     C20967   7.055   9.857   8.206  0.4849 -0.3653 -0.0460
  917MOL0     C20968   7.160   9.831   8.119  0.6015 -0.0622  0.3018
  917MOL0     C20969   7.188   9.931   8.021  1.0969 -0.0796  0.4445
  917MOL0     O20970   7.296   9.915   7.944  0.1738  0.1740 -0.0219
  917MOL0     C20971   7.402  10.006   7.957 -0.9574 -0.7257  0.4093
  917MOL0     C20972   7.529   9.940   8.011  0.3275  0.1096 -0.0958
  917MOL0     C20973   7.637   9.898   7.909 -0.2598  0.3702 -0.1301
  917MOL0     C20974   7.716  10.017   7.863 -0.5286 -0.7573 -0.2858
  917MOL0     C20975   7.826   9.980   7.770  0.6473 -0.3500  0.4971
  917MOL0     C20976   7.913   9.965   7.690 -1.0814  0.7141  0.4686
  917MOL0     C20977   7.090  10.029   8.007  0.1290 -0.3032  0.6460
  917MOL0     C20978   6.988  10.050   8.094 -0.2432 -0.7825  0.7000
  917MOL0     H20979   6.625   9.834   8.307  1.5507 -0.2375  0.9416
  917MOL0     H20980   6.401   9.896   8.432 -1.5842  0.0039  1.8302
  917MOL0     H20981   6.406  10.161   8.780  0.2627 -0.0780 -0.9997
  917MOL0     H20982   6.421  10.005   8.861 -0.0529  0.7798  1.0768
  917MOL0     H20983   6.203  10.118   8.899 -0.9724  0.4500 -0.5824
  917MOL0     H20984   6.205   9.958   8.833  0.6973 -0.7923 -3.0356
  917MOL0     H20985   6.181  10.068   8.597  0.3682  1.8382 -0.3044
  917MOL0     H20986   6.181  10.225   8.662 -0.8383 -0.0277 -1.7504
  917MOL0     H20987   5.968  10.006   8.725 -1.8217 -0.2704 -3.2788
  917MOL0     H20988   5.982  10.176   8.785  0.7835 -0.1643  0.2459
  917MOL0     H20989   5.959  10.243   8.535  1.5400 -1.9855 -3.3125
  917MOL0     H20990   5.810  10.181   8.604  0.5900  1.9820  0.0534
  917MOL0     H20991   5.864   9.953   8.503  2.2618 -1.1622  0.2263
  917MOL0     H20992   6.018  10.011   8.454 -0.9684 -2.5545  2.6873
  917MOL0     H20993   5.823  10.007   8.284  1.2378 -0.2537 -0.0553
  917MOL0     H20994   5.749  10.141   8.360 -0.9755 -1.0310 -0.6635
  917MOL0     H20995   6.034  10.145   8.250  1.6163  1.8519  1.0917
  917MOL0     H20996   5.948  10.277   8.339 -1.6728 -1.2421  0.2782
  917MOL0     H20997   5.690  10.340   8.228  1.6231 -0.1376  0.6126
  917MOL0     H20998   5.579  10.463   8.031  1.6128 -1.6814  1.9049
  917MOL0     H20999   5.572  10.341   7.902  0.3135 -2.2545  0.4689
  917MOL0     H21000   5.770  10.462   7.786 -1.6987 -1.2233 -0.4187
  917MOL0     H21001   5.768  10.583   7.913 -1.4856  1.6339 -0.5650
  917MOL0     H21002   5.521  10.617   7.849  0.4501  1.4101  1.5643
  917MOL0     H21003   5.646  10.690   7.744  1.1314  0.4819  0.6491
  917MOL0     H21004   5.533  10.412   7.688  1.6192 -1.4046  0.9351
  917MOL0     H21005   5.640  10.500   7.582 -0.6875 -1.4191  1.0009
  917MOL0     H21006   5.363  10.416   7.791 -0.0631  0.9540  0.7267
  917MOL0     H21007   5.145  10.393   7.881  1.8310  2.0067  0.9428
  917MOL0     H21008   4.822  10.651   8.033 -1.6048  0.3826 -0.2585
  917MOL0     H21009   4.681  10.660   8.204  0.8445 -0.9353  0.4808
  917MOL0     H21010   4.354  10.598   8.156  1.8132  0.0742 -1.4158
  917MOL0     H21011   4.440  10.684   8.282  0.3006  0.1919  0.5236
  917MOL0     H21012   4.226  10.459   8.336  1.6102 -0.8678 -0.4971
  917MOL0     H21013   4.200  10.630   8.346  1.3525  0.1118 -0.9908
  917MOL0     H21014   4.329  10.665   8.533 -2.6246  1.4208 -2.4057
  917MOL0     H21015   4.402  10.500   8.534  1.5406  0.4486 -0.7579
  917MOL0     H21016   4.106  10.566   8.557 -0.7364 -0.3280  2.4778
  917MOL0     H21017   4.183  10.403   8.565 -1.0962 -0.2355  2.8269
  917MOL0     H21018   4.197  10.629   8.767 -2.2567 -1.9644  0.4907
  917MOL0     H21019   4.326  10.513   8.752  1.0469  1.4542 -0.3917
  917MOL0     H21020   4.175  10.331   8.828  1.1832  1.8540  2.0828
  917MOL0     H21021   4.035  10.429   8.777  0.3245  0.2725 -2.3821
  917MOL0     H21022   4.211  10.483   9.025 -0.0604  1.0845  0.5838
  917MOL0     H21023   4.088  10.579   8.964  0.2502 -0.0805 -0.8109
  917MOL0     H21024   3.921  10.412   9.003  1.6128  1.1988 -2.6065
  917MOL0     H21025   4.018  10.430   9.157  0.7374  0.7686 -0.0426
  917MOL0     H21026   4.498  10.284   8.096  0.4565  0.0602 -0.7600
  917MOL0     H21027   4.676  10.248   7.934 -0.9319 -0.7308  1.6463
  917MOL0     H21028   5.002  10.643   7.567 -0.3179  0.6593  0.9681
  917MOL0     H21029   5.227  10.683   7.485 -1.8004 -0.5549 -1.0138
  917MOL0     H21030   6.624  10.016   8.765  1.2713  0.7421 -0.3838
  917MOL0     H21031   6.832   9.993   8.652 -0.6543 -0.0339  1.0211
  917MOL0     H21032   7.043   9.794   8.294  0.3224  1.0130  0.9488
  917MOL0     H21033   7.221   9.742   8.130  0.7828 -0.5180 -3.2269
  917MOL0     H21034   7.368  10.084   8.026  1.2467  0.1433  0.5947
  917MOL0     H21035   7.438  10.053   7.865 -0.3596  1.4328  1.6872
  917MOL0     H21036   7.581  10.008   8.079  1.6976 -2.9151  2.0925
  917MOL0     H21037   7.497   9.854   8.070 -1.9228  0.6242 -0.4537
  917MOL0     H21038   7.584   9.847   7.827 -0.6193  3.6739 -2.1371
  917MOL0     H21039   7.703   9.827   7.959 -0.3488  2.0164  2.4801
  917MOL0     H21040   7.650  10.096   7.825  1.3969  2.4660  2.5031
  917MOL0     H21041   7.760  10.068   7.948 -2.3058 -0.7219  0.6668
  917MOL0     H21042   8.012   9.940   7.655 -1.7969 -1.3984 -0.2005
  917MOL0     H21043   7.108  10.091   7.920 -0.2767  0.6516  1.2263
  917MOL0     H21044   6.926  10.139   8.088 -0.1281 -0.3704  3.9788
  918MOL0     O21045   0.609   0.250   8.874  0.5117 -0.1849  0.2870
  918MOL0     C21046   0.672   0.277   8.776 -0.0373 -0.4256  0.1479
  918MOL0     O21047   0.707   0.178   8.682  0.1245 -0.8648 -0.1157
  918MOL0     C21048   0.683   0.050   8.717 -0.5788 -0.1866  0.7770
  918MOL0     C21049   0.748  -0.006   8.831 -0.0488  0.0239 -0.4308
  918MOL0     C21050   0.732  -0.139   8.855 -0.1823  0.2405 -0.2950
  918MOL0     C21051   0.646  -0.222   8.775 -0.0553 -0.0026 -0.0954
  918MOL0     O21052   0.645  -0.352   8.799 -1.3555 -1.2736  0.0657
  918MOL0     C21053   0.634  -0.448   8.688 -0.3520  0.2955 -1.0521
  918MOL0     C21054   0.743  -0.432   8.591 -0.1553 -0.8606 -0.0238
  918MOL0     C21055   0.886  -0.471   8.649  0.6730 -0.1419 -1.1851
  918MOL0     C21056   0.995  -0.478   8.539  0.0831 -0.8163  0.3367
  918MOL0     C21057   1.129  -0.514   8.598  0.3231 -0.0554 -0.3028
  918MOL0     C21058   1.195  -0.404   8.689  0.7858 -0.0536 -0.2781
  918MOL0     C21059   1.200  -0.271   8.624  0.2802 -0.1415  0.8054
  918MOL0     C21060   1.297  -0.183   8.708  0.5017  0.6215  0.7660
  918MOL0     N21061   1.308  -0.045   8.662  0.0666 -0.3356 -0.0302
  918MOL0     C21062   1.341  -0.012   8.536  0.4370  0.1493  0.2761
  918MOL0     C21063   1.361   0.124   8.539 -0.2813  0.5462  0.3884
  918MOL0     C21064   1.396   0.212   8.423  1.2113 -0.2064  1.6135
  918MOL0     C21065   1.546   0.220   8.392  0.2356  0.4096 -0.0150
  918MOL0     C21066   1.586   0.115   8.287  0.1017 -0.3456 -0.0568
  918MOL0     C21067   1.737   0.103   8.284 -0.0902  0.9165 -0.0426
  918MOL0     O21068   1.799   0.221   8.233 -0.1080  0.6875 -0.6250
  918MOL0     C21069   1.933   0.221   8.199  0.9925 -0.9021  0.4385
  918MOL0     C21070   1.987   0.352   8.210  0.7217 -0.1050 -0.4055
  918MOL0     C21071   2.119   0.371   8.176 -0.9795  0.0457  0.7628
  918MOL0     C21072   2.199   0.258   8.127 -0.0600 -0.9464  0.1913
  918MOL0     C21073   2.334   0.282   8.064 -0.0453  0.0478 -0.3083
  918MOL0     O21074   2.417   0.170   8.057  1.0756  0.1506 -0.4373
  918MOL0     C21075   2.548   0.199   8.066 -0.7636  1.1140  0.5327
  918MOL0     C21076   2.602   0.290   8.150  0.0661  0.0483  1.1603
  918MOL0     C21077   2.736   0.323   8.142  0.2020  0.5176 -1.2541
  918MOL0     C21078   2.827   0.261   8.057  0.4063  0.1226  0.1501
  918MOL0     O21079   2.955   0.298   8.060 -0.4978  0.6501 -0.4103
  918MOL0     C21080   3.038   0.274   7.940 -0.0697  0.5462 -0.3403
  918MOL0     C21081   3.190   0.309   7.979  0.5371  0.4487 -0.2375
  918MOL0     C21082   3.210   0.453   8.039  0.0512  0.7353  1.4692
  918MOL0     C21083   3.208   0.559   7.930  0.2616 -0.1189 -1.3128
  918MOL0     C21084   3.249   0.690   8.000 -0.2754 -1.1506  0.3348
  918MOL0     C21085   3.250   0.799   7.890  0.4929  0.3016  0.2227
  918MOL0     C21086   3.268   0.944   7.933  0.3440  0.2309  0.2035
  918MOL0     C21087   3.279   1.044   7.819 -0.0851  0.1370 -0.3764
  918MOL0    Cl21088   3.420   1.036   7.718 -0.1652  0.0163  0.0701
  918MOL0     C21089   2.770   0.157   7.976  0.7232  0.2459  0.8599
  918MOL0     C21090   2.638   0.123   7.988 -0.1150 -0.2468  0.4873
  918MOL0     O21091   2.368   0.398   8.042 -0.3563  0.4851  0.4935
  918MOL0     C21092   2.143   0.133   8.114 -0.5233 -0.0122 -0.2748
  918MOL0     C21093   2.011   0.116   8.154  0.1641  0.0610 -0.2057
  918MOL0     N21094   1.331   0.169   8.670 -0.1210 -0.4740  0.3405
  918MOL0     N21095   1.305   0.069   8.746  0.5885  0.4159 -0.0135
  918MOL0     C21096   0.571  -0.162   8.673 -0.4775 -1.0673 -0.2511
  918MOL0     C21097   0.585  -0.023   8.645  0.8512  0.2278  0.4546
  918MOL0     C21098   0.691   0.416   8.745  0.4171 -0.3173 -0.1615
  918MOL0     C21099   0.732   0.444   8.621 -0.1472 -0.6239  0.6360
  918MOL0     C21100   0.736   0.570   8.569 -1.2366  0.2931 -0.0295
  918MOL0     C21101   0.698   0.672   8.655  0.6661  0.4140  0.5336
  918MOL0     O21102   0.689   0.806   8.624  0.6124  0.2663  0.2014
  918MOL0     C21103   0.807   0.860   8.565 -0.2475 -0.8935  0.9283
  918MOL0     C21104   0.771   0.942   8.440  0.5571 -0.1068 -0.0410
  918MOL0     C21105   0.901   0.964   8.358  0.2393  0.2789  0.3256
  918MOL0     C21106   0.922   0.844   8.252 -0.4002 -0.8921  0.6282
  918MOL0     C21107   0.810   0.832   8.164  0.3096 -0.1810  0.1290
  918MOL0     C21108   0.718   0.826   8.085  0.5161 -0.8651 -0.5314
  918MOL0     C21109   0.644   0.639   8.777  0.3452 -0.1746 -0.3387
  918MOL0     C21110   0.631   0.510   8.820  0.0697 -0.3870 -0.1814
  918MOL0     H21111   0.816   0.044   8.899  0.7775 -1.4753 -0.1156
  918MOL0     H21112   0.774  -0.198   8.936  3.3016  0.4085 -1.8026
  918MOL0     H21113   0.534  -0.444   8.644 -2.1818  1.8077  2.7440
  918MOL0     H21114   0.639  -0.544   8.739 -2.3438  0.6793 -0.0560
  918MOL0     H21115   0.739  -0.334   8.542  1.7532 -1.3286 -1.2484
  918MOL0     H21116   0.732  -0.508   8.513  3.0132 -0.8980 -0.5872
  918MOL0     H21117   0.887  -0.569   8.697  2.9825  0.9397  1.2426
  918MOL0     H21118   0.920  -0.407   8.731  0.4615  0.2623 -1.4094
  918MOL0     H21119   0.972  -0.559   8.469 -2.3050  1.5917 -1.8794
  918MOL0     H21120   0.994  -0.388   8.477 -1.1676 -1.3325 -0.4400
  918MOL0     H21121   1.207  -0.537   8.525  0.9021 -0.6364  0.4793
  918MOL0     H21122   1.113  -0.608   8.652  1.5814  1.2151  2.4838
  918MOL0     H21123   1.292  -0.438   8.725  1.2992  1.3545 -0.2677
  918MOL0     H21124   1.129  -0.393   8.776 -0.2280 -0.6529 -0.9538
  918MOL0     H21125   1.220  -0.265   8.517  2.1799  0.9809  1.1768
  918MOL0     H21126   1.099  -0.230   8.630  1.3894  2.7363  1.3778
  918MOL0     H21127   1.389  -0.243   8.707 -0.6322 -1.2218  1.2579
  918MOL0     H21128   1.253  -0.184   8.808 -1.6912  1.2922 -0.1369
  918MOL0     H21129   1.359  -0.090   8.463  0.9799 -1.9126  2.4756
  918MOL0     H21130   1.360   0.312   8.449  1.4653 -0.1420  1.7259
  918MOL0     H21131   1.338   0.188   8.333  0.0199  1.2374  1.9436
  918MOL0     H21132   1.604   0.204   8.484 -0.7900  2.7506  1.1200
  918MOL0     H21133   1.566   0.322   8.359  2.1936  0.2063  0.4251
  918MOL0     H21134   1.522   0.029   8.310 -2.9012  1.4062 -1.2321
  918MOL0     H21135   1.553   0.139   8.185  0.2462  0.5435  0.1040
  918MOL0     H21136   1.774   0.016   8.229 -0.1678 -0.0286  1.3363
  918MOL0     H21137   1.778   0.079   8.383  2.1266 -0.1906 -1.1613
  918MOL0     H21138   1.921   0.433   8.240 -0.6845 -0.9978 -0.9990
  918MOL0     H21139   2.158   0.471   8.162  3.4347 -1.7969 -2.4398
  918MOL0     H21140   2.530   0.347   8.209 -0.3783 -1.0227  1.6908
  918MOL0     H21141   2.772   0.397   8.213 -1.7247  2.6872 -2.4020
  918MOL0     H21142   2.988   0.329   7.860  0.8618  0.6936 -0.8375
  918MOL0     H21143   3.029   0.169   7.914  0.9428  0.6944 -1.3239
  918MOL0     H21144   3.245   0.282   7.889 -1.6959 -4.9125 -0.3631
  918MOL0     H21145   3.214   0.230   8.051  0.1936 -1.6482 -2.3120
  918MOL0     H21146   3.304   0.457   8.093  0.9027 -1.0226  0.2038
  918MOL0     H21147   3.135   0.494   8.108 -0.4864  2.9364 -0.2791
  918MOL0     H21148   3.285   0.532   7.857  3.1211  1.7041  0.8229
  918MOL0     H21149   3.108   0.571   7.887  0.8174  3.0068 -1.9566
  918MOL0     H21150   3.344   0.677   8.052  1.1346 -2.6617 -2.4081
  918MOL0     H21151   3.168   0.720   8.067 -2.0006 -0.3719 -2.0030
  918MOL0     H21152   3.153   0.799   7.841 -0.2937 -3.4434  1.4530
  918MOL0     H21153   3.330   0.774   7.819 -0.7210  2.5185 -2.1015
  918MOL0     H21154   3.188   0.976   7.999  1.6180  1.9848  0.9703
  918MOL0     H21155   3.366   0.942   7.981  1.0758 -1.8855 -1.2236
  918MOL0     H21156   3.277   1.140   7.870  2.1011 -1.3933  2.9186
  918MOL0     H21157   3.190   1.025   7.758  1.5054 -1.8224 -2.2906
  918MOL0     H21158   2.830   0.103   7.903 -0.0234  0.8645 -0.2361
  918MOL0     H21159   2.601   0.037   7.933 -1.3995  1.2544 -1.0818
  918MOL0     H21160   2.202   0.050   8.077  0.6272  1.5266 -1.9939
  918MOL0     H21161   1.971   0.017   8.136 -0.4872  0.1036  0.9046
  918MOL0     H21162   0.514  -0.223   8.602 -0.6441 -0.9510 -0.2187
  918MOL0     H21163   0.544   0.007   8.549 -0.6458 -1.5185  0.4897
  918MOL0     H21164   0.759   0.371   8.546  0.2933  1.4153 -1.2907
  918MOL0     H21165   0.763   0.583   8.465 -0.3905 -1.9096 -0.1379
  918MOL0     H21166   0.883   0.783   8.548  1.5614  1.0632 -0.2875
  918MOL0     H21167   0.853   0.930   8.634 -0.2762 -0.8895  0.9431
  918MOL0     H21168   0.694   0.900   8.376  0.3607 -4.8784  2.8831
  918MOL0     H21169   0.726   1.037   8.473 -2.1289 -0.9134 -1.1266
  918MOL0     H21170   0.988   0.976   8.424 -0.1905  1.0043  0.7658
  918MOL0     H21171   0.897   1.051   8.292  0.6852 -0.6860 -1.0134
  918MOL0     H21172   1.010   0.879   8.197  0.0187 -0.4945  1.5217
  918MOL0     H21173   0.942   0.748   8.301 -1.4023 -0.5098  1.8406
  918MOL0     H21174   0.635   0.818   8.018  0.7176  0.9328 -1.0512
  918MOL0     H21175   0.604   0.721   8.836  1.5797 -0.1253  0.4636
  918MOL0     H21176   0.591   0.484   8.918  1.2783  0.4521  0.5533
  919MOL0     O21177   8.048  11.270   8.538 -0.9385 -0.2895 -0.1496
  919MOL0     C21178   8.053  11.166   8.463 -0.2700  0.1886 -0.4493
  919MOL0     O21179   7.940  11.099   8.411 -0.0074  0.6496  0.1357
  919MOL0     C21180   7.813  11.145   8.437 -0.2909 -0.5355  0.3281
  919MOL0     C21181   7.709  11.065   8.484 -0.2367 -0.6997 -0.1549
  919MOL0     C21182   7.575  11.109   8.486  0.3535  0.1614  0.4462
  919MOL0     C21183   7.539  11.236   8.443  0.3347  0.5543 -0.2197
  919MOL0     O21184   7.408  11.269   8.460  0.0635  0.1630 -0.6130
  919MOL0     C21185   7.354  11.389   8.401  0.3592  1.0476  0.6433
  919MOL0     C21186   7.228  11.435   8.466  0.6089 -0.0852 -0.3866
  919MOL0     C21187   7.247  11.556   8.564 -0.0946  0.0380  0.7231
  919MOL0     C21188   7.305  11.684   8.487 -0.3300  0.1869 -0.0899
  919MOL0     C21189   7.391  11.775   8.583 -0.5978 -0.5077 -0.7841
  919MOL0     C21190   7.530  11.721   8.599  0.6723 -0.1418 -0.1587
  919MOL0     C21191   7.602  11.809   8.696 -0.0066 -0.7995  0.3390
  919MOL0     C21192   7.735  11.744   8.741  0.0968  0.4142 -0.6161
  919MOL0     N21193   7.860  11.775   8.672  0.5918 -0.0082 -0.5234
  919MOL0     C21194   7.935  11.686   8.595  0.6793 -0.6701 -0.2598
  919MOL0     C21195   8.054  11.749   8.571 -0.1973 -0.1024 -0.0277
  919MOL0     C21196   8.146  11.679   8.485  0.1939  0.4632  0.0330
  919MOL0     C21197   8.240  11.582   8.556  0.1279 -0.1708  0.0528
  919MOL0     C21198   8.321  11.520   8.452  0.1898  0.1060  0.0243
  919MOL0     C21199   8.466  11.469   8.498  1.0218 -0.2989 -0.0098
  919MOL0     O21200   8.545  11.589   8.471  0.4598  0.3070  0.2024
  919MOL0     C21201   8.684  11.580   8.481  0.2313  0.5089 -0.2873
  919MOL0     C21202   8.756  11.485   8.561  0.5761 -0.2711 -0.8131
  919MOL0     C21203   8.896  11.489   8.561  0.0942 -1.0469  0.2457
  919MOL0     C21204   8.964  11.599   8.491 -0.3875 -0.0213  0.3189
  919MOL0     C21205   9.109  11.610   8.496 -0.3728  0.5590 -0.4913
  919MOL0     O21206   9.168  11.708   8.416 -0.0529 -0.4083  0.7270
  919MOL0     C21207   9.303  11.722   8.389 -0.6364 -0.9254  0.0435
  919MOL0     C21208   9.389  11.615   8.381 -0.0721  0.3745 -0.7562
  919MOL0     C21209   9.529  11.630   8.357  0.2802 -0.4312  0.4730
  919MOL0     C21210   9.572  11.759   8.323 -0.4673 -0.3006 -0.3119
  919MOL0     O21211   9.696  11.778   8.281 -0.2175 -0.4833  0.5264
  919MOL0     C21212   9.790  11.666   8.262 -0.2830 -0.5588  0.3593
  919MOL0     C21213   9.939  11.696   8.215  0.5374  0.5746  0.9050
  919MOL0     C21214  10.028  11.580   8.213 -0.0789  1.2516 -0.2680
  919MOL0     C21215  10.154  11.608   8.130  0.0877  0.5409 -0.2792
  919MOL0     C21216  10.256  11.693   8.203 -0.1759  0.0530 -0.4763
  919MOL0     C21217  10.380  11.691   8.127  0.7652  0.2064  0.2624
  919MOL0     C21218  10.505  11.747   8.205  0.0428 -0.4006  0.9564
  919MOL0     C21219  10.633  11.722   8.124 -0.1480  0.9401  0.1701
  919MOL0    Cl21220  10.670  11.537   8.092  0.5065 -0.5646  0.2374
  919MOL0     C21221   9.493  11.871   8.342  0.2844  0.3242  0.1848
  919MOL0     C21222   9.354  11.851   8.377 -0.0659  0.9843 -0.1010
  919MOL0     O21223   9.173  11.524   8.560 -0.8153  0.0564  0.2891
  919MOL0     C21224   8.893  11.695   8.422 -0.1279 -0.2289  0.5814
  919MOL0     C21225   8.758  11.687   8.420 -0.0988  0.3244 -0.0156
  919MOL0     N21226   8.059  11.871   8.631 -0.2320 -0.8739  0.1484
  919MOL0     N21227   7.943  11.885   8.685 -0.7572 -0.3052 -0.9451
  919MOL0     C21228   7.640  11.314   8.385  0.1995 -0.1642  0.6804
  919MOL0     C21229   7.776  11.272   8.392 -0.9339 -0.2866  0.9913
  919MOL0     C21230   8.180  11.124   8.409  0.2923  0.5799 -0.7355
  919MOL0     C21231   8.182  11.060   8.289  0.1148  0.2086  0.3616
  919MOL0     C21232   8.314  11.015   8.236 -0.4897 -0.2259 -0.2978
  919MOL0     C21233   8.434  11.015   8.312  0.6753 -1.0136 -0.2345
  919MOL0     O21234   8.553  10.959   8.273  0.0125  1.3104 -0.1193
  919MOL0     C21235   8.555  10.858   8.172  0.2658 -1.0276 -0.9897
  919MOL0     C21236   8.684  10.781   8.168 -0.1801  0.1332  0.6996
  919MOL0     C21237   8.796  10.886   8.143 -0.2442 -0.2634 -0.5628
  919MOL0     C21238   8.941  10.812   8.131  0.3484 -0.4701  0.1388
  919MOL0     C21239   8.948  10.711   8.028  0.7217 -0.4063 -0.2368
  919MOL0     C21240   8.958  10.644   7.932  0.2997  0.0640 -0.0627
  919MOL0     C21241   8.420  11.093   8.423  0.2242  0.7684  0.0458
  919MOL0     C21242   8.294  11.139   8.477 -0.4789 -0.4977  0.1653
  919MOL0     H21243   7.740  10.964   8.510  0.7719  0.1169  2.0060
  919MOL0     H21244   7.502  11.037   8.522  0.5722 -0.5378 -0.4816
  919MOL0     H21245   7.328  11.363   8.297  2.0353  0.4306  0.3543
  919MOL0     H21246   7.434  11.464   8.400  0.4585  0.9858 -1.6769
  919MOL0     H21247   7.178  11.347   8.509  2.0368 -0.4520  0.6062
  919MOL0     H21248   7.172  11.473   8.381  1.5979 -0.3808 -1.1921
  919MOL0     H21249   7.324  11.525   8.635  0.6825 -0.7033 -0.4059
  919MOL0     H21250   7.153  11.581   8.613 -0.3541 -0.8190  0.6891
  919MOL0     H21251   7.356  11.657   8.394 -3.0766  0.7230 -1.8916
  919MOL0     H21252   7.224  11.752   8.457  1.2971  3.2780  1.9518
  919MOL0     H21253   7.333  11.765   8.675 -0.4762 -0.1872 -0.6718
  919MOL0     H21254   7.399  11.871   8.532  1.9203 -0.5583 -0.6129
  919MOL0     H21255   7.585  11.706   8.506  1.1219 -0.3985  0.1414
  919MOL0     H21256   7.513  11.624   8.647 -1.3128  0.4234  0.3667
  919MOL0     H21257   7.626  11.903   8.645 -3.6931 -0.5184 -1.2123
  919MOL0     H21258   7.536  11.839   8.778  2.6971  0.4533  2.2076
  919MOL0     H21259   7.728  11.635   8.751  1.5372  0.4340  1.0154
  919MOL0     H21260   7.741  11.782   8.843 -1.9370  0.4316 -0.4490
  919MOL0     H21261   7.924  11.582   8.565 -0.4579 -0.4229 -0.7618
  919MOL0     H21262   8.210  11.752   8.434  0.3160 -1.1191 -2.2265
  919MOL0     H21263   8.089  11.627   8.407  2.4892 -0.8883 -0.8815
  919MOL0     H21264   8.181  11.502   8.604 -0.2421 -0.9329 -1.6135
  919MOL0     H21265   8.306  11.632   8.627 -0.3542  0.2167  0.2349
  919MOL0     H21266   8.267  11.432   8.414 -0.7605  1.1382 -1.1296
  919MOL0     H21267   8.333  11.583   8.363  0.3053  0.2517  0.1445
  919MOL0     H21268   8.503  11.389   8.433 -0.5153 -0.5280 -0.6316
  919MOL0     H21269   8.480  11.435   8.601  0.1658 -2.1161 -0.4633
  919MOL0     H21270   8.695  11.421   8.623 -2.7595  3.1439 -0.2014
  919MOL0     H21271   8.952  11.413   8.614  0.6586 -0.5475  0.3881
  919MOL0     H21272   9.347  11.515   8.391 -2.1513  1.3484  1.1050
  919MOL0     H21273   9.591  11.542   8.373  0.2699 -0.3109  1.2003
  919MOL0     H21274   9.759  11.586   8.194  2.7868 -1.1742 -0.4564
  919MOL0     H21275   9.813  11.615   8.356  2.5452 -0.7576 -0.3496
  919MOL0     H21276   9.984  11.780   8.269 -0.9034  1.6418  0.5302
  919MOL0     H21277   9.925  11.725   8.110  3.0035 -0.4779  0.2266
  919MOL0     H21278   9.978  11.495   8.166  3.6827 -0.1641 -2.1055
  919MOL0     H21279  10.050  11.550   8.316  3.6243 -0.9739 -1.4890
  919MOL0     H21280  10.184  11.507   8.101 -2.0945  0.1683 -1.3997
  919MOL0     H21281  10.120  11.660   8.040 -1.0644  0.1116 -0.1073
  919MOL0     H21282  10.286  11.645   8.296  2.4010 -0.5365 -1.5196
  919MOL0     H21283  10.235  11.800   8.211 -0.1896  0.0515 -0.4936
  919MOL0     H21284  10.366  11.752   8.038  1.2664  0.3031  0.2467
  919MOL0     H21285  10.395  11.582   8.123 -0.5439 -0.0249  1.0211
  919MOL0     H21286  10.499  11.856   8.218 -0.7624 -0.4884  1.3992
  919MOL0     H21287  10.513  11.701   8.304  1.3098  0.3536  1.2154
  919MOL0     H21288  10.716  11.765   8.181 -1.1198 -0.1396  2.5282
  919MOL0     H21289  10.639  11.763   8.023 -1.4839  1.1625  0.1689
  919MOL0     H21290   9.533  11.971   8.334 -0.6945  0.8666  1.4779
  919MOL0     H21291   9.280  11.930   8.388 -1.7787 -0.1652 -2.4661
  919MOL0     H21292   8.935  11.776   8.363  1.3310  1.1267  3.2695
  919MOL0     H21293   8.692  11.760   8.373  1.4878  0.7237 -1.7397
  919MOL0     H21294   7.634  11.419   8.359 -0.3194 -0.8929 -2.6037
  919MOL0     H21295   7.849  11.337   8.346 -1.9511  2.6759  3.2484
  919MOL0     H21296   8.094  11.027   8.234 -0.2884  2.7547 -0.6506
  919MOL0     H21297   8.322  10.958   8.143 -1.7003 -0.0656 -0.5203
  919MOL0     H21298   8.546  10.920   8.082 -0.6000 -0.8371 -0.7901
  919MOL0     H21299   8.470  10.788   8.172 -1.7061  1.1750 -3.0690
  919MOL0     H21300   8.706  10.728   8.262 -0.4148  1.3139  1.4419
  919MOL0     H21301   8.687  10.713   8.082  1.8507 -1.9003  2.2447
  919MOL0     H21302   8.806  10.956   8.226  2.5521 -0.9623 -0.2169
  919MOL0     H21303   8.774  10.938   8.049 -1.7966  2.4295  1.1735
  919MOL0     H21304   9.019  10.887   8.116 -1.0688  1.0907  0.1969
  919MOL0     H21305   8.958  10.759   8.225 -2.2807 -0.6795  0.5949
  919MOL0     H21306   8.966  10.578   7.848  0.3880 -0.3456  0.2628
  919MOL0     H21307   8.505  11.109   8.488 -0.6582  0.0264  1.4367
  919MOL0     H21308   8.304  11.194   8.571 -0.2226  1.0506 -0.7251
  920MOL0     O21309   8.044   5.876   6.798 -0.0391 -0.7162 -0.1524
  920MOL0     C21310   8.039   5.980   6.727 -0.5962 -0.5088 -0.2270
  920MOL0     O21311   7.928   6.053   6.698  0.6751  0.2538  0.1343
  920MOL0     C21312   7.824   6.101   6.786  0.7238  0.0565 -0.1561
  920MOL0     C21313   7.813   6.063   6.913  0.3153  0.6102  0.0429
  920MOL0     C21314   7.714   6.099   6.998  1.4649 -0.2857 -0.2114
  920MOL0     C21315   7.624   6.198   6.964 -0.7292  0.0589  0.5272
  920MOL0     O21316   7.523   6.251   7.049  0.1102 -0.1507  0.5028
  920MOL0     C21317   7.558   6.288   7.180  0.2050  0.0950  0.5050
  920MOL0     C21318   7.430   6.291   7.265 -0.0238 -0.0237 -0.3099
  920MOL0     C21319   7.331   6.398   7.219  0.1218 -0.5013 -0.3759
  920MOL0     C21320   7.199   6.395   7.304 -0.3676  0.0310  0.6344
  920MOL0     C21321   7.089   6.469   7.222 -0.4678 -0.1605 -0.0107
  920MOL0     C21322   6.960   6.474   7.305  0.4070  0.3809 -0.6785
  920MOL0     C21323   6.865   6.592   7.261 -0.7241  0.0042  0.2183
  920MOL0     C21324   6.755   6.592   7.358  0.4199 -0.0846 -0.1207
  920MOL0     N21325   6.655   6.696   7.340  0.2957 -0.7711  0.2912
  920MOL0     C21326   6.670   6.816   7.275 -1.2913 -0.1001 -0.6401
  920MOL0     C21327   6.548   6.870   7.260 -0.4473 -0.2236  0.3734
  920MOL0     C21328   6.524   7.007   7.196  0.9264  0.8093 -0.5363
  920MOL0     C21329   6.380   7.072   7.214  0.7304  0.0770 -0.1826
  920MOL0     C21330   6.275   7.014   7.121  0.2683  0.3424 -0.1119
  920MOL0     C21331   6.151   7.100   7.095 -0.4755 -0.7245  0.0347
  920MOL0     O21332   6.064   7.025   7.012 -0.3919  0.4811  0.1453
  920MOL0     C21333   5.946   7.080   6.971  0.1365  0.4391  0.3368
  920MOL0     C21334   5.895   7.211   6.992 -0.0042 -1.4930  0.0629
  920MOL0     C21335   5.764   7.240   6.945 -0.4725 -0.2512  0.6062
  920MOL0     C21336   5.691   7.150   6.872 -0.0224 -0.0554 -0.3257
  920MOL0     C21337   5.555   7.182   6.834  0.1440  0.4656  0.2978
  920MOL0     O21338   5.495   7.288   6.911 -0.8076  0.4895  0.5315
  920MOL0     C21339   5.366   7.319   6.897  0.3405  0.4124 -0.2884
  920MOL0     C21340   5.326   7.453   6.909  0.4418  0.2438  0.1415
  920MOL0     C21341   5.196   7.500   6.894  0.1127  0.2127 -0.3351
  920MOL0     C21342   5.097   7.406   6.860 -0.7557  0.6738  0.3159
  920MOL0     O21343   4.977   7.461   6.833  0.4642 -0.4805 -0.2698
  920MOL0     C21344   4.858   7.381   6.812 -0.2934  1.0810 -0.1776
  920MOL0     C21345   4.726   7.454   6.808 -0.0427 -0.2115  0.4978
  920MOL0     C21346   4.609   7.361   6.798  0.5074  0.1684 -0.2669
  920MOL0     C21347   4.482   7.439   6.777 -0.5769 -0.1928 -0.0803
  920MOL0     C21348   4.353   7.368   6.811  0.4142 -0.0105 -0.0735
  920MOL0     C21349   4.247   7.473   6.830  0.1731  1.2780  0.4140
  920MOL0     C21350   4.128   7.398   6.884  0.6451  0.2128  0.4571
  920MOL0     C21351   4.024   7.363   6.781 -0.1539 -0.7001  0.5666
  920MOL0    Cl21352   3.910   7.502   6.769  0.1721 -0.1353  0.3973
  920MOL0     C21353   5.130   7.270   6.858  0.2576 -0.6229  0.2879
  920MOL0     C21354   5.260   7.231   6.863  0.0332 -0.0349  0.0794
  920MOL0     O21355   5.505   7.126   6.730 -0.4757  0.2130 -0.4237
  920MOL0     C21356   5.738   7.020   6.856  1.2259  0.6219  0.3147
  920MOL0     C21357   5.868   6.990   6.898 -0.3332 -0.1376  0.4483
  920MOL0     N21358   6.458   6.785   7.311  0.1999  0.0616 -0.5897
  920MOL0     N21359   6.524   6.675   7.354  0.8328  0.0157  0.3499
  920MOL0     C21360   7.630   6.248   6.827  0.1601 -0.4428 -0.8227
  920MOL0     C21361   7.725   6.195   6.741 -0.5278  0.0764 -0.6407
  920MOL0     C21362   8.156   6.011   6.642 -0.7424 -0.7379 -0.3670
  920MOL0     C21363   8.286   5.957   6.673  0.4229  0.3422  0.8220
  920MOL0     C21364   8.406   6.009   6.626  0.0657 -0.3629 -0.2142
  920MOL0     C21365   8.405   6.100   6.517 -0.0939 -0.7985  0.4078
  920MOL0     O21366   8.514   6.159   6.467 -0.0760  0.7615 -0.5462
  920MOL0     C21367   8.608   6.195   6.563 -0.6398 -0.1728 -0.2233
  920MOL0     C21368   8.551   6.320   6.638 -0.4856 -0.2274 -0.1860
  920MOL0     C21369   8.659   6.383   6.728 -0.3482  0.7599  0.0666
  920MOL0     C21370   8.644   6.310   6.864 -0.4289 -0.0360  0.7700
  920MOL0     C21371   8.745   6.355   6.950  0.5391 -0.4634  1.0226
  920MOL0     C21372   8.840   6.387   7.020 -0.6827 -0.6386  0.1219
  920MOL0     C21373   8.278   6.147   6.477  0.3755 -0.7321  0.1009
  920MOL0     C21374   8.157   6.109   6.536  0.3914 -1.0935 -0.6688
  920MOL0     H21375   7.898   6.013   6.959 -0.2691  2.4896  3.5521
  920MOL0     H21376   7.710   6.065   7.101 -0.4145  0.4688 -0.0037
  920MOL0     H21377   7.606   6.387   7.182  0.5547  0.1589 -3.3679
  920MOL0     H21378   7.624   6.211   7.221  0.0842 -1.7574 -2.4941
  920MOL0     H21379   7.440   6.326   7.368 -1.0498 -3.1692  0.9789
  920MOL0     H21380   7.385   6.192   7.273  0.9120 -0.2801  3.6550
  920MOL0     H21381   7.306   6.359   7.120 -0.0548 -4.5816  1.1024
  920MOL0     H21382   7.370   6.499   7.204 -1.2620 -0.2103 -2.4055
  920MOL0     H21383   7.170   6.289   7.306  3.3429 -1.1215  1.3718
  920MOL0     H21384   7.218   6.439   7.402  1.1165  0.0163  0.3780
  920MOL0     H21385   7.082   6.404   7.135  0.6307  0.1654 -0.3689
  920MOL0     H21386   7.128   6.564   7.185  0.0932  0.0942  1.1805
  920MOL0     H21387   6.977   6.466   7.413  0.4547  0.0645 -0.7099
  920MOL0     H21388   6.899   6.389   7.273 -1.9629  2.6968 -2.9283
  920MOL0     H21389   6.929   6.680   7.273 -0.9710 -0.0442  2.4493
  920MOL0     H21390   6.823   6.600   7.160 -1.7817  2.4717  0.7512
  920MOL0     H21391   6.795   6.587   7.460 -0.8141 -1.7030  0.3094
  920MOL0     H21392   6.697   6.500   7.346 -1.2685  0.9930 -0.5499
  920MOL0     H21393   6.762   6.862   7.240  0.0746 -0.4548  2.1598
  920MOL0     H21394   6.535   7.003   7.087 -2.2176  1.1910 -0.9525
  920MOL0     H21395   6.592   7.074   7.249 -0.7085 -0.6137  3.8051
  920MOL0     H21396   6.396   7.179   7.196  0.8067  0.6013  2.6265
  920MOL0     H21397   6.343   7.059   7.316  2.1389 -3.6065  0.0319
  920MOL0     H21398   6.314   6.981   7.024 -3.2852 -0.0892 -1.5471
  920MOL0     H21399   6.249   6.924   7.177  1.4303  0.6278  0.9068
  920MOL0     H21400   6.184   7.191   7.044 -1.6587 -1.7325 -2.6881
  920MOL0     H21401   6.106   7.117   7.194 -1.5756  0.4584 -0.6361
  920MOL0     H21402   5.963   7.276   7.046  4.1959 -2.8669 -3.0700
  920MOL0     H21403   5.718   7.336   6.968  2.2012  0.4723  3.7002
  920MOL0     H21404   5.408   7.513   6.948  0.9024 -1.7530  2.4689
  920MOL0     H21405   5.168   7.603   6.911 -1.3893 -0.3473  0.8243
  920MOL0     H21406   4.869   7.305   6.890 -1.0124  2.6780  1.5474
  920MOL0     H21407   4.866   7.322   6.720 -0.3230 -1.6127  1.4321
  920MOL0     H21408   4.749   7.510   6.716  1.1803 -1.2661  0.1324
  920MOL0     H21409   4.717   7.521   6.894  0.2967 -0.4948  0.7598
  920MOL0     H21410   4.596   7.300   6.888  0.8173 -1.5766 -1.3618
  920MOL0     H21411   4.620   7.296   6.711  0.0069 -2.3323  1.4367
  920MOL0     H21412   4.489   7.522   6.848  0.9984 -0.5945  0.2777
  920MOL0     H21413   4.474   7.478   6.676 -0.9911  1.6522  0.6270
  920MOL0     H21414   4.362   7.316   6.907  0.1525 -0.7989 -0.4622
  920MOL0     H21415   4.318   7.302   6.731 -1.1728  0.0678  0.5180
  920MOL0     H21416   4.225   7.529   6.739  1.4543 -0.2704 -0.9255
  920MOL0     H21417   4.277   7.537   6.913  0.0457 -0.9291  2.2730
  920MOL0     H21418   4.158   7.304   6.933 -0.6060  0.4087  1.6844
  920MOL0     H21419   4.084   7.452   6.968 -1.9977  0.8939 -1.2363
  920MOL0     H21420   3.964   7.276   6.808 -1.0402 -0.5977 -0.9781
  920MOL0     H21421   4.078   7.355   6.686  0.3092 -1.8677  0.9069
  920MOL0     H21422   5.069   7.183   6.836  2.7045 -2.9494  2.1587
  920MOL0     H21423   5.276   7.127   6.835 -1.3130  0.2007 -1.7320
  920MOL0     H21424   5.677   6.950   6.799 -0.6249  2.3758  0.0375
  920MOL0     H21425   5.917   6.897   6.871 -0.7002  0.2109 -1.6141
  920MOL0     H21426   7.559   6.324   6.797  1.2828  1.2409  0.5957
  920MOL0     H21427   7.717   6.215   6.635 -1.3085 -0.2729 -0.6546
  920MOL0     H21428   8.295   5.878   6.746  2.0939  0.3904  0.6953
  920MOL0     H21429   8.489   5.958   6.675 -1.4728 -3.4306 -0.5406
  920MOL0     H21430   8.698   6.218   6.504 -0.9478 -1.3127 -1.1887
  920MOL0     H21431   8.650   6.119   6.629  2.2364 -0.1819 -1.8657
  920MOL0     H21432   8.509   6.397   6.572 -1.4822 -2.6462 -2.5487
  920MOL0     H21433   8.465   6.288   6.696 -0.8022  0.4417 -0.2746
  920MOL0     H21434   8.626   6.487   6.739 -2.8706  0.2114 -1.5990
  920MOL0     H21435   8.761   6.371   6.689 -1.4007 -3.0500 -2.0052
  920MOL0     H21436   8.548   6.342   6.906 -0.8585  0.5321 -0.5831
  920MOL0     H21437   8.648   6.202   6.852  1.8686 -0.0322  1.1482
  920MOL0     H21438   8.927   6.414   7.076 -1.9998  1.2992  1.4113
  920MOL0     H21439   8.270   6.221   6.398 -2.6803 -0.7692  0.2431
  920MOL0     H21440   8.062   6.159   6.521  0.8816 -0.7290 -2.9042
  921MOL0     O21441   4.828   2.179   0.949 -0.3421 -0.1374  0.1001
  921MOL0     C21442   4.819   2.050   0.946 -0.1271 -0.2838  0.7744
  921MOL0     O21443   4.732   1.978   0.874 -0.0801  0.4297  0.8174
  921MOL0     C21444   4.622   2.039   0.811  0.1466 -0.2829  0.5058
  921MOL0     C21445   4.512   2.084   0.890  0.6356 -0.0978  0.2535
  921MOL0     C21446   4.391   2.142   0.836 -0.3975  0.7370  0.5323
  921MOL0     C21447   4.374   2.154   0.701  0.3909  0.1401 -0.6583
  921MOL0     O21448   4.244   2.200   0.661  0.4612  0.0811 -0.7560
  921MOL0     C21449   4.209   2.203   0.524 -0.2699 -0.8263 -0.4729
  921MOL0     C21450   4.098   2.298   0.504 -0.5354  0.2460  0.0085
  921MOL0     C21451   4.069   2.338   0.365  0.9379 -0.7445  0.6770
  921MOL0     C21452   3.967   2.449   0.357  0.3166 -0.1553 -0.1842
  921MOL0     C21453   3.976   2.531   0.226  0.2063  0.0552  0.1232
  921MOL0     C21454   3.876   2.649   0.223  0.0851 -0.9921  0.4741
  921MOL0     C21455   3.822   2.679   0.076  0.2508 -0.4231  0.0523
  921MOL0     C21456   3.796   2.829   0.039  0.5309  0.0873 -0.1127
  921MOL0     N21457   3.849   2.855  -0.094 -0.6571  0.1823  0.2114
  921MOL0     C21458   3.985   2.846  -0.125 -0.4386 -0.6286 -0.1782
  921MOL0     C21459   3.985   2.887  -0.248  0.5703 -0.4636  0.4274
  921MOL0     C21460   4.106   2.906  -0.345 -0.5451  0.2477 -0.0663
  921MOL0     C21461   4.232   2.975  -0.280  0.2960 -0.1649  0.0019
  921MOL0     C21462   4.203   3.127  -0.260 -1.0342  0.6994 -0.5039
  921MOL0     C21463   4.324   3.199  -0.196  0.0447 -0.6707 -0.5658
  921MOL0     O21464   4.428   3.212  -0.292 -0.3203 -0.1263  1.0472
  921MOL0     C21465   4.518   3.324  -0.282 -1.3641 -0.0649  0.1779
  921MOL0     C21466   4.651   3.289  -0.310 -0.4301 -0.5921 -0.0637
  921MOL0     C21467   4.761   3.378  -0.280 -0.9664  0.2414  0.0349
  921MOL0     C21468   4.735   3.504  -0.227 -0.5976  0.8437 -0.9878
  921MOL0     C21469   4.849   3.587  -0.181 -0.0454  0.4435  0.0338
  921MOL0     O21470   4.981   3.549  -0.197 -0.1519  0.4610 -0.3888
  921MOL0     C21471   5.083   3.633  -0.174 -0.4949  0.4101  0.1731
  921MOL0     C21472   5.093   3.738  -0.256 -0.1640  0.3810  0.1211
  921MOL0     C21473   5.199   3.831  -0.256  0.2462  0.2230 -0.6095
  921MOL0     C21474   5.301   3.803  -0.175  0.3566  0.3339 -0.3487
  921MOL0     O21475   5.410   3.889  -0.171 -0.6083 -0.2686 -0.7104
  921MOL0     C21476   5.540   3.831  -0.160 -0.8375  0.2065  0.0946
  921MOL0     C21477   5.640   3.941  -0.137  1.3314  0.1862 -0.2621
  921MOL0     C21478   5.613   4.015  -0.006 -1.2338 -0.2004  0.3574
  921MOL0     C21479   5.712   4.140  -0.003 -0.6158  0.3925  0.1641
  921MOL0     C21480   5.865   4.095  -0.003 -0.9061 -0.8243 -0.3086
  921MOL0     C21481   5.958   4.223   0.015  0.0394  0.4783  0.1051
  921MOL0     C21482   6.111   4.191  -0.002  0.3456  0.6683  0.0772
  921MOL0     C21483   6.207   4.296   0.052 -0.5460 -1.0626  0.3604
  921MOL0    Cl21484   6.231   4.427  -0.075 -0.4825 -0.0019 -0.3617
  921MOL0     C21485   5.290   3.684  -0.085 -0.1943 -0.7517 -0.2614
  921MOL0     C21486   5.176   3.609  -0.083 -1.0493 -0.5552 -0.2846
  921MOL0     O21487   4.821   3.682  -0.114 -0.5556  0.0270 -0.9062
  921MOL0     C21488   4.600   3.544  -0.207  0.4977 -0.4950 -0.0580
  921MOL0     C21489   4.487   3.452  -0.228 -0.2788  0.0355 -0.1418
  921MOL0     N21490   3.851   2.898  -0.303 -0.3044 -0.2107  0.3388
  921MOL0     N21491   3.772   2.883  -0.205 -0.1310  0.2220  0.6085
  921MOL0     C21492   4.481   2.110   0.614  0.0379  0.0839  1.1335
  921MOL0     C21493   4.607   2.046   0.671  0.0257 -1.1033 -0.1695
  921MOL0     C21494   4.932   1.975   1.000  0.1145 -0.3304  0.2941
  921MOL0     C21495   4.925   1.847   1.052 -0.0971 -0.6327  0.2076
  921MOL0     C21496   5.042   1.790   1.103  0.0163 -0.2301  0.3819
  921MOL0     C21497   5.159   1.863   1.103 -0.5449  0.1721 -0.0338
  921MOL0     O21498   5.280   1.807   1.156  0.7653 -0.2573  1.2120
  921MOL0     C21499   5.318   1.844   1.288  0.1171 -0.6534 -0.8665
  921MOL0     C21500   5.455   1.911   1.279  0.0405  0.8642 -0.6530
  921MOL0     C21501   5.555   1.799   1.272  0.1633 -0.4618 -0.0460
  921MOL0     C21502   5.691   1.840   1.325 -1.0370  0.4372 -0.4195
  921MOL0     C21503   5.756   1.928   1.226 -0.1711  0.5540  0.4192
  921MOL0     C21504   5.814   1.985   1.136  1.0228  0.0470  0.9183
  921MOL0     C21505   5.158   1.996   1.076 -0.4903  0.3823  0.2791
  921MOL0     C21506   5.046   2.048   1.011  0.6327 -0.3366 -0.0970
  921MOL0     H21507   4.523   2.062   0.996 -0.7031  0.1120  0.4559
  921MOL0     H21508   4.307   2.173   0.897 -1.4025 -0.7497 -0.0553
  921MOL0     H21509   4.183   2.101   0.495  1.1185 -1.5190  0.5636
  921MOL0     H21510   4.295   2.239   0.467 -1.8408 -1.8211 -3.6547
  921MOL0     H21511   4.132   2.386   0.561  1.3107  0.1722 -0.9154
  921MOL0     H21512   4.012   2.254   0.556 -0.2016  2.6816  2.9571
  921MOL0     H21513   4.028   2.259   0.302  2.5122 -1.4050  0.4380
  921MOL0     H21514   4.164   2.366   0.320  0.5401 -0.1999  0.1703
  921MOL0     H21515   3.861   2.424   0.372 -0.1875  1.2662 -1.1916
  921MOL0     H21516   3.990   2.521   0.436 -0.4123  0.6666 -0.7054
  921MOL0     H21517   3.939   2.459   0.153 -1.5186 -2.3070  3.0801
  921MOL0     H21518   4.080   2.559   0.208  1.3101 -2.9099  1.2862
  921MOL0     H21519   3.918   2.741   0.266  1.7343 -2.1466  1.4370
  921MOL0     H21520   3.795   2.637   0.295  0.7808 -0.4964  1.3586
  921MOL0     H21521   3.894   2.638   0.004 -0.1010  0.6567 -0.9399
  921MOL0     H21522   3.734   2.616   0.061 -0.0665 -0.1656  0.7889
  921MOL0     H21523   3.832   2.897   0.117 -0.4396  1.3845 -0.7561
  921MOL0     H21524   3.689   2.852   0.040  0.6147  0.4874  0.0220
  921MOL0     H21525   4.066   2.815  -0.059 -0.3067 -0.1271 -0.1045
  921MOL0     H21526   4.071   2.962  -0.432  2.1368  0.6596 -0.9669
  921MOL0     H21527   4.138   2.812  -0.389 -0.8251 -0.1332  0.5319
  921MOL0     H21528   4.319   2.965  -0.345  1.6709 -1.1895  1.8893
  921MOL0     H21529   4.277   2.920  -0.197  1.5964  3.7575  2.1692
  921MOL0     H21530   4.167   3.173  -0.352  0.4820 -0.3390 -1.6695
  921MOL0     H21531   4.122   3.128  -0.186 -2.0041 -1.4470 -1.4219
  921MOL0     H21532   4.367   3.139  -0.115  0.4504  1.4922  0.8845
  921MOL0     H21533   4.301   3.298  -0.157  0.8626 -0.9167  0.5984
  921MOL0     H21534   4.677   3.186  -0.332 -1.5903 -1.4137  2.1005
  921MOL0     H21535   4.860   3.338  -0.299 -2.4923 -3.0728 -1.7965
  921MOL0     H21536   5.019   3.748  -0.335  0.5256  1.8899 -0.3766
  921MOL0     H21537   5.200   3.924  -0.312  0.5802  1.6244  1.6217
  921MOL0     H21538   5.575   3.777  -0.248 -0.3910  4.7745 -2.8287
  921MOL0     H21539   5.535   3.770  -0.069  1.7817  0.5258  0.5294
  921MOL0     H21540   5.619   4.005  -0.223 -2.8882  1.0496  1.1782
  921MOL0     H21541   5.739   3.894  -0.142  0.6303 -1.6375  1.6609
  921MOL0     H21542   5.628   3.952   0.083 -2.5919  1.0121  1.4871
  921MOL0     H21543   5.508   4.044  -0.006 -1.1778  0.1138  2.0383
  921MOL0     H21544   5.697   4.202  -0.092  3.1287 -1.1861 -1.8051
  921MOL0     H21545   5.684   4.203   0.082 -0.8957  0.7462 -0.1799
  921MOL0     H21546   5.885   4.052  -0.102 -1.2753  0.8630 -1.1465
  921MOL0     H21547   5.893   4.028   0.079  0.0735  1.1842  1.0770
  921MOL0     H21548   5.928   4.264   0.112 -2.1703  0.6781 -0.6099
  921MOL0     H21549   5.936   4.292  -0.066 -0.1326 -2.2558 -2.3260
  921MOL0     H21550   6.126   4.099   0.054 -1.0505  0.1616 -0.3598
  921MOL0     H21551   6.129   4.162  -0.106 -2.6717 -1.7222  0.1026
  921MOL0     H21552   6.304   4.251   0.074  0.0340 -0.1264 -0.2025
  921MOL0     H21553   6.189   4.350   0.145  2.8357  5.1915 -2.0211
  921MOL0     H21554   5.367   3.670  -0.010  1.9947  1.0739 -2.0134
  921MOL0     H21555   5.164   3.528  -0.013 -3.7346 -0.8182 -0.9516
  921MOL0     H21556   4.576   3.638  -0.158  1.7474 -0.2870  0.2107
  921MOL0     H21557   4.385   3.481  -0.206 -1.7576 -4.9104  0.7143
  921MOL0     H21558   4.468   2.117   0.506  0.9648  2.2664  1.1216
  921MOL0     H21559   4.688   2.022   0.603 -1.2571 -1.8142 -1.4778
  921MOL0     H21560   4.827   1.802   1.067 -0.7856 -0.3696 -2.9185
  921MOL0     H21561   5.038   1.687   1.138  1.7786 -0.8806 -1.1337
  921MOL0     H21562   5.324   1.758   1.355 -0.1381  1.7753  2.5516
  921MOL0     H21563   5.253   1.924   1.325 -0.4253 -0.7342 -1.6277
  921MOL0     H21564   5.472   1.976   1.193  2.4578 -0.6580 -1.4243
  921MOL0     H21565   5.485   1.969   1.367  0.0733 -1.3979  0.9155
  921MOL0     H21566   5.562   1.769   1.167  0.0938  0.4831 -0.3327
  921MOL0     H21567   5.535   1.701   1.316  1.4613 -0.2510  1.1035
  921MOL0     H21568   5.682   1.898   1.417 -0.6465  1.8526 -1.2610
  921MOL0     H21569   5.748   1.747   1.330 -1.9989 -0.1846 -0.6680
  921MOL0     H21570   5.866   2.029   1.053  0.1981  1.4007  1.1013
  921MOL0     H21571   5.249   2.055   1.082 -1.1804  1.4841  0.2252
  921MOL0     H21572   5.055   2.150   0.976  0.6224 -1.0416 -2.3066
  922MOL0     O21573   5.870   5.670   1.141 -0.3104  0.5266  1.2650
  922MOL0     C21574   5.855   5.559   1.189 -0.2942 -0.0762  0.3962
  922MOL0     O21575   5.735   5.499   1.189 -0.4022 -0.3933  0.0135
  922MOL0     C21576   5.637   5.575   1.126  0.5273 -0.1401  0.2217
  922MOL0     C21577   5.591   5.542   0.994 -0.8500  0.5137 -0.1127
  922MOL0     C21578   5.476   5.601   0.937 -0.0421 -0.4736 -0.5187
  922MOL0     C21579   5.410   5.703   1.007 -0.6257 -0.9382  0.8359
  922MOL0     O21580   5.295   5.775   0.970  0.0009  0.4914  0.3433
  922MOL0     C21581   5.233   5.724   0.852 -0.0253 -0.1567 -0.0319
  922MOL0     C21582   5.104   5.797   0.828 -0.8626  0.3303 -0.1414
  922MOL0     C21583   4.975   5.732   0.892 -0.2642 -0.2891  0.1724
  922MOL0     C21584   4.846   5.803   0.847  0.2653  1.1229 -0.4429
  922MOL0     C21585   4.712   5.742   0.899  0.6277 -0.4091  0.0980
  922MOL0     C21586   4.590   5.832   0.880  0.3576 -0.1789 -0.0145
  922MOL0     C21587   4.462   5.754   0.916  0.0548 -0.1600  0.5332
  922MOL0     C21588   4.448   5.720   1.070 -0.7047 -1.2212  0.2874
  922MOL0     N21589   4.316   5.662   1.100  0.7538  0.5466  0.4268
  922MOL0     C21590   4.212   5.742   1.133  0.7315  0.9103  0.3589
  922MOL0     C21591   4.107   5.668   1.126 -0.0026  0.3909  0.0660
  922MOL0     C21592   3.961   5.707   1.151 -0.1560  0.1771  0.8797
  922MOL0     C21593   3.895   5.759   1.024  0.3753  0.5088 -0.8779
  922MOL0     C21594   3.744   5.784   1.047  0.4209  0.0886  0.4956
  922MOL0     C21595   3.676   5.839   0.918  0.3679  0.5799 -0.2099
  922MOL0     O21596   3.538   5.846   0.940 -0.0916 -0.0468  0.6269
  922MOL0     C21597   3.457   5.902   0.845 -0.0554 -0.2412  0.2989
  922MOL0     C21598   3.322   5.884   0.845 -0.5426 -0.2406 -0.1706
  922MOL0     C21599   3.235   5.930   0.746 -0.8238 -0.2238  0.3388
  922MOL0     C21600   3.272   6.019   0.646  0.2908 -0.6991  0.3543
  922MOL0     C21601   3.168   6.066   0.543  0.0552  0.5013 -1.0383
  922MOL0     O21602   3.052   5.993   0.548  0.1487 -0.5381 -0.4468
  922MOL0     C21603   2.941   6.054   0.495 -0.0671  0.5114 -0.0510
  922MOL0     C21604   2.850   5.961   0.430 -0.6002  0.2641  0.1464
  922MOL0     C21605   2.730   6.017   0.377 -0.0633 -0.1282 -0.3171
  922MOL0     C21606   2.698   6.150   0.393 -0.5801 -0.2726 -0.1308
  922MOL0     O21607   2.585   6.211   0.345 -0.0839 -0.3518 -0.2014
  922MOL0     C21608   2.467   6.132   0.349  0.0896 -0.0307 -0.2257
  922MOL0     C21609   2.357   6.218   0.289  0.6720 -0.7868  0.7810
  922MOL0     C21610   2.229   6.139   0.257 -0.2382  0.5999 -0.4911
  922MOL0     C21611   2.136   6.243   0.199 -0.1610  0.3544  0.0214
  922MOL0     C21612   2.007   6.162   0.181  0.0110 -0.0994 -0.5858
  922MOL0     C21613   1.913   6.247   0.103  0.3779  0.2244  0.4269
  922MOL0     C21614   1.784   6.169   0.077 -0.0810  0.1845 -0.2998
  922MOL0     C21615   1.706   6.116   0.195 -0.3369 -0.4933 -0.2157
  922MOL0    Cl21616   1.521   6.117   0.184  0.0378  0.2347 -0.3581
  922MOL0     C21617   2.792   6.234   0.454 -0.6267  0.0252 -0.1758
  922MOL0     C21618   2.914   6.188   0.499  0.0434 -0.2156 -0.5030
  922MOL0     O21619   3.197   6.152   0.462  1.0290  0.6297 -0.8249
  922MOL0     C21620   3.407   6.053   0.645 -0.2806 -0.7648 -0.1406
  922MOL0     C21621   3.498   5.997   0.748 -0.3106 -0.0399  0.2788
  922MOL0     N21622   4.143   5.546   1.067  0.5431 -0.3463  0.0805
  922MOL0     N21623   4.267   5.542   1.045  0.6348 -0.2187 -0.6695
  922MOL0     C21624   5.465   5.741   1.129  0.3225 -0.3800  0.2678
  922MOL0     C21625   5.575   5.679   1.188  0.1234  0.1677 -0.8891
  922MOL0     C21626   5.969   5.506   1.268 -0.0416  0.6760  0.6148
  922MOL0     C21627   5.965   5.372   1.309  0.4217 -0.4697 -0.7475
  922MOL0     C21628   6.071   5.314   1.383 -0.3024 -0.4281  0.1485
  922MOL0     C21629   6.191   5.394   1.418  0.0174  0.1849 -0.0852
  922MOL0     O21630   6.294   5.373   1.508  0.0610  0.5402  0.9001
  922MOL0     C21631   6.279   5.251   1.586  0.2311 -0.4177  0.8813
  922MOL0     C21632   6.420   5.223   1.640  0.0852  0.1450 -0.0252
  922MOL0     C21633   6.519   5.187   1.528  0.5255  0.2580  0.1143
  922MOL0     C21634   6.667   5.195   1.575 -0.1285  0.5453 -0.4558
  922MOL0     C21635   6.752   5.173   1.463  0.3429  0.4835 -0.7746
  922MOL0     C21636   6.838   5.153   1.385 -0.2361 -0.1402 -0.0080
  922MOL0     C21637   6.189   5.526   1.377  0.5389 -0.2195  0.0147
  922MOL0     C21638   6.078   5.580   1.309 -0.4603 -0.0948 -0.7367
  922MOL0     H21639   5.651   5.467   0.942 -1.2719 -1.1255  1.6448
  922MOL0     H21640   5.461   5.577   0.832 -1.3655 -2.1068  0.0052
  922MOL0     H21641   5.205   5.619   0.863 -0.5265  0.0833  1.0154
  922MOL0     H21642   5.298   5.734   0.763 -1.6522  2.4456 -1.0426
  922MOL0     H21643   5.097   5.801   0.719 -1.6563 -2.5823 -0.3029
  922MOL0     H21644   5.104   5.900   0.865 -1.8554  0.0493  0.6766
  922MOL0     H21645   4.981   5.720   1.000  0.2218  0.2467  0.2094
  922MOL0     H21646   4.966   5.627   0.861  0.8509 -1.1493  2.5065
  922MOL0     H21647   4.843   5.910   0.873  1.8523  1.1094 -0.1359
  922MOL0     H21648   4.840   5.795   0.738  0.0796  3.6151 -0.6891
  922MOL0     H21649   4.714   5.741   1.008  2.5335  1.5537  0.1478
  922MOL0     H21650   4.677   5.648   0.855 -2.1288  1.1782 -1.4467
  922MOL0     H21651   4.577   5.869   0.778  3.5592 -0.3922 -0.6232
  922MOL0     H21652   4.598   5.926   0.936 -0.7591  1.7936 -2.9278
  922MOL0     H21653   4.377   5.820   0.898  1.5270  2.3231  2.1214
  922MOL0     H21654   4.454   5.667   0.849 -0.1236  0.5753 -0.4175
  922MOL0     H21655   4.469   5.813   1.123 -0.8509 -1.9854  1.7370
  922MOL0     H21656   4.528   5.652   1.101  2.3146  1.7227 -0.4581
  922MOL0     H21657   4.203   5.842   1.175 -0.4870  0.4883  1.1723
  922MOL0     H21658   3.953   5.784   1.228 -0.7205  0.1213  0.8840
  922MOL0     H21659   3.911   5.617   1.191 -0.0658  1.3040  3.7478
  922MOL0     H21660   3.908   5.678   0.952  2.9405 -0.2220  0.3087
  922MOL0     H21661   3.944   5.850   0.987  0.4648  1.1115  0.6323
  922MOL0     H21662   3.706   5.687   1.078  0.4801 -0.7964 -1.9935
  922MOL0     H21663   3.736   5.862   1.124  2.1463  0.5159  0.2973
  922MOL0     H21664   3.691   5.786   0.823  1.1526 -1.7351  1.1082
  922MOL0     H21665   3.723   5.936   0.904 -1.9905  1.6595 -1.0874
  922MOL0     H21666   3.289   5.820   0.926  0.2492 -1.6593 -0.9437
  922MOL0     H21667   3.129   5.916   0.761 -0.7973 -0.6196  0.1773
  922MOL0     H21668   2.868   5.854   0.427 -0.5699  0.2439 -3.8281
  922MOL0     H21669   2.667   5.939   0.333  0.5038 -0.2737 -0.8948
  922MOL0     H21670   2.442   6.106   0.452  1.5358  0.7288  0.3434
  922MOL0     H21671   2.483   6.049   0.279 -0.3618  1.2633 -1.9207
  922MOL0     H21672   2.395   6.259   0.194 -0.3447 -1.3660  0.1092
  922MOL0     H21673   2.338   6.300   0.359  3.6534 -1.4311  2.5178
  922MOL0     H21674   2.199   6.087   0.349  2.8486 -2.7037 -1.1205
  922MOL0     H21675   2.251   6.052   0.194 -0.0460  0.7550 -0.6385
  922MOL0     H21676   2.117   6.336   0.252  0.9994  0.8264 -0.3712
  922MOL0     H21677   2.178   6.280   0.105  0.1731  0.8410  0.3604
  922MOL0     H21678   1.962   6.123   0.272 -1.5821 -1.9291 -2.0686
  922MOL0     H21679   2.027   6.075   0.117 -0.9263 -0.4598 -0.4091
  922MOL0     H21680   1.958   6.274   0.007  0.2273  1.9712  0.8317
  922MOL0     H21681   1.896   6.337   0.162 -1.6754  0.7287 -0.8196
  922MOL0     H21682   1.716   6.234   0.021  1.4582  1.3287 -0.9156
  922MOL0     H21683   1.809   6.084   0.013 -0.3416 -1.4432  1.6514
  922MOL0     H21684   1.739   6.168   0.286 -1.3387 -1.8732  0.9765
  922MOL0     H21685   1.750   6.016   0.207  2.9905  0.9044  0.4956
  922MOL0     H21686   2.778   6.341   0.468  0.7551 -0.0924  3.1119
  922MOL0     H21687   2.990   6.257   0.537 -0.1653  0.0880 -0.6310
  922MOL0     H21688   3.451   6.110   0.563  1.5310  0.3806  1.5353
  922MOL0     H21689   3.604   6.022   0.747 -0.5396  1.2880  2.7361
  922MOL0     H21690   5.418   5.828   1.174  0.6023 -0.4479  0.6992
  922MOL0     H21691   5.627   5.715   1.277 -1.8919  0.9511  0.0238
  922MOL0     H21692   5.871   5.326   1.280  0.1267  0.0073 -0.5584
  922MOL0     H21693   6.074   5.211   1.416 -0.8099 -0.3490  0.4482
  922MOL0     H21694   6.247   5.157   1.540 -0.9118  0.8940 -1.1625
  922MOL0     H21695   6.220   5.276   1.674  1.2459  0.3326  1.3708
  922MOL0     H21696   6.455   5.308   1.699 -0.0880  0.5930 -0.5617
  922MOL0     H21697   6.425   5.135   1.705 -1.2759 -2.1094 -2.7574
  922MOL0     H21698   6.504   5.243   1.435 -1.5526  1.4626  1.0861
  922MOL0     H21699   6.486   5.089   1.493 -2.1277  1.4233 -0.9584
  922MOL0     H21700   6.698   5.291   1.617  0.5750 -0.1942  0.7901
  922MOL0     H21701   6.687   5.116   1.649 -1.0751  0.8388  0.1364
  922MOL0     H21702   6.919   5.125   1.322 -0.9854 -1.3613 -0.4634
  922MOL0     H21703   6.274   5.591   1.397 -0.1018  0.3578  0.9561
  922MOL0     H21704   6.089   5.685   1.281  1.0401 -0.1380 -0.4235
  923MOL0     O21705   0.421   6.363   1.530 -0.4086  0.7834  0.0744
  923MOL0     C21706   0.482   6.314   1.435 -0.3301  0.6044  0.7685
  923MOL0     O21707   0.430   6.224   1.345  0.7013 -0.6760 -1.1440
  923MOL0     C21708   0.292   6.224   1.323 -0.2236 -0.8156 -0.8922
  923MOL0     C21709   0.230   6.343   1.275  0.2172 -0.0253  0.3974
  923MOL0     C21710   0.092   6.348   1.263  0.1967  0.0046  0.2144
  923MOL0     C21711   0.016   6.235   1.299 -0.2011 -0.2335  0.4508
  923MOL0     O21712  -0.116   6.237   1.277 -0.4542  0.2976 -0.2549
  923MOL0     C21713  -0.195   6.120   1.269 -0.3548  0.6520  0.3981
  923MOL0     C21714  -0.247   6.084   1.402  0.1239  0.7596 -0.3640
  923MOL0     C21715  -0.340   6.198   1.456 -0.5706  1.3995 -0.3895
  923MOL0     C21716  -0.391   6.161   1.600 -0.8545  0.2450 -0.1046
  923MOL0     C21717  -0.515   6.062   1.603 -0.3807 -0.1611  0.1071
  923MOL0     C21718  -0.547   6.006   1.748  0.2800 -0.1742 -1.1082
  923MOL0     C21719  -0.680   5.929   1.756 -0.4889 -0.8215 -0.6048
  923MOL0     C21720  -0.672   5.807   1.668  0.4797 -0.4708  0.9071
  923MOL0     N21721  -0.739   5.691   1.723  0.7425  0.1037  0.4641
  923MOL0     C21722  -0.695   5.621   1.835 -1.7707 -0.3441  0.5249
  923MOL0     C21723  -0.774   5.516   1.840 -1.1581 -0.4769 -0.4241
  923MOL0     C21724  -0.775   5.424   1.960  0.4203  0.0531  0.0417
  923MOL0     C21725  -0.775   5.491   2.097 -0.8895  0.5078  0.6081
  923MOL0     C21726  -0.918   5.535   2.128  0.3610 -0.2738 -0.3310
  923MOL0     C21727  -0.979   5.658   2.057 -0.5201 -0.6313  0.3005
  923MOL0     O21728  -1.072   5.741   2.129 -0.0344 -0.5904  0.5884
  923MOL0     C21729  -1.038   5.860   2.183 -0.2977 -0.4085 -0.9190
  923MOL0     C21730  -1.147   5.942   2.213 -0.0280 -0.7614 -0.0221
  923MOL0     C21731  -1.134   6.070   2.271  0.1033  0.7226  0.4176
  923MOL0     C21732  -1.001   6.120   2.277  0.0097 -0.1778 -0.1874
  923MOL0     C21733  -0.976   6.247   2.347  0.0759 -0.0877 -0.6121
  923MOL0     O21734  -0.840   6.281   2.377  0.1186 -0.9188  0.1803
  923MOL0     C21735  -0.802   6.396   2.444  0.3529 -0.6304 -0.4998
  923MOL0     C21736  -0.882   6.465   2.534 -0.6514 -0.3808  0.2357
  923MOL0     C21737  -0.837   6.563   2.616  0.6845 -0.2582 -0.3491
  923MOL0     C21738  -0.706   6.588   2.634 -0.2369 -0.0025 -0.2201
  923MOL0     O21739  -0.670   6.680   2.731  0.1047  0.2491 -0.1510
  923MOL0     C21740  -0.535   6.667   2.771 -0.8189  0.6626  0.4052
  923MOL0     C21741  -0.526   6.732   2.898  0.2802  0.3085 -0.0812
  923MOL0     C21742  -0.377   6.756   2.931  0.3657  0.3777 -0.1395
  923MOL0     C21743  -0.358   6.850   3.050  0.3244  0.4727 -0.0401
  923MOL0     C21744  -0.217   6.845   3.095  1.3168  0.3514  0.5199
  923MOL0     C21745  -0.127   6.897   2.980 -0.3907  0.0471 -1.0117
  923MOL0     C21746   0.009   6.948   3.039  0.4077  0.2385 -0.0651
  923MOL0     C21747   0.100   6.827   3.067  0.2092  0.8278  0.2774
  923MOL0    Cl21748   0.240   6.895   3.137 -0.5538 -0.2395 -0.1660
  923MOL0     C21749  -0.620   6.519   2.549  0.5284  0.5752 -0.1019
  923MOL0     C21750  -0.665   6.421   2.450 -0.0048  0.1226 -0.1474
  923MOL0     O21751  -1.078   6.313   2.374  0.3455 -0.0145 -0.6852
  923MOL0     C21752  -0.892   6.042   2.241  2.1870  0.1027 -0.3249
  923MOL0     C21753  -0.905   5.918   2.188  0.3305  0.1523 -0.4010
  923MOL0     N21754  -0.855   5.510   1.735 -0.2910 -0.6509 -0.3508
  923MOL0     N21755  -0.838   5.613   1.658 -0.8598 -0.0683 -0.4816
  923MOL0     C21756   0.080   6.124   1.336  0.9409 -0.6705  0.0358
  923MOL0     C21757   0.216   6.116   1.364 -0.0326  0.6518 -0.2112
  923MOL0     C21758   0.623   6.350   1.412  0.3699  0.1268  0.0480
  923MOL0     C21759   0.660   6.402   1.291  1.0728 -0.1437  0.3060
  923MOL0     C21760   0.786   6.462   1.273 -0.2559  0.0692 -0.6454
  923MOL0     C21761   0.870   6.474   1.392 -0.6507 -0.5469 -0.8246
  923MOL0     O21762   0.996   6.529   1.393  0.5081  0.6118  0.2892
  923MOL0     C21763   1.040   6.583   1.265 -0.9175 -0.5755  0.6697
  923MOL0     C21764   1.167   6.668   1.283 -0.2168  0.8451 -0.2393
  923MOL0     C21765   1.287   6.575   1.317  0.4626 -0.3828  0.3135
  923MOL0     C21766   1.414   6.657   1.302 -0.5415  0.4037  0.5965
  923MOL0     C21767   1.525   6.555   1.303 -0.3576  0.4520 -0.2037
  923MOL0     C21768   1.622   6.486   1.309 -0.2181 -0.0055 -0.5232
  923MOL0     C21769   0.836   6.413   1.515 -0.0090  0.0470  1.3199
  923MOL0     C21770   0.713   6.345   1.520  0.5344  0.6865  0.2953
  923MOL0     H21771   0.276   6.433   1.234  1.9050 -0.8006  0.5243
  923MOL0     H21772   0.041   6.433   1.219 -0.5968 -0.4400  0.2420
  923MOL0     H21773  -0.133   6.045   1.218  0.1863  1.1277  0.3448
  923MOL0     H21774  -0.274   6.126   1.194 -0.6744  0.2935  0.7024
  923MOL0     H21775  -0.161   6.073   1.469  0.0210  1.8513 -0.0414
  923MOL0     H21776  -0.290   5.984   1.392 -0.9061  1.0078  1.3260
  923MOL0     H21777  -0.434   6.215   1.404 -1.8424  2.7821  2.1731
  923MOL0     H21778  -0.288   6.295   1.457 -0.8546  1.7465 -4.5604
  923MOL0     H21779  -0.309   6.113   1.654 -1.8221  0.4287  1.5850
  923MOL0     H21780  -0.415   6.252   1.656 -0.8328  2.0845 -2.8613
  923MOL0     H21781  -0.490   5.980   1.534  1.5817 -0.1164  0.7024
  923MOL0     H21782  -0.598   6.124   1.568 -0.1595  1.0606  1.6521
  923MOL0     H21783  -0.549   6.095   1.811 -3.4176 -0.6900 -0.2534
  923MOL0     H21784  -0.467   5.946   1.794  0.8773  0.5788 -1.1411
  923MOL0     H21785  -0.728   5.924   1.854  0.3822 -0.4570 -0.1409
  923MOL0     H21786  -0.758   5.999   1.725 -1.5511 -1.3367  0.7934
  923MOL0     H21787  -0.566   5.795   1.648  0.5548  1.2697  0.0788
  923MOL0     H21788  -0.716   5.841   1.574  3.0138  3.1116  0.8501
  923MOL0     H21789  -0.622   5.663   1.904 -0.9590  0.1313 -0.5776
  923MOL0     H21790  -0.677   5.378   1.945  0.4358  0.7372 -2.3690
  923MOL0     H21791  -0.852   5.346   1.957 -0.2958  0.5361  2.7835
  923MOL0     H21792  -0.707   5.576   2.107 -0.2005  0.2375 -1.4052
  923MOL0     H21793  -0.748   5.412   2.169  0.4232  0.9176  0.5961
  923MOL0     H21794  -0.984   5.449   2.136 -1.4958  1.1340  0.2070
  923MOL0     H21795  -0.906   5.572   2.231 -0.7157  2.7036 -1.1727
  923MOL0     H21796  -1.035   5.618   1.971  0.9891  1.4006 -1.7722
  923MOL0     H21797  -0.896   5.719   2.022 -1.8116  1.2238  0.3088
  923MOL0     H21798  -1.248   5.906   2.198 -0.5749  0.2828  1.0099
  923MOL0     H21799  -1.222   6.111   2.320 -0.7789  1.6035 -1.8030
  923MOL0     H21800  -0.988   6.442   2.527 -0.6006 -0.4448 -0.3535
  923MOL0     H21801  -0.902   6.609   2.689  2.1610 -0.1698  0.9561
  923MOL0     H21802  -0.475   6.714   2.693  4.9067 -1.8369  2.6933
  923MOL0     H21803  -0.506   6.561   2.768  1.5570  1.2323 -3.4258
  923MOL0     H21804  -0.578   6.674   2.975  0.8139  1.4224  1.1548
  923MOL0     H21805  -0.580   6.827   2.889  0.1692  0.2368 -0.1767
  923MOL0     H21806  -0.322   6.791   2.844  0.3354 -1.4553 -0.9422
  923MOL0     H21807  -0.325   6.663   2.955  1.6334  1.6490  2.4978
  923MOL0     H21808  -0.384   6.953   3.024  1.3454  0.8794  0.4815
  923MOL0     H21809  -0.427   6.826   3.131  1.6438 -0.1942  0.9341
  923MOL0     H21810  -0.198   6.741   3.124 -0.9032  0.3315  2.1504
  923MOL0     H21811  -0.220   6.909   3.184  0.5914 -2.1398  2.4410
  923MOL0     H21812  -0.188   6.976   2.933 -0.8577  0.7814  0.7390
  923MOL0     H21813  -0.124   6.825   2.898  1.6577  0.0197 -0.9485
  923MOL0     H21814   0.065   7.006   2.964  3.4739 -1.2434  0.9204
  923MOL0     H21815  -0.001   7.008   3.130  0.1244 -1.6367  1.1807
  923MOL0     H21816   0.123   6.765   2.980 -2.3790 -2.9786  2.0801
  923MOL0     H21817   0.051   6.762   3.140  0.4267 -0.4398 -0.6739
  923MOL0     H21818  -0.519   6.558   2.544  0.9646 -0.3592  1.0366
  923MOL0     H21819  -0.597   6.381   2.375  0.2033 -0.2299  0.2269
  923MOL0     H21820  -0.789   6.073   2.258  2.5960 -1.9700  1.3886
  923MOL0     H21821  -0.818   5.873   2.140  0.8411  1.1487 -0.4339
  923MOL0     H21822   0.029   6.035   1.374  1.2733 -0.4446  1.0429
  923MOL0     H21823   0.254   6.027   1.412 -1.0380 -0.4796 -1.4520
  923MOL0     H21824   0.590   6.407   1.208  0.3650  2.0341  0.9641
  923MOL0     H21825   0.816   6.500   1.176 -2.4062  1.8699 -0.6998
  923MOL0     H21826   0.967   6.647   1.213  1.9407  1.1007 -1.5776
  923MOL0     H21827   1.068   6.501   1.198  0.8327  1.2752 -1.0352
  923MOL0     H21828   1.192   6.711   1.186 -2.0023 -3.0240 -2.6330
  923MOL0     H21829   1.158   6.737   1.367  1.7524  2.3377 -1.1770
  923MOL0     H21830   1.300   6.497   1.243  1.9076  0.8583 -0.7899
  923MOL0     H21831   1.262   6.537   1.417 -0.3220  1.1389  0.7254
  923MOL0     H21832   1.409   6.690   1.198 -0.0735 -1.0240  0.0951
  923MOL0     H21833   1.433   6.733   1.378 -0.8966  0.6749  0.4194
  923MOL0     H21834   1.692   6.408   1.287 -2.3287 -1.9215 -0.8832
  923MOL0     H21835   0.905   6.417   1.599  2.2646  3.6770 -0.4779
  923MOL0     H21836   0.690   6.293   1.612  1.9253  0.1586  0.3713
  924MOL0     O21837   6.751   8.472  10.682  0.7719 -0.1284 -0.2348
  924MOL0     C21838   6.813   8.459  10.784 -0.2987 -0.0970 -0.1533
  924MOL0     O21839   6.767   8.477  10.912 -0.0379  0.2645 -0.2757
  924MOL0     C21840   6.638   8.508  10.930  1.0573  0.0532  0.0569
  924MOL0     C21841   6.598   8.640  10.955  0.0223  0.8233  0.0648
  924MOL0     C21842   6.457   8.671  10.965 -0.8870 -0.6208  0.3683
  924MOL0     C21843   6.360   8.575  10.961  0.0317  1.0795  0.1241
  924MOL0     O21844   6.220   8.599  10.967 -0.2700  0.9192 -0.3214
  924MOL0     C21845   6.166   8.731  11.007 -0.0186  1.1446 -0.6351
  924MOL0     C21846   6.025   8.695  11.047  0.5738 -0.5176 -0.1371
  924MOL0     C21847   5.934   8.816  11.070  0.1236  0.2225 -0.1763
  924MOL0     C21848   5.783   8.779  11.090  0.1416  0.2907 -0.6642
  924MOL0     C21849   5.700   8.900  11.106 -0.5777 -0.3413  0.7215
  924MOL0     C21850   5.553   8.851  11.130 -0.1175  0.0113 -0.1329
  924MOL0     C21851   5.459   8.962  11.163 -0.0544  0.0927 -0.6873
  924MOL0     C21852   5.312   8.918  11.199 -0.6297 -0.6294 -0.9274
  924MOL0     N21853   5.214   9.033  11.198  0.3075  0.3464  0.7425
  924MOL0     C21854   5.178   9.094  11.086  0.5527  0.2786  0.5314
  924MOL0     C21855   5.057   9.145  11.108  0.1811 -0.0566  0.4274
  924MOL0     C21856   4.967   9.216  11.012  0.2763 -0.3024  0.3273
  924MOL0     C21857   4.834   9.140  10.988  0.1047 -1.6006  0.0976
  924MOL0     C21858   4.705   9.216  11.038 -0.0392  0.1844 -0.5544
  924MOL0     C21859   4.664   9.193  11.187  0.3463  0.4491  0.2151
  924MOL0     O21860   4.538   9.252  11.221  0.2921  0.4453  0.2753
  924MOL0     C21861   4.420   9.187  11.184  0.6428  0.5932 -0.1861
  924MOL0     C21862   4.318   9.262  11.213  0.2921 -0.8837 -0.4629
  924MOL0     C21863   4.184   9.224  11.210  0.0048  0.0284 -0.9287
  924MOL0     C21864   4.154   9.089  11.180  0.5223  0.8618  0.3558
  924MOL0     C21865   4.014   9.041  11.178  0.9606  0.3646  0.3143
  924MOL0     O21866   3.970   8.908  11.176  0.1168 -0.5176  0.2049
  924MOL0     C21867   3.839   8.886  11.148  0.3523 -0.1066  0.1672
  924MOL0     C21868   3.735   8.935  11.233  0.7642  0.1137 -1.6530
  924MOL0     C21869   3.603   8.919  11.207  0.3408  0.8046  0.5501
  924MOL0     C21870   3.567   8.846  11.085 -0.1710  0.2499  0.0548
  924MOL0     O21871   3.439   8.812  11.047 -0.2787  0.7839  0.1814
  924MOL0     C21872   3.334   8.873  11.121  0.6765  0.4846 -0.1773
  924MOL0     C21873   3.204   8.860  11.046 -0.1077  0.1106  0.3394
  924MOL0     C21874   3.087   8.898  11.119  0.5484  0.7469 -0.9070
  924MOL0     C21875   3.104   9.031  11.191  0.2902  0.3884  0.3350
  924MOL0     C21876   2.975   9.090  11.244  0.5288  0.2417  0.5664
  924MOL0     C21877   2.984   9.226  11.304 -0.0866  0.6386  0.2545
  924MOL0     C21878   2.844   9.280  11.340  0.5542 -0.1392 -0.2957
  924MOL0     C21879   2.848   9.412  11.423 -0.0182  0.0355  0.8691
  924MOL0    Cl21880   2.966   9.415  11.565 -0.1811  0.0078  0.1655
  924MOL0     C21881   3.673   8.794  10.999 -0.2258 -0.3300 -0.6121
  924MOL0     C21882   3.801   8.810  11.042 -0.2718  0.2148 -0.3166
  924MOL0     O21883   3.932   9.130  11.156 -0.0592 -0.2593 -0.6810
  924MOL0     C21884   4.262   9.005  11.141 -0.0362  2.1670 -0.3897
  924MOL0     C21885   4.397   9.057  11.135 -0.1637 -0.3408 -0.1018
  924MOL0     N21886   5.031   9.136  11.240  0.1032  0.5786 -0.3674
  924MOL0     N21887   5.126   9.065  11.299 -0.5416  0.6334  0.0259
  924MOL0     C21888   6.399   8.445  10.942  0.3396 -0.4046 -0.5510
  924MOL0     C21889   6.536   8.408  10.930 -0.6986  0.3118  0.4184
  924MOL0     C21890   6.961   8.449  10.765  0.1676  0.4053 -0.2208
  924MOL0     C21891   7.019   8.431  10.637 -0.1013 -0.2340  0.0594
  924MOL0     C21892   7.156   8.417  10.632  0.9925  0.0329  0.7868
  924MOL0     C21893   7.226   8.399  10.749 -0.2069  0.6844 -0.0961
  924MOL0     O21894   7.357   8.365  10.737  0.1254  0.1397  0.2126
  924MOL0     C21895   7.443   8.344  10.853  0.1081  1.0878 -0.6448
  924MOL0     C21896   7.562   8.252  10.817 -1.2852 -0.3075 -0.6214
  924MOL0     C21897   7.662   8.262  10.939 -0.2717 -0.1857  0.0093
  924MOL0     C21898   7.785   8.188  10.893 -0.0951 -0.2302  0.5057
  924MOL0     C21899   7.905   8.235  10.966  0.2829  1.1854  0.0823
  924MOL0     C21900   7.993   8.293  11.020 -0.1690 -0.0047 -0.5571
  924MOL0     C21901   7.169   8.410  10.868 -0.1350  0.4727 -0.1924
  924MOL0     C21902   7.038   8.434  10.876  0.5334 -0.1188  0.0674
  924MOL0     H21903   6.675   8.716  10.954  0.8821  0.0175  1.8483
  924MOL0     H21904   6.416   8.771  10.970 -1.7273 -0.7888 -1.8270
  924MOL0     H21905   6.147   8.783  10.913 -3.0217  0.3564 -0.5698
  924MOL0     H21906   6.216   8.794  11.082  1.4063 -1.0454  0.3463
  924MOL0     H21907   6.024   8.640  11.142  2.0348  0.5279  0.5399
  924MOL0     H21908   5.983   8.628  10.972 -2.3045  0.2946  0.6155
  924MOL0     H21909   5.934   8.874  10.977 -0.7788  2.9615  1.3874
  924MOL0     H21910   5.970   8.896  11.135  0.3089  1.8324 -2.1509
  924MOL0     H21911   5.740   8.708  11.019 -0.0326 -1.5687  1.1965
  924MOL0     H21912   5.781   8.725  11.185 -1.6755  2.7262  0.7913
  924MOL0     H21913   5.710   8.966  11.019  0.7881 -0.1467  1.0000
  924MOL0     H21914   5.724   8.968  11.189 -1.0976  0.0605  0.5499
  924MOL0     H21915   5.550   8.768  11.201 -3.1023  0.6138  0.5689
  924MOL0     H21916   5.514   8.803  11.039  1.7831 -0.1722 -0.9043
  924MOL0     H21917   5.496   9.013  11.253 -0.2553 -4.9521  2.6242
  924MOL0     H21918   5.466   9.038  11.085 -1.6809  1.1649  0.1418
  924MOL0     H21919   5.309   8.874  11.298 -3.4739  0.8466 -0.2630
  924MOL0     H21920   5.273   8.848  11.124 -0.5454 -1.2834 -0.3613
  924MOL0     H21921   5.230   9.104  10.991 -1.9027  2.7368 -0.7190
  924MOL0     H21922   5.019   9.216  10.915  1.6309 -2.6386  0.9774
  924MOL0     H21923   4.952   9.317  11.051 -1.6000 -0.8917  1.2372
  924MOL0     H21924   4.829   9.037  11.024 -0.5049 -1.4016  0.5993
  924MOL0     H21925   4.816   9.132  10.881  2.1721 -0.8801 -0.3555
  924MOL0     H21926   4.731   9.323  11.043  0.9738 -0.0209 -1.2383
  924MOL0     H21927   4.614   9.203  10.979 -0.8429 -1.1012  0.8923
  924MOL0     H21928   4.735   9.241  11.255  0.3296  2.5709 -1.1589
  924MOL0     H21929   4.662   9.085  11.207 -0.6433  0.5506  0.6803
  924MOL0     H21930   4.337   9.363  11.246  0.4161 -1.0319 -0.0783
  924MOL0     H21931   4.100   9.289  11.231 -0.1065 -0.8513  1.6734
  924MOL0     H21932   3.775   8.978  11.324  0.5377 -0.7064 -1.1548
  924MOL0     H21933   3.531   8.933  11.287 -2.6627 -3.2277 -1.0726
  924MOL0     H21934   3.347   8.980  11.142  1.2657 -0.1519  3.2935
  924MOL0     H21935   3.324   8.832  11.222 -3.7235  0.8318 -0.2949
  924MOL0     H21936   3.195   8.755  11.014  1.7213  0.0465 -0.0239
  924MOL0     H21937   3.209   8.927  10.960 -0.8004 -1.2758 -0.8531
  924MOL0     H21938   3.056   8.820  11.189 -4.1217  0.9446 -2.4068
  924MOL0     H21939   3.002   8.892  11.050 -0.8508  0.9631  0.7194
  924MOL0     H21940   3.169   8.994  11.271 -1.9217  0.1481  2.1181
  924MOL0     H21941   3.161   9.106  11.135  1.6302  0.4455  1.7134
  924MOL0     H21942   2.942   9.026  11.327  0.1144 -0.3581 -0.0471
  924MOL0     H21943   2.897   9.090  11.167  0.9682  0.4649  0.1160
  924MOL0     H21944   3.038   9.299  11.243  0.6162 -0.2574 -0.2185
  924MOL0     H21945   3.037   9.211  11.399  1.9894 -1.7872 -1.1603
  924MOL0     H21946   2.788   9.302  11.249  1.5643 -3.5017 -1.9236
  924MOL0     H21947   2.805   9.196  11.399  1.9108 -1.2319 -0.8892
  924MOL0     H21948   2.750   9.441  11.461 -0.0361  0.2421  0.6682
  924MOL0     H21949   2.885   9.480  11.346  0.2242  0.0167  0.9656
  924MOL0     H21950   3.654   8.748  10.903  1.2519 -0.1982 -0.9855
  924MOL0     H21951   3.895   8.776  10.999  0.1559 -1.6717  1.8861
  924MOL0     H21952   4.242   8.901  11.117 -0.7095  2.6114 -1.8469
  924MOL0     H21953   4.485   9.001  11.105 -2.3468 -3.5631 -1.0556
  924MOL0     H21954   6.320   8.372  10.956 -0.1610 -0.3630 -2.8300
  924MOL0     H21955   6.568   8.305  10.918 -0.1054  0.2650  2.1814
  924MOL0     H21956   6.967   8.436  10.541 -2.9660 -2.7101  1.2902
  924MOL0     H21957   7.227   8.417  10.550  3.5092 -1.9967  2.7869
  924MOL0     H21958   7.397   8.311  10.947  2.3552  1.9220  0.8410
  924MOL0     H21959   7.498   8.434  10.881  1.6237 -0.5745  2.2165
  924MOL0     H21960   7.523   8.151  10.806 -2.3592 -0.0627  0.6476
  924MOL0     H21961   7.608   8.286  10.724 -1.4158  1.7126 -0.0041
  924MOL0     H21962   7.625   8.216  11.031  1.3806 -4.0936 -1.0539
  924MOL0     H21963   7.693   8.367  10.949 -0.2653 -0.0788 -1.0513
  924MOL0     H21964   7.772   8.081  10.913 -0.8202 -0.6223 -1.7412
  924MOL0     H21965   7.796   8.189  10.784 -0.6274 -0.6872  0.4415
  924MOL0     H21966   8.079   8.338  11.066  0.5896 -0.9530 -0.9903
  924MOL0     H21967   7.220   8.381  10.959 -2.8286  0.1780  1.3134
  924MOL0     H21968   6.987   8.438  10.972  0.4687 -2.4613  0.1838
  925MOL0     O21969   7.079   2.591   0.102 -0.3552  0.5589 -0.3351
  925MOL0     C21970   7.068   2.581  -0.021  0.7833 -0.8313  0.1602
  925MOL0     O21971   7.006   2.477  -0.089  0.9371 -0.2251  0.2068
  925MOL0     C21972   6.900   2.407  -0.031  0.3674 -0.3901  0.8137
  925MOL0     C21973   6.895   2.274  -0.075  0.1410  0.3730  0.0995
  925MOL0     C21974   6.790   2.185  -0.033  0.4723 -0.2428  0.3814
  925MOL0     C21975   6.688   2.235   0.044 -0.4428 -0.1943  0.1454
  925MOL0     O21976   6.564   2.179   0.075  0.0770  0.1337  0.4237
  925MOL0     C21977   6.532   2.047   0.028 -0.0019  0.3359 -0.3723
  925MOL0     C21978   6.414   1.996   0.112 -0.8833 -0.0624  0.1952
  925MOL0     C21979   6.296   1.965   0.015  0.6405 -0.2901  0.0578
  925MOL0     C21980   6.177   1.881   0.072  0.0627 -0.6718 -0.5106
  925MOL0     C21981   6.052   1.959   0.130  0.0407 -0.1578 -0.3241
  925MOL0     C21982   5.955   1.859   0.197  0.1397 -0.0377 -0.2383
  925MOL0     C21983   5.820   1.927   0.254 -0.0103  0.0178  0.0446
  925MOL0     C21984   5.723   1.936   0.135 -0.5900  0.2689  0.3932
  925MOL0     N21985   5.588   1.889   0.187  0.3559  0.6301  0.2695
  925MOL0     C21986   5.518   1.773   0.154  0.1246  0.0557 -0.8034
  925MOL0     C21987   5.401   1.789   0.229  0.4227  0.0691 -0.7708
  925MOL0     C21988   5.294   1.683   0.259 -0.7287 -0.3261  0.0338
  925MOL0     C21989   5.193   1.691   0.145 -0.5119 -0.1111 -0.7588
  925MOL0     C21990   5.261   1.644   0.007 -0.3019  0.0925  0.0125
  925MOL0     C21991   5.149   1.635  -0.099 -0.7261  1.0515 -0.6696
  925MOL0     O21992   5.110   1.770  -0.137 -0.0697  0.2937 -0.5439
  925MOL0     C21993   4.974   1.801  -0.135  0.3419  0.7033 -0.5883
  925MOL0     C21994   4.881   1.768  -0.031  0.8410  0.4752  0.9889
  925MOL0     C21995   4.743   1.800  -0.056 -0.3211  0.9066 -0.0372
  925MOL0     C21996   4.701   1.866  -0.174  0.4910  0.0606 -0.1181
  925MOL0     C21997   4.557   1.888  -0.212 -0.8002  0.6945 -0.6598
  925MOL0     O21998   4.528   1.974  -0.311 -0.0897  0.4862  0.6615
  925MOL0     C21999   4.398   1.996  -0.348 -0.7942 -0.5739 -0.1305
  925MOL0     C22000   4.359   1.992  -0.479  0.1832  0.0722  0.5458
  925MOL0     C22001   4.227   2.032  -0.514 -0.2734  0.7401  0.3830
  925MOL0     C22002   4.140   2.083  -0.424  0.4831  0.4487  0.0517
  925MOL0     O22003   4.019   2.136  -0.457  0.0930 -0.4063  0.3900
  925MOL0     C22004   3.948   2.069  -0.561  0.1377 -0.8245 -0.0448
  925MOL0     C22005   3.800   2.120  -0.595 -0.6192 -0.2618  0.0444
  925MOL0     C22006   3.715   2.127  -0.477  0.2266 -0.4386 -0.0436
  925MOL0     C22007   3.571   2.138  -0.528 -0.1093  0.4114 -0.8302
  925MOL0     C22008   3.471   2.162  -0.417  0.9748 -0.2335  0.7530
  925MOL0     C22009   3.323   2.144  -0.459  0.5071 -0.5840 -0.1399
  925MOL0     C22010   3.230   2.197  -0.357 -0.3254 -0.1155 -0.0264
  925MOL0     C22011   3.081   2.200  -0.386 -0.2657 -1.1556 -0.2183
  925MOL0    Cl22012   3.012   2.045  -0.431 -0.3863 -0.4206  0.0640
  925MOL0     C22013   4.182   2.099  -0.296 -1.4299 -0.4345  0.0014
  925MOL0     C22014   4.313   2.073  -0.265 -0.0719 -0.2976  0.0006
  925MOL0     O22015   4.469   1.833  -0.141 -0.0478  0.0418  0.1518
  925MOL0     C22016   4.802   1.911  -0.256  1.3398  0.1717 -0.0462
  925MOL0     C22017   4.937   1.879  -0.241 -0.2958 -0.3377 -0.7597
  925MOL0     N22018   5.409   1.910   0.294  0.2724 -0.0672 -0.4590
  925MOL0     N22019   5.518   1.970   0.263 -0.3443  0.3447 -0.4491
  925MOL0     C22020   6.708   2.355   0.107  0.1945 -0.1927  0.5568
  925MOL0     C22021   6.809   2.445   0.066 -0.5369 -0.4390  0.0678
  925MOL0     C22022   7.127   2.693  -0.101  0.5518 -0.1128 -0.4335
  925MOL0     C22023   7.072   2.732  -0.219 -1.0259  0.9855  1.0674
  925MOL0     C22024   7.130   2.825  -0.303 -0.5735  0.2677 -0.2248
  925MOL0     C22025   7.229   2.920  -0.258 -0.3834 -0.1400  0.7600
  925MOL0     O22026   7.274   3.019  -0.344  0.1290 -0.9074 -0.6141
  925MOL0     C22027   7.305   3.154  -0.313 -1.2582  0.4163  0.2008
  925MOL0     C22028   7.180   3.234  -0.290 -0.5512 -0.5108  0.7537
  925MOL0     C22029   7.108   3.252  -0.431 -0.1059  0.0432 -0.0334
  925MOL0     C22030   6.997   3.355  -0.434  0.1434  0.5139  0.1702
  925MOL0     C22031   7.052   3.484  -0.397 -0.1112 -0.7271 -0.6333
  925MOL0     C22032   7.100   3.592  -0.359  0.2703 -0.8324  0.4386
  925MOL0     C22033   7.282   2.895  -0.130  0.4898 -0.3204 -1.2459
  925MOL0     C22034   7.229   2.785  -0.056  0.8748  0.2846 -0.7323
  925MOL0     H22035   6.969   2.244  -0.148  0.8645 -1.0560  1.3777
  925MOL0     H22036   6.784   2.084  -0.072 -4.4819  0.1213 -0.4276
  925MOL0     H22037   6.620   1.982   0.035  2.9200  4.1690  2.7309
  925MOL0     H22038   6.500   2.043  -0.077 -0.0038 -0.3330 -0.3538
  925MOL0     H22039   6.381   2.064   0.191 -2.2855 -0.0060 -0.4195
  925MOL0     H22040   6.442   1.907   0.169 -1.1267 -0.4011 -0.2082
  925MOL0     H22041   6.335   1.908  -0.070 -0.0611  0.0283 -0.4950
  925MOL0     H22042   6.259   2.063  -0.017  0.1618 -0.7057 -0.7063
  925MOL0     H22043   6.147   1.811  -0.007 -0.4178  1.3350 -2.1831
  925MOL0     H22044   6.214   1.829   0.161 -1.8259 -0.1498  0.6313
  925MOL0     H22045   5.998   2.014   0.052 -1.5967 -1.9107 -0.5062
  925MOL0     H22046   6.092   2.017   0.213  3.6770 -4.1695  1.1042
  925MOL0     H22047   6.009   1.806   0.275 -1.1503 -2.3830 -0.8281
  925MOL0     H22048   5.922   1.790   0.119  0.3900  0.2594 -0.6072
  925MOL0     H22049   5.785   1.869   0.340 -2.7749  1.4651  0.0371
  925MOL0     H22050   5.836   2.032   0.281 -0.1277 -0.0777  0.5014
  925MOL0     H22051   5.752   1.890   0.040 -0.1040  0.9584  0.2045
  925MOL0     H22052   5.716   2.040   0.103 -1.3209 -0.0976 -0.7375
  925MOL0     H22053   5.549   1.687   0.096 -4.6979 -2.0957 -0.6879
  925MOL0     H22054   5.245   1.712   0.353  0.4721 -0.5572  0.7601
  925MOL0     H22055   5.343   1.586   0.270 -1.2244 -0.5477  0.3552
  925MOL0     H22056   5.151   1.791   0.127 -5.1465 -1.4477  1.0052
  925MOL0     H22057   5.115   1.616   0.163  0.2498 -0.7288  0.0487
  925MOL0     H22058   5.343   1.714  -0.014  1.0114 -0.7914  1.8543
  925MOL0     H22059   5.305   1.545   0.024 -1.1735 -0.9358 -3.1112
  925MOL0     H22060   5.062   1.583  -0.057 -1.1622  1.6014 -0.8693
  925MOL0     H22061   5.189   1.586  -0.188 -2.2180  0.9835 -1.3292
  925MOL0     H22062   4.896   1.700   0.053 -0.8059 -0.2358  0.7572
  925MOL0     H22063   4.659   1.779   0.009 -0.7555  0.7693 -0.6339
  925MOL0     H22064   4.425   1.938  -0.546 -0.6584 -0.4027  0.0825
  925MOL0     H22065   4.194   2.033  -0.617 -4.0684  4.0920  1.3595
  925MOL0     H22066   3.953   1.961  -0.551  0.6677 -1.2930 -4.0101
  925MOL0     H22067   4.013   2.085  -0.647  3.2261 -2.3989  1.8406
  925MOL0     H22068   3.750   2.053  -0.666 -2.0328 -1.5207  2.1079
  925MOL0     H22069   3.813   2.217  -0.643 -1.5323  0.7868  1.7774
  925MOL0     H22070   3.741   2.219  -0.424 -0.5395  0.1416 -0.6503
  925MOL0     H22071   3.733   2.037  -0.418  0.0338  0.9023  2.1756
  925MOL0     H22072   3.562   2.211  -0.608  0.6892  0.9202 -0.4636
  925MOL0     H22073   3.551   2.041  -0.576 -0.1695  0.0468 -0.0898
  925MOL0     H22074   3.459   2.267  -0.389 -3.8374 -0.4351  0.3173
  925MOL0     H22075   3.490   2.100  -0.329  1.0586 -0.3192  0.6750
  925MOL0     H22076   3.294   2.038  -0.464 -1.2196 -0.2187  1.1394
  925MOL0     H22077   3.299   2.196  -0.552 -0.8084  0.9429  1.0118
  925MOL0     H22078   3.227   2.137  -0.266  1.7635 -0.4016 -0.1181
  925MOL0     H22079   3.259   2.301  -0.337 -1.0397  0.2082 -0.5882
  925MOL0     H22080   3.082   2.273  -0.468  0.8797 -0.2698  0.5415
  925MOL0     H22081   3.038   2.253  -0.300  1.9181  2.4141 -1.0804
  925MOL0     H22082   4.103   2.130  -0.228 -2.2327 -2.3445 -0.0211
  925MOL0     H22083   4.348   2.099  -0.165 -0.2768  0.3159 -0.0825
  925MOL0     H22084   4.775   1.969  -0.344  3.1787  2.7320  0.9615
  925MOL0     H22085   5.014   1.898  -0.315  0.8705 -1.0120  0.2329
  925MOL0     H22086   6.635   2.393   0.177  0.2573 -0.4261  0.7498
  925MOL0     H22087   6.820   2.550   0.090  3.4306 -0.4546 -0.9517
  925MOL0     H22088   6.992   2.666  -0.251 -1.3768  0.8136  2.2511
  925MOL0     H22089   7.086   2.834  -0.402 -1.2261 -2.7162 -0.2908
  925MOL0     H22090   7.360   3.188  -0.401  0.3812 -1.1269  0.5557
  925MOL0     H22091   7.371   3.161  -0.225 -0.1717  5.9417 -0.6861
  925MOL0     H22092   7.125   3.159  -0.231  2.1703 -1.3313  2.4056
  925MOL0     H22093   7.198   3.332  -0.245 -3.4322  0.2154  0.5673
  925MOL0     H22094   7.081   3.153  -0.471 -2.0474 -1.0734  3.5908
  925MOL0     H22095   7.188   3.299  -0.488 -0.1304  1.6701  1.2068
  925MOL0     H22096   6.944   3.352  -0.530 -1.3173 -1.9726  0.9722
  925MOL0     H22097   6.923   3.328  -0.358 -1.7095  0.1690 -1.6702
  925MOL0     H22098   7.139   3.686  -0.325 -3.3353  0.4728  1.4347
  925MOL0     H22099   7.351   2.966  -0.085 -2.7161  1.4397  1.2725
  925MOL0     H22100   7.258   2.764   0.047  0.4460 -2.2510 -1.0536
  926MOL0     O22101  10.826   1.937   6.737 -0.2479  0.1447  0.7073
  926MOL0     C22102  10.755   1.836   6.733  0.6597 -0.0669 -0.6329
  926MOL0     O22103  10.792   1.729   6.669  0.0874  1.0495  0.0471
  926MOL0     C22104  10.890   1.725   6.574  1.0817  0.2549  0.0130
  926MOL0     C22105  11.013   1.677   6.614  0.4611  0.1367  0.3465
  926MOL0     C22106  11.116   1.671   6.517 -0.0499 -0.5286 -0.3306
  926MOL0     C22107  11.094   1.709   6.385 -0.2455 -0.9758  1.0863
  926MOL0     O22108  11.194   1.690   6.293 -0.0681  0.6351  0.4410
  926MOL0     C22109  11.173   1.708   6.154 -0.4950 -0.1568 -1.1092
  926MOL0     C22110  11.320   1.677   6.100  1.0888 -1.1268 -0.9219
  926MOL0     C22111  11.303   1.630   5.961  0.5187 -0.0483 -0.3742
  926MOL0     C22112  11.439   1.611   5.889  0.3687  0.7342  0.2947
  926MOL0     C22113  11.411   1.557   5.746  0.2467  0.1598  0.8715
  926MOL0     C22114  11.539   1.497   5.694 -0.3970 -0.1963 -0.0775
  926MOL0     C22115  11.509   1.439   5.553  0.1755 -0.3876  0.0433
  926MOL0     C22116  11.619   1.342   5.498  0.0501 -0.1994 -1.1935
  926MOL0     N22117  11.737   1.414   5.450  0.3621 -0.8145  0.0209
  926MOL0     C22118  11.745   1.496   5.336 -0.1332 -0.0659 -0.7438
  926MOL0     C22119  11.860   1.562   5.346  0.1789 -0.7521 -0.2740
  926MOL0     C22120  11.903   1.671   5.251 -0.2156  0.7397  0.1162
  926MOL0     C22121  11.809   1.792   5.260  0.1154  0.5183 -0.4257
  926MOL0     C22122  11.782   1.862   5.125 -0.2087 -0.3201 -0.2009
  926MOL0     C22123  11.636   1.885   5.089 -0.6169  0.3213  0.0021
  926MOL0     O22124  11.577   1.980   5.178 -0.7779  0.3026 -0.4862
  926MOL0     C22125  11.448   2.016   5.155  0.7656  0.4367 -0.0571
  926MOL0     C22126  11.385   2.129   5.212 -0.1354  0.0369 -1.2007
  926MOL0     C22127  11.250   2.162   5.207  0.0667  0.0291  0.1076
  926MOL0     C22128  11.166   2.087   5.128  0.5077 -0.6420 -0.2647
  926MOL0     C22129  11.023   2.125   5.109 -0.4609  0.3433 -0.7852
  926MOL0     O22130  10.939   2.032   5.053  0.3292  0.1363 -0.0180
  926MOL0     C22131  10.799   2.040   5.039  0.0572 -0.1948  0.7564
  926MOL0     C22132  10.747   1.924   4.968  1.2944  1.4786 -0.7610
  926MOL0     C22133  10.605   1.910   4.949 -0.0738 -0.6323  0.0851
  926MOL0     C22134  10.515   2.006   4.994  0.3048 -0.0867  0.4228
  926MOL0     O22135  10.383   1.995   5.006  0.6666  0.2387  0.2301
  926MOL0     C22136  10.322   1.895   4.927 -0.2621  0.4488  0.5578
  926MOL0     C22137  10.163   1.909   4.927 -0.7420 -0.5904  0.7903
  926MOL0     C22138  10.107   1.872   5.056  0.3876  1.1270  0.3132
  926MOL0     C22139   9.949   1.886   5.060 -0.4556 -0.1717 -0.0611
  926MOL0     C22140   9.902   2.028   5.099  0.0417 -0.9791 -0.4519
  926MOL0     C22141   9.760   2.068   5.059 -0.6084 -0.2514 -0.1322
  926MOL0     C22142   9.636   1.984   5.123 -0.3101 -0.0796 -0.4438
  926MOL0     C22143   9.643   1.977   5.279 -0.1896  0.0280  0.1418
  926MOL0    Cl22144   9.614   2.141   5.347  0.1961 -0.1196 -0.1705
  926MOL0     C22145  10.566   2.107   5.070  0.0069 -0.4583 -0.5359
  926MOL0     C22146  10.706   2.135   5.086 -0.9025  0.5945 -0.6741
  926MOL0     O22147  10.980   2.233   5.155  0.0742  0.2938 -0.0106
  926MOL0     C22148  11.222   1.974   5.061  0.2864  0.6194 -0.1640
  926MOL0     C22149  11.358   1.951   5.070  0.1614 -0.8710  0.2597
  926MOL0     N22150  11.926   1.519   5.466 -0.2988 -0.6091  0.4420
  926MOL0     N22151  11.854   1.430   5.520 -0.0814  0.1675  0.6056
  926MOL0     C22152  10.970   1.765   6.347 -0.4582 -0.4172 -0.1532
  926MOL0     C22153  10.865   1.774   6.444 -0.8238  0.4234 -0.4194
  926MOL0     C22154  10.645   1.831   6.821 -0.1135 -0.5707  0.3615
  926MOL0     C22155  10.561   1.715   6.823 -0.1144 -0.6861  0.4464
  926MOL0     C22156  10.464   1.714   6.927  0.2499  0.2308  0.9651
  926MOL0     C22157  10.452   1.808   7.028 -0.4002 -0.0951  0.0479
  926MOL0     O22158  10.356   1.796   7.120  0.4792  0.5663  0.4862
  926MOL0     C22159  10.340   1.878   7.238  0.6500 -0.1379  0.3680
  926MOL0     C22160  10.274   2.012   7.221 -0.1494 -0.1202 -0.8776
  926MOL0     C22161  10.118   1.997   7.195  0.8959 -0.1772  0.5687
  926MOL0     C22162  10.044   1.957   7.322 -0.0899 -0.8015 -0.5494
  926MOL0     C22163   9.902   1.960   7.295  0.4913 -0.7777  0.4867
  926MOL0     C22164   9.782   1.979   7.285 -0.1813 -0.1976  1.0306
  926MOL0     C22165  10.532   1.924   7.007  0.7186 -1.1809 -0.5633
  926MOL0     C22166  10.624   1.937   6.905  0.0563 -0.1973 -0.3077
  926MOL0     H22167  11.027   1.643   6.716  2.5868 -1.9414 -0.5364
  926MOL0     H22168  11.218   1.641   6.541  1.4683  2.9846 -1.7918
  926MOL0     H22169  11.146   1.811   6.129  1.2999  0.3933 -0.9055
  926MOL0     H22170  11.094   1.636   6.128  0.4837 -1.5250 -0.3954
  926MOL0     H22171  11.359   1.591   6.155 -0.1870 -0.8187  0.5650
  926MOL0     H22172  11.388   1.759   6.126  1.6297 -1.4838 -1.1918
  926MOL0     H22173  11.240   1.696   5.900 -0.4812  1.2791  1.9595
  926MOL0     H22174  11.262   1.528   5.953  0.9131 -0.0966 -2.1953
  926MOL0     H22175  11.501   1.701   5.884 -1.0623  1.6958 -0.9601
  926MOL0     H22176  11.488   1.530   5.944 -2.2828 -1.8128 -0.8140
  926MOL0     H22177  11.379   1.630   5.671  0.6132 -0.1716  0.3869
  926MOL0     H22178  11.336   1.480   5.766  0.4242  0.5116  3.0946
  926MOL0     H22179  11.565   1.423   5.770 -0.6797  0.4512  0.6646
  926MOL0     H22180  11.618   1.573   5.695 -2.5946  2.2234  0.6828
  926MOL0     H22181  11.423   1.372   5.558  0.4722 -0.6978  1.2036
  926MOL0     H22182  11.501   1.510   5.470  0.8555  0.0104  0.3086
  926MOL0     H22183  11.580   1.282   5.415 -0.7039  0.2029 -1.1305
  926MOL0     H22184  11.655   1.277   5.578 -2.4794  0.4165  0.5545
  926MOL0     H22185  11.678   1.502   5.251  1.3936 -3.1492 -2.3313
  926MOL0     H22186  11.890   1.629   5.151 -3.6176 -1.6692  1.3801
  926MOL0     H22187  12.009   1.694   5.269  0.7985 -3.4803  0.5574
  926MOL0     H22188  11.844   1.871   5.328  0.7321  1.3811 -1.6963
  926MOL0     H22189  11.708   1.763   5.292  0.9068 -3.1762 -0.8537
  926MOL0     H22190  11.818   1.965   5.126  1.1787 -0.7812 -1.0817
  926MOL0     H22191  11.837   1.811   5.046  1.9761  1.0471  0.3624
  926MOL0     H22192  11.576   1.794   5.087 -3.5910  1.9960  2.2382
  926MOL0     H22193  11.631   1.936   4.992 -1.6668  0.7047  0.2399
  926MOL0     H22194  11.447   2.182   5.284  0.6132 -2.2061 -0.1024
  926MOL0     H22195  11.204   2.238   5.270  3.7953  1.1393  1.7789
  926MOL0     H22196  10.823   1.851   4.943  0.8574  1.6448 -2.8087
  926MOL0     H22197  10.579   1.811   4.912  0.7334 -1.2324  1.0806
  926MOL0     H22198  10.351   1.794   4.957 -0.2389  0.5071  0.7321
  926MOL0     H22199  10.354   1.918   4.825  2.7366 -0.5502  1.1614
  926MOL0     H22200  10.137   1.838   4.848  0.0599 -1.0696  0.9422
  926MOL0     H22201  10.125   2.010   4.907 -0.3596 -0.5865  0.0309
  926MOL0     H22202  10.154   1.931   5.136 -0.0325  1.0225  0.6445
  926MOL0     H22203  10.121   1.766   5.078 -0.3484  1.2902  1.7135
  926MOL0     H22204   9.903   1.854   4.965 -0.4539  2.6681 -1.1183
  926MOL0     H22205   9.911   1.817   5.136 -0.6216 -0.8248 -0.7220
  926MOL0     H22206   9.969   2.101   5.055  1.7508 -0.7675  2.2629
  926MOL0     H22207   9.923   2.051   5.204 -1.0878  2.8991 -0.9209
  926MOL0     H22208   9.739   2.063   4.952 -2.9770 -1.1554  0.3221
  926MOL0     H22209   9.755   2.176   5.078  3.3234 -0.1518  1.2861
  926MOL0     H22210   9.546   2.041   5.098  0.1764  0.8471 -0.1243
  926MOL0     H22211   9.627   1.882   5.083 -0.7815  0.2090 -1.0800
  926MOL0     H22212   9.740   1.948   5.321  0.1815  1.9082  0.6869
  926MOL0     H22213   9.558   1.919   5.315 -3.8309  4.8843  0.4147
  926MOL0     H22214  10.500   2.178   5.119  1.8576 -0.0963  1.6131
  926MOL0     H22215  10.746   2.216   5.146  0.2164 -1.2757  1.2505
  926MOL0     H22216  11.159   1.929   4.985 -1.5226 -3.3925  3.2804
  926MOL0     H22217  11.389   1.859   5.021 -0.9224  0.7427 -3.8653
  926MOL0     H22218  10.956   1.791   6.242  2.4271 -1.2546 -0.8298
  926MOL0     H22219  10.769   1.809   6.409  0.3578  0.6784 -3.7755
  926MOL0     H22220  10.570   1.628   6.758 -0.2381 -1.1119  0.9924
  926MOL0     H22221  10.403   1.625   6.922 -1.0862  1.1572  0.0550
  926MOL0     H22222  10.445   1.895   7.262  0.7165  0.0342 -0.0348
  926MOL0     H22223  10.286   1.826   7.318 -1.1225  0.6946 -0.2377
  926MOL0     H22224  10.289   2.083   7.303  0.3610 -0.0768 -1.0094
  926MOL0     H22225  10.317   2.061   7.133 -1.0849  1.3498 -0.5517
  926MOL0     H22226  10.099   1.923   7.116 -1.0462  1.4340 -0.5572
  926MOL0     H22227  10.083   2.094   7.158  0.7486 -1.1346 -2.0324
  926MOL0     H22228  10.075   1.858   7.359 -2.6374 -1.0279  1.1551
  926MOL0     H22229  10.061   2.035   7.397  2.5015  0.8181 -2.6090
  926MOL0     H22230   9.683   1.993   7.247  0.8339  1.1827 -1.3386
  926MOL0     H22231  10.519   2.014   7.067  2.2844  1.3385 -3.7242
  926MOL0     H22232  10.680   2.030   6.904  0.1505 -0.2523 -0.9693
  927MOL0     O22233   4.798   3.850  10.527 -0.2707  0.6818  0.0546
  927MOL0     C22234   4.831   3.756  10.602 -0.4323 -0.0725  0.5590
  927MOL0     O22235   4.756   3.647  10.634 -0.6134  1.1159  0.0548
  927MOL0     C22236   4.621   3.629  10.614 -0.1260 -0.3621 -0.0741
  927MOL0     C22237   4.547   3.577  10.721  0.1644 -0.1458  0.8737
  927MOL0     C22238   4.401   3.577  10.725 -0.4924  0.1824 -0.3809
  927MOL0     C22239   4.339   3.619  10.610 -0.7694 -0.4436  0.6967
  927MOL0     O22240   4.202   3.622  10.610 -0.0069 -0.3555 -0.2817
  927MOL0     C22241   4.128   3.735  10.568 -0.3362  0.4803  0.5698
  927MOL0     C22242   3.982   3.701  10.535  0.5253 -0.4914 -0.1232
  927MOL0     C22243   3.902   3.812  10.468 -1.5885  0.4201  0.5343
  927MOL0     C22244   3.752   3.813  10.487  0.4496  0.6653 -0.4866
  927MOL0     C22245   3.693   3.920  10.396 -1.1922 -0.0397 -0.9968
  927MOL0     C22246   3.548   3.897  10.377 -0.2579 -0.2353 -0.0036
  927MOL0     C22247   3.496   3.996  10.276  0.4167  0.2259  0.4395
  927MOL0     C22248   3.479   4.127  10.354 -0.3205  0.0634 -0.0348
  927MOL0     N22249   3.421   4.240  10.282 -0.5905  0.3926  0.2981
  927MOL0     C22250   3.315   4.302  10.337  0.1409  0.9940 -0.0822
  927MOL0     C22251   3.261   4.364  10.236 -1.0008  0.2288  0.2417
  927MOL0     C22252   3.135   4.439  10.240  1.2762  0.1621  0.2725
  927MOL0     C22253   3.014   4.360  10.274 -0.6679 -0.2311 -0.3503
  927MOL0     C22254   2.983   4.254  10.175  0.4740  0.0491 -0.0269
  927MOL0     C22255   2.978   4.294  10.025 -0.7670  0.3063  0.4861
  927MOL0     O22256   2.874   4.385  10.001  0.3657 -0.1618 -0.0126
  927MOL0     C22257   2.756   4.350   9.951 -1.0758  0.0988  0.2617
  927MOL0     C22258   2.708   4.221   9.945  0.0120 -0.3787 -0.3490
  927MOL0     C22259   2.581   4.194   9.880 -0.9371 -0.0248  0.0054
  927MOL0     C22260   2.510   4.289   9.806 -0.1187 -0.8170 -0.3436
  927MOL0     C22261   2.374   4.265   9.749  0.1201 -0.1408  0.6809
  927MOL0     O22262   2.313   4.367   9.685  0.0600  0.1755  0.0390
  927MOL0     C22263   2.228   4.326   9.584  1.0159  0.1093  0.6669
  927MOL0     C22264   2.091   4.282   9.606 -0.1561 -0.1743 -0.6338
  927MOL0     C22265   2.010   4.247   9.500 -0.8822  0.3842 -0.2895
  927MOL0     C22266   2.060   4.254   9.370  0.1401  0.7684 -0.2690
  927MOL0     O22267   1.960   4.244   9.278 -0.4004  0.0528  0.3452
  927MOL0     C22268   1.995   4.155   9.173  0.7027  0.5278  0.9606
  927MOL0     C22269   1.863   4.099   9.105 -0.3116  0.5798 -1.2330
  927MOL0     C22270   1.761   4.205   9.042  0.8018  0.0160  0.1534
  927MOL0     C22271   1.631   4.138   8.991  0.4749 -0.5250  1.2267
  927MOL0     C22272   1.513   4.233   8.970  0.7956  0.4311 -0.1866
  927MOL0     C22273   1.405   4.220   9.083  0.7904 -0.3338  0.9887
  927MOL0     C22274   1.274   4.273   9.017  0.5510 -0.3517  0.3665
  927MOL0     C22275   1.162   4.300   9.112  0.9388 -0.8496  0.5625
  927MOL0    Cl22276   1.158   4.168   9.236 -0.0346 -0.0625  0.5366
  927MOL0     C22277   2.193   4.293   9.343 -0.8055 -0.3644 -0.5709
  927MOL0     C22278   2.275   4.322   9.455  0.1112 -0.8778 -0.3115
  927MOL0     O22279   2.329   4.150   9.768  0.0794  0.6010  0.0765
  927MOL0     C22280   2.571   4.416   9.794  0.2166 -0.3132  0.4361
  927MOL0     C22281   2.686   4.439   9.873  0.5630  0.6410  0.4094
  927MOL0     N22282   3.340   4.343  10.117 -0.2989 -0.3404 -0.8654
  927MOL0     N22283   3.433   4.262  10.152 -0.5396  0.2094  0.3088
  927MOL0     C22284   4.413   3.663  10.496  0.9407 -0.2505 -0.3440
  927MOL0     C22285   4.549   3.667  10.498 -0.0458  0.4802 -0.1692
  927MOL0     C22286   4.980   3.750  10.641 -0.7656  0.4805 -0.1978
  927MOL0     C22287   5.044   3.638  10.700 -0.0934 -0.1531  0.4129
  927MOL0     C22288   5.183   3.634  10.741  0.5827 -0.6700  0.7165
  927MOL0     C22289   5.257   3.748  10.725 -0.3762 -0.0306  0.4316
  927MOL0     O22290   5.389   3.758  10.776 -0.1166  0.3778  1.0846
  927MOL0     C22291   5.470   3.874  10.770 -0.3416 -0.4693  0.2452
  927MOL0     C22292   5.564   3.877  10.644 -0.4668 -0.5020  0.1727
  927MOL0     C22293   5.671   3.770  10.644 -0.3428 -1.3536  0.1419
  927MOL0     C22294   5.715   3.730  10.790 -0.2286  0.0262 -0.1396
  927MOL0     C22295   5.806   3.617  10.801  0.1809  0.8755  0.1092
  927MOL0     C22296   5.881   3.515  10.796  0.0725 -0.3078 -0.9916
  927MOL0     C22297   5.196   3.853  10.673  0.0982 -0.3752 -0.1116
  927MOL0     C22298   5.063   3.861  10.621 -0.3679  1.0479 -0.9993
  927MOL0     H22299   4.612   3.524  10.790  4.7883  2.1671 -1.2376
  927MOL0     H22300   4.357   3.529  10.812  1.4205 -1.4072 -0.2206
  927MOL0     H22301   4.164   3.770  10.471  1.0232  0.1555  0.9267
  927MOL0     H22302   4.134   3.823  10.632 -2.0865  1.1609 -0.1499
  927MOL0     H22303   3.933   3.690  10.632 -0.0123  0.8282 -0.2157
  927MOL0     H22304   3.964   3.606  10.483 -0.8551  0.0562 -0.7054
  927MOL0     H22305   3.935   3.821  10.364 -0.0499 -1.0256  0.8580
  927MOL0     H22306   3.943   3.903  10.513  0.3129  1.2224 -2.5233
  927MOL0     H22307   3.709   3.721  10.446 -0.9057 -0.3877  2.9252
  927MOL0     H22308   3.720   3.821  10.592 -1.1272 -0.6659 -0.8194
  927MOL0     H22309   3.762   3.938  10.313  2.1636  2.8614  2.0435
  927MOL0     H22310   3.718   4.009  10.454 -0.4522 -0.3212 -0.8667
  927MOL0     H22311   3.500   3.901  10.475 -0.7333 -0.1927 -0.2346
  927MOL0     H22312   3.526   3.801  10.328  0.4828 -0.1935 -0.4463
  927MOL0     H22313   3.553   4.005  10.184 -0.6942 -0.1514 -0.3098
  927MOL0     H22314   3.406   3.946  10.238 -0.6679  2.2005  0.2645
  927MOL0     H22315   3.585   4.150  10.369  0.4343 -2.0267 -1.6773
  927MOL0     H22316   3.431   4.095  10.447  1.6537 -1.6328  0.5082
  927MOL0     H22317   3.273   4.294  10.437 -1.2540 -1.2119 -0.8008
  927MOL0     H22318   3.126   4.503  10.152  0.0770 -0.1422  0.1521
  927MOL0     H22319   3.138   4.507  10.326  0.6631  3.5261 -2.1699
  927MOL0     H22320   2.926   4.425  10.274  0.0255  0.7410 -0.9093
  927MOL0     H22321   3.027   4.321  10.375  0.5140 -1.5241 -0.9667
  927MOL0     H22322   3.048   4.166  10.181  3.0534  1.8101 -0.7075
  927MOL0     H22323   2.880   4.227  10.200  0.2074  1.6536  0.6777
  927MOL0     H22324   2.968   4.204   9.964 -0.5864  0.5160  0.1475
  927MOL0     H22325   3.076   4.338  10.004 -1.6865  2.5425  0.6531
  927MOL0     H22326   2.759   4.147  10.007 -0.6256 -0.4877  0.0678
  927MOL0     H22327   2.545   4.091   9.885  0.0783 -0.3120  2.6186
  927MOL0     H22328   2.057   4.278   9.709  1.4102 -3.4569 -0.1403
  927MOL0     H22329   1.907   4.226   9.527 -0.4433 -3.3061 -0.9179
  927MOL0     H22330   2.054   4.069   9.209 -0.3779 -1.0300 -0.8039
  927MOL0     H22331   2.042   4.215   9.095 -2.0176 -0.0430 -1.2904
  927MOL0     H22332   1.823   4.035   9.183  0.5419 -0.4388 -1.6059
  927MOL0     H22333   1.886   4.031   9.023  1.1402 -0.4293 -0.0268
  927MOL0     H22334   1.795   4.279   8.970 -4.6642  1.1273 -1.7934
  927MOL0     H22335   1.737   4.268   9.128  2.3725  2.3641 -1.0326
  927MOL0     H22336   1.662   4.094   8.897  0.4283 -0.8744  1.3749
  927MOL0     H22337   1.609   4.052   9.055  1.6762 -1.8185 -0.0299
  927MOL0     H22338   1.461   4.205   8.878 -1.3313  0.5439  0.9379
  927MOL0     H22339   1.555   4.334   8.959  1.2341  0.1767 -0.9497
  927MOL0     H22340   1.425   4.273   9.176  2.1256  0.5143  0.2531
  927MOL0     H22341   1.400   4.115   9.114  0.7357  0.2064  2.9460
  927MOL0     H22342   1.294   4.367   8.965 -0.9599 -0.0585  0.2440
  927MOL0     H22343   1.245   4.207   8.934 -0.0943  0.9891 -0.5152
  927MOL0     H22344   1.064   4.306   9.063  0.2845 -3.9052  1.2562
  927MOL0     H22345   1.184   4.395   9.162 -1.8162  2.2627 -3.4853
  927MOL0     H22346   2.243   4.300   9.247  4.3013  0.7712  1.8246
  927MOL0     H22347   2.380   4.348   9.443 -0.2886  0.4356 -1.2427
  927MOL0     H22348   2.537   4.483   9.717  2.2855 -3.1946 -3.3078
  927MOL0     H22349   2.721   4.541   9.856  0.7693  0.3582 -0.9399
  927MOL0     H22350   4.381   3.699  10.399 -3.3726 -1.8744  0.2374
  927MOL0     H22351   4.610   3.705  10.417 -0.0115  1.1444  0.1548
  927MOL0     H22352   4.988   3.545  10.709  1.7625 -1.1466  3.0305
  927MOL0     H22353   5.218   3.536  10.769  2.0999 -0.3557  0.0086
  927MOL0     H22354   5.534   3.879  10.858 -1.3033  2.1137  0.8763
  927MOL0     H22355   5.418   3.970  10.761  0.5691 -0.0657 -1.0098
  927MOL0     H22356   5.502   3.883  10.555 -1.5481 -0.2316  0.9262
  927MOL0     H22357   5.617   3.973  10.651 -0.8613 -0.1512 -1.2962
  927MOL0     H22358   5.764   3.794  10.590 -0.5950 -1.3083 -0.2755
  927MOL0     H22359   5.625   3.684  10.595 -1.8686  0.3294 -1.5462
  927MOL0     H22360   5.767   3.816  10.835  3.0197 -1.9485  0.1863
  927MOL0     H22361   5.642   3.706  10.867  1.8525 -1.9864  1.3407
  927MOL0     H22362   5.940   3.429  10.819 -0.4170 -0.1682  1.0351
  927MOL0     H22363   5.250   3.947  10.666  0.6209 -0.7816 -2.4111
  927MOL0     H22364   5.004   3.947  10.593  0.4619  1.5756 -1.1715
  928MOL0     O22365   0.477   2.581   4.406  0.6697 -0.1074 -0.6790
  928MOL0     C22366   0.512   2.504   4.320 -0.8071  1.0939  0.9146
  928MOL0     O22367   0.434   2.439   4.236 -0.2701 -0.0407  0.3816
  928MOL0     C22368   0.303   2.460   4.268  0.9509  0.4887 -0.1612
  928MOL0     C22369   0.221   2.372   4.341 -0.4236 -1.0225  0.6380
  928MOL0     C22370   0.092   2.396   4.359  0.6068 -0.7626 -0.4742
  928MOL0     C22371   0.029   2.499   4.289  0.9265 -0.4013 -0.8950
  928MOL0     O22372  -0.109   2.505   4.285  0.0313 -0.2521 -0.3563
  928MOL0     C22373  -0.168   2.387   4.235 -0.0758 -0.5681  0.1836
  928MOL0     C22374  -0.287   2.437   4.152 -0.0890 -0.1654  0.4727
  928MOL0     C22375  -0.404   2.504   4.225 -0.0500  0.4344  0.2838
  928MOL0     C22376  -0.516   2.582   4.134 -0.1399  0.0019 -0.3660
  928MOL0     C22377  -0.642   2.631   4.212 -0.6545  0.4695 -0.2363
  928MOL0     C22378  -0.746   2.667   4.099 -0.4858  0.2799 -0.1835
  928MOL0     C22379  -0.861   2.741   4.165  0.1267  0.1575  0.6933
  928MOL0     C22380  -0.931   2.832   4.072 -0.2789  0.7065 -0.1708
  928MOL0     N22381  -1.032   2.925   4.131 -0.6760  0.8523  0.2547
  928MOL0     C22382  -1.155   2.889   4.174 -0.8256  0.6494  0.8603
  928MOL0     C22383  -1.214   3.007   4.197 -0.1211 -0.5525  0.1227
  928MOL0     C22384  -1.345   3.016   4.270  0.4445  0.4372 -0.7998
  928MOL0     C22385  -1.354   2.940   4.407  1.0613  1.0303 -0.7477
  928MOL0     C22386  -1.470   2.992   4.500  0.4231 -0.5216 -0.5359
  928MOL0     C22387  -1.606   2.941   4.442  0.2570 -0.0876 -0.3059
  928MOL0     O22388  -1.710   2.991   4.519 -0.0468  1.0740 -0.5405
  928MOL0     C22389  -1.827   2.915   4.515  0.9955  0.2034  0.4212
  928MOL0     C22390  -1.870   2.829   4.406 -0.0769 -0.0109  0.2097
  928MOL0     C22391  -1.991   2.753   4.428 -0.6575 -1.1497  1.0255
  928MOL0     C22392  -2.075   2.775   4.532 -0.2139 -0.3738  0.7019
  928MOL0     C22393  -2.201   2.696   4.544 -0.1572  0.1430  0.2039
  928MOL0     O22394  -2.270   2.725   4.656  0.0961 -0.0417 -1.1976
  928MOL0     C22395  -2.395   2.681   4.675  0.1251 -0.7678  0.1264
  928MOL0     C22396  -2.425   2.545   4.692 -0.0597 -0.5464  0.0561
  928MOL0     C22397  -2.559   2.517   4.726 -0.2974 -0.2143  0.5136
  928MOL0     C22398  -2.656   2.618   4.754  0.4162 -0.0572 -0.1006
  928MOL0     O22399  -2.788   2.598   4.792  0.2531  0.3391 -0.0495
  928MOL0     C22400  -2.846   2.465   4.808 -1.0679  0.6909  0.4536
  928MOL0     C22401  -2.795   2.403   4.933 -0.9408 -0.0705 -0.3602
  928MOL0     C22402  -2.903   2.328   5.017 -0.7495  0.0235  0.0892
  928MOL0     C22403  -2.848   2.246   5.131  0.3857  0.2337  0.7532
  928MOL0     C22404  -2.944   2.235   5.247  0.0560  0.3301 -0.0258
  928MOL0     C22405  -2.882   2.141   5.350  0.0315  0.1298 -0.8560
  928MOL0     C22406  -2.966   2.146   5.481  0.3183  0.1894 -0.9219
  928MOL0     C22407  -2.900   2.063   5.582  0.7111  0.0014 -0.1479
  928MOL0    Cl22408  -2.939   1.885   5.574 -0.6228 -0.1327  0.2101
  928MOL0     C22409  -2.626   2.748   4.749  0.4366 -0.7790  1.0042
  928MOL0     C22410  -2.491   2.783   4.720 -0.6015 -0.5898  0.1667
  928MOL0     O22411  -2.246   2.632   4.451 -0.2125 -0.0536  0.3092
  928MOL0     C22412  -2.048   2.869   4.621  0.2037 -0.5138  0.0135
  928MOL0     C22413  -1.921   2.932   4.620 -1.2112  0.2784  0.5900
  928MOL0     N22414  -1.134   3.106   4.144  0.0978  0.6131 -0.1775
  928MOL0     N22415  -1.025   3.053   4.101  0.4803  0.1305  0.0881
  928MOL0     C22416   0.098   2.590   4.221  0.8381  0.2299  0.0886
  928MOL0     C22417   0.236   2.568   4.212 -0.1322  0.1697 -0.3246
  928MOL0     C22418   0.657   2.485   4.273 -0.0862 -0.0398 -0.1646
  928MOL0     C22419   0.713   2.371   4.207  1.3442 -1.0368  0.2372
  928MOL0     C22420   0.849   2.367   4.177 -0.6170  0.3399  0.5538
  928MOL0     C22421   0.937   2.464   4.209  0.8420 -1.0310 -0.5942
  928MOL0     O22422   1.071   2.460   4.182 -0.0084 -0.3875  0.4738
  928MOL0     C22423   1.112   2.441   4.048 -0.0236 -0.3200 -0.2286
  928MOL0     C22424   1.149   2.568   3.971 -0.6290  0.5046 -0.3326
  928MOL0     C22425   1.263   2.656   4.040 -0.1232  0.0936  0.4077
  928MOL0     C22426   1.281   2.793   3.957 -0.0196 -0.3713  0.5728
  928MOL0     C22427   1.343   2.772   3.819  0.1383 -0.0305  0.0205
  928MOL0     C22428   1.414   2.732   3.730 -0.1848 -0.4409  0.0099
  928MOL0     C22429   0.892   2.575   4.288  0.0284 -0.4121  0.3221
  928MOL0     C22430   0.756   2.581   4.318 -0.0294  0.5869  0.1494
  928MOL0     H22431   0.281   2.294   4.388  0.8622  0.5688  1.7459
  928MOL0     H22432   0.032   2.335   4.426  1.3174  0.1997  1.1239
  928MOL0     H22433  -0.201   2.320   4.315 -2.5208  0.0586 -0.2414
  928MOL0     H22434  -0.109   2.321   4.169  3.3994  0.3048  2.1380
  928MOL0     H22435  -0.335   2.357   4.096 -1.5442  2.5778 -2.5485
  928MOL0     H22436  -0.252   2.506   4.074 -0.6624 -2.7290 -2.2270
  928MOL0     H22437  -0.370   2.579   4.297  1.0566  1.7089 -1.4618
  928MOL0     H22438  -0.452   2.427   4.284 -2.4880  2.5943  1.3002
  928MOL0     H22439  -0.461   2.670   4.101 -1.0642  0.3751 -0.9344
  928MOL0     H22440  -0.543   2.512   4.054  0.4381 -1.9726  1.0795
  928MOL0     H22441  -0.611   2.717   4.271 -2.1136  1.9739 -1.5227
  928MOL0     H22442  -0.688   2.552   4.273  0.0107 -0.2141 -0.6005
  928MOL0     H22443  -0.786   2.589   4.033  1.4972 -3.1022  2.2698
  928MOL0     H22444  -0.702   2.737   4.027 -2.2973  0.2957 -1.3391
  928MOL0     H22445  -0.929   2.676   4.221  0.3761 -0.2684  0.5089
  928MOL0     H22446  -0.835   2.811   4.245  1.5368  1.1792 -0.6145
  928MOL0     H22447  -0.984   2.763   4.006 -0.0332  0.4690 -0.1231
  928MOL0     H22448  -0.859   2.887   4.011 -0.3653  1.7732  0.6552
  928MOL0     H22449  -1.183   2.786   4.197  0.0673  0.4098  0.9023
  928MOL0     H22450  -1.412   2.965   4.199  0.1448 -0.6902  0.2491
  928MOL0     H22451  -1.356   3.124   4.272 -0.0867  0.3800  1.5729
  928MOL0     H22452  -1.264   2.969   4.461  1.2740  1.8126 -1.5000
  928MOL0     H22453  -1.360   2.831   4.395  1.1370  0.4270  3.2321
  928MOL0     H22454  -1.453   2.961   4.604 -1.4869  1.6863  0.5480
  928MOL0     H22455  -1.480   3.101   4.499 -0.3342 -0.5845 -0.8306
  928MOL0     H22456  -1.609   2.832   4.441  4.3843 -0.3432 -1.4366
  928MOL0     H22457  -1.615   2.978   4.340  1.1682  0.5504 -0.1699
  928MOL0     H22458  -1.816   2.822   4.313 -0.2741 -0.2677  0.1127
  928MOL0     H22459  -2.027   2.682   4.353  1.6537  0.7257 -2.1160
  928MOL0     H22460  -2.355   2.463   4.680  2.1749  1.4900 -1.7383
  928MOL0     H22461  -2.594   2.414   4.735  0.8020 -0.4488  2.5556
  928MOL0     H22462  -2.826   2.407   4.718  1.8356  4.3701 -1.5344
  928MOL0     H22463  -2.955   2.471   4.818 -0.8947  1.7343  2.1323
  928MOL0     H22464  -2.749   2.477   4.998 -2.7555  0.1551  0.7430
  928MOL0     H22465  -2.713   2.347   4.888  0.2925  0.9357  0.5789
  928MOL0     H22466  -2.969   2.262   4.960 -0.7729  0.0376  0.0998
  928MOL0     H22467  -2.959   2.404   5.072  2.0679 -0.1848  3.6084
  928MOL0     H22468  -2.808   2.149   5.099 -0.6450  0.1929 -0.5161
  928MOL0     H22469  -2.767   2.305   5.175  0.0908  0.8145  0.5200
  928MOL0     H22470  -3.035   2.193   5.204  0.7928  1.2684 -2.7702
  928MOL0     H22471  -2.967   2.335   5.285 -0.6001  1.0704 -2.1836
  928MOL0     H22472  -2.788   2.194   5.371 -0.2612  1.7448 -3.3184
  928MOL0     H22473  -2.854   2.039   5.324  0.7078  0.1976 -0.4272
  928MOL0     H22474  -2.985   2.249   5.510 -0.4902  0.0347 -0.8819
  928MOL0     H22475  -3.063   2.100   5.460  1.1087 -1.7975 -0.4646
  928MOL0     H22476  -2.937   2.104   5.676 -0.7076 -2.1936  0.3331
  928MOL0     H22477  -2.791   2.073   5.584  0.5101  3.8431  3.3575
  928MOL0     H22478  -2.709   2.816   4.765 -1.1400 -1.9517 -1.5135
  928MOL0     H22479  -2.452   2.884   4.732  0.4244 -1.2933  4.5887
  928MOL0     H22480  -2.121   2.894   4.698 -0.2799 -3.0827  0.4791
  928MOL0     H22481  -1.882   2.995   4.699  3.0995 -1.0316 -0.2187
  928MOL0     H22482   0.055   2.669   4.161  4.7126  0.6696 -2.4712
  928MOL0     H22483   0.294   2.628   4.143 -0.4932 -0.2703 -1.0236
  928MOL0     H22484   0.650   2.284   4.187  1.4701 -0.8931 -0.8562
  928MOL0     H22485   0.893   2.282   4.126 -2.2726  0.8620 -1.9255
  928MOL0     H22486   1.039   2.382   3.991 -0.5026  0.8975 -0.9250
  928MOL0     H22487   1.209   2.393   4.059 -0.1795 -0.2511  1.9314
  928MOL0     H22488   1.180   2.534   3.872  1.6210  2.2177 -0.3170
  928MOL0     H22489   1.058   2.624   3.949  1.2459  2.9442 -2.4273
  928MOL0     H22490   1.360   2.605   4.036  1.3216  2.7363 -1.2298
  928MOL0     H22491   1.247   2.662   4.148  2.5219  0.2547  0.8690
  928MOL0     H22492   1.182   2.841   3.957  0.1933  0.5997 -4.2808
  928MOL0     H22493   1.350   2.851   4.017  0.1142 -1.1581  1.1966
  928MOL0     H22494   1.473   2.701   3.646  0.2275  0.5414 -0.0793
  928MOL0     H22495   0.966   2.644   4.327  1.9710 -0.9826 -2.1828
  928MOL0     H22496   0.714   2.658   4.381 -2.3803  2.2313 -3.1218
  929MOL0     O22497   0.603   0.951   9.641 -0.4308 -0.0617 -0.3492
  929MOL0     C22498   0.564   0.988   9.751 -0.3205  0.1867 -0.7716
  929MOL0     O22499   0.639   1.074   9.832 -0.7554 -0.2483 -0.5596
  929MOL0     C22500   0.775   1.082   9.804  0.8320  1.0426 -0.7087
  929MOL0     C22501   0.847   0.963   9.810 -0.3554 -0.4356  0.1892
  929MOL0     C22502   0.980   0.972   9.771  0.6104  0.0136 -0.8687
  929MOL0     C22503   1.042   1.085   9.731  0.0350 -0.3961 -0.5357
  929MOL0     O22504   1.166   1.069   9.682 -0.9904  0.5450 -0.2756
  929MOL0     C22505   1.242   1.178   9.664 -0.5467 -0.9121  0.4841
  929MOL0     C22506   1.386   1.141   9.628 -0.6815  0.8360 -0.7352
  929MOL0     C22507   1.392   1.114   9.473  0.3003 -0.6150 -0.3510
  929MOL0     C22508   1.536   1.083   9.415 -0.2835  0.1013 -0.3321
  929MOL0     C22509   1.540   1.076   9.252 -0.3354 -0.2746  0.9913
  929MOL0     C22510   1.456   0.958   9.195 -0.2259 -0.3978 -0.1235
  929MOL0     C22511   1.491   0.923   9.052 -0.4604 -0.5866 -0.2047
  929MOL0     C22512   1.386   0.825   8.991  0.6353 -0.3497  0.3109
  929MOL0     N22513   1.248   0.872   8.996  0.4403 -0.5627 -0.7405
  929MOL0     C22514   1.142   0.787   9.026  0.6068 -1.1252  0.2118
  929MOL0     C22515   1.031   0.850   8.991  0.8981 -0.2189 -0.5341
  929MOL0     C22516   0.891   0.790   8.977 -0.0855 -0.6867 -0.2280
  929MOL0     C22517   0.771   0.856   9.044 -0.2697  0.1725 -0.7827
  929MOL0     C22518   0.737   0.788   9.182 -1.4073 -0.6173  0.4493
  929MOL0     C22519   0.606   0.840   9.250 -0.0276  0.2369 -0.2680
  929MOL0     O22520   0.495   0.796   9.175  0.3077 -0.3105  0.3391
  929MOL0     C22521   0.366   0.847   9.206 -0.2133 -0.4094  0.3152
  929MOL0     C22522   0.273   0.828   9.110  0.2603  0.9522  0.5758
  929MOL0     C22523   0.141   0.863   9.129 -0.5359  0.3758  0.6142
  929MOL0     C22524   0.098   0.936   9.240 -0.0283  0.0834  0.4641
  929MOL0     C22525  -0.040   0.993   9.253  0.7204  0.2234 -0.6109
  929MOL0     O22526  -0.139   0.952   9.171  0.1995 -0.0085 -0.7868
  929MOL0     C22527  -0.267   0.976   9.225  0.1098 -0.8937 -0.1371
  929MOL0     C22528  -0.357   0.868   9.238  0.2011  0.7409  0.3509
  929MOL0     C22529  -0.485   0.895   9.277  0.3504  0.5299  0.3619
  929MOL0     C22530  -0.536   1.024   9.294  0.3362 -0.1014 -0.3174
  929MOL0     O22531  -0.669   1.067   9.315 -0.1328  0.6064  0.3336
  929MOL0     C22532  -0.760   0.971   9.376 -0.7084  0.0124  0.5340
  929MOL0     C22533  -0.846   1.054   9.464 -0.2987  0.0780  0.9381
  929MOL0     C22534  -0.946   0.962   9.526  0.7156  0.4544  0.5875
  929MOL0     C22535  -1.045   1.034   9.629 -0.4708  1.0964 -0.3959
  929MOL0     C22536  -1.148   0.932   9.691  0.1308  0.0505  0.3939
  929MOL0     C22537  -1.257   1.007   9.767 -0.6250  0.3150  0.2729
  929MOL0     C22538  -1.391   0.922   9.765  0.4403 -0.1888 -0.5510
  929MOL0     C22539  -1.471   0.914   9.641 -0.6534 -0.3761 -0.4653
  929MOL0    Cl22540  -1.633   0.829   9.641  0.4940  0.1049 -0.0197
  929MOL0     C22541  -0.448   1.128   9.270  0.3791  0.0688  1.5537
  929MOL0     C22542  -0.322   1.105   9.234  0.8325 -0.0359  0.2138
  929MOL0     O22543  -0.043   1.081   9.342 -0.0770  0.6111 -0.2717
  929MOL0     C22544   0.187   0.953   9.346 -0.3840  0.6492 -0.6514
  929MOL0     C22545   0.327   0.911   9.327  0.5066  0.0369  0.1572
  929MOL0     N22546   1.068   0.976   8.948  0.9419  0.3640  0.1590
  929MOL0     N22547   1.196   0.996   8.951  0.1779  0.5827  0.6093
  929MOL0     C22548   0.966   1.210   9.732 -0.2263  0.6461 -0.6494
  929MOL0     C22549   0.833   1.207   9.772 -0.4295 -0.8306 -0.1262
  929MOL0     C22550   0.425   0.960   9.797 -0.3157 -0.0142  0.5434
  929MOL0     C22551   0.332   0.887   9.731 -0.5300  0.4552  0.3571
  929MOL0     C22552   0.192   0.882   9.763  0.7636  0.0516 -0.6797
  929MOL0     C22553   0.147   0.936   9.880 -0.2740 -0.8505  0.1696
  929MOL0     O22554   0.022   0.925   9.931  1.0497  0.4233 -0.1196
  929MOL0     C22555  -0.058   1.032   9.873  0.0067  0.1374 -0.5136
  929MOL0     C22556  -0.195   1.024   9.928  1.0313  0.5711 -0.2737
  929MOL0     C22557  -0.209   1.017  10.083  0.0219  0.1181  0.1115
  929MOL0     C22558  -0.352   0.971  10.140  0.0958 -0.3544  0.9586
  929MOL0     C22559  -0.441   1.080  10.093 -0.4402  0.6591 -0.3155
  929MOL0     C22560  -0.510   1.170  10.044  0.8117 -0.6578 -0.0939
  929MOL0     C22561   0.238   1.010   9.957  0.2203  0.3490  0.3046
  929MOL0     C22562   0.375   1.032   9.906  0.3995  0.3198  0.5632
  929MOL0     H22563   0.810   0.862   9.826 -0.5604 -0.5121 -0.7280
  929MOL0     H22564   1.035   0.880   9.754  1.5027  0.9555 -3.5348
  929MOL0     H22565   1.235   1.244   9.751 -0.7730  0.8009 -0.7822
  929MOL0     H22566   1.193   1.234   9.583  0.0184 -1.1668 -0.0427
  929MOL0     H22567   1.406   1.050   9.685  0.0924  0.7475 -1.1301
  929MOL0     H22568   1.459   1.222   9.642  0.2456  0.2306 -1.8946
  929MOL0     H22569   1.361   1.207   9.424 -2.1789 -0.7265  0.8205
  929MOL0     H22570   1.308   1.049   9.443 -0.7229  1.1146 -1.4051
  929MOL0     H22571   1.605   1.162   9.443  1.8864 -1.8309  0.1157
  929MOL0     H22572   1.585   0.997   9.463  1.5820  0.2351 -1.8924
  929MOL0     H22573   1.648   1.065   9.234 -0.2520 -1.4542  2.0854
  929MOL0     H22574   1.512   1.168   9.200  1.6790 -0.0977  0.1140
  929MOL0     H22575   1.356   1.001   9.198  0.1485  0.4663  2.9414
  929MOL0     H22576   1.465   0.868   9.257  2.3155  0.7303  1.2734
  929MOL0     H22577   1.487   1.010   8.986  2.4605  0.3570  0.7223
  929MOL0     H22578   1.595   0.889   9.047 -0.3706 -0.3313 -0.1165
  929MOL0     H22579   1.405   0.725   9.029 -2.1092 -1.3890 -0.7945
  929MOL0     H22580   1.406   0.822   8.883 -1.7957  2.3873 -0.3636
  929MOL0     H22581   1.150   0.681   9.049  1.2484 -1.1830 -0.2606
  929MOL0     H22582   0.895   0.685   9.008 -1.6852 -0.6337  0.2397
  929MOL0     H22583   0.858   0.782   8.873 -0.1731 -1.9962 -0.1238
  929MOL0     H22584   0.679   0.843   8.987 -1.0669 -0.7289  0.6381
  929MOL0     H22585   0.789   0.964   9.048  0.1263  0.2061  4.6838
  929MOL0     H22586   0.721   0.682   9.159 -1.4696 -0.5547  0.1967
  929MOL0     H22587   0.826   0.785   9.245 -0.3253  0.1132 -0.9836
  929MOL0     H22588   0.601   0.945   9.279 -2.8844 -0.0738  0.6471
  929MOL0     H22589   0.593   0.795   9.348 -0.2768  0.0250 -0.3977
  929MOL0     H22590   0.313   0.786   9.018  2.0332  1.6240  0.9999
  929MOL0     H22591   0.080   0.845   9.041  1.3537  2.9986 -1.4097
  929MOL0     H22592  -0.326   0.765   9.222 -0.0292  0.8163 -0.6555
  929MOL0     H22593  -0.555   0.812   9.281  1.8319 -0.7402  0.5621
  929MOL0     H22594  -0.694   0.911   9.440  1.2054  1.0292 -0.4003
  929MOL0     H22595  -0.818   0.906   9.310  1.0811 -1.2436  0.1060
  929MOL0     H22596  -0.911   1.120   9.406 -0.4015 -2.1235 -1.7045
  929MOL0     H22597  -0.804   1.103   9.552 -0.4098  0.5964  0.7074
  929MOL0     H22598  -0.921   0.870   9.579 -4.5919 -2.0647 -0.5305
  929MOL0     H22599  -1.012   0.929   9.445 -0.0367  1.0212  0.9554
  929MOL0     H22600  -0.991   1.080   9.713  0.8956  3.7617 -2.5728
  929MOL0     H22601  -1.097   1.121   9.590 -1.4006  1.7763  2.1402
  929MOL0     H22602  -1.103   0.864   9.764  1.0614 -0.5491 -0.7043
  929MOL0     H22603  -1.179   0.866   9.609  0.6638 -0.9704  0.9891
  929MOL0     H22604  -1.281   1.098   9.711 -0.7781  1.8890  2.7217
  929MOL0     H22605  -1.227   1.045   9.865 -2.9711  1.0887  0.7594
  929MOL0     H22606  -1.373   0.816   9.785 -0.9789 -0.0551  1.7934
  929MOL0     H22607  -1.451   0.956   9.849 -0.5756  0.3911 -1.4770
  929MOL0     H22608  -1.404   0.856   9.578 -0.0583 -0.5362  0.2996
  929MOL0     H22609  -1.487   1.010   9.591 -1.0675 -0.0577  0.2542
  929MOL0     H22610  -0.482   1.231   9.274  3.5959  1.3214  0.2079
  929MOL0     H22611  -0.251   1.182   9.206 -0.7548  0.4694 -2.8854
  929MOL0     H22612   0.161   1.007   9.436 -0.8566  2.0473 -1.6048
  929MOL0     H22613   0.408   0.918   9.399  1.7556  1.2802 -1.3161
  929MOL0     H22614   1.024   1.301   9.715  2.8184 -1.5891 -3.6139
  929MOL0     H22615   0.780   1.302   9.768 -0.7523 -1.0389 -0.7671
  929MOL0     H22616   0.376   0.828   9.651 -1.4468 -0.7814  0.7295
  929MOL0     H22617   0.125   0.819   9.705 -0.0314 -3.7070  3.7654
  929MOL0     H22618  -0.057   1.029   9.764  1.3409  2.0272 -0.5917
  929MOL0     H22619  -0.020   1.131   9.897  1.9363  0.2654 -3.5758
  929MOL0     H22620  -0.263   1.106   9.901 -2.6504 -1.6474  1.4993
  929MOL0     H22621  -0.238   0.928   9.900  0.7591  1.1241 -1.8649
  929MOL0     H22622  -0.189   1.118  10.118  1.0014  0.4893 -1.4287
  929MOL0     H22623  -0.138   0.943  10.122  0.2343  0.2204 -0.0824
  929MOL0     H22624  -0.381   0.868  10.119 -2.2422  0.0021  2.1047
  929MOL0     H22625  -0.334   0.980  10.248 -2.3103 -0.4648  1.4215
  929MOL0     H22626  -0.583   1.232   9.996  1.1391 -1.1579 -1.2581
  929MOL0     H22627   0.227   1.056  10.055  2.7920 -0.1219  0.8857
  929MOL0     H22628   0.440   1.092   9.970 -1.6012  2.5131  0.6494
  930MOL0     O22629   3.840   5.962   3.396 -1.1397  0.0948  0.2346
  930MOL0     C22630   3.872   6.048   3.315  0.0680  0.1072  0.7276
  930MOL0     O22631   3.809   6.085   3.204  0.1584 -0.9767  0.2281
  930MOL0     C22632   3.684   6.025   3.192  0.2145 -0.9662 -1.1156
  930MOL0     C22633   3.660   5.891   3.166 -0.2852  0.7227  0.6332
  930MOL0     C22634   3.531   5.842   3.152 -0.4246  0.2154  0.6502
  930MOL0     C22635   3.421   5.926   3.174 -0.8529 -1.3286 -0.3377
  930MOL0     O22636   3.309   5.867   3.143  0.9059  0.1018  0.2532
  930MOL0     C22637   3.215   5.857   3.249  0.1251 -0.1239 -0.1164
  930MOL0     C22638   3.092   5.771   3.215 -0.3406 -1.0273 -0.5927
  930MOL0     C22639   2.986   5.761   3.327 -0.3086  0.0456  0.2675
  930MOL0     C22640   2.881   5.875   3.296  0.1935  0.0713 -0.0318
  930MOL0     C22641   2.822   5.931   3.426 -0.7602  0.7442  0.3257
  930MOL0     C22642   2.699   5.857   3.463 -0.3051 -0.5762  0.5340
  930MOL0     C22643   2.665   5.899   3.602  0.4454  1.1147 -0.2182
  930MOL0     C22644   2.552   5.806   3.658  1.1201  0.2984 -0.5699
  930MOL0     N22645   2.601   5.678   3.707 -0.7305  0.5270 -0.2587
  930MOL0     C22646   2.694   5.658   3.804  0.1745 -0.0263  1.0917
  930MOL0     C22647   2.715   5.522   3.804  0.6243  0.2604 -0.7010
  930MOL0     C22648   2.801   5.435   3.896  0.3254 -0.8860  0.2941
  930MOL0     C22649   2.951   5.432   3.876  0.2155  0.7664 -0.4397
  930MOL0     C22650   3.001   5.386   3.736 -0.9986  0.4554  0.4879
  930MOL0     C22651   3.040   5.234   3.750  0.0194  0.2212  0.3095
  930MOL0     O22652   2.924   5.154   3.713  0.1098  0.1212 -0.3458
  930MOL0     C22653   2.861   5.063   3.793  0.1297  0.0735  0.2949
  930MOL0     C22654   2.929   4.978   3.877  0.1269 -0.0056  0.3442
  930MOL0     C22655   2.869   4.883   3.954  0.0626  0.0829 -0.8138
  930MOL0     C22656   2.723   4.862   3.934  0.6199 -0.4389 -0.3100
  930MOL0     C22657   2.662   4.745   3.999 -0.0815 -0.4097 -0.9368
  930MOL0     O22658   2.532   4.719   3.975 -0.2729  0.1433 -0.2688
  930MOL0     C22659   2.469   4.600   4.018  0.9684 -0.3747 -0.1721
  930MOL0     C22660   2.531   4.493   4.088  0.6002  0.7233 -0.2291
  930MOL0     C22661   2.459   4.383   4.138 -0.7698 -0.0571  0.4905
  930MOL0     C22662   2.322   4.380   4.125 -0.6348 -0.1888  0.2631
  930MOL0     O22663   2.262   4.263   4.176  0.0082 -0.2514  0.1438
  930MOL0     C22664   2.153   4.198   4.106  0.0368  0.1971  0.3549
  930MOL0     C22665   2.148   4.055   4.162 -0.1592 -0.6335 -0.4987
  930MOL0     C22666   2.016   3.986   4.149  0.5784  0.8978  0.2306
  930MOL0     C22667   2.009   3.840   4.194 -0.1625 -0.1097 -0.1443
  930MOL0     C22668   1.889   3.784   4.122  0.5914  0.0673 -0.8257
  930MOL0     C22669   1.889   3.627   4.126  0.9525  0.0626  0.1500
  930MOL0     C22670   1.774   3.557   4.059 -0.7977 -0.6843 -0.6053
  930MOL0     C22671   1.636   3.604   4.117 -0.6092  0.1506 -0.4971
  930MOL0    Cl22672   1.638   3.524   4.277  0.4217  0.4509 -0.3724
  930MOL0     C22673   2.256   4.480   4.048 -0.1882 -0.1654  0.5460
  930MOL0     C22674   2.330   4.595   3.999  0.5097 -0.2565  0.6447
  930MOL0     O22675   2.731   4.675   4.071  0.2639 -0.5088  0.3846
  930MOL0     C22676   2.658   4.963   3.853  0.5142  0.5406  0.2337
  930MOL0     C22677   2.723   5.060   3.784 -0.0213  0.8788 -0.0004
  930MOL0     N22678   2.627   5.470   3.718  0.0380  0.4075  0.2074
  930MOL0     N22679   2.574   5.561   3.653  0.6657 -0.4477  0.5166
  930MOL0     C22680   3.439   6.064   3.192  0.6078 -0.1675  0.1749
  930MOL0     C22681   3.571   6.108   3.202  0.2300  0.4617 -0.4301
  930MOL0     C22682   4.002   6.112   3.336  0.1098  1.0099 -0.3026
  930MOL0     C22683   4.077   6.099   3.449  0.7178  0.1945 -0.0882
  930MOL0     C22684   4.198   6.165   3.474  0.9199  0.3563  0.1263
  930MOL0     C22685   4.253   6.243   3.368 -0.0738  0.4733 -0.1248
  930MOL0     O22686   4.372   6.315   3.391  0.3249  0.1353 -0.6096
  930MOL0     C22687   4.424   6.410   3.296 -0.2796 -0.7016 -0.1443
  930MOL0     C22688   4.540   6.483   3.364  0.4274 -0.7685  0.2549
  930MOL0     C22689   4.488   6.552   3.494  0.4048 -0.0664 -0.1723
  930MOL0     C22690   4.593   6.646   3.555 -0.1896  0.4769 -0.4234
  930MOL0     C22691   4.689   6.565   3.628  0.0246 -0.9157 -0.7576
  930MOL0     C22692   4.767   6.506   3.703 -0.2353 -0.8747 -0.1109
  930MOL0     C22693   4.180   6.256   3.250 -0.6834 -0.3535  0.2154
  930MOL0     C22694   4.058   6.184   3.235 -0.6749 -0.8187  0.4914
  930MOL0     H22695   3.760   5.851   3.151  0.2428  2.1301  0.2318
  930MOL0     H22696   3.514   5.740   3.116  2.0917 -1.7361  4.3161
  930MOL0     H22697   3.194   5.961   3.277  2.5211  0.5617 -0.6374
  930MOL0     H22698   3.268   5.809   3.331 -0.7148 -0.6940  0.1064
  930MOL0     H22699   3.131   5.671   3.193  0.5965 -0.9449  0.6280
  930MOL0     H22700   3.032   5.806   3.130  0.2081  0.9901 -0.1818
  930MOL0     H22701   3.036   5.777   3.424 -2.3625  2.5383  1.0041
  930MOL0     H22702   2.947   5.659   3.332  1.3359 -0.5973  0.9985
  930MOL0     H22703   2.931   5.957   3.245 -1.9760  2.0438  0.8500
  930MOL0     H22704   2.802   5.839   3.228 -1.2138 -0.6016  1.8604
  930MOL0     H22705   2.806   6.036   3.397  2.9193  2.3330  3.2053
  930MOL0     H22706   2.890   5.932   3.512 -2.1797 -3.4785  1.7146
  930MOL0     H22707   2.717   5.749   3.457  0.9012 -0.2997 -2.1712
  930MOL0     H22708   2.622   5.880   3.389  0.9231 -1.0880 -0.9340
  930MOL0     H22709   2.754   5.889   3.664  0.6814  0.4583 -0.6541
  930MOL0     H22710   2.640   6.005   3.602 -2.2225  0.5594 -0.4061
  930MOL0     H22711   2.470   5.798   3.586 -0.6331  1.7994  1.1571
  930MOL0     H22712   2.524   5.842   3.758  0.9672 -3.0715  0.7498
  930MOL0     H22713   2.747   5.725   3.870  1.1566  0.9181 -0.5735
  930MOL0     H22714   2.765   5.333   3.883  3.1952 -2.3355  2.6066
  930MOL0     H22715   2.788   5.461   4.001  3.1579 -2.6707  1.2022
  930MOL0     H22716   2.991   5.373   3.959 -0.1305 -0.3541 -1.0563
  930MOL0     H22717   2.995   5.531   3.893  0.9058  0.8636 -2.6086
  930MOL0     H22718   2.927   5.393   3.655 -0.6408  1.5492  0.2340
  930MOL0     H22719   3.094   5.436   3.708  0.0017 -2.1766 -1.2852
  930MOL0     H22720   3.088   5.215   3.846 -0.7256 -0.3888  0.5694
  930MOL0     H22721   3.117   5.213   3.675 -2.3417  0.6525 -2.4098
  930MOL0     H22722   3.038   4.978   3.876  0.1570 -1.8388  0.1722
  930MOL0     H22723   2.934   4.815   4.007 -2.8388 -0.0511  2.9710
  930MOL0     H22724   2.638   4.481   4.105  0.7574 -1.8640 -2.3017
  930MOL0     H22725   2.518   4.302   4.180  3.2894  1.6066 -1.4741
  930MOL0     H22726   2.167   4.195   3.998  1.5460 -1.7233  0.5351
  930MOL0     H22727   2.055   4.239   4.128  0.9748  1.3806  2.6911
  930MOL0     H22728   2.174   4.062   4.268  0.8501  0.2643 -0.7792
  930MOL0     H22729   2.226   3.991   4.121  2.2358  0.5381  1.8648
  930MOL0     H22730   1.978   3.999   4.047 -3.6833 -5.7430  0.3621
  930MOL0     H22731   1.949   4.043   4.214  3.0145  3.6150  0.5351
  930MOL0     H22732   2.098   3.786   4.160  1.2119  0.2585  2.5285
  930MOL0     H22733   1.997   3.836   4.303  3.9154 -1.1349  0.4286
  930MOL0     H22734   1.893   3.807   4.015 -1.3536  1.9257 -0.5592
  930MOL0     H22735   1.800   3.828   4.168  0.5259  2.3508 -2.9104
  930MOL0     H22736   1.896   3.585   4.227 -1.3109 -0.6435  0.0561
  930MOL0     H22737   1.981   3.596   4.075  0.4221  1.0931 -1.5165
  930MOL0     H22738   1.781   3.579   3.951 -1.8116  1.3408 -0.3141
  930MOL0     H22739   1.783   3.450   4.079 -1.6374 -0.5747  0.4371
  930MOL0     H22740   1.572   3.565   4.036  2.1626 -2.1961 -1.7588
  930MOL0     H22741   1.625   3.712   4.122 -0.7878  0.3078 -2.8672
  930MOL0     H22742   2.150   4.477   4.022  0.2125  1.4206 -1.5448
  930MOL0     H22743   2.276   4.668   3.939 -1.8886 -3.3907 -1.2729
  930MOL0     H22744   2.549   4.959   3.846  0.2666 -1.1641  3.2772
  930MOL0     H22745   2.675   5.137   3.724  1.5140  2.3273  0.5493
  930MOL0     H22746   3.352   6.129   3.203 -0.4833 -1.6983  1.1611
  930MOL0     H22747   3.605   6.211   3.217 -0.2650  0.4492  0.9083
  930MOL0     H22748   4.033   6.037   3.527 -1.5555 -2.2850 -3.0911
  930MOL0     H22749   4.228   6.163   3.578 -2.9761 -2.4317  1.4561
  930MOL0     H22750   4.356   6.486   3.257  0.1610 -0.9123 -1.3714
  930MOL0     H22751   4.476   6.358   3.214  0.4348 -0.9565  0.4532
  930MOL0     H22752   4.610   6.404   3.393  1.1152 -1.6871 -3.3793
  930MOL0     H22753   4.586   6.559   3.301  1.0825 -1.0722  0.3540
  930MOL0     H22754   4.451   6.484   3.570 -1.1448  1.2886  0.3480
  930MOL0     H22755   4.396   6.605   3.468  1.2004  0.1043 -3.0204
  930MOL0     H22756   4.639   6.708   3.477  0.5045  0.8232  0.2509
  930MOL0     H22757   4.528   6.704   3.621  1.4685  1.0903  0.7180
  930MOL0     H22758   4.837   6.444   3.757 -0.4715 -2.3740 -1.4631
  930MOL0     H22759   4.216   6.305   3.160 -1.2262 -1.8737 -0.8813
  930MOL0     H22760   4.009   6.202   3.140  0.5671 -0.1765 -0.0618
  931MOL0     O22761   9.330   9.592   5.924  0.6296 -0.2453  0.2031
  931MOL0     C22762   9.414   9.550   5.840 -0.4505 -0.4491  0.1098
  931MOL0     O22763   9.412   9.424   5.779 -0.0661  0.7149 -0.4191
  931MOL0     C22764   9.291   9.355   5.772 -0.2944  0.3997 -0.1765
  931MOL0     C22765   9.157   9.404   5.782  0.5730 -0.6016  0.5964
  931MOL0     C22766   9.055   9.313   5.775 -0.2023  0.3888  0.4751
  931MOL0     C22767   9.083   9.174   5.754  0.1051 -0.3880  0.2480
  931MOL0     O22768   8.967   9.095   5.735  0.0703  0.2087 -0.3982
  931MOL0     C22769   8.982   9.000   5.629  0.0926  0.6008 -0.3026
  931MOL0     C22770   9.037   8.862   5.679 -0.3616  0.1678  0.2545
  931MOL0     C22771   8.969   8.742   5.600  0.0509  0.6604 -0.2492
  931MOL0     C22772   8.999   8.603   5.661 -0.1823  0.7899  0.6546
  931MOL0     C22773   8.938   8.488   5.568 -0.2848  0.2055 -0.0080
  931MOL0     C22774   8.966   8.342   5.617  0.0098  0.4558 -0.0531
  931MOL0     C22775   8.847   8.303   5.699  0.0347 -0.2681  0.8869
  931MOL0     C22776   8.732   8.271   5.604  0.3349  0.5784  0.0152
  931MOL0     N22777   8.620   8.215   5.681  0.0674  0.0792  0.4127
  931MOL0     C22778   8.521   8.281   5.753 -0.8766 -0.2435  0.4607
  931MOL0     C22779   8.458   8.187   5.814 -0.1113  0.0799 -0.6452
  931MOL0     C22780   8.349   8.195   5.924  0.2815 -0.8716 -0.1225
  931MOL0     C22781   8.210   8.201   5.856  0.3246 -0.5007  0.9042
  931MOL0     C22782   8.093   8.179   5.948 -0.3964 -0.0231  0.5684
  931MOL0     C22783   8.088   8.280   6.051  0.0879  1.0786  0.1465
  931MOL0     O22784   7.995   8.240   6.155 -0.1986 -0.3275 -0.1662
  931MOL0     C22785   7.861   8.256   6.138  0.1983 -0.0844  1.1242
  931MOL0     C22786   7.796   8.341   6.046 -0.4427  0.5347 -0.6748
  931MOL0     C22787   7.650   8.342   6.041 -0.3743  0.0734  0.8540
  931MOL0     C22788   7.575   8.268   6.131  0.2869  0.1356  0.2566
  931MOL0     C22789   7.431   8.274   6.138 -0.4402  0.8079  0.0062
  931MOL0     O22790   7.370   8.284   6.259 -0.9544 -0.1557  0.2444
  931MOL0     C22791   7.238   8.307   6.266  0.4533 -0.1003 -0.1631
  931MOL0     C22792   7.204   8.408   6.359 -0.1119  0.5697  0.3081
  931MOL0     C22793   7.073   8.443   6.388  0.2355  0.3543  0.5469
  931MOL0     C22794   6.969   8.364   6.331 -0.2413 -1.3456  0.0491
  931MOL0     O22795   6.843   8.397   6.381  0.2414  0.0929 -0.1721
  931MOL0     C22796   6.731   8.374   6.296  0.1160  0.8616  0.1599
  931MOL0     C22797   6.650   8.506   6.275 -0.7413 -1.0386 -0.0159
  931MOL0     C22798   6.618   8.559   6.416  0.1805 -0.4226  0.8793
  931MOL0     C22799   6.510   8.668   6.408  0.3241  0.2015 -0.5088
  931MOL0     C22800   6.370   8.611   6.430 -0.5465 -0.2856 -0.0056
  931MOL0     C22801   6.264   8.714   6.376 -0.7975 -0.0253 -0.8301
  931MOL0     C22802   6.116   8.658   6.385 -0.1455 -0.0346  0.0367
  931MOL0     C22803   6.011   8.772   6.406 -0.0843 -0.0432  0.2311
  931MOL0    Cl22804   5.849   8.698   6.409 -0.0652  0.7823 -0.3328
  931MOL0     C22805   6.997   8.272   6.233 -0.1354  0.2701 -0.0265
  931MOL0     C22806   7.136   8.252   6.193 -0.5576  0.5793 -1.1067
  931MOL0     O22807   7.376   8.272   6.031 -0.3850 -0.3473  0.9286
  931MOL0     C22808   7.645   8.178   6.217  0.0508 -0.0015  0.3062
  931MOL0     C22809   7.781   8.169   6.207 -0.0183  0.7302 -0.1957
  931MOL0     N22810   8.505   8.062   5.781 -0.1677  0.0870 -0.2405
  931MOL0     N22811   8.610   8.082   5.704 -0.1798 -0.1012 -0.0301
  931MOL0     C22812   9.211   9.129   5.750  0.0138 -0.7712 -0.4244
  931MOL0     C22813   9.312   9.220   5.750  0.0408 -0.1298  0.0116
  931MOL0     C22814   9.531   9.646   5.811 -0.1096  0.5934  0.7297
  931MOL0     C22815   9.629   9.622   5.713 -0.3834  0.0016 -0.7243
  931MOL0     C22816   9.728   9.706   5.681  0.0684  0.1262  0.8735
  931MOL0     C22817   9.735   9.828   5.737  0.6557 -0.7228  0.4355
  931MOL0     O22818   9.823   9.923   5.701  0.0484 -0.2248  0.5689
  931MOL0     C22819   9.927   9.964   5.787 -0.1853 -0.0874  0.5953
  931MOL0     C22820  10.013  10.053   5.694 -0.3605  0.5307  0.2130
  931MOL0     C22821  10.117  10.124   5.776 -0.6238  0.3138 -0.4396
  931MOL0     C22822  10.209  10.226   5.703  0.3646  0.1595 -0.1171
  931MOL0     C22823  10.312  10.280   5.797  1.2723 -0.5103 -0.2697
  931MOL0     C22824  10.407  10.313   5.864  0.7131  0.1934 -0.0038
  931MOL0     C22825   9.640   9.864   5.824 -0.3567  1.0605 -0.1413
  931MOL0     C22826   9.535   9.776   5.858 -0.4608 -0.7745 -0.5825
  931MOL0     H22827   9.136   9.506   5.814  0.5000 -1.4746  3.5531
  931MOL0     H22828   8.956   9.356   5.782  0.1862  1.3214  0.3030
  931MOL0     H22829   9.029   9.040   5.539  2.2745 -2.8566 -0.8734
  931MOL0     H22830   8.881   8.987   5.588  0.2004  1.4469 -0.8477
  931MOL0     H22831   9.009   8.852   5.784 -1.6710  0.3361 -0.0609
  931MOL0     H22832   9.145   8.859   5.663 -0.1361  0.1314  1.6720
  931MOL0     H22833   8.990   8.752   5.493  0.8546  0.9073 -0.0722
  931MOL0     H22834   8.860   8.749   5.611 -0.2956 -0.0581 -2.6406
  931MOL0     H22835   9.107   8.588   5.677  0.1535  1.7455 -0.5853
  931MOL0     H22836   8.943   8.596   5.755 -1.1389  0.9259  0.1052
  931MOL0     H22837   8.982   8.488   5.468 -1.5792 -0.9510 -0.6117
  931MOL0     H22838   8.835   8.519   5.549 -0.0844  1.1396  0.3615
  931MOL0     H22839   9.062   8.333   5.669 -0.3316  3.3728  1.3108
  931MOL0     H22840   8.971   8.269   5.536 -1.3188  0.7868 -0.4546
  931MOL0     H22841   8.872   8.213   5.756  3.1722  1.0692  1.8636
  931MOL0     H22842   8.832   8.385   5.770  0.1163  2.8114 -2.3989
  931MOL0     H22843   8.779   8.201   5.533  1.9949  1.7141 -0.0650
  931MOL0     H22844   8.712   8.353   5.535 -0.3515  0.2967 -0.1278
  931MOL0     H22845   8.510   8.388   5.764 -0.8460 -0.3139  1.2687
  931MOL0     H22846   8.378   8.284   5.981 -3.0987  0.6697 -0.6100
  931MOL0     H22847   8.346   8.114   5.997 -1.4950  0.2880  1.1674
  931MOL0     H22848   8.202   8.143   5.764  0.0799  1.8962 -0.6832
  931MOL0     H22849   8.200   8.305   5.823  3.1243  0.1163  1.7586
  931MOL0     H22850   8.002   8.163   5.889  0.7756 -2.1142 -0.8104
  931MOL0     H22851   8.115   8.083   5.996  0.5787 -0.7555 -1.2661
  931MOL0     H22852   8.075   8.378   6.004 -0.9436 -0.2755 -2.5895
  931MOL0     H22853   8.182   8.282   6.107  0.3439 -4.0559  0.3211
  931MOL0     H22854   7.847   8.408   5.977 -1.4625  0.2346 -1.7545
  931MOL0     H22855   7.603   8.417   5.979 -0.5618 -1.8247 -1.4251
  931MOL0     H22856   7.283   8.464   6.409 -0.9561 -0.9415  3.5883
  931MOL0     H22857   7.051   8.522   6.459 -0.9262  1.0079 -0.4910
  931MOL0     H22858   6.672   8.295   6.343  0.3857  1.9345  2.4314
  931MOL0     H22859   6.755   8.346   6.193  1.7160  1.2858  0.3856
  931MOL0     H22860   6.560   8.479   6.220 -2.7933  1.9231  1.5765
  931MOL0     H22861   6.697   8.585   6.216 -2.4044  0.0030 -0.0257
  931MOL0     H22862   6.712   8.599   6.455  0.0512  0.3720  0.4107
  931MOL0     H22863   6.591   8.473   6.477  0.2533 -0.2742  1.1191
  931MOL0     H22864   6.527   8.741   6.487 -1.1002  2.2102 -1.9323
  931MOL0     H22865   6.525   8.722   6.314  0.2798 -1.8165 -1.7424
  931MOL0     H22866   6.350   8.586   6.534 -1.4679  2.0455  0.4421
  931MOL0     H22867   6.366   8.520   6.368  4.2605 -0.1144 -0.9334
  931MOL0     H22868   6.296   8.753   6.279  0.3699  2.9098  0.6041
  931MOL0     H22869   6.268   8.808   6.432 -0.9459 -0.1223 -0.6574
  931MOL0     H22870   6.092   8.591   6.302 -0.5371  0.7303 -0.4787
  931MOL0     H22871   6.098   8.589   6.468 -3.4535 -1.1998 -1.4638
  931MOL0     H22872   5.998   8.857   6.338 -3.3270 -0.2264  0.4892
  931MOL0     H22873   6.049   8.824   6.495  2.2375  1.3527 -1.4483
  931MOL0     H22874   6.923   8.212   6.181  1.7212 -3.4801  1.2934
  931MOL0     H22875   7.160   8.170   6.126 -0.9649 -1.2534  0.8624
  931MOL0     H22876   7.594   8.118   6.290  1.8020  0.7344  2.2356
  931MOL0     H22877   7.838   8.106   6.275 -0.3173  1.2620  0.5664
  931MOL0     H22878   9.240   9.025   5.743  2.9053 -0.0781 -0.1735
  931MOL0     H22879   9.410   9.177   5.733  0.0767 -0.3327  0.7275
  931MOL0     H22880   9.625   9.529   5.658 -3.7087 -0.7387  0.5238
  931MOL0     H22881   9.790   9.684   5.595 -2.2111  1.2130 -1.2160
  931MOL0     H22882   9.989   9.893   5.843 -0.2836  2.3070  4.1368
  931MOL0     H22883   9.881  10.027   5.864  0.4370  2.7951 -1.2484
  931MOL0     H22884  10.062   9.987   5.623  0.8681  1.0200  0.5804
  931MOL0     H22885   9.944  10.117   5.637 -1.7698 -1.6646 -0.6994
  931MOL0     H22886  10.189  10.053   5.820  1.3852  3.0235  0.9358
  931MOL0     H22887  10.072  10.179   5.858 -0.4423 -0.8835  0.4965
  931MOL0     H22888  10.253  10.171   5.619 -1.3872 -2.1008  0.3283
  931MOL0     H22889  10.149  10.307   5.663 -0.9646 -0.3081  0.8303
  931MOL0     H22890  10.478  10.339   5.940  0.7584 -1.4339  0.5298
  931MOL0     H22891   9.644   9.965   5.862 -0.7966  0.6092  1.1862
  931MOL0     H22892   9.454   9.825   5.912  0.7308  0.2779  0.3000
  932MOL0     O22893  10.729   8.075   1.744 -0.6567 -0.6216  0.2434
  932MOL0     C22894  10.821   8.132   1.691 -0.2654  0.1517 -0.7377
  932MOL0     O22895  10.819   8.200   1.580  0.0671 -0.4875 -0.0291
  932MOL0     C22896  10.697   8.233   1.529 -0.9673 -0.2341 -0.0949
  932MOL0     C22897  10.658   8.365   1.511 -0.9054 -0.0819  0.6466
  932MOL0     C22898  10.537   8.401   1.444 -0.1105  0.2270 -0.2431
  932MOL0     C22899  10.442   8.306   1.393  0.4138 -0.0122  0.3014
  932MOL0     O22900  10.314   8.327   1.344 -0.6682  0.1913  0.0877
  932MOL0     C22901  10.230   8.378   1.452 -0.5588  0.2083  0.3796
  932MOL0     C22902  10.223   8.288   1.574 -0.0437  0.0655 -0.5989
  932MOL0     C22903  10.136   8.160   1.563  0.5438  0.0283  0.3226
  932MOL0     C22904  10.007   8.209   1.500  0.4050  0.2826  0.4778
  932MOL0     C22905   9.890   8.124   1.548 -0.4941  0.1824 -0.6842
  932MOL0     C22906   9.767   8.129   1.460 -0.1266 -0.0967 -0.5571
  932MOL0     C22907   9.660   8.044   1.518 -0.5842 -1.0097  0.2294
  932MOL0     C22908   9.545   8.025   1.421  0.4453 -0.5657  0.2507
  932MOL0     N22909   9.424   7.975   1.492 -0.8057  0.8714  0.3272
  932MOL0     C22910   9.429   7.845   1.545  0.8646 -0.3617 -0.3244
  932MOL0     C22911   9.302   7.844   1.605 -0.1004 -0.4316 -0.1701
  932MOL0     C22912   9.244   7.734   1.692 -0.0782 -0.1152 -0.0208
  932MOL0     C22913   9.304   7.750   1.829  0.3530 -0.0814 -0.3950
  932MOL0     C22914   9.323   7.618   1.905  0.8382  0.5967  0.5921
  932MOL0     C22915   9.190   7.561   1.957  0.2309  0.0049 -0.2489
  932MOL0     O22916   9.103   7.532   1.852  0.2119 -0.7541 -0.2233
  932MOL0     C22917   9.015   7.428   1.869  0.1157 -0.2112 -0.1603
  932MOL0     C22918   8.955   7.391   1.988  0.3282 -0.1954 -0.1770
  932MOL0     C22919   8.855   7.297   1.985  0.8115 -0.2214  0.6208
  932MOL0     C22920   8.819   7.232   1.857  0.4731  0.1749  0.0905
  932MOL0     C22921   8.700   7.145   1.855 -0.4073 -0.8547 -0.0343
  932MOL0     O22922   8.637   7.125   1.736  0.6358 -0.3031  0.3126
  932MOL0     C22923   8.513   7.073   1.743 -0.4896  0.3871 -0.3902
  932MOL0     C22924   8.493   6.951   1.681  0.1412 -0.8359 -0.3369
  932MOL0     C22925   8.357   6.895   1.695 -0.0659  0.9368 -0.4380
  932MOL0     C22926   8.258   6.962   1.762  0.2649 -0.5408 -0.2073
  932MOL0     O22927   8.153   6.887   1.796  0.0025  0.7869 -0.2942
  932MOL0     C22928   8.023   6.935   1.830  0.2851 -0.1666  0.6603
  932MOL0     C22929   7.924   6.821   1.817  0.4577 -0.0796 -0.4789
  932MOL0     C22930   7.971   6.704   1.914  0.1756 -0.1758 -0.7483
  932MOL0     C22931   7.863   6.608   1.911 -0.2625 -0.2556 -0.6140
  932MOL0     C22932   7.889   6.491   2.011 -0.7610  0.2460 -0.0268
  932MOL0     C22933   7.749   6.417   2.037 -0.2796  0.3210 -0.6750
  932MOL0     C22934   7.782   6.323   2.158  0.6919 -0.2582 -0.8844
  932MOL0     C22935   7.870   6.197   2.130  0.3593  0.2482 -0.4652
  932MOL0    Cl22936   7.838   6.117   1.968 -0.1071 -0.2468 -0.1512
  932MOL0     C22937   8.279   7.087   1.813  0.6613  0.3942  0.0250
  932MOL0     C22938   8.407   7.138   1.814  0.1231 -0.5034 -0.1937
  932MOL0     O22939   8.661   7.099   1.960  0.0800  0.1790  0.3725
  932MOL0     C22940   8.880   7.267   1.739  0.2979  0.6504 -0.2683
  932MOL0     C22941   8.981   7.361   1.748 -1.2272 -1.0577  0.1887
  932MOL0     N22942   9.240   7.969   1.586  0.0175  0.4437  0.1663
  932MOL0     N22943   9.312   8.039   1.514 -0.2802  0.1966 -0.0200
  932MOL0     C22944  10.492   8.175   1.401  0.1552  0.5735 -0.2168
  932MOL0     C22945  10.601   8.142   1.473  0.3357  0.1028 -0.1812
  932MOL0     C22946  10.952   8.136   1.766 -0.3788 -0.2905  0.5281
  932MOL0     C22947  11.048   8.238   1.730  0.5580 -0.0427 -0.3307
  932MOL0     C22948  11.165   8.251   1.802 -0.5781 -0.0128 -0.3618
  932MOL0     C22949  11.191   8.154   1.901 -1.0922 -0.1591  0.0539
  932MOL0     O22950  11.303   8.180   1.983  0.2450 -0.1416 -0.2072
  932MOL0     C22951  11.413   8.080   1.967 -0.7440 -0.1989 -0.7451
  932MOL0     C22952  11.520   8.107   2.086  0.0214  0.0447 -0.4632
  932MOL0     C22953  11.547   8.259   2.114  0.3297 -0.2479  0.3985
  932MOL0     C22954  11.683   8.288   2.150  0.1568 -0.3573 -0.0970
  932MOL0     C22955  11.684   8.431   2.175 -0.0772 -0.2693  0.0557
  932MOL0     C22956  11.684   8.551   2.189  0.1941 -0.0318 -0.5179
  932MOL0     C22957  11.096   8.062   1.935  0.5894 -0.4110  0.4615
  932MOL0     C22958  10.977   8.048   1.873 -0.2648 -0.5464  0.7461
  932MOL0     H22959  10.721   8.442   1.555 -0.7387 -0.1076  0.4558
  932MOL0     H22960  10.511   8.505   1.425  1.3840  0.7643  0.4581
  932MOL0     H22961  10.132   8.394   1.407 -0.5681 -1.7818 -0.3853
  932MOL0     H22962  10.269   8.474   1.488  1.0340 -0.6596  1.0694
  932MOL0     H22963  10.175   8.343   1.655  0.6111  0.2566 -0.3394
  932MOL0     H22964  10.319   8.249   1.609  0.1619  1.7568  0.8487
  932MOL0     H22965  10.125   8.118   1.664  1.7222  0.9973  0.8834
  932MOL0     H22966  10.187   8.081   1.507  1.9468  0.7837  0.4796
  932MOL0     H22967   9.983   8.312   1.528  4.4681  0.7930  2.8739
  932MOL0     H22968  10.016   8.199   1.392  1.9083 -0.9695  0.6981
  932MOL0     H22969   9.865   8.145   1.653 -0.6579  3.8189 -1.3172
  932MOL0     H22970   9.918   8.019   1.553 -0.4120  0.2664  1.5585
  932MOL0     H22971   9.795   8.090   1.362  3.3427 -0.5193  0.4981
  932MOL0     H22972   9.720   8.228   1.451  0.5737  0.5086  1.7661
  932MOL0     H22973   9.699   7.945   1.546 -0.4217 -1.1890 -0.5918
  932MOL0     H22974   9.620   8.092   1.608  0.8150  0.0348  0.3241
  932MOL0     H22975   9.576   7.949   1.349 -3.2066 -3.0099  0.9677
  932MOL0     H22976   9.511   8.117   1.372 -1.7491 -0.7922  1.2136
  932MOL0     H22977   9.509   7.774   1.559 -1.1390 -2.6324  0.2466
  932MOL0     H22978   9.261   7.632   1.655 -1.4912 -0.2036 -0.4941
  932MOL0     H22979   9.137   7.755   1.690  0.7442  5.7321 -1.6094
  932MOL0     H22980   9.238   7.821   1.880 -0.0017  1.0876 -2.3822
  932MOL0     H22981   9.401   7.800   1.830 -0.7356  2.2502 -2.0949
  932MOL0     H22982   9.367   7.540   1.841 -1.0240 -0.8729  0.9926
  932MOL0     H22983   9.394   7.640   1.985  3.7665 -0.9172 -1.4065
  932MOL0     H22984   9.149   7.635   2.026 -3.2555 -0.8067 -1.2453
  932MOL0     H22985   9.206   7.469   2.014  0.4426  0.4508  0.4220
  932MOL0     H22986   8.973   7.442   2.082 -4.2034 -0.6279  1.1454
  932MOL0     H22987   8.821   7.259   2.080 -0.5036  1.3742  0.8269
  932MOL0     H22988   8.572   6.896   1.631  1.6825 -0.5648  1.6589
  932MOL0     H22989   8.321   6.798   1.662 -1.7171  0.2713  2.8935
  932MOL0     H22990   8.003   7.008   1.751  2.0787  0.9035  1.1324
  932MOL0     H22991   8.012   6.994   1.922 -0.0300  0.7274  0.0605
  932MOL0     H22992   7.907   6.793   1.713  3.5597  1.2621 -1.4691
  932MOL0     H22993   7.826   6.852   1.854  0.6253  0.7140 -0.6827
  932MOL0     H22994   7.974   6.743   2.016  0.9893  1.3430 -1.3225
  932MOL0     H22995   8.071   6.664   1.896  0.8120  1.5901 -1.3524
  932MOL0     H22996   7.779   6.658   1.960 -1.1710 -1.5148 -0.8443
  932MOL0     H22997   7.833   6.558   1.818 -0.0106 -3.0566  0.6982
  932MOL0     H22998   7.922   6.528   2.108 -0.2793 -1.6050  0.5575
  932MOL0     H22999   7.964   6.417   1.983 -1.4048 -1.5971  2.7260
  932MOL0     H23000   7.716   6.351   1.956  0.4017 -2.1898  0.9950
  932MOL0     H23001   7.674   6.490   2.070 -0.7712  0.5460 -2.2111
  932MOL0     H23002   7.818   6.378   2.245 -3.2274  0.3827  0.5472
  932MOL0     H23003   7.687   6.280   2.190  0.7544 -0.1459 -0.5482
  932MOL0     H23004   7.869   6.119   2.206  0.3283  0.5508 -0.1529
  932MOL0     H23005   7.973   6.234   2.120 -0.4932  3.0276  0.0796
  932MOL0     H23006   8.210   7.148   1.870  1.2219  2.5502 -1.4635
  932MOL0     H23007   8.422   7.234   1.861 -2.6052  0.2993 -0.8090
  932MOL0     H23008   8.851   7.226   1.642  0.8265 -0.7248  0.1215
  932MOL0     H23009   9.041   7.402   1.668  0.7512  2.6661  3.2080
  932MOL0     H23010  10.438   8.091   1.358  3.0529 -1.9225  0.6984
  932MOL0     H23011  10.613   8.035   1.486  1.6930 -0.2701 -3.4067
  932MOL0     H23012  11.024   8.304   1.647  1.4525 -1.0802 -1.4544
  932MOL0     H23013  11.237   8.333   1.796 -1.6696  1.2909  2.3940
  932MOL0     H23014  11.456   8.090   1.867 -2.2455  0.6228 -1.3446
  932MOL0     H23015  11.369   7.980   1.979 -0.6467 -0.0381  1.3292
  932MOL0     H23016  11.494   8.058   2.180  1.9209 -0.9321 -0.3967
  932MOL0     H23017  11.611   8.054   2.055  0.1163 -1.2865  1.8561
  932MOL0     H23018  11.479   8.285   2.196  0.5752 -2.0139  1.2100
  932MOL0     H23019  11.511   8.319   2.031 -3.1885  0.1888  2.0619
  932MOL0     H23020  11.708   8.233   2.241 -0.3375  0.3357  0.4653
  932MOL0     H23021  11.754   8.258   2.072 -0.6063 -0.4954 -0.7566
  932MOL0     H23022  11.687   8.657   2.175  1.0318  0.3104  1.7703
  932MOL0     H23023  11.117   8.001   2.022  0.5994  2.1135  2.3498
  932MOL0     H23024  10.918   7.960   1.894 -1.3119 -0.6079 -1.9732
  933MOL0     O23025   1.465  11.168   5.152 -0.2917  0.6934  0.6326
  933MOL0     C23026   1.517  11.198   5.259 -0.5344  0.7000  0.4963
  933MOL0     O23027   1.439  11.231   5.373  0.0462  0.7447 -0.6012
  933MOL0     C23028   1.308  11.268   5.361  0.3693 -0.4058 -0.7365
  933MOL0     C23029   1.216  11.203   5.276  0.3845  0.7704  0.2237
  933MOL0     C23030   1.084  11.243   5.271 -0.6804  0.2186 -0.0023
  933MOL0     C23031   1.039  11.348   5.355  0.0777  0.8924 -0.1482
  933MOL0     O23032   0.903  11.391   5.344 -0.0378 -0.3260  0.6163
  933MOL0     C23033   0.834  11.393   5.476 -0.1294 -0.1056  0.6337
  933MOL0     C23034   0.747  11.516   5.479 -0.3204  0.3779  0.2117
  933MOL0     C23035   0.643  11.518   5.360 -0.5037  0.7079 -0.1701
  933MOL0     C23036   0.496  11.499   5.421 -0.2430 -0.2223 -0.7877
  933MOL0     C23037   0.399  11.522   5.307 -0.1937 -0.3470 -0.2147
  933MOL0     C23038   0.259  11.522   5.355  0.1001 -0.2419 -0.9767
  933MOL0     C23039   0.159  11.572   5.250  0.2014  0.3196  0.0943
  933MOL0     C23040   0.026  11.579   5.320  0.0931 -0.6554  1.2875
  933MOL0     N23041  -0.073  11.641   5.236  0.2177  0.7062  0.1424
  933MOL0     C23042  -0.132  11.759   5.264 -0.0830 -0.9118  0.0390
  933MOL0     C23043  -0.232  11.768   5.178  0.2504  0.1489  0.1624
  933MOL0     C23044  -0.342  11.867   5.178 -0.4604 -0.3351 -0.2074
  933MOL0     C23045  -0.473  11.810   5.229 -1.3878 -0.2877 -0.4198
  933MOL0     C23046  -0.510  11.865   5.378  0.1126  1.1859 -0.0761
  933MOL0     C23047  -0.646  11.821   5.420  0.8673 -0.5225 -0.1512
  933MOL0     O23048  -0.743  11.877   5.322 -0.6753 -0.5432  0.3880
  933MOL0     C23049  -0.877  11.847   5.329 -0.4958 -0.1765  0.1321
  933MOL0     C23050  -0.927  11.757   5.421  0.3107 -0.3623 -0.1732
  933MOL0     C23051  -1.064  11.756   5.432  0.2838  0.7279 -0.2686
  933MOL0     C23052  -1.156  11.811   5.342 -0.0173  0.4116  0.0625
  933MOL0     C23053  -1.294  11.756   5.330  0.3512  0.0630  0.1900
  933MOL0     O23054  -1.346  11.688   5.437  0.1178  0.9917  0.1899
  933MOL0     C23055  -1.467  11.615   5.444 -0.2738 -0.4586  0.2076
  933MOL0     C23056  -1.481  11.515   5.543 -0.1829  0.3577  0.4543
  933MOL0     C23057  -1.603  11.441   5.548  0.1092 -0.4481  0.0993
  933MOL0     C23058  -1.713  11.460   5.466 -0.1326  0.1579 -0.2828
  933MOL0     O23059  -1.829  11.387   5.467 -0.4733  0.4914  0.2675
  933MOL0     C23060  -1.838  11.270   5.551 -0.3647  0.2190  0.4405
  933MOL0     C23061  -1.746  11.153   5.504 -0.8382 -0.9173 -0.3232
  933MOL0     C23062  -1.770  11.003   5.553 -0.2335  0.2333 -0.8961
  933MOL0     C23063  -1.804  10.986   5.703 -0.4148 -0.1196 -0.2728
  933MOL0     C23064  -1.684  11.027   5.796  0.9051  0.2818 -0.0932
  933MOL0     C23065  -1.560  10.932   5.796  0.8850  0.4219  0.4912
  933MOL0     C23066  -1.447  11.000   5.879  0.3391 -0.2055 -0.6888
  933MOL0     C23067  -1.319  10.927   5.861  0.0285  0.2967 -0.7833
  933MOL0    Cl23068  -1.176  11.006   5.951 -0.3944  0.1276 -0.2137
  933MOL0     C23069  -1.689  11.550   5.362  0.5566 -1.1804 -0.2083
  933MOL0     C23070  -1.571  11.630   5.351  0.1240 -0.3258 -1.6122
  933MOL0     O23071  -1.356  11.789   5.229  0.1253  0.3371 -0.2864
  933MOL0     C23072  -1.104  11.898   5.243  0.5913 -0.8395  0.9730
  933MOL0     C23073  -0.963  11.913   5.239 -0.1257  0.2997  0.0048
  933MOL0     N23074  -0.221  11.656   5.094 -0.6423  0.8863  0.0918
  933MOL0     N23075  -0.126  11.580   5.123 -0.3381  0.7651 -0.3763
  933MOL0     C23076   1.133  11.416   5.434 -0.4295  1.1744 -0.4875
  933MOL0     C23077   1.268  11.379   5.445  0.2671  0.6154  0.0569
  933MOL0     C23078   1.663  11.183   5.268 -0.2744 -0.1122  0.0523
  933MOL0     C23079   1.742  11.125   5.173  0.7805 -0.3882  0.1811
  933MOL0     C23080   1.883  11.133   5.180  0.3279 -0.6118 -0.3456
  933MOL0     C23081   1.943  11.210   5.286 -1.2859  0.1274 -0.3040
  933MOL0     O23082   2.081  11.211   5.308 -0.5120  0.1946 -0.5519
  933MOL0     C23083   2.136  11.091   5.367  0.1256  0.4760 -0.0345
  933MOL0     C23084   2.090  11.065   5.507 -0.7580  0.2237 -0.5369
  933MOL0     C23085   2.169  10.945   5.570  0.4296 -0.1923  0.6645
  933MOL0     C23086   2.170  10.921   5.720  0.7576 -0.4959 -0.4802
  933MOL0     C23087   2.044  10.876   5.768 -0.5237  0.3794  0.4619
  933MOL0     C23088   1.927  10.844   5.788 -0.3391 -0.0657 -0.0742
  933MOL0     C23089   1.864  11.259   5.380  0.1281 -1.1209  0.4379
  933MOL0     C23090   1.727  11.247   5.370 -0.0196  0.2950 -0.7715
  933MOL0     H23091   1.244  11.112   5.224  0.5089  2.0161 -2.0389
  933MOL0     H23092   1.011  11.203   5.201 -3.5292  0.7145  2.5103
  933MOL0     H23093   0.914  11.393   5.550 -0.2312  1.8360  0.8090
  933MOL0     H23094   0.759  11.314   5.480  0.8369 -1.0488  0.3317
  933MOL0     H23095   0.812  11.604   5.473  0.6604 -0.3990 -1.0558
  933MOL0     H23096   0.693  11.510   5.574 -1.3645  0.1942 -0.3852
  933MOL0     H23097   0.672  11.440   5.288 -2.0213 -0.0295 -0.0189
  933MOL0     H23098   0.651  11.611   5.303  2.1405  0.2445 -0.7160
  933MOL0     H23099   0.494  11.400   5.468  0.3202  0.0830 -0.1048
  933MOL0     H23100   0.475  11.569   5.503  2.2348  0.2354 -0.4732
  933MOL0     H23101   0.413  11.440   5.236 -1.3326 -0.5906 -0.1717
  933MOL0     H23102   0.421  11.615   5.255  0.0139 -0.4356 -0.2861
  933MOL0     H23103   0.258  11.601   5.430  1.3371  1.9689 -3.1347
  933MOL0     H23104   0.219  11.426   5.388  1.1062 -0.9051 -1.6313
  933MOL0     H23105   0.197  11.670   5.221 -0.3138  0.9318  1.4266
  933MOL0     H23106   0.152  11.508   5.161  4.1592  0.1753 -0.3165
  933MOL0     H23107   0.022  11.631   5.416  1.0848  1.2004  0.3866
  933MOL0     H23108  -0.002  11.474   5.334  2.3133 -1.5601 -0.3250
  933MOL0     H23109  -0.109  11.832   5.341 -3.7132  0.8694 -0.3427
  933MOL0     H23110  -0.356  11.890   5.072  0.0184 -3.3212 -1.0115
  933MOL0     H23111  -0.320  11.956   5.237  0.6556  1.0977 -2.6607
  933MOL0     H23112  -0.475  11.701   5.230  3.1002 -0.5904 -2.3055
  933MOL0     H23113  -0.547  11.852   5.160 -0.9512 -0.1068 -0.7771
  933MOL0     H23114  -0.444  11.814   5.449 -0.9910 -2.0225 -1.1594
  933MOL0     H23115  -0.484  11.971   5.377  1.9378  0.7859  0.9142
  933MOL0     H23116  -0.673  11.864   5.517 -0.0819 -3.6383  1.0783
  933MOL0     H23117  -0.664  11.713   5.427  0.0317 -0.3991 -0.2615
  933MOL0     H23118  -0.863  11.702   5.489  0.4010 -2.1016 -1.5787
  933MOL0     H23119  -1.112  11.697   5.510  0.8093  1.5520  0.6974
  933MOL0     H23120  -1.403  11.493   5.616  0.8527  2.5729  0.0724
  933MOL0     H23121  -1.598  11.363   5.623 -1.9589  1.1108  1.9975
  933MOL0     H23122  -1.939  11.228   5.563  0.3259 -2.0600 -0.9932
  933MOL0     H23123  -1.815  11.302   5.653  0.3423  0.4276  0.2160
  933MOL0     H23124  -1.641  11.177   5.524 -0.8338 -0.5805 -0.7214
  933MOL0     H23125  -1.756  11.152   5.395 -4.0013  1.4617 -0.2037
  933MOL0     H23126  -1.685  10.949   5.512 -0.2115  0.4158 -1.0910
  933MOL0     H23127  -1.866  10.968   5.513 -0.7106 -1.0720  1.1910
  933MOL0     H23128  -1.896  11.044   5.720 -2.7178 -2.8672 -2.3362
  933MOL0     H23129  -1.821  10.882   5.731  0.6715 -0.0039  0.8722
  933MOL0     H23130  -1.722  11.018   5.898  1.4321 -2.3333 -0.0428
  933MOL0     H23131  -1.664  11.129   5.764  0.0620 -0.1353 -2.1809
  933MOL0     H23132  -1.530  10.910   5.693  2.3743  0.4335  0.9058
  933MOL0     H23133  -1.594  10.840   5.844 -0.4296  0.5164 -0.2053
  933MOL0     H23134  -1.446  11.107   5.854 -1.6794  0.6211  2.2444
  933MOL0     H23135  -1.474  10.991   5.985 -2.5270  0.9649 -1.2331
  933MOL0     H23136  -1.293  10.935   5.755  0.8300  2.2223 -0.4877
  933MOL0     H23137  -1.318  10.821   5.887  1.1008  0.2740 -0.8549
  933MOL0     H23138  -1.767  11.566   5.289  0.2803 -1.6268 -0.0130
  933MOL0     H23139  -1.567  11.706   5.273  2.7464  1.5363  0.1755
  933MOL0     H23140  -1.178  11.941   5.175  0.9391 -1.2837  0.3040
  933MOL0     H23141  -0.937  11.987   5.165  1.6887  0.2795  0.5583
  933MOL0     H23142   1.105  11.505   5.490  1.2173  1.6436 -0.3521
  933MOL0     H23143   1.341  11.443   5.494  1.0903  0.6597 -1.1873
  933MOL0     H23144   1.701  11.079   5.084  2.4281  0.8920 -1.2944
  933MOL0     H23145   1.947  11.104   5.097  1.2887  1.1867 -0.2814
  933MOL0     H23146   2.243  11.110   5.375  0.0405  0.3080  2.2676
  933MOL0     H23147   2.119  11.012   5.294 -0.2357  1.6121 -1.2233
  933MOL0     H23148   2.114  11.153   5.566  0.1517  0.9197 -1.8963
  933MOL0     H23149   1.983  11.040   5.511 -0.5772 -0.4294  1.6491
  933MOL0     H23150   2.273  10.945   5.535  0.4416 -4.9679  0.0180
  933MOL0     H23151   2.127  10.856   5.524  0.7098  0.3598 -0.7200
  933MOL0     H23152   2.239  10.843   5.754 -2.0890 -2.5061  1.1382
  933MOL0     H23153   2.194  11.018   5.765  1.4522 -0.7981 -0.2005
  933MOL0     H23154   1.822  10.828   5.805 -0.4872  1.6297  0.9227
  933MOL0     H23155   1.905  11.322   5.458  3.3613  1.1504 -2.8283
  933MOL0     H23156   1.662  11.301   5.438 -2.5890 -1.0025 -2.0496
  934MOL0     O23157   9.934   2.824   8.032 -0.1896  0.6715  0.2210
  934MOL0     C23158   9.921   2.715   8.090 -0.0197 -1.2311 -0.6913
  934MOL0     O23159  10.029   2.644   8.133 -0.4252 -0.5186 -0.8479
  934MOL0     C23160  10.150   2.683   8.089 -0.1649 -0.6011 -0.0894
  934MOL0     C23161  10.205   2.795   8.134  0.8223  0.1359 -0.0224
  934MOL0     C23162  10.305   2.859   8.063 -0.0487 -0.6926  0.4596
  934MOL0     C23163  10.359   2.791   7.956 -0.3643 -0.1687 -0.0530
  934MOL0     O23164  10.460   2.834   7.881  0.6825  0.8140 -0.7113
  934MOL0     C23165  10.520   2.965   7.909  0.9366 -0.1258 -0.1637
  934MOL0     C23166  10.626   3.018   7.822 -0.8767 -0.7919 -0.0183
  934MOL0     C23167  10.753   2.937   7.834  0.2005 -0.5050  0.0998
  934MOL0     C23168  10.868   3.004   7.764 -0.1588 -0.5521  0.6779
  934MOL0     C23169  10.976   2.908   7.723 -0.3390 -0.9953  0.0331
  934MOL0     C23170  11.063   2.888   7.844  0.5979  0.1366  0.0698
  934MOL0     C23171  11.206   2.832   7.823  0.6063 -0.3259 -0.0857
  934MOL0     C23172  11.303   2.951   7.771  0.2736 -0.1288 -0.1349
  934MOL0     N23173  11.379   3.016   7.879  0.0295  0.4848  0.1180
  934MOL0     C23174  11.323   3.083   7.989  0.1073  0.3904  0.4975
  934MOL0     C23175  11.428   3.131   8.050 -0.2443  0.8614 -0.8409
  934MOL0     C23176  11.404   3.211   8.183 -0.1085  0.7061  0.8977
  934MOL0     C23177  11.433   3.132   8.309  0.5165  0.1834 -0.4179
  934MOL0     C23178  11.333   3.016   8.328 -0.4924  0.3485 -0.3699
  934MOL0     C23179  11.182   3.045   8.358  0.3957  0.4308 -0.2730
  934MOL0     O23180  11.119   3.102   8.244 -0.0703  0.6264 -0.5111
  934MOL0     C23181  10.982   3.120   8.238  0.8861  0.0424 -0.1553
  934MOL0     C23182  10.891   3.079   8.332 -0.4477  0.2957 -0.5691
  934MOL0     C23183  10.757   3.093   8.319 -0.3749 -0.1644 -0.2854
  934MOL0     C23184  10.710   3.168   8.207 -0.6872  0.7709 -0.2875
  934MOL0     C23185  10.559   3.177   8.199 -0.1318 -1.1959 -0.5744
  934MOL0     O23186  10.492   3.130   8.303 -0.0733  0.4294  0.5472
  934MOL0     C23187  10.351   3.132   8.300 -0.9230 -0.3117  0.3898
  934MOL0     C23188  10.257   3.206   8.218 -0.6651  0.7351 -0.1562
  934MOL0     C23189  10.124   3.204   8.259  0.1337  0.3403  1.0921
  934MOL0     C23190  10.077   3.117   8.357  0.1787 -0.0016 -0.2930
  934MOL0     O23191   9.948   3.106   8.393 -0.0354 -0.1440 -0.1180
  934MOL0     C23192   9.842   3.122   8.298  0.2292 -0.7565  0.0717
  934MOL0     C23193   9.714   3.073   8.365  0.0427  0.3674  0.2188
  934MOL0     C23194   9.705   2.931   8.420  0.0883 -0.1814 -0.4501
  934MOL0     C23195   9.569   2.919   8.482  0.6249 -0.2227 -0.5804
  934MOL0     C23196   9.548   2.788   8.558 -0.2232 -0.1338 -0.5163
  934MOL0     C23197   9.413   2.780   8.619  0.7563  0.2192  0.2433
  934MOL0     C23198   9.365   2.641   8.651  0.2054  0.1106  0.1233
  934MOL0     C23199   9.228   2.638   8.735 -0.0793 -0.2000  0.5380
  934MOL0    Cl23200   9.245   2.742   8.887  0.2230  0.3469  0.2435
  934MOL0     C23201  10.168   3.037   8.417 -0.4812 -0.0761  0.2816
  934MOL0     C23202  10.301   3.057   8.402  0.1432 -0.4941  0.1502
  934MOL0     O23203  10.515   3.221   8.093 -0.2227  0.8624  0.4838
  934MOL0     C23204  10.802   3.209   8.112 -0.2140 -0.5148  0.2183
  934MOL0     C23205  10.933   3.175   8.120  1.3194  0.4544  0.1700
  934MOL0     N23206  11.548   3.112   7.988 -0.2391 -0.1964 -0.1670
  934MOL0     N23207  11.511   3.030   7.894 -0.0474 -1.1176 -0.5710
  934MOL0     C23208  10.312   2.670   7.916 -0.2323 -0.1256  0.1592
  934MOL0     C23209  10.202   2.616   7.982  0.4555 -0.0822 -0.4608
  934MOL0     C23210   9.785   2.667   8.129 -0.3166 -0.2279 -0.2483
  934MOL0     C23211   9.762   2.585   8.244  0.3235 -0.0259 -0.1036
  934MOL0     C23212   9.628   2.535   8.268 -0.6363 -0.1356  0.6294
  934MOL0     C23213   9.523   2.588   8.200 -0.2659  0.2813  0.1526
  934MOL0     O23214   9.390   2.565   8.223  0.7710 -0.1671  0.5530
  934MOL0     C23215   9.348   2.459   8.307  0.5862  0.3331 -0.3248
  934MOL0     C23216   9.202   2.486   8.358 -0.9517 -0.1130 -1.5968
  934MOL0     C23217   9.158   2.395   8.479 -0.6433 -0.0015 -0.2728
  934MOL0     C23218   9.021   2.433   8.518  0.9241 -0.6211 -0.9232
  934MOL0     C23219   8.936   2.312   8.540  0.1220 -0.4378  0.3761
  934MOL0     C23220   8.863   2.218   8.574 -0.0617 -0.3754  0.0367
  934MOL0     C23221   9.548   2.690   8.113  0.5700 -0.5314 -0.0103
  934MOL0     C23222   9.674   2.726   8.075 -0.3969 -0.3777  0.2785
  934MOL0     H23223  10.151   2.851   8.210 -1.5749 -0.0573 -1.4933
  934MOL0     H23224  10.344   2.949   8.109  0.5325 -1.8525  2.3482
  934MOL0     H23225  10.564   2.971   8.009 -1.5577  0.6312  0.9870
  934MOL0     H23226  10.434   3.033   7.901  0.5787 -0.6290 -0.6409
  934MOL0     H23227  10.651   3.122   7.848 -2.7016 -0.0091 -1.2172
  934MOL0     H23228  10.593   3.016   7.718  0.0307 -0.4046 -0.3309
  934MOL0     H23229  10.741   2.843   7.779  1.6822  0.0736 -1.2950
  934MOL0     H23230  10.757   2.916   7.941 -2.2796 -0.3524  0.2973
  934MOL0     H23231  10.819   3.037   7.672 -2.0288 -1.3240  1.3527
  934MOL0     H23232  10.906   3.093   7.814 -2.6063  0.5886  0.6471
  934MOL0     H23233  11.036   2.960   7.648 -1.0782  0.9178  0.7014
  934MOL0     H23234  10.939   2.817   7.676  0.8438 -1.5064  0.0742
  934MOL0     H23235  11.005   2.817   7.903  1.9449 -1.2086 -0.1682
  934MOL0     H23236  11.069   2.973   7.914  0.1717 -1.2941  1.9216
  934MOL0     H23237  11.245   2.779   7.910  0.0341  1.4668  1.3323
  934MOL0     H23238  11.206   2.762   7.739 -1.8300 -0.8064  0.2436
  934MOL0     H23239  11.247   3.022   7.710 -2.6454 -1.7509  0.4910
  934MOL0     H23240  11.379   2.916   7.700  0.2973  1.1462 -0.7739
  934MOL0     H23241  11.218   3.095   8.012 -0.2854  0.2717 -1.0802
  934MOL0     H23242  11.301   3.248   8.190 -0.5521 -0.2829 -0.1224
  934MOL0     H23243  11.470   3.298   8.181 -1.6545  1.9288 -0.8107
  934MOL0     H23244  11.429   3.195   8.398  0.8686  0.8614 -0.8750
  934MOL0     H23245  11.535   3.094   8.297  1.3199  1.4026  1.9803
  934MOL0     H23246  11.335   2.945   8.244  1.1754  1.3817 -1.2555
  934MOL0     H23247  11.377   2.964   8.414 -1.8847  2.0601  1.4617
  934MOL0     H23248  11.159   3.102   8.448 -1.6541 -1.5635  0.5563
  934MOL0     H23249  11.136   2.948   8.381 -0.5428  1.5793  3.3979
  934MOL0     H23250  10.927   3.010   8.408  0.8877  2.7176  1.1282
  934MOL0     H23251  10.697   3.061   8.404 -1.7251  0.8431 -0.8391
  934MOL0     H23252  10.281   3.263   8.128  0.0626  1.7456  0.6597
  934MOL0     H23253  10.055   3.268   8.205  0.0247  1.4217  2.4476
  934MOL0     H23254   9.853   3.060   8.209  0.0258 -0.0304 -0.4692
  934MOL0     H23255   9.821   3.227   8.277 -2.6251 -1.1942  0.3597
  934MOL0     H23256   9.635   3.081   8.290 -1.4623  1.0559  1.8188
  934MOL0     H23257   9.680   3.137   8.447  0.2699 -2.0230  2.3013
  934MOL0     H23258   9.787   2.913   8.491  1.0215 -1.9618 -1.8966
  934MOL0     H23259   9.725   2.849   8.351  0.5609  0.3185 -0.9152
  934MOL0     H23260   9.544   3.007   8.543  0.2615 -0.6211 -0.1537
  934MOL0     H23261   9.494   2.926   8.403  1.1997  1.6652 -1.0117
  934MOL0     H23262   9.616   2.774   8.642 -3.0531  1.0221  2.1432
  934MOL0     H23263   9.549   2.702   8.489 -1.8640  1.4558 -2.6698
  934MOL0     H23264   9.331   2.817   8.557  0.8128 -1.8208 -1.1450
  934MOL0     H23265   9.415   2.842   8.709  1.2984  0.2879  0.1875
  934MOL0     H23266   9.351   2.598   8.551 -0.2315  0.2375  0.1275
  934MOL0     H23267   9.448   2.591   8.701 -1.5194 -1.8681  1.1833
  934MOL0     H23268   9.223   2.533   8.768  3.4250  0.0365  2.2967
  934MOL0     H23269   9.150   2.686   8.675  0.5552 -0.6889 -0.7216
  934MOL0     H23270  10.130   2.973   8.496  2.8176 -1.1152  1.1833
  934MOL0     H23271  10.373   2.997   8.456  1.7186 -1.2266 -2.5754
  934MOL0     H23272  10.766   3.250   8.018 -2.4595  2.4463  2.1686
  934MOL0     H23273  10.996   3.201   8.035  1.7535 -1.4243 -0.1390
  934MOL0     H23274  10.358   2.630   7.826 -0.7147  1.9443 -1.0781
  934MOL0     H23275  10.152   2.528   7.943  0.0409  0.0633 -0.2649
  934MOL0     H23276   9.845   2.536   8.294  0.4586 -0.5579 -0.8352
  934MOL0     H23277   9.632   2.442   8.324  3.6367 -0.5775 -0.0422
  934MOL0     H23278   9.406   2.450   8.400 -3.2709 -1.5446  2.2059
  934MOL0     H23279   9.342   2.364   8.253 -1.2809 -0.9248  1.8887
  934MOL0     H23280   9.178   2.586   8.397 -0.7189 -0.9562  0.9031
  934MOL0     H23281   9.147   2.459   8.267  0.5137 -1.3793 -2.1375
  934MOL0     H23282   9.234   2.400   8.557 -2.2747  1.6767  1.3221
  934MOL0     H23283   9.156   2.297   8.430 -1.2574 -0.0606 -0.1479
  934MOL0     H23284   9.030   2.486   8.613 -0.1253  1.4384 -1.9232
  934MOL0     H23285   8.980   2.491   8.434  0.8629 -2.1349 -1.9914
  934MOL0     H23286   8.805   2.128   8.582  0.7188 -1.4850 -4.1060
  934MOL0     H23287   9.466   2.743   8.066  0.1853 -1.6753 -0.6778
  934MOL0     H23288   9.691   2.798   7.995  0.9691 -0.8442  0.1256
  935MOL0     O23289   0.816   3.151   0.441 -0.4060 -0.4601 -0.6355
  935MOL0     C23290   0.870   3.130   0.339 -0.5329 -0.1170  1.3448
  935MOL0     O23291   0.821   3.069   0.230  0.3956  0.8011 -0.5787
  935MOL0     C23292   0.692   3.035   0.243 -0.4539  0.7317  0.1825
  935MOL0     C23293   0.595   3.116   0.192  0.0366 -0.1425 -0.3230
  935MOL0     C23294   0.465   3.070   0.206 -0.1697  0.0785  0.8889
  935MOL0     C23295   0.429   2.953   0.273 -0.3546  0.1506  0.3753
  935MOL0     O23296   0.300   2.903   0.290 -0.0378 -0.2835  0.4630
  935MOL0     C23297   0.220   2.913   0.176  0.0238  0.5690 -0.1730
  935MOL0     C23298   0.109   2.817   0.189 -0.7239  0.1631  0.4049
  935MOL0     C23299   0.022   2.821   0.062 -0.0638  0.4220 -1.1228
  935MOL0     C23300  -0.070   2.697   0.060  0.2270 -0.6330  0.2548
  935MOL0     C23301  -0.187   2.697  -0.043  0.6801 -0.8032  0.2515
  935MOL0     C23302  -0.282   2.575  -0.019  0.5051 -0.0880 -0.1042
  935MOL0     C23303  -0.425   2.611   0.039 -0.3965 -0.5938 -0.4874
  935MOL0     C23304  -0.519   2.491   0.071 -0.2975  0.1856 -1.2826
  935MOL0     N23305  -0.637   2.541   0.133 -1.0311  1.5599 -0.3524
  935MOL0     C23306  -0.655   2.564   0.264 -1.0206 -0.8213  0.0094
  935MOL0     C23307  -0.788   2.592   0.287 -0.0206 -0.4664  0.2599
  935MOL0     C23308  -0.858   2.619   0.414  0.9755 -0.2961  0.5371
  935MOL0     C23309  -0.908   2.484   0.480 -0.7171 -0.3792  1.0797
  935MOL0     C23310  -0.987   2.498   0.611 -0.2883 -0.3568  0.6117
  935MOL0     C23311  -1.142   2.524   0.589  0.7819  0.0979  0.5490
  935MOL0     O23312  -1.200   2.536   0.721 -0.0806  0.4076 -0.7302
  935MOL0     C23313  -1.341   2.545   0.724 -0.1352  0.2745  0.1075
  935MOL0     C23314  -1.393   2.579   0.847  0.7163  0.5806 -0.2744
  935MOL0     C23315  -1.529   2.606   0.859 -0.1508 -0.5796  0.0811
  935MOL0     C23316  -1.619   2.587   0.755 -0.4017 -0.4168 -0.4054
  935MOL0     C23317  -1.758   2.610   0.776  0.3273 -0.4217  0.3009
  935MOL0     O23318  -1.843   2.572   0.674 -0.3192 -0.3294 -0.0449
  935MOL0     C23319  -1.978   2.568   0.703 -0.0715  0.1420  0.8728
  935MOL0     C23320  -2.055   2.613   0.596 -0.6773 -0.3952  0.3641
  935MOL0     C23321  -2.190   2.595   0.598  1.0355 -0.7040  1.0660
  935MOL0     C23322  -2.258   2.549   0.711  0.3914  1.2887  0.3192
  935MOL0     O23323  -2.395   2.521   0.722 -0.1125 -0.1105 -0.5748
  935MOL0     C23324  -2.495   2.532   0.610 -0.7930  0.1781  0.7298
  935MOL0     C23325  -2.630   2.580   0.659 -0.0582 -0.0445 -0.2709
  935MOL0     C23326  -2.726   2.605   0.540 -0.8032 -0.3742  1.0131
  935MOL0     C23327  -2.870   2.644   0.569  0.3965 -0.6146  0.4007
  935MOL0     C23328  -2.957   2.656   0.435 -0.0862  0.5191  0.0780
  935MOL0     C23329  -3.102   2.692   0.469  0.3039 -0.3762 -0.1921
  935MOL0     C23330  -3.188   2.679   0.346  0.7541 -0.6171 -0.0809
  935MOL0     C23331  -3.303   2.774   0.361  0.6610 -0.3026  0.3689
  935MOL0    Cl23332  -3.406   2.718   0.509 -0.0656 -0.2097 -0.1004
  935MOL0     C23333  -2.187   2.511   0.820  0.0350  0.1901  0.4971
  935MOL0     C23334  -2.048   2.522   0.820  0.3969 -0.2293 -0.4907
  935MOL0     O23335  -1.797   2.669   0.875 -0.3542  0.1442  0.0540
  935MOL0     C23336  -1.560   2.561   0.626  0.5065  0.6512 -0.5614
  935MOL0     C23337  -1.425   2.537   0.614 -1.2500  0.0608  0.6972
  935MOL0     N23338  -0.848   2.574   0.168  0.0762 -0.1962 -0.0906
  935MOL0     N23339  -0.758   2.530   0.085 -0.5370 -0.4349  0.2170
  935MOL0     C23340   0.528   2.871   0.327 -0.2809  0.4139 -0.6871
  935MOL0     C23341   0.657   2.912   0.306 -0.0200 -0.1176  0.8107
  935MOL0     C23342   1.007   3.163   0.320 -0.7037  0.2375 -0.4123
  935MOL0     C23343   1.079   3.206   0.433  0.3307 -1.3653  0.4356
  935MOL0     C23344   1.212   3.242   0.408 -0.3836  0.0409 -1.3958
  935MOL0     C23345   1.269   3.245   0.282  0.5379 -0.1140  0.6086
  935MOL0     O23346   1.393   3.296   0.272  0.6653  0.2967 -0.6817
  935MOL0     C23347   1.489   3.211   0.217 -0.1124  0.1487  0.0740
  935MOL0     C23348   1.622   3.277   0.233  0.2231  0.5856 -0.3826
  935MOL0     C23349   1.741   3.181   0.198  0.7972  0.4279 -0.0211
  935MOL0     C23350   1.837   3.233   0.088  1.1472  0.8112  0.5615
  935MOL0     C23351   1.920   3.125   0.032  0.2924  0.0974 -0.1375
  935MOL0     C23352   1.989   3.036  -0.025 -0.6107 -0.5850 -0.5369
  935MOL0     C23353   1.198   3.201   0.174  0.3591  0.2146  0.5841
  935MOL0     C23354   1.069   3.146   0.190  1.2578 -0.2588 -0.7716
  935MOL0     H23355   0.618   3.215   0.153  3.6383 -0.7221 -0.0591
  935MOL0     H23356   0.395   3.133   0.153  0.0117  0.2330  0.8283
  935MOL0     H23357   0.274   2.869   0.091  1.1117 -1.2110  1.3488
  935MOL0     H23358   0.175   3.010   0.155  1.5321  0.6811 -3.6201
  935MOL0     H23359   0.056   2.850   0.279 -1.1054  2.1328 -0.4822
  935MOL0     H23360   0.146   2.714   0.194  0.6136  0.5416 -0.9300
  935MOL0     H23361   0.084   2.796  -0.024  0.3956 -5.5891  0.5001
  935MOL0     H23362  -0.041   2.909   0.046 -1.8714  0.0374  2.7510
  935MOL0     H23363  -0.016   2.602   0.054 -0.6806 -1.1016 -0.9216
  935MOL0     H23364  -0.124   2.693   0.155  1.2208 -0.1567  0.8519
  935MOL0     H23365  -0.146   2.683  -0.143 -0.0883  0.1499 -0.2057
  935MOL0     H23366  -0.251   2.786  -0.043  0.2131 -1.1167  1.0379
  935MOL0     H23367  -0.236   2.499   0.045 -0.1248 -0.6087 -0.2580
  935MOL0     H23368  -0.298   2.519  -0.112 -0.3784  1.0394 -0.6512
  935MOL0     H23369  -0.408   2.659   0.136  4.3403 -0.7013 -1.0349
  935MOL0     H23370  -0.476   2.683  -0.026  0.2649  0.5596  0.2415
  935MOL0     H23371  -0.472   2.411   0.129 -0.9680  0.1106 -0.8313
  935MOL0     H23372  -0.549   2.448  -0.025 -1.9698 -0.8739 -0.3317
  935MOL0     H23373  -0.572   2.580   0.332 -2.2978 -0.3033  1.5038
  935MOL0     H23374  -0.948   2.675   0.386  0.7229  0.1040  2.0424
  935MOL0     H23375  -0.799   2.674   0.487  2.2882 -2.5752  1.2994
  935MOL0     H23376  -0.820   2.421   0.498 -1.9377 -2.5126 -0.1712
  935MOL0     H23377  -0.959   2.431   0.400  2.1591 -0.0209 -1.1381
  935MOL0     H23378  -0.994   2.407   0.672  0.8245 -0.0631  1.2034
  935MOL0     H23379  -0.945   2.579   0.672  1.6173 -0.8274 -0.0130
  935MOL0     H23380  -1.189   2.438   0.539 -4.9884  1.7738  2.2823
  935MOL0     H23381  -1.163   2.609   0.524  2.2229 -0.1075 -0.2247
  935MOL0     H23382  -1.334   2.594   0.937 -0.8767  1.5471  0.6470
  935MOL0     H23383  -1.568   2.626   0.958  0.5837 -3.4444  1.0330
  935MOL0     H23384  -2.004   2.651   0.509  0.1563  0.2631  1.1173
  935MOL0     H23385  -2.247   2.628   0.513  0.8714  0.4184  1.5991
  935MOL0     H23386  -2.505   2.435   0.561 -2.0377  1.7959 -2.4926
  935MOL0     H23387  -2.462   2.601   0.531  0.7818  0.6659  1.7692
  935MOL0     H23388  -2.626   2.666   0.728  0.7415 -0.0013 -0.3601
  935MOL0     H23389  -2.668   2.494   0.714  1.6019 -1.1682 -0.7940
  935MOL0     H23390  -2.734   2.511   0.485 -2.5612 -0.8956  2.0653
  935MOL0     H23391  -2.675   2.673   0.473  3.2551 -1.9497  2.2050
  935MOL0     H23392  -2.917   2.582   0.645  0.1855  0.9453  1.6044
  935MOL0     H23393  -2.879   2.740   0.621  0.1990  0.4277 -1.4898
  935MOL0     H23394  -2.958   2.553   0.397 -1.8164  0.8190 -0.7964
  935MOL0     H23395  -2.917   2.730   0.365 -2.7219  1.1868 -0.8360
  935MOL0     H23396  -3.094   2.793   0.511  0.5510 -1.0227  1.3886
  935MOL0     H23397  -3.143   2.628   0.548  1.2600 -0.3197  0.3736
  935MOL0     H23398  -3.121   2.710   0.265  0.0269  0.8610 -0.1622
  935MOL0     H23399  -3.230   2.580   0.328 -0.1292 -0.5828  1.6321
  935MOL0     H23400  -3.368   2.759   0.274 -1.1162 -0.4459  1.6767
  935MOL0     H23401  -3.272   2.877   0.381 -0.1804 -0.6912  4.6944
  935MOL0     H23402  -2.237   2.455   0.898  1.1828 -2.2672 -0.3972
  935MOL0     H23403  -1.988   2.493   0.905  1.8708 -2.6807 -2.2377
  935MOL0     H23404  -1.617   2.558   0.534 -0.3875 -2.9924 -0.0293
  935MOL0     H23405  -1.392   2.514   0.513 -2.4451 -0.4878  0.4253
  935MOL0     H23406   0.496   2.778   0.374 -0.8541  1.4344  1.0249
  935MOL0     H23407   0.735   2.853   0.353  0.1363  0.1919  0.9491
  935MOL0     H23408   1.037   3.196   0.532 -0.7985  1.0925  0.2805
  935MOL0     H23409   1.274   3.277   0.490 -1.5256 -2.7852  0.8183
  935MOL0     H23410   1.470   3.201   0.110  0.2228 -0.0776  0.0363
  935MOL0     H23411   1.478   3.114   0.268  1.0860  0.3274  0.6852
  935MOL0     H23412   1.632   3.367   0.171 -1.0657 -0.5704 -2.3581
  935MOL0     H23413   1.638   3.313   0.335  1.1635  0.5652 -0.5076
  935MOL0     H23414   1.695   3.089   0.160  0.0947  0.8473 -0.1976
  935MOL0     H23415   1.796   3.166   0.291  0.2483 -4.0947 -0.1871
  935MOL0     H23416   1.787   3.291   0.010 -1.4403  0.3641  1.7677
  935MOL0     H23417   1.910   3.298   0.138  3.3094 -1.9812  1.2727
  935MOL0     H23418   2.051   2.964  -0.074  0.8002  0.5911 -0.5265
  935MOL0     H23419   1.251   3.206   0.080  1.3364 -2.7540  0.8624
  935MOL0     H23420   1.017   3.099   0.107  1.1711 -2.4494  0.4287
  936MOL0     O23421   9.603   0.611   1.660 -0.7886 -0.1761  0.4357
  936MOL0     C23422   9.542   0.513   1.614 -0.5837  0.1400 -0.3369
  936MOL0     O23423   9.598   0.383   1.603 -0.3232  0.0041 -0.0569
  936MOL0     C23424   9.724   0.361   1.649 -1.1339  0.9556  0.8684
  936MOL0     C23425   9.748   0.294   1.764  0.2682 -0.5324 -1.8541
  936MOL0     C23426   9.877   0.263   1.811 -0.9531 -0.7930 -0.2192
  936MOL0     C23427   9.987   0.323   1.751  0.3451 -0.3022  0.2847
  936MOL0     O23428  10.111   0.303   1.806  0.0767 -0.2940  0.1112
  936MOL0     C23429  10.228   0.363   1.751 -0.3270 -0.1753 -0.0729
  936MOL0     C23430  10.349   0.312   1.831  0.5332 -0.2444  0.8083
  936MOL0     C23431  10.456   0.415   1.797 -1.2630  0.2479 -0.2025
  936MOL0     C23432  10.601   0.359   1.800 -1.0761  1.2415  0.8267
  936MOL0     C23433  10.627   0.287   1.660 -0.0626 -0.2707 -0.6548
  936MOL0     C23434  10.766   0.306   1.628 -0.5093  0.3908 -0.0607
  936MOL0     C23435  10.865   0.238   1.717 -0.4216 -0.4332  0.1033
  936MOL0     C23436  10.885   0.089   1.693 -0.2494 -0.3163 -0.0732
  936MOL0     N23437  10.997   0.026   1.773  0.3945  0.4520 -0.0267
  936MOL0     C23438  11.132   0.042   1.754  0.2605 -0.8685 -0.3897
  936MOL0     C23439  11.193  -0.020   1.859  0.6798 -0.4974  0.9527
  936MOL0     C23440  11.341  -0.035   1.889 -0.7180  0.4286 -0.4022
  936MOL0     C23441  11.420   0.093   1.881  0.0064  0.5592 -0.4596
  936MOL0     C23442  11.364   0.217   1.964 -0.2011  0.0447  0.5048
  936MOL0     C23443  11.342   0.185   2.107  0.3795 -0.0268  0.6747
  936MOL0     O23444  11.282   0.295   2.171  0.1181  0.0555 -0.0128
  936MOL0     C23445  11.146   0.320   2.169 -0.5156 -0.3867 -0.5274
  936MOL0     C23446  11.045   0.230   2.131 -0.0431 -0.3425 -0.5918
  936MOL0     C23447  10.904   0.253   2.137  0.3428  0.0284 -0.4300
  936MOL0     C23448  10.864   0.367   2.206 -0.1112 -0.8018  0.1448
  936MOL0     C23449  10.726   0.416   2.225 -0.5204 -0.1084  0.1735
  936MOL0     O23450  10.704   0.550   2.246  0.8107 -1.3166  0.6048
  936MOL0     C23451  10.578   0.602   2.218  0.4578  0.0922 -1.1718
  936MOL0     C23452  10.468   0.538   2.290 -0.6724 -0.2676  1.2264
  936MOL0     C23453  10.338   0.578   2.249 -0.4938 -0.1104 -0.4845
  936MOL0     C23454  10.304   0.683   2.169 -0.6683  0.5858  0.5269
  936MOL0     O23455  10.179   0.729   2.127 -0.3910 -0.4053  0.4152
  936MOL0     C23456  10.076   0.632   2.110 -0.6561  0.5814  0.4443
  936MOL0     C23457   9.983   0.634   1.982 -0.1319  0.7362  0.2916
  936MOL0     C23458   9.926   0.767   1.945  0.1192  0.3844  0.2087
  936MOL0     C23459   9.807   0.760   1.851 -1.3213  0.3090  0.4845
  936MOL0     C23460   9.762   0.910   1.827 -0.3320 -0.1430  0.3423
  936MOL0     C23461   9.636   0.927   1.729 -0.5578 -0.0951  0.4736
  936MOL0     C23462   9.592   1.071   1.760  0.6507 -0.2382  0.1115
  936MOL0     C23463   9.515   1.135   1.644  0.6217  0.0445 -0.3291
  936MOL0    Cl23464   9.345   1.079   1.658  0.2180 -0.1786 -0.3787
  936MOL0     C23465  10.415   0.759   2.128 -0.5859 -0.7017  0.1280
  936MOL0     C23466  10.554   0.726   2.157  1.1592 -0.1902 -0.0111
  936MOL0     O23467  10.641   0.332   2.199  0.6390 -0.4970  0.4609
  936MOL0     C23468  10.967   0.449   2.257  0.4953 -0.0191 -0.5029
  936MOL0     C23469  11.099   0.426   2.238 -0.0635 -0.2500  0.3240
  936MOL0     N23470  11.097  -0.076   1.938  0.3980  0.0780 -0.3711
  936MOL0     N23471  10.976  -0.048   1.883 -0.0825  0.1606  0.1670
  936MOL0     C23472   9.965   0.405   1.640  0.0011 -0.5851 -0.8801
  936MOL0     C23473   9.839   0.415   1.576 -0.0180  0.2482  0.3983
  936MOL0     C23474   9.407   0.531   1.554  0.2282  0.1969 -0.3788
  936MOL0     C23475   9.339   0.652   1.560  0.0783  0.6847 -0.5999
  936MOL0     C23476   9.223   0.666   1.494 -0.6055 -0.5511 -0.7817
  936MOL0     C23477   9.160   0.568   1.418 -0.1284  0.1682 -0.0847
  936MOL0     O23478   9.038   0.573   1.361 -0.1858 -0.2284  0.1175
  936MOL0     C23479   8.972   0.702   1.379 -0.2999 -0.4348 -0.2689
  936MOL0     C23480   8.838   0.703   1.318  0.0195  0.3742 -0.3919
  936MOL0     C23481   8.764   0.835   1.337  0.0885 -0.3572 -0.3602
  936MOL0     C23482   8.628   0.833   1.262 -0.5919  0.4630 -0.4058
  936MOL0     C23483   8.538   0.731   1.324  0.4705 -0.0035  0.4453
  936MOL0     C23484   8.454   0.665   1.381  0.6454 -0.1579 -0.8831
  936MOL0     C23485   9.225   0.440   1.410 -0.1994 -1.3366  0.2856
  936MOL0     C23486   9.346   0.421   1.479 -1.0012  0.2284  0.4506
  936MOL0     H23487   9.671   0.226   1.799  0.4741  0.5511  1.0050
  936MOL0     H23488   9.886   0.196   1.896 -1.8125  2.1328  2.3399
  936MOL0     H23489  10.217   0.472   1.752 -1.7006 -0.2826 -0.9730
  936MOL0     H23490  10.242   0.325   1.649 -0.9110 -0.2779 -0.1150
  936MOL0     H23491  10.380   0.214   1.794  0.2418 -0.0643  0.0654
  936MOL0     H23492  10.323   0.310   1.938  0.8057  2.5024  0.9864
  936MOL0     H23493  10.431   0.493   1.868 -3.8617 -0.8956  0.2755
  936MOL0     H23494  10.435   0.460   1.699 -1.5629 -2.3531 -1.4292
  936MOL0     H23495  10.666   0.446   1.806  1.3905 -0.4471  0.4001
  936MOL0     H23496  10.621   0.292   1.884 -1.7057 -1.6559 -1.1836
  936MOL0     H23497  10.557   0.318   1.582 -0.0258 -0.7433 -0.8800
  936MOL0     H23498  10.600   0.183   1.676  1.1408 -0.3832  0.9033
  936MOL0     H23499  10.802   0.409   1.627  1.0647 -0.1229 -2.0131
  936MOL0     H23500  10.781   0.278   1.524  0.1979  0.1822  0.0947
  936MOL0     H23501  10.965   0.283   1.717 -0.9831  0.9454  1.7930
  936MOL0     H23502  10.837   0.250   1.822 -0.6454 -0.2846  0.0278
  936MOL0     H23503  10.912   0.072   1.588  2.9478 -0.2986  0.6578
  936MOL0     H23504  10.786   0.053   1.722 -0.0549  0.9848  2.4666
  936MOL0     H23505  11.171   0.090   1.664  0.0694 -2.9501 -1.6564
  936MOL0     H23506  11.397  -0.098   1.819 -0.4068 -2.1774  1.9911
  936MOL0     H23507  11.343  -0.087   1.985 -1.9152 -3.4493 -2.2394
  936MOL0     H23508  11.436   0.121   1.777  1.9736  0.1323 -0.3081
  936MOL0     H23509  11.515   0.073   1.931 -0.3346  2.2712  0.9717
  936MOL0     H23510  11.431   0.300   1.942 -2.0712  1.3262 -0.6332
  936MOL0     H23511  11.267   0.244   1.921 -1.3509  0.6747  3.2659
  936MOL0     H23512  11.441   0.170   2.153  0.3703  0.8751  1.0128
  936MOL0     H23513  11.297   0.086   2.114  0.6366 -0.3662 -1.6153
  936MOL0     H23514  11.085   0.140   2.085  2.2836 -1.4428  3.1330
  936MOL0     H23515  10.829   0.184   2.100 -0.3101  0.7546 -0.4685
  936MOL0     H23516  10.481   0.451   2.354 -1.0461 -0.3067  1.2499
  936MOL0     H23517  10.254   0.515   2.274 -1.1975  1.2433  0.7375
  936MOL0     H23518  10.018   0.645   2.202 -0.9479 -2.5343  0.8072
  936MOL0     H23519  10.117   0.531   2.107  3.2862  2.0580 -0.6572
  936MOL0     H23520   9.915   0.550   1.997  0.8623 -0.2541 -0.5327
  936MOL0     H23521  10.032   0.607   1.887  0.6584 -1.4126  1.2492
  936MOL0     H23522  10.005   0.827   1.898 -0.8092  0.3307 -1.5087
  936MOL0     H23523   9.900   0.821   2.036  0.3695  1.4621 -0.3412
  936MOL0     H23524   9.820   0.690   1.768 -3.2152 -2.1880  2.1596
  936MOL0     H23525   9.724   0.717   1.908 -2.6560 -0.6777 -2.0514
  936MOL0     H23526   9.848   0.968   1.791 -0.2422  0.8231  2.0177
  936MOL0     H23527   9.729   0.936   1.928  0.0730 -1.4012  0.8131
  936MOL0     H23528   9.556   0.859   1.758 -0.2873  0.0059  1.4935
  936MOL0     H23529   9.678   0.928   1.628  1.6558  1.3380  1.3107
  936MOL0     H23530   9.533   1.075   1.852 -0.5238 -0.9929 -0.5840
  936MOL0     H23531   9.686   1.127   1.768  1.6835 -1.1371 -3.5430
  936MOL0     H23532   9.561   1.119   1.546  2.5848  1.0070  0.3769
  936MOL0     H23533   9.513   1.243   1.660 -1.4772  0.1926 -1.2681
  936MOL0     H23534  10.407   0.847   2.064 -1.6454 -0.8539  0.0395
  936MOL0     H23535  10.641   0.779   2.121 -0.3150  2.6211  0.3114
  936MOL0     H23536  10.934   0.546   2.294 -1.8054 -0.3146 -1.6105
  936MOL0     H23537  11.173   0.502   2.261  0.0658 -0.9808  2.5041
  936MOL0     H23538  10.049   0.453   1.591 -0.3806  0.7570 -0.2799
  936MOL0     H23539   9.827   0.473   1.485 -3.2607 -2.6027 -1.2616
  936MOL0     H23540   9.383   0.733   1.618 -2.0709  0.0204  2.1834
  936MOL0     H23541   9.184   0.766   1.511  0.3631 -0.5003  1.4304
  936MOL0     H23542   9.033   0.776   1.326 -0.9624  0.7469  0.5749
  936MOL0     H23543   8.966   0.732   1.484  0.7402 -1.4983  0.1193
  936MOL0     H23544   8.853   0.682   1.212  0.4303  1.0452 -0.4762
  936MOL0     H23545   8.784   0.622   1.368 -1.1789  1.0245 -0.5935
  936MOL0     H23546   8.821   0.915   1.291  3.0735 -3.3869 -2.3964
  936MOL0     H23547   8.745   0.847   1.444 -1.2460 -2.1139 -0.3520
  936MOL0     H23548   8.580   0.930   1.254  1.6140  1.5905 -0.6102
  936MOL0     H23549   8.639   0.787   1.163 -0.9695 -1.3956  0.3722
  936MOL0     H23550   8.378   0.602   1.423  0.5161 -0.4305 -1.5131
  936MOL0     H23551   9.171   0.363   1.355 -2.3422 -1.0324  1.8514
  936MOL0     H23552   9.386   0.320   1.484 -2.3323 -0.4921 -1.7630
  937MOL0     O23553   3.317   4.454   4.346 -0.6196  0.3020  0.0921
  937MOL0     C23554   3.400   4.413   4.423 -0.2698  0.6960  0.5184
  937MOL0     O23555   3.401   4.290   4.491 -0.2517 -0.0799  0.2480
  937MOL0     C23556   3.299   4.210   4.467 -0.0358 -0.9576  0.0332
  937MOL0     C23557   3.241   4.156   4.576 -0.4401 -0.5919 -0.7254
  937MOL0     C23558   3.150   4.047   4.563  0.2459  0.3854 -0.1303
  937MOL0     C23559   3.095   4.006   4.447 -0.3264 -0.9673  0.1925
  937MOL0     O23560   2.988   3.915   4.446  0.5602  0.6621  0.8955
  937MOL0     C23561   2.979   3.834   4.325 -0.9158 -0.3004 -0.1837
  937MOL0     C23562   2.867   3.734   4.335  0.0574 -0.4378 -0.4419
  937MOL0     C23563   2.840   3.690   4.478 -0.7537  1.2607 -0.2941
  937MOL0     C23564   2.699   3.634   4.489 -0.6278  0.0118  0.3105
  937MOL0     C23565   2.668   3.576   4.631 -0.5509  0.2331  0.1918
  937MOL0     C23566   2.518   3.543   4.664 -0.2121 -0.4060  0.2895
  937MOL0     C23567   2.507   3.459   4.789  0.2393 -0.2137 -0.5303
  937MOL0     C23568   2.365   3.464   4.844  0.1313 -0.7066  0.0342
  937MOL0     N23569   2.355   3.364   4.957  0.7961 -1.1227  0.1089
  937MOL0     C23570   2.434   3.348   5.076 -0.5144 -0.6093 -0.1474
  937MOL0     C23571   2.388   3.241   5.135 -0.4775 -0.5374 -0.1242
  937MOL0     C23572   2.431   3.179   5.264  0.4661 -0.1232  0.2496
  937MOL0     C23573   2.332   3.097   5.347  0.7499  0.4948  0.6558
  937MOL0     C23574   2.193   3.166   5.367  0.6904 -0.1373 -0.2012
  937MOL0     C23575   2.102   3.111   5.476 -0.1820 -0.3758  0.1937
  937MOL0     O23576   2.076   2.966   5.456  0.4991 -0.2011 -0.2846
  937MOL0     C23577   1.963   2.918   5.519  0.5013  0.0836  0.3269
  937MOL0     C23578   1.921   2.789   5.472 -0.0184 -1.3153 -0.9657
  937MOL0     C23579   1.807   2.730   5.519 -0.3375 -0.0693  0.4148
  937MOL0     C23580   1.724   2.797   5.616 -0.0042  0.6822 -0.3367
  937MOL0     C23581   1.597   2.741   5.651 -0.5707  0.3566 -0.5668
  937MOL0     O23582   1.589   2.601   5.650 -0.6847 -0.9901 -0.2979
  937MOL0     C23583   1.472   2.542   5.690 -0.5847 -0.4690  1.4343
  937MOL0     C23584   1.364   2.536   5.596 -0.5351  0.1254  0.2610
  937MOL0     C23585   1.237   2.480   5.626 -0.3236  0.5810  0.0397
  937MOL0     C23586   1.213   2.417   5.757  0.2520  0.5022  0.7350
  937MOL0     O23587   1.094   2.355   5.797  0.5418 -0.2408  0.2918
  937MOL0     C23588   1.005   2.336   5.679  0.3527 -0.2166 -0.9892
  937MOL0     C23589   0.882   2.253   5.727 -0.7228  0.4983 -0.2678
  937MOL0     C23590   0.894   2.106   5.696  0.1969 -0.1166  1.4517
  937MOL0     C23591   0.772   2.025   5.744  0.1458 -0.0055  0.0828
  937MOL0     C23592   0.804   1.872   5.750  0.3614  0.5095  0.0058
  937MOL0     C23593   0.699   1.793   5.815 -0.3270 -0.1689  1.0230
  937MOL0     C23594   0.581   1.747   5.725  0.1414  0.5117 -0.6599
  937MOL0     C23595   0.505   1.856   5.661 -0.7987 -0.3484  0.3397
  937MOL0    Cl23596   0.365   1.781   5.577  0.2514  0.1302 -0.1531
  937MOL0     C23597   1.321   2.425   5.845 -0.3702 -0.6424 -0.1261
  937MOL0     C23598   1.447   2.482   5.812  0.2346 -0.2682 -0.0546
  937MOL0     O23599   1.504   2.819   5.693 -0.8482 -0.0892  0.0871
  937MOL0     C23600   1.767   2.921   5.670 -0.0436  0.1596  0.2228
  937MOL0     C23601   1.890   2.980   5.628 -0.0472 -0.2928 -0.3978
  937MOL0     N23602   2.278   3.196   5.055  0.4392  0.1635 -0.5002
  937MOL0     N23603   2.268   3.266   4.949 -0.2649  0.4833  0.8459
  937MOL0     C23604   3.158   4.064   4.336 -1.2057  0.3222  0.0150
  937MOL0     C23605   3.264   4.151   4.345  0.5994 -0.1058 -0.1737
  937MOL0     C23606   3.514   4.512   4.446  0.4318  0.6174 -0.9398
  937MOL0     C23607   3.513   4.648   4.394  0.6763  1.1329 -0.1768
  937MOL0     C23608   3.616   4.737   4.423 -0.1782 -0.2552 -0.6037
  937MOL0     C23609   3.725   4.689   4.499  0.9810  0.3267 -0.0720
  937MOL0     O23610   3.847   4.752   4.526 -0.3126 -0.0410 -0.1736
  937MOL0     C23611   3.839   4.892   4.557  1.0374 -0.2301 -0.3969
  937MOL0     C23612   3.979   4.955   4.525 -0.2051 -0.4207  0.2217
  937MOL0     C23613   4.084   4.934   4.631  0.3959 -0.1067 -0.2135
  937MOL0     C23614   4.223   4.929   4.565 -0.1274  0.1707  0.1679
  937MOL0     C23615   4.254   5.057   4.506 -0.3026  0.6887 -0.4173
  937MOL0     C23616   4.296   5.156   4.441  0.5152 -0.0723 -0.2908
  937MOL0     C23617   3.725   4.558   4.542 -0.0567  0.0831 -0.3455
  937MOL0     C23618   3.621   4.473   4.525 -0.6409  0.7335  0.5017
  937MOL0     H23619   3.289   4.189   4.668 -0.7773  0.1590 -0.8160
  937MOL0     H23620   3.115   3.995   4.651  1.3638 -1.7932 -0.9057
  937MOL0     H23621   3.072   3.780   4.307  1.2659  2.6257  1.3969
  937MOL0     H23622   2.958   3.896   4.238  0.2689 -1.5232 -1.3837
  937MOL0     H23623   2.889   3.648   4.270 -0.7474  0.5864 -2.1465
  937MOL0     H23624   2.776   3.778   4.293 -1.2500 -1.8294  0.8325
  937MOL0     H23625   2.847   3.764   4.558  0.6122 -1.5006  2.3388
  937MOL0     H23626   2.911   3.612   4.507  0.0643  2.8298  2.2318
  937MOL0     H23627   2.628   3.711   4.456 -0.2062  0.1522 -0.2884
  937MOL0     H23628   2.696   3.551   4.417 -0.2518 -2.5718  3.0869
  937MOL0     H23629   2.701   3.644   4.711 -0.6394 -0.5581  0.9172
  937MOL0     H23630   2.721   3.483   4.651 -2.4349 -0.7318  0.8615
  937MOL0     H23631   2.474   3.485   4.583 -0.6401 -1.4885  1.2663
  937MOL0     H23632   2.469   3.640   4.672 -0.5998 -0.5319 -0.4730
  937MOL0     H23633   2.542   3.356   4.784 -0.4105 -0.4492 -0.3258
  937MOL0     H23634   2.575   3.505   4.862 -2.8099 -1.2990  3.3332
  937MOL0     H23635   2.292   3.445   4.764 -1.2123 -0.4198  1.1428
  937MOL0     H23636   2.341   3.562   4.888 -2.0510 -1.7821  1.4742
  937MOL0     H23637   2.523   3.398   5.112  0.3144 -1.8545 -0.4313
  937MOL0     H23638   2.464   3.264   5.324  0.0376 -0.1894  0.5814
  937MOL0     H23639   2.509   3.109   5.235 -2.9637 -3.2488 -2.4944
  937MOL0     H23640   2.383   3.082   5.442 -0.6750  2.0259  1.7091
  937MOL0     H23641   2.325   3.002   5.292  1.3284 -0.2398  1.8055
  937MOL0     H23642   2.208   3.273   5.384 -0.0679  0.1738 -1.3909
  937MOL0     H23643   2.132   3.160   5.277  1.8547  2.0478 -1.2227
  937MOL0     H23644   2.007   3.160   5.455  0.7577  1.0622 -0.9291
  937MOL0     H23645   2.143   3.132   5.575  0.1986 -0.2857  0.0195
  937MOL0     H23646   1.971   2.738   5.390  1.1828 -2.5071  0.4556
  937MOL0     H23647   1.777   2.634   5.477 -0.4780  0.7480 -1.4946
  937MOL0     H23648   1.368   2.590   5.502 -1.6074  1.8335  1.1616
  937MOL0     H23649   1.151   2.501   5.563 -0.6562  1.6651  0.8300
  937MOL0     H23650   1.048   2.279   5.596 -2.6295 -1.6935 -1.6679
  937MOL0     H23651   0.967   2.428   5.634  0.6133 -0.6395 -2.1019
  937MOL0     H23652   0.794   2.293   5.676 -0.1423  2.6343  0.2929
  937MOL0     H23653   0.854   2.268   5.832 -0.1615 -1.4057  0.1999
  937MOL0     H23654   0.985   2.063   5.739  2.0400 -1.2138 -2.9027
  937MOL0     H23655   0.893   2.080   5.589  0.8943 -1.8451  1.8287
  937MOL0     H23656   0.748   2.043   5.850 -1.5859 -1.7660  0.0489
  937MOL0     H23657   0.680   2.057   5.693  0.4938  0.2394 -0.3921
  937MOL0     H23658   0.902   1.869   5.799 -1.1799  1.5257  3.4519
  937MOL0     H23659   0.821   1.834   5.649  1.2558  2.6935 -0.7250
  937MOL0     H23660   0.664   1.844   5.905  0.7980  0.9214  0.8819
  937MOL0     H23661   0.737   1.696   5.848 -0.6279 -0.8995 -0.7023
  937MOL0     H23662   0.606   1.687   5.637 -1.2237 -0.1519 -0.6342
  937MOL0     H23663   0.507   1.699   5.791 -1.5027  2.8374 -0.6758
  937MOL0     H23664   0.573   1.909   5.594 -0.9042  0.2998  0.7428
  937MOL0     H23665   0.480   1.914   5.750  1.0147 -0.4471  0.9460
  937MOL0     H23666   1.306   2.382   5.943  0.3627  0.5127  0.5153
  937MOL0     H23667   1.527   2.487   5.885 -0.6516  2.4684  0.8420
  937MOL0     H23668   1.715   2.976   5.748  0.6224  1.2758 -0.1035
  937MOL0     H23669   1.928   3.072   5.671 -0.3541  1.0538 -2.8141
  937MOL0     H23670   3.120   4.042   4.237 -0.5333  1.9385 -0.6346
  937MOL0     H23671   3.299   4.200   4.255  0.2496  2.2986  0.9048
  937MOL0     H23672   3.431   4.675   4.327  0.2157 -1.2789 -0.6571
  937MOL0     H23673   3.606   4.837   4.382 -0.8447  0.0871  0.3764
  937MOL0     H23674   3.806   4.918   4.658  2.5925  2.0057 -0.3788
  937MOL0     H23675   3.762   4.930   4.490 -0.6746  1.7441  2.4669
  937MOL0     H23676   4.015   4.930   4.425 -3.4354  1.2652 -1.5253
  937MOL0     H23677   3.965   5.062   4.507 -0.5743  0.4066  4.4334
  937MOL0     H23678   4.064   4.841   4.684  1.1896  1.4754  3.0791
  937MOL0     H23679   4.082   5.022   4.696  2.6058 -1.0356  1.2170
  937MOL0     H23680   4.299   4.908   4.641  2.7929  0.6377 -2.4196
  937MOL0     H23681   4.241   4.844   4.499  2.1512 -0.5704  1.6475
  937MOL0     H23682   4.330   5.241   4.385  0.0863 -2.0985 -3.9674
  937MOL0     H23683   3.811   4.513   4.591 -0.4242 -0.1608  0.0899
  937MOL0     H23684   3.626   4.378   4.578  2.0780  1.5674  1.9812
  938MOL0     O23685   9.177   8.416   6.356 -0.3013  0.2273  0.3013
  938MOL0     C23686   9.229   8.489   6.441  0.1614  0.1475  0.3431
  938MOL0     O23687   9.181   8.600   6.494 -0.5109  0.5061  0.3081
  938MOL0     C23688   9.059   8.632   6.459  0.1855  0.7925  0.1702
  938MOL0     C23689   8.957   8.568   6.529 -0.0679 -0.5519  0.6584
  938MOL0     C23690   8.824   8.613   6.496 -0.4775 -0.3189  0.2664
  938MOL0     C23691   8.796   8.711   6.398  0.5978  0.2072 -0.4333
  938MOL0     O23692   8.664   8.768   6.374 -0.3319 -0.5918 -0.5786
  938MOL0     C23693   8.554   8.704   6.436 -0.1002 -0.1030 -0.3839
  938MOL0     C23694   8.445   8.798   6.384  0.6742 -0.1425  0.0382
  938MOL0     C23695   8.304   8.732   6.407 -0.1019  0.3727 -0.4819
  938MOL0     C23696   8.287   8.651   6.531  0.0502  0.2218  0.6128
  938MOL0     C23697   8.145   8.574   6.525 -0.4377 -0.0899 -0.2402
  938MOL0     C23698   8.024   8.668   6.517 -0.4461  0.2842 -1.0080
  938MOL0     C23699   7.900   8.593   6.517  0.3902  0.2573  0.2462
  938MOL0     C23700   7.856   8.503   6.389  0.1989 -0.2317  0.2459
  938MOL0     N23701   7.713   8.469   6.399 -0.0511 -0.2692 -0.3631
  938MOL0     C23702   7.678   8.364   6.486 -0.6578 -0.9579 -0.5740
  938MOL0     C23703   7.546   8.396   6.513  0.1213  0.4467  0.2234
  938MOL0     C23704   7.457   8.309   6.606  0.0481  0.7254 -0.4216
  938MOL0     C23705   7.472   8.154   6.551  0.8992 -0.2175 -1.2937
  938MOL0     C23706   7.461   8.054   6.666 -0.0365 -0.5343 -0.1953
  938MOL0     C23707   7.334   8.068   6.748  0.2030 -0.0628 -0.0447
  938MOL0     O23708   7.216   8.034   6.673 -0.5514  0.5084 -0.3861
  938MOL0     C23709   7.095   8.085   6.704 -0.3807 -0.4079  0.3487
  938MOL0     C23710   7.051   8.080   6.834  0.1008 -0.3997 -0.0486
  938MOL0     C23711   6.913   8.109   6.864 -0.2048  0.3498  0.4090
  938MOL0     C23712   6.819   8.139   6.758 -0.2052 -0.3342 -0.6643
  938MOL0     C23713   6.683   8.171   6.785  0.0234 -0.2717 -0.0643
  938MOL0     O23714   6.628   8.252   6.692  0.8802 -0.0636 -0.7546
  938MOL0     C23715   6.494   8.274   6.697  0.4784 -0.7203 -0.1700
  938MOL0     C23716   6.424   8.361   6.790 -0.5538 -0.1519  0.7619
  938MOL0     C23717   6.284   8.376   6.775 -0.6065 -0.1614 -0.7511
  938MOL0     C23718   6.219   8.340   6.661 -0.5204  0.7159 -0.9195
  938MOL0     O23719   6.090   8.372   6.641 -0.2651 -0.5883  0.1367
  938MOL0     C23720   6.016   8.453   6.742  0.9684 -0.2458  0.1121
  938MOL0     C23721   5.873   8.485   6.693  0.8904 -0.2911  0.1596
  938MOL0     C23722   5.780   8.556   6.794 -0.1666 -0.0508  0.2870
  938MOL0     C23723   5.640   8.596   6.730  0.0817  0.2513 -0.0225
  938MOL0     C23724   5.528   8.641   6.835  0.0643 -0.4437 -0.8704
  938MOL0     C23725   5.406   8.703   6.765 -0.0090  0.1762  0.8565
  938MOL0     C23726   5.274   8.681   6.839  1.0175 -0.1739 -0.0052
  938MOL0     C23727   5.150   8.674   6.747  0.2449  0.5447 -0.7631
  938MOL0    Cl23728   5.113   8.830   6.674 -0.2813 -0.5003  0.5159
  938MOL0     C23729   6.282   8.254   6.574  0.7210 -0.5950  0.0661
  938MOL0     C23730   6.416   8.223   6.586  0.1621  0.6769 -0.5781
  938MOL0     O23731   6.629   8.113   6.880  0.2638 -0.2631  0.5228
  938MOL0     C23732   6.874   8.139   6.625  0.5407 -0.7961 -0.3333
  938MOL0     C23733   7.004   8.109   6.602 -1.0138  0.5879 -0.3601
  938MOL0     N23734   7.511   8.505   6.436  0.7683 -0.2917  0.2591
  938MOL0     N23735   7.606   8.542   6.360  0.1448 -0.3650 -0.1742
  938MOL0     C23736   8.905   8.779   6.341  0.9608 -0.2763  0.7366
  938MOL0     C23737   9.034   8.739   6.372 -0.0710 -0.5826 -0.3053
  938MOL0     C23738   9.370   8.452   6.468  0.1756 -0.2404 -1.0273
  938MOL0     C23739   9.438   8.495   6.590 -1.0184 -0.1101  0.1261
  938MOL0     C23740   9.581   8.485   6.595 -0.3194  0.0528 -1.2850
  938MOL0     C23741   9.658   8.436   6.490 -0.5462  0.1048  0.7442
  938MOL0     O23742   9.790   8.455   6.473 -0.8952  0.2341  0.6167
  938MOL0     C23743   9.867   8.516   6.583 -0.7868 -0.6076 -0.2172
  938MOL0     C23744  10.011   8.544   6.527  0.0361 -0.7843  0.1396
  938MOL0     C23745  10.092   8.605   6.638 -0.3891  0.3320  0.4402
  938MOL0     C23746  10.230   8.656   6.598 -0.6950 -0.6648  0.4610
  938MOL0     C23747  10.228   8.794   6.537  0.0937  0.5707  0.0260
  938MOL0     C23748  10.243   8.906   6.486 -0.6868  0.5093  0.0054
  938MOL0     C23749   9.590   8.384   6.373  0.3280  0.7437 -0.2614
  938MOL0     C23750   9.448   8.389   6.364  0.6403  0.0431 -0.7869
  938MOL0     H23751   8.980   8.496   6.607  0.7555  0.0642  1.0008
  938MOL0     H23752   8.746   8.558   6.548  1.5522 -2.9035  0.7742
  938MOL0     H23753   8.557   8.706   6.545 -0.9176  0.2138 -0.3613
  938MOL0     H23754   8.544   8.601   6.400  0.7766 -0.1801 -0.4265
  938MOL0     H23755   8.453   8.818   6.277  0.5382 -2.2166 -0.4034
  938MOL0     H23756   8.433   8.885   6.450 -1.8896 -0.2483 -0.1942
  938MOL0     H23757   8.287   8.659   6.327  3.0126 -0.7650 -0.2480
  938MOL0     H23758   8.227   8.808   6.417 -1.5619 -1.1598  0.5395
  938MOL0     H23759   8.370   8.583   6.552  2.1469  2.6728  0.6778
  938MOL0     H23760   8.275   8.716   6.617  0.1785 -1.2344  1.7678
  938MOL0     H23761   8.135   8.516   6.617  0.3305  0.6654  0.3398
  938MOL0     H23762   8.156   8.506   6.441  2.7169 -1.0317  0.7855
  938MOL0     H23763   8.026   8.719   6.420  1.6386 -2.9316 -2.8321
  938MOL0     H23764   8.025   8.744   6.596 -1.9927  0.4452 -1.1131
  938MOL0     H23765   7.897   8.528   6.605 -1.0348 -1.2453 -0.8488
  938MOL0     H23766   7.820   8.665   6.536  0.5125  0.4692 -0.0275
  938MOL0     H23767   7.909   8.407   6.388  1.0578  0.2196 -1.8337
  938MOL0     H23768   7.876   8.546   6.291  0.5444 -1.1213 -0.0876
  938MOL0     H23769   7.748   8.288   6.521  1.0773  1.1498  0.7958
  938MOL0     H23770   7.350   8.334   6.604 -0.5484 -1.5460  0.2511
  938MOL0     H23771   7.490   8.323   6.709 -2.9466  0.5360  0.6598
  938MOL0     H23772   7.569   8.129   6.509  1.1094 -1.3044 -0.2143
  938MOL0     H23773   7.391   8.125   6.483 -0.6450 -0.1127  0.3989
  938MOL0     H23774   7.460   7.959   6.611  3.3717 -1.3722  0.9642
  938MOL0     H23775   7.546   8.058   6.734  2.3569  0.9988 -3.0328
  938MOL0     H23776   7.335   8.174   6.775  2.2583  0.3415 -1.4515
  938MOL0     H23777   7.330   8.011   6.841 -4.1673 -0.7137 -0.4243
  938MOL0     H23778   7.122   8.052   6.910  1.5235  1.6236 -0.5353
  938MOL0     H23779   6.882   8.101   6.967  3.5532  2.1762  1.8685
  938MOL0     H23780   6.486   8.415   6.860 -0.7381 -0.8624  1.4924
  938MOL0     H23781   6.241   8.445   6.847  0.7001 -1.0190  0.9336
  938MOL0     H23782   6.062   8.546   6.776 -1.5311  1.3974 -0.6696
  938MOL0     H23783   6.016   8.390   6.832  1.5120  1.3534  1.2616
  938MOL0     H23784   5.836   8.389   6.656 -0.7624 -0.2897  1.6585
  938MOL0     H23785   5.888   8.554   6.609  0.3189  0.1176  0.3918
  938MOL0     H23786   5.822   8.649   6.833  0.3684  1.7735 -4.1477
  938MOL0     H23787   5.753   8.482   6.870 -2.0183 -0.4664 -0.7007
  938MOL0     H23788   5.653   8.678   6.658  0.4270 -0.2239 -0.5117
  938MOL0     H23789   5.595   8.516   6.671  0.7895  1.1077 -1.7999
  938MOL0     H23790   5.554   8.707   6.918  0.7782 -0.2610 -1.2327
  938MOL0     H23791   5.487   8.550   6.879  0.0689  0.1013  0.2979
  938MOL0     H23792   5.397   8.653   6.668 -1.5295 -2.8284  2.4017
  938MOL0     H23793   5.421   8.809   6.745 -0.2944  0.9961  4.3654
  938MOL0     H23794   5.283   8.592   6.901  0.3002  0.2588  0.7336
  938MOL0     H23795   5.249   8.761   6.909 -1.7637  0.8965 -1.9912
  938MOL0     H23796   5.065   8.643   6.810  2.2892 -0.4351  1.6699
  938MOL0     H23797   5.162   8.602   6.665 -0.5642  2.5150 -2.7251
  938MOL0     H23798   6.228   8.235   6.482 -3.2371 -1.4624  2.3234
  938MOL0     H23799   6.452   8.169   6.498 -1.3644 -0.8613 -0.3129
  938MOL0     H23800   6.798   8.154   6.549 -1.6045  0.9197  1.9675
  938MOL0     H23801   7.035   8.108   6.498 -0.8739  1.0295 -0.3246
  938MOL0     H23802   8.880   8.861   6.274  2.0839  0.3679  1.0760
  938MOL0     H23803   9.111   8.789   6.314 -0.4624 -1.2787 -1.4589
  938MOL0     H23804   9.375   8.532   6.670 -1.4227 -0.7703  0.1170
  938MOL0     H23805   9.637   8.514   6.683  1.8734 -0.0902 -2.5396
  938MOL0     H23806   9.879   8.441   6.662  0.5752 -0.6171 -0.4016
  938MOL0     H23807   9.823   8.609   6.621  2.6312  1.7244 -1.4610
  938MOL0     H23808  10.048   8.449   6.486 -1.5798 -2.4708  2.4014
  938MOL0     H23809  10.008   8.620   6.448 -1.2531 -1.8373 -0.8555
  938MOL0     H23810  10.105   8.533   6.719  0.5119  0.7522  0.6909
  938MOL0     H23811  10.038   8.690   6.682  0.3820 -0.2331  2.6285
  938MOL0     H23812  10.291   8.654   6.689  1.6386  0.3599 -0.9811
  938MOL0     H23813  10.275   8.593   6.520 -1.2319  1.1237 -1.3969
  938MOL0     H23814  10.255   8.996   6.430 -0.1147  0.1639 -0.4252
  938MOL0     H23815   9.651   8.348   6.290  2.1864 -1.1577  1.7793
  938MOL0     H23816   9.403   8.360   6.270 -0.0527  1.4312 -0.9156
  939MOL0     O23817   2.895   1.546   6.738 -0.6104  0.2357  0.3088
  939MOL0     C23818   2.938   1.663   6.724  0.0915  0.3927  0.0721
  939MOL0     O23819   2.969   1.745   6.830  0.5969 -0.4084 -0.1626
  939MOL0     C23820   2.953   1.708   6.959 -0.3255  0.3528 -0.3255
  939MOL0     C23821   2.836   1.643   7.013  0.1717 -0.0512  0.1634
  939MOL0     C23822   2.836   1.612   7.148 -0.0191  0.3283 -0.5343
  939MOL0     C23823   2.944   1.640   7.236  0.3519 -0.7196 -0.1531
  939MOL0     O23824   2.944   1.605   7.367  0.0155  0.6557 -0.4793
  939MOL0     C23825   2.973   1.700   7.469 -0.6863 -0.1949 -0.5656
  939MOL0     C23826   2.881   1.677   7.578 -0.1585 -0.2149 -0.5735
  939MOL0     C23827   2.733   1.708   7.536 -0.3067 -0.0343 -0.4427
  939MOL0     C23828   2.638   1.673   7.651  0.5067  0.3015 -0.6166
  939MOL0     C23829   2.496   1.727   7.622  0.0278  0.0174  0.1313
  939MOL0     C23830   2.401   1.675   7.728  0.4283 -0.0410  0.1265
  939MOL0     C23831   2.253   1.705   7.693 -0.4813  0.5666  0.7311
  939MOL0     C23832   2.192   1.593   7.613  0.4511  0.6421 -0.7726
  939MOL0     N23833   2.046   1.616   7.581  0.3595  0.3242  1.1436
  939MOL0     C23834   2.010   1.715   7.491  0.7897 -0.0240 -1.0078
  939MOL0     C23835   1.873   1.704   7.494 -0.9830  0.5243 -0.9152
  939MOL0     C23836   1.782   1.803   7.428 -0.2419 -0.1655  0.7484
  939MOL0     C23837   1.726   1.744   7.306  0.7659 -0.0784  0.0239
  939MOL0     C23838   1.629   1.854   7.251 -1.2619  0.8597 -0.6651
  939MOL0     C23839   1.570   1.823   7.112  0.1330  0.3352 -0.7884
  939MOL0     O23840   1.662   1.847   7.002  0.5977  0.3442 -0.1500
  939MOL0     C23841   1.608   1.813   6.882  0.5592 -0.3650  0.5660
  939MOL0     C23842   1.693   1.848   6.776  0.4140 -0.5448 -0.0144
  939MOL0     C23843   1.653   1.817   6.645 -0.3985  0.4306 -0.2812
  939MOL0     C23844   1.527   1.752   6.621 -0.4023  0.2967  1.3243
  939MOL0     C23845   1.484   1.746   6.474  0.0293  0.3403  0.0685
  939MOL0     O23846   1.587   1.745   6.384  0.0435 -0.0079  0.6012
  939MOL0     C23847   1.579   1.736   6.249  0.0289  0.1485 -0.2822
  939MOL0     C23848   1.701   1.717   6.192  0.1769  0.7074  0.6489
  939MOL0     C23849   1.711   1.726   6.046 -0.3255 -0.5508  0.0097
  939MOL0     C23850   1.593   1.730   5.969  0.8133 -0.7297  0.3649
  939MOL0     O23851   1.591   1.735   5.833 -0.2768  0.0875 -0.4511
  939MOL0     C23852   1.706   1.701   5.758  0.0260 -0.0490 -0.0314
  939MOL0     C23853   1.684   1.707   5.605  0.6691 -0.0959  0.6986
  939MOL0     C23854   1.642   1.843   5.543  0.0930 -0.1541  0.5224
  939MOL0     C23855   1.621   1.827   5.392 -0.7065  0.0143 -0.2153
  939MOL0     C23856   1.590   1.966   5.336 -0.5240 -0.3928  0.1552
  939MOL0     C23857   1.572   1.969   5.184  0.7223  0.1341  0.5558
  939MOL0     C23858   1.545   2.118   5.149  1.1829 -0.8463  0.1424
  939MOL0     C23859   1.651   2.187   5.074 -1.0146  0.6866 -0.9386
  939MOL0    Cl23860   1.817   2.185   5.144 -0.3594 -0.3000 -0.4116
  939MOL0     C23861   1.473   1.743   6.037  0.5002  0.3897 -0.4061
  939MOL0     C23862   1.464   1.751   6.169 -0.5719 -0.2281 -0.2844
  939MOL0     O23863   1.368   1.736   6.449 -0.0041 -0.8249  0.6691
  939MOL0     C23864   1.444   1.711   6.721 -0.3597  0.9983 -0.4558
  939MOL0     C23865   1.483   1.740   6.850 -0.0851  0.3808 -0.5195
  939MOL0     N23866   1.835   1.595   7.573  0.1353 -0.1623 -0.0645
  939MOL0     N23867   1.946   1.544   7.626 -0.6549  0.3086  0.4618
  939MOL0     C23868   3.049   1.715   7.185 -0.1154  0.7355  0.0774
  939MOL0     C23869   3.052   1.745   7.044  0.4262  1.1169 -1.5149
  939MOL0     C23870   2.966   1.725   6.593  0.0621 -0.7335 -0.2011
  939MOL0     C23871   3.007   1.867   6.577 -0.0550 -0.7407 -0.0756
  939MOL0     C23872   3.039   1.917   6.447  0.2054  0.0772 -0.1091
  939MOL0     C23873   3.017   1.832   6.334 -1.1279 -0.1337  0.2614
  939MOL0     O23874   3.041   1.879   6.208  0.0035 -0.4728 -0.3492
  939MOL0     C23875   2.935   1.870   6.115  0.1752 -0.0850  1.3076
  939MOL0     C23876   2.966   1.877   5.969  0.0921  0.0856 -0.3890
  939MOL0     C23877   3.051   1.751   5.927 -0.3920 -0.3558  0.0466
  939MOL0     C23878   3.120   1.768   5.795  0.0273  0.3469  0.3631
  939MOL0     C23879   3.026   1.813   5.694  0.1394  0.6632  0.8541
  939MOL0     C23880   2.935   1.846   5.618 -0.2900 -0.2793 -1.1954
  939MOL0     C23881   2.975   1.704   6.354  0.6182 -0.0064  1.0253
  939MOL0     C23882   2.959   1.648   6.483 -0.0438 -0.2808  0.2712
  939MOL0     H23883   2.739   1.620   6.969 -1.2451  0.6493  2.6994
  939MOL0     H23884   2.744   1.567   7.184 -1.1541  0.8332 -2.6168
  939MOL0     H23885   2.965   1.799   7.424 -2.4711 -0.0656 -0.0502
  939MOL0     H23886   3.071   1.685   7.516 -1.3476 -0.8811  0.6648
  939MOL0     H23887   2.908   1.732   7.668 -1.7783 -0.7370  0.2643
  939MOL0     H23888   2.880   1.577   7.622 -1.8444 -0.7299 -1.6712
  939MOL0     H23889   2.711   1.650   7.446  1.7714 -1.7387  0.0377
  939MOL0     H23890   2.728   1.814   7.511 -2.6647 -0.2439 -1.0597
  939MOL0     H23891   2.621   1.566   7.667 -2.5832  0.4422 -2.2593
  939MOL0     H23892   2.681   1.714   7.743  1.1700  0.6875 -1.0911
  939MOL0     H23893   2.471   1.679   7.527  2.4357 -2.5239  0.6516
  939MOL0     H23894   2.495   1.836   7.617 -0.2549  0.1005  1.5683
  939MOL0     H23895   2.429   1.723   7.822 -2.9838  0.8413  0.8215
  939MOL0     H23896   2.407   1.567   7.744 -1.0835 -0.1511  0.1019
  939MOL0     H23897   2.192   1.710   7.784 -4.0306 -0.7317 -1.3917
  939MOL0     H23898   2.244   1.799   7.638  4.6614  0.1148 -1.4560
  939MOL0     H23899   2.196   1.502   7.673  0.5218 -2.7861 -5.4546
  939MOL0     H23900   2.250   1.575   7.523  0.1663 -1.7645 -0.5494
  939MOL0     H23901   2.073   1.785   7.438 -0.1430  2.0991  0.5281
  939MOL0     H23902   1.839   1.895   7.410 -1.0528  0.3527  0.7681
  939MOL0     H23903   1.700   1.828   7.497  1.3926  2.3316  1.9679
  939MOL0     H23904   1.672   1.651   7.321 -3.4730  1.8446 -1.5802
  939MOL0     H23905   1.799   1.729   7.226 -3.0576 -3.5995 -3.2847
  939MOL0     H23906   1.540   1.844   7.314 -2.4727  3.5873 -1.7473
  939MOL0     H23907   1.673   1.954   7.237 -0.4108  0.3963 -1.4247
  939MOL0     H23908   1.485   1.890   7.099 -2.2573 -2.1112  1.0271
  939MOL0     H23909   1.522   1.724   7.109  0.3453  0.2439 -1.3939
  939MOL0     H23910   1.787   1.889   6.812  0.4433 -1.2253  0.6975
  939MOL0     H23911   1.719   1.832   6.560  1.2358 -1.2284  0.6045
  939MOL0     H23912   1.791   1.708   6.252  0.9591  0.3109 -0.5387
  939MOL0     H23913   1.812   1.736   6.009 -1.0776 -1.5888 -2.4929
  939MOL0     H23914   1.718   1.597   5.790  0.5840 -0.3623 -1.2189
  939MOL0     H23915   1.797   1.760   5.777  0.1999 -0.7910  1.6399
  939MOL0     H23916   1.610   1.638   5.564  1.5664  0.0439 -1.2885
  939MOL0     H23917   1.781   1.674   5.566  0.5348  1.0463 -0.6894
  939MOL0     H23918   1.715   1.924   5.558 -1.6838  1.5174  0.5174
  939MOL0     H23919   1.551   1.867   5.597 -1.6899 -1.9967 -1.4442
  939MOL0     H23920   1.719   1.796   5.355  1.3259  3.1799  2.0755
  939MOL0     H23921   1.544   1.753   5.367 -0.2365 -1.1024  1.4880
  939MOL0     H23922   1.671   2.035   5.363 -2.4244  1.4144  1.5416
  939MOL0     H23923   1.501   2.010   5.381  0.5439  2.5105 -0.3618
  939MOL0     H23924   1.484   1.914   5.150  0.2847  0.5828  0.9574
  939MOL0     H23925   1.656   1.928   5.127  0.0770  1.0024 -1.0963
  939MOL0     H23926   1.451   2.128   5.095  1.4437  0.9302 -0.0258
  939MOL0     H23927   1.513   2.170   5.240 -1.2650 -1.7679 -0.1278
  939MOL0     H23928   1.630   2.291   5.046  1.3834  1.6745  0.6331
  939MOL0     H23929   1.659   2.127   4.982  0.1785 -1.7380  0.6436
  939MOL0     H23930   1.383   1.744   5.977 -2.0219 -0.3654  3.0917
  939MOL0     H23931   1.370   1.764   6.221 -0.5354 -2.3661  0.4054
  939MOL0     H23932   1.346   1.665   6.709  0.7422 -2.2245  1.5409
  939MOL0     H23933   1.425   1.704   6.934  3.7516  0.2560  2.3951
  939MOL0     H23934   3.138   1.743   7.241 -0.5868 -1.2321  1.9405
  939MOL0     H23935   3.135   1.803   7.006 -0.5675  3.6763  0.0066
  939MOL0     H23936   2.999   1.931   6.664  2.8958  1.3291 -1.1529
  939MOL0     H23937   3.066   2.021   6.435 -1.5194  0.5098 -0.4105
  939MOL0     H23938   2.874   1.961   6.125 -0.1658  0.7054 -4.5140
  939MOL0     H23939   2.865   1.789   6.138  0.2598  0.1822  2.6314
  939MOL0     H23940   2.872   1.890   5.914  0.1963  5.6114  0.1964
  939MOL0     H23941   3.032   1.963   5.957  0.2448  0.5567  2.8694
  939MOL0     H23942   2.990   1.660   5.933  0.2198 -0.7361  0.5794
  939MOL0     H23943   3.128   1.737   6.003  0.6304 -0.4402 -0.9885
  939MOL0     H23944   3.202   1.839   5.810  0.4796 -0.6511  3.2681
  939MOL0     H23945   3.150   1.674   5.748  3.6306  1.7683 -0.5154
  939MOL0     H23946   2.846   1.862   5.561 -1.3613 -4.5341 -1.0549
  939MOL0     H23947   2.969   1.630   6.274 -3.0848 -0.1970  1.2749
  939MOL0     H23948   2.930   1.543   6.487 -1.7210  0.1983  2.0440
  940MOL0     O23949   5.030   9.903   7.220  0.3172  0.3932 -0.0485
  940MOL0     C23950   5.045   9.974   7.126  0.5665  0.0423 -0.0472
  940MOL0     O23951   4.946  10.013   7.041 -0.4551  0.0236  0.1312
  940MOL0     C23952   4.817   9.992   7.092  0.0478  0.6927 -0.1262
  940MOL0     C23953   4.758  10.090   7.179 -0.3071 -0.0069  0.3510
  940MOL0     C23954   4.622  10.079   7.209 -0.0974 -0.0023  0.3422
  940MOL0     C23955   4.543   9.965   7.177  0.0347 -0.6081 -0.2891
  940MOL0     O23956   4.403   9.951   7.196 -0.7370 -0.4082  0.4570
  940MOL0     C23957   4.351  10.021   7.307  0.4357 -0.5234  0.0703
  940MOL0     C23958   4.216   9.978   7.341  0.8069 -0.3217 -0.6408
  940MOL0     C23959   4.200   9.844   7.407 -1.0762  0.1197 -0.2906
  940MOL0     C23960   4.050   9.818   7.441  0.2076 -0.4395  0.6536
  940MOL0     C23961   4.011   9.692   7.511  0.3023  0.8868  0.0969
  940MOL0     C23962   4.056   9.679   7.650 -0.7414  0.4409  0.0783
  940MOL0     C23963   3.976   9.569   7.718 -0.3764 -0.3104  0.1218
  940MOL0     C23964   4.056   9.501   7.838 -0.0763  0.0311  0.3024
  940MOL0     N23965   4.077   9.599   7.942  0.0083 -0.3191 -0.6452
  940MOL0     C23966   3.984   9.673   8.007 -0.1186 -0.5381  0.0699
  940MOL0     C23967   4.057   9.755   8.085  0.6386  0.1643 -0.0983
  940MOL0     C23968   3.996   9.869   8.152  0.2667  0.1176  0.2654
  940MOL0     C23969   3.914   9.839   8.286  0.3653 -0.1506  0.4292
  940MOL0     C23970   3.999   9.739   8.366 -0.3075 -0.4318  0.8824
  940MOL0     C23971   3.945   9.689   8.493  0.4552 -0.0664 -0.0482
  940MOL0     O23972   3.805   9.643   8.484  0.3310  0.3861  0.2396
  940MOL0     C23973   3.707   9.722   8.559 -0.1684 -1.0227  0.5278
  940MOL0     C23974   3.596   9.649   8.599  0.2751 -0.4826 -0.1248
  940MOL0     C23975   3.494   9.705   8.685  0.6239  0.8963 -0.9159
  940MOL0     C23976   3.514   9.837   8.726 -0.0933  0.5069  0.1022
  940MOL0     C23977   3.412   9.894   8.808 -0.8236  0.1806 -0.3952
  940MOL0     O23978   3.280   9.855   8.801  1.0332  0.1280 -0.1778
  940MOL0     C23979   3.184   9.919   8.877  0.6183 -0.6686 -0.1681
  940MOL0     C23980   3.073   9.845   8.890  0.6903  0.2431 -0.2010
  940MOL0     C23981   2.969   9.884   8.973 -0.2024 -0.8505 -0.1615
  940MOL0     C23982   2.969  10.011   9.040 -0.9603 -0.6805  0.6584
  940MOL0     O23983   2.869  10.058   9.125 -0.2800  0.1051 -0.6852
  940MOL0     C23984   2.760   9.976   9.155  0.8819 -1.2009  0.6029
  940MOL0     C23985   2.654   9.958   9.037  0.6027  1.1145 -0.4970
  940MOL0     C23986   2.574  10.078   8.999  0.8074  0.6906 -0.6568
  940MOL0     C23987   2.438  10.086   9.079 -0.7119 -0.8135 -0.9508
  940MOL0     C23988   2.337   9.964   9.047 -0.1013 -0.3462 -0.0498
  940MOL0     C23989   2.233   9.996   8.941 -0.0135 -1.1972  0.2522
  940MOL0     C23990   2.131  10.093   9.000 -0.0695 -0.0943  0.6928
  940MOL0     C23991   2.073  10.192   8.886  0.1426  0.8071 -1.4582
  940MOL0    Cl23992   1.927  10.111   8.824  0.0780 -0.2005  0.4249
  940MOL0     C23993   3.080  10.092   9.012 -0.3150 -0.1666  0.4124
  940MOL0     C23994   3.188  10.040   8.938 -1.2898  0.0907 -0.3232
  940MOL0     O23995   3.463   9.960   8.902  0.2248 -0.3358 -0.6579
  940MOL0     C23996   3.625   9.918   8.688 -0.0546  0.1929  0.3837
  940MOL0     C23997   3.720   9.857   8.601  0.0952 -0.0869 -0.5272
  940MOL0     N23998   4.194   9.725   8.069 -0.4396 -0.0755  0.3009
  940MOL0     N23999   4.208   9.630   7.990  0.1723  0.0722 -0.8701
  940MOL0     C24000   4.608   9.866   7.106  0.1357  0.0248 -0.3857
  940MOL0     C24001   4.743   9.878   7.064  0.6308  0.4775  0.8343
  940MOL0     C24002   5.182  10.030   7.098 -0.3560  0.4122  0.3683
  940MOL0     C24003   5.208  10.093   6.976  1.4245 -0.2511 -0.4801
  940MOL0     C24004   5.333  10.117   6.943  0.8185 -0.6592  0.8007
  940MOL0     C24005   5.440  10.087   7.018 -0.1385 -0.9170 -0.1132
  940MOL0     O24006   5.559  10.120   6.959  0.0133  0.1805 -0.3007
  940MOL0     C24007   5.670  10.175   7.032 -1.0954  0.3573 -0.4617
  940MOL0     C24008   5.751  10.089   7.134 -0.3644 -0.3844  0.4353
  940MOL0     C24009   5.795   9.958   7.067 -0.0300  0.0919  0.3658
  940MOL0     C24010   5.826   9.846   7.169  0.2690  0.2389 -0.5521
  940MOL0     C24011   5.715   9.795   7.249 -0.0179 -0.4596 -0.0513
  940MOL0     C24012   5.639   9.751   7.334 -0.4617  0.3385 -0.6081
  940MOL0     C24013   5.422  10.047   7.146  0.1461  0.1892 -0.6981
  940MOL0     C24014   5.291  10.027   7.189 -0.2128  0.2799  0.9094
  940MOL0     H24015   4.815  10.180   7.199 -1.5568  0.9486 -0.2105
  940MOL0     H24016   4.580  10.160   7.268  0.3719 -0.5864  1.4935
  940MOL0     H24017   4.336  10.127   7.286  1.2223 -0.3512  0.3296
  940MOL0     H24018   4.410  10.007   7.399 -0.2632  0.7236  0.7381
  940MOL0     H24019   4.156   9.974   7.250 -1.7803  1.6451  0.8571
  940MOL0     H24020   4.170  10.058   7.398  2.1113  1.2975 -1.7351
  940MOL0     H24021   4.258   9.845   7.500 -1.0533  2.2159 -0.2702
  940MOL0     H24022   4.244   9.756   7.360  0.2033 -0.8766  2.5524
  940MOL0     H24023   4.002   9.907   7.481  1.1196 -0.3912  1.6904
  940MOL0     H24024   4.008   9.798   7.342  0.7270  2.8254 -0.3209
  940MOL0     H24025   4.062   9.610   7.459 -1.6507 -0.5364  0.3414
  940MOL0     H24026   3.904   9.670   7.511  0.5723 -0.5940 -1.3938
  940MOL0     H24027   4.042   9.771   7.709  3.6326 -0.0533  2.2767
  940MOL0     H24028   4.163   9.662   7.644 -0.8728 -0.0666 -1.1136
  940MOL0     H24029   3.880   9.605   7.755  0.9492  0.3786  3.1608
  940MOL0     H24030   3.965   9.497   7.637 -0.6391 -1.6404  1.3153
  940MOL0     H24031   4.153   9.461   7.808  0.5771  0.8211  1.3144
  940MOL0     H24032   4.001   9.413   7.874 -2.1698  1.5675  1.0585
  940MOL0     H24033   3.880   9.678   7.980  0.7286  1.3419 -3.4975
  940MOL0     H24034   3.918   9.910   8.087 -0.7508 -0.4159  1.1227
  940MOL0     H24035   4.069   9.948   8.171  0.0186  0.9951 -2.0899
  940MOL0     H24036   3.814   9.806   8.259 -0.1886 -0.1658  2.3784
  940MOL0     H24037   3.903   9.936   8.336  0.7545 -0.3583  0.9151
  940MOL0     H24038   4.015   9.654   8.299 -0.1012  2.1233 -2.5614
  940MOL0     H24039   4.098   9.784   8.381  0.0354 -1.0392  0.5073
  940MOL0     H24040   3.963   9.754   8.579  0.8293  1.0461 -0.9461
  940MOL0     H24041   4.002   9.596   8.505 -1.2409 -0.9603  1.6926
  940MOL0     H24042   3.592   9.549   8.557  0.7959 -0.4016 -0.3702
  940MOL0     H24043   3.400   9.654   8.700 -2.1077  4.8578 -2.7154
  940MOL0     H24044   3.069   9.746   8.844 -2.3824 -0.5213  1.4384
  940MOL0     H24045   2.893   9.809   8.994  0.5995 -0.9565  2.9674
  940MOL0     H24046   2.709  10.030   9.235  1.0988  0.3296 -0.2485
  940MOL0     H24047   2.801   9.887   9.204  0.8717 -2.3256 -1.3274
  940MOL0     H24048   2.589   9.875   9.067  2.1821  0.5091  1.5247
  940MOL0     H24049   2.693   9.916   8.944 -1.7797  0.2902 -1.2157
  940MOL0     H24050   2.563  10.072   8.890  0.6989 -0.3766 -0.5992
  940MOL0     H24051   2.641  10.162   9.019  2.5197 -0.1556 -2.4473
  940MOL0     H24052   2.458  10.080   9.186 -1.4656  0.0129 -0.7466
  940MOL0     H24053   2.389  10.184   9.075 -1.8532 -1.3650 -0.7972
  940MOL0     H24054   2.283   9.952   9.141 -0.1306 -0.2499 -0.0535
  940MOL0     H24055   2.384   9.868   9.025 -1.3909 -1.3553  1.4267
  940MOL0     H24056   2.177   9.904   8.919 -0.4173 -0.5913 -1.4363
  940MOL0     H24057   2.278  10.022   8.844 -3.4510 -1.0415 -1.4447
  940MOL0     H24058   2.059  10.044   9.066  1.5985 -0.4092  2.3582
  940MOL0     H24059   2.182  10.168   9.062 -0.4408  0.6219  0.1512
  940MOL0     H24060   2.150  10.210   8.810  2.8705 -0.7429  0.7243
  940MOL0     H24061   2.047  10.287   8.935  1.0178  1.6326 -2.5324
  940MOL0     H24062   3.068  10.196   9.039  1.7116  1.1566 -3.1399
  940MOL0     H24063   3.280  10.098   8.929  0.2072 -2.3670 -2.1233
  940MOL0     H24064   3.623  10.017   8.732 -0.4287 -0.5743  2.1741
  940MOL0     H24065   3.812   9.914   8.589 -1.0729  2.6667  2.1901
  940MOL0     H24066   4.543   9.785   7.074  0.5273 -0.5389  0.2374
  940MOL0     H24067   4.792   9.793   7.017  2.3511  1.2630  1.1516
  940MOL0     H24068   5.130  10.107   6.902 -0.2194 -4.2004  0.2265
  940MOL0     H24069   5.352  10.152   6.842  1.3617 -0.9939  0.7850
  940MOL0     H24070   5.640  10.269   7.078  1.4203  2.7240 -3.2852
  940MOL0     H24071   5.752  10.200   6.964  1.0665  4.2981  3.0467
  940MOL0     H24072   5.831  10.150   7.179 -2.4716  4.5285 -1.7486
  940MOL0     H24073   5.689  10.056   7.218  1.5394 -2.0440  1.2658
  940MOL0     H24074   5.887   9.976   7.010  0.1412 -1.6310  0.0306
  940MOL0     H24075   5.714   9.918   7.005  1.5401 -2.1257 -0.3940
  940MOL0     H24076   5.866   9.758   7.118  0.5872  1.3043 -2.2311
  940MOL0     H24077   5.897   9.888   7.242  0.0894  1.4288 -1.0378
  940MOL0     H24078   5.565   9.715   7.403  1.1747  0.0318  1.0666
  940MOL0     H24079   5.494  10.009   7.218 -0.3741  1.6673  0.6731
  940MOL0     H24080   5.284  10.001   7.294  2.1562  1.2795  1.3909
  941MOL0     O24081   3.972   7.248  10.681 -0.2637 -0.2311  0.1493
  941MOL0     C24082   3.942   7.134  10.647  0.5052 -0.4009  0.3376
  941MOL0     O24083   4.034   7.033  10.650  0.2431  0.5853  0.5946
  941MOL0     C24084   4.157   7.054  10.711  0.4457  0.2111 -0.0141
  941MOL0     C24085   4.249   7.146  10.667 -0.1833 -0.0003  1.0692
  941MOL0     C24086   4.366   7.171  10.734 -0.1513  1.2434  0.1798
  941MOL0     C24087   4.409   7.080  10.834 -0.5156  0.0782  0.1038
  941MOL0     O24088   4.533   7.092  10.884  0.6171 -0.6054 -0.2621
  941MOL0     C24089   4.553   7.060  11.021 -0.8823  0.1304 -0.2008
  941MOL0     C24090   4.683   7.127  11.077  0.7666 -0.1502  0.9135
  941MOL0     C24091   4.683   7.122  11.231  0.1148  0.5199 -0.4117
  941MOL0     C24092   4.796   7.201  11.275  0.1461  0.4470  0.4227
  941MOL0     C24093   4.927   7.116  11.289  0.5767  0.1670 -1.2001
  941MOL0     C24094   5.024   7.161  11.405  0.0587  0.6222  0.4639
  941MOL0     C24095   4.977   7.100  11.547 -0.5334 -0.6590  0.2158
  941MOL0     C24096   5.010   7.179  11.676  0.2175 -0.2697  0.0551
  941MOL0     N24097   4.988   7.098  11.796  0.7791  0.7089 -0.4024
  941MOL0     C24098   5.056   6.985  11.846  0.4536 -1.0266  0.0441
  941MOL0     C24099   4.996   6.955  11.959  0.6219  0.1146 -0.1888
  941MOL0     C24100   5.037   6.838  12.040 -0.4998  0.2811  0.5217
  941MOL0     C24101   4.962   6.712  11.995  0.3843  0.4680  0.2434
  941MOL0     C24102   4.818   6.722  12.037  0.7585  0.7745  0.4149
  941MOL0     C24103   4.744   6.582  12.031  0.0472  0.7710  0.2770
  941MOL0     O24104   4.616   6.581  12.088 -0.5665 -0.5647 -0.2112
  941MOL0     C24105   4.505   6.623  12.031  0.6606  0.2220  1.3440
  941MOL0     C24106   4.385   6.569  12.065 -0.2932  0.1300 -0.4458
  941MOL0     C24107   4.269   6.610  12.008  0.3380  0.3793 -0.0239
  941MOL0     C24108   4.260   6.706  11.900  0.7175  0.1453  0.1476
  941MOL0     C24109   4.129   6.763  11.843 -0.7235 -0.1009 -0.6477
  941MOL0     O24110   4.134   6.852  11.742  0.1721 -0.2109  0.0066
  941MOL0     C24111   4.021   6.907  11.698  0.2454 -0.4378 -0.6238
  941MOL0     C24112   4.002   7.030  11.756 -0.3622  0.5364 -0.0608
  941MOL0     C24113   3.889   7.097  11.713 -0.0945 -0.1248 -0.5101
  941MOL0     C24114   3.800   7.063  11.615  0.1003 -1.1668 -0.0708
  941MOL0     O24115   3.685   7.122  11.580  0.1069  0.2682  0.0783
  941MOL0     C24116   3.584   7.119  11.679  0.2093 -0.1525  0.5385
  941MOL0     C24117   3.442   7.094  11.620 -0.1793 -0.1030  0.2112
  941MOL0     C24118   3.338   7.166  11.691 -0.0634  0.4321 -0.1415
  941MOL0     C24119   3.202   7.175  11.608 -0.4749  1.0375  1.0413
  941MOL0     C24120   3.089   7.254  11.674 -0.1849  0.2502 -0.9655
  941MOL0     C24121   2.968   7.258  11.577  0.1870  0.5080 -0.1797
  941MOL0     C24122   2.873   7.369  11.635  0.7039  0.2002  0.5722
  941MOL0     C24123   2.743   7.397  11.557  0.5495  0.7760  0.4190
  941MOL0    Cl24124   2.628   7.497  11.643  0.0428 -0.3230 -0.2719
  941MOL0     C24125   3.822   6.943  11.555 -0.7182  0.5222  0.5257
  941MOL0     C24126   3.937   6.862  11.594  0.1145  0.6775  0.7791
  941MOL0     O24127   4.022   6.724  11.896 -0.6536 -1.0276  0.5791
  941MOL0     C24128   4.384   6.743  11.852 -0.2344  0.1413  0.2316
  941MOL0     C24129   4.501   6.705  11.913  0.5529 -0.5318  0.3620
  941MOL0     N24130   4.900   7.047  11.986  0.1595 -0.1881 -0.2640
  941MOL0     N24131   4.891   7.132  11.890  0.2761  0.0661  0.0766
  941MOL0     C24132   4.319   6.973  10.876  0.0636  0.0821  0.8194
  941MOL0     C24133   4.190   6.971  10.818 -0.1794  0.5364 -0.3298
  941MOL0     C24134   3.807   7.111  10.579 -0.2483 -0.6829 -0.2903
  941MOL0     C24135   3.717   7.224  10.549 -0.2960  0.8460  0.8539
  941MOL0     C24136   3.597   7.216  10.476  0.9319 -0.3125 -0.6859
  941MOL0     C24137   3.553   7.087  10.434 -0.0495  0.1001 -0.4444
  941MOL0     O24138   3.424   7.053  10.383  0.0615 -0.6415  0.1360
  941MOL0     C24139   3.336   7.165  10.342 -0.7121  0.1441 -0.5194
  941MOL0     C24140   3.191   7.124  10.345  0.9624  0.6308  0.2856
  941MOL0     C24141   3.157   6.995  10.263 -0.3664  0.0194  0.2336
  941MOL0     C24142   3.021   7.012  10.189 -0.1213  0.4956  0.8273
  941MOL0     C24143   2.889   7.006  10.260 -0.4820  0.4995 -0.1534
  941MOL0     C24144   2.775   6.992  10.304  1.0604  0.9313 -0.2444
  941MOL0     C24145   3.638   6.979  10.461  0.0450 -0.6083 -0.0640
  941MOL0     C24146   3.761   6.992  10.532 -0.4327  0.5947  0.0304
  941MOL0     H24147   4.228   7.199  10.574  1.9989 -1.7280 -0.5235
  941MOL0     H24148   4.424   7.249  10.687  0.9593 -0.5369 -1.5585
  941MOL0     H24149   4.560   6.952  11.030 -0.2703  0.3069  1.8865
  941MOL0     H24150   4.479   7.105  11.088  3.0437  3.3165  2.4844
  941MOL0     H24151   4.681   7.232  11.045  0.1592  0.1956  2.0198
  941MOL0     H24152   4.775   7.087  11.035 -1.3456 -1.7995 -2.6167
  941MOL0     H24153   4.681   7.021  11.274  3.8018  0.3473 -0.3293
  941MOL0     H24154   4.588   7.170  11.252 -1.9644 -3.0830 -0.8073
  941MOL0     H24155   4.818   7.279  11.202  4.0941 -1.3593 -0.5748
  941MOL0     H24156   4.772   7.250  11.370 -1.4209 -0.4700  0.5439
  941MOL0     H24157   4.980   7.136  11.196 -1.1321 -0.3031 -2.3368
  941MOL0     H24158   4.903   7.009  11.279  1.3393  0.0233 -1.5869
  941MOL0     H24159   5.028   7.270  11.410 -3.4139  0.9795 -1.0710
  941MOL0     H24160   5.128   7.135  11.383 -0.3411 -1.3884  0.7381
  941MOL0     H24161   4.872   7.073  11.540 -0.7550  0.2205 -0.0122
  941MOL0     H24162   5.029   7.004  11.550  1.0338  0.0639 -1.5995
  941MOL0     H24163   4.942   7.264  11.678  1.2973  0.6615 -0.7441
  941MOL0     H24164   5.111   7.223  11.676  0.6374 -1.2083  0.8439
  941MOL0     H24165   5.141   6.943  11.794 -0.3571 -0.3437 -1.9674
  941MOL0     H24166   5.011   6.850  12.146  1.2255  1.0751  0.8924
  941MOL0     H24167   5.146   6.828  12.036 -0.1256  2.6861  2.3274
  941MOL0     H24168   5.012   6.628  12.043  0.2023  0.6486  0.7488
  941MOL0     H24169   4.975   6.699  11.887  2.6643  2.7909  0.1320
  941MOL0     H24170   4.817   6.744  12.144 -0.8007  1.1086  0.3577
  941MOL0     H24171   4.755   6.789  11.977 -1.6545 -3.5731 -2.4976
  941MOL0     H24172   4.812   6.514  12.083  0.8050  0.5169 -0.9878
  941MOL0     H24173   4.730   6.550  11.927 -3.0941 -0.9361  1.1075
  941MOL0     H24174   4.382   6.514  12.159  0.3730  2.3961  0.9959
  941MOL0     H24175   4.183   6.574  12.063  0.1526  0.7671 -0.0552
  941MOL0     H24176   4.068   7.067  11.833 -1.8889  1.4526  0.8656
  941MOL0     H24177   3.863   7.181  11.778  0.4551 -1.0465  0.9562
  941MOL0     H24178   3.584   7.218  11.725 -0.3520  0.1605 -0.1274
  941MOL0     H24179   3.599   7.040  11.753  1.3047 -1.5155 -1.0693
  941MOL0     H24180   3.415   6.988  11.612 -0.4701  0.0688 -1.2313
  941MOL0     H24181   3.433   7.137  11.520  0.1188 -1.0874 -0.2476
  941MOL0     H24182   3.372   7.270  11.703  0.9567  0.2196 -1.0625
  941MOL0     H24183   3.317   7.122  11.788  2.1072 -2.7813 -0.9703
  941MOL0     H24184   3.221   7.220  11.510  2.8394 -0.5974  0.8173
  941MOL0     H24185   3.170   7.073  11.580  1.9655  1.1747 -2.9928
  941MOL0     H24186   3.123   7.356  11.692 -0.9707  0.0841  1.9021
  941MOL0     H24187   3.063   7.211  11.771 -2.7103  2.0843 -0.7398
  941MOL0     H24188   2.919   7.160  11.583 -1.1569  1.2323  2.4706
  941MOL0     H24189   3.006   7.282  11.477  1.1492 -1.8200 -0.4443
  941MOL0     H24190   2.849   7.330  11.735  1.4993  2.3556  1.6833
  941MOL0     H24191   2.930   7.462  11.644 -1.9867  2.0721 -0.5302
  941MOL0     H24192   2.687   7.307  11.529  0.8026  1.3422 -2.1251
  941MOL0     H24193   2.772   7.449  11.466 -1.5952  0.7513 -0.3259
  941MOL0     H24194   3.762   6.917  11.468  0.9208 -1.7035 -0.0331
  941MOL0     H24195   3.968   6.773  11.541  1.7280  1.0856  0.9987
  941MOL0     H24196   4.403   6.806  11.766 -2.2371  0.7043  0.1565
  941MOL0     H24197   4.591   6.734  11.860  1.7617 -0.4143  2.3810
  941MOL0     H24198   4.342   6.892  10.944  0.1936 -0.2193  0.4194
  941MOL0     H24199   4.133   6.882  10.842  2.0489 -1.5596 -2.2687
  941MOL0     H24200   3.745   7.326  10.576  0.2697  1.2538 -1.0976
  941MOL0     H24201   3.541   7.309  10.469 -2.9573 -2.1192  2.4143
  941MOL0     H24202   3.361   7.198  10.240  0.0087  0.7122 -0.1687
  941MOL0     H24203   3.341   7.252  10.408 -1.1638 -0.5947  0.5147
  941MOL0     H24204   3.165   7.116  10.450  1.7910  3.3725  0.7934
  941MOL0     H24205   3.121   7.201  10.311 -1.5469 -1.5635  0.1834
  941MOL0     H24206   3.159   6.905  10.325  3.1717  1.3093  2.2919
  941MOL0     H24207   3.222   6.990  10.175 -3.0030  3.3003 -2.1550
  941MOL0     H24208   3.032   7.102  10.129 -0.2665 -0.7600 -1.1759
  941MOL0     H24209   3.011   6.927  10.121 -1.4186 -0.1813  1.7970
  941MOL0     H24210   2.671   6.979  10.327  0.4288  3.0748 -1.5712
  941MOL0     H24211   3.609   6.877  10.439 -3.0881 -0.6336  3.2657
  941MOL0     H24212   3.829   6.908  10.545 -0.6123 -0.1307 -2.8637
  942MOL0     O24213   8.068   9.187   0.807 -0.1899 -0.4049  0.1023
  942MOL0     C24214   8.092   9.184   0.692  0.5625  0.3016 -0.0329
  942MOL0     O24215   7.997   9.173   0.585  0.5644 -0.0874 -0.7074
  942MOL0     C24216   7.858   9.194   0.614 -0.7710 -0.5262  0.0156
  942MOL0     C24217   7.784   9.091   0.672  0.6021  0.2557  0.3004
  942MOL0     C24218   7.645   9.105   0.669 -0.5675 -0.8945 -0.2446
  942MOL0     C24219   7.583   9.230   0.623 -0.0883 -0.3029  0.1313
  942MOL0     O24220   7.450   9.243   0.629 -0.0889  0.1358  0.2354
  942MOL0     C24221   7.375   9.334   0.559  0.0414 -0.0569 -0.0133
  942MOL0     C24222   7.222   9.285   0.563 -0.5958 -0.6021  0.1342
  942MOL0     C24223   7.197   9.146   0.513  1.0505  0.8185 -0.0831
  942MOL0     C24224   7.041   9.130   0.504  0.7876  0.0912 -0.6294
  942MOL0     C24225   7.005   8.982   0.474  0.2014 -0.0711 -0.1388
  942MOL0     C24226   6.859   8.960   0.479 -0.3792  0.1335  0.4692
  942MOL0     C24227   6.795   9.042   0.366  0.3668  0.4039  0.0247
  942MOL0     C24228   6.656   8.985   0.347 -0.6716 -0.1447  0.4436
  942MOL0     N24229   6.600   9.047   0.225 -0.4065  0.7378  0.7382
  942MOL0     C24230   6.660   9.046   0.099 -0.0856 -0.6213  0.5296
  942MOL0     C24231   6.575   9.122   0.021  0.0306  0.5969 -0.5021
  942MOL0     C24232   6.598   9.150  -0.127 -1.2345  0.7269  0.3161
  942MOL0     C24233   6.467   9.171  -0.204  0.5062  0.8391 -0.0377
  942MOL0     C24234   6.475   9.189  -0.355 -0.9977  0.4201  0.2583
  942MOL0     C24235   6.354   9.122  -0.431  0.5909  0.4778 -0.8214
  942MOL0     O24236   6.234   9.196  -0.380 -1.8658  0.1894 -0.4086
  942MOL0     C24237   6.120   9.187  -0.451 -0.1371  0.2008 -1.1846
  942MOL0     C24238   6.079   9.088  -0.534  0.1545  0.6367 -0.3239
  942MOL0     C24239   5.953   9.086  -0.587 -0.4031  0.5335  0.4134
  942MOL0     C24240   5.866   9.197  -0.570 -0.0134 -0.3188 -1.1349
  942MOL0     C24241   5.745   9.194  -0.638 -0.0435 -0.2422 -0.0835
  942MOL0     O24242   5.630   9.231  -0.565  0.2794 -0.3153  0.1086
  942MOL0     C24243   5.501   9.212  -0.604  0.2339  0.6601  0.8359
  942MOL0     C24244   5.401   9.269  -0.531  0.9584  0.6924 -0.5032
  942MOL0     C24245   5.269   9.270  -0.579 -0.3193 -0.8133 -1.1043
  942MOL0     C24246   5.231   9.183  -0.677 -0.7599 -0.5063  0.7224
  942MOL0     O24247   5.103   9.194  -0.713  0.1994 -0.0600  0.0707
  942MOL0     C24248   5.050   9.103  -0.810  0.3333 -0.4500  0.3285
  942MOL0     C24249   4.903   9.129  -0.849 -0.8706  0.5630 -0.5350
  942MOL0     C24250   4.823   9.160  -0.719  0.7031  0.5449  0.5883
  942MOL0     C24251   4.679   9.204  -0.752  0.6119 -0.4821 -0.5744
  942MOL0     C24252   4.616   9.260  -0.627 -0.6104 -0.1228  0.0033
  942MOL0     C24253   4.470   9.306  -0.653 -0.2527 -0.5717 -0.3464
  942MOL0     C24254   4.376   9.332  -0.524  0.2413  0.2113  0.1210
  942MOL0     C24255   4.412   9.458  -0.454  0.9135 -0.6137 -0.1769
  942MOL0    Cl24256   4.257   9.523  -0.389 -0.6926  0.3234  0.2393
  942MOL0     C24257   5.340   9.117  -0.751 -0.1983 -0.6129 -0.1975
  942MOL0     C24258   5.473   9.132  -0.714 -0.1858 -0.0445  1.1513
  942MOL0     O24259   5.746   9.142  -0.749 -0.8497 -0.4249  0.5787
  942MOL0     C24260   5.898   9.296  -0.482  0.3929  0.2131 -0.4503
  942MOL0     C24261   6.027   9.295  -0.422 -0.0967 -0.2957  0.4049
  942MOL0     N24262   6.462   9.148   0.102 -0.7334 -0.2605 -0.1553
  942MOL0     N24263   6.480   9.110   0.220 -0.4199  0.8141 -0.3547
  942MOL0     C24264   7.666   9.328   0.574 -0.0146 -0.4838 -0.2297
  942MOL0     C24265   7.796   9.307   0.561 -0.2966 -0.7576  0.2886
  942MOL0     C24266   8.233   9.198   0.648 -0.5966  0.4671  0.6655
  942MOL0     C24267   8.275   9.258   0.529 -0.3213  0.0869 -0.6349
  942MOL0     C24268   8.412   9.257   0.494 -0.5163 -0.9996 -1.3901
  942MOL0     C24269   8.510   9.220   0.589  0.4793 -0.1218 -0.7048
  942MOL0     O24270   8.641   9.246   0.567 -0.2817  0.6106 -0.5050
  942MOL0     C24271   8.685   9.360   0.629  0.7629  0.3430 -0.2559
  942MOL0     C24272   8.832   9.329   0.659  0.4263 -0.0961  0.7687
  942MOL0     C24273   8.909   9.299   0.527  0.4707 -0.6371 -0.1909
  942MOL0     C24274   9.059   9.333   0.538 -0.8590  0.6942  0.5201
  942MOL0     C24275   9.137   9.289   0.423 -0.1978 -0.4358  0.0099
  942MOL0     C24276   9.216   9.250   0.345  0.0907 -0.6774 -0.4248
  942MOL0     C24277   8.464   9.172   0.712 -0.5992 -0.0435  0.1044
  942MOL0     C24278   8.329   9.163   0.739 -0.1948 -0.7791  0.7322
  942MOL0     H24279   7.844   9.001   0.686  3.5979  2.1320  0.4605
  942MOL0     H24280   7.584   9.027   0.713 -0.9432 -0.6160 -0.2631
  942MOL0     H24281   7.420   9.337   0.460  2.2930 -2.0965  0.8639
  942MOL0     H24282   7.375   9.438   0.595 -3.5194 -0.6797  2.3087
  942MOL0     H24283   7.146   9.352   0.523 -1.3258 -0.2921  1.9292
  942MOL0     H24284   7.194   9.291   0.669 -0.5969 -0.0204  0.1079
  942MOL0     H24285   7.239   9.076   0.586  3.5830  1.9319 -0.3876
  942MOL0     H24286   7.247   9.128   0.417 -0.0284 -1.6111 -0.2527
  942MOL0     H24287   7.006   9.160   0.603  0.3462 -2.5389  0.1005
  942MOL0     H24288   7.004   9.199   0.428 -1.3705  1.6048  1.6648
  942MOL0     H24289   7.061   8.928   0.551 -1.4369 -2.5769 -0.5748
  942MOL0     H24290   7.039   8.935   0.381 -2.0810 -2.6919  0.2055
  942MOL0     H24291   6.815   8.966   0.579 -0.5884 -3.2114  0.6967
  942MOL0     H24292   6.846   8.859   0.439 -0.6990 -0.0967  1.1434
  942MOL0     H24293   6.784   9.147   0.396  0.2033  0.2957  0.3438
  942MOL0     H24294   6.852   9.044   0.273 -0.6531  0.6563 -0.6229
  942MOL0     H24295   6.587   9.003   0.431  0.0627  4.1294  0.3702
  942MOL0     H24296   6.665   8.879   0.322  1.4652  0.4731 -1.8553
  942MOL0     H24297   6.756   9.007   0.068  1.3511  0.1193  3.6878
  942MOL0     H24298   6.655   9.065  -0.166 -2.3738  0.1936 -0.2222
  942MOL0     H24299   6.660   9.239  -0.138 -1.6726  0.9920 -0.0545
  942MOL0     H24300   6.415   9.262  -0.171 -2.4753 -0.3819 -1.1174
  942MOL0     H24301   6.409   9.080  -0.190 -0.3971  1.5436  0.9225
  942MOL0     H24302   6.495   9.290  -0.392 -4.0229  0.1189 -2.7510
  942MOL0     H24303   6.562   9.134  -0.395 -1.7452 -1.3285  0.9210
  942MOL0     H24304   6.346   9.016  -0.406  0.3785  0.4712 -0.9105
  942MOL0     H24305   6.361   9.117  -0.540 -0.3774 -1.8342 -0.8511
  942MOL0     H24306   6.149   9.012  -0.567 -1.2815 -0.2060 -1.5699
  942MOL0     H24307   5.923   8.995  -0.638 -0.0413  0.8115 -0.3195
  942MOL0     H24308   5.435   9.326  -0.445 -2.8928  0.0593  1.6796
  942MOL0     H24309   5.194   9.325  -0.523  1.9230  0.4530  0.8347
  942MOL0     H24310   5.052   9.001  -0.769  0.3785 -1.3298 -1.7487
  942MOL0     H24311   5.098   9.111  -0.907 -2.3219  1.0768 -0.9687
  942MOL0     H24312   4.867   9.039  -0.900  0.4510 -1.3658  1.7599
  942MOL0     H24313   4.890   9.208  -0.924 -0.2736  1.4360  0.2598
  942MOL0     H24314   4.869   9.237  -0.657  0.1375  0.8228  0.6642
  942MOL0     H24315   4.811   9.068  -0.662  2.2141  1.0267  1.7515
  942MOL0     H24316   4.676   9.286  -0.825  0.4205  0.8041  0.8457
  942MOL0     H24317   4.612   9.129  -0.795 -1.5827 -0.3743  2.3768
  942MOL0     H24318   4.669   9.343  -0.579 -3.5247  1.5263  0.5675
  942MOL0     H24319   4.619   9.172  -0.562 -3.2205 -0.2433  0.0371
  942MOL0     H24320   4.417   9.221  -0.698 -1.5324 -2.1979  3.7569
  942MOL0     H24321   4.458   9.388  -0.724 -1.1356  0.8655  1.3649
  942MOL0     H24322   4.275   9.332  -0.565  0.5705 -2.2602 -0.9301
  942MOL0     H24323   4.371   9.247  -0.455  1.0408 -1.9700 -2.3316
  942MOL0     H24324   4.459   9.531  -0.521  0.8031 -0.1785  0.2163
  942MOL0     H24325   4.484   9.449  -0.373  0.0697 -1.1939  0.5154
  942MOL0     H24326   5.315   9.055  -0.837 -0.0175 -3.3103  1.5709
  942MOL0     H24327   5.540   9.060  -0.761 -0.4873 -1.6828  3.1047
  942MOL0     H24328   5.832   9.379  -0.458  0.4708 -0.4928  2.5177
  942MOL0     H24329   6.067   9.368  -0.353 -1.6338  0.4336  0.5470
  942MOL0     H24330   7.630   9.424   0.540  2.8099  0.4274 -0.9732
  942MOL0     H24331   7.856   9.385   0.515 -1.8013 -0.5642 -1.4747
  942MOL0     H24332   8.196   9.278   0.456  0.1574  0.2265 -1.1185
  942MOL0     H24333   8.440   9.308   0.402  0.3064  1.5693  0.1736
  942MOL0     H24334   8.624   9.381   0.717  0.3934 -0.5724 -0.2894
  942MOL0     H24335   8.674   9.436   0.551  3.7756 -2.1416 -3.4093
  942MOL0     H24336   8.888   9.406   0.711  0.8014  0.6121 -0.6493
  942MOL0     H24337   8.841   9.239   0.722  3.9016 -1.1226 -0.9612
  942MOL0     H24338   8.864   9.363   0.450 -1.2645 -1.6267 -0.0460
  942MOL0     H24339   8.910   9.193   0.502  1.7046 -1.6766  3.5456
  942MOL0     H24340   9.078   9.438   0.561  2.9756  0.7876 -2.1168
  942MOL0     H24341   9.098   9.279   0.625  0.7016  0.4942 -0.2674
  942MOL0     H24342   9.275   9.203   0.269 -3.0419  0.4535 -3.7986
  942MOL0     H24343   8.533   9.144   0.791  1.6849  2.4331 -0.8698
  942MOL0     H24344   8.294   9.131   0.836 -1.5518 -1.7018 -0.0310
  943MOL0     O24345   2.921   1.754   1.428  0.6756  0.3730 -0.6516
  943MOL0     C24346   3.008   1.679   1.462 -0.1537 -0.9489  0.2524
  943MOL0     O24347   3.063   1.589   1.384 -1.0134 -0.2463 -0.5610
  943MOL0     C24348   3.003   1.561   1.262 -0.2793  0.3969  0.0244
  943MOL0     C24349   2.870   1.511   1.250 -1.1664  0.0801  0.4956
  943MOL0     C24350   2.820   1.457   1.135  0.0180 -0.4660  0.6513
  943MOL0     C24351   2.886   1.476   1.009  0.6393 -1.1427 -1.2722
  943MOL0     O24352   2.817   1.431   0.895 -0.2828  0.0177  0.0134
  943MOL0     C24353   2.676   1.464   0.901 -0.8794  0.3227  0.2076
  943MOL0     C24354   2.593   1.457   0.770 -0.9181 -0.0569 -0.0485
  943MOL0     C24355   2.451   1.505   0.799  0.4815  0.1927 -0.3243
  943MOL0     C24356   2.368   1.379   0.860 -0.1284 -0.1807 -0.1157
  943MOL0     C24357   2.212   1.415   0.887  0.2990  0.0329  0.1882
  943MOL0     C24358   2.142   1.453   0.756  0.1872  0.2088  0.0974
  943MOL0     C24359   1.989   1.453   0.783 -0.2535  0.1705 -0.3163
  943MOL0     C24360   1.908   1.523   0.675  0.5893  0.0815 -0.2044
  943MOL0     N24361   1.771   1.558   0.713 -0.7292  0.2619 -0.0952
  943MOL0     C24362   1.737   1.656   0.796 -0.9422 -0.9656  0.6181
  943MOL0     C24363   1.598   1.648   0.809 -0.7530 -0.5192 -0.0287
  943MOL0     C24364   1.496   1.717   0.907  0.1097  0.3169  0.4783
  943MOL0     C24365   1.370   1.625   0.936 -0.5797  0.0994  0.6479
  943MOL0     C24366   1.417   1.493   1.007  0.9892  1.2511 -1.4562
  943MOL0     C24367   1.287   1.415   1.043 -0.2732  1.2865 -0.5103
  943MOL0     O24368   1.302   1.333   1.156  0.3686 -0.3382 -0.3649
  943MOL0     C24369   1.183   1.306   1.220  0.8001 -0.0373  0.0928
  943MOL0     C24370   1.063   1.256   1.162 -0.0588 -0.3836 -1.1387
  943MOL0     C24371   0.938   1.252   1.228 -0.2293 -0.7235 -0.6659
  943MOL0     C24372   0.929   1.305   1.358 -1.0471  0.0378  0.1466
  943MOL0     C24373   0.807   1.279   1.437 -0.1573 -0.4001  0.6015
  943MOL0     O24374   0.692   1.232   1.360 -0.0848  0.9222  0.5992
  943MOL0     C24375   0.572   1.251   1.414 -0.2539  0.6663  0.8719
  943MOL0     C24376   0.528   1.174   1.524 -0.0539 -0.8598  1.3861
  943MOL0     C24377   0.398   1.201   1.580 -0.0576 -0.4705 -0.7043
  943MOL0     C24378   0.302   1.289   1.524  0.2123 -0.2660 -0.0682
  943MOL0     O24379   0.184   1.305   1.588  0.2382 -0.4480  0.0737
  943MOL0     C24380   0.089   1.376   1.513  0.1558 -0.3397  0.2002
  943MOL0     C24381  -0.037   1.396   1.602  0.7852  0.7245 -0.1795
  943MOL0     C24382  -0.112   1.265   1.630  0.8707  0.5540  0.3883
  943MOL0     C24383  -0.206   1.280   1.742  0.0230  0.2334 -0.5234
  943MOL0     C24384  -0.299   1.160   1.742 -0.3701 -0.6182 -0.8336
  943MOL0     C24385  -0.402   1.182   1.857  0.8606  0.4935  1.0686
  943MOL0     C24386  -0.488   1.056   1.860  0.5774  0.2576 -0.1397
  943MOL0     C24387  -0.588   1.036   1.977  0.6541 -0.1527  0.1242
  943MOL0    Cl24388  -0.502   1.013   2.133  0.4189 -0.2951 -0.2850
  943MOL0     C24389   0.349   1.360   1.406 -0.1426 -0.4184 -0.6320
  943MOL0     C24390   0.480   1.349   1.355  0.4163  0.1499 -0.0322
  943MOL0     O24391   0.813   1.316   1.553 -0.4616  0.2142 -0.7577
  943MOL0     C24392   1.039   1.368   1.418 -0.0983  0.1182 -0.1102
  943MOL0     C24393   1.166   1.350   1.353  0.3923  0.6270  0.1444
  943MOL0     N24394   1.549   1.549   0.719 -0.3717  0.3401 -0.5436
  943MOL0     N24395   1.658   1.486   0.672  0.4321 -0.5511 -0.4505
  943MOL0     C24396   3.019   1.539   1.029  1.2644  0.2586 -0.4135
  943MOL0     C24397   3.080   1.569   1.152 -0.2944 -0.0510  0.3695
  943MOL0     C24398   3.068   1.692   1.594 -0.7133 -1.0453 -0.0116
  943MOL0     C24399   3.208   1.670   1.608  0.7353 -0.4461  0.4491
  943MOL0     C24400   3.270   1.676   1.730  0.1804  0.1535 -0.3698
  943MOL0     C24401   3.188   1.705   1.843 -0.7272  0.5961 -0.6530
  943MOL0     O24402   3.262   1.723   1.964  0.5882 -0.4101 -0.0932
  943MOL0     C24403   3.248   1.841   2.040 -0.2295  0.6716 -0.7217
  943MOL0     C24404   3.370   1.924   2.011  0.1624 -0.3120 -0.2773
  943MOL0     C24405   3.504   1.844   2.022 -0.4200 -0.6687  0.5176
  943MOL0     C24406   3.631   1.942   2.010  0.2526  0.8523  0.0620
  943MOL0     C24407   3.667   1.956   1.869 -0.1753  0.0738  0.2730
  943MOL0     C24408   3.702   1.959   1.753  0.3690 -0.3747  0.5372
  943MOL0     C24409   3.053   1.730   1.840 -1.0296  0.0707  0.2041
  943MOL0     C24410   3.000   1.738   1.704 -0.3313  0.2437 -0.8348
  943MOL0     H24411   2.821   1.506   1.347  2.1953  0.5806  2.3663
  943MOL0     H24412   2.723   1.413   1.159 -0.0358 -0.7876 -0.1085
  943MOL0     H24413   2.655   1.560   0.950  0.2471  0.1405  1.0973
  943MOL0     H24414   2.642   1.391   0.975 -1.3204  0.2757 -0.0358
  943MOL0     H24415   2.590   1.358   0.724 -0.8117 -0.2496  0.3579
  943MOL0     H24416   2.637   1.530   0.701  0.5952 -0.6014  0.3028
  943MOL0     H24417   2.400   1.518   0.703  0.1026 -3.7040 -0.8082
  943MOL0     H24418   2.451   1.590   0.867  1.7963 -0.1673  0.1646
  943MOL0     H24419   2.396   1.298   0.792  3.3184  2.0871 -1.6809
  943MOL0     H24420   2.409   1.356   0.959 -2.6081  0.3255  1.1197
  943MOL0     H24421   2.219   1.500   0.955 -0.5784 -0.2114  0.5863
  943MOL0     H24422   2.162   1.333   0.938  0.9954 -0.9600 -0.6510
  943MOL0     H24423   2.153   1.371   0.685 -2.4586  1.4268 -1.8710
  943MOL0     H24424   2.177   1.549   0.718  1.5394  1.1152  3.2524
  943MOL0     H24425   1.949   1.353   0.803 -1.2747  0.5657 -0.3539
  943MOL0     H24426   1.967   1.509   0.874  1.2112  2.2649 -1.1732
  943MOL0     H24427   1.905   1.464   0.583 -0.0349 -1.1898  0.6196
  943MOL0     H24428   1.968   1.614   0.665  2.1183 -0.8814 -0.0306
  943MOL0     H24429   1.803   1.731   0.840 -0.5709  0.5137 -2.2077
  943MOL0     H24430   1.453   1.812   0.872  0.9711  0.6559  0.3272
  943MOL0     H24431   1.546   1.731   1.003  1.4928  1.9320 -0.4098
  943MOL0     H24432   1.312   1.617   0.844 -0.3860  0.4000  0.4989
  943MOL0     H24433   1.304   1.681   1.003  1.0986 -0.1268  2.5813
  943MOL0     H24434   1.471   1.429   0.938  1.7017  0.5803 -0.3154
  943MOL0     H24435   1.469   1.508   1.102 -2.3888 -0.9470  0.9903
  943MOL0     H24436   1.254   1.355   0.958 -1.3417  0.9267  0.1409
  943MOL0     H24437   1.211   1.487   1.076  0.4876  1.7187  0.3360
  943MOL0     H24438   1.080   1.222   1.061  0.7513  0.1691 -1.1994
  943MOL0     H24439   0.853   1.200   1.184 -1.7284  1.5371 -0.6019
  943MOL0     H24440   0.588   1.089   1.556  1.3427 -2.7561 -4.8937
  943MOL0     H24441   0.357   1.129   1.650  0.4396 -1.4088 -1.3549
  943MOL0     H24442   0.057   1.329   1.419  0.8578 -1.7853  0.6535
  943MOL0     H24443   0.132   1.474   1.491  2.7467 -0.8564  2.4620
  943MOL0     H24444  -0.098   1.472   1.551  0.2452 -0.3376 -1.1657
  943MOL0     H24445   0.004   1.440   1.693 -0.5435  1.8835 -0.1087
  943MOL0     H24446  -0.045   1.180   1.645  0.1744 -0.2416 -0.8483
  943MOL0     H24447  -0.165   1.251   1.535 -0.2093  0.7487  0.9436
  943MOL0     H24448  -0.152   1.291   1.836  0.0338 -0.6056 -0.4250
  943MOL0     H24449  -0.268   1.368   1.723 -3.3340 -2.5781 -4.5786
  943MOL0     H24450  -0.240   1.070   1.761 -1.9901 -1.2368  1.7814
  943MOL0     H24451  -0.349   1.163   1.645  2.2922  2.1583 -2.2703
  943MOL0     H24452  -0.466   1.268   1.837 -0.0583  0.1400  2.3997
  943MOL0     H24453  -0.357   1.182   1.957 -1.4237 -0.2395  2.1554
  943MOL0     H24454  -0.556   1.047   1.774  0.1304 -2.8637  0.4243
  943MOL0     H24455  -0.425   0.967   1.869  2.0621  1.0288 -2.1023
  943MOL0     H24456  -0.660   0.957   1.950  0.0289  1.1029 -2.2065
  943MOL0     H24457  -0.652   1.123   1.991  0.3754 -0.1246 -1.1801
  943MOL0     H24458   0.280   1.425   1.352 -0.5658  0.2950  0.7069
  943MOL0     H24459   0.511   1.412   1.272  2.3324 -0.1857  0.3808
  943MOL0     H24460   1.027   1.410   1.518 -1.5067  2.0177 -1.0182
  943MOL0     H24461   1.259   1.390   1.392  0.4005  1.1473 -0.3960
  943MOL0     H24462   3.077   1.562   0.940  1.1267  3.8186  0.2669
  943MOL0     H24463   3.185   1.593   1.148 -0.6641  1.5912 -1.6205
  943MOL0     H24464   3.266   1.622   1.529  0.9954  0.0557  0.3326
  943MOL0     H24465   3.374   1.649   1.743  0.7720  2.2452 -0.4199
  943MOL0     H24466   3.243   1.806   2.144 -0.7168  0.1830 -0.9092
  943MOL0     H24467   3.152   1.888   2.019 -1.1868  0.2354  2.2302
  943MOL0     H24468   3.350   1.971   1.914  1.5236 -2.4248 -1.6854
  943MOL0     H24469   3.379   2.006   2.081  1.7927  1.2184 -2.1490
  943MOL0     H24470   3.512   1.764   1.947 -2.3315 -0.1892 -0.2529
  943MOL0     H24471   3.506   1.808   2.125  0.2514 -0.0956  0.7164
  943MOL0     H24472   3.613   2.036   2.063 -2.9385 -0.1072  0.9082
  943MOL0     H24473   3.718   1.902   2.063  1.7918  3.5514 -0.2706
  943MOL0     H24474   3.751   1.967   1.658  3.1663  0.2685  1.9128
  943MOL0     H24475   2.993   1.756   1.927 -3.1664 -0.4050 -1.0542
  943MOL0     H24476   2.892   1.741   1.714 -0.1746 -0.9403  2.6079
  944MOL0     O24477   4.176   2.107   7.148 -0.3105 -0.7444  0.5233
  944MOL0     C24478   4.227   2.195   7.219  0.1811  0.5610 -0.4521
  944MOL0     O24479   4.160   2.298   7.269 -0.6728  0.5227 -0.1671
  944MOL0     C24480   4.024   2.300   7.263  0.2907  0.8451  0.2916
  944MOL0     C24481   3.940   2.188   7.304 -1.0519 -0.6974  0.5083
  944MOL0     C24482   3.799   2.208   7.299 -0.1074  0.2453  0.1969
  944MOL0     C24483   3.745   2.332   7.266  0.1070  0.4944 -0.8958
  944MOL0     O24484   3.606   2.327   7.253 -0.4776 -0.7051  0.5265
  944MOL0     C24485   3.552   2.460   7.256  0.5007 -0.1820 -0.3021
  944MOL0     C24486   3.404   2.452   7.296  0.4004 -0.7858  0.3151
  944MOL0     C24487   3.358   2.583   7.357  1.0215 -0.5598 -0.5862
  944MOL0     C24488   3.211   2.557   7.413  0.1635 -0.7357 -0.1325
  944MOL0     C24489   3.158   2.682   7.484 -0.1726  1.0215 -0.7832
  944MOL0     C24490   3.151   2.810   7.399 -0.1042 -0.6642 -0.4871
  944MOL0     C24491   3.077   2.913   7.479 -0.0756  0.2544  0.0601
  944MOL0     C24492   3.086   3.046   7.404 -0.6729  0.1792  0.0581
  944MOL0     N24493   3.000   3.148   7.471  0.1842  0.4270 -0.2858
  944MOL0     C24494   2.866   3.128   7.510 -0.4567 -0.0020 -0.2674
  944MOL0     C24495   2.824   3.251   7.553  0.8949  0.4548 -0.5255
  944MOL0     C24496   2.695   3.290   7.616 -0.9348  0.7939  0.6256
  944MOL0     C24497   2.678   3.224   7.757  0.4258 -0.3073 -0.9683
  944MOL0     C24498   2.769   3.279   7.872 -0.0733  0.5185  0.2387
  944MOL0     C24499   2.902   3.208   7.874 -0.3698 -0.0909 -0.2261
  944MOL0     O24500   2.986   3.224   7.997 -0.1109 -0.4512  0.0412
  944MOL0     C24501   3.071   3.329   8.001 -0.2750  1.5823 -0.3126
  944MOL0     C24502   3.077   3.431   7.908  0.1493 -0.3168  1.2838
  944MOL0     C24503   3.176   3.528   7.925  0.8680  0.3449 -0.1608
  944MOL0     C24504   3.259   3.533   8.046 -0.5832  0.3688  0.3818
  944MOL0     C24505   3.366   3.634   8.055 -0.4695 -0.2018 -0.5086
  944MOL0     O24506   3.431   3.657   8.170  0.0099  0.4343 -0.2506
  944MOL0     C24507   3.531   3.754   8.159  0.4693  1.3012  0.0723
  944MOL0     C24508   3.496   3.885   8.189 -0.4804  0.0542  0.0007
  944MOL0     C24509   3.591   3.987   8.198 -0.1362 -0.5681  0.0209
  944MOL0     C24510   3.728   3.964   8.169 -0.2196  0.1516 -0.3630
  944MOL0     O24511   3.822   4.068   8.161  0.1389 -0.1196 -0.5332
  944MOL0     C24512   3.960   4.037   8.198  0.0309  0.0523  0.0820
  944MOL0     C24513   4.039   4.160   8.229 -0.5723 -0.6060  0.7481
  944MOL0     C24514   3.985   4.228   8.357  0.0140 -0.1895  0.5782
  944MOL0     C24515   4.095   4.309   8.428 -1.2006  0.5393  0.7146
  944MOL0     C24516   4.155   4.423   8.341 -0.0816  0.0349 -0.2687
  944MOL0     C24517   4.215   4.541   8.420  1.4888  0.3425  0.2263
  944MOL0     C24518   4.339   4.492   8.497 -1.0837  0.0620 -0.0371
  944MOL0     C24519   4.462   4.590   8.487 -1.0281 -0.1712 -0.1419
  944MOL0    Cl24520   4.574   4.554   8.347  0.4124 -0.3445 -0.1119
  944MOL0     C24521   3.760   3.826   8.141  0.2545  0.0869  0.7139
  944MOL0     C24522   3.666   3.723   8.134  0.4862 -0.0798  0.3615
  944MOL0     O24523   3.373   3.707   7.954 -0.4337 -0.0502 -0.3989
  944MOL0     C24524   3.241   3.427   8.129 -0.3161  0.2565  0.7094
  944MOL0     C24525   3.154   3.328   8.116 -0.6312  0.0177  0.6878
  944MOL0     N24526   2.918   3.340   7.516  0.2632  0.5826  0.3473
  944MOL0     N24527   3.022   3.276   7.463  0.2220 -1.3624 -0.1488
  944MOL0     C24528   3.828   2.425   7.209 -0.0669  0.3531  0.5357
  944MOL0     C24529   3.968   2.419   7.210  0.3474  0.4100 -0.0865
  944MOL0     C24530   4.362   2.172   7.264  0.2215  0.0735  0.4774
  944MOL0     C24531   4.432   2.272   7.339 -0.1238 -0.5010 -0.1369
  944MOL0     C24532   4.553   2.241   7.405 -0.3469 -0.1383 -0.5860
  944MOL0     C24533   4.609   2.114   7.386 -0.6376 -0.5117  0.2992
  944MOL0     O24534   4.720   2.079   7.462  0.1321  0.2648 -0.6932
  944MOL0     C24535   4.836   2.035   7.387 -0.4251  0.2029 -0.0650
  944MOL0     C24536   4.915   2.157   7.348  0.0749 -0.5913 -0.5671
  944MOL0     C24537   4.999   2.212   7.468  0.3962 -0.9221 -0.6024
  944MOL0     C24538   4.922   2.298   7.573  0.3337 -0.0975 -0.0594
  944MOL0     C24539   4.871   2.435   7.534 -0.3297 -0.2797  0.8537
  944MOL0     C24540   4.821   2.551   7.530  0.8648 -0.3767  0.3102
  944MOL0     C24541   4.553   2.020   7.295 -0.4852 -1.2525 -0.1692
  944MOL0     C24542   4.429   2.049   7.241 -0.0251 -0.9690 -0.0700
  944MOL0     H24543   3.993   2.103   7.344  1.3556  1.0481  1.2780
  944MOL0     H24544   3.738   2.121   7.318  1.8594 -0.6693  2.8909
  944MOL0     H24545   3.565   2.507   7.158 -0.6138  1.5791  0.3273
  944MOL0     H24546   3.608   2.520   7.328  0.0572  1.3243 -1.1648
  944MOL0     H24547   3.396   2.378   7.376 -4.1972 -1.5871 -0.6057
  944MOL0     H24548   3.345   2.432   7.207  1.0658  0.0607 -0.3360
  944MOL0     H24549   3.362   2.672   7.294 -3.3419 -0.5205 -1.1565
  944MOL0     H24550   3.416   2.605   7.447 -1.2467  3.1736  0.1911
  944MOL0     H24551   3.141   2.528   7.334 -3.1729 -0.3198  2.4599
  944MOL0     H24552   3.206   2.470   7.479 -1.4475 -0.4403  0.1743
  944MOL0     H24553   3.232   2.695   7.564 -2.4408  0.1927  1.6049
  944MOL0     H24554   3.073   2.645   7.542  2.8409 -2.7137  1.8564
  944MOL0     H24555   3.100   2.777   7.308 -1.2705 -1.1517  0.3197
  944MOL0     H24556   3.255   2.840   7.381 -0.4163  0.2195 -0.8853
  944MOL0     H24557   2.972   2.889   7.496 -0.5655  2.6067  0.6683
  944MOL0     H24558   3.121   2.915   7.579 -1.5063 -1.9491  0.7924
  944MOL0     H24559   3.046   3.029   7.303 -1.7278 -0.7673  0.6057
  944MOL0     H24560   3.188   3.084   7.394 -1.1115  0.7566 -3.8316
  944MOL0     H24561   2.811   3.034   7.510  0.1706 -0.3858 -1.9038
  944MOL0     H24562   2.616   3.260   7.547  0.8791  1.0329 -1.6646
  944MOL0     H24563   2.674   3.398   7.614 -1.4492  0.7123  1.2491
  944MOL0     H24564   2.686   3.115   7.750  1.8140 -0.2887  0.0191
  944MOL0     H24565   2.581   3.249   7.801  1.6430  0.6216  1.3061
  944MOL0     H24566   2.778   3.388   7.863 -1.6922  0.7917  1.4692
  944MOL0     H24567   2.713   3.261   7.964  2.1798  0.6386  1.7090
  944MOL0     H24568   2.967   3.243   7.793 -1.1757 -1.6990 -1.6420
  944MOL0     H24569   2.871   3.103   7.863 -2.7291  0.2733  2.0427
  944MOL0     H24570   3.003   3.445   7.829  0.3508  2.7728  1.5466
  944MOL0     H24571   3.180   3.589   7.835 -0.1834  1.5915  0.5970
  944MOL0     H24572   3.390   3.897   8.207 -0.8447  0.5183 -2.1658
  944MOL0     H24573   3.565   4.090   8.220  1.8844 -0.2865  1.3640
  944MOL0     H24574   3.995   3.977   8.114  1.2902 -0.2019  0.7632
  944MOL0     H24575   3.966   3.975   8.288  2.0612  3.5625  2.6046
  944MOL0     H24576   4.039   4.224   8.139  3.8294 -2.0871 -0.5870
  944MOL0     H24577   4.139   4.119   8.245  0.0362 -1.7663 -4.3351
  944MOL0     H24578   3.951   4.162   8.437  0.0338 -1.1292 -0.1834
  944MOL0     H24579   3.901   4.293   8.330  0.3252 -0.9951 -2.7148
  944MOL0     H24580   4.047   4.332   8.524 -2.5565 -1.7063  0.6599
  944MOL0     H24581   4.175   4.241   8.459 -2.1828 -1.0962 -0.1498
  944MOL0     H24582   4.085   4.462   8.266 -0.8684  1.3957  1.1068
  944MOL0     H24583   4.229   4.381   8.273  1.3017  2.5934 -0.4683
  944MOL0     H24584   4.139   4.573   8.491 -0.3701 -2.8877 -0.1116
  944MOL0     H24585   4.237   4.619   8.346  2.1384 -0.1184 -0.0780
  944MOL0     H24586   4.315   4.502   8.604 -0.4100  1.1575  0.0319
  944MOL0     H24587   4.378   4.392   8.479  2.0698  0.7305  2.1276
  944MOL0     H24588   4.516   4.581   8.581 -0.4796  1.8125 -0.2019
  944MOL0     H24589   4.423   4.692   8.499  2.2668  1.0456  1.4278
  944MOL0     H24590   3.860   3.803   8.107 -0.4001 -0.2115 -1.1683
  944MOL0     H24591   3.707   3.626   8.109 -2.2908 -1.9359  2.3477
  944MOL0     H24592   3.301   3.429   8.219 -0.9957 -1.6491  1.2605
  944MOL0     H24593   3.133   3.243   8.181 -1.6142  0.0949  0.4936
  944MOL0     H24594   3.799   2.511   7.149  3.5686 -0.0965 -2.2434
  944MOL0     H24595   4.028   2.507   7.189 -1.5690  2.6068  2.8637
  944MOL0     H24596   4.392   2.372   7.343 -0.7710 -0.6421 -1.9858
  944MOL0     H24597   4.571   2.321   7.475  2.3842 -0.6334 -0.5986
  944MOL0     H24598   4.811   1.981   7.296 -1.1018 -0.2581  0.3873
  944MOL0     H24599   4.902   1.979   7.454 -0.0300  3.2955  2.4026
  944MOL0     H24600   4.979   2.143   7.260 -0.0220  0.1198 -0.7546
  944MOL0     H24601   4.839   2.230   7.320 -0.6729 -0.3396  1.8394
  944MOL0     H24602   5.075   2.284   7.434  0.0526 -0.8560 -1.2334
  944MOL0     H24603   5.031   2.119   7.515 -4.6424 -2.8146 -0.3895
  944MOL0     H24604   4.840   2.239   7.615  0.1669  0.0558 -0.1721
  944MOL0     H24605   4.996   2.315   7.652 -1.6794 -0.3683  1.9925
  944MOL0     H24606   4.789   2.653   7.540  2.8043  0.1319  1.9981
  944MOL0     H24607   4.592   1.918   7.288  0.1071 -1.0680  0.3981
  944MOL0     H24608   4.379   1.971   7.185 -1.6226 -1.4733  1.9471
  945MOL0     O24609   2.496   9.840   4.863  0.1251 -0.1290 -0.9857
  945MOL0     C24610   2.519   9.836   4.981  0.5562 -0.3359  0.6033
  945MOL0     O24611   2.426   9.800   5.076  0.2352 -0.2410  0.2427
  945MOL0     C24612   2.328   9.709   5.043 -0.3185  0.1032 -0.4028
  945MOL0     C24613   2.333   9.607   4.949 -0.5430  0.3611  0.5197
  945MOL0     C24614   2.219   9.519   4.925  0.0422 -0.9287 -0.7155
  945MOL0     C24615   2.106   9.521   5.008 -0.1811 -0.6094 -0.0176
  945MOL0     O24616   2.012   9.427   4.984  0.4540 -0.6359  0.3266
  945MOL0     C24617   1.879   9.464   5.018 -1.3008  0.1204 -1.0382
  945MOL0     C24618   1.792   9.366   4.942 -0.5158  0.0867 -0.4971
  945MOL0     C24619   1.645   9.425   4.946 -0.4447 -0.1262  0.1110
  945MOL0     C24620   1.562   9.347   4.836  0.0548  0.1124  0.4082
  945MOL0     C24621   1.414   9.402   4.837 -0.1438  0.2390 -0.9898
  945MOL0     C24622   1.336   9.355   4.715  0.0681 -0.9815 -0.8280
  945MOL0     C24623   1.189   9.395   4.713  0.2870  0.5576  0.4099
  945MOL0     C24624   1.130   9.354   4.576  0.1692  0.1350 -0.7335
  945MOL0     N24625   1.002   9.420   4.560  0.3059 -0.0481  0.8482
  945MOL0     C24626   0.881   9.387   4.611  0.1818 -1.5411 -0.1042
  945MOL0     C24627   0.797   9.489   4.561 -0.1965  0.5293 -0.2184
  945MOL0     C24628   0.644   9.502   4.580 -0.1075 -0.0488  0.4366
  945MOL0     C24629   0.613   9.520   4.721 -1.0231 -0.7969 -0.0624
  945MOL0     C24630   0.456   9.533   4.747 -0.4384 -0.0808 -0.2492
  945MOL0     C24631   0.395   9.658   4.683 -0.1215  0.1732 -0.3997
  945MOL0     O24632   0.329   9.622   4.554  0.5174 -0.5083 -0.0615
  945MOL0     C24633   0.203   9.565   4.546 -0.9416  0.4251  0.1022
  945MOL0     C24634   0.118   9.533   4.656 -0.5125 -0.3039  0.2175
  945MOL0     C24635  -0.013   9.490   4.622  0.0073 -0.8781  0.2854
  945MOL0     C24636  -0.063   9.478   4.498  0.1884  0.8711  0.6907
  945MOL0     C24637  -0.201   9.415   4.474  0.2512  0.3956 -0.6078
  945MOL0     O24638  -0.257   9.351   4.577 -0.0345 -0.8979 -0.5078
  945MOL0     C24639  -0.360   9.263   4.561  0.0663 -0.4398 -0.1096
  945MOL0     C24640  -0.370   9.138   4.614  0.9681 -0.4010 -0.2513
  945MOL0     C24641  -0.472   9.044   4.588  0.6816 -0.3897  0.4404
  945MOL0     C24642  -0.586   9.085   4.516  0.3957  0.2289  0.0659
  945MOL0     O24643  -0.692   8.995   4.499 -0.0490  0.3942  0.6950
  945MOL0     C24644  -0.804   9.027   4.405  0.1594 -0.9099 -0.7287
  945MOL0     C24645  -0.911   8.921   4.400 -1.3127  0.1227 -0.4814
  945MOL0     C24646  -1.041   8.963   4.337  0.2884  0.1621  1.2436
  945MOL0     C24647  -1.140   8.848   4.319 -0.3743 -0.1153  0.4158
  945MOL0     C24648  -1.268   8.882   4.237  0.2746 -0.0014  0.8474
  945MOL0     C24649  -1.378   8.779   4.258 -0.0828 -0.6087 -0.3083
  945MOL0     C24650  -1.475   8.813   4.372 -0.6845 -0.3286  0.4680
  945MOL0     C24651  -1.570   8.692   4.394  0.2718 -0.3206  0.8943
  945MOL0    Cl24652  -1.644   8.672   4.237  0.4851 -0.2035  0.2725
  945MOL0     C24653  -0.586   9.224   4.472  0.0964  0.2349  0.0824
  945MOL0     C24654  -0.482   9.306   4.502  0.0037  0.0948 -0.0598
  945MOL0     O24655  -0.245   9.420   4.352 -0.0349 -0.1836 -1.0115
  945MOL0     C24656   0.025   9.516   4.395 -0.0303  0.2717 -0.2146
  945MOL0     C24657   0.156   9.561   4.417 -0.7705 -0.2505 -0.3265
  945MOL0     N24658   0.869   9.579   4.482  0.3527  0.0881 -0.1056
  945MOL0     N24659   0.990   9.534   4.484 -1.0573 -0.4608  0.2073
  945MOL0     C24660   2.100   9.627   5.092 -0.5981 -0.8105 -0.2006
  945MOL0     C24661   2.208   9.715   5.118  0.4339  0.4609  0.6812
  945MOL0     C24662   2.652   9.895   5.028 -0.1907  0.1480 -0.5512
  945MOL0     C24663   2.677   9.904   5.161 -0.1684  0.0368  0.5963
  945MOL0     C24664   2.806   9.935   5.199  0.1874  0.0524  0.4602
  945MOL0     C24665   2.906   9.975   5.115 -0.3870  0.6924  0.2846
  945MOL0     O24666   3.026  10.010   5.163  0.0814  0.6196  1.0974
  945MOL0     C24667   3.130  10.040   5.066  0.1884  0.5728 -0.1818
  945MOL0     C24668   3.258  10.087   5.147 -1.2997  0.7744  0.9172
  945MOL0     C24669   3.232  10.222   5.222  0.6847 -0.6961 -0.7345
  945MOL0     C24670   3.348  10.268   5.310 -0.1351 -0.1534 -0.2544
  945MOL0     C24671   3.465  10.296   5.218  0.7806 -0.1304 -0.2924
  945MOL0     C24672   3.556  10.303   5.142  0.1830 -0.1042  0.3754
  945MOL0     C24673   2.881   9.983   4.977 -0.0987  0.2093  0.8987
  945MOL0     C24674   2.754   9.947   4.941 -0.0226 -0.2652  0.1365
  945MOL0     H24675   2.414   9.594   4.879  0.0492 -2.9062  1.6278
  945MOL0     H24676   2.220   9.445   4.846 -4.6924  0.0069 -1.9493
  945MOL0     H24677   1.860   9.569   4.993  1.8716  1.3172  0.9656
  945MOL0     H24678   1.868   9.448   5.126  0.3945  1.2662 -0.6528
  945MOL0     H24679   1.796   9.268   4.990 -5.2440 -0.7265 -1.3154
  945MOL0     H24680   1.826   9.343   4.840  1.4048 -0.8067  0.2889
  945MOL0     H24681   1.642   9.533   4.935  0.3937 -0.2657 -1.9697
  945MOL0     H24682   1.595   9.385   5.035 -2.6517 -0.1697 -1.0673
  945MOL0     H24683   1.620   9.365   4.745  0.9352 -0.4334  0.8430
  945MOL0     H24684   1.568   9.240   4.860  2.5772  0.2098  0.4967
  945MOL0     H24685   1.406   9.511   4.840  1.0161  0.4316 -3.0953
  945MOL0     H24686   1.374   9.348   4.923  0.5545 -3.0563 -2.5667
  945MOL0     H24687   1.332   9.245   4.716 -1.7309 -0.9857  2.0046
  945MOL0     H24688   1.395   9.380   4.626 -1.6036 -0.0544 -1.7198
  945MOL0     H24689   1.141   9.331   4.789  1.0827  0.3809  0.7749
  945MOL0     H24690   1.174   9.500   4.740  2.2992  0.6560  1.2995
  945MOL0     H24691   1.132   9.245   4.566  0.3293 -0.2699  2.5948
  945MOL0     H24692   1.195   9.406   4.505  2.4895 -0.3271  0.9013
  945MOL0     H24693   0.850   9.310   4.682 -0.8751  0.1642  1.3602
  945MOL0     H24694   0.598   9.406   4.555  1.1687 -0.4724 -0.3670
  945MOL0     H24695   0.610   9.584   4.517  2.7951  2.7784  2.2678
  945MOL0     H24696   0.668   9.611   4.747 -1.9688  1.4367 -4.7798
  945MOL0     H24697   0.643   9.435   4.783 -1.8204 -0.1405  1.2657
  945MOL0     H24698   0.398   9.446   4.714 -2.8950  0.9124  1.1620
  945MOL0     H24699   0.450   9.545   4.856  0.8232  1.4014 -0.3120
  945MOL0     H24700   0.463   9.742   4.670  0.8734 -0.5843 -0.1937
  945MOL0     H24701   0.319   9.688   4.755  0.1967 -0.4511  0.2022
  945MOL0     H24702   0.152   9.510   4.756  0.2216 -2.5501 -0.4784
  945MOL0     H24703  -0.087   9.463   4.696 -2.2580  1.9027 -0.7815
  945MOL0     H24704  -0.281   9.112   4.671 -0.0264  0.0167  1.5723
  945MOL0     H24705  -0.454   8.940   4.615  3.0739 -0.5632 -1.4514
  945MOL0     H24706  -0.767   9.071   4.312  0.9704  0.5325  0.2343
  945MOL0     H24707  -0.863   9.109   4.447 -1.7646 -1.5012 -2.1318
  945MOL0     H24708  -0.936   8.880   4.498 -0.0334 -2.8974 -1.3141
  945MOL0     H24709  -0.879   8.831   4.347 -2.4000 -0.0887 -0.8196
  945MOL0     H24710  -1.019   9.021   4.246  0.8936 -0.6353  0.8632
  945MOL0     H24711  -1.096   9.030   4.403  0.1685  1.3318  0.0109
  945MOL0     H24712  -1.090   8.764   4.270 -1.3011  0.5007 -1.7604
  945MOL0     H24713  -1.161   8.818   4.422 -0.1544  0.1683  0.5456
  945MOL0     H24714  -1.236   8.872   4.132  2.5316  3.4909  1.0231
  945MOL0     H24715  -1.307   8.980   4.265 -1.6752 -1.4435  3.6274
  945MOL0     H24716  -1.328   8.684   4.277 -0.8038 -1.0286 -0.5118
  945MOL0     H24717  -1.438   8.770   4.167  0.5210  1.0301 -0.9110
  945MOL0     H24718  -1.420   8.822   4.466 -0.9451  1.7704  0.4691
  945MOL0     H24719  -1.517   8.913   4.357  3.3574  1.5211  0.1849
  945MOL0     H24720  -1.649   8.720   4.465 -0.7754 -1.1850  0.1045
  945MOL0     H24721  -1.528   8.596   4.423 -1.9182 -1.0481  1.8802
  945MOL0     H24722  -0.673   9.274   4.430 -0.2545 -0.8697 -0.5475
  945MOL0     H24723  -0.495   9.411   4.479  2.3948  0.2702 -0.9394
  945MOL0     H24724  -0.016   9.513   4.295 -2.1705  2.4104  0.5107
  945MOL0     H24725   0.216   9.611   4.342 -0.8176  1.4103  0.7049
  945MOL0     H24726   2.009   9.619   5.150 -1.0842  0.2062 -0.7906
  945MOL0     H24727   2.197   9.801   5.184 -1.3171 -0.1453  1.2470
  945MOL0     H24728   2.599   9.877   5.232  0.0983 -3.7022 -0.2794
  945MOL0     H24729   2.820   9.952   5.305 -3.0269  1.1626  0.8357
  945MOL0     H24730   3.110  10.133   5.012 -0.3625 -0.4625 -1.7864
  945MOL0     H24731   3.147   9.952   5.004 -1.4932 -1.3827  1.9707
  945MOL0     H24732   3.265  10.005   5.219  0.7025 -1.1240 -1.3030
  945MOL0     H24733   3.347  10.087   5.084  1.3469 -3.1692  4.1330
  945MOL0     H24734   3.143  10.217   5.286  1.0791  0.4782 -0.0554
  945MOL0     H24735   3.203  10.301   5.152 -5.5404 -0.4936  1.4523
  945MOL0     H24736   3.317  10.356   5.368 -0.8812  0.0628 -0.9632
  945MOL0     H24737   3.373  10.184   5.375 -1.4249  0.1406  0.6606
  945MOL0     H24738   3.630  10.289   5.066  1.7986 -2.1976  2.2025
  945MOL0     H24739   2.959  10.005   4.905  1.5549 -1.0698  2.1970
  945MOL0     H24740   2.737   9.953   4.834 -3.0877 -0.3868  0.5341
  946MOL0     O24741   7.403   4.219   8.677  0.4095  0.1056  0.1196
  946MOL0     C24742   7.428   4.152   8.576  0.8444 -0.4600  0.3019
  946MOL0     O24743   7.333   4.117   8.471  0.5070  0.0841 -0.6091
  946MOL0     C24744   7.201   4.158   8.488 -0.4410  0.2209  0.5577
  946MOL0     C24745   7.140   4.250   8.399 -0.0834 -1.1851 -0.5781
  946MOL0     C24746   7.003   4.263   8.398  0.5712  0.0957 -0.4263
  946MOL0     C24747   6.928   4.206   8.499 -0.7098 -0.6430 -0.4367
  946MOL0     O24748   6.799   4.252   8.500  0.7633 -0.8313  0.3476
  946MOL0     C24749   6.722   4.206   8.610  0.2612  0.1391 -0.2416
  946MOL0     C24750   6.586   4.269   8.575  0.6020  0.4500  0.0679
  946MOL0     C24751   6.471   4.220   8.665 -1.0421  0.3930 -0.7870
  946MOL0     C24752   6.345   4.280   8.614 -0.0681 -0.5278  0.6112
  946MOL0     C24753   6.226   4.234   8.698  1.0793 -0.2780 -0.3384
  946MOL0     C24754   6.089   4.266   8.634 -0.3920 -0.1082 -0.8638
  946MOL0     C24755   6.040   4.164   8.529 -0.2157  0.6805 -0.4737
  946MOL0     C24756   5.949   4.061   8.589  0.8543 -1.0836 -0.0993
  946MOL0     N24757   5.921   3.957   8.487  0.4130  0.9277  0.0853
  946MOL0     C24758   5.989   3.837   8.486 -1.0544  0.7183  1.1533
  946MOL0     C24759   5.973   3.767   8.370 -0.1976 -0.7067 -0.3634
  946MOL0     C24760   6.040   3.634   8.333 -0.7387  0.3056  0.4129
  946MOL0     C24761   6.100   3.623   8.189 -0.0470 -0.0590 -0.5118
  946MOL0     C24762   6.216   3.722   8.178  0.8673 -0.1589 -0.2573
  946MOL0     C24763   6.230   3.762   8.037  0.2155  0.2390  1.0080
  946MOL0     O24764   6.277   3.652   7.965 -0.4503 -0.1340 -0.5555
  946MOL0     C24765   6.414   3.619   7.965  0.2919 -0.8734 -0.4520
  946MOL0     C24766   6.461   3.500   8.030  0.8990  0.1074  0.0072
  946MOL0     C24767   6.605   3.467   8.024  0.6267 -0.8486 -0.2593
  946MOL0     C24768   6.703   3.555   7.964  0.0688  0.1388  0.3214
  946MOL0     C24769   6.839   3.521   7.953  1.0768 -0.0429 -0.3792
  946MOL0     O24770   6.906   3.585   7.866 -0.5517 -0.1541 -0.1266
  946MOL0     C24771   7.043   3.603   7.866 -0.1775  0.3595 -0.0547
  946MOL0     C24772   7.136   3.574   7.969  0.4156 -0.4229 -0.6043
  946MOL0     C24773   7.275   3.617   7.953  0.7908 -0.1265 -0.8435
  946MOL0     C24774   7.329   3.663   7.829  0.3460  0.8911 -0.9396
  946MOL0     O24775   7.456   3.684   7.801 -0.0976  0.3694  0.1260
  946MOL0     C24776   7.546   3.706   7.914  0.3641  0.6325 -0.2477
  946MOL0     C24777   7.695   3.696   7.848  0.1782 -0.4316  0.7511
  946MOL0     C24778   7.803   3.725   7.953  0.0293  0.0814 -0.6815
  946MOL0     C24779   7.939   3.679   7.902 -0.0454  0.2649  0.6316
  946MOL0     C24780   8.056   3.709   7.999 -0.1614  0.0002  0.0936
  946MOL0     C24781   8.195   3.701   7.930 -0.1047  0.2957  0.7906
  946MOL0     C24782   8.301   3.722   8.043 -0.7265  0.0494  0.1812
  946MOL0     C24783   8.440   3.772   7.996 -0.9171  0.5727  0.2347
  946MOL0    Cl24784   8.551   3.820   8.131 -0.5371  0.0749  0.3203
  946MOL0     C24785   7.238   3.676   7.731 -0.6289 -0.5312 -0.1231
  946MOL0     C24786   7.098   3.659   7.745  0.7253 -0.0633 -0.6655
  946MOL0     O24787   6.878   3.427   8.026  0.4588 -1.4022 -1.1213
  946MOL0     C24788   6.654   3.684   7.930 -0.9592  0.2116 -0.2106
  946MOL0     C24789   6.516   3.706   7.923  0.1040 -0.0513  0.1856
  946MOL0     N24790   5.899   3.859   8.300  0.1811  0.2414 -0.0867
  946MOL0     N24791   5.865   3.966   8.367  0.3744 -0.0033  0.0843
  946MOL0     C24792   6.990   4.115   8.587  0.4078 -0.8102  0.2833
  946MOL0     C24793   7.131   4.087   8.585  0.2384 -1.0445  0.1233
  946MOL0     C24794   7.572   4.115   8.560  0.1464 -1.4296 -0.8278
  946MOL0     C24795   7.682   4.181   8.631  0.3715  0.5265  0.4001
  946MOL0     C24796   7.812   4.133   8.628  0.7259  0.6107  0.4900
  946MOL0     C24797   7.847   4.024   8.546 -0.0439  0.4663  0.2578
  946MOL0     O24798   7.978   4.000   8.525  0.0983  0.0118 -0.2263
  946MOL0     C24799   8.021   3.880   8.468  0.2807  1.2677 -1.0571
  946MOL0     C24800   8.176   3.861   8.467  0.2379  0.8417 -0.4160
  946MOL0     C24801   8.235   3.992   8.424 -0.4755 -0.1138 -0.1405
  946MOL0     C24802   8.381   3.990   8.376 -0.3172  0.0124  0.2392
  946MOL0     C24803   8.476   3.918   8.459  0.2020  0.6499 -0.6064
  946MOL0     C24804   8.554   3.859   8.532 -0.1575  0.5985  0.4489
  946MOL0     C24805   7.744   3.975   8.464 -1.6771  1.0441 -0.1373
  946MOL0     C24806   7.620   4.017   8.470 -0.2728  0.1759 -0.1520
  946MOL0     H24807   7.202   4.307   8.331 -2.2155  0.8151 -0.9563
  946MOL0     H24808   6.957   4.342   8.338  0.9588  0.3062 -0.4483
  946MOL0     H24809   6.765   4.245   8.702 -0.0862 -0.4210  0.1688
  946MOL0     H24810   6.703   4.099   8.627 -1.1214  0.3847 -0.1482
  946MOL0     H24811   6.551   4.249   8.473  1.1086  0.5704 -0.1332
  946MOL0     H24812   6.597   4.376   8.595  0.7436  0.4433  0.0275
  946MOL0     H24813   6.488   4.236   8.772 -0.7449 -1.5858 -0.4948
  946MOL0     H24814   6.469   4.111   8.656  0.4712  0.1690  0.9366
  946MOL0     H24815   6.357   4.389   8.615  1.0073 -0.5904 -0.9367
  946MOL0     H24816   6.329   4.252   8.509 -1.5403 -1.1929  0.9887
  946MOL0     H24817   6.227   4.275   8.799 -1.2416  2.1064 -1.1854
  946MOL0     H24818   6.231   4.125   8.713  1.2186 -0.3252 -0.7103
  946MOL0     H24819   6.111   4.358   8.578  0.2010 -0.1858 -0.7636
  946MOL0     H24820   6.005   4.292   8.700 -0.0912  2.6659 -1.4333
  946MOL0     H24821   5.984   4.203   8.444 -1.2546 -2.4148 -1.3712
  946MOL0     H24822   6.129   4.115   8.489  0.8540  1.1795  1.1972
  946MOL0     H24823   5.856   4.109   8.621  1.8081  0.7476  0.0126
  946MOL0     H24824   5.991   4.020   8.681  0.4942  1.7970  1.4507
  946MOL0     H24825   6.061   3.804   8.560  2.0057 -1.4917 -2.4429
  946MOL0     H24826   5.973   3.552   8.357  0.5990 -2.1429 -3.2666
  946MOL0     H24827   6.123   3.613   8.401 -0.3148 -1.7196 -0.6460
  946MOL0     H24828   6.026   3.647   8.112  0.2689  2.9467  0.0076
  946MOL0     H24829   6.147   3.525   8.175  0.5334  0.2206 -0.5773
  946MOL0     H24830   6.197   3.814   8.235 -1.6953 -1.4178  1.0930
  946MOL0     H24831   6.314   3.690   8.216  0.3629 -0.4180  0.8572
  946MOL0     H24832   6.285   3.855   8.023 -2.5181  1.4611 -3.5169
  946MOL0     H24833   6.133   3.797   8.002 -0.0906  0.2677  1.8580
  946MOL0     H24834   6.373   3.441   8.056  1.8434 -1.3697 -0.0290
  946MOL0     H24835   6.639   3.368   8.054  2.5127 -0.7028 -1.7343
  946MOL0     H24836   7.110   3.535   8.067 -1.4602  0.1658 -0.8152
  946MOL0     H24837   7.331   3.603   8.045 -0.3850  2.7865  0.4322
  946MOL0     H24838   7.547   3.632   7.995  0.0380  1.5133  0.5888
  946MOL0     H24839   7.527   3.805   7.955  0.5635  0.4983  0.1744
  946MOL0     H24840   7.700   3.756   7.757  0.2607  1.1118  1.7483
  946MOL0     H24841   7.716   3.595   7.810  2.1256 -0.3000  1.3685
  946MOL0     H24842   7.781   3.682   8.051  1.9173  0.5945  0.0182
  946MOL0     H24843   7.799   3.831   7.983 -1.5202 -0.8052  2.7845
  946MOL0     H24844   7.932   3.571   7.886 -0.6867  0.5982 -1.5594
  946MOL0     H24845   7.955   3.727   7.806 -0.1415 -0.8299  0.0481
  946MOL0     H24846   8.047   3.635   8.078  2.1795  1.8074  2.2129
  946MOL0     H24847   8.052   3.806   8.049 -3.1220 -1.0846  2.2038
  946MOL0     H24848   8.208   3.774   7.849 -0.9805 -0.5918 -0.1871
  946MOL0     H24849   8.221   3.603   7.889  2.0085  0.3643  1.8438
  946MOL0     H24850   8.269   3.789   8.124  1.8963 -1.0428  2.2719
  946MOL0     H24851   8.325   3.627   8.091  3.1874  0.2474 -1.0546
  946MOL0     H24852   8.424   3.853   7.925 -2.0230  0.9060  0.8285
  946MOL0     H24853   8.478   3.692   7.932 -3.8014  0.0824 -1.0198
  946MOL0     H24854   7.267   3.718   7.635  0.7257  1.1169  0.9549
  946MOL0     H24855   7.033   3.677   7.660  0.7799 -2.7753 -1.3782
  946MOL0     H24856   6.715   3.770   7.907  1.1089 -0.9207  0.7390
  946MOL0     H24857   6.474   3.795   7.877 -3.1533 -1.0632  0.9164
  946MOL0     H24858   6.920   4.081   8.663  1.8132  0.3197  2.1704
  946MOL0     H24859   7.188   4.026   8.655  1.0458  0.4024  0.7622
  946MOL0     H24860   7.662   4.269   8.692  0.0821 -0.6206  2.0157
  946MOL0     H24861   7.889   4.192   8.677  2.2424  1.8083 -3.0352
  946MOL0     H24862   7.988   3.872   8.364 -0.0314  0.8702 -0.9324
  946MOL0     H24863   7.980   3.797   8.526  3.3497  0.4391  0.1094
  946MOL0     H24864   8.208   3.830   8.567  1.2810 -1.3439 -1.3604
  946MOL0     H24865   8.191   3.771   8.407  1.1675  1.4087 -1.0641
  946MOL0     H24866   8.235   4.064   8.507 -1.2237  0.8786 -0.9742
  946MOL0     H24867   8.184   4.044   8.343  1.1441  2.0285  0.1390
  946MOL0     H24868   8.384   3.952   8.274 -3.2301  0.9901 -0.3087
  946MOL0     H24869   8.421   4.092   8.371  2.2525 -0.9716 -1.1580
  946MOL0     H24870   8.611   3.800   8.600 -2.7610 -2.7301 -0.0181
  946MOL0     H24871   7.769   3.907   8.383  0.1119  1.9391 -0.3948
  946MOL0     H24872   7.557   3.959   8.404 -1.3922 -1.2788  2.0850
  947MOL0     O24873   8.528   3.984   1.816  0.8688 -0.6550  0.5329
  947MOL0     C24874   8.625   3.939   1.884 -0.2171  0.2664  0.1453
  947MOL0     O24875   8.627   3.810   1.943  0.8002 -0.3144 -0.7706
  947MOL0     C24876   8.510   3.735   1.947  0.3382 -0.9702  0.2194
  947MOL0     C24877   8.512   3.605   1.995 -0.1794  0.3006 -0.6249
  947MOL0     C24878   8.408   3.508   1.984 -0.1012 -0.1544 -0.4269
  947MOL0     C24879   8.289   3.539   1.923 -1.2575 -0.6668 -0.2027
  947MOL0     O24880   8.186   3.452   1.933  0.4818 -0.8741 -0.5430
  947MOL0     C24881   8.087   3.460   1.819 -0.3196 -0.1003  0.4626
  947MOL0     C24882   8.008   3.331   1.820 -0.0000  0.4627 -0.9026
  947MOL0     C24883   7.880   3.333   1.734  0.0590 -0.9888 -0.3306
  947MOL0     C24884   7.806   3.198   1.746  0.1711  1.4089  0.8507
  947MOL0     C24885   7.676   3.204   1.674  0.9676  0.5891 -1.3801
  947MOL0     C24886   7.589   3.080   1.727  0.1420  0.1461  0.6367
  947MOL0     C24887   7.438   3.097   1.693 -0.8788  0.0258  0.3490
  947MOL0     C24888   7.371   2.962   1.729  0.3789  0.4718  0.5990
  947MOL0     N24889   7.229   2.978   1.687  0.4851  0.2145  0.0789
  947MOL0     C24890   7.143   3.041   1.773 -0.4525 -0.6968  0.2597
  947MOL0     C24891   7.039   3.075   1.690  0.7420 -0.5811 -0.0842
  947MOL0     C24892   6.955   3.190   1.724  0.7159 -0.7725 -0.2508
  947MOL0     C24893   6.803   3.166   1.744  0.4929  0.1216 -0.3654
  947MOL0     C24894   6.783   3.088   1.882 -0.5237 -0.5869  0.3040
  947MOL0     C24895   6.641   3.042   1.893 -0.7689  0.4821  0.3432
  947MOL0     O24896   6.616   2.944   1.796 -0.1342 -0.5910  0.2138
  947MOL0     C24897   6.497   2.872   1.821  0.9334 -0.6761 -0.5127
  947MOL0     C24898   6.471   2.748   1.769 -0.0958 -0.1844  0.4026
  947MOL0     C24899   6.353   2.679   1.798 -0.0587 -0.9869  0.3897
  947MOL0     C24900   6.245   2.737   1.863 -0.4098 -0.4511 -0.0986
  947MOL0     C24901   6.127   2.655   1.893 -0.7972  0.2647  0.6185
  947MOL0     O24902   6.111   2.520   1.866 -0.0130 -0.3582  0.0758
  947MOL0     C24903   5.988   2.474   1.897  0.0315 -0.4532 -0.1285
  947MOL0     C24904   5.967   2.406   2.018  0.1575  0.4367  0.2889
  947MOL0     C24905   5.839   2.352   2.042  0.1264  0.0771  0.3306
  947MOL0     C24906   5.734   2.366   1.954  0.9203 -0.0110  0.1226
  947MOL0     O24907   5.608   2.314   1.960  0.4865  0.0032 -0.2778
  947MOL0     C24908   5.571   2.220   2.063  0.4402 -0.1167  0.3828
  947MOL0     C24909   5.457   2.140   2.002 -0.4319  0.4699  0.8176
  947MOL0     C24910   5.369   2.048   2.093 -0.2512 -0.2652  0.0286
  947MOL0     C24911   5.239   2.006   2.023  0.9041 -0.7852 -0.7693
  947MOL0     C24912   5.172   1.899   2.108 -0.5025  0.4256 -0.5459
  947MOL0     C24913   5.026   1.884   2.059  0.5167 -0.3308  0.0602
  947MOL0     C24914   4.952   1.799   2.160  0.2339  0.3629  0.3721
  947MOL0     C24915   4.804   1.768   2.119 -0.3905 -0.2817  0.5360
  947MOL0    Cl24916   4.799   1.675   1.961  0.4037  0.0260 -0.3389
  947MOL0     C24917   5.745   2.456   1.845 -0.2329 -0.1124  0.4309
  947MOL0     C24918   5.873   2.508   1.816  1.2246 -0.4026 -0.0526
  947MOL0     O24919   6.050   2.728   1.959 -0.1907 -0.5260 -0.8212
  947MOL0     C24920   6.271   2.868   1.918  0.7292  0.2737 -0.4553
  947MOL0     C24921   6.396   2.919   1.911 -0.5674  1.0749  0.0452
  947MOL0     N24922   7.050   3.026   1.561  0.6486  0.1394 -0.5206
  947MOL0     N24923   7.178   2.980   1.560 -0.0527  0.2971 -0.2587
  947MOL0     C24924   8.281   3.675   1.875 -0.1413 -0.5073  0.2946
  947MOL0     C24925   8.384   3.766   1.888  0.2115 -0.6520  0.4056
  947MOL0     C24926   8.755   4.016   1.908  0.8485  0.8218 -0.2708
  947MOL0     C24927   8.867   3.958   1.962  0.3138  0.3981  0.3016
  947MOL0     C24928   8.998   4.010   1.958 -0.0363  0.2691 -0.4485
  947MOL0     C24929   9.006   4.134   1.898 -0.3721 -0.3917  0.7963
  947MOL0     O24930   9.128   4.187   1.859  0.0102  0.3294  0.4230
  947MOL0     C24931   9.249   4.150   1.930 -0.1869 -0.8737 -0.5704
  947MOL0     C24932   9.357   4.255   1.894 -0.5075 -0.8518 -0.3205
  947MOL0     C24933   9.498   4.221   1.948  0.8797 -0.3513 -0.6965
  947MOL0     C24934   9.594   4.344   1.953 -0.2210  0.4901  0.3411
  947MOL0     C24935   9.655   4.380   1.826  1.0338 -0.9609 -0.2673
  947MOL0     C24936   9.729   4.415   1.740  0.0879  0.3371  0.5154
  947MOL0     C24937   8.889   4.192   1.844  0.7486 -0.5220 -0.3130
  947MOL0     C24938   8.767   4.140   1.851  0.3396 -0.0245  0.2740
  947MOL0     H24939   8.604   3.582   2.048 -1.4795  2.1305  2.7329
  947MOL0     H24940   8.418   3.409   2.026  2.1089 -0.9209 -2.4986
  947MOL0     H24941   8.137   3.470   1.723  2.1171  2.4499  1.8530
  947MOL0     H24942   8.023   3.546   1.841 -0.3759 -0.6123  2.5888
  947MOL0     H24943   7.977   3.319   1.925 -0.9536  1.7510 -1.0117
  947MOL0     H24944   8.067   3.248   1.781  1.4012  1.1548 -0.3272
  947MOL0     H24945   7.904   3.356   1.630 -2.0765  2.1509 -0.2833
  947MOL0     H24946   7.813   3.406   1.782  0.2009  0.1652 -1.8259
  947MOL0     H24947   7.854   3.112   1.697  1.5195  2.2109  0.7145
  947MOL0     H24948   7.779   3.177   1.850 -3.1842 -1.7226 -0.4061
  947MOL0     H24949   7.681   3.195   1.565  0.9311 -0.5321 -1.2908
  947MOL0     H24950   7.617   3.294   1.695 -3.4153 -2.2322 -0.5056
  947MOL0     H24951   7.609   3.055   1.831  0.7847 -1.9025  0.0606
  947MOL0     H24952   7.623   2.985   1.685 -2.1161 -1.9743  3.2602
  947MOL0     H24953   7.404   3.186   1.747  1.5331  1.1138  0.2060
  947MOL0     H24954   7.427   3.119   1.587 -1.1691 -2.3622 -0.1630
  947MOL0     H24955   7.382   2.944   1.837 -0.9203  1.2220  0.8772
  947MOL0     H24956   7.428   2.888   1.671  1.6129  1.6799  0.2297
  947MOL0     H24957   7.178   3.081   1.867  2.5273 -1.1538 -0.5698
  947MOL0     H24958   6.950   3.280   1.663  2.9120  0.7590  1.6361
  947MOL0     H24959   6.997   3.227   1.818 -1.7893  1.2011  0.1878
  947MOL0     H24960   6.766   3.103   1.663  2.7812 -2.3344  0.3671
  947MOL0     H24961   6.746   3.260   1.752  0.6403  0.3467 -1.8223
  947MOL0     H24962   6.855   3.008   1.897 -0.9023 -0.9468  0.2389
  947MOL0     H24963   6.797   3.158   1.965  1.1211  3.2034 -2.8455
  947MOL0     H24964   6.575   3.125   1.866  1.8521  2.3868 -0.5661
  947MOL0     H24965   6.627   3.014   1.998 -1.0584  2.4168  0.8709
  947MOL0     H24966   6.538   2.692   1.704 -3.2029 -0.9586 -2.4405
  947MOL0     H24967   6.339   2.576   1.766 -1.4121 -0.7223  0.0861
  947MOL0     H24968   6.058   2.391   2.075  0.9169  4.5908  0.4963
  947MOL0     H24969   5.837   2.301   2.138  3.5215 -0.8537  0.0497
  947MOL0     H24970   5.524   2.268   2.149 -2.1177  3.3110 -2.6288
  947MOL0     H24971   5.654   2.161   2.102 -1.0395 -0.9822  2.4529
  947MOL0     H24972   5.497   2.071   1.927  0.7315 -0.2462  2.0441
  947MOL0     H24973   5.394   2.217   1.958  0.0660 -0.7311 -2.3091
  947MOL0     H24974   5.336   2.097   2.185 -0.7319 -3.2532  1.5513
  947MOL0     H24975   5.424   1.959   2.123  1.1798 -0.1729 -2.1089
  947MOL0     H24976   5.168   2.088   2.009 -0.1643 -1.6286 -0.4454
  947MOL0     H24977   5.266   1.960   1.927 -0.7493  1.9946 -2.7280
  947MOL0     H24978   5.169   1.915   2.217 -1.6072  2.0549 -0.7802
  947MOL0     H24979   5.234   1.813   2.082 -0.9114  0.5677 -2.0301
  947MOL0     H24980   5.018   1.835   1.961 -0.3997 -1.0485  0.4792
  947MOL0     H24981   4.977   1.982   2.058 -2.6441 -1.7753 -1.8184
  947MOL0     H24982   5.001   1.703   2.174 -1.4568 -0.5806  0.0425
  947MOL0     H24983   4.931   1.840   2.260 -2.3423 -4.0789  1.9132
  947MOL0     H24984   4.740   1.856   2.105  0.4729  0.6804  2.3115
  947MOL0     H24985   4.761   1.710   2.200  0.1500 -1.3293  0.0894
  947MOL0     H24986   5.664   2.482   1.778  0.8994 -0.0544 -0.9560
  947MOL0     H24987   5.889   2.571   1.730 -0.5339  1.3523  0.8132
  947MOL0     H24988   6.208   2.927   1.983  2.0680 -0.0071  1.1784
  947MOL0     H24989   6.410   3.006   1.976 -3.5157  0.4145  1.7561
  947MOL0     H24990   8.185   3.705   1.833 -0.1723 -2.1887 -0.9701
  947MOL0     H24991   8.353   3.855   1.834  0.5597  0.2195  1.5894
  947MOL0     H24992   8.857   3.870   2.025 -0.7490 -0.0214 -0.4200
  947MOL0     H24993   9.088   3.959   1.990  2.0182  1.5841 -3.7121
  947MOL0     H24994   9.279   4.048   1.903  1.8358 -0.3129 -0.6243
  947MOL0     H24995   9.244   4.153   2.040  1.8034 -2.6010 -0.3653
  947MOL0     H24996   9.367   4.255   1.785 -3.2165  1.1371 -0.6586
  947MOL0     H24997   9.322   4.349   1.936  0.5488 -0.9485  0.8409
  947MOL0     H24998   9.547   4.140   1.893 -2.6648 -1.0600 -3.1933
  947MOL0     H24999   9.489   4.169   2.044 -1.7325 -3.2235 -2.2815
  947MOL0     H25000   9.542   4.428   2.000 -1.7202 -0.8739  1.2664
  947MOL0     H25001   9.675   4.323   2.024 -0.0645 -2.7895 -0.6042
  947MOL0     H25002   9.795   4.435   1.658  2.7626 -2.2254  1.8585
  947MOL0     H25003   8.907   4.282   1.787 -2.3353  0.5613  0.2166
  947MOL0     H25004   8.680   4.186   1.805  1.5221  4.0043  1.6470
  948MOL0     O25005   5.238   9.926   7.671 -0.0693 -0.5175  0.0324
  948MOL0     C25006   5.231  10.027   7.599  0.1434  1.6265  0.1615
  948MOL0     O25007   5.114  10.082   7.552 -0.3607  0.1713 -0.1737
  948MOL0     C25008   4.996  10.061   7.615 -0.0236  0.3421  0.4523
  948MOL0     C25009   4.971  10.069   7.757 -0.5275  0.7944  0.4599
  948MOL0     C25010   4.849  10.045   7.811  0.4607 -0.3600 -0.1727
  948MOL0     C25011   4.736  10.038   7.731 -0.0622  0.9902 -0.5180
  948MOL0     O25012   4.611  10.045   7.783 -0.2719 -0.1675 -0.0507
  948MOL0     C25013   4.584   9.971   7.904 -0.1265 -0.6510  0.3072
  948MOL0     C25014   4.432   9.938   7.905 -0.2341 -0.3929  0.1885
  948MOL0     C25015   4.361  10.063   7.936  0.4034 -0.3087 -0.7923
  948MOL0     C25016   4.213  10.036   7.897 -0.3684 -0.5917  0.1771
  948MOL0     C25017   4.113  10.148   7.931  1.1753  0.0533  0.5086
  948MOL0     C25018   3.962  10.135   7.892  0.2001 -0.1929  0.1644
  948MOL0     C25019   3.948  10.040   7.772 -0.3635 -0.3293 -0.1397
  948MOL0     C25020   3.805  10.022   7.711  0.8716 -0.2127 -1.4079
  948MOL0     N25021   3.715   9.971   7.813 -0.8092 -0.0168  0.5158
  948MOL0     C25022   3.617  10.032   7.885  0.7467  0.3101 -0.2980
  948MOL0     C25023   3.573   9.940   7.974  0.1714  0.3322 -0.1123
  948MOL0     C25024   3.466   9.954   8.075  1.0023 -0.1118 -1.0031
  948MOL0     C25025   3.534  10.006   8.207 -1.5584 -0.5333 -0.5347
  948MOL0     C25026   3.440  10.045   8.325  0.2415 -0.0351 -0.7470
  948MOL0     C25027   3.354   9.929   8.391  0.3339 -0.4749 -0.5582
  948MOL0     O25028   3.290   9.965   8.510  0.4766  0.0591 -0.9950
  948MOL0     C25029   3.163   9.921   8.529  0.2904 -0.0262  0.7734
  948MOL0     C25030   3.121   9.793   8.506 -0.2260  0.6717 -0.2169
  948MOL0     C25031   2.988   9.752   8.515  0.2882 -0.6900 -0.8010
  948MOL0     C25032   2.889   9.837   8.565  0.4820  0.2286  0.1014
  948MOL0     C25033   2.747   9.800   8.584 -0.6996 -0.0970 -0.1740
  948MOL0     O25034   2.671   9.884   8.662  0.4806  0.6215  0.6748
  948MOL0     C25035   2.539   9.844   8.681 -0.1994  0.4712 -0.0327
  948MOL0     C25036   2.502   9.770   8.792  0.9387  0.3312 -0.6824
  948MOL0     C25037   2.366   9.724   8.801 -0.1883 -0.5890 -0.1094
  948MOL0     C25038   2.278   9.756   8.699  0.6240  0.5293 -0.8676
  948MOL0     O25039   2.164   9.690   8.725  0.7244  0.3191  0.3567
  948MOL0     C25040   2.130   9.582   8.634 -0.3338 -0.4689  0.2210
  948MOL0     C25041   2.018   9.496   8.671  0.6256 -0.2384 -0.0577
  948MOL0     C25042   2.042   9.420   8.803  0.2224  0.5631  0.7974
  948MOL0     C25043   1.907   9.345   8.828  0.8161  0.0012 -0.4481
  948MOL0     C25044   1.907   9.262   8.945  0.5903 -0.0435  0.5199
  948MOL0     C25045   1.862   9.331   9.074  0.9200 -0.1868 -0.9337
  948MOL0     C25046   1.857   9.232   9.196  0.1362 -0.3491  0.4774
  948MOL0     C25047   1.752   9.259   9.302 -0.1079  0.0434 -0.1735
  948MOL0    Cl25048   1.582   9.220   9.243 -0.3613  0.2452  0.3460
  948MOL0     C25049   2.308   9.827   8.587 -0.5817  0.0658  0.4303
  948MOL0     C25050   2.442   9.870   8.577 -0.2090 -0.3879  0.6154
  948MOL0     O25051   2.724   9.691   8.541  0.5315 -0.6474 -0.0949
  948MOL0     C25052   2.925   9.973   8.579 -0.0414  0.8739  0.1021
  948MOL0     C25053   3.062  10.015   8.560  0.4204  0.4870 -0.0019
  948MOL0     N25054   3.652   9.829   7.967 -0.6708  0.7167  0.5210
  948MOL0     N25055   3.732   9.845   7.859  0.1015  0.3845  0.0393
  948MOL0     C25056   4.757  10.040   7.595 -0.7196  0.1388  0.1052
  948MOL0     C25057   4.886  10.033   7.535 -0.1022 -0.1718 -0.2241
  948MOL0     C25058   5.363  10.068   7.541  0.0469 -0.1556  0.0370
  948MOL0     C25059   5.482   9.997   7.547  0.3714  0.0500 -0.8052
  948MOL0     C25060   5.594  10.054   7.513 -0.3558  0.0584  0.7559
  948MOL0     C25061   5.603  10.188   7.465 -0.3293  0.1905  0.4458
  948MOL0     O25062   5.717  10.245   7.426  1.1550  0.4986 -0.1553
  948MOL0     C25063   5.830  10.204   7.499 -0.4154 -0.5131  0.2798
  948MOL0     C25064   5.939  10.311   7.482 -1.0736  0.6212 -0.0588
  948MOL0     C25065   6.061  10.268   7.558 -0.0720 -0.9606 -0.5715
  948MOL0     C25066   6.166  10.383   7.560 -0.1682  0.4167  0.3150
  948MOL0     C25067   6.298  10.337   7.606 -0.2392 -1.0871  0.5048
  948MOL0     C25068   6.400  10.285   7.637 -0.9871  0.0212  0.0159
  948MOL0     C25069   5.486  10.255   7.432 -0.4934 -0.1727 -0.8519
  948MOL0     C25070   5.362  10.195   7.474 -0.3984  0.6286 -0.4205
  948MOL0     H25071   5.058  10.092   7.819  0.7767 -2.6789  0.1299
  948MOL0     H25072   4.836  10.063   7.918  2.3756  1.4594 -0.1646
  948MOL0     H25073   4.603  10.036   7.989  1.9450 -0.2795 -0.3689
  948MOL0     H25074   4.634   9.873   7.907 -2.1684 -1.8135 -0.8842
  948MOL0     H25075   4.419   9.858   7.979 -0.0738  0.7251  1.4480
  948MOL0     H25076   4.408   9.901   7.805  1.0562 -0.2581 -0.1903
  948MOL0     H25077   4.374  10.152   7.874 -2.3784  0.5488 -0.2797
  948MOL0     H25078   4.382  10.085   8.041  1.7927 -2.2395 -0.6125
  948MOL0     H25079   4.214  10.033   7.788  0.6475  0.1228  0.1517
  948MOL0     H25080   4.182   9.938   7.935  2.9039 -1.8152  0.0342
  948MOL0     H25081   4.136  10.242   7.880 -3.0005  0.6321 -0.6704
  948MOL0     H25082   4.115  10.171   8.038  0.7133 -1.7919  0.9568
  948MOL0     H25083   3.921  10.236   7.883  1.6885  0.6069  1.7977
  948MOL0     H25084   3.920  10.101   7.987 -0.4525 -1.2534 -0.4828
  948MOL0     H25085   4.008  10.075   7.687  0.6440  0.9651  1.0716
  948MOL0     H25086   3.981   9.942   7.807 -4.2421 -1.4240  1.0237
  948MOL0     H25087   3.812   9.950   7.629 -0.6145 -0.6655 -1.1601
  948MOL0     H25088   3.757  10.114   7.679 -1.2915  0.4837  3.0525
  948MOL0     H25089   3.583  10.136   7.887 -3.4171 -0.8554  1.9357
  948MOL0     H25090   3.414   9.861   8.101  0.8464  0.1501 -0.3666
  948MOL0     H25091   3.393  10.032   8.051 -1.7178 -0.5849  4.2621
  948MOL0     H25092   3.601  10.083   8.168  1.2383 -3.8041 -2.7715
  948MOL0     H25093   3.603   9.929   8.243  1.2482  1.7196 -0.7622
  948MOL0     H25094   3.509  10.079   8.403 -0.1887 -3.3503  1.2697
  948MOL0     H25095   3.372  10.120   8.282 -0.5921 -0.7945 -0.7841
  948MOL0     H25096   3.420   9.847   8.421  2.5670  1.4005 -0.0294
  948MOL0     H25097   3.282   9.902   8.313 -0.0993  1.6013 -0.9459
  948MOL0     H25098   3.189   9.709   8.488 -1.2609  0.0002 -1.1247
  948MOL0     H25099   2.960   9.653   8.481  5.7835 -1.8138 -3.1804
  948MOL0     H25100   2.577   9.746   8.867  0.9913 -0.4891 -0.9996
  948MOL0     H25101   2.342   9.669   8.890  1.4948 -0.4173  0.4991
  948MOL0     H25102   2.215   9.515   8.619 -1.0803 -1.4086  0.0486
  948MOL0     H25103   2.103   9.634   8.542 -1.8476 -1.9432 -0.2237
  948MOL0     H25104   1.997   9.430   8.586 -0.3511 -2.4747  1.8074
  948MOL0     H25105   1.934   9.565   8.681 -0.4974 -1.8181  2.0940
  948MOL0     H25106   2.070   9.483   8.888 -0.3213  2.7325 -0.5457
  948MOL0     H25107   2.112   9.337   8.786  0.3816  0.6481  1.0368
  948MOL0     H25108   1.825   9.417   8.825  0.7355 -0.0808 -0.2108
  948MOL0     H25109   1.889   9.272   8.748  2.2159 -1.8700  0.8584
  948MOL0     H25110   1.999   9.205   8.962  1.6053  1.2461 -0.4247
  948MOL0     H25111   1.828   9.190   8.920 -0.2959  1.5849 -1.6987
  948MOL0     H25112   1.766   9.383   9.061  0.0702 -0.3890  3.2366
  948MOL0     H25113   1.927   9.417   9.092  1.5302 -1.1688  2.0048
  948MOL0     H25114   1.817   9.136   9.163 -2.9878  0.1345  2.3655
  948MOL0     H25115   1.951   9.212   9.249  0.7009 -0.9258 -0.7025
  948MOL0     H25116   1.760   9.362   9.337  1.4727 -0.2232  0.3599
  948MOL0     H25117   1.770   9.202   9.394 -0.7543 -0.8805 -0.6060
  948MOL0     H25118   2.247   9.850   8.501  0.5676  3.0406  0.2881
  948MOL0     H25119   2.462   9.926   8.486 -0.6924  0.4347  1.0047
  948MOL0     H25120   2.856  10.051   8.609 -0.2372  1.5541 -1.9717
  948MOL0     H25121   3.088  10.118   8.584  0.3612  0.0753  2.0007
  948MOL0     H25122   4.674  10.034   7.526 -0.3696 -1.4783 -0.2197
  948MOL0     H25123   4.894  10.030   7.427  1.3772 -0.5550 -0.1228
  948MOL0     H25124   5.470   9.896   7.585 -1.1051 -0.5381 -2.6728
  948MOL0     H25125   5.687   9.998   7.525 -1.1046 -1.5006 -0.3447
  948MOL0     H25126   5.869  10.114   7.451 -0.9629 -0.3885 -0.4156
  948MOL0     H25127   5.815  10.195   7.607  1.5824  0.7978  0.7368
  948MOL0     H25128   5.962  10.316   7.375 -0.3250 -3.0189 -0.1968
  948MOL0     H25129   5.912  10.410   7.517  1.7959  0.3934  3.3052
  948MOL0     H25130   6.101  10.179   7.508  0.8458 -2.5378  2.6988
  948MOL0     H25131   6.032  10.237   7.659 -1.2627 -0.3606 -0.7181
  948MOL0     H25132   6.182  10.420   7.459 -0.4998  1.8211  0.7485
  948MOL0     H25133   6.126  10.468   7.617 -0.1316  1.7892 -1.6245
  948MOL0     H25134   6.489  10.229   7.657  0.4338  1.6612 -1.2819
  948MOL0     H25135   5.484  10.348   7.375 -0.3737  0.6647  0.4563
  948MOL0     H25136   5.271  10.253   7.457 -3.2825 -3.4097 -0.2640
  949MOL0     O25137   8.373   9.235   6.464 -0.3500 -0.4208  0.6544
  949MOL0     C25138   8.404   9.191   6.352  0.6233 -0.4449  0.1224
  949MOL0     O25139   8.318   9.145   6.260 -0.0475 -0.6747 -0.1057
  949MOL0     C25140   8.179   9.144   6.271  0.1916 -0.1725 -0.4522
  949MOL0     C25141   8.120   9.085   6.386 -0.1796 -0.1122 -0.6364
  949MOL0     C25142   7.981   9.074   6.394 -0.1315  0.4003  0.1836
  949MOL0     C25143   7.894   9.117   6.289  0.6037  0.4062 -0.0518
  949MOL0     O25144   7.760   9.084   6.276 -0.2105 -1.0171 -0.0951
  949MOL0     C25145   7.682   9.199   6.321 -0.7166 -0.0165 -0.2872
  949MOL0     C25146   7.536   9.200   6.261 -0.1794  0.2028  0.8875
  949MOL0     C25147   7.443   9.291   6.337 -0.1091  0.9866 -0.5404
  949MOL0     C25148   7.296   9.268   6.289  0.5286 -0.3830 -0.7240
  949MOL0     C25149   7.198   9.364   6.353  0.1587  0.3561 -0.3514
  949MOL0     C25150   7.065   9.329   6.300  0.9545 -0.8011  0.2689
  949MOL0     C25151   6.953   9.421   6.358  0.7749 -0.3585 -0.4466
  949MOL0     C25152   6.818   9.351   6.343  0.2622 -0.2781 -0.0324
  949MOL0     N25153   6.701   9.413   6.407  0.5342 -0.5909  0.1176
  949MOL0     C25154   6.694   9.434   6.544  0.3239 -0.0639 -0.8028
  949MOL0     C25155   6.572   9.485   6.570  0.6289  0.0518 -0.3950
  949MOL0     C25156   6.506   9.534   6.698  1.6503  0.4566 -0.4736
  949MOL0     C25157   6.421   9.434   6.783  0.9338  0.2884 -1.0808
  949MOL0     C25158   6.349   9.504   6.895 -0.1517 -0.8006 -0.3379
  949MOL0     C25159   6.207   9.551   6.846 -0.1426 -0.5560 -0.0097
  949MOL0     O25160   6.108   9.446   6.811 -0.1720 -0.2587 -0.0825
  949MOL0     C25161   5.977   9.476   6.791  0.1331 -0.1355  0.1419
  949MOL0     C25162   5.907   9.594   6.822  0.3106  0.3264  0.8443
  949MOL0     C25163   5.773   9.613   6.782  0.1862  0.3012  0.2940
  949MOL0     C25164   5.707   9.516   6.710 -0.0855  0.0927 -0.9768
  949MOL0     C25165   5.562   9.514   6.711  0.1463  0.0473  0.7099
  949MOL0     O25166   5.500   9.625   6.768 -0.0229  0.5217 -0.6018
  949MOL0     C25167   5.373   9.617   6.797  0.9747 -0.5084  0.4910
  949MOL0     C25168   5.293   9.731   6.790 -0.7285  0.0972 -0.7384
  949MOL0     C25169   5.159   9.733   6.847  0.2655  0.9776 -0.1817
  949MOL0     C25170   5.093   9.610   6.885 -0.3603 -0.3586  0.0016
  949MOL0     O25171   4.973   9.609   6.941  0.1788  0.4198 -0.6982
  949MOL0     C25172   4.972   9.580   7.090 -0.6907 -0.3379  0.3683
  949MOL0     C25173   4.835   9.518   7.138 -0.0974  0.7179  0.5913
  949MOL0     C25174   4.827   9.521   7.289 -0.0315 -0.2349  0.0051
  949MOL0     C25175   4.807   9.664   7.349  0.3868 -0.1179  0.1889
  949MOL0     C25176   4.778   9.662   7.502 -0.2324  0.4758  0.6088
  949MOL0     C25177   4.624   9.654   7.542  0.8243  0.9781 -0.1674
  949MOL0     C25178   4.629   9.624   7.699 -0.6421 -0.2972  0.3049
  949MOL0     C25179   4.495   9.591   7.742  0.2522  0.5157 -0.1487
  949MOL0    Cl25180   4.447   9.416   7.722 -0.4496  0.0142 -0.0843
  949MOL0     C25181   5.168   9.498   6.881 -0.6095 -0.4128  0.0554
  949MOL0     C25182   5.305   9.503   6.850  0.5494 -0.4839 -0.0824
  949MOL0     O25183   5.506   9.430   6.638  0.9289  0.4505  0.2878
  949MOL0     C25184   5.782   9.403   6.675 -0.9922 -0.1928 -0.4134
  949MOL0     C25185   5.914   9.388   6.711 -0.5623  0.6820  0.0170
  949MOL0     N25186   6.505   9.497   6.444  0.1211  0.1284  0.2818
  949MOL0     N25187   6.576   9.444   6.352  0.7234  0.4765 -0.1588
  949MOL0     C25188   7.949   9.184   6.185  0.1043  0.5149  0.2878
  949MOL0     C25189   8.093   9.200   6.180  0.5870 -0.1706 -0.3689
  949MOL0     C25190   8.555   9.185   6.325  0.1837  0.6230  0.9537
  949MOL0     C25191   8.656   9.192   6.424 -0.3578  0.9101 -0.1366
  949MOL0     C25192   8.790   9.175   6.392  0.1041  0.4629 -0.0932
  949MOL0     C25193   8.831   9.147   6.261 -0.1149 -0.5411  1.2864
  949MOL0     O25194   8.966   9.128   6.246  0.4435  0.1412  0.2181
  949MOL0     C25195   9.016   9.114   6.117 -0.1491 -0.6085 -0.3459
  949MOL0     C25196   9.168   9.093   6.126  0.0152 -0.6688 -0.1115
  949MOL0     C25197   9.240   9.232   6.121  0.2738  0.1485  0.4002
  949MOL0     C25198   9.384   9.222   6.183 -0.1894  1.0620 -0.5062
  949MOL0     C25199   9.481   9.152   6.100 -0.2233 -0.6466 -0.9767
  949MOL0     C25200   9.556   9.079   6.033  0.7074  0.2116  0.9961
  949MOL0     C25201   8.733   9.141   6.160 -0.0552  0.0698 -0.7082
  949MOL0     C25202   8.600   9.154   6.194  0.3972  0.7133 -0.1340
  949MOL0     H25203   8.186   9.034   6.456 -0.3800  0.3835 -0.0764
  949MOL0     H25204   7.937   9.032   6.484 -1.5088  0.6966 -0.3260
  949MOL0     H25205   7.722   9.299   6.300 -0.1531 -0.4245 -1.2483
  949MOL0     H25206   7.669   9.192   6.429 -0.3589  0.1431 -0.2344
  949MOL0     H25207   7.487   9.102   6.265  0.1278 -0.0188 -0.3353
  949MOL0     H25208   7.540   9.225   6.154  0.2845  1.3251  1.1498
  949MOL0     H25209   7.470   9.397   6.337  1.1737  0.7211  1.6162
  949MOL0     H25210   7.447   9.263   6.442 -1.0421 -0.8709 -0.9632
  949MOL0     H25211   7.289   9.274   6.180  0.5645  2.3957 -0.6385
  949MOL0     H25212   7.264   9.170   6.324 -1.3447  0.0228 -1.2080
  949MOL0     H25213   7.218   9.468   6.328 -0.7251  0.4347 -0.7662
  949MOL0     H25214   7.203   9.352   6.461 -2.2173  3.1804  0.1750
  949MOL0     H25215   7.042   9.227   6.332 -1.8990 -0.3981 -0.2274
  949MOL0     H25216   7.070   9.346   6.192 -1.7547  0.0950  0.2002
  949MOL0     H25217   6.970   9.425   6.466 -1.5313 -3.1016  0.1397
  949MOL0     H25218   6.960   9.522   6.315  0.7358  0.0429  0.4655
  949MOL0     H25219   6.827   9.250   6.384 -1.4205 -1.6431 -2.7637
  949MOL0     H25220   6.802   9.336   6.236 -1.5994  1.9540 -0.1662
  949MOL0     H25221   6.770   9.412   6.619  0.6857 -0.2896 -1.2342
  949MOL0     H25222   6.451   9.626   6.675 -1.4182 -0.4998  2.2364
  949MOL0     H25223   6.588   9.563   6.764  1.3086 -2.5821  1.4567
  949MOL0     H25224   6.493   9.363   6.824  0.5727 -0.6086 -1.9498
  949MOL0     H25225   6.349   9.381   6.720 -2.8761  3.4455  0.1750
  949MOL0     H25226   6.345   9.423   6.969  3.3952  0.2669  1.2501
  949MOL0     H25227   6.392   9.588   6.951 -4.1947 -0.7966  3.3342
  949MOL0     H25228   6.230   9.606   6.754  2.5597  1.8596  1.9271
  949MOL0     H25229   6.161   9.615   6.921  1.2759 -2.7336  2.9444
  949MOL0     H25230   5.954   9.680   6.868 -2.4951  2.6775 -0.3318
  949MOL0     H25231   5.723   9.708   6.799  0.1180  1.1610 -3.6777
  949MOL0     H25232   5.331   9.828   6.760 -0.5816 -0.5209 -2.6314
  949MOL0     H25233   5.092   9.819   6.849 -1.2139 -0.1399  1.3050
  949MOL0     H25234   4.984   9.672   7.149  1.9563  0.2103 -0.8629
  949MOL0     H25235   5.066   9.530   7.117  2.5610  2.4146 -4.2255
  949MOL0     H25236   4.825   9.417   7.096  0.1782  0.7215  0.5155
  949MOL0     H25237   4.754   9.571   7.087 -0.3565  0.0591  0.2992
  949MOL0     H25238   4.920   9.478   7.328 -0.8338 -0.4727  1.7498
  949MOL0     H25239   4.749   9.452   7.324  1.0725 -1.6728 -0.2753
  949MOL0     H25240   4.906   9.707   7.335  1.1088 -2.1336 -1.4795
  949MOL0     H25241   4.730   9.721   7.295 -0.3438 -1.8886 -0.7210
  949MOL0     H25242   4.822   9.756   7.536  1.2124  1.2918 -3.0345
  949MOL0     H25243   4.827   9.579   7.552 -1.6666  0.7879  2.6845
  949MOL0     H25244   4.594   9.562   7.491  2.7565 -1.0843  2.1800
  949MOL0     H25245   4.562   9.737   7.506  0.2325  1.0914  1.0557
  949MOL0     H25246   4.704   9.555   7.738  2.1378  2.6101  0.4767
  949MOL0     H25247   4.656   9.718   7.749  2.3600 -0.1035 -1.4564
  949MOL0     H25248   4.423   9.651   7.684 -1.0136 -1.0715 -0.2708
  949MOL0     H25249   4.479   9.613   7.848 -2.6267  2.3899 -0.8403
  949MOL0     H25250   5.116   9.406   6.905 -2.2372  0.5377  0.3504
  949MOL0     H25251   5.358   9.409   6.861 -0.3865 -0.9335  0.7685
  949MOL0     H25252   5.743   9.324   6.612  1.8727 -2.5389  0.4967
  949MOL0     H25253   5.972   9.307   6.670 -0.6645  0.5483  0.1374
  949MOL0     H25254   7.881   9.225   6.110 -2.1114  0.3691  2.1082
  949MOL0     H25255   8.123   9.244   6.086 -0.2295 -2.5428 -1.8372
  949MOL0     H25256   8.625   9.219   6.524  3.0342 -0.4065  1.4134
  949MOL0     H25257   8.860   9.176   6.475 -2.5201 -1.3534  2.2969
  949MOL0     H25258   8.998   9.206   6.060 -1.7319 -1.5051 -1.3618
  949MOL0     H25259   8.961   9.035   6.066 -0.2661 -1.2290  0.7042
  949MOL0     H25260   9.199   9.055   6.224  0.4006 -3.0373 -1.0902
  949MOL0     H25261   9.203   9.028   6.045 -0.1842  0.7175 -1.3591
  949MOL0     H25262   9.185   9.308   6.177 -0.4273 -0.8802  1.1315
  949MOL0     H25263   9.242   9.265   6.017 -1.1664  0.9973  0.6178
  949MOL0     H25264   9.430   9.321   6.196  1.6935  0.1792 -0.0235
  949MOL0     H25265   9.390   9.177   6.283  2.4321  0.9832 -0.6279
  949MOL0     H25266   9.627   9.015   5.985 -0.2230 -0.6402  0.7293
  949MOL0     H25267   8.761   9.124   6.057  1.9889 -3.3923  0.2600
  949MOL0     H25268   8.527   9.136   6.116  0.5962 -2.3317  0.2655
  950MOL0     O25269   9.509   1.669   2.752 -0.4119  0.6154  0.3522
  950MOL0     C25270   9.508   1.785   2.773 -0.2304 -0.0254 -0.0283
  950MOL0     O25271   9.426   1.846   2.854 -0.1117  0.2306 -0.5571
  950MOL0     C25272   9.345   1.774   2.946 -1.1936 -0.4672 -0.7849
  950MOL0     C25273   9.390   1.658   3.015  0.1896 -0.0078  0.5825
  950MOL0     C25274   9.314   1.604   3.116  0.4383  0.1953 -0.0991
  950MOL0     C25275   9.190   1.648   3.144  0.1952  0.2217  0.4778
  950MOL0     O25276   9.131   1.566   3.237  0.1925  0.0638  0.0256
  950MOL0     C25277   8.990   1.590   3.263  0.5119  1.1492  0.0706
  950MOL0     C25278   8.933   1.464   3.334 -0.5961  0.0795  0.5184
  950MOL0     C25279   8.783   1.481   3.394  0.7458 -0.2399  0.1625
  950MOL0     C25280   8.758   1.357   3.481 -0.4065  0.0392  1.1396
  950MOL0     C25281   8.605   1.355   3.524 -0.2928 -0.6130 -0.5922
  950MOL0     C25282   8.559   1.217   3.572 -1.1691 -0.1469  0.0911
  950MOL0     C25283   8.408   1.205   3.608 -0.2820 -0.5577 -0.4139
  950MOL0     C25284   8.341   1.073   3.618  0.0289  0.5721  0.2816
  950MOL0     N25285   8.208   1.078   3.679 -0.0077 -0.1461 -0.1856
  950MOL0     C25286   8.189   1.119   3.809 -0.3907 -0.2289 -0.3487
  950MOL0     C25287   8.055   1.103   3.827  0.0986  0.1423  0.1990
  950MOL0     C25288   7.981   1.141   3.955 -0.5870 -0.4059  0.8442
  950MOL0     C25289   7.834   1.138   3.945  0.2569  0.7422  0.3017
  950MOL0     C25290   7.765   0.999   3.961 -0.4372  1.1144  0.1463
  950MOL0     C25291   7.612   1.010   3.944 -0.6232 -0.0197 -0.3905
  950MOL0     O25292   7.550   1.062   4.065 -0.5142  0.0161 -0.3638
  950MOL0     C25293   7.408   1.077   4.076 -0.8631  0.7205  0.3892
  950MOL0     C25294   7.345   1.107   4.197 -0.3102  0.1914  0.6650
  950MOL0     C25295   7.207   1.088   4.208  0.5471 -1.1934  0.1421
  950MOL0     C25296   7.118   1.068   4.094 -0.7783 -0.4397 -0.2729
  950MOL0     C25297   6.974   1.050   4.107  0.4661  0.3939 -0.5722
  950MOL0     O25298   6.922   1.054   4.235  0.0470  0.2889 -0.0371
  950MOL0     C25299   6.807   0.986   4.264 -0.9864  0.4492  0.6384
  950MOL0     C25300   6.778   0.860   4.208  0.1605 -0.4579 -0.5509
  950MOL0     C25301   6.651   0.798   4.230 -0.5714 -0.7297  0.3445
  950MOL0     C25302   6.561   0.862   4.317  1.1413 -0.7132  0.2344
  950MOL0     O25303   6.447   0.789   4.347  0.9954  0.2131  0.0086
  950MOL0     C25304   6.371   0.737   4.235  0.2017  0.0806 -0.0896
  950MOL0     C25305   6.215   0.770   4.257 -0.0279 -0.5816  1.0699
  950MOL0     C25306   6.181   0.720   4.395  0.1669 -0.1001  0.3034
  950MOL0     C25307   6.165   0.831   4.496 -1.5382  0.2028 -0.4988
  950MOL0     C25308   6.143   0.801   4.638 -0.3367  0.9859  0.4062
  950MOL0     C25309   6.260   0.724   4.700 -0.1058 -0.0056 -0.1849
  950MOL0     C25310   6.226   0.712   4.850 -0.1966 -0.6734  0.4073
  950MOL0     C25311   6.346   0.669   4.919  0.6707 -0.0386  0.1290
  950MOL0    Cl25312   6.323   0.681   5.100 -0.2241 -0.2681  0.3712
  950MOL0     C25313   6.600   0.978   4.380  0.2999  0.1385 -0.4229
  950MOL0     C25314   6.717   1.041   4.350 -0.7950  0.0350 -0.6119
  950MOL0     O25315   6.902   1.020   4.012  0.2552  0.5252 -0.1798
  950MOL0     C25316   7.182   1.052   3.972  0.0866  0.2773 -0.4578
  950MOL0     C25317   7.323   1.056   3.965  0.2818 -0.1502 -0.9139
  950MOL0     N25318   7.989   1.045   3.710 -0.5243 -0.7811 -1.0163
  950MOL0     N25319   8.089   1.026   3.631 -0.2773  0.6520  0.0896
  950MOL0     C25320   9.136   1.755   3.066  0.9689  0.5791  0.7924
  950MOL0     C25321   9.214   1.819   2.969  1.0201 -2.0682 -0.0307
  950MOL0     C25322   9.608   1.867   2.707 -0.8643 -0.2735  0.1641
  950MOL0     C25323   9.603   2.010   2.720 -0.4071  0.4222  0.1829
  950MOL0     C25324   9.699   2.087   2.650  0.0303 -0.5229  0.0905
  950MOL0     C25325   9.799   2.029   2.569  0.2708 -0.2112 -0.9100
  950MOL0     O25326   9.888   2.126   2.513  0.4227  0.7208  0.4199
  950MOL0     C25327   9.986   2.065   2.424 -0.0080 -0.4369 -0.5122
  950MOL0     C25328  10.082   2.172   2.384  0.7313 -0.2387 -0.3928
  950MOL0     C25329  10.185   2.120   2.279  0.5004  0.9182  0.1506
  950MOL0     C25330  10.304   2.216   2.269 -0.0012 -0.1764 -0.5034
  950MOL0     C25331  10.393   2.178   2.164  0.0001  0.4822  0.5571
  950MOL0     C25332  10.486   2.167   2.085 -0.5567  0.0941  0.4526
  950MOL0     C25333   9.793   1.889   2.550 -0.0895 -0.2804  0.4402
  950MOL0     C25334   9.697   1.811   2.610  0.0929 -0.1549 -0.2844
  950MOL0     H25335   9.486   1.608   3.009  0.7362  0.7097  2.6379
  950MOL0     H25336   9.361   1.518   3.162  1.8109  0.9573 -0.0433
  950MOL0     H25337   8.931   1.606   3.173 -0.0793  0.2172  0.2779
  950MOL0     H25338   8.982   1.672   3.335 -0.5671 -0.2371  1.6171
  950MOL0     H25339   8.993   1.465   3.426  1.0353  0.7042 -0.5017
  950MOL0     H25340   8.941   1.378   3.267  0.1591 -0.0844  0.8070
  950MOL0     H25341   8.710   1.483   3.313 -0.6656 -1.7034  1.3285
  950MOL0     H25342   8.762   1.564   3.461 -2.6563 -0.5890 -0.2667
  950MOL0     H25343   8.782   1.271   3.417  2.2622  0.6482  1.1988
  950MOL0     H25344   8.831   1.357   3.562  0.5015  0.7628  0.3390
  950MOL0     H25345   8.548   1.375   3.433  2.8381  2.3689 -2.1541
  950MOL0     H25346   8.574   1.427   3.601 -1.4808 -1.5042 -0.2210
  950MOL0     H25347   8.626   1.186   3.652  1.3630  2.6297 -0.7510
  950MOL0     H25348   8.579   1.146   3.492 -1.1975 -0.7364  0.6005
  950MOL0     H25349   8.392   1.250   3.707 -2.4232 -2.2288  0.0830
  950MOL0     H25350   8.348   1.249   3.527 -2.2184 -3.0537 -0.4719
  950MOL0     H25351   8.398   1.008   3.685 -2.1491  0.4165  2.1089
  950MOL0     H25352   8.350   1.019   3.523 -0.1483  1.7356 -0.4100
  950MOL0     H25353   8.266   1.149   3.879  1.5807  2.1910 -3.3145
  950MOL0     H25354   8.011   1.246   3.964 -2.9575  0.4124  0.0305
  950MOL0     H25355   8.016   1.076   4.036 -2.0072 -1.0732  0.9478
  950MOL0     H25356   7.791   1.167   3.848  1.7173 -1.4982 -1.1319
  950MOL0     H25357   7.790   1.200   4.023 -1.8938 -0.4215  0.1067
  950MOL0     H25358   7.816   0.934   3.888  0.1763 -0.6921  2.0769
  950MOL0     H25359   7.781   0.956   4.060 -1.0509 -0.3489 -0.3543
  950MOL0     H25360   7.575   0.910   3.922  0.6526 -0.7973  0.8279
  950MOL0     H25361   7.574   1.078   3.867 -2.5245 -1.0169 -0.3910
  950MOL0     H25362   7.405   1.129   4.284  1.3508  0.3810 -0.4781
  950MOL0     H25363   7.164   1.089   4.307 -0.2703  0.1250 -0.2065
  950MOL0     H25364   6.838   0.807   4.135 -0.6219 -0.5994 -1.0957
  950MOL0     H25365   6.625   0.706   4.180 -2.4776 -0.7275  1.2242
  950MOL0     H25366   6.385   0.629   4.226  1.8048  0.2900 -0.5504
  950MOL0     H25367   6.399   0.775   4.136 -2.8525  1.7897 -0.4128
  950MOL0     H25368   6.151   0.726   4.180 -2.0911  0.8370  1.8719
  950MOL0     H25369   6.205   0.878   4.241  1.5328 -0.7345 -1.4030
  950MOL0     H25370   6.243   0.637   4.429 -2.8463 -2.1634  1.2382
  950MOL0     H25371   6.078   0.682   4.398 -0.9315  2.6974  2.5126
  950MOL0     H25372   6.258   0.889   4.497 -0.9017 -0.7963 -0.6553
  950MOL0     H25373   6.094   0.907   4.461 -1.1116  2.3638  2.8106
  950MOL0     H25374   6.045   0.753   4.647  0.1005 -0.4886 -1.7491
  950MOL0     H25375   6.138   0.895   4.692  0.6417  1.2958 -0.0204
  950MOL0     H25376   6.341   0.795   4.681 -1.8107  1.7075 -1.4633
  950MOL0     H25377   6.276   0.623   4.660 -1.3724 -0.4455  0.3744
  950MOL0     H25378   6.188   0.804   4.895 -1.0292 -1.6029  1.6662
  950MOL0     H25379   6.145   0.640   4.857 -0.7870  0.1228  2.6496
  950MOL0     H25380   6.434   0.724   4.885  2.0460 -0.1806  3.1045
  950MOL0     H25381   6.356   0.561   4.900 -1.9423  0.0295 -2.2729
  950MOL0     H25382   6.536   1.025   4.454  2.4283 -1.7263  2.8344
  950MOL0     H25383   6.750   1.133   4.398 -0.1175  0.6797 -2.2189
  950MOL0     H25384   7.129   1.026   3.881  1.0695  0.8410 -1.2136
  950MOL0     H25385   7.367   1.040   3.867 -1.4047 -0.4863 -1.6404
  950MOL0     H25386   9.038   1.793   3.092  1.6850  2.1256  1.3383
  950MOL0     H25387   9.191   1.916   2.927  0.8911 -2.8154 -1.7608
  950MOL0     H25388   9.519   2.053   2.773 -3.2274 -2.7207 -1.3487
  950MOL0     H25389   9.706   2.196   2.654  0.5572 -0.5921  1.8652
  950MOL0     H25390   9.940   2.011   2.341 -5.5374  1.0631  1.1363
  950MOL0     H25391  10.045   1.994   2.484  0.6257  2.3747  2.5056
  950MOL0     H25392  10.027   2.255   2.339  0.6702 -0.1413 -0.1429
  950MOL0     H25393  10.129   2.218   2.472  2.3405 -1.9403 -0.3135
  950MOL0     H25394  10.134   2.103   2.184  2.1696  1.1198 -0.8073
  950MOL0     H25395  10.221   2.024   2.318  1.2826  0.6917 -1.0878
  950MOL0     H25396  10.257   2.311   2.244 -1.7764 -1.3183 -1.7571
  950MOL0     H25397  10.358   2.222   2.363  1.1218 -2.9937 -0.8613
  950MOL0     H25398  10.564   2.162   2.011 -2.7157 -0.4631 -1.9433
  950MOL0     H25399   9.863   1.843   2.482  0.1234 -1.9826  1.7442
  950MOL0     H25400   9.696   1.704   2.589 -0.0421 -0.1760 -0.1723
  951MOL0     O25401  10.791   4.058  11.191  0.1937 -0.1196  0.1133
  951MOL0     C25402  10.870   3.966  11.155 -0.3122 -0.0361  0.4688
  951MOL0     O25403  10.871   3.914  11.031 -0.3261 -0.3512 -0.4500
  951MOL0     C25404  10.755   3.916  10.955 -0.4006 -0.9446  0.3736
  951MOL0     C25405  10.652   3.833  10.996 -0.3193 -0.9975 -0.8487
  951MOL0     C25406  10.526   3.843  10.941  1.1970 -0.5492  1.0931
  951MOL0     C25407  10.495   3.922  10.829  0.6309  1.4761 -0.4775
  951MOL0     O25408  10.370   3.894  10.779  1.3615 -0.1111 -0.3296
  951MOL0     C25409  10.350   3.919  10.639 -0.3684  0.4799  0.1675
  951MOL0     C25410  10.202   3.887  10.599 -0.1925 -0.3737 -0.0933
  951MOL0     C25411  10.102   3.952  10.692 -0.4312 -0.6075 -1.1026
  951MOL0     C25412   9.954   3.918  10.669  0.4957 -0.2719  0.3195
  951MOL0     C25413   9.911   3.964  10.520  0.0717 -0.0399  0.1388
  951MOL0     C25414   9.761   3.940  10.492  0.7049  0.2044 -0.0592
  951MOL0     C25415   9.715   4.013  10.370  0.4959 -0.9902  0.1826
  951MOL0     C25416   9.736   3.927  10.242 -0.2422 -0.2468 -0.2747
  951MOL0     N25417   9.622   3.850  10.210  0.1467  1.0323 -0.5930
  951MOL0     C25418   9.494   3.908  10.200 -0.3433  0.1230  0.6691
  951MOL0     C25419   9.411   3.806  10.230 -0.3834 -0.1345  0.0061
  951MOL0     C25420   9.266   3.835  10.262 -0.5264  0.4416 -0.3421
  951MOL0     C25421   9.196   3.904  10.147  0.2637  0.5964 -0.5813
  951MOL0     C25422   9.075   3.988  10.205 -0.0183 -0.1553 -0.0446
  951MOL0     C25423   9.030   4.088  10.100  0.5233  0.0043  0.0552
  951MOL0     O25424   8.908   4.159  10.132  0.1236  0.5161 -0.0721
  951MOL0     C25425   8.788   4.084  10.129  1.0571 -0.6877 -0.1330
  951MOL0     C25426   8.773   3.962  10.060 -0.0155 -0.4844  0.0982
  951MOL0     C25427   8.644   3.907  10.058 -0.5448  0.3771  0.6047
  951MOL0     C25428   8.532   3.965  10.130 -0.2323 -1.3737  0.0624
  951MOL0     C25429   8.401   3.895  10.141 -0.5042 -0.6967  0.3372
  951MOL0     O25430   8.387   3.771  10.089  0.3893 -0.0451 -0.7590
  951MOL0     C25431   8.261   3.717  10.080  0.9588  0.3063  0.3412
  951MOL0     C25432   8.228   3.684   9.953  0.1369  0.5722 -0.0507
  951MOL0     C25433   8.108   3.608   9.930 -0.6130  0.1524 -0.2331
  951MOL0     C25434   8.018   3.592  10.033 -1.2633  0.2802  0.2307
  951MOL0     O25435   7.898   3.556   9.992  0.0544 -0.2826  0.1424
  951MOL0     C25436   7.786   3.574  10.070  0.3555 -0.4064 -0.4853
  951MOL0     C25437   7.662   3.563   9.976  0.2265 -0.1666 -0.2562
  951MOL0     C25438   7.538   3.542  10.055 -0.3978  0.0720  0.3738
  951MOL0     C25439   7.428   3.506   9.968 -0.8571  0.2954  0.1997
  951MOL0     C25440   7.294   3.481  10.039  0.1701 -0.5433  0.7366
  951MOL0     C25441   7.190   3.475   9.924 -0.3932  0.2157  0.1456
  951MOL0     C25442   7.053   3.463   9.989 -0.1734 -0.8593  0.0020
  951MOL0     C25443   6.948   3.463   9.883  0.7183 -0.2583 -0.1916
  951MOL0    Cl25444   6.977   3.348   9.759 -0.4379  0.1396 -0.2703
  951MOL0     C25445   8.052   3.628  10.168 -0.0362 -0.1594  0.1991
  951MOL0     C25446   8.180   3.690  10.188 -0.3061  0.2398  0.6194
  951MOL0     O25447   8.304   3.957  10.190 -0.5813  0.3433  0.1494
  951MOL0     C25448   8.550   4.078  10.193 -0.5600 -1.2508 -0.5509
  951MOL0     C25449   8.683   4.136  10.199  0.7509  0.2674 -0.4325
  951MOL0     N25450   9.483   3.684  10.245  0.3619 -0.0205 -0.2853
  951MOL0     N25451   9.610   3.712  10.248 -0.5285 -0.2132 -0.1146
  951MOL0     C25452  10.593   4.006  10.792  0.2168 -0.7048  0.3102
  951MOL0     C25453  10.718   4.005  10.847 -0.2123  0.5940 -0.5027
  951MOL0     C25454  10.967   3.912  11.254 -0.4381 -0.4900  0.7527
  951MOL0     C25455  10.943   3.946  11.393  0.8152 -0.0880  0.2800
  951MOL0     C25456  11.025   3.881  11.489  0.2758  0.2027  0.6998
  951MOL0     C25457  11.128   3.798  11.441 -0.2362  0.7291 -0.0510
  951MOL0     O25458  11.216   3.738  11.529  0.6726  0.2445 -0.7121
  951MOL0     C25459  11.181   3.688  11.662  0.6329 -0.2018  0.1839
  951MOL0     C25460  11.279   3.580  11.706 -0.2482  0.6818  0.3909
  951MOL0     C25461  11.421   3.633  11.722 -0.5997 -1.0208 -0.4347
  951MOL0     C25462  11.523   3.547  11.805 -0.1139 -0.1294  0.3560
  951MOL0     C25463  11.638   3.627  11.843  0.0571 -0.1456 -0.0650
  951MOL0     C25464  11.719   3.708  11.883 -0.4471  0.2687  0.1754
  951MOL0     C25465  11.151   3.769  11.305  0.6222  0.4164  0.8500
  951MOL0     C25466  11.071   3.827  11.215 -0.3171  0.1654 -0.9204
  951MOL0     H25467  10.677   3.776  11.085  1.8670  1.3708  0.1548
  951MOL0     H25468  10.449   3.784  10.989  3.4194 -2.6927  2.2720
  951MOL0     H25469  10.418   3.845  10.596 -2.1745 -1.2131  0.0258
  951MOL0     H25470  10.373   4.023  10.618 -1.9968  1.4631  2.7345
  951MOL0     H25471  10.183   3.779  10.610 -1.2331 -0.0981  1.0979
  951MOL0     H25472  10.175   3.914  10.497  1.6327 -0.6574 -0.6751
  951MOL0     H25473  10.122   4.059  10.696 -0.1742 -0.6883  1.9805
  951MOL0     H25474  10.133   3.915  10.790  0.8758  0.4696 -1.0799
  951MOL0     H25475   9.945   3.810  10.679 -1.5202 -0.5435 -2.9260
  951MOL0     H25476   9.893   3.978  10.737  1.2490  2.9997 -1.6257
  951MOL0     H25477   9.970   3.909  10.447 -0.4649  1.5219 -1.5349
  951MOL0     H25478   9.950   4.065  10.508  1.7901 -0.4063  1.9821
  951MOL0     H25479   9.716   3.984  10.582  1.1983 -1.5244  1.0775
  951MOL0     H25480   9.727   3.836  10.494 -2.3006  1.0388 -1.1678
  951MOL0     H25481   9.611   4.048  10.367  1.3725  1.7668 -0.3566
  951MOL0     H25482   9.765   4.108  10.352  0.0464 -1.1204 -2.0605
  951MOL0     H25483   9.822   3.864  10.265 -0.4883  0.0523  1.6689
  951MOL0     H25484   9.755   3.984  10.150 -2.8928 -0.5338 -1.0866
  951MOL0     H25485   9.456   4.008  10.184  0.5644  0.4490  0.5041
  951MOL0     H25486   9.263   3.905  10.346 -0.7124  1.2079 -0.9727
  951MOL0     H25487   9.202   3.749  10.284 -1.0769  0.8221 -0.4492
  951MOL0     H25488   9.160   3.831  10.074 -1.9550 -0.2925  1.2548
  951MOL0     H25489   9.257   3.981  10.099 -1.4213  1.8313 -0.8526
  951MOL0     H25490   8.986   3.932  10.237 -1.6102  2.1660 -0.1063
  951MOL0     H25491   9.111   4.037  10.296  1.6512  1.6728 -1.5983
  951MOL0     H25492   9.035   4.027  10.010  3.0864 -1.3370  0.9927
  951MOL0     H25493   9.101   4.170  10.113 -1.0339  1.0905  2.4371
  951MOL0     H25494   8.854   3.908  10.012  0.0266 -0.1759 -0.1846
  951MOL0     H25495   8.625   3.806  10.024  0.2760  0.4832 -0.1893
  951MOL0     H25496   8.296   3.714   9.875  0.9072 -0.6896  0.0980
  951MOL0     H25497   8.069   3.577   9.834 -1.7363 -2.5205  0.9824
  951MOL0     H25498   7.771   3.668  10.124 -2.6050 -1.5718  0.8815
  951MOL0     H25499   7.788   3.495  10.145 -0.0730  2.1183  2.3502
  951MOL0     H25500   7.686   3.480   9.909  3.9631 -1.1620  2.0095
  951MOL0     H25501   7.661   3.662   9.929 -0.7199  1.6995  3.3461
  951MOL0     H25502   7.515   3.633  10.111  0.3778  0.6202 -0.1771
  951MOL0     H25503   7.552   3.464  10.130  1.5948 -0.1919 -0.2267
  951MOL0     H25504   7.423   3.577   9.885 -0.0136  0.0332 -0.0895
  951MOL0     H25505   7.461   3.415   9.916 -1.0276 -0.0761  0.7328
  951MOL0     H25506   7.270   3.562  10.108  1.8663 -0.0949  0.8487
  951MOL0     H25507   7.310   3.390  10.097 -2.2508 -1.4919  0.0384
  951MOL0     H25508   7.225   3.394   9.860  2.7014  1.4864  0.0614
  951MOL0     H25509   7.190   3.572   9.873 -0.9748 -0.2205 -0.7032
  951MOL0     H25510   7.045   3.365  10.036 -1.9070 -0.6533  0.1944
  951MOL0     H25511   7.032   3.541  10.063  1.1447 -1.1554  0.7102
  951MOL0     H25512   6.932   3.561   9.838 -2.7259 -0.7722 -0.3321
  951MOL0     H25513   6.852   3.443   9.932  0.7733  1.8494  0.8910
  951MOL0     H25514   7.983   3.634  10.252  0.1338  1.7693  0.2339
  951MOL0     H25515   8.211   3.703  10.291 -1.6347 -2.0240  1.3772
  951MOL0     H25516   8.473   4.124  10.255  0.9196 -2.0414  2.0130
  951MOL0     H25517   8.702   4.231  10.248 -2.2373  0.5933  0.2614
  951MOL0     H25518  10.568   4.068  10.707 -3.4899 -2.3738 -0.0244
  951MOL0     H25519  10.803   4.063  10.812  2.0431 -0.7442  2.3199
  951MOL0     H25520  10.857   4.003  11.426  1.2038 -0.1857  1.5097
  951MOL0     H25521  11.002   3.907  11.592 -0.4193  2.0184  0.1371
  951MOL0     H25522  11.079   3.648  11.667  1.3018 -1.8944  1.3048
  951MOL0     H25523  11.188   3.776  11.726 -0.1833  1.6786 -2.1629
  951MOL0     H25524  11.250   3.538  11.803  3.1479 -1.8964  0.4710
  951MOL0     H25525  11.269   3.502  11.630  1.2319  1.0191 -0.1707
  951MOL0     H25526  11.405   3.728  11.773  1.7200 -0.9099  0.1778
  951MOL0     H25527  11.468   3.672  11.631  0.9803  1.1004  1.2128
  951MOL0     H25528  11.469   3.511  11.893 -3.9230  1.9707 -0.9333
  951MOL0     H25529  11.554   3.470  11.734 -2.0911 -0.9783  0.3528
  951MOL0     H25530  11.778   3.784  11.930 -1.0517  0.2887  0.9206
  951MOL0     H25531  11.221   3.699  11.259 -0.8975 -0.5962 -0.0313
  951MOL0     H25532  11.093   3.801  11.112 -0.5547  0.0782 -0.9482
  952MOL0     O25533   3.743   5.448   3.292  0.5807 -0.3217  0.0186
  952MOL0     C25534   3.824   5.410   3.373  0.4486 -0.1098  0.0297
  952MOL0     O25535   3.804   5.303   3.443  0.1012 -0.0542  0.0741
  952MOL0     C25536   3.704   5.204   3.434 -0.5703 -0.6507 -0.8640
  952MOL0     C25537   3.691   5.126   3.547  0.6913 -0.5058 -0.3838
  952MOL0     C25538   3.578   5.035   3.557  0.4283 -0.2286 -0.0711
  952MOL0     C25539   3.522   4.990   3.435  0.5387 -0.4510 -0.4722
  952MOL0     O25540   3.435   4.885   3.435  0.2894 -0.8171  0.4977
  952MOL0     C25541   3.321   4.896   3.527  0.5921  0.3141  0.2910
  952MOL0     C25542   3.228   4.777   3.497  0.7393  0.5857  0.0598
  952MOL0     C25543   3.097   4.773   3.586  0.0881 -0.4930  0.5687
  952MOL0     C25544   3.005   4.659   3.564 -0.4611 -0.5108  0.2153
  952MOL0     C25545   2.848   4.706   3.565 -0.7934 -0.1222 -0.5497
  952MOL0     C25546   2.760   4.603   3.627  0.3567 -0.3718  0.1865
  952MOL0     C25547   2.610   4.646   3.611 -0.5777  0.4433  0.1093
  952MOL0     C25548   2.517   4.546   3.675  0.6407  0.1518  0.1938
  952MOL0     N25549   2.372   4.577   3.663 -0.2965  0.4173 -0.9685
  952MOL0     C25550   2.284   4.481   3.692 -1.0742 -0.7953 -0.7886
  952MOL0     C25551   2.164   4.528   3.663  0.0826 -1.0402 -0.2601
  952MOL0     C25552   2.030   4.461   3.683 -0.7399 -0.1197 -0.5673
  952MOL0     C25553   1.957   4.519   3.798 -0.0673 -0.4859 -0.9519
  952MOL0     C25554   1.813   4.474   3.801  0.1284 -0.1855  0.1358
  952MOL0     C25555   1.735   4.587   3.742  0.4012 -0.2219 -0.0515
  952MOL0     O25556   1.698   4.702   3.828 -0.0014 -0.0818  0.6436
  952MOL0     C25557   1.604   4.693   3.922  0.5850  0.3788 -0.2295
  952MOL0     C25558   1.589   4.815   3.996  0.2197 -0.1646  0.0631
  952MOL0     C25559   1.488   4.834   4.092  0.9503  0.1291  0.1232
  952MOL0     C25560   1.390   4.727   4.111  0.5624 -0.5408 -0.9150
  952MOL0     C25561   1.269   4.739   4.196 -0.7235  0.1734 -0.9390
  952MOL0     O25562   1.160   4.650   4.187 -0.2185  0.4360  0.4892
  952MOL0     C25563   1.056   4.669   4.273 -0.5860 -0.0370 -0.5681
  952MOL0     C25564   1.003   4.796   4.306  0.6071 -0.5804 -0.8424
  952MOL0     C25565   0.895   4.818   4.400  0.8938 -0.3088  0.2522
  952MOL0     C25566   0.824   4.704   4.453  0.8302  0.0327  0.3451
  952MOL0     O25567   0.714   4.709   4.529  1.3791  0.3560 -1.0102
  952MOL0     C25568   0.716   4.819   4.616  0.0687  0.2877 -1.2775
  952MOL0     C25569   0.634   4.792   4.745 -0.6376 -0.1659 -0.4434
  952MOL0     C25570   0.480   4.810   4.721 -0.6572  0.2123 -0.0853
  952MOL0     C25571   0.390   4.792   4.842  0.2933 -0.3008 -0.0910
  952MOL0     C25572   0.235   4.816   4.824  0.4546  0.3662  0.0855
  952MOL0     C25573   0.186   4.728   4.705  0.2625  0.8155  1.1586
  952MOL0     C25574   0.029   4.741   4.690 -0.6769  0.2560  0.4440
  952MOL0     C25575  -0.015   4.643   4.580  0.3504 -0.7140  0.4475
  952MOL0    Cl25576  -0.192   4.670   4.577  0.4621  0.4558 -0.4651
  952MOL0     C25577   0.867   4.581   4.403  0.0798 -0.2332  0.2994
  952MOL0     C25578   0.976   4.565   4.315 -0.4856  1.2715  0.6099
  952MOL0     O25579   1.284   4.816   4.291 -0.3836 -0.4425 -0.0936
  952MOL0     C25580   1.407   4.614   4.029 -0.3532  0.6556 -0.6384
  952MOL0     C25581   1.516   4.584   3.942  0.3994 -0.1463  0.2671
  952MOL0     N25582   2.193   4.653   3.603  0.4026 -0.1720  0.5415
  952MOL0     N25583   2.311   4.683   3.607  0.2493 -0.0540  0.2416
  952MOL0     C25584   3.559   5.054   3.313  0.4864  0.4584 -1.4331
  952MOL0     C25585   3.644   5.166   3.317 -0.0098  0.8025  0.0585
  952MOL0     C25586   3.941   5.481   3.384  0.1399 -0.8586 -0.6988
  952MOL0     C25587   4.038   5.435   3.467  0.1630 -0.0932  0.8460
  952MOL0     C25588   4.158   5.504   3.477  0.4401 -0.1579  0.8040
  952MOL0     C25589   4.190   5.616   3.408 -0.3566 -0.0198  0.3948
  952MOL0     O25590   4.314   5.665   3.421 -0.2805  0.7587 -0.0423
  952MOL0     C25591   4.355   5.783   3.355 -0.5434  0.2844  0.3956
  952MOL0     C25592   4.491   5.817   3.413  0.0899 -0.9926  0.5395
  952MOL0     C25593   4.511   5.919   3.525  0.5734  0.6581  0.5380
  952MOL0     C25594   4.447   5.874   3.655 -0.2337  0.1243 -0.6445
  952MOL0     C25595   4.530   5.761   3.708  0.9219  0.1777 -0.4803
  952MOL0     C25596   4.591   5.667   3.750  0.0388 -0.3208 -0.5274
  952MOL0     C25597   4.093   5.662   3.319 -0.4070 -0.0818 -0.5059
  952MOL0     C25598   3.972   5.601   3.309 -0.3679 -0.1491 -0.1274
  952MOL0     H25599   3.745   5.154   3.637 -0.7022  2.0106 -0.2146
  952MOL0     H25600   3.562   4.991   3.655  0.8204 -2.3560 -0.9150
  952MOL0     H25601   3.274   4.995   3.522 -0.9247 -0.2794  1.9565
  952MOL0     H25602   3.365   4.884   3.626 -0.6656 -0.3810  0.7789
  952MOL0     H25603   3.283   4.684   3.516 -1.0705 -0.3813  0.7838
  952MOL0     H25604   3.200   4.786   3.391 -0.2956  1.8248  0.4127
  952MOL0     H25605   3.040   4.863   3.564 -2.0223 -2.4045 -2.5528
  952MOL0     H25606   3.133   4.773   3.689 -0.1197 -0.8600  0.6404
  952MOL0     H25607   3.026   4.617   3.465 -0.8857  1.1196 -0.6072
  952MOL0     H25608   3.019   4.581   3.639  2.1806 -1.0780 -0.7658
  952MOL0     H25609   2.822   4.747   3.466  2.2449 -0.1081 -1.4282
  952MOL0     H25610   2.856   4.788   3.637  2.7301 -1.1814  0.4363
  952MOL0     H25611   2.798   4.572   3.725 -1.8531 -1.6855  0.7069
  952MOL0     H25612   2.769   4.514   3.564  0.9810 -0.1459 -0.0489
  952MOL0     H25613   2.606   4.751   3.643  1.8108  0.2556  1.2913
  952MOL0     H25614   2.589   4.654   3.504 -1.8074  0.6517  0.3488
  952MOL0     H25615   2.538   4.543   3.782 -0.1975  0.8537  0.3850
  952MOL0     H25616   2.550   4.448   3.640 -2.0845 -0.8907  0.3557
  952MOL0     H25617   2.308   4.387   3.739  2.4215  0.8513  1.0596
  952MOL0     H25618   2.061   4.361   3.713 -3.5975 -0.9716 -0.0886
  952MOL0     H25619   1.975   4.453   3.589 -0.9742  0.9003 -0.5353
  952MOL0     H25620   1.976   4.626   3.801  1.6246 -0.7730  0.9606
  952MOL0     H25621   2.003   4.480   3.889  0.0466  1.7361 -0.0177
  952MOL0     H25622   1.804   4.376   3.753  1.8584  0.4835 -1.7178
  952MOL0     H25623   1.777   4.461   3.904 -0.2817  0.7938  0.1207
  952MOL0     H25624   1.632   4.560   3.717 -0.2542  1.1684  0.9503
  952MOL0     H25625   1.790   4.636   3.661 -1.3899 -0.3435 -1.4111
  952MOL0     H25626   1.648   4.903   3.974  0.0307 -0.2235 -0.7075
  952MOL0     H25627   1.485   4.931   4.141 -1.5528 -1.2224  3.0219
  952MOL0     H25628   1.051   4.879   4.255  1.4577 -0.4455  0.1412
  952MOL0     H25629   0.851   4.914   4.427 -1.9470 -0.9468 -1.6749
  952MOL0     H25630   0.674   4.909   4.572 -0.7469  0.3614 -0.3657
  952MOL0     H25631   0.817   4.836   4.654 -0.8671  2.7489  0.3533
  952MOL0     H25632   0.661   4.870   4.817  3.9110  0.0039 -2.0208
  952MOL0     H25633   0.646   4.689   4.779 -2.4814 -0.0546  0.6676
  952MOL0     H25634   0.442   4.738   4.648  1.3647 -1.0650  0.0361
  952MOL0     H25635   0.477   4.913   4.683 -0.3157  1.8979  3.9362
  952MOL0     H25636   0.404   4.687   4.868 -1.4349 -1.1356 -2.2002
  952MOL0     H25637   0.434   4.849   4.924 -2.4909  1.0481  0.5912
  952MOL0     H25638   0.199   4.917   4.803 -2.3108 -0.6432 -0.4508
  952MOL0     H25639   0.188   4.778   4.916  2.7836 -1.5426  0.5703
  952MOL0     H25640   0.218   4.625   4.722  2.5785  1.3640  0.4973
  952MOL0     H25641   0.234   4.765   4.614 -0.4348 -3.0868 -1.0458
  952MOL0     H25642  -0.009   4.721   4.790  3.6751  1.1763  2.5537
  952MOL0     H25643   0.002   4.843   4.660  2.6942  1.1636  0.0553
  952MOL0     H25644   0.014   4.540   4.603 -2.0644 -2.2233 -2.5471
  952MOL0     H25645   0.014   4.660   4.476 -1.4499 -0.8746 -0.1225
  952MOL0     H25646   0.816   4.490   4.434  1.3536 -1.1511 -0.2425
  952MOL0     H25647   1.005   4.468   4.275  0.9099  0.9470  2.2811
  952MOL0     H25648   1.341   4.530   4.048  0.8900  0.3236  3.0486
  952MOL0     H25649   1.520   4.491   3.886 -0.4637  0.4156 -0.7513
  952MOL0     H25650   3.508   5.013   3.226 -4.4227  0.2849  1.1975
  952MOL0     H25651   3.651   5.230   3.230  4.2478  0.4092 -0.1278
  952MOL0     H25652   4.030   5.334   3.505 -0.8106 -0.4342 -0.2293
  952MOL0     H25653   4.236   5.451   3.531  0.8297  0.4338  0.8340
  952MOL0     H25654   4.280   5.863   3.360  1.4563  2.1477  2.3912
  952MOL0     H25655   4.368   5.751   3.251  0.7398 -1.0843  0.9482
  952MOL0     H25656   4.542   5.721   3.428  0.0067 -0.8899  1.5065
  952MOL0     H25657   4.543   5.867   3.330  0.0535 -0.6189  0.7404
  952MOL0     H25658   4.465   6.013   3.495 -2.0774 -0.7592 -0.1639
  952MOL0     H25659   4.619   5.930   3.540  0.6649 -0.3687  0.7233
  952MOL0     H25660   4.444   5.957   3.725 -1.6086 -1.9614  1.9504
  952MOL0     H25661   4.340   5.851   3.646 -0.2034 -0.9923  1.2960
  952MOL0     H25662   4.649   5.584   3.785 -0.2634 -1.4149 -2.5001
  952MOL0     H25663   4.097   5.752   3.258  1.0810  2.8986  3.5398
  952MOL0     H25664   3.899   5.634   3.235 -0.3741 -1.3047 -0.6524
  953MOL0     O25665   5.392   4.343   8.062  0.4262 -0.4444  0.1990
  953MOL0     C25666   5.476   4.329   7.976 -1.2721  0.5350  0.1652
  953MOL0     O25667   5.490   4.216   7.890 -0.5040  0.0483 -0.3073
  953MOL0     C25668   5.393   4.121   7.880 -0.1110  0.2167  0.0483
  953MOL0     C25669   5.293   4.081   7.972  0.8040  0.1073 -0.2944
  953MOL0     C25670   5.209   3.982   7.936  0.2150 -0.2993 -0.4212
  953MOL0     C25671   5.200   3.936   7.810  0.0353  0.2370 -0.1486
  953MOL0     O25672   5.103   3.857   7.751 -0.7503 -0.9190 -0.2548
  953MOL0     C25673   5.060   3.738   7.822 -0.4027 -0.3622 -0.0847
  953MOL0     C25674   4.909   3.752   7.848  0.7554  0.4770  0.7134
  953MOL0     C25675   4.845   3.610   7.888  0.7692  0.1918  0.5477
  953MOL0     C25676   4.699   3.617   7.944 -0.1667 -0.1642 -0.1238
  953MOL0     C25677   4.678   3.705   8.068  0.3093  0.3228 -0.3680
  953MOL0     C25678   4.536   3.697   8.126  0.7549  0.1057  0.1774
  953MOL0     C25679   4.483   3.816   8.210 -0.0854  1.0164 -0.0936
  953MOL0     C25680   4.564   3.845   8.345 -0.1505 -0.5053  0.1459
  953MOL0     N25681   4.691   3.909   8.322 -0.2327 -1.0262  0.0769
  953MOL0     C25682   4.698   4.035   8.258  0.4619  0.1280  0.2598
  953MOL0     C25683   4.805   4.094   8.302  0.5600  0.5025  0.8780
  953MOL0     C25684   4.835   4.242   8.260  0.1226 -0.1173 -0.3510
  953MOL0     C25685   4.933   4.300   8.354  0.4510  0.2327 -1.0506
  953MOL0     C25686   4.971   4.441   8.324  0.3283  0.2573  0.5815
  953MOL0     C25687   5.082   4.449   8.210 -0.8740  0.1781  0.0681
  953MOL0     O25688   5.104   4.598   8.173  0.3528 -0.2517 -0.3945
  953MOL0     C25689   5.213   4.662   8.223 -0.2339  0.1248  0.3813
  953MOL0     C25690   5.295   4.614   8.330  0.2470  0.2413 -0.0726
  953MOL0     C25691   5.411   4.688   8.361 -0.2061  0.2273  0.6278
  953MOL0     C25692   5.456   4.795   8.278 -0.6715 -0.8901  0.1562
  953MOL0     C25693   5.590   4.870   8.301  0.1964 -0.1841  0.5870
  953MOL0     O25694   5.605   4.969   8.214 -0.4565 -0.4484  0.0250
  953MOL0     C25695   5.707   5.065   8.221 -0.1089  0.4244 -0.1992
  953MOL0     C25696   5.708   5.164   8.120 -0.1315  0.3973 -0.0138
  953MOL0     C25697   5.807   5.268   8.115  0.9814 -0.1032  0.1267
  953MOL0     C25698   5.909   5.280   8.213 -0.4906  0.4052  0.4241
  953MOL0     O25699   6.009   5.376   8.192 -0.6844 -0.0116 -0.3354
  953MOL0     C25700   6.035   5.471   8.290 -0.3976  0.2900  0.1648
  953MOL0     C25701   6.017   5.617   8.253 -0.3697  0.8942 -0.5495
  953MOL0     C25702   5.878   5.667   8.251 -0.2175 -0.5882 -0.1178
  953MOL0     C25703   5.879   5.813   8.220 -0.0824  0.3017  0.2725
  953MOL0     C25704   5.734   5.869   8.240 -1.1238 -0.3150  0.2103
  953MOL0     C25705   5.724   5.994   8.138 -0.7127 -0.0137 -0.5889
  953MOL0     C25706   5.718   5.949   7.992  0.6730 -0.3547 -0.7894
  953MOL0     C25707   5.632   6.043   7.916  0.9214  0.7517 -0.0607
  953MOL0    Cl25708   5.461   6.032   7.969 -0.3168 -0.0873 -0.3596
  953MOL0     C25709   5.905   5.188   8.318  0.0504 -0.0969 -0.2853
  953MOL0     C25710   5.806   5.084   8.321 -0.4938 -0.3640  0.2019
  953MOL0     O25711   5.656   4.844   8.404  0.6968  0.0877  0.7934
  953MOL0     C25712   5.370   4.845   8.177 -0.1596  0.4431 -0.1119
  953MOL0     C25713   5.248   4.778   8.154 -0.2216  0.0254 -0.0501
  953MOL0     N25714   4.860   4.008   8.403 -0.2307  0.1055  0.3173
  953MOL0     N25715   4.796   3.897   8.409  0.6880  1.1040 -0.1663
  953MOL0     C25716   5.293   3.969   7.719 -0.0356 -0.5294 -0.4700
  953MOL0     C25717   5.387   4.072   7.749  0.5718  0.0921 -0.2305
  953MOL0     C25718   5.576   4.437   7.958 -0.0837 -0.2033 -0.4939
  953MOL0     C25719   5.699   4.419   7.888 -0.6373 -0.1098  0.1921
  953MOL0     C25720   5.786   4.529   7.868 -0.0673 -0.5198 -0.0944
  953MOL0     C25721   5.754   4.661   7.917 -1.0354 -0.3349 -0.0537
  953MOL0     O25722   5.824   4.781   7.896  0.4887  0.2014  0.4199
  953MOL0     C25723   5.940   4.782   7.817 -0.2173  0.5888 -0.5948
  953MOL0     C25724   5.984   4.923   7.773 -0.5179  0.0494  0.0844
  953MOL0     C25725   6.022   5.033   7.874 -0.0322 -1.0471 -1.1946
  953MOL0     C25726   6.038   5.172   7.824  0.2996 -0.6547  0.2105
  953MOL0     C25727   6.141   5.173   7.715  0.4398 -0.5210 -0.2068
  953MOL0     C25728   6.235   5.152   7.634 -0.2491 -0.8732  0.4245
  953MOL0     C25729   5.629   4.681   7.975 -0.3462 -0.7459  0.4274
  953MOL0     C25730   5.546   4.569   7.996  0.2888 -0.7933  0.2938
  953MOL0     H25731   5.279   4.106   8.076  0.4693 -3.8338  0.7779
  953MOL0     H25732   5.137   3.944   8.008  2.4503 -0.1654  2.0457
  953MOL0     H25733   5.115   3.717   7.914  0.2762 -0.4711 -0.5035
  953MOL0     H25734   5.079   3.661   7.747 -0.2751  2.8041 -3.5994
  953MOL0     H25735   4.859   3.791   7.759  0.7098 -0.8800  0.1137
  953MOL0     H25736   4.885   3.830   7.920 -1.9212  2.3617 -1.9812
  953MOL0     H25737   4.903   3.556   7.964  2.0680 -0.8250 -1.0914
  953MOL0     H25738   4.839   3.547   7.798 -1.9317 -0.4672  1.1252
  953MOL0     H25739   4.635   3.649   7.861 -0.3099 -2.0321 -0.7842
  953MOL0     H25740   4.666   3.521   7.985 -2.0681  0.8757  0.8965
  953MOL0     H25741   4.693   3.809   8.037  0.5985 -0.3902 -2.9141
  953MOL0     H25742   4.740   3.679   8.154 -0.2583 -2.0120 -0.6154
  953MOL0     H25743   4.524   3.612   8.194 -3.3320  1.1615  1.0265
  953MOL0     H25744   4.477   3.680   8.035  2.2357 -2.4447 -0.4270
  953MOL0     H25745   4.464   3.910   8.158 -0.9014  0.3738 -0.9981
  953MOL0     H25746   4.380   3.786   8.232  0.4527 -0.6097  0.3520
  953MOL0     H25747   4.573   3.753   8.405 -1.1887 -0.7721 -0.0844
  953MOL0     H25748   4.505   3.910   8.411 -1.1868 -0.3025 -0.9502
  953MOL0     H25749   4.620   4.066   8.190  0.3026  1.4322  1.0112
  953MOL0     H25750   4.739   4.295   8.260 -1.0113 -1.9788 -2.0696
  953MOL0     H25751   4.877   4.232   8.159  1.7966  1.3280  0.1755
  953MOL0     H25752   5.021   4.236   8.346 -0.4671 -1.0412 -1.4869
  953MOL0     H25753   4.888   4.299   8.454  0.5878  3.6489 -0.8299
  953MOL0     H25754   4.875   4.490   8.301 -0.1199 -0.2451  1.3078
  953MOL0     H25755   5.013   4.493   8.411 -0.7178  0.1862  1.1510
  953MOL0     H25756   5.052   4.406   8.114 -0.1181  0.9765 -0.5491
  953MOL0     H25757   5.170   4.404   8.255 -0.2349  2.0130  0.7635
  953MOL0     H25758   5.271   4.537   8.403 -0.7808  1.1564  0.5713
  953MOL0     H25759   5.477   4.651   8.440 -1.0134 -0.4754  0.9838
  953MOL0     H25760   5.631   5.158   8.043 -2.3653 -0.3482  2.1256
  953MOL0     H25761   5.781   5.347   8.045  0.7941  0.5048  0.8740
  953MOL0     H25762   6.140   5.454   8.316 -0.5365 -1.2463 -0.1792
  953MOL0     H25763   5.971   5.454   8.378 -0.9572  0.3191 -0.2300
  953MOL0     H25764   6.053   5.618   8.150  0.7882 -2.3608 -0.3101
  953MOL0     H25765   6.077   5.677   8.322 -0.2840 -0.3313  0.4829
  953MOL0     H25766   5.827   5.645   8.345 -3.0062  1.8909 -0.9124
  953MOL0     H25767   5.826   5.596   8.186  0.7557  1.2450 -3.1021
  953MOL0     H25768   5.941   5.860   8.296 -2.7361 -2.4032  4.5121
  953MOL0     H25769   5.923   5.832   8.121  0.1505 -0.5750  0.1984
  953MOL0     H25770   5.729   5.910   8.341 -0.9928 -0.5240  0.3040
  953MOL0     H25771   5.648   5.803   8.225 -3.7864  3.1683 -1.1405
  953MOL0     H25772   5.809   6.059   8.161 -2.0906  1.2763  1.1464
  953MOL0     H25773   5.643   6.059   8.173  0.2000  0.6414  0.3593
  953MOL0     H25774   5.820   5.936   7.955  0.9921  0.4825 -0.2039
  953MOL0     H25775   5.658   5.857   7.990 -1.1349  0.7383  0.4836
  953MOL0     H25776   5.635   6.024   7.809 -1.5253  1.6417 -0.3476
  953MOL0     H25777   5.676   6.142   7.930  2.3606 -0.2181  3.6035
  953MOL0     H25778   5.977   5.207   8.397  0.3298 -0.8166 -0.3610
  953MOL0     H25779   5.803   5.020   8.409 -1.5165 -0.0741  0.3999
  953MOL0     H25780   5.397   4.924   8.107  0.9565  1.1115  1.0255
  953MOL0     H25781   5.184   4.813   8.073 -1.5332  0.9120  1.3352
  953MOL0     H25782   5.299   3.941   7.614 -1.2640  0.0407 -0.7080
  953MOL0     H25783   5.474   4.093   7.686  2.6276  0.5755  2.5764
  953MOL0     H25784   5.725   4.327   7.837  0.0045 -0.0322  0.3667
  953MOL0     H25785   5.873   4.516   7.805 -0.9938 -3.4862 -0.9094
  953MOL0     H25786   5.917   4.722   7.728  2.4041 -0.9780 -0.2969
  953MOL0     H25787   6.022   4.731   7.868 -0.7031 -1.4794 -1.7649
  953MOL0     H25788   6.076   4.915   7.715  0.2966 -0.3114  1.3761
  953MOL0     H25789   5.905   4.960   7.706 -0.8454 -2.6660 -1.1421
  953MOL0     H25790   6.117   5.005   7.920  0.8501  0.3945 -2.0455
  953MOL0     H25791   5.941   5.018   7.946 -0.7325 -0.7209 -1.8952
  953MOL0     H25792   5.944   5.207   7.781  0.9970 -3.0937 -3.9387
  953MOL0     H25793   6.079   5.237   7.901  1.0282 -1.2070  0.3019
  953MOL0     H25794   6.314   5.152   7.561  0.8954 -1.7005  1.6098
  953MOL0     H25795   5.601   4.783   8.000  1.9153  0.2628 -0.8631
  953MOL0     H25796   5.453   4.591   8.049 -0.1073 -1.6610 -0.0272
  954MOL0     O25797   5.117   4.210   5.380 -0.5354 -0.2373  0.7311
  954MOL0     C25798   5.177   4.151   5.286  0.9926 -0.4487 -0.0532
  954MOL0     O25799   5.119   4.112   5.167  0.9626  0.1635  0.5827
  954MOL0     C25800   4.985   4.134   5.143 -0.4313  0.4504 -0.1575
  954MOL0     C25801   4.872   4.158   5.229 -0.2011  0.2865 -0.0548
  954MOL0     C25802   4.744   4.182   5.175  0.1696  0.9880 -0.8896
  954MOL0     C25803   4.725   4.158   5.037 -0.5522 -0.4775 -0.3268
  954MOL0     O25804   4.611   4.169   4.972 -0.4896 -0.0950 -0.2022
  954MOL0     C25805   4.495   4.171   5.050 -0.2326 -0.3189 -0.6984
  954MOL0     C25806   4.372   4.135   4.972  0.1190 -0.5330  0.4320
  954MOL0     C25807   4.381   3.994   4.921  0.5015  0.2736  0.7404
  954MOL0     C25808   4.254   3.953   4.847 -0.2787 -0.6796  0.6504
  954MOL0     C25809   4.260   3.813   4.795  0.3324 -0.0488 -0.3186
  954MOL0     C25810   4.242   3.699   4.904 -0.4892  0.2528  0.4197
  954MOL0     C25811   4.180   3.569   4.842 -0.3994 -0.0302 -0.2096
  954MOL0     C25812   4.167   3.458   4.942 -0.5953 -0.5821 -0.4448
  954MOL0     N25813   4.105   3.338   4.878 -0.8958 -0.1986  0.2118
  954MOL0     C25814   3.969   3.311   4.883  0.1893  0.1812 -0.0530
  954MOL0     C25815   3.946   3.210   4.808  0.3284  1.2596 -0.0963
  954MOL0     C25816   3.808   3.135   4.798 -0.2743  0.0133 -0.7756
  954MOL0     C25817   3.693   3.219   4.747  0.5686 -0.5884 -0.0144
  954MOL0     C25818   3.552   3.187   4.809  0.0070  0.1080 -0.2765
  954MOL0     C25819   3.519   3.042   4.824  0.1819  0.8251  0.2845
  954MOL0     O25820   3.386   3.010   4.874  0.1838  0.1250 -0.2163
  954MOL0     C25821   3.279   3.048   4.795  0.5308  0.4298  0.4538
  954MOL0     C25822   3.244   2.984   4.671 -0.0113  1.3465  0.1770
  954MOL0     C25823   3.126   3.028   4.603 -0.3106  0.6560  0.2172
  954MOL0     C25824   3.052   3.138   4.655 -0.4303 -0.5569  0.4628
  954MOL0     C25825   2.937   3.196   4.582  0.5670 -0.8157 -1.1867
  954MOL0     O25826   2.869   3.112   4.511  0.4452 -0.0492 -0.0291
  954MOL0     C25827   2.740   3.146   4.472  0.1369  0.0712 -0.2139
  954MOL0     C25828   2.704   3.099   4.347 -0.2440  0.8417 -0.2586
  954MOL0     C25829   2.570   3.103   4.306 -0.0866 -0.7922  0.9154
  954MOL0     C25830   2.470   3.151   4.386  0.3318 -0.1921 -0.3112
  954MOL0     O25831   2.337   3.152   4.356  0.3569 -0.0191  0.7606
  954MOL0     C25832   2.260   3.047   4.417  0.5178  0.5054  0.3553
  954MOL0     C25833   2.192   2.984   4.308 -0.0784  0.5233 -0.4972
  954MOL0     C25834   2.155   2.837   4.348  0.0106 -0.0060  0.0658
  954MOL0     C25835   2.068   2.820   4.472 -0.3857 -0.1344  0.0144
  954MOL0     C25836   2.027   2.676   4.465 -0.0690  0.7451 -0.8531
  954MOL0     C25837   1.934   2.655   4.587  0.2033  0.3389  0.0698
  954MOL0     C25838   1.870   2.518   4.569  0.7360  1.5346  0.2925
  954MOL0     C25839   1.785   2.483   4.689 -0.1992 -1.0390 -0.0100
  954MOL0    Cl25840   1.737   2.307   4.688  0.0742  0.4275 -0.0263
  954MOL0     C25841   2.513   3.202   4.508 -0.4340 -0.4885 -0.0170
  954MOL0     C25842   2.647   3.194   4.560  0.6064  0.6393  0.9532
  954MOL0     O25843   2.908   3.311   4.600  0.3500 -0.5179 -0.4491
  954MOL0     C25844   3.091   3.194   4.778 -0.7258 -0.0123 -0.1604
  954MOL0     C25845   3.195   3.145   4.845  0.9188 -0.2039 -0.6463
  954MOL0     N25846   4.057   3.189   4.737 -0.8650  0.0724 -0.7346
  954MOL0     N25847   4.148   3.262   4.779  0.3346 -0.7038  0.2211
  954MOL0     C25848   4.829   4.115   4.957  0.3184  0.2509 -0.1378
  954MOL0     C25849   4.959   4.112   5.013 -0.3578 -0.6430 -0.2434
  954MOL0     C25850   5.326   4.138   5.288  0.3157  0.3254 -0.2678
  954MOL0     C25851   5.393   4.084   5.178 -0.1603  0.2915 -0.0552
  954MOL0     C25852   5.535   4.085   5.172 -0.3747  0.2445 -0.3381
  954MOL0     C25853   5.616   4.142   5.268 -0.2088 -0.1894 -0.1534
  954MOL0     O25854   5.752   4.115   5.279  0.2455  0.2498  0.5095
  954MOL0     C25855   5.819   4.108   5.149  0.6727  0.0692 -0.1656
  954MOL0     C25856   5.944   4.192   5.165 -0.3047  0.4415 -0.7068
  954MOL0     C25857   6.033   4.190   5.031 -0.9567  0.9994 -0.2875
  954MOL0     C25858   6.186   4.215   5.055 -0.3952 -0.5987  0.9514
  954MOL0     C25859   6.262   4.093   5.083 -0.8563  0.0161 -0.0548
  954MOL0     C25860   6.323   3.993   5.090  0.2602  0.5490 -0.9746
  954MOL0     C25861   5.551   4.183   5.386 -0.0894  1.3173  0.1021
  954MOL0     C25862   5.413   4.187   5.396  0.7227 -0.2564  0.3613
  954MOL0     H25863   4.876   4.156   5.337 -2.6309 -3.2870  0.1234
  954MOL0     H25864   4.661   4.203   5.242 -0.2857  1.1325 -1.4880
  954MOL0     H25865   4.489   4.264   5.108  0.9610 -0.2574 -0.6424
  954MOL0     H25866   4.506   4.098   5.130  3.2667  1.0582  0.3049
  954MOL0     H25867   4.353   4.210   4.895 -4.4377 -1.7227  0.1080
  954MOL0     H25868   4.293   4.142   5.047  0.6200  1.6472  0.8363
  954MOL0     H25869   4.395   3.921   5.001 -1.6731 -1.8236 -0.6515
  954MOL0     H25870   4.465   3.994   4.852 -0.4222  2.0014 -0.4747
  954MOL0     H25871   4.158   3.947   4.899 -0.0787  2.0310  1.5167
  954MOL0     H25872   4.231   4.030   4.772  0.9095 -0.1704  0.7959
  954MOL0     H25873   4.351   3.799   4.736  0.7219  2.1273 -0.2931
  954MOL0     H25874   4.183   3.820   4.718  1.9891  0.1420 -2.0277
  954MOL0     H25875   4.167   3.748   4.968 -0.1049  2.1737 -0.5108
  954MOL0     H25876   4.328   3.674   4.966 -1.1913 -0.9220  0.9540
  954MOL0     H25877   4.081   3.592   4.801 -0.1244  2.3060  0.2700
  954MOL0     H25878   4.247   3.544   4.759  0.4667  3.8532 -0.8962
  954MOL0     H25879   4.114   3.485   5.034 -0.4150 -0.9917 -0.2148
  954MOL0     H25880   4.269   3.434   4.973  0.3886  1.0974 -2.1429
  954MOL0     H25881   3.895   3.357   4.949  0.2702  0.6092 -0.2616
  954MOL0     H25882   3.778   3.102   4.898 -2.6245  1.7279 -0.8346
  954MOL0     H25883   3.821   3.049   4.732 -0.0614  0.1309 -0.8876
  954MOL0     H25884   3.692   3.195   4.641  0.2132 -0.4553 -0.0434
  954MOL0     H25885   3.719   3.323   4.771  0.5751 -0.5605 -0.1428
  954MOL0     H25886   3.541   3.233   4.908 -2.4948  0.5413 -0.6927
  954MOL0     H25887   3.481   3.238   4.743 -1.1806 -1.6481 -0.4122
  954MOL0     H25888   3.590   3.000   4.895  0.2435  0.9484  0.2945
  954MOL0     H25889   3.526   2.985   4.730  0.6413  0.2788  0.6408
  954MOL0     H25890   3.299   2.900   4.631 -0.2572 -0.0878  2.6395
  954MOL0     H25891   3.089   2.980   4.512  0.6578 -2.6180  1.4236
  954MOL0     H25892   2.785   3.066   4.282 -0.2052  1.9298 -0.7877
  954MOL0     H25893   2.553   3.069   4.204 -1.4100 -0.7387  1.0923
  954MOL0     H25894   2.190   3.079   4.495  1.4258 -0.8600  1.8211
  954MOL0     H25895   2.324   2.976   4.471  0.7058  0.5295  0.1616
  954MOL0     H25896   2.264   2.986   4.227  3.0422  2.6108  2.0683
  954MOL0     H25897   2.112   3.053   4.281  0.3080  0.4919 -1.7804
  954MOL0     H25898   2.246   2.778   4.364 -2.5540 -4.0877  0.8243
  954MOL0     H25899   2.106   2.792   4.262 -0.4489  1.3425 -0.4137
  954MOL0     H25900   2.116   2.849   4.566 -1.3627 -1.1763  0.8690
  954MOL0     H25901   1.979   2.883   4.469  1.0881  2.0574 -2.1279
  954MOL0     H25902   2.114   2.610   4.458  1.1645  2.3021 -0.6231
  954MOL0     H25903   1.970   2.659   4.373  0.9760 -2.4491 -1.0517
  954MOL0     H25904   1.868   2.741   4.600 -1.4323 -0.7057 -0.8760
  954MOL0     H25905   1.995   2.647   4.678 -0.0172 -3.3961  0.0714
  954MOL0     H25906   1.814   2.518   4.476  3.0947 -0.5733 -1.2621
  954MOL0     H25907   1.952   2.447   4.554 -0.5457  0.3267 -1.3133
  954MOL0     H25908   1.688   2.533   4.684 -0.0159 -0.7872 -3.5756
  954MOL0     H25909   1.846   2.505   4.777  1.8240  2.2794 -2.0355
  954MOL0     H25910   2.433   3.248   4.565 -1.1126 -1.8562  0.1797
  954MOL0     H25911   2.677   3.222   4.660 -0.5224 -1.3414  1.9190
  954MOL0     H25912   3.013   3.248   4.830 -0.2081 -0.9418  1.6657
  954MOL0     H25913   3.211   3.176   4.948  0.7600 -0.5768 -0.5105
  954MOL0     H25914   4.803   4.109   4.852 -0.2601 -1.9691  0.0807
  954MOL0     H25915   5.046   4.082   4.955 -1.6862 -4.2299 -0.6214
  954MOL0     H25916   5.339   4.052   5.090  2.0735  0.2310 -1.4729
  954MOL0     H25917   5.584   4.029   5.093  1.1628  0.1728  0.6338
  954MOL0     H25918   5.764   4.153   5.066  3.9658  0.5588 -2.2683
  954MOL0     H25919   5.840   4.005   5.116  3.9357  0.6759 -0.3331
  954MOL0     H25920   5.919   4.292   5.202  1.9124  0.5415  0.6617
  954MOL0     H25921   6.002   4.134   5.237  1.4772  0.9694 -1.6605
  954MOL0     H25922   5.991   4.263   4.962 -0.3907  2.0175  0.4190
  954MOL0     H25923   6.031   4.093   4.980  0.8105  1.6648 -1.7200
  954MOL0     H25924   6.228   4.272   4.972  1.2402 -1.6138  1.0326
  954MOL0     H25925   6.197   4.287   5.137 -0.0783  1.1887 -0.5805
  954MOL0     H25926   6.364   3.898   5.118 -2.7158 -0.8264 -0.8802
  954MOL0     H25927   5.616   4.212   5.468  2.8661 -3.8489  0.0588
  954MOL0     H25928   5.365   4.228   5.484  2.7695 -0.9526  1.9047
  955MOL0     O25929  11.175   5.061  10.037  0.6765 -0.0387  0.3116
  955MOL0     C25930  11.201   4.948  10.084 -0.3891 -0.1612  0.8741
  955MOL0     O25931  11.118   4.849  10.102  0.2749 -0.7535  0.5572
  955MOL0     C25932  10.980   4.868  10.090 -0.2326  0.2926 -0.5612
  955MOL0     C25933  10.901   4.815   9.989  0.3152  0.0207  1.3432
  955MOL0     C25934  10.762   4.839   9.983  0.5341  0.2494  0.4870
  955MOL0     C25935  10.701   4.917  10.081 -1.3358  1.3616  0.2738
  955MOL0     O25936  10.569   4.920  10.070 -0.1835  0.6679  0.1062
  955MOL0     C25937  10.498   5.039  10.115  0.2007  0.5102  0.1984
  955MOL0     C25938  10.351   5.012  10.096 -0.3691  0.5624 -0.3567
  955MOL0     C25939  10.264   5.132  10.129  0.3173  0.5582 -0.4676
  955MOL0     C25940  10.112   5.114  10.104 -0.1714  0.1524 -0.4639
  955MOL0     C25941  10.044   5.241  10.076 -0.0700  0.4853 -0.6356
  955MOL0     C25942   9.896   5.233  10.075  0.6016 -0.1093 -0.6276
  955MOL0     C25943   9.835   5.206  10.212 -0.3305 -0.0887 -0.3062
  955MOL0     C25944   9.685   5.254  10.217 -0.1723  0.5112  0.8943
  955MOL0     N25945   9.592   5.161  10.149 -0.4642 -0.3142  0.6913
  955MOL0     C25946   9.544   5.052  10.211  0.1743  0.0763  0.0188
  955MOL0     C25947   9.476   4.987  10.107  0.1744  1.2777 -0.9834
  955MOL0     C25948   9.389   4.863  10.112  0.1281  0.7761 -0.1502
  955MOL0     C25949   9.237   4.903  10.141 -0.2080 -0.2375 -0.1301
  955MOL0     C25950   9.176   4.996  10.040  1.0174 -0.4547  0.9913
  955MOL0     C25951   9.188   4.948   9.892 -0.2697 -0.4458 -0.1819
  955MOL0     O25952   9.105   4.835   9.876  0.3799 -0.3867  0.4585
  955MOL0     C25953   8.983   4.852   9.810 -0.3576  0.6523 -0.5958
  955MOL0     C25954   8.899   4.738   9.798  0.0558 -0.8790 -0.1567
  955MOL0     C25955   8.769   4.745   9.743 -0.3709  0.3521  0.5703
  955MOL0     C25956   8.715   4.863   9.697  0.1356 -0.5957 -0.3277
  955MOL0     C25957   8.569   4.854   9.654 -0.4503  0.7975 -0.3801
  955MOL0     O25958   8.508   4.734   9.632  0.0797 -0.4918 -0.4548
  955MOL0     C25959   8.373   4.737   9.625 -0.0571 -0.5231  0.3828
  955MOL0     C25960   8.310   4.796   9.514  0.7743 -0.3352 -0.6441
  955MOL0     C25961   8.174   4.778   9.498 -0.5178 -0.7034 -0.4629
  955MOL0     C25962   8.097   4.714   9.598  0.5325 -0.5629  0.4802
  955MOL0     O25963   7.960   4.713   9.591 -0.0099 -0.1193  0.5819
  955MOL0     C25964   7.894   4.724   9.456 -0.0956  0.1172  0.7137
  955MOL0     C25965   7.757   4.655   9.441  0.3380  0.3979 -0.0225
  955MOL0     C25966   7.634   4.739   9.479  0.3917 -0.2428 -0.3050
  955MOL0     C25967   7.517   4.679   9.394  0.5176 -0.1524  0.1667
  955MOL0     C25968   7.378   4.695   9.460 -0.8937 -0.7362  0.7143
  955MOL0     C25969   7.313   4.833   9.452 -0.1729  0.7010 -0.0661
  955MOL0     C25970   7.229   4.862   9.329  0.1035  0.1621 -0.5122
  955MOL0     C25971   7.177   5.006   9.324 -0.0057 -0.1485  0.6234
  955MOL0    Cl25972   7.033   5.014   9.415 -0.0718 -0.0305  0.6782
  955MOL0     C25973   8.164   4.673   9.710 -1.2661 -0.1182  0.0349
  955MOL0     C25974   8.302   4.676   9.726  0.5900  0.5605 -0.7069
  955MOL0     O25975   8.513   4.966   9.675 -0.7277 -0.2566 -0.7203
  955MOL0     C25976   8.793   4.978   9.711 -0.7130 -1.1779 -1.9166
  955MOL0     C25977   8.928   4.977   9.769 -0.5151 -0.1414  0.1908
  955MOL0     N25978   9.482   5.068   9.995 -0.9120 -0.2135  0.9408
  955MOL0     N25979   9.554   5.172  10.019  0.4185 -0.4919  0.0374
  955MOL0     C25980  10.780   4.983  10.183 -0.5590 -0.9693  0.3096
  955MOL0     C25981  10.916   4.954  10.189 -0.0031 -0.0785  0.3559
  955MOL0     C25982  11.344   4.922  10.108 -0.6659 -1.0518 -0.3685
  955MOL0     C25983  11.445   5.029  10.099  0.1504 -0.2402 -0.3315
  955MOL0     C25984  11.575   4.989  10.116 -0.3891  1.0937 -0.7560
  955MOL0     C25985  11.618   4.863  10.154  1.3826  0.4214 -0.0423
  955MOL0     O25986  11.737   4.814  10.188  0.3588 -0.0894  0.1969
  955MOL0     C25987  11.851   4.903  10.216 -0.4697 -0.2901  0.2728
  955MOL0     C25988  11.978   4.826  10.210  0.9257 -0.2926  0.0140
  955MOL0     C25989  12.102   4.917  10.220  0.7246 -0.4763  0.2732
  955MOL0     C25990  12.217   4.826  10.239 -0.1276  0.1083 -0.0619
  955MOL0     C25991  12.342   4.903  10.268 -0.5583 -0.1938 -0.6472
  955MOL0     C25992  12.440   4.971  10.281 -0.6456 -0.5705 -0.4466
  955MOL0     C25993  11.525   4.769  10.176 -0.3467 -0.5463 -0.0084
  955MOL0     C25994  11.386   4.797  10.155  0.5834 -0.4290 -0.3484
  955MOL0     H25995  10.936   4.752   9.908 -2.1789  0.1464  0.0493
  955MOL0     H25996  10.702   4.805   9.899  1.2035  2.5146 -0.9861
  955MOL0     H25997  10.523   5.134  10.066  0.1332  1.0554  1.1967
  955MOL0     H25998  10.505   5.057  10.223  0.3850 -0.9983  0.4565
  955MOL0     H25999  10.323   4.933  10.167  1.4302 -0.6894 -0.9812
  955MOL0     H26000  10.322   4.970   9.999  1.1081  2.3240 -1.6114
  955MOL0     H26001  10.290   5.213  10.059 -0.5331  0.9593 -0.3358
  955MOL0     H26002  10.280   5.169  10.231 -0.9875 -2.5855  1.0020
  955MOL0     H26003  10.099   5.045  10.020  1.3615 -0.0032 -0.6088
  955MOL0     H26004  10.076   5.064  10.195 -1.5402 -0.7014 -1.4350
  955MOL0     H26005  10.071   5.266   9.973 -1.1325 -1.7493 -1.5374
  955MOL0     H26006  10.081   5.311  10.151 -1.3258 -1.0963  1.5795
  955MOL0     H26007   9.867   5.159  10.000 -0.2343 -1.6673  1.1726
  955MOL0     H26008   9.861   5.332  10.044  0.7844  0.9691  2.3386
  955MOL0     H26009   9.842   5.101  10.242 -0.6287 -0.0185  0.0168
  955MOL0     H26010   9.893   5.262  10.286 -0.4882 -1.4384  0.8957
  955MOL0     H26011   9.689   5.352  10.169  2.6423 -0.1011 -0.3246
  955MOL0     H26012   9.665   5.263  10.324  3.0776 -0.1880  1.6762
  955MOL0     H26013   9.572   5.022  10.312 -1.2947 -0.2823  0.3450
  955MOL0     H26014   9.430   4.802  10.192  0.4561 -1.6560 -2.0352
  955MOL0     H26015   9.413   4.795  10.030  2.1860 -1.7912  2.3919
  955MOL0     H26016   9.231   4.953  10.239  0.0870 -2.0332  0.8566
  955MOL0     H26017   9.182   4.808  10.139 -3.6937  1.5977  0.5571
  955MOL0     H26018   9.069   4.997  10.062  0.7404  0.0090 -0.3219
  955MOL0     H26019   9.214   5.098  10.052  2.3917 -0.5890 -1.5138
  955MOL0     H26020   9.289   4.919   9.862  0.8644 -0.6411  3.3442
  955MOL0     H26021   9.170   5.032   9.824  0.9970  0.8871  1.0412
  955MOL0     H26022   8.937   4.641   9.826  1.0141 -0.6064 -0.4895
  955MOL0     H26023   8.734   4.644   9.723 -1.7032  1.0143 -0.5781
  955MOL0     H26024   8.363   4.861   9.445  0.0412 -0.3224 -1.1971
  955MOL0     H26025   8.123   4.822   9.412 -1.4919  0.1657  0.5165
  955MOL0     H26026   7.953   4.673   9.379  2.3224  1.6890  1.4139
  955MOL0     H26027   7.889   4.823   9.411 -3.4563 -0.8278 -1.3308
  955MOL0     H26028   7.758   4.557   9.490 -2.7215  0.8058  1.1469
  955MOL0     H26029   7.739   4.635   9.335 -0.6387 -1.0930  0.3995
  955MOL0     H26030   7.648   4.846   9.464  2.1955 -0.0876  1.9264
  955MOL0     H26031   7.612   4.736   9.586 -0.8918  2.1575 -0.4300
  955MOL0     H26032   7.525   4.726   9.295  1.3341 -0.8229 -0.0941
  955MOL0     H26033   7.524   4.571   9.385  0.7603 -0.1334  0.1240
  955MOL0     H26034   7.412   4.665   9.560  2.8755 -0.9320 -0.4738
  955MOL0     H26035   7.310   4.622   9.415  1.8890 -2.3139 -1.2480
  955MOL0     H26036   7.390   4.911   9.462  0.1790  0.1855  1.6847
  955MOL0     H26037   7.255   4.842   9.545 -1.7340  1.4091 -1.0773
  955MOL0     H26038   7.295   4.847   9.244 -0.3367 -2.9858 -0.4256
  955MOL0     H26039   7.139   4.800   9.322 -0.0777  0.5533 -1.9459
  955MOL0     H26040   7.160   5.040   9.221  0.5332 -3.1187 -0.5372
  955MOL0     H26041   7.256   5.075   9.358  0.2145  1.8128 -3.3100
  955MOL0     H26042   8.113   4.631   9.796 -2.2005 -0.1433 -0.5138
  955MOL0     H26043   8.351   4.624   9.808 -0.3210  0.1257 -0.4256
  955MOL0     H26044   8.770   5.075   9.668  2.8247  1.5572  1.5947
  955MOL0     H26045   8.979   5.072   9.782 -3.4341  1.8143 -1.4680
  955MOL0     H26046  10.737   5.043  10.263  1.2511 -1.5022  1.7438
  955MOL0     H26047  10.973   5.017  10.256  0.1537  1.9515 -1.5696
  955MOL0     H26048  11.415   5.126  10.058  1.8219  0.9572  1.1346
  955MOL0     H26049  11.654   5.056  10.085  1.9225 -1.7535 -1.4970
  955MOL0     H26050  11.830   4.951  10.313 -1.1376  0.3193 -0.1663
  955MOL0     H26051  11.856   4.989  10.149  0.3565  0.9735  1.8841
  955MOL0     H26052  11.974   4.764  10.300  1.1675 -0.6377 -0.2098
  955MOL0     H26053  11.973   4.769  10.117  2.2696 -0.0117 -0.2606
  955MOL0     H26054  12.083   4.998  10.290 -0.1801  1.8402 -2.4547
  955MOL0     H26055  12.126   4.967  10.125  0.0495  0.0872  0.3916
  955MOL0     H26056  12.189   4.760  10.322 -0.8831  0.2726 -0.1778
  955MOL0     H26057  12.241   4.765  10.151  0.2670 -0.0844  0.1794
  955MOL0     H26058  12.519   5.040  10.303 -1.8710  0.7254  0.0167
  955MOL0     H26059  11.546   4.663  10.184  1.7587 -0.4258 -2.5109
  955MOL0     H26060  11.315   4.714  10.150 -0.8624  0.4521  2.7635
  956MOL0     O26061   4.853  10.036   6.273 -0.1025  0.0974 -0.7050
  956MOL0     C26062   4.824   9.931   6.336  0.7186  0.2420  0.1917
  956MOL0     O26063   4.701   9.887   6.376 -0.0546  0.3424  0.0776
  956MOL0     C26064   4.595   9.963   6.365 -0.4874 -0.4476  0.6471
  956MOL0     C26065   4.464   9.908   6.354 -0.0339 -0.8012 -0.3527
  956MOL0     C26066   4.357   9.995   6.358 -0.5490 -0.8888 -0.9074
  956MOL0     C26067   4.367  10.134   6.341 -0.4850  0.8803 -0.2257
  956MOL0     O26068   4.261  10.218   6.346  0.0909  0.1733 -0.1952
  956MOL0     C26069   4.253  10.326   6.248 -0.4714 -0.0319 -0.2251
  956MOL0     C26070   4.120  10.328   6.175 -0.4570 -0.8361 -0.3083
  956MOL0     C26071   4.113  10.216   6.079 -0.0918 -0.1805 -0.7080
  956MOL0     C26072   3.982  10.221   5.996 -0.0962 -0.1279  0.4727
  956MOL0     C26073   3.856  10.186   6.072 -0.4391  0.0905  0.0256
  956MOL0     C26074   3.743  10.142   5.983  0.1829  0.2398  0.4287
  956MOL0     C26075   3.609  10.120   6.044 -0.9746 -0.0854 -0.5577
  956MOL0     C26076   3.520  10.081   5.928 -1.2992  0.1488 -0.3168
  956MOL0     N26077   3.389  10.032   5.969 -0.9328  0.1145 -0.3383
  956MOL0     C26078   3.359   9.904   6.023  0.0326 -0.7254  0.7965
  956MOL0     C26079   3.228   9.926   6.069 -0.1260 -0.5413  1.1226
  956MOL0     C26080   3.131   9.829   6.129  0.2964  0.5503  0.7695
  956MOL0     C26081   3.070   9.741   6.017  0.4108 -0.1317 -0.0124
  956MOL0     C26082   2.958   9.649   6.081 -0.4354 -0.1059  0.6964
  956MOL0     C26083   2.912   9.551   5.977  0.1873 -0.7311  0.2637
  956MOL0     O26084   2.806   9.611   5.908 -0.2405  0.2739  0.1296
  956MOL0     C26085   2.698   9.542   5.869  0.0444 -0.0938 -0.8493
  956MOL0     C26086   2.716   9.429   5.793 -0.5680 -0.0645  0.3869
  956MOL0     C26087   2.603   9.371   5.724  0.0465  0.4094  0.4812
  956MOL0     C26088   2.479   9.430   5.717  0.0433 -0.5872 -0.5505
  956MOL0     C26089   2.353   9.371   5.654  0.1497 -0.4303 -0.0040
  956MOL0     O26090   2.237   9.439   5.670  0.3734 -0.3012  1.1964
  956MOL0     C26091   2.129   9.426   5.579  1.7255 -0.3755 -0.0921
  956MOL0     C26092   2.012   9.472   5.638 -0.2850  0.6247 -0.0367
  956MOL0     C26093   1.892   9.478   5.563 -1.4774  0.3479  0.6047
  956MOL0     C26094   1.890   9.452   5.429 -0.2512  0.6315 -0.2811
  956MOL0     O26095   1.780   9.465   5.355  0.7501  0.4523  0.3636
  956MOL0     C26096   1.653   9.524   5.422 -0.4281  0.2922  0.1535
  956MOL0     C26097   1.546   9.575   5.319 -0.1919  0.3766 -0.1184
  956MOL0     C26098   1.425   9.482   5.292 -0.1572  0.4449 -0.9541
  956MOL0     C26099   1.320   9.550   5.200  0.0684  0.6259  0.1442
  956MOL0     C26100   1.199   9.463   5.215  0.2324 -0.5476 -0.0044
  956MOL0     C26101   1.111   9.486   5.089  0.7790 -0.1333  0.5211
  956MOL0     C26102   0.979   9.416   5.120 -0.1313  0.9352  0.1774
  956MOL0     C26103   0.888   9.425   5.001  0.6554 -0.2191 -0.5698
  956MOL0    Cl26104   0.831   9.584   4.978 -0.0436 -0.2928  0.4297
  956MOL0     C26105   2.010   9.416   5.366  0.0057  0.4458 -0.7414
  956MOL0     C26106   2.126   9.402   5.445 -0.5016  0.3096 -0.2937
  956MOL0     O26107   2.367   9.276   5.579  0.2353 -1.1050  0.6019
  956MOL0     C26108   2.463   9.549   5.792 -0.4049 -0.8475  0.2928
  956MOL0     C26109   2.572   9.598   5.876  0.6291 -0.7851 -0.3784
  956MOL0     N26110   3.181  10.053   6.033  0.1210 -0.2254  0.6950
  956MOL0     N26111   3.280  10.106   5.970 -0.9529  0.7977 -0.4624
  956MOL0     C26112   4.492  10.187   6.339 -0.0117 -0.0456  0.1398
  956MOL0     C26113   4.603  10.109   6.352  0.0966 -0.5391  0.0552
  956MOL0     C26114   4.926   9.831   6.361  0.0395  0.4692 -0.2714
  956MOL0     C26115   5.036   9.808   6.271  0.2544 -0.3195 -0.4200
  956MOL0     C26116   5.144   9.721   6.299  0.5273 -0.4018 -0.1427
  956MOL0     C26117   5.142   9.648   6.421  1.4236 -1.4682 -0.1644
  956MOL0     O26118   5.247   9.568   6.458  0.2064 -0.9117 -0.1940
  956MOL0     C26119   5.285   9.447   6.378 -0.4888 -0.4416  0.0952
  956MOL0     C26120   5.233   9.310   6.430 -0.3295  0.4609  0.0436
  956MOL0     C26121   5.084   9.291   6.443 -0.0952  0.0403 -0.6067
  956MOL0     C26122   5.044   9.137   6.438 -0.2760 -0.0777  0.4129
  956MOL0     C26123   5.077   9.088   6.298 -0.4462 -0.0279 -1.3034
  956MOL0     C26124   5.075   9.030   6.196  0.6971  0.3176  0.2789
  956MOL0     C26125   5.035   9.671   6.512  0.8148  0.7727 -0.8290
  956MOL0     C26126   4.932   9.762   6.481  0.6611  0.4587 -0.1146
  956MOL0     H26127   4.440   9.803   6.371 -4.4439 -0.1433 -1.4618
  956MOL0     H26128   4.257   9.953   6.360 -0.1579 -2.3194 -3.9019
  956MOL0     H26129   4.336  10.329   6.176 -0.3732 -0.8819 -0.1646
  956MOL0     H26130   4.263  10.425   6.293  0.7238 -0.2879  0.1294
  956MOL0     H26131   4.122  10.421   6.117  0.8091 -0.0802  0.8797
  956MOL0     H26132   4.037  10.326   6.246  0.6011  4.6168  1.5486
  956MOL0     H26133   4.113  10.117   6.123 -1.9240 -0.2995 -0.8798
  956MOL0     H26134   4.199  10.230   6.013 -1.3465  0.9726 -2.1842
  956MOL0     H26135   3.964  10.324   5.964 -0.5994 -0.2169  0.4596
  956MOL0     H26136   3.997  10.150   5.914 -0.0626 -0.0884  0.4446
  956MOL0     H26137   3.819  10.277   6.120 -0.3641 -0.3873  1.0062
  956MOL0     H26138   3.885  10.108   6.143  4.3601  0.1804 -1.4667
  956MOL0     H26139   3.772  10.048   5.935  0.5011 -1.9263  4.4640
  956MOL0     H26140   3.740  10.212   5.899  2.2799 -0.7566 -0.5472
  956MOL0     H26141   3.629  10.039   6.114 -0.1020 -0.1792 -0.9036
  956MOL0     H26142   3.587  10.214   6.096  2.5637  0.4683  0.2175
  956MOL0     H26143   3.563  10.011   5.856 -1.3076  0.4517 -0.6226
  956MOL0     H26144   3.496  10.169   5.868  0.4423  0.6691 -0.3228
  956MOL0     H26145   3.424   9.818   6.034  0.2242 -1.1022 -2.3559
  956MOL0     H26146   3.051   9.884   6.180 -0.1389  1.2991 -0.6719
  956MOL0     H26147   3.189   9.770   6.200  0.4938  0.5399  0.6009
  956MOL0     H26148   3.148   9.684   5.967  0.7230 -0.0169  0.3373
  956MOL0     H26149   3.019   9.796   5.937  0.4316  0.3862  0.3266
  956MOL0     H26150   3.001   9.585   6.159 -2.2314 -0.3829  1.5122
  956MOL0     H26151   2.868   9.698   6.119  0.5823  3.0519 -0.6649
  956MOL0     H26152   2.873   9.469   6.038  0.0256 -0.7671  0.1112
  956MOL0     H26153   2.984   9.528   5.898 -2.0008  1.9529 -2.7496
  956MOL0     H26154   2.816   9.394   5.766 -0.8162  1.7181 -3.5479
  956MOL0     H26155   2.621   9.279   5.669 -0.9514 -0.8803  2.2126
  956MOL0     H26156   2.004   9.488   5.745 -0.6307 -2.8033  0.5666
  956MOL0     H26157   1.801   9.506   5.615 -1.1252 -0.3931  1.6464
  956MOL0     H26158   1.680   9.610   5.484 -0.6941 -0.8792  1.9469
  956MOL0     H26159   1.612   9.439   5.478  1.1588 -0.0984  0.7764
  956MOL0     H26160   1.591   9.596   5.221  0.7679 -1.2071 -0.0547
  956MOL0     H26161   1.504   9.665   5.365 -4.1788 -2.5757  2.6195
  956MOL0     H26162   1.361   9.468   5.380  0.1954  0.6095 -0.6684
  956MOL0     H26163   1.453   9.382   5.258 -2.8919 -0.8629  0.3458
  956MOL0     H26164   1.296   9.652   5.233 -0.4909  0.3292  0.6858
  956MOL0     H26165   1.346   9.554   5.094 -3.7624  1.5593 -0.9264
  956MOL0     H26166   1.158   9.489   5.313  2.9440  0.8896  0.8306
  956MOL0     H26167   1.222   9.356   5.221 -1.8627 -1.0254  0.3816
  956MOL0     H26168   1.157   9.447   4.997 -0.6915  3.3384 -1.8732
  956MOL0     H26169   1.091   9.593   5.081  0.2269 -0.3258 -1.0067
  956MOL0     H26170   0.986   9.313   5.155 -4.5875  0.0625 -0.9341
  956MOL0     H26171   0.931   9.476   5.198 -0.7515 -0.8826  1.2528
  956MOL0     H26172   0.806   9.354   5.014  1.7630 -1.5627 -0.7354
  956MOL0     H26173   0.936   9.391   4.909  3.9261  1.5874  0.2921
  956MOL0     H26174   2.010   9.394   5.259 -2.9056 -0.3228 -0.6748
  956MOL0     H26175   2.222   9.377   5.400  2.0421 -0.8959  4.9877
  956MOL0     H26176   2.377   9.614   5.787 -0.8707 -1.2700  2.0229
  956MOL0     H26177   2.565   9.696   5.924 -0.4920 -2.1849  2.5780
  956MOL0     H26178   4.527  10.290   6.339  0.7552 -0.2385  2.1791
  956MOL0     H26179   4.698  10.156   6.375 -0.0224  0.1317 -0.7989
  956MOL0     H26180   5.027   9.847   6.171 -0.0318 -0.0769 -0.3041
  956MOL0     H26181   5.233   9.708   6.238  0.4932  1.4932 -0.6392
  956MOL0     H26182   5.394   9.438   6.378 -0.3608  0.3533 -2.4613
  956MOL0     H26183   5.265   9.466   6.273 -1.2505 -0.8330  0.1671
  956MOL0     H26184   5.265   9.224   6.370 -1.2222 -0.0795  0.3346
  956MOL0     H26185   5.268   9.294   6.532  0.8403  1.5994 -0.1440
  956MOL0     H26186   5.052   9.338   6.349  1.0889 -2.0652 -2.1443
  956MOL0     H26187   5.031   9.340   6.525 -0.5036  0.4084 -1.0822
  956MOL0     H26188   5.107   9.085   6.511  1.6995  1.3574 -0.1899
  956MOL0     H26189   4.937   9.130   6.460 -0.4602  0.0872 -0.4053
  956MOL0     H26190   5.091   8.973   6.107 -2.1180 -0.0963 -0.0500
  956MOL0     H26191   5.040   9.639   6.616  2.1377  1.0811 -0.7795
  956MOL0     H26192   4.859   9.784   6.558  1.3128 -2.6739  1.5362
  957MOL0     O26193   5.254   3.281   8.725  0.1698  0.6617 -0.5542
  957MOL0     C26194   5.204   3.313   8.831 -0.0118  0.0304  0.1442
  957MOL0     O26195   5.074   3.315   8.869  0.3108 -0.6171  0.6124
  957MOL0     C26196   4.975   3.260   8.784 -0.4488  0.0847 -0.4445
  957MOL0     C26197   4.999   3.145   8.705 -0.9559  0.2040  0.0814
  957MOL0     C26198   4.898   3.094   8.632 -0.2936  0.4410  0.3035
  957MOL0     C26199   4.772   3.156   8.620 -0.2298  0.1555 -0.3456
  957MOL0     O26200   4.690   3.080   8.540 -0.0119 -0.9222 -0.9002
  957MOL0     C26201   4.551   3.113   8.542 -0.3532  0.6253  0.0407
  957MOL0     C26202   4.468   2.992   8.494 -0.6257 -0.0822  0.9044
  957MOL0     C26203   4.513   2.965   8.348 -0.6137 -0.0656 -0.3454
  957MOL0     C26204   4.418   2.868   8.284  0.2971  0.0724  0.6143
  957MOL0     C26205   4.393   2.904   8.140  0.1223 -0.2893 -0.3198
  957MOL0     C26206   4.310   2.800   8.059  0.4949 -0.4479  0.5245
  957MOL0     C26207   4.293   2.844   7.914 -0.1749  0.1211  0.1192
  957MOL0     C26208   4.192   2.954   7.906 -0.0299  0.1553  0.6056
  957MOL0     N26209   4.142   2.981   7.769  0.4503 -0.2215  0.4842
  957MOL0     C26210   4.218   3.028   7.669 -0.1344 -0.9683  0.8086
  957MOL0     C26211   4.134   3.043   7.555  0.5395 -0.8050  0.1724
  957MOL0     C26212   4.170   3.092   7.415  0.0111  0.2035  0.2917
  957MOL0     C26213   4.281   3.002   7.362 -0.2455  0.1007 -0.6786
  957MOL0     C26214   4.302   3.016   7.211  0.9494  1.0686 -0.4344
  957MOL0     C26215   4.350   3.152   7.150  0.8664  0.7663  0.0060
  957MOL0     O26216   4.485   3.182   7.184 -0.5018  0.1655 -0.6246
  957MOL0     C26217   4.540   3.312   7.161 -0.7689 -0.5758  0.0582
  957MOL0     C26218   4.468   3.416   7.097  0.6155  0.5040  0.7686
  957MOL0     C26219   4.509   3.549   7.083 -0.5659  0.4943 -0.3454
  957MOL0     C26220   4.639   3.580   7.131 -0.9061  0.0393 -0.6354
  957MOL0     C26221   4.696   3.719   7.119  0.3116  0.6115 -0.6601
  957MOL0     O26222   4.605   3.813   7.085 -0.2859 -0.1823  1.4213
  957MOL0     C26223   4.639   3.950   7.063 -0.2770  0.3580 -0.1695
  957MOL0     C26224   4.768   3.995   7.037 -0.1278 -0.8800  0.1414
  957MOL0     C26225   4.786   4.141   7.023  0.2318 -0.3135 -0.4947
  957MOL0     C26226   4.677   4.230   7.040 -0.6737 -0.0728  1.0803
  957MOL0     O26227   4.688   4.370   7.027 -0.0783 -0.3163  0.2424
  957MOL0     C26228   4.816   4.416   6.973  0.7586 -0.3914 -0.3213
  957MOL0     C26229   4.835   4.562   6.965  0.0343 -0.2017  0.2389
  957MOL0     C26230   4.987   4.601   6.962 -0.8182 -0.6203  0.1893
  957MOL0     C26231   5.015   4.748   6.949 -1.1347  0.0620  0.0500
  957MOL0     C26232   5.161   4.788   6.979 -0.6984  0.5536  0.1351
  957MOL0     C26233   5.266   4.724   6.884  0.4736  0.4760  0.0364
  957MOL0     C26234   5.388   4.824   6.858  0.6091  1.2987 -0.3706
  957MOL0     C26235   5.468   4.842   6.986 -0.2464  0.4957 -0.2648
  957MOL0    Cl26236   5.413   4.997   7.057  0.1554  0.1570  0.2379
  957MOL0     C26237   4.554   4.173   7.062  0.3673  0.2230 -0.9219
  957MOL0     C26238   4.534   4.034   7.079 -0.3441 -0.0348 -0.1297
  957MOL0     O26239   4.810   3.737   7.140  0.6944 -0.0141 -0.2047
  957MOL0     C26240   4.715   3.479   7.191 -0.0114  0.8075 -0.8888
  957MOL0     C26241   4.665   3.347   7.216 -1.0159  0.8532 -0.1964
  957MOL0     N26242   4.006   2.995   7.590  0.1643  0.2991 -0.2729
  957MOL0     N26243   4.018   2.965   7.721  0.1236 -0.4066 -0.1497
  957MOL0     C26244   4.751   3.267   8.693 -0.0698  0.1878 -0.4935
  957MOL0     C26245   4.850   3.318   8.784  0.2164 -0.5906  0.3377
  957MOL0     C26246   5.285   3.359   8.935  0.3306 -0.3478 -0.6533
  957MOL0     C26247   5.414   3.413   8.931  0.3008 -0.5676  0.9977
  957MOL0     C26248   5.500   3.447   9.037 -0.7267  1.0150  0.0500
  957MOL0     C26249   5.448   3.431   9.161 -0.5043  0.9236  0.5918
  957MOL0     O26250   5.523   3.448   9.280  0.0682 -0.5173  0.2328
  957MOL0     C26251   5.662   3.503   9.280  0.5520 -0.4228 -0.0287
  957MOL0     C26252   5.730   3.508   9.420 -0.4049 -0.6554  0.0269
  957MOL0     C26253   5.647   3.590   9.516 -0.6444  0.9632 -0.6944
  957MOL0     C26254   5.718   3.713   9.572  0.5031  0.6249  0.9537
  957MOL0     C26255   5.802   3.678   9.694 -0.4802 -0.4958 -0.3660
  957MOL0     C26256   5.861   3.679   9.798 -0.5242 -0.1070 -0.9601
  957MOL0     C26257   5.315   3.379   9.173  0.4189  0.0450 -0.3707
  957MOL0     C26258   5.240   3.345   9.068 -0.0851  0.8898 -0.0270
  957MOL0     H26259   5.099   3.106   8.709  0.0108  2.2928 -1.7197
  957MOL0     H26260   4.920   3.014   8.563 -0.3197  0.1324  0.6480
  957MOL0     H26261   4.538   3.211   8.494 -0.4416  0.0989 -1.0502
  957MOL0     H26262   4.512   3.130   8.642 -1.6629 -2.8537  0.2514
  957MOL0     H26263   4.362   3.015   8.504 -0.2871  1.9695  0.3424
  957MOL0     H26264   4.499   2.911   8.561  1.6311 -0.9629 -1.0512
  957MOL0     H26265   4.615   2.927   8.340 -0.4324 -0.8571  3.5753
  957MOL0     H26266   4.513   3.047   8.276 -1.1081 -0.7060 -1.0981
  957MOL0     H26267   4.443   2.762   8.287 -1.0668 -0.2910  0.0070
  957MOL0     H26268   4.323   2.870   8.337  0.9616  1.3064  1.8200
  957MOL0     H26269   4.488   2.917   8.087 -1.4468  2.1226 -2.7765
  957MOL0     H26270   4.345   3.002   8.140  4.2091  1.9326 -1.6658
  957MOL0     H26271   4.213   2.788   8.107  1.2025  1.0404  2.4609
  957MOL0     H26272   4.363   2.708   8.088  2.3558  0.3691 -0.1104
  957MOL0     H26273   4.386   2.872   7.864  0.0783  0.7122  0.8976
  957MOL0     H26274   4.251   2.765   7.852 -1.9871  1.9684 -1.1665
  957MOL0     H26275   4.228   3.050   7.945  0.4241  0.5439 -0.7431
  957MOL0     H26276   4.104   2.918   7.961 -0.1513 -0.0785  0.2602
  957MOL0     H26277   4.318   3.069   7.677  0.1375 -1.8831  2.7010
  957MOL0     H26278   4.200   3.197   7.422  0.1085  0.4369 -2.4870
  957MOL0     H26279   4.088   3.077   7.344 -1.2747 -2.9698  2.2503
  957MOL0     H26280   4.259   2.899   7.391  0.1987  0.0576 -0.4777
  957MOL0     H26281   4.374   3.024   7.415 -1.4371 -0.6644  1.8834
  957MOL0     H26282   4.377   2.940   7.190  2.6911  2.5461  0.2293
  957MOL0     H26283   4.212   2.980   7.160  0.3598  1.9483 -0.0648
  957MOL0     H26284   4.296   3.235   7.198  3.2819  1.6609  1.3447
  957MOL0     H26285   4.333   3.149   7.042  1.6515  0.6533 -0.1161
  957MOL0     H26286   4.367   3.393   7.062  1.1250 -1.4405  0.4233
  957MOL0     H26287   4.448   3.631   7.047 -0.9816  0.3607  0.0440
  957MOL0     H26288   4.856   3.935   7.018 -0.1225 -1.7794  2.6849
  957MOL0     H26289   4.888   4.169   6.999  0.0432 -2.4718 -4.5864
  957MOL0     H26290   4.815   4.390   6.867 -3.1994  0.6010 -0.6817
  957MOL0     H26291   4.898   4.369   7.028  2.9794  0.7934 -2.4129
  957MOL0     H26292   4.798   4.613   7.054 -1.0736  1.0863 -0.9212
  957MOL0     H26293   4.793   4.602   6.873  2.2862 -4.5563 -3.0497
  957MOL0     H26294   5.041   4.552   6.881  2.7889  3.3167 -0.1284
  957MOL0     H26295   5.039   4.575   7.055 -2.5882 -2.4232  0.7525
  957MOL0     H26296   4.996   4.791   6.849 -2.3003  4.0150  1.7577
  957MOL0     H26297   4.955   4.798   7.026  0.3764 -0.6073  1.7231
  957MOL0     H26298   5.184   4.760   7.082 -1.3923  0.8010  0.3689
  957MOL0     H26299   5.180   4.895   6.967  0.7865  0.6968  2.8958
  957MOL0     H26300   5.220   4.719   6.785 -1.1645  0.7421  0.7419
  957MOL0     H26301   5.287   4.622   6.915  0.1941 -0.0139 -1.3250
  957MOL0     H26302   5.447   4.771   6.783 -0.6939 -3.2152  1.4436
  957MOL0     H26303   5.339   4.916   6.827  0.1862  1.8772  1.8092
  957MOL0     H26304   5.573   4.850   6.958 -0.0857 -1.3434 -0.2961
  957MOL0     H26305   5.439   4.768   7.060  0.0244  2.1675  1.6056
  957MOL0     H26306   4.466   4.234   7.079  0.3654 -0.3627  1.6837
  957MOL0     H26307   4.434   3.998   7.102 -0.3776 -0.7210 -1.2763
  957MOL0     H26308   4.815   3.508   7.221 -0.9819  1.2822  2.2875
  957MOL0     H26309   4.716   3.266   7.267  0.8458  3.9552  3.4220
  957MOL0     H26310   4.652   3.312   8.698 -0.0284  0.7405 -3.0319
  957MOL0     H26311   4.837   3.404   8.849  2.9525  1.4817 -1.6263
  957MOL0     H26312   5.447   3.416   8.828  2.1603 -0.1309  1.5694
  957MOL0     H26313   5.605   3.468   9.023 -0.9157  1.9741 -0.0169
  957MOL0     H26314   5.674   3.596   9.223  3.7611  1.1195  2.7742
  957MOL0     H26315   5.726   3.427   9.234 -0.2429 -1.8037  1.0668
  957MOL0     H26316   5.736   3.405   9.457 -0.8278 -0.1343  1.6513
  957MOL0     H26317   5.835   3.537   9.404 -0.7676  1.4446  1.1331
  957MOL0     H26318   5.611   3.521   9.593  0.2434  0.3843 -0.7811
  957MOL0     H26319   5.562   3.626   9.457  1.0104  0.3837 -3.6389
  957MOL0     H26320   5.776   3.764   9.494  1.6046  4.1999  3.8032
  957MOL0     H26321   5.639   3.787   9.590  0.5924  1.0809 -0.3713
  957MOL0     H26322   5.896   3.674   9.899  0.0249 -1.8031 -1.2070
  957MOL0     H26323   5.284   3.353   9.274  1.0208 -3.0361 -0.8625
  957MOL0     H26324   5.141   3.306   9.086  1.5270 -2.9338  1.6173
  958MOL0     O26325   9.012   6.212   3.156  0.7961 -0.6689 -0.2331
  958MOL0     C26326   9.017   6.305   3.080  0.0901  0.5750  0.3295
  958MOL0     O26327   8.904   6.375   3.043 -0.4895  0.8346  0.0443
  958MOL0     C26328   8.793   6.314   3.085 -0.2079  0.0689  0.5541
  958MOL0     C26329   8.744   6.217   2.995  0.1206  0.3774 -0.4643
  958MOL0     C26330   8.635   6.135   3.029 -0.4293 -0.4519  0.3057
  958MOL0     C26331   8.586   6.143   3.160  0.5679  0.0452  0.1634
  958MOL0     O26332   8.488   6.060   3.213 -0.4366 -0.3809  0.1210
  958MOL0     C26333   8.389   6.029   3.115  0.2493  0.3596 -0.2704
  958MOL0     C26334   8.278   5.956   3.189 -0.2247 -0.2019 -0.2891
  958MOL0     C26335   8.329   5.814   3.222 -0.9506 -0.2077 -0.8379
  958MOL0     C26336   8.223   5.722   3.297 -0.1296 -0.7088  0.4724
  958MOL0     C26337   8.166   5.626   3.188 -0.5961  0.5203  0.3407
  958MOL0     C26338   8.067   5.539   3.278 -0.7045 -0.4116 -0.1104
  958MOL0     C26339   8.018   5.411   3.215  0.1654  0.1231  0.1948
  958MOL0     C26340   7.937   5.451   3.088  0.2623  0.5241 -0.3621
  958MOL0     N26341   7.809   5.504   3.129  0.1418 -0.4480 -0.6418
  958MOL0     C26342   7.691   5.447   3.094  0.5565 -0.2660 -0.1015
  958MOL0     C26343   7.598   5.530   3.156 -0.0432  0.5204  0.2242
  958MOL0     C26344   7.449   5.506   3.133 -0.0463  0.2182 -0.2682
  958MOL0     C26345   7.371   5.615   3.213  0.1082  0.6540 -0.6016
  958MOL0     C26346   7.364   5.752   3.150 -0.0941 -0.1456  0.2344
  958MOL0     C26347   7.275   5.749   3.030 -0.6600 -0.7517  0.1077
  958MOL0     O26348   7.279   5.876   2.948  1.1377 -0.5710  0.4710
  958MOL0     C26349   7.153   5.914   2.906  0.5093  0.8773  0.4473
  958MOL0     C26350   7.087   5.873   2.786 -0.7580  0.1504 -1.0774
  958MOL0     C26351   6.955   5.904   2.755  0.5639 -0.9261  0.2128
  958MOL0     C26352   6.873   5.992   2.842 -0.1834  0.5473  0.6039
  958MOL0     C26353   6.732   6.027   2.806  0.7403 -0.0957 -0.0532
  958MOL0     O26354   6.665   5.924   2.745 -0.0599 -0.3315 -0.6718
  958MOL0     C26355   6.532   5.918   2.708 -0.1033 -1.6111  0.0050
  958MOL0     C26356   6.482   5.792   2.696  0.1477 -0.1120 -0.5952
  958MOL0     C26357   6.350   5.764   2.679 -0.4392 -0.2385 -0.5225
  958MOL0     C26358   6.252   5.872   2.667 -0.4740  0.0376  0.4561
  958MOL0     O26359   6.119   5.858   2.655 -0.1370  0.9578  0.2998
  958MOL0     C26360   6.062   5.739   2.607 -0.0138  0.2464 -0.0621
  958MOL0     C26361   5.919   5.742   2.606  0.7135  0.2887 -0.6514
  958MOL0     C26362   5.856   5.847   2.515 -0.2643  0.3156 -0.3047
  958MOL0     C26363   5.712   5.856   2.561  0.0839 -0.0522  0.8789
  958MOL0     C26364   5.651   5.958   2.458 -0.5991 -0.3706  0.4268
  958MOL0     C26365   5.498   5.951   2.461 -0.3660 -0.1328  0.2765
  958MOL0     C26366   5.448   6.037   2.568  0.9627  0.3769 -0.5796
  958MOL0     C26367   5.301   6.002   2.588  0.6315 -0.4295  0.1754
  958MOL0    Cl26368   5.256   6.116   2.710 -0.0399 -0.1255 -0.6291
  958MOL0     C26369   6.302   5.998   2.681 -0.2056  0.2866  0.3780
  958MOL0     C26370   6.436   6.023   2.704 -0.1459  0.4368  0.6358
  958MOL0     O26371   6.687   6.135   2.845 -0.3040 -0.2599  0.2160
  958MOL0     C26372   6.937   6.033   2.962 -0.3140  0.1405  0.7891
  958MOL0     C26373   7.072   5.998   2.992  0.8105  0.7569 -0.3405
  958MOL0     N26374   7.668   5.638   3.222  0.8023  0.1081 -0.5335
  958MOL0     N26375   7.786   5.632   3.182 -0.4220 -0.1129 -0.4865
  958MOL0     C26376   8.644   6.232   3.254 -0.9975 -0.1354  0.3713
  958MOL0     C26377   8.744   6.316   3.210 -0.0639  0.9959  0.3223
  958MOL0     C26378   9.145   6.349   3.019 -0.0569 -0.0362 -0.5832
  958MOL0     C26379   9.255   6.349   3.107  0.2025 -0.4460 -0.2962
  958MOL0     C26380   9.379   6.383   3.056 -0.2059  0.0984 -0.7362
  958MOL0     C26381   9.397   6.413   2.927 -0.0591 -0.0399  0.6915
  958MOL0     O26382   9.523   6.450   2.885 -0.4873 -0.9053  0.1332
  958MOL0     C26383   9.516   6.545   2.773  0.5520  0.0681 -0.4268
  958MOL0     C26384   9.648   6.615   2.735  0.3497 -0.5735 -0.4078
  958MOL0     C26385   9.636   6.688   2.601 -0.1683 -0.6109 -0.3582
  958MOL0     C26386   9.747   6.795   2.577 -0.1443 -0.8754  0.2211
  958MOL0     C26387   9.878   6.738   2.561 -0.2700 -0.0350 -1.1492
  958MOL0     C26388   9.996   6.701   2.550  0.1117 -0.0655  0.1158
  958MOL0     C26389   9.284   6.408   2.835  0.3342 -0.0570  0.2055
  958MOL0     C26390   9.160   6.375   2.881 -0.4223 -0.8363 -0.0025
  958MOL0     H26391   8.778   6.206   2.893 -0.7042 -2.7458 -0.5090
  958MOL0     H26392   8.602   6.058   2.960  0.7292  0.9551 -1.9087
  958MOL0     H26393   8.427   5.959   3.040 -0.5547  0.0763 -0.4193
  958MOL0     H26394   8.337   6.111   3.064  2.2541  1.1398 -1.1417
  958MOL0     H26395   8.198   5.945   3.116  2.1449  0.5552 -3.2183
  958MOL0     H26396   8.240   6.013   3.275 -2.0926 -0.5986 -0.8046
  958MOL0     H26397   8.422   5.819   3.279 -1.1168  0.3227 -0.6060
  958MOL0     H26398   8.361   5.749   3.140  0.2143  0.7033 -1.1350
  958MOL0     H26399   8.279   5.670   3.375  2.9568  0.1312 -1.0434
  958MOL0     H26400   8.145   5.789   3.336  2.9345  5.1427 -2.2005
  958MOL0     H26401   8.248   5.562   3.157 -0.3203  1.2141 -0.3887
  958MOL0     H26402   8.122   5.683   3.105  0.7280  0.4606 -0.4209
  958MOL0     H26403   7.985   5.604   3.310  0.6359  2.1422 -1.5259
  958MOL0     H26404   8.119   5.497   3.365 -1.1745 -1.7535 -0.4528
  958MOL0     H26405   8.095   5.344   3.175 -0.5700 -0.3111 -0.5254
  958MOL0     H26406   7.954   5.366   3.291 -0.7541  0.1801 -0.5256
  958MOL0     H26407   7.920   5.356   3.036  2.3729 -1.3989  2.2202
  958MOL0     H26408   7.987   5.513   3.014 -0.5729  1.0920 -0.4683
  958MOL0     H26409   7.671   5.352   3.045  0.1650  0.1324 -0.7166
  958MOL0     H26410   7.413   5.407   3.163 -0.6893  1.0368  1.8752
  958MOL0     H26411   7.436   5.515   3.025  1.3887  0.9325 -0.4067
  958MOL0     H26412   7.418   5.618   3.312  0.0999 -2.7533 -0.3644
  958MOL0     H26413   7.273   5.569   3.225  0.5947 -0.7117 -1.5940
  958MOL0     H26414   7.333   5.821   3.229 -2.1116  0.8060 -1.2717
  958MOL0     H26415   7.460   5.794   3.117 -1.9255  2.8706 -1.8675
  958MOL0     H26416   7.171   5.722   3.051 -1.0455  0.2390 -0.4441
  958MOL0     H26417   7.312   5.666   2.969  1.1017 -0.2784  0.4923
  958MOL0     H26418   7.134   5.799   2.721 -0.7045 -0.3992 -0.4259
  958MOL0     H26419   6.910   5.872   2.662 -1.0406 -0.2302  0.7149
  958MOL0     H26420   6.555   5.716   2.723  2.2301  2.1561  0.5233
  958MOL0     H26421   6.334   5.657   2.669  1.7847 -0.9026  2.0400
  958MOL0     H26422   6.094   5.654   2.668 -2.0458 -0.1148  0.5803
  958MOL0     H26423   6.078   5.728   2.500 -1.9798  2.7268 -0.7366
  958MOL0     H26424   5.882   5.746   2.709  1.9299 -0.8864 -0.1408
  958MOL0     H26425   5.886   5.644   2.572 -0.1489 -0.2504  1.5510
  958MOL0     H26426   5.882   5.820   2.412  1.7321 -3.0690  0.9172
  958MOL0     H26427   5.904   5.941   2.541  0.7267  0.2731 -1.8369
  958MOL0     H26428   5.673   5.754   2.564 -2.3309  0.7891  0.4059
  958MOL0     H26429   5.701   5.905   2.658  0.4460 -0.2750  1.0363
  958MOL0     H26430   5.678   5.933   2.355  0.4666 -0.8382  0.8118
  958MOL0     H26431   5.685   6.058   2.485  2.5068 -0.8765 -1.2220
  958MOL0     H26432   5.467   5.846   2.463  0.8846 -0.5307 -0.3665
  958MOL0     H26433   5.463   5.997   2.369 -0.4025  1.2121  0.9461
  958MOL0     H26434   5.509   6.007   2.653 -2.5173 -4.3895  0.6634
  958MOL0     H26435   5.458   6.139   2.531  0.8308  0.0329 -1.6154
  958MOL0     H26436   5.302   5.898   2.622  2.4395 -0.0228  1.4994
  958MOL0     H26437   5.251   6.020   2.492  2.3826  3.5606 -0.1785
  958MOL0     H26438   6.245   6.090   2.675  0.5694  0.6894 -1.5184
  958MOL0     H26439   6.491   6.116   2.720  1.9373 -0.9070  1.6751
  958MOL0     H26440   6.880   6.092   3.033 -2.9481 -3.2476  1.7696
  958MOL0     H26441   7.117   6.038   3.083  0.4339 -2.0878  1.1882
  958MOL0     H26442   8.599   6.239   3.352 -1.3892  0.2661  0.1635
  958MOL0     H26443   8.786   6.394   3.272 -0.2658  1.1244  0.2991
  958MOL0     H26444   9.236   6.304   3.204  0.4754 -1.2856 -0.6257
  958MOL0     H26445   9.462   6.383   3.126 -0.9287  3.6894  0.3555
  958MOL0     H26446   9.458   6.631   2.808  1.8870 -0.1212  2.5564
  958MOL0     H26447   9.475   6.498   2.683 -1.0188  0.3599  0.1021
  958MOL0     H26448   9.676   6.690   2.810 -1.4368  1.0209 -1.2437
  958MOL0     H26449   9.734   6.548   2.727  0.0347 -1.0383  0.0356
  958MOL0     H26450   9.535   6.731   2.598 -0.2695 -0.7705  0.5298
  958MOL0     H26451   9.646   6.612   2.522  3.2999 -0.4546 -0.1867
  958MOL0     H26452   9.718   6.840   2.481 -1.9867 -1.9059  0.2495
  958MOL0     H26453   9.742   6.862   2.663  0.9997 -2.1763  1.3367
  958MOL0     H26454  10.096   6.666   2.536  0.1894 -0.9499  2.4462
  958MOL0     H26455   9.288   6.430   2.729 -0.3493  2.0629  0.5848
  958MOL0     H26456   9.086   6.366   2.802  1.3945 -0.0947 -1.8764
  959MOL0     O26457   1.192   5.213   2.427 -0.2393 -0.4308  0.3432
  959MOL0     C26458   1.165   5.108   2.482 -0.0309  0.3043 -0.2190
  959MOL0     O26459   1.261   5.009   2.512 -0.0338 -0.0652  0.0007
  959MOL0     C26460   1.394   5.026   2.486  0.2737  0.0046  0.2951
  959MOL0     C26461   1.475   5.124   2.542 -0.3115 -0.5242  0.0610
  959MOL0     C26462   1.615   5.125   2.513  0.0680  0.0882 -0.1733
  959MOL0     C26463   1.671   5.015   2.443  0.0899 -0.0917 -0.5629
  959MOL0     O26464   1.806   4.998   2.424  0.1393 -0.0666 -0.1914
  959MOL0     C26465   1.894   5.108   2.424  0.2658  0.0311  0.1072
  959MOL0     C26466   2.030   5.083   2.357 -0.0561  0.2893  0.7594
  959MOL0     C26467   2.086   5.223   2.313  0.1964 -0.2123  0.0619
  959MOL0     C26468   2.236   5.218   2.315  0.3981 -0.5086 -0.5313
  959MOL0     C26469   2.290   5.347   2.247 -0.1325 -0.6283 -0.5077
  959MOL0     C26470   2.341   5.447   2.353  0.5708  0.3591  1.4712
  959MOL0     C26471   2.384   5.580   2.288  0.2883  0.1871  0.4244
  959MOL0     C26472   2.329   5.710   2.339 -0.4188  0.8278  0.1295
  959MOL0     N26473   2.182   5.716   2.341  0.3137  0.5640 -0.0957
  959MOL0     C26474   2.094   5.702   2.237 -0.4773  0.6332  0.2733
  959MOL0     C26475   1.977   5.745   2.286  0.3829 -0.8401 -0.0840
  959MOL0     C26476   1.847   5.735   2.212 -0.1996  0.4397  0.6245
  959MOL0     C26477   1.730   5.719   2.301  1.3156 -0.6553  0.7877
  959MOL0     C26478   1.601   5.696   2.230 -0.1767 -0.4220  1.2380
  959MOL0     C26479   1.489   5.710   2.327  0.0219  0.1281  0.1950
  959MOL0     O26480   1.370   5.694   2.248  0.6964  0.2444  0.2886
  959MOL0     C26481   1.252   5.671   2.310  0.1479  0.4495 -0.2503
  959MOL0     C26482   1.219   5.720   2.432 -0.6568 -0.6735 -0.3390
  959MOL0     C26483   1.101   5.692   2.492  0.9498  0.6261 -0.1538
  959MOL0     C26484   0.997   5.619   2.422  0.1771  0.5997  0.2530
  959MOL0     C26485   0.868   5.589   2.484  0.0368  0.1717  0.5341
  959MOL0     O26486   0.784   5.522   2.407 -0.1753  0.3868  0.4820
  959MOL0     C26487   0.653   5.497   2.439 -0.0233 -0.8434 -0.6555
  959MOL0     C26488   0.611   5.472   2.573 -1.1840 -0.2185  0.2300
  959MOL0     C26489   0.474   5.454   2.594 -0.2962  0.5718  0.6486
  959MOL0     C26490   0.378   5.452   2.495  0.7127  0.5860  1.2227
  959MOL0     O26491   0.250   5.420   2.521  0.0469 -0.0406  0.0729
  959MOL0     C26492   0.182   5.508   2.616  1.2529 -0.1822 -0.3890
  959MOL0     C26493   0.078   5.584   2.533  0.2990  0.2287 -0.2323
  959MOL0     C26494  -0.060   5.579   2.589  0.3434  0.5483 -0.3118
  959MOL0     C26495  -0.108   5.431   2.573  0.8021  0.3900 -0.3218
  959MOL0     C26496  -0.255   5.424   2.626 -0.6225 -0.2287 -0.8111
  959MOL0     C26497  -0.296   5.274   2.625 -0.0651 -0.1434 -0.0823
  959MOL0     C26498  -0.441   5.258   2.660  0.5140  0.1716 -0.0215
  959MOL0     C26499  -0.470   5.264   2.806  0.5702  0.5948  0.0782
  959MOL0    Cl26500  -0.652   5.258   2.821 -0.3785  0.0498 -0.0091
  959MOL0     C26501   0.423   5.470   2.370 -0.1564  1.0330 -0.0939
  959MOL0     C26502   0.559   5.496   2.339 -0.6356 -0.0609 -0.0464
  959MOL0     O26503   0.836   5.650   2.591 -0.3052  0.7519 -0.5865
  959MOL0     C26504   1.030   5.583   2.288 -0.1893 -0.3201 -0.0873
  959MOL0     C26505   1.155   5.605   2.235 -0.3608  0.7522 -0.5626
  959MOL0     N26506   1.993   5.784   2.416  0.3450 -0.9006  0.0654
  959MOL0     N26507   2.118   5.763   2.450 -0.0297  0.2275  0.6227
  959MOL0     C26508   1.586   4.914   2.400 -0.0579 -0.4474  0.0036
  959MOL0     C26509   1.450   4.925   2.415  0.8844  0.5640  0.7538
  959MOL0     C26510   1.025   5.079   2.507  0.3270  1.1697 -1.1182
  959MOL0     C26511   0.989   4.950   2.544  0.2768  0.3505 -0.7288
  959MOL0     C26512   0.854   4.925   2.583  0.4821  0.8635 -0.4349
  959MOL0     C26513   0.763   5.034   2.591 -0.0145  0.0556 -0.5318
  959MOL0     O26514   0.636   5.011   2.637  0.8233 -0.3414 -0.2074
  959MOL0     C26515   0.530   5.097   2.587 -0.7805  0.4986 -0.0015
  959MOL0     C26516   0.398   5.032   2.641  0.8956  0.7655 -0.2860
  959MOL0     C26517   0.271   5.108   2.591  0.1734  0.6405 -0.4985
  959MOL0     C26518   0.152   5.064   2.678 -0.4325  0.4823  0.3522
  959MOL0     C26519   0.113   4.921   2.678 -0.1558 -0.3906  1.0911
  959MOL0     C26520   0.082   4.800   2.676 -0.4563 -0.0597  1.0636
  959MOL0     C26521   0.806   5.163   2.551  0.6915  0.1169 -0.8710
  959MOL0     C26522   0.934   5.180   2.508  0.2763  1.0554  0.6996
  959MOL0     H26523   1.436   5.207   2.600  0.6669 -0.1747  0.2287
  959MOL0     H26524   1.669   5.204   2.563  1.3128 -1.6302  1.3589
  959MOL0     H26525   1.910   5.146   2.525 -0.9366  1.0865 -0.0664
  959MOL0     H26526   1.843   5.186   2.367 -2.2130 -2.5578 -1.4790
  959MOL0     H26527   2.017   5.018   2.270  0.4024  0.7829  0.3194
  959MOL0     H26528   2.102   5.044   2.430  0.6411 -1.0365 -0.5944
  959MOL0     H26529   2.055   5.299   2.386 -0.4612 -0.6664  0.2660
  959MOL0     H26530   2.046   5.241   2.212 -1.9832 -1.6149  0.5949
  959MOL0     H26531   2.266   5.202   2.418 -3.6030 -0.0849  0.8905
  959MOL0     H26532   2.269   5.137   2.250 -2.4234  0.7252 -3.8323
  959MOL0     H26533   2.218   5.396   2.180  0.5777  0.2854 -0.6246
  959MOL0     H26534   2.369   5.320   2.177  0.8966  1.4961 -0.2623
  959MOL0     H26535   2.431   5.401   2.396  1.2173 -1.2191 -1.3432
  959MOL0     H26536   2.269   5.478   2.429  0.3795  1.7088  0.7559
  959MOL0     H26537   2.492   5.598   2.292  0.3574  0.4210 -1.3885
  959MOL0     H26538   2.369   5.574   2.180 -1.2670  0.9483  0.5739
  959MOL0     H26539   2.375   5.790   2.280  1.3765  0.7118  1.2992
  959MOL0     H26540   2.366   5.732   2.440  3.9522 -1.3878 -0.7216
  959MOL0     H26541   2.114   5.652   2.142 -0.9191 -1.1425  1.0688
  959MOL0     H26542   1.858   5.657   2.136  1.6403  2.6285 -1.5138
  959MOL0     H26543   1.836   5.828   2.155  0.6036  0.7337  0.9363
  959MOL0     H26544   1.723   5.806   2.367  0.1528 -0.2638  0.1890
  959MOL0     H26545   1.739   5.634   2.369 -1.4342 -0.3658  1.6348
  959MOL0     H26546   1.579   5.773   2.155 -1.3211 -0.4419  1.5386
  959MOL0     H26547   1.607   5.598   2.181  0.4111  0.6835 -1.0778
  959MOL0     H26548   1.489   5.810   2.372  1.2452  0.2544 -0.0478
  959MOL0     H26549   1.489   5.628   2.399  2.6284  1.3316  1.7142
  959MOL0     H26550   1.293   5.780   2.486 -0.3099 -1.5781  0.2087
  959MOL0     H26551   1.076   5.740   2.586  0.2754  2.8558 -1.4090
  959MOL0     H26552   0.680   5.482   2.656 -0.1831  0.1857 -0.6300
  959MOL0     H26553   0.436   5.438   2.694 -3.6279 -3.1028 -0.9299
  959MOL0     H26554   0.249   5.588   2.651  1.5966 -0.3966 -0.5525
  959MOL0     H26555   0.145   5.465   2.709  1.7421  0.9313  0.3426
  959MOL0     H26556   0.069   5.530   2.439  0.3604 -0.8173  0.3424
  959MOL0     H26557   0.119   5.684   2.518 -1.7346  1.0898 -0.2916
  959MOL0     H26558  -0.129   5.641   2.531  0.3791  0.5980 -0.3003
  959MOL0     H26559  -0.072   5.617   2.690  0.8721  3.0572 -1.1410
  959MOL0     H26560  -0.115   5.390   2.472 -1.5159 -1.8034  0.6171
  959MOL0     H26561  -0.041   5.364   2.628 -0.0039 -0.1333  0.0519
  959MOL0     H26562  -0.315   5.479   2.552  0.4046 -1.6329 -2.7628
  959MOL0     H26563  -0.270   5.465   2.727 -1.3531 -3.9941  0.7774
  959MOL0     H26564  -0.230   5.228   2.699  3.0107  1.3365 -1.6780
  959MOL0     H26565  -0.294   5.237   2.522 -4.0601 -2.8164  0.5850
  959MOL0     H26566  -0.505   5.340   2.626 -2.1254 -1.0587  1.5798
  959MOL0     H26567  -0.484   5.169   2.613 -1.7425  0.6650  0.9402
  959MOL0     H26568  -0.424   5.356   2.844  1.7877  0.3982 -0.8481
  959MOL0     H26569  -0.412   5.187   2.858 -1.0449 -0.2494  0.7131
  959MOL0     H26570   0.351   5.465   2.290 -0.9603 -0.9110  0.7047
  959MOL0     H26571   0.589   5.499   2.234 -1.5716  0.4832 -0.3108
  959MOL0     H26572   0.971   5.526   2.217  0.0372 -0.0115 -0.5276
  959MOL0     H26573   1.178   5.582   2.131  0.6614  1.9044 -0.6179
  959MOL0     H26574   1.608   4.822   2.348 -0.7392  0.2986 -1.6931
  959MOL0     H26575   1.387   4.842   2.384  1.4978 -0.3141  1.7993
  959MOL0     H26576   1.064   4.872   2.538  2.0768  2.1025 -2.8598
  959MOL0     H26577   0.805   4.830   2.602 -0.9799  1.5001 -0.8959
  959MOL0     H26578   0.535   5.116   2.479  1.0240 -1.7338 -0.3880
  959MOL0     H26579   0.543   5.196   2.631 -2.4120  1.2824 -1.1558
  959MOL0     H26580   0.391   4.932   2.599  1.8710 -0.1476  1.5730
  959MOL0     H26581   0.404   5.019   2.750  0.2415 -1.0081 -0.4330
  959MOL0     H26582   0.246   5.091   2.486 -1.5909  0.4173 -0.0755
  959MOL0     H26583   0.297   5.212   2.613 -2.4398  1.0321  1.0844
  959MOL0     H26584   0.173   5.106   2.776 -1.2256  2.3456 -0.2268
  959MOL0     H26585   0.072   5.117   2.624 -0.8865 -1.0246 -0.5234
  959MOL0     H26586   0.049   4.698   2.677  3.7675 -1.6041  0.8397
  959MOL0     H26587   0.733   5.243   2.539 -0.0322 -0.7365 -2.5067
  959MOL0     H26588   0.971   5.275   2.469 -1.2175  0.2348 -3.1929
  960MOL0     O26589   0.812   6.231   2.375  1.3170 -0.9357  0.2597
  960MOL0     C26590   0.858   6.350   2.383 -0.1966  0.5349  0.5647
  960MOL0     O26591   0.784   6.471   2.421  0.3291 -0.4718 -0.1030
  960MOL0     C26592   0.647   6.454   2.423 -0.6925  0.0471 -0.0683
  960MOL0     C26593   0.580   6.439   2.303  0.0871 -0.1081 -0.0956
  960MOL0     C26594   0.442   6.429   2.303  0.2848  0.7251  0.7746
  960MOL0     C26595   0.371   6.435   2.420  1.5109  0.5145  0.2557
  960MOL0     O26596   0.235   6.433   2.408 -0.0704  0.3551 -0.1223
  960MOL0     C26597   0.161   6.408   2.532 -0.0414 -0.6969 -0.1441
  960MOL0     C26598   0.012   6.422   2.517  0.2279 -0.1867 -0.3842
  960MOL0     C26599  -0.040   6.315   2.416 -0.6216  0.6094 -0.6643
  960MOL0     C26600  -0.183   6.323   2.403 -0.7050  0.0675  0.1200
  960MOL0     C26601  -0.208   6.232   2.273 -0.1761 -0.0366 -0.1275
  960MOL0     C26602  -0.353   6.235   2.246 -0.2130 -0.1167  0.0371
  960MOL0     C26603  -0.389   6.165   2.114 -0.6049  0.2448 -0.1947
  960MOL0     C26604  -0.337   6.019   2.114 -0.6988  0.4072  0.6038
  960MOL0     N26605  -0.433   5.938   2.185  0.7082  0.0118 -0.1131
  960MOL0     C26606  -0.433   5.901   2.322  0.7407 -0.7921 -0.0125
  960MOL0     C26607  -0.503   5.784   2.337  0.2918 -0.4451  0.4931
  960MOL0     C26608  -0.544   5.690   2.457 -0.0965  0.0909 -0.7419
  960MOL0     C26609  -0.629   5.753   2.585 -0.0600  0.4674 -0.7368
  960MOL0     C26610  -0.705   5.628   2.660  0.4285 -0.1163  0.6347
  960MOL0     C26611  -0.815   5.564   2.570 -0.4680 -0.3318  0.0761
  960MOL0     O26612  -0.910   5.514   2.660  1.0881 -1.0207  0.0596
  960MOL0     C26613  -1.008   5.434   2.614 -0.9443 -0.2883 -0.2499
  960MOL0     C26614  -0.982   5.295   2.618 -1.0576 -0.3687  0.9781
  960MOL0     C26615  -1.082   5.212   2.574  0.2497  0.9878  1.3043
  960MOL0     C26616  -1.211   5.262   2.526 -0.5492 -0.1794 -0.1697
  960MOL0     C26617  -1.328   5.175   2.505 -0.0865  0.1345  0.0031
  960MOL0     O26618  -1.442   5.227   2.482  0.8583 -0.4061  0.0876
  960MOL0     C26619  -1.563   5.159   2.478 -0.0126 -0.4487 -0.2028
  960MOL0     C26620  -1.576   5.026   2.425  0.4137  0.6941  0.4628
  960MOL0     C26621  -1.705   4.972   2.432 -0.8957  1.0533 -0.3361
  960MOL0     C26622  -1.815   5.042   2.465  0.2017 -0.1137 -0.5668
  960MOL0     O26623  -1.936   4.974   2.461  0.2636  0.5565 -0.1299
  960MOL0     C26624  -1.976   4.932   2.595  1.1493  0.0783  0.3549
  960MOL0     C26625  -2.092   4.836   2.582  0.1416  0.0134 -0.3304
  960MOL0     C26626  -2.156   4.778   2.704 -0.3771 -0.2994 -0.4261
  960MOL0     C26627  -2.260   4.674   2.671 -0.2002  0.0544 -0.6427
  960MOL0     C26628  -2.384   4.735   2.622  0.8347 -0.3206 -0.2934
  960MOL0     C26629  -2.495   4.625   2.610  0.7015  0.0841 -0.6679
  960MOL0     C26630  -2.616   4.690   2.541 -0.1771  0.2586  0.5634
  960MOL0     C26631  -2.735   4.590   2.545  0.6921 -0.1872 -0.0559
  960MOL0    Cl26632  -2.856   4.605   2.417 -0.6654 -0.1206 -0.2993
  960MOL0     C26633  -1.804   5.169   2.518  0.0040 -0.7072  1.3041
  960MOL0     C26634  -1.673   5.230   2.520  1.2261  0.4044  0.7351
  960MOL0     O26635  -1.313   5.053   2.532 -0.1430 -0.3105  0.2435
  960MOL0     C26636  -1.229   5.401   2.536 -0.5637 -0.3197  0.0468
  960MOL0     C26637  -1.129   5.486   2.565  0.3043 -0.3790 -0.7613
  960MOL0     N26638  -0.537   5.749   2.204  0.4395  0.8654 -0.3290
  960MOL0     N26639  -0.500   5.841   2.119 -0.3226  0.2120 -0.8410
  960MOL0     C26640   0.439   6.447   2.537  0.2533 -0.4705  1.2427
  960MOL0     C26641   0.579   6.453   2.540 -0.4464  0.5406  0.0635
  960MOL0     C26642   1.011   6.361   2.372 -0.2755  0.5834  0.5791
  960MOL0     C26643   1.072   6.484   2.395 -0.9132 -0.1303  0.5234
  960MOL0     C26644   1.215   6.502   2.380 -0.0937  1.4214  0.2723
  960MOL0     C26645   1.297   6.389   2.348 -0.8590 -0.3869  0.8475
  960MOL0     O26646   1.437   6.405   2.338  0.2965 -0.2912  0.2753
  960MOL0     C26647   1.513   6.318   2.428  0.0032 -0.6354 -0.0346
  960MOL0     C26648   1.659   6.348   2.412  0.4423  0.2526  0.3310
  960MOL0     C26649   1.737   6.241   2.476 -0.9665 -0.8711 -0.1115
  960MOL0     C26650   1.817   6.160   2.371  0.5228  0.4436  0.1443
  960MOL0     C26651   1.945   6.220   2.345 -0.3675 -0.3679 -0.6659
  960MOL0     C26652   2.054   6.267   2.311  0.3390  0.9465 -0.1258
  960MOL0     C26653   1.238   6.258   2.329 -0.2706  0.3539  0.0700
  960MOL0     C26654   1.098   6.249   2.337 -0.0366  0.3762  0.0575
  960MOL0     H26655   0.649   6.442   2.219 -1.7800  3.3457 -1.7336
  960MOL0     H26656   0.390   6.427   2.209 -1.9429  1.4393  1.9261
  960MOL0     H26657   0.184   6.488   2.604 -1.8173  0.9836 -1.3450
  960MOL0     H26658   0.194   6.309   2.565 -1.2267 -0.5560  1.6199
  960MOL0     H26659  -0.029   6.520   2.488 -1.6143 -0.7743  0.1112
  960MOL0     H26660  -0.035   6.396   2.613  0.5903 -1.3721 -0.5116
  960MOL0     H26661  -0.026   6.222   2.472 -4.5012 -0.2491 -0.8151
  960MOL0     H26662   0.020   6.307   2.325  0.6567  1.4225  0.0688
  960MOL0     H26663  -0.224   6.279   2.495  1.6789  1.6352  2.0821
  960MOL0     H26664  -0.206   6.429   2.389  3.4871  1.6838  3.3147
  960MOL0     H26665  -0.177   6.130   2.298 -1.8548  0.2857  4.2337
  960MOL0     H26666  -0.151   6.264   2.186  1.2805  0.2496  0.8898
  960MOL0     H26667  -0.382   6.340   2.237  1.2572  0.2572 -0.8047
  960MOL0     H26668  -0.411   6.194   2.329 -0.7961  1.6306  0.5441
  960MOL0     H26669  -0.493   6.167   2.080 -0.8551 -0.9840  0.4717
  960MOL0     H26670  -0.328   6.231   2.050 -1.7181 -0.8639 -2.5036
  960MOL0     H26671  -0.231   6.007   2.141 -0.7996 -0.8900  0.4836
  960MOL0     H26672  -0.345   5.981   2.012 -1.4329 -2.8612  1.7566
  960MOL0     H26673  -0.371   5.941   2.402 -1.0746 -0.1670  1.1567
  960MOL0     H26674  -0.460   5.630   2.492  1.2021  2.8559  1.2193
  960MOL0     H26675  -0.615   5.623   2.407 -1.7188 -0.2034  1.7659
  960MOL0     H26676  -0.707   5.826   2.561 -1.9557 -1.1019  0.3608
  960MOL0     H26677  -0.561   5.798   2.659 -0.7514 -1.5073  1.2066
  960MOL0     H26678  -0.630   5.550   2.676 -0.3892 -0.8995  0.7263
  960MOL0     H26679  -0.732   5.661   2.761  0.9029  3.8371 -0.3489
  960MOL0     H26680  -0.769   5.481   2.516  1.2098  1.1755 -0.9734
  960MOL0     H26681  -0.870   5.637   2.510 -1.5703 -1.2312 -0.0293
  960MOL0     H26682  -0.894   5.259   2.671 -0.2711  2.5351  1.7840
  960MOL0     H26683  -1.076   5.104   2.586 -2.7104  0.6189  0.0804
  960MOL0     H26684  -1.496   4.979   2.368  0.6521  1.7373 -0.0942
  960MOL0     H26685  -1.712   4.867   2.409  1.4937 -0.4906  4.4934
  960MOL0     H26686  -2.010   5.022   2.647  0.5450  0.1788 -0.1950
  960MOL0     H26687  -1.908   4.871   2.654 -0.6726 -1.3748  1.0739
  960MOL0     H26688  -2.056   4.749   2.525 -1.3292 -0.5847 -0.4029
  960MOL0     H26689  -2.167   4.887   2.521 -0.5392  0.0468  0.5193
  960MOL0     H26690  -2.202   4.859   2.761 -0.0061 -0.2952 -0.1332
  960MOL0     H26691  -2.084   4.729   2.769 -0.4111 -0.8575 -0.8016
  960MOL0     H26692  -2.229   4.601   2.596  0.0653 -2.1587  1.5062
  960MOL0     H26693  -2.265   4.619   2.765 -1.0643  0.5857 -0.3666
  960MOL0     H26694  -2.375   4.770   2.519  1.0444  1.2940  0.2584
  960MOL0     H26695  -2.423   4.819   2.680  0.7315  0.6349 -1.7172
  960MOL0     H26696  -2.523   4.582   2.706  0.7886  0.3451 -0.5243
  960MOL0     H26697  -2.453   4.542   2.551 -1.2701 -0.5003 -1.3309
  960MOL0     H26698  -2.645   4.784   2.589  0.4075  0.2186  0.9974
  960MOL0     H26699  -2.586   4.691   2.436 -1.1865 -2.5369  0.1712
  960MOL0     H26700  -2.784   4.610   2.640  0.0588 -0.2100 -0.3760
  960MOL0     H26701  -2.698   4.487   2.534  1.4513  0.1491 -0.7918
  960MOL0     H26702  -1.893   5.227   2.542  1.2212  2.7035 -1.6229
  960MOL0     H26703  -1.665   5.328   2.567  0.0765  0.9891 -0.2395
  960MOL0     H26704  -1.329   5.439   2.520 -1.4267 -2.5538 -0.2025
  960MOL0     H26705  -1.141   5.594   2.573  0.2251 -0.4196 -0.3186
  960MOL0     H26706   0.389   6.461   2.633  0.6683 -1.6613  1.6532
  960MOL0     H26707   0.639   6.478   2.627  0.3659 -0.4524 -0.1928
  960MOL0     H26708   1.025   6.575   2.432  1.8752  1.7048 -0.1186
  960MOL0     H26709   1.274   6.590   2.404  1.7875  0.3525 -0.3202
  960MOL0     H26710   1.491   6.215   2.399 -1.7482  0.1692 -1.8604
  960MOL0     H26711   1.491   6.337   2.533 -2.6142  2.4492 -0.9705
  960MOL0     H26712   1.674   6.346   2.303  0.8122 -1.9442  0.3627
  960MOL0     H26713   1.693   6.443   2.452  2.5498 -0.0810 -0.5297
  960MOL0     H26714   1.672   6.176   2.535 -0.6780 -1.0474  0.0090
  960MOL0     H26715   1.795   6.295   2.551 -3.6932  1.0099  0.8111
  960MOL0     H26716   1.835   6.064   2.420  3.0763  0.6722 -0.1964
  960MOL0     H26717   1.770   6.137   2.275  2.1195  1.5045 -0.9406
  960MOL0     H26718   2.144   6.306   2.270  0.4630  1.3176  0.4898
  960MOL0     H26719   1.303   6.173   2.309  1.4065  1.7699 -0.7147
  960MOL0     H26720   1.055   6.156   2.301 -0.9622  1.3471 -1.4500
  961MOL0     O26721   8.852  10.289  11.093  0.3087  0.5192  0.6847
  961MOL0     C26722   8.958  10.330  11.128 -0.5922 -0.6363 -0.2384
  961MOL0     O26723   9.009  10.460  11.104 -1.0359 -0.3790  0.0318
  961MOL0     C26724   8.952  10.548  11.013 -0.5596 -0.4188 -0.8865
  961MOL0     C26725   8.866  10.510  10.908  1.2821 -0.5343  0.8509
  961MOL0     C26726   8.817  10.612  10.818  0.7543  0.4820 -0.6577
  961MOL0     C26727   8.846  10.744  10.834 -0.2761 -0.2755  0.4135
  961MOL0     O26728   8.786  10.846  10.759  0.2691 -0.6031  0.0112
  961MOL0     C26729   8.733  10.823  10.628 -0.5050 -0.0786 -0.0356
  961MOL0     C26730   8.583  10.776  10.624  0.3314 -0.1164 -0.7325
  961MOL0     C26731   8.496  10.893  10.641  0.0932 -0.3045  0.0534
  961MOL0     C26732   8.341  10.851  10.641  0.2816 -0.0518 -0.0633
  961MOL0     C26733   8.251  10.967  10.650  0.1921 -0.6379  0.2019
  961MOL0     C26734   8.105  10.927  10.630 -0.4122 -0.0661  0.2344
  961MOL0     C26735   7.996  11.035  10.653 -0.2045  0.0840 -0.4769
  961MOL0     C26736   7.994  11.143  10.554 -0.8042  0.2856  0.8048
  961MOL0     N26737   7.869  11.228  10.568  0.6580  0.2503 -0.5590
  961MOL0     C26738   7.832  11.280  10.694  0.1698  0.9573  0.2665
  961MOL0     C26739   7.704  11.316  10.672 -0.0060  0.5642  0.4610
  961MOL0     C26740   7.605  11.377  10.770 -0.5944  0.1679  0.3193
  961MOL0     C26741   7.573  11.518  10.716  0.3878 -0.4456 -0.4428
  961MOL0     C26742   7.471  11.585  10.810  0.5831  0.5913 -0.3563
  961MOL0     C26743   7.333  11.543  10.776  0.5043 -0.2550 -0.3197
  961MOL0     O26744   7.234  11.594  10.865 -0.9244  0.2919 -0.6203
  961MOL0     C26745   7.101  11.561  10.845  0.0248 -0.2443  0.1454
  961MOL0     C26746   6.998  11.633  10.916 -0.5562 -0.4746  0.2914
  961MOL0     C26747   6.868  11.616  10.882  0.9057 -0.3778  0.4277
  961MOL0     C26748   6.830  11.523  10.785 -0.2106  0.2534 -0.1890
  961MOL0     C26749   6.685  11.509  10.753  0.5882  0.3477 -0.0691
  961MOL0     O26750   6.597  11.600  10.808 -0.0638 -0.4102  0.5668
  961MOL0     C26751   6.472  11.614  10.765 -0.0242  0.6020 -0.9287
  961MOL0     C26752   6.421  11.570  10.644 -0.8163 -0.0141 -0.0072
  961MOL0     C26753   6.293  11.620  10.606  0.5652  0.1429 -0.0227
  961MOL0     C26754   6.207  11.697  10.691 -0.5517 -0.7487  0.3877
  961MOL0     O26755   6.078  11.728  10.652 -0.5640 -0.0248 -0.1887
  961MOL0     C26756   5.982  11.739  10.756 -0.5430 -0.1289 -0.0659
  961MOL0     C26757   5.849  11.792  10.704  0.6182 -0.1833  0.1795
  961MOL0     C26758   5.740  11.752  10.813 -0.1466 -0.2243  0.2285
  961MOL0     C26759   5.597  11.757  10.756 -0.0167  0.0115 -0.6874
  961MOL0     C26760   5.503  11.702  10.868 -0.9992 -0.2137  0.2123
  961MOL0     C26761   5.364  11.751  10.858  0.6338 -0.7086 -0.3383
  961MOL0     C26762   5.328  11.905  10.863  0.1716 -0.0591  0.9572
  961MOL0     C26763   5.200  11.938  10.784 -0.4938  0.2906 -0.0134
  961MOL0    Cl26764   5.117  12.092  10.842 -0.2824 -0.4906 -0.2845
  961MOL0     C26765   6.260  11.729  10.814 -0.4228 -0.5609 -0.3145
  961MOL0     C26766   6.391  11.692  10.851 -0.0467  0.3867 -1.1545
  961MOL0     O26767   6.659  11.410  10.685  0.2287  0.6184 -0.7804
  961MOL0     C26768   6.931  11.453  10.714  1.2175  0.8283  0.2124
  961MOL0     C26769   7.060  11.475  10.740 -0.1784  0.2437  0.0676
  961MOL0     N26770   7.662  11.282  10.536  0.3227  0.1568  0.0901
  961MOL0     N26771   7.765  11.221  10.483 -0.0479  0.0621 -0.5959
  961MOL0     C26772   8.933  10.784  10.948  1.4364 -0.0907 -0.3073
  961MOL0     C26773   8.983  10.683  11.030  0.3029  0.2801  0.2320
  961MOL0     C26774   9.040  10.225  11.190 -0.6214  0.5719 -0.0019
  961MOL0     C26775   9.014  10.086  11.180  0.8709  0.0901  0.2415
  961MOL0     C26776   9.103   9.992  11.234  0.2989  0.5362 -0.5956
  961MOL0     C26777   9.229  10.041  11.296  0.7823  0.5479  0.7639
  961MOL0     O26778   9.306   9.948  11.347  0.3244  0.0306 -0.1057
  961MOL0     C26779   9.444   9.955  11.326 -0.6863 -1.3100  0.0230
  961MOL0     C26780   9.515   9.967  11.462  0.6302  0.0985  0.4543
  961MOL0     C26781   9.655   9.898  11.473 -0.9062  0.9091  0.0172
  961MOL0     C26782   9.737   9.976  11.569  0.0842 -0.8249 -0.1479
  961MOL0     C26783   9.700   9.964  11.712  0.4355 -0.2915  0.2766
  961MOL0     C26784   9.649   9.961  11.822 -0.9899  0.1452 -0.2912
  961MOL0     C26785   9.247  10.172  11.311  0.0881 -0.9285 -0.1670
  961MOL0     C26786   9.159  10.266  11.257  1.3936 -0.5450 -0.3335
  961MOL0     H26787   8.830  10.409  10.888 -0.6013  0.3127 -0.3515
  961MOL0     H26788   8.754  10.581  10.735  1.3493 -1.9428 -0.2951
  961MOL0     H26789   8.798  10.747  10.582  0.3054 -2.1575  4.1021
  961MOL0     H26790   8.752  10.908  10.562  0.8339 -1.5681 -1.6729
  961MOL0     H26791   8.554  10.695  10.692 -1.5326  0.0550 -1.2779
  961MOL0     H26792   8.555  10.732  10.528 -2.5586 -0.0548 -0.0072
  961MOL0     H26793   8.509  10.958  10.554 -0.7969 -0.3468 -0.1236
  961MOL0     H26794   8.512  10.949  10.733  0.5780 -1.1289  0.4822
  961MOL0     H26795   8.331  10.786  10.554  1.4892  1.4825 -1.4447
  961MOL0     H26796   8.317  10.799  10.734 -0.3228 -0.3914 -0.4064
  961MOL0     H26797   8.288  11.039  10.576 -0.7064 -0.6278 -0.2601
  961MOL0     H26798   8.264  11.023  10.742  1.2655 -1.6906  0.7169
  961MOL0     H26799   8.092  10.845  10.702  1.3456  1.4602  2.4253
  961MOL0     H26800   8.095  10.890  10.528  0.8391 -0.6804  0.3175
  961MOL0     H26801   7.902  10.981  10.639 -1.2354  0.8062  2.7454
  961MOL0     H26802   7.993  11.086  10.750  1.3612 -2.4928  1.0587
  961MOL0     H26803   7.996  11.101  10.452 -3.1618 -0.1514  0.8811
  961MOL0     H26804   8.083  11.206  10.550  2.0375 -3.3648 -2.7695
  961MOL0     H26805   7.879  11.275  10.791  0.3998  1.3211  0.1721
  961MOL0     H26806   7.643  11.389  10.872 -4.1320  5.0469  1.4407
  961MOL0     H26807   7.515  11.315  10.779 -0.9058 -0.0169 -2.8473
  961MOL0     H26808   7.530  11.529  10.616 -0.7321 -3.3212 -0.3937
  961MOL0     H26809   7.664  11.578  10.707  0.2549 -0.2050 -0.1945
  961MOL0     H26810   7.498  11.555  10.911 -3.2934  1.4764  1.1241
  961MOL0     H26811   7.493  11.691  10.796  2.5525 -0.0156 -2.3790
  961MOL0     H26812   7.322  11.435  10.791 -1.2043  0.2584  3.0862
  961MOL0     H26813   7.309  11.566  10.672 -0.2662  1.0541  0.1295
  961MOL0     H26814   7.032  11.696  10.998 -2.0435 -1.1580  1.4878
  961MOL0     H26815   6.792  11.673  10.935  1.3597  0.2965  0.3721
  961MOL0     H26816   6.480  11.531  10.562 -2.1237  1.2373 -1.6347
  961MOL0     H26817   6.251  11.590  10.511 -0.1914  2.0053 -0.3166
  961MOL0     H26818   6.014  11.804  10.839  4.1362 -2.3038  0.1743
  961MOL0     H26819   5.972  11.639  10.800  0.5955 -0.4621 -0.5288
  961MOL0     H26820   5.830  11.742  10.608 -1.1713 -0.9353  0.8922
  961MOL0     H26821   5.851  11.901  10.694  2.1825  0.4242  4.8130
  961MOL0     H26822   5.753  11.818  10.899  0.6695  0.6032 -0.5061
  961MOL0     H26823   5.754  11.645  10.831  1.3453 -0.2091 -0.6829
  961MOL0     H26824   5.579  11.863  10.736  0.6341  0.4869  1.0432
  961MOL0     H26825   5.586  11.708  10.658 -1.3047  0.7636 -0.9375
  961MOL0     H26826   5.543  11.715  10.969  1.8864 -0.5996 -0.7704
  961MOL0     H26827   5.495  11.595  10.845 -0.4549  0.4028 -3.4199
  961MOL0     H26828   5.309  11.697  10.936 -0.4644 -0.0495 -0.6332
  961MOL0     H26829   5.345  11.712  10.758  1.7227  1.7211 -1.5781
  961MOL0     H26830   5.324  11.947  10.964 -0.1517  0.0251  0.9127
  961MOL0     H26831   5.407  11.968  10.822  0.9241 -2.1318 -0.9757
  961MOL0     H26832   5.122  11.861  10.782  0.6390 -0.8857 -1.2190
  961MOL0     H26833   5.237  11.950  10.682 -1.9382  1.4830 -0.4380
  961MOL0     H26834   6.200  11.787  10.883  1.6287  2.3342 -0.7875
  961MOL0     H26835   6.426  11.720  10.950 -2.4124 -0.2046 -0.0887
  961MOL0     H26836   6.903  11.376  10.644 -1.3642 -0.1852  2.1842
  961MOL0     H26837   7.133  11.436  10.670 -0.2482 -0.1654  0.2222
  961MOL0     H26838   8.953  10.890  10.964  1.3217  0.2007 -1.9784
  961MOL0     H26839   9.043  10.708  11.118 -0.8518 -1.2866  1.5357
  961MOL0     H26840   8.921  10.053  11.135 -0.2311  2.2040  0.8459
  961MOL0     H26841   9.068   9.890  11.238 -2.3848  1.2779 -2.4038
  961MOL0     H26842   9.467  10.035  11.255 -1.6415  0.6636  1.8326
  961MOL0     H26843   9.467   9.861  11.275 -0.3160 -1.9225  1.2753
  961MOL0     H26844   9.517  10.074  11.486  1.0293 -0.4652  3.1758
  961MOL0     H26845   9.452   9.916  11.536  2.0155 -0.7116  1.1024
  961MOL0     H26846   9.706   9.913  11.378 -0.8411  0.0799 -0.0812
  961MOL0     H26847   9.664   9.791  11.492 -1.1029  0.7485 -0.7317
  961MOL0     H26848   9.839   9.936  11.564 -0.5737 -2.7874  0.9496
  961MOL0     H26849   9.735  10.083  11.550 -2.8308 -0.5204  1.3272
  961MOL0     H26850   9.605   9.942  11.918  0.7562 -0.2498  0.4600
  961MOL0     H26851   9.337  10.202  11.363 -0.1793  0.6988 -0.5628
  961MOL0     H26852   9.177  10.372  11.249  1.2105 -0.5064 -0.2201
  962MOL0     O26853   2.509   0.600  10.089  0.4415  0.0320 -0.0611
  962MOL0     C26854   2.568   0.503  10.028  0.6499 -0.3464 -0.6188
  962MOL0     O26855   2.502   0.413   9.954 -0.8318  0.0837  0.1167
  962MOL0     C26856   2.385   0.457   9.891 -0.7249 -0.2284 -0.0905
  962MOL0     C26857   2.355   0.587   9.856  0.5707 -0.9797 -0.2532
  962MOL0     C26858   2.242   0.610   9.783 -0.1334 -0.2121 -0.1363
  962MOL0     C26859   2.157   0.514   9.746  1.4370 -1.0011 -0.3668
  962MOL0     O26860   2.046   0.559   9.671  0.4038  0.4116  0.0307
  962MOL0     C26861   1.983   0.459   9.587 -0.8587 -0.0779  0.7698
  962MOL0     C26862   1.850   0.500   9.523  0.0786  0.0346  0.0254
  962MOL0     C26863   1.755   0.551   9.631 -0.3076  0.6308 -0.7660
  962MOL0     C26864   1.621   0.611   9.569 -0.0272  0.1742 -0.9545
  962MOL0     C26865   1.541   0.675   9.689  0.4059  0.0286  0.5186
  962MOL0     C26866   1.412   0.744   9.657  0.1331 -0.1419 -0.1583
  962MOL0     C26867   1.333   0.642   9.564 -0.3761 -0.5341 -0.3287
  962MOL0     C26868   1.207   0.709   9.517 -0.2182 -0.4003  0.4689
  962MOL0     N26869   1.126   0.616   9.442  0.3442  0.1561 -0.4803
  962MOL0     C26870   1.008   0.548   9.482 -0.1989  0.8306 -0.6726
  962MOL0     C26871   0.952   0.495   9.365  0.3169  0.1789 -0.9277
  962MOL0     C26872   0.841   0.401   9.372  0.4037  0.9863 -0.0390
  962MOL0     C26873   0.777   0.357   9.237 -0.1146 -0.0551  0.4555
  962MOL0     C26874   0.630   0.312   9.227 -0.3101 -0.3911  0.4827
  962MOL0     C26875   0.603   0.167   9.268  0.7404 -0.9537 -0.1279
  962MOL0     O26876   0.467   0.129   9.317 -0.0298  0.6077 -0.2608
  962MOL0     C26877   0.363   0.089   9.228 -0.1094  0.4352 -0.6657
  962MOL0     C26878   0.250   0.040   9.290  0.1354  0.3827 -0.2598
  962MOL0     C26879   0.132   0.021   9.212 -0.3597  0.6962 -0.4673
  962MOL0     C26880   0.133   0.035   9.074  0.4406  0.2782  0.5932
  962MOL0     C26881   0.005   0.035   9.003 -0.5594 -0.6780 -0.3760
  962MOL0     O26882  -0.114   0.070   9.079 -0.4281 -0.0531 -1.0002
  962MOL0     C26883  -0.232   0.098   9.021 -0.6010 -0.9281  0.0359
  962MOL0     C26884  -0.244   0.155   8.891 -0.3281 -0.4664 -0.0704
  962MOL0     C26885  -0.366   0.189   8.841 -0.0908  0.2765  0.2792
  962MOL0     C26886  -0.483   0.171   8.918  0.0587 -0.4173  0.0735
  962MOL0     O26887  -0.600   0.209   8.851  0.8001 -0.2647  1.0085
  962MOL0     C26888  -0.667   0.331   8.898  0.1323  0.5242  0.3178
  962MOL0     C26889  -0.818   0.342   8.861  0.7538  0.6805 -0.0984
  962MOL0     C26890  -0.894   0.212   8.909 -0.4003  0.0941  0.4725
  962MOL0     C26891  -0.884   0.180   9.053 -0.0331  0.3801  0.4438
  962MOL0     C26892  -0.963   0.270   9.143 -0.2413  0.4915  1.2905
  962MOL0     C26893  -1.012   0.218   9.282  0.3032 -0.1438 -0.5457
  962MOL0     C26894  -0.904   0.226   9.383  1.0363 -0.2763 -0.4695
  962MOL0     C26895  -0.951   0.130   9.498 -0.6546  0.4966 -0.1725
  962MOL0    Cl26896  -1.120   0.158   9.551  0.4014 -0.3933  0.0439
  962MOL0     C26897  -0.473   0.117   9.046 -0.2731 -0.2063 -1.9625
  962MOL0     C26898  -0.350   0.088   9.095 -0.1060  0.1414 -0.4030
  962MOL0     O26899   0.017   0.015   8.883  0.8653  0.2141 -0.4091
  962MOL0     C26900   0.249   0.089   9.015  0.0446  0.4258  0.2394
  962MOL0     C26901   0.368   0.110   9.087 -0.5615 -0.5517 -0.5154
  962MOL0     N26902   1.029   0.543   9.270  0.2164  0.3869 -0.2704
  962MOL0     N26903   1.131   0.606   9.310  0.6861  0.9650  0.2463
  962MOL0     C26904   2.182   0.387   9.781 -0.1851  0.4401 -0.4644
  962MOL0     C26905   2.303   0.354   9.850 -0.6911 -0.2016 -0.7815
  962MOL0     C26906   2.716   0.511  10.039  1.5959 -0.0678 -0.9876
  962MOL0     C26907   2.797   0.410   9.988 -0.0243  0.4606  0.9164
  962MOL0     C26908   2.934   0.402  10.009 -0.2595  0.3784  0.0365
  962MOL0     C26909   2.995   0.512  10.070 -0.8580 -0.3798 -0.2436
  962MOL0     O26910   3.128   0.484  10.111  0.3567  0.6505 -0.0523
  962MOL0     C26911   3.164   0.527  10.240 -0.4701  0.3635  0.0141
  962MOL0     C26912   3.305   0.505  10.274 -0.1040 -0.2307 -0.6430
  962MOL0     C26913   3.409   0.588  10.188  0.2162 -0.1079  0.1322
  962MOL0     C26914   3.521   0.504  10.120 -0.2407 -0.5495  0.6403
  962MOL0     C26915   3.593   0.431  10.217 -0.3975  0.5632 -0.1177
  962MOL0     C26916   3.648   0.386  10.312 -1.4091 -0.0055  0.3125
  962MOL0     C26917   2.921   0.624  10.110  1.2448 -0.2472 -0.0507
  962MOL0     C26918   2.783   0.615  10.101 -0.1604  0.7763  0.8568
  962MOL0     H26919   2.417   0.675   9.873 -0.7865  0.2643 -1.4258
  962MOL0     H26920   2.215   0.715   9.776  1.2774  0.2576  1.0147
  962MOL0     H26921   1.962   0.364   9.637  1.1155 -1.7081 -1.2585
  962MOL0     H26922   2.067   0.439   9.519 -0.2418  0.6940  1.2883
  962MOL0     H26923   1.818   0.414   9.463  1.5651 -1.4935  1.3204
  962MOL0     H26924   1.866   0.588   9.461 -0.7927  1.5887  1.9294
  962MOL0     H26925   1.803   0.636   9.680  1.1269 -1.5610  1.9761
  962MOL0     H26926   1.729   0.484   9.714 -0.6578  2.5127  0.7379
  962MOL0     H26927   1.632   0.682   9.486  1.3965 -1.4006 -2.1836
  962MOL0     H26928   1.565   0.523   9.537 -1.3648 -0.1060  1.8617
  962MOL0     H26929   1.600   0.752   9.739  0.3171  1.9106 -2.1239
  962MOL0     H26930   1.516   0.592   9.757 -0.8929 -1.4779 -1.6680
  962MOL0     H26931   1.430   0.836   9.600 -0.1656  0.4875  0.7389
  962MOL0     H26932   1.348   0.765   9.744  0.7091 -2.9922  1.0791
  962MOL0     H26933   1.382   0.626   9.467 -1.2851  1.1318 -1.1088
  962MOL0     H26934   1.317   0.557   9.631 -0.6457  0.3578  0.7723
  962MOL0     H26935   1.229   0.798   9.457  0.0603 -0.3568  0.6345
  962MOL0     H26936   1.140   0.737   9.600  0.5772  1.4150  0.5599
  962MOL0     H26937   0.983   0.512   9.582  0.3624 -4.2743 -2.0890
  962MOL0     H26938   0.753   0.436   9.426 -1.6555  0.6976 -3.0060
  962MOL0     H26939   0.874   0.310   9.425  0.9814  1.2201  0.0116
  962MOL0     H26940   0.847   0.297   9.178  0.2074  0.7928 -0.0395
  962MOL0     H26941   0.772   0.454   9.187 -2.3660 -0.9988 -1.3424
  962MOL0     H26942   0.561   0.378   9.280  0.2603  0.8591 -0.2983
  962MOL0     H26943   0.600   0.330   9.124 -0.8082  0.8397  0.8241
  962MOL0     H26944   0.666   0.150   9.356  0.8988  4.5644  1.2182
  962MOL0     H26945   0.638   0.108   9.183  0.7246  1.0133 -1.5522
  962MOL0     H26946   0.244   0.030   9.398  3.1575 -1.4175 -0.1496
  962MOL0     H26947   0.043  -0.003   9.269 -0.3247  1.2511 -0.1696
  962MOL0     H26948  -0.154   0.183   8.837 -0.7685  0.2507 -0.4538
  962MOL0     H26949  -0.370   0.233   8.742 -2.8966 -1.3444 -0.4507
  962MOL0     H26950  -0.615   0.421   8.864  0.7169  0.4664  1.0214
  962MOL0     H26951  -0.658   0.328   9.007  0.1981 -2.0851  0.3029
  962MOL0     H26952  -0.844   0.347   8.755 -2.6940 -0.8821  0.5162
  962MOL0     H26953  -0.872   0.426   8.904  0.1589  0.7386 -0.9202
  962MOL0     H26954  -0.840   0.131   8.859 -2.4878 -1.9048  1.3203
  962MOL0     H26955  -0.997   0.206   8.875  0.5529 -1.4417 -2.4764
  962MOL0     H26956  -0.919   0.077   9.063 -0.5447  0.5474  0.3840
  962MOL0     H26957  -0.779   0.169   9.082  0.4408  0.0601 -1.2434
  962MOL0     H26958  -1.053   0.301   9.090  0.8597  2.9141  0.7121
  962MOL0     H26959  -0.903   0.360   9.161 -0.2574  0.7793 -0.0060
  962MOL0     H26960  -1.065   0.122   9.281 -0.4171  0.0122  3.6645
  962MOL0     H26961  -1.089   0.283   9.326  1.8189  0.6172  1.1201
  962MOL0     H26962  -0.804   0.201   9.345  0.9870  0.6200 -1.2358
  962MOL0     H26963  -0.899   0.331   9.412  2.3957 -0.7594  1.2026
  962MOL0     H26964  -0.882   0.148   9.581  1.2477  2.2610 -2.0054
  962MOL0     H26965  -0.934   0.025   9.475  0.8690  0.3983  1.2718
  962MOL0     H26966  -0.561   0.092   9.104 -0.2640 -1.2176 -2.3720
  962MOL0     H26967  -0.345   0.034   9.189 -2.5544 -0.6594 -0.6472
  962MOL0     H26968   0.242   0.119   8.911  0.5942  1.3444  0.4544
  962MOL0     H26969   0.452   0.155   9.035  0.0344 -1.3693 -0.2769
  962MOL0     H26970   2.124   0.301   9.749 -1.2436  1.2297 -0.7281
  962MOL0     H26971   2.334   0.258   9.890 -1.2042  0.6987  2.0344
  962MOL0     H26972   2.750   0.329   9.932 -0.0137  1.1646 -0.1252
  962MOL0     H26973   2.996   0.314  10.003 -1.3499 -0.4676  0.8496
  962MOL0     H26974   3.099   0.488  10.319  0.3037  1.7045  1.3702
  962MOL0     H26975   3.161   0.635  10.257  2.4619  0.3505  1.3679
  962MOL0     H26976   3.327   0.518  10.380  0.4669 -1.3210 -0.6108
  962MOL0     H26977   3.318   0.397  10.263 -1.3575 -0.3791 -0.8980
  962MOL0     H26978   3.439   0.657  10.267  0.4650  2.1141 -1.8149
  962MOL0     H26979   3.352   0.643  10.113 -1.6051 -2.2028 -0.1219
  962MOL0     H26980   3.488   0.449  10.031  2.6440 -3.2272  1.0551
  962MOL0     H26981   3.593   0.575  10.079  0.9254 -1.2989  1.3628
  962MOL0     H26982   3.704   0.350  10.396 -1.9481  2.8796  2.0546
  962MOL0     H26983   2.957   0.702  10.176 -1.6991  1.0082  0.2473
  962MOL0     H26984   2.737   0.702  10.146 -1.2406 -0.5933  2.5270
  963MOL0     O26985   7.489   5.213   0.394  0.8222  0.0686 -0.1325
  963MOL0     C26986   7.468   5.334   0.370  1.5683  0.6364 -0.7983
  963MOL0     O26987   7.360   5.384   0.304 -0.7787  0.2121  0.2053
  963MOL0     C26988   7.244   5.314   0.285 -0.1405  0.1454 -0.4961
  963MOL0     C26989   7.204   5.236   0.393  1.0441  0.8688  0.4152
  963MOL0     C26990   7.088   5.169   0.384  0.2842 -0.3259 -0.6832
  963MOL0     C26991   6.999   5.182   0.275  0.0921 -0.0196  0.6413
  963MOL0     O26992   6.897   5.092   0.273 -0.5673  0.2201  0.3928
  963MOL0     C26993   6.782   5.132   0.202  1.0616 -0.6154  0.7351
  963MOL0     C26994   6.671   5.032   0.218 -0.1343  0.2619 -0.6707
  963MOL0     C26995   6.549   5.066   0.126  0.1105 -0.7127 -0.1933
  963MOL0     C26996   6.488   5.207   0.154 -0.1847  0.3960 -0.1176
  963MOL0     C26997   6.340   5.221   0.113 -1.0646  0.4751  0.1688
  963MOL0     C26998   6.286   5.346   0.185 -0.3054 -1.3789  0.2513
  963MOL0     C26999   6.142   5.361   0.134  0.3057 -0.1276  0.6831
  963MOL0     C27000   6.084   5.487   0.183  0.3955  0.7821 -0.3080
  963MOL0     N27001   5.937   5.492   0.160 -0.2752 -0.6395  0.1983
  963MOL0     C27002   5.839   5.430   0.229  0.1563 -0.9519  0.0051
  963MOL0     C27003   5.727   5.482   0.183 -0.3867  0.0486 -0.0289
  963MOL0     C27004   5.587   5.444   0.231  0.3054  0.7282  0.1558
  963MOL0     C27005   5.573   5.383   0.371  0.0663 -0.3636  0.3354
  963MOL0     C27006   5.423   5.396   0.407  0.1711  0.3213  0.7115
  963MOL0     C27007   5.329   5.299   0.332  0.1476 -0.2105  0.3469
  963MOL0     O27008   5.200   5.306   0.400 -0.0806  0.1156  0.4564
  963MOL0     C27009   5.089   5.240   0.341 -0.6756  0.0146  0.0459
  963MOL0     C27010   4.967   5.277   0.401 -1.1595 -0.4559 -0.8980
  963MOL0     C27011   4.842   5.217   0.366 -1.7141 -1.0913 -0.2116
  963MOL0     C27012   4.841   5.109   0.276  0.2902  0.2148  0.2632
  963MOL0     C27013   4.712   5.043   0.245  0.4081  0.4775 -0.1369
  963MOL0     O27014   4.603   5.122   0.253 -0.6516 -0.1577  0.7530
  963MOL0     C27015   4.471   5.073   0.261 -0.4747  0.8619  0.4605
  963MOL0     C27016   4.383   5.142   0.341  0.2412  0.1162 -0.8649
  963MOL0     C27017   4.244   5.114   0.342 -0.8597 -0.6947  0.3358
  963MOL0     C27018   4.200   5.004   0.276  1.2236 -0.5430  0.7014
  963MOL0     O27019   4.072   4.974   0.284 -0.3099  0.3397  0.4311
  963MOL0     C27020   4.035   4.860   0.366  0.0567  0.8511 -0.3037
  963MOL0     C27021   4.011   4.908   0.517 -0.1030 -0.3174  0.6010
  963MOL0     C27022   3.912   5.033   0.522 -0.0659 -0.0967 -0.0341
  963MOL0     C27023   3.882   5.059   0.673 -0.4984 -0.2804 -0.9377
  963MOL0     C27024   3.826   5.203   0.701 -0.0618 -0.2240 -0.2723
  963MOL0     C27025   3.809   5.231   0.863  0.8492 -0.3531  0.7088
  963MOL0     C27026   3.727   5.360   0.893 -0.6557 -0.0029 -0.2106
  963MOL0     C27027   3.580   5.330   0.895  0.1343  0.3312 -0.3754
  963MOL0    Cl27028   3.480   5.477   0.902 -0.2669  0.0037  0.2122
  963MOL0     C27029   4.284   4.932   0.189  0.2038 -0.9013  0.0585
  963MOL0     C27030   4.420   4.969   0.177 -0.3610 -0.6507 -0.5064
  963MOL0     O27031   4.721   4.926   0.206  0.7297 -0.3802  0.3046
  963MOL0     C27032   4.960   5.082   0.201 -0.6354  1.0048 -0.3953
  963MOL0     C27033   5.087   5.147   0.225  0.2915 -1.1528 -0.5729
  963MOL0     N27034   5.758   5.587   0.097 -0.3058  0.7589  0.5224
  963MOL0     N27035   5.884   5.593   0.088 -0.7416  0.1456  0.2824
  963MOL0     C27036   7.038   5.267   0.176  1.1242  0.0231  1.1254
  963MOL0     C27037   7.168   5.329   0.178 -0.9877 -0.2550 -0.1696
  963MOL0     C27038   7.570   5.431   0.405  0.7870 -0.8004  0.4194
  963MOL0     C27039   7.538   5.558   0.436 -0.2406 -0.7279 -0.0333
  963MOL0     C27040   7.643   5.644   0.464  0.2874  0.1708  0.6855
  963MOL0     C27041   7.774   5.612   0.468 -0.4695 -0.4586 -0.9172
  963MOL0     O27042   7.863   5.704   0.512 -0.2007 -0.0254  0.1628
  963MOL0     C27043   7.993   5.665   0.503 -0.4404  0.5415  0.5804
  963MOL0     C27044   8.099   5.764   0.546 -0.8732  0.5715 -0.9399
  963MOL0     C27045   8.244   5.715   0.526 -1.4730  0.1524 -0.3375
  963MOL0     C27046   8.337   5.828   0.564  0.4767 -0.8195  0.2739
  963MOL0     C27047   8.467   5.786   0.612 -0.2709  0.9697  0.2335
  963MOL0     C27048   8.580   5.737   0.654 -0.2762  0.4181 -0.1178
  963MOL0     C27049   7.806   5.476   0.451  0.4679 -0.4079  0.2027
  963MOL0     C27050   7.702   5.388   0.413 -1.5378  0.4174 -1.8076
  963MOL0     H27051   7.266   5.227   0.482  1.6724  1.6597  0.0705
  963MOL0     H27052   7.067   5.099   0.464  1.4716 -0.3126 -0.3322
  963MOL0     H27053   6.805   5.147   0.096  0.0266 -0.2103  0.5604
  963MOL0     H27054   6.748   5.224   0.251 -1.6893 -1.0000 -0.3172
  963MOL0     H27055   6.632   5.019   0.319 -1.5064 -2.2845 -1.4171
  963MOL0     H27056   6.711   4.935   0.185 -1.3669 -1.4131  2.3429
  963MOL0     H27057   6.471   4.989   0.136 -0.1850 -1.1162 -4.2227
  963MOL0     H27058   6.577   5.067   0.021 -0.3778 -1.5473 -0.3402
  963MOL0     H27059   6.502   5.233   0.259 -2.8050  1.5541  0.0260
  963MOL0     H27060   6.539   5.288   0.100  0.3201 -0.0964 -0.3916
  963MOL0     H27061   6.291   5.131   0.150 -1.5133  0.6044 -0.0996
  963MOL0     H27062   6.332   5.228   0.004  2.5864  2.1048 -0.1597
  963MOL0     H27063   6.343   5.436   0.160 -0.4234 -1.8081 -1.7274
  963MOL0     H27064   6.290   5.330   0.293  0.3166 -2.4137  0.0896
  963MOL0     H27065   6.140   5.362   0.024  2.8484 -3.2905  0.4450
  963MOL0     H27066   6.078   5.278   0.166  0.4586 -0.3171  0.5021
  963MOL0     H27067   6.147   5.569   0.149  2.9286 -1.0963 -0.4757
  963MOL0     H27068   6.104   5.493   0.291  2.0059  0.4192 -0.5564
  963MOL0     H27069   5.856   5.348   0.298  1.8429 -0.0350  0.7416
  963MOL0     H27070   5.543   5.373   0.161 -2.6484  3.5876 -1.1662
  963MOL0     H27071   5.523   5.532   0.229  2.5994  2.4933 -0.5024
  963MOL0     H27072   5.631   5.442   0.442 -0.5178 -0.2543  0.7252
  963MOL0     H27073   5.604   5.279   0.380 -1.1152 -0.8374 -0.7801
  963MOL0     H27074   5.399   5.382   0.512 -3.2818 -0.2492 -0.0511
  963MOL0     H27075   5.391   5.500   0.397 -0.1098  0.2914  1.2994
  963MOL0     H27076   5.365   5.197   0.317 -1.5746 -0.8671  0.4249
  963MOL0     H27077   5.313   5.322   0.226  2.1566 -0.7188 -0.1040
  963MOL0     H27078   4.968   5.344   0.487  1.5593 -2.5241  0.8439
  963MOL0     H27079   4.764   5.249   0.434  1.9267  0.2312  3.8388
  963MOL0     H27080   4.419   5.224   0.401 -0.1248 -1.2103  1.3074
  963MOL0     H27081   4.178   5.166   0.411  0.1342  1.7741 -0.4257
  963MOL0     H27082   4.113   4.783   0.372 -2.2654 -1.5509  0.7699
  963MOL0     H27083   3.954   4.811   0.313 -0.2729  0.1357  0.8328
  963MOL0     H27084   4.103   4.927   0.572  0.6848 -0.7466 -0.5347
  963MOL0     H27085   3.956   4.829   0.569  0.1674 -0.3643  0.8188
  963MOL0     H27086   3.817   5.031   0.469 -0.7271  2.6075  0.8850
  963MOL0     H27087   3.968   5.118   0.483 -0.3327  0.0595 -0.0790
  963MOL0     H27088   3.814   4.984   0.714 -1.6881  0.4154 -1.5700
  963MOL0     H27089   3.978   5.041   0.722 -1.0966  0.6407  0.6639
  963MOL0     H27090   3.733   5.208   0.643 -0.2629 -3.1278 -0.3726
  963MOL0     H27091   3.897   5.276   0.663 -0.9379  0.8173  0.0218
  963MOL0     H27092   3.908   5.236   0.909  1.1798  0.1374 -0.0365
  963MOL0     H27093   3.749   5.145   0.893  1.1177 -0.4620  0.9337
  963MOL0     H27094   3.763   5.407   0.985  1.4780 -1.9819  0.0621
  963MOL0     H27095   3.743   5.435   0.815 -1.7957  2.2278  1.5808
  963MOL0     H27096   3.559   5.258   0.974  1.1568  1.7493  1.2824
  963MOL0     H27097   3.551   5.267   0.812 -0.6651 -0.2967  0.3612
  963MOL0     H27098   4.251   4.847   0.131  1.2246 -0.0999 -1.7588
  963MOL0     H27099   4.488   4.918   0.108  1.2701  1.3182 -0.4627
  963MOL0     H27100   4.961   5.001   0.129 -2.3276 -1.5132  2.1768
  963MOL0     H27101   5.173   5.108   0.173 -0.9014 -3.5942 -0.8593
  963MOL0     H27102   6.983   5.284   0.083 -0.5329  0.6024  2.1632
  963MOL0     H27103   7.205   5.379   0.089  1.4506 -2.6520 -0.6351
  963MOL0     H27104   7.435   5.591   0.438 -0.0183  0.1913 -1.9569
  963MOL0     H27105   7.628   5.748   0.493 -1.0896  0.3494 -0.5796
  963MOL0     H27106   8.022   5.638   0.401 -0.4602 -1.7664  1.1259
  963MOL0     H27107   8.001   5.572   0.559 -2.3219  1.1208  1.8993
  963MOL0     H27108   8.085   5.858   0.492  0.6313  0.2362 -1.9927
  963MOL0     H27109   8.077   5.780   0.652 -1.9911 -2.1664 -0.6698
  963MOL0     H27110   8.259   5.682   0.423  0.4751 -0.8675  0.2282
  963MOL0     H27111   8.246   5.637   0.602 -1.5339  3.0295  2.9063
  963MOL0     H27112   8.343   5.891   0.475 -0.7801 -0.5760  0.3374
  963MOL0     H27113   8.298   5.892   0.644 -1.0397 -0.5459 -0.6652
  963MOL0     H27114   8.668   5.689   0.692 -0.8407  1.1076  2.2408
  963MOL0     H27115   7.905   5.434   0.462  0.1819 -0.5379  2.9359
  963MOL0     H27116   7.737   5.289   0.386  0.4039  0.2978  0.7652
  964MOL0     O27117   2.836   7.656   9.391  0.0222 -0.4522 -0.3900
  964MOL0     C27118   2.940   7.656   9.332 -0.2680 -0.1144 -0.1757
  964MOL0     O27119   2.946   7.629   9.199  0.5710  0.3546 -0.5599
  964MOL0     C27120   2.829   7.642   9.129  0.0782 -0.9731 -0.2768
  964MOL0     C27121   2.760   7.527   9.098  0.7143 -0.0464  0.0552
  964MOL0     C27122   2.655   7.544   9.010 -0.2876  0.9017  0.5813
  964MOL0     C27123   2.610   7.667   8.956 -0.8561  0.7087 -0.5238
  964MOL0     O27124   2.498   7.685   8.881  0.4920  0.7551  0.1579
  964MOL0     C27125   2.447   7.572   8.809 -0.4010  0.1761 -1.3187
  964MOL0     C27126   2.338   7.632   8.714 -0.0753  0.2407  0.0418
  964MOL0     C27127   2.207   7.653   8.775 -0.2235  0.2082 -0.4740
  964MOL0     C27128   2.103   7.697   8.670 -0.0756  0.2611  0.4160
  964MOL0     C27129   1.961   7.745   8.726 -0.0253  0.7320 -0.6034
  964MOL0     C27130   1.892   7.629   8.795 -0.9738  0.1180  0.1034
  964MOL0     C27131   1.738   7.660   8.812 -0.2110 -0.2107 -0.1580
  964MOL0     C27132   1.709   7.774   8.915 -0.3304 -0.3618  0.2006
  964MOL0     N27133   1.744   7.737   9.057 -1.4098 -0.6415  0.2992
  964MOL0     C27134   1.786   7.823   9.157 -0.5586 -0.6369 -0.1059
  964MOL0     C27135   1.838   7.740   9.249  0.8300 -0.0639  0.2538
  964MOL0     C27136   1.896   7.786   9.374  0.8590 -0.0612  0.0817
  964MOL0     C27137   1.817   7.740   9.498  1.3571  0.0648  0.2484
  964MOL0     C27138   1.854   7.815   9.624  0.7911 -0.9684 -0.6942
  964MOL0     C27139   1.997   7.808   9.669 -0.9470  0.6542 -0.5374
  964MOL0     O27140   2.006   7.836   9.812  0.2827  0.2687  0.7314
  964MOL0     C27141   2.133   7.860   9.865 -0.3889 -0.7131  0.7427
  964MOL0     C27142   2.130   7.914   9.998 -0.4629  0.7986  0.7718
  964MOL0     C27143   2.253   7.939  10.062 -0.2946 -0.8808  0.9411
  964MOL0     C27144   2.379   7.921   9.999 -0.0986  0.5677  0.4190
  964MOL0     C27145   2.498   7.958  10.071  0.0265  0.5802  0.4636
  964MOL0     O27146   2.615   7.884  10.059 -0.5196 -0.6145  0.4460
  964MOL0     C27147   2.722   7.904  10.140  0.4782 -0.2893 -0.4764
  964MOL0     C27148   2.777   7.798  10.221  0.3005 -0.1764 -0.3383
  964MOL0     C27149   2.888   7.818  10.309 -0.4696  0.8881 -0.1329
  964MOL0     C27150   2.946   7.951  10.314 -0.1319  0.6029  0.1675
  964MOL0     O27151   3.058   7.956  10.392 -0.0514  0.8073 -0.0147
  964MOL0     C27152   3.088   8.087  10.437  0.4066 -0.1069 -1.0002
  964MOL0     C27153   3.210   8.105  10.537  0.5150 -0.4564  0.3210
  964MOL0     C27154   3.215   8.249  10.581  0.3170 -1.5517 -0.3591
  964MOL0     C27155   3.345   8.261  10.665  0.3364 -0.7498 -0.1353
  964MOL0     C27156   3.343   8.388  10.752 -0.9486 -1.0900  0.1267
  964MOL0     C27157   3.366   8.513  10.667 -0.9639 -0.5923  0.8509
  964MOL0     C27158   3.407   8.651  10.734  0.1489  0.7174 -0.2059
  964MOL0     C27159   3.365   8.770  10.650  0.0752 -0.0030 -1.3075
  964MOL0    Cl27160   3.191   8.818  10.659  0.3453  0.3742 -0.3781
  964MOL0     C27161   2.889   8.059  10.241 -0.2859 -0.9391  0.3064
  964MOL0     C27162   2.781   8.033  10.159  1.1104 -0.5593  0.0074
  964MOL0     O27163   2.487   8.054  10.140 -0.3324  0.3874 -0.9361
  964MOL0     C27164   2.377   7.860   9.876  0.5541  0.1980  0.1732
  964MOL0     C27165   2.257   7.834   9.809 -0.5809  0.2639 -0.9248
  964MOL0     N27166   1.820   7.611   9.212 -0.3610  0.1466  0.4198
  964MOL0     N27167   1.774   7.610   9.095  0.3837  0.2422  0.1905
  964MOL0     C27168   2.676   7.782   9.002  0.1096 -0.2284  0.5003
  964MOL0     C27169   2.788   7.767   9.086  0.7011  0.1388  0.5252
  964MOL0     C27170   3.070   7.659   9.404 -0.1002  0.6126  0.2622
  964MOL0     C27171   3.184   7.666   9.329  0.4976  0.7095  0.5111
  964MOL0     C27172   3.308   7.681   9.387  0.2781  0.4023 -1.1531
  964MOL0     C27173   3.324   7.661   9.520  0.0781 -0.2210 -0.0867
  964MOL0     O27174   3.447   7.662   9.580  0.6202  0.4495 -0.2590
  964MOL0     C27175   3.567   7.687   9.507 -0.2823 -0.8531  0.0138
  964MOL0     C27176   3.652   7.563   9.488 -0.9100  0.6788 -0.1388
  964MOL0     C27177   3.795   7.581   9.430  0.0945 -0.1437  0.7433
  964MOL0     C27178   3.908   7.585   9.536 -0.4707  0.7844  0.5076
  964MOL0     C27179   4.034   7.645   9.477  0.4657  0.6001  0.7351
  964MOL0     C27180   4.125   7.712   9.432  0.5834  0.3355 -0.1787
  964MOL0     C27181   3.208   7.654   9.603  0.0065  0.6144  0.6400
  964MOL0     C27182   3.079   7.665   9.555  0.3140 -0.4549  0.8358
  964MOL0     H27183   2.785   7.430   9.139  0.9639  0.4038  1.0047
  964MOL0     H27184   2.593   7.461   8.977 -0.6240  0.4804  2.1914
  964MOL0     H27185   2.402   7.504   8.883  2.4324 -1.2790 -0.8029
  964MOL0     H27186   2.523   7.531   8.742 -1.5902 -1.0512 -1.9774
  964MOL0     H27187   2.321   7.561   8.633 -1.4196 -0.1579  0.6509
  964MOL0     H27188   2.378   7.728   8.683 -0.3276  1.2199  2.4880
  964MOL0     H27189   2.221   7.739   8.840  3.8689  1.5267 -2.7134
  964MOL0     H27190   2.175   7.568   8.836  2.0780  1.5325  2.8017
  964MOL0     H27191   2.140   7.783   8.614 -0.8374  1.1531  1.2473
  964MOL0     H27192   2.091   7.611   8.603  1.7833 -0.4044  0.8721
  964MOL0     H27193   1.904   7.776   8.639 -1.4683 -3.3713 -1.3486
  964MOL0     H27194   1.983   7.826   8.797 -0.6250 -0.8381  1.4794
  964MOL0     H27195   1.937   7.605   8.892  1.2446  3.0280 -0.0772
  964MOL0     H27196   1.898   7.546   8.724  1.7009  1.3235 -1.2378
  964MOL0     H27197   1.704   7.684   8.711  0.9439  0.5947 -0.3750
  964MOL0     H27198   1.695   7.564   8.843 -1.3658  0.5358  0.6298
  964MOL0     H27199   1.602   7.797   8.912 -0.0281  1.1158 -0.3542
  964MOL0     H27200   1.769   7.860   8.883  0.8485 -1.3991 -0.4620
  964MOL0     H27201   1.775   7.931   9.161  0.0305 -0.6170  2.9057
  964MOL0     H27202   1.905   7.895   9.372  1.7332 -0.1151 -2.3426
  964MOL0     H27203   2.000   7.752   9.381  1.7297  2.3853  0.0841
  964MOL0     H27204   1.840   7.633   9.511  1.3582  0.0882  0.4366
  964MOL0     H27205   1.711   7.760   9.488  1.3430  0.4534  1.1297
  964MOL0     H27206   1.822   7.919   9.607 -0.9827 -1.1260  1.2083
  964MOL0     H27207   1.793   7.777   9.707 -0.7588 -1.1241 -1.8650
  964MOL0     H27208   2.058   7.874   9.608 -1.1490 -0.1609 -1.6563
  964MOL0     H27209   2.038   7.711   9.638 -1.0068  0.8950 -1.3979
  964MOL0     H27210   2.036   7.943  10.045 -2.0112 -3.3132  0.6587
  964MOL0     H27211   2.243   7.981  10.161  0.7431 -0.6528  0.9630
  964MOL0     H27212   2.731   7.701  10.203 -0.0776 -0.0822  0.1043
  964MOL0     H27213   2.928   7.742  10.375 -0.1463 -0.9945 -2.3510
  964MOL0     H27214   3.003   8.152  10.460  2.0314  1.9812 -0.5578
  964MOL0     H27215   3.120   8.137  10.345 -0.2959 -0.4142 -1.4208
  964MOL0     H27216   3.304   8.074  10.491  0.8697 -0.7626  1.2395
  964MOL0     H27217   3.197   8.045  10.627 -3.3512 -0.3551  0.0072
  964MOL0     H27218   3.129   8.264  10.647 -0.3269 -0.4993 -1.3921
  964MOL0     H27219   3.207   8.320  10.498 -0.7652 -1.3182 -0.0708
  964MOL0     H27220   3.358   8.168  10.722  0.1017 -1.2256 -0.8408
  964MOL0     H27221   3.425   8.262  10.591 -0.5324 -4.5421 -1.3551
  964MOL0     H27222   3.418   8.384  10.831 -1.3185  1.1817  0.6781
  964MOL0     H27223   3.241   8.405  10.787 -0.4401 -0.1029  1.1761
  964MOL0     H27224   3.282   8.528  10.598  0.5699 -3.2581 -1.8455
  964MOL0     H27225   3.455   8.488  10.609 -2.3296  0.5097 -1.8527
  964MOL0     H27226   3.349   8.661  10.827 -0.8924  0.1071 -0.7689
  964MOL0     H27227   3.514   8.661  10.756 -0.0342  1.5274  0.3718
  964MOL0     H27228   3.389   8.742  10.547  3.2181 -1.2136 -0.3666
  964MOL0     H27229   3.421   8.861  10.676 -1.1471  0.8529 -1.6039
  964MOL0     H27230   2.922   8.162  10.248 -0.6484 -0.8292  0.4216
  964MOL0     H27231   2.750   8.111  10.090  5.3613  0.0329 -1.5773
  964MOL0     H27232   2.469   7.818   9.839  1.2182  1.0235  0.8432
  964MOL0     H27233   2.269   7.798   9.707  4.4712  0.1770 -0.5889
  964MOL0     H27234   2.642   7.880   8.969 -2.7559 -0.4027  2.5456
  964MOL0     H27235   2.838   7.862   9.099  0.1827  0.5742 -0.6148
  964MOL0     H27236   3.176   7.649   9.222 -2.1729  3.1375  0.2042
  964MOL0     H27237   3.382   7.679   9.308 -0.5332  0.0441 -1.9238
  964MOL0     H27238   3.625   7.765   9.557 -2.8367  1.4260 -0.3785
  964MOL0     H27239   3.547   7.735   9.411 -3.1558 -1.5325  0.2055
  964MOL0     H27240   3.660   7.527   9.591  0.0036 -0.4547 -0.5957
  964MOL0     H27241   3.586   7.501   9.428  0.2626 -1.5089  0.6929
  964MOL0     H27242   3.815   7.675   9.378  0.7516  0.4834  2.0863
  964MOL0     H27243   3.816   7.509   9.350 -0.5871 -2.0713  2.2134
  964MOL0     H27244   3.864   7.631   9.625 -1.8536 -0.1906  0.3604
  964MOL0     H27245   3.935   7.483   9.564 -0.1003  0.9187  0.6412
  964MOL0     H27246   4.219   7.763   9.427  1.7083 -1.3799  1.7429
  964MOL0     H27247   3.224   7.620   9.705  0.8328 -1.9589 -0.2813
  964MOL0     H27248   2.984   7.661   9.607 -2.2250 -1.8634 -3.4521
  965MOL0     O27249   4.201   8.035   9.401 -0.0741  0.6472  0.2847
  965MOL0     C27250   4.249   8.149   9.434  0.0602  0.2863  0.1191
  965MOL0     O27251   4.376   8.174   9.459  0.5930 -0.0055 -0.1803
  965MOL0     C27252   4.464   8.072   9.465 -0.2941  0.3084  0.2794
  965MOL0     C27253   4.544   8.051   9.356 -0.5180  0.0035 -0.1690
  965MOL0     C27254   4.637   7.943   9.352  0.2373  0.7058  0.0093
  965MOL0     C27255   4.659   7.854   9.459 -0.1057  0.5610  0.1649
  965MOL0     O27256   4.746   7.756   9.447 -0.1770  0.5709 -0.2940
  965MOL0     C27257   4.813   7.691   9.561  0.7746  0.2139 -0.2180
  965MOL0     C27258   4.931   7.579   9.532  0.2163 -0.8858  0.6986
  965MOL0     C27259   5.078   7.623   9.514  0.6728 -0.8022 -0.2716
  965MOL0     C27260   5.186   7.518   9.519 -0.4843  1.1419 -1.0367
  965MOL0     C27261   5.322   7.587   9.519 -0.3455 -0.2957 -1.2392
  965MOL0     C27262   5.439   7.496   9.522  0.0215  0.1070 -0.1325
  965MOL0     C27263   5.460   7.418   9.390 -0.7078 -0.4481 -0.6166
  965MOL0     C27264   5.600   7.348   9.384  0.5108 -0.3382 -0.6118
  965MOL0     N27265   5.623   7.233   9.474 -0.5012 -0.0091 -0.6043
  965MOL0     C27266   5.658   7.261   9.607  0.6024 -0.4462  0.9493
  965MOL0     C27267   5.647   7.146   9.673 -0.4310 -0.6275  0.1910
  965MOL0     C27268   5.663   7.132   9.828  0.4112  0.1432  0.4019
  965MOL0     C27269   5.582   7.239   9.899 -0.3375  1.1447 -1.1255
  965MOL0     C27270   5.582   7.181  10.048  0.9452 -0.0645  0.9238
  965MOL0     C27271   5.507   7.275  10.139  0.3482 -0.2191  0.5633
  965MOL0     O27272   5.369   7.255  10.109 -0.0370  0.5217 -0.4941
  965MOL0     C27273   5.278   7.350  10.065 -0.4005  0.1304 -0.3471
  965MOL0     C27274   5.155   7.307  10.024 -0.5034  0.2726 -0.1816
  965MOL0     C27275   5.053   7.397   9.984 -0.5146  1.1580 -0.2389
  965MOL0     C27276   5.082   7.537   9.989 -0.6569  0.1674 -0.7650
  965MOL0     C27277   4.979   7.635   9.949 -0.0449 -0.6263  0.6827
  965MOL0     O27278   5.015   7.762   9.978  0.1981  0.5456 -0.2592
  965MOL0     C27279   4.927   7.864   9.934 -0.4747  1.0053 -0.1659
  965MOL0     C27280   4.954   7.944   9.817  0.4879  1.1329  0.6812
  965MOL0     C27281   4.860   8.052   9.780 -0.1814 -0.2071  0.6852
  965MOL0     C27282   4.744   8.075   9.853 -0.3648 -0.1937  0.2949
  965MOL0     O27283   4.643   8.163   9.833 -0.2003  0.1467  0.5062
  965MOL0     C27284   4.667   8.264   9.735 -0.6193 -0.0222 -0.1921
  965MOL0     C27285   4.554   8.369   9.744 -0.1848  0.5464  0.5374
  965MOL0     C27286   4.532   8.442   9.882 -0.2385 -0.0710 -0.1360
  965MOL0     C27287   4.654   8.527   9.932  0.3775  0.2504  0.5913
  965MOL0     C27288   4.611   8.599  10.055  0.6364 -1.2255  0.5766
  965MOL0     C27289   4.708   8.723  10.076 -0.3562 -0.3895  0.3300
  965MOL0     C27290   4.853   8.686  10.092  0.3242  0.3307 -0.4521
  965MOL0     C27291   4.883   8.597  10.203 -0.5889  0.3495 -1.5131
  965MOL0    Cl27292   4.790   8.641  10.357  0.2692 -0.6565  0.1716
  965MOL0     C27293   4.715   7.986   9.960 -0.0451 -0.2513 -0.3331
  965MOL0     C27294   4.807   7.884  10.002  0.0665 -0.2001 -0.8980
  965MOL0     O27295   4.878   7.603   9.895 -0.4628  0.8187  0.6691
  965MOL0     C27296   5.214   7.576  10.045  0.1418  0.1762 -0.6516
  965MOL0     C27297   5.316   7.490  10.072  0.6350  0.1586 -0.1911
  965MOL0     N27298   5.587   7.050   9.584 -0.0426  0.4274 -0.4754
  965MOL0     N27299   5.570   7.106   9.469 -0.8853 -0.0579  1.0227
  965MOL0     C27300   4.577   7.881   9.572  1.6914  0.1240 -0.1784
  965MOL0     C27301   4.480   7.990   9.576  0.3607 -0.2153 -0.5528
  965MOL0     C27302   4.163   8.259   9.435 -0.5514  0.4516 -0.3705
  965MOL0     C27303   4.204   8.385   9.402  0.6453 -0.3257 -0.2540
  965MOL0     C27304   4.118   8.492   9.401  0.3941 -0.0678  0.7517
  965MOL0     C27305   3.982   8.470   9.421  1.2275 -0.1779 -0.4715
  965MOL0     O27306   3.899   8.569   9.379 -0.2285  1.3111 -0.1040
  965MOL0     C27307   3.764   8.558   9.419  0.7293 -0.8215  0.6703
  965MOL0     C27308   3.694   8.680   9.353 -0.9433 -0.4321  0.2393
  965MOL0     C27309   3.552   8.692   9.415  0.0579  0.1139 -1.0766
  965MOL0     C27310   3.482   8.817   9.353 -0.2475  0.7612 -0.3937
  965MOL0     C27311   3.352   8.840   9.424  0.1944 -0.1178  0.2121
  965MOL0     C27312   3.242   8.850   9.476 -0.9080 -0.0197 -0.0966
  965MOL0     C27313   3.940   8.338   9.459  0.3496 -0.5297  0.2153
  965MOL0     C27314   4.032   8.230   9.461 -0.6589 -0.4119  0.2167
  965MOL0     H27315   4.534   8.121   9.274  0.2060 -0.0864 -0.3446
  965MOL0     H27316   4.693   7.911   9.264 -1.2125 -1.8177 -0.0906
  965MOL0     H27317   4.743   7.638   9.625  1.0889 -0.2490 -0.2527
  965MOL0     H27318   4.866   7.766   9.619 -0.6885  0.8364  0.3550
  965MOL0     H27319   4.903   7.508   9.454 -2.4915  0.9586 -0.1621
  965MOL0     H27320   4.942   7.517   9.621  1.3430  0.0534  1.2315
  965MOL0     H27321   5.102   7.680   9.604 -0.9306 -1.2826  0.5027
  965MOL0     H27322   5.096   7.695   9.433  0.6964 -0.0984  0.3420
  965MOL0     H27323   5.179   7.456   9.609 -1.5105  0.5340 -1.5021
  965MOL0     H27324   5.180   7.445   9.437  1.4040 -0.9864  0.5871
  965MOL0     H27325   5.327   7.646   9.611  1.7506 -1.5219 -0.5172
  965MOL0     H27326   5.321   7.658   9.435  0.4540  2.2964  0.8040
  965MOL0     H27327   5.433   7.430   9.609  1.3756  0.3152  0.1328
  965MOL0     H27328   5.521   7.567   9.538  0.8361 -1.0809  1.1676
  965MOL0     H27329   5.384   7.339   9.386 -0.3334 -0.8299 -0.3711
  965MOL0     H27330   5.448   7.480   9.301  1.7982  0.0302 -0.6893
  965MOL0     H27331   5.679   7.424   9.390 -0.8900  1.1593 -0.6062
  965MOL0     H27332   5.600   7.306   9.283  0.7812 -1.8184 -0.0129
  965MOL0     H27333   5.701   7.356   9.639  0.0100  0.7028 -1.4834
  965MOL0     H27334   5.771   7.144   9.846  1.0085 -1.1503 -1.9985
  965MOL0     H27335   5.625   7.033   9.852 -0.2346 -0.0950 -1.4535
  965MOL0     H27336   5.478   7.255   9.867 -1.2053  1.7065  1.6736
  965MOL0     H27337   5.635   7.334   9.886  3.3450 -0.3735  1.2323
  965MOL0     H27338   5.550   7.077  10.058 -0.2615  0.2557  0.5802
  965MOL0     H27339   5.687   7.169  10.075  1.2250 -0.1805 -0.1752
  965MOL0     H27340   5.542   7.378  10.126  1.2364 -0.7628 -2.1631
  965MOL0     H27341   5.530   7.235  10.238  3.1321 -0.3352 -0.0503
  965MOL0     H27342   5.139   7.200  10.017  0.9007  0.0300  0.0534
  965MOL0     H27343   4.951   7.365   9.965 -0.8949 -0.1593  3.2027
  965MOL0     H27344   5.055   7.935   9.778 -0.2075  0.3830 -1.0287
  965MOL0     H27345   4.886   8.124   9.702  0.1201  0.2185  1.1704
  965MOL0     H27346   4.671   8.207   9.642  0.2538 -1.3060  0.5965
  965MOL0     H27347   4.761   8.321   9.733 -0.1059 -0.8595 -0.4120
  965MOL0     H27348   4.464   8.311   9.718  1.3798 -0.9777 -1.9148
  965MOL0     H27349   4.578   8.448   9.673  2.1721  2.7883  3.5711
  965MOL0     H27350   4.510   8.368   9.959 -2.0286 -0.8636 -1.3375
  965MOL0     H27351   4.438   8.497   9.871  0.2366  0.3994 -2.1613
  965MOL0     H27352   4.728   8.459   9.975 -1.9566 -1.9332  1.3755
  965MOL0     H27353   4.690   8.588   9.849 -0.7106  0.6576  0.4042
  965MOL0     H27354   4.611   8.530  10.139 -2.6692  0.7136  2.3519
  965MOL0     H27355   4.507   8.631  10.046  1.3235  0.7178 -1.4510
  965MOL0     H27356   4.667   8.786  10.156 -0.5045 -0.7583  0.5478
  965MOL0     H27357   4.706   8.776   9.980  2.5174 -0.5305  0.1005
  965MOL0     H27358   4.910   8.658  10.003  0.4847  1.8619 -0.8644
  965MOL0     H27359   4.904   8.778  10.124  1.6953 -0.1125 -1.2559
  965MOL0     H27360   4.991   8.588  10.212 -0.7306 -0.2962 -0.2507
  965MOL0     H27361   4.851   8.494  10.182 -0.0138 -0.1093 -0.2502
  965MOL0     H27362   4.620   7.990  10.012  0.0147  1.3348 -0.3002
  965MOL0     H27363   4.793   7.806  10.076  1.5607 -0.1305 -0.5042
  965MOL0     H27364   5.238   7.681  10.057  1.7057  0.0011 -1.8597
  965MOL0     H27365   5.406   7.539  10.107  0.1220  0.1961  1.1196
  965MOL0     H27366   4.584   7.814   9.657 -1.0960  1.1963  1.0261
  965MOL0     H27367   4.430   8.021   9.667 -0.3276  0.9493 -1.3004
  965MOL0     H27368   4.306   8.400   9.367  0.7400 -2.0303 -0.7797
  965MOL0     H27369   4.166   8.582   9.365 -2.2482  1.3263  0.4587
  965MOL0     H27370   3.763   8.576   9.527 -1.1952  1.2926  0.3882
  965MOL0     H27371   3.719   8.459   9.406  1.7217 -1.0301 -1.5241
  965MOL0     H27372   3.750   8.771   9.373 -2.4064  0.4577  0.4379
  965MOL0     H27373   3.691   8.670   9.244  1.8214  0.1662  0.0362
  965MOL0     H27374   3.571   8.712   9.520 -0.2378 -0.3905 -0.9203
  965MOL0     H27375   3.496   8.598   9.414 -1.2311  0.7553  1.6325
  965MOL0     H27376   3.546   8.906   9.362  0.8478 -0.1191  0.7751
  965MOL0     H27377   3.455   8.797   9.249 -3.2582  2.1561  0.0162
  965MOL0     H27378   3.149   8.843   9.528 -0.9158  2.8795  0.4091
  965MOL0     H27379   3.835   8.317   9.475  0.6014 -1.5479  0.6097
  965MOL0     H27380   3.987   8.131   9.466  2.8559 -2.1589 -0.0781
  966MOL0     O27381   4.894  10.836   6.024 -0.0097 -1.2560 -0.4008
  966MOL0     C27382   4.806  10.762   5.981  0.7270 -0.4334  0.1040
  966MOL0     O27383   4.805  10.656   5.897 -0.1919 -0.4888  0.6587
  966MOL0     C27384   4.914  10.610   5.832 -0.6203  0.5487 -0.7913
  966MOL0     C27385   5.005  10.688   5.755 -0.3915  0.1322  0.3360
  966MOL0     C27386   5.111  10.624   5.691 -0.4916  0.3412 -0.1508
  966MOL0     C27387   5.117  10.485   5.675  0.1096  0.3248  0.0808
  966MOL0     O27388   5.224  10.434   5.606  0.3687  0.7319  0.7329
  966MOL0     C27389   5.225  10.285   5.581  0.6131 -0.5754 -0.6696
  966MOL0     C27390   5.354  10.259   5.511  0.0159 -0.4232  1.2508
  966MOL0     C27391   5.418  10.119   5.515 -0.6359  0.3502  0.6777
  966MOL0     C27392   5.546  10.108   5.442 -0.5674 -0.7170  1.0529
  966MOL0     C27393   5.613   9.980   5.429  0.8060  0.5349  0.5705
  966MOL0     C27394   5.543   9.878   5.351 -0.2844 -1.2536 -0.2397
  966MOL0     C27395   5.628   9.757   5.324 -0.9719  0.0938  0.1935
  966MOL0     C27396   5.664   9.663   5.443 -0.7516  0.0555 -0.1238
  966MOL0     N27397   5.560   9.557   5.466  0.3511  0.1466  0.2248
  966MOL0     C27398   5.429   9.582   5.513 -0.1973 -0.1249  0.3024
  966MOL0     C27399   5.378   9.455   5.499 -0.5891  0.5887 -0.6693
  966MOL0     C27400   5.245   9.399   5.556 -0.3390  0.0058 -0.1479
  966MOL0     C27401   5.193   9.280   5.476  0.8550  0.9138 -0.5979
  966MOL0     C27402   5.039   9.281   5.476  0.2000 -0.1503 -0.7050
  966MOL0     C27403   4.979   9.165   5.376  0.1469 -0.6485  0.1670
  966MOL0     O27404   4.878   9.089   5.449  0.5621  0.4447  0.0777
  966MOL0     C27405   4.746   9.133   5.443  0.2317 -0.1699  0.0269
  966MOL0     C27406   4.703   9.258   5.409 -0.1697  0.9002 -0.1841
  966MOL0     C27407   4.563   9.281   5.415  0.2877 -0.5735  0.2663
  966MOL0     C27408   4.462   9.187   5.444 -0.9813  0.1839  0.7260
  966MOL0     C27409   4.322   9.221   5.427  0.4620  0.1093  0.6147
  966MOL0     O27410   4.238   9.112   5.413  0.5395 -0.2172  0.2712
  966MOL0     C27411   4.110   9.127   5.453  0.9636 -0.4663 -0.3745
  966MOL0     C27412   4.059   9.186   5.570  0.1026  0.3267 -0.7763
  966MOL0     C27413   3.919   9.191   5.594  0.0502  0.6515  0.2125
  966MOL0     C27414   3.830   9.134   5.496 -0.7524  0.0247 -0.1755
  966MOL0     O27415   3.696   9.140   5.522 -0.2927  0.5711 -0.0965
  966MOL0     C27416   3.652   9.109   5.655 -0.3196 -0.2986 -0.9124
  966MOL0     C27417   3.531   9.010   5.663 -0.7247 -0.1105  0.0441
  966MOL0     C27418   3.492   8.997   5.809  0.5299 -0.2663 -0.4230
  966MOL0     C27419   3.386   8.889   5.832  0.3337 -0.5208  0.1560
  966MOL0     C27420   3.248   8.926   5.785  0.2590  0.7082 -0.0475
  966MOL0     C27421   3.147   8.810   5.804  0.0542 -0.4804  0.1293
  966MOL0     C27422   3.001   8.854   5.786  0.2172  0.1761  1.0883
  966MOL0     C27423   2.903   8.741   5.801  0.0247  0.4526  0.5103
  966MOL0    Cl27424   2.942   8.600   5.685 -0.2054  0.4830  0.0440
  966MOL0     C27425   3.887   9.079   5.380  1.2213 -1.0800  0.4225
  966MOL0     C27426   4.021   9.067   5.368  0.6992  0.0914 -0.2269
  966MOL0     O27427   4.289   9.338   5.435  0.0863 -0.3310 -0.2236
  966MOL0     C27428   4.513   9.058   5.478 -0.1769 -0.5008 -0.3744
  966MOL0     C27429   4.650   9.032   5.473  0.9593 -0.1195 -0.9700
  966MOL0     N27430   5.477   9.356   5.460 -0.7574  0.1931  0.1260
  966MOL0     N27431   5.581   9.425   5.439  0.0117  0.6396  0.8373
  966MOL0     C27432   5.016  10.409   5.738  0.6088  0.5309  0.2186
  966MOL0     C27433   4.924  10.478   5.828 -0.0706 -0.3884  0.3898
  966MOL0     C27434   4.676  10.786   6.049 -0.2045 -0.9056 -0.1081
  966MOL0     C27435   4.570  10.711   6.011  0.3367 -0.5107 -0.3758
  966MOL0     C27436   4.444  10.736   6.062  1.0988  0.3919 -0.8147
  966MOL0     C27437   4.419  10.833   6.160  0.3598 -0.2536  0.3493
  966MOL0     O27438   4.303  10.863   6.235  0.4904  0.0499  0.2197
  966MOL0     C27439   4.205  10.760   6.246 -0.3538  0.2816 -0.4854
  966MOL0     C27440   4.089  10.824   6.303  0.3260 -0.3617 -0.6301
  966MOL0     C27441   3.970  10.731   6.318  0.0577  0.6263  0.2650
  966MOL0     C27442   3.974  10.622   6.426  0.0541  0.6139 -0.7321
  966MOL0     C27443   3.867  10.520   6.427 -0.5447 -0.3122  0.0412
  966MOL0     C27444   3.782  10.441   6.427 -0.4714  0.3493 -0.1393
  966MOL0     C27445   4.526  10.916   6.195  0.2395  0.2632  0.0273
  966MOL0     C27446   4.651  10.900   6.130  0.2998  0.5126  0.2486
  966MOL0     H27447   5.001  10.797   5.754 -2.5563  0.1458 -2.4169
  966MOL0     H27448   5.187  10.678   5.635 -2.3190  1.8036 -1.3227
  966MOL0     H27449   5.145  10.263   5.510  1.3674 -0.1501 -1.6728
  966MOL0     H27450   5.221  10.235   5.678 -1.2082  2.5543  1.0359
  966MOL0     H27451   5.436  10.315   5.557  0.6650 -0.3278  0.0210
  966MOL0     H27452   5.352  10.295   5.408  1.7399 -0.1806  1.2826
  966MOL0     H27453   5.358  10.048   5.457  1.6351  1.0778 -2.8578
  966MOL0     H27454   5.430  10.090   5.619 -2.0020 -0.9121  0.5098
  966MOL0     H27455   5.520  10.152   5.345 -5.2168 -0.0292  2.3763
  966MOL0     H27456   5.618  10.176   5.487  0.6010 -0.5929 -0.8829
  966MOL0     H27457   5.621   9.931   5.526 -3.1530 -2.1742 -0.2678
  966MOL0     H27458   5.710  10.008   5.386 -0.1299  1.7278 -0.8892
  966MOL0     H27459   5.515   9.915   5.252  0.5645 -4.6470 -1.9211
  966MOL0     H27460   5.453   9.843   5.403 -0.2863  1.0372  1.4164
  966MOL0     H27461   5.575   9.694   5.252 -1.9635 -0.2158  1.1643
  966MOL0     H27462   5.721   9.787   5.275 -1.1133  1.7517  0.8762
  966MOL0     H27463   5.693   9.709   5.537 -2.0717 -1.4593  1.0810
  966MOL0     H27464   5.747   9.597   5.416  0.9772  1.4362  1.6036
  966MOL0     H27465   5.382   9.673   5.548  2.6777  0.8443  2.0040
  966MOL0     H27466   5.175   9.480   5.534  0.7937  0.8352 -0.8397
  966MOL0     H27467   5.261   9.373   5.661  1.5790 -1.1209 -0.6675
  966MOL0     H27468   5.238   9.184   5.506 -0.8827 -0.5983 -2.5553
  966MOL0     H27469   5.202   9.284   5.367 -1.0903 -0.7998 -0.8663
  966MOL0     H27470   5.016   9.267   5.582 -2.2845  1.5975 -0.9362
  966MOL0     H27471   5.006   9.382   5.450 -0.7208 -0.7326 -1.9389
  966MOL0     H27472   5.051   9.089   5.345 -2.0793 -1.7585 -2.8397
  966MOL0     H27473   4.944   9.232   5.296  0.3381  1.3098  1.6417
  966MOL0     H27474   4.785   9.324   5.381 -0.6887  2.2137  1.2553
  966MOL0     H27475   4.541   9.382   5.381 -0.5981 -0.3878  1.3277
  966MOL0     H27476   4.128   9.231   5.640 -1.4898 -2.8672  3.3041
  966MOL0     H27477   3.882   9.223   5.690 -1.7793 -0.7426  0.0338
  966MOL0     H27478   3.613   9.200   5.702 -0.0483 -0.6743  0.0617
  966MOL0     H27479   3.730   9.081   5.726 -0.1154 -1.7699 -1.6950
  966MOL0     H27480   3.577   8.915   5.635 -0.3149  0.5578 -1.7106
  966MOL0     H27481   3.452   9.048   5.597 -0.1589 -0.1152 -0.6482
  966MOL0     H27482   3.459   9.095   5.843  1.8865  1.0708 -2.7070
  966MOL0     H27483   3.580   8.973   5.869  0.4871  0.5415 -0.0289
  966MOL0     H27484   3.414   8.797   5.778 -1.1284 -0.8991 -0.0097
  966MOL0     H27485   3.374   8.870   5.939  0.5664  1.7647  0.6229
  966MOL0     H27486   3.253   8.939   5.677 -0.5549 -1.7978 -0.4709
  966MOL0     H27487   3.204   9.009   5.840 -2.4479 -0.5719 -0.0750
  966MOL0     H27488   3.170   8.753   5.894 -0.7625 -0.8078  0.1453
  966MOL0     H27489   3.167   8.750   5.714 -1.6975 -0.1233 -0.5434
  966MOL0     H27490   2.968   8.932   5.855 -2.4812 -0.2620  0.3852
  966MOL0     H27491   2.993   8.887   5.681 -0.2561 -1.3039  0.6418
  966MOL0     H27492   2.805   8.781   5.772 -1.3499 -2.8860  0.0493
  966MOL0     H27493   2.902   8.711   5.906 -1.1325 -1.8555 -0.0984
  966MOL0     H27494   3.820   9.027   5.312 -0.2855  0.8806  0.2864
  966MOL0     H27495   4.063   9.020   5.280  2.1660 -0.4962  0.7412
  966MOL0     H27496   4.443   8.982   5.513 -0.4536  0.2755  0.8226
  966MOL0     H27497   4.667   8.926   5.484  2.3424  0.3387  2.5619
  966MOL0     H27498   5.017  10.302   5.722 -0.0299  0.6666 -0.8158
  966MOL0     H27499   4.850  10.422   5.884  1.1033 -1.8278  0.5523
  966MOL0     H27500   4.579  10.627   5.942  1.2635 -1.6198  1.0429
  966MOL0     H27501   4.363  10.679   6.018  2.5362 -0.9928 -1.7276
  966MOL0     H27502   4.241  10.685   6.315 -0.1003  1.6861  0.9664
  966MOL0     H27503   4.175  10.709   6.154 -0.6724 -0.6062  0.1036
  966MOL0     H27504   4.127  10.852   6.402 -0.5142 -0.1139 -0.3699
  966MOL0     H27505   4.064  10.907   6.236  1.1415 -0.2182 -0.7684
  966MOL0     H27506   3.947  10.680   6.223 -0.6459  0.4862  0.5039
  966MOL0     H27507   3.881  10.790   6.341 -0.4241  0.3989 -0.9533
  966MOL0     H27508   4.067  10.570   6.404 -1.2632 -1.2602 -2.2132
  966MOL0     H27509   3.978  10.674   6.522 -1.6910  0.3149 -0.4639
  966MOL0     H27510   3.723  10.351   6.429 -0.1684  0.1620  0.7591
  966MOL0     H27511   4.515  11.005   6.256 -0.3374  0.0515  0.2384
  966MOL0     H27512   4.728  10.976   6.142 -0.9633  2.0751 -1.0792
  967MOL0     O27513   6.636   4.771   9.415  0.1006 -0.7949  0.5714
  967MOL0     C27514   6.670   4.658   9.442 -0.8177 -0.6150  0.6774
  967MOL0     O27515   6.630   4.540   9.383 -0.2316  0.3405 -0.3313
  967MOL0     C27516   6.520   4.545   9.300 -0.4236  0.2312 -0.0900
  967MOL0     C27517   6.556   4.503   9.174  0.8495  0.5245  0.9547
  967MOL0     C27518   6.455   4.498   9.073  0.5432  0.2990  0.7546
  967MOL0     C27519   6.317   4.529   9.107 -0.3389  0.5457  0.4498
  967MOL0     O27520   6.235   4.502   9.002  0.4020  0.1064  0.9138
  967MOL0     C27521   6.092   4.488   9.002 -0.4656  1.0934 -0.1622
  967MOL0     C27522   6.023   4.622   9.004  0.1621  0.0234 -0.1329
  967MOL0     C27523   5.883   4.611   8.951 -0.5210 -0.4837 -0.1888
  967MOL0     C27524   5.811   4.748   8.940 -0.0086 -0.7733 -0.1596
  967MOL0     C27525   5.705   4.767   8.827  0.4801 -1.0988 -0.5870
  967MOL0     C27526   5.577   4.679   8.850 -0.1646  0.3136 -0.2356
  967MOL0     C27527   5.480   4.692   8.738  0.2897 -0.5045  0.8134
  967MOL0     C27528   5.331   4.677   8.790  0.3678 -0.1201 -0.2662
  967MOL0     N27529   5.284   4.530   8.799 -0.3633 -0.8037 -0.0118
  967MOL0     C27530   5.203   4.487   8.901  0.0982  0.1920 -0.4733
  967MOL0     C27531   5.160   4.361   8.860 -0.2518 -0.5472 -0.0215
  967MOL0     C27532   5.068   4.278   8.947 -0.5132 -1.0932 -0.0059
  967MOL0     C27533   4.931   4.286   8.880 -0.0494  0.0345  0.4379
  967MOL0     C27534   4.821   4.213   8.957 -0.7129  0.9933  0.1974
  967MOL0     C27535   4.711   4.206   8.860  0.3815 -0.0269  0.9959
  967MOL0     O27536   4.593   4.154   8.924  0.1509 -0.0054  0.7200
  967MOL0     C27537   4.500   4.098   8.847 -0.0947 -0.4422  0.5468
  967MOL0     C27538   4.491   4.155   8.717  0.0946  0.3413  0.0717
  967MOL0     C27539   4.396   4.107   8.627  0.3640  0.2824 -0.2625
  967MOL0     C27540   4.313   3.994   8.662  0.3430  0.5499 -0.1193
  967MOL0     C27541   4.235   3.923   8.552  0.6505 -0.1804  0.0474
  967MOL0     O27542   4.158   3.814   8.590  0.4561  0.0838 -0.0500
  967MOL0     C27543   4.112   3.725   8.500  0.0609  0.5543  0.3569
  967MOL0     C27544   3.983   3.705   8.477  0.6249  0.3155  0.8653
  967MOL0     C27545   3.936   3.611   8.387 -0.4602 -1.7207 -0.0209
  967MOL0     C27546   4.013   3.536   8.299  0.7588 -0.3511 -0.8311
  967MOL0     O27547   3.950   3.439   8.217 -0.8097  0.2979  0.0249
  967MOL0     C27548   4.026   3.408   8.099  0.5703 -0.8492  0.1207
  967MOL0     C27549   3.939   3.319   8.003  0.2546 -1.3286 -0.0731
  967MOL0     C27550   3.818   3.407   7.957  0.6651  0.2834  0.2226
  967MOL0     C27551   3.720   3.323   7.889 -0.2278 -0.5527  0.1027
  967MOL0     C27552   3.578   3.385   7.895 -0.1495  0.1731  1.4446
  967MOL0     C27553   3.470   3.297   7.825 -0.2897 -0.5824 -0.4327
  967MOL0     C27554   3.478   3.279   7.680  0.7686 -0.0787  0.5179
  967MOL0     C27555   3.338   3.241   7.620 -0.4941  0.0972  0.1426
  967MOL0    Cl27556   3.260   3.109   7.712 -0.0471 -0.1160 -0.0200
  967MOL0     C27557   4.151   3.556   8.316  0.6707  1.1857  0.1060
  967MOL0     C27558   4.197   3.641   8.423 -0.4180  0.4086 -0.0609
  967MOL0     O27559   4.244   3.964   8.436  0.2490 -0.7465  0.0005
  967MOL0     C27560   4.322   3.937   8.792 -0.1600  0.1059 -0.3256
  967MOL0     C27561   4.420   3.988   8.882  0.1128  0.2743  0.4688
  967MOL0     N27562   5.210   4.339   8.730  0.6215 -0.1613 -0.6013
  967MOL0     N27563   5.282   4.440   8.702 -0.4821 -0.2419  0.6279
  967MOL0     C27564   6.292   4.565   9.239  0.1659  0.0563 -0.1650
  967MOL0     C27565   6.393   4.578   9.339  0.6190 -0.6821  0.3179
  967MOL0     C27566   6.781   4.640   9.539  0.2982 -0.0350 -0.3259
  967MOL0     C27567   6.844   4.747   9.603 -0.1808 -0.2918  0.0516
  967MOL0     C27568   6.957   4.738   9.687  0.3291  0.2023  0.3838
  967MOL0     C27569   7.019   4.618   9.710 -0.1678  0.4738 -0.0596
  967MOL0     O27570   7.128   4.629   9.792 -0.4876  0.0031  0.8330
  967MOL0     C27571   7.171   4.504   9.849  0.8600  0.0058  0.3498
  967MOL0     C27572   7.291   4.454   9.771  0.2224  0.1435 -0.2929
  967MOL0     C27573   7.425   4.507   9.812  0.1969 -1.2828 -0.2265
  967MOL0     C27574   7.542   4.435   9.743  0.2437  0.0350  0.4396
  967MOL0     C27575   7.656   4.519   9.782  0.5325  1.1297  0.9000
  967MOL0     C27576   7.743   4.598   9.803 -0.2898  0.1263  0.1109
  967MOL0     C27577   6.967   4.508   9.632 -0.0473 -0.7130  0.5208
  967MOL0     C27578   6.852   4.516   9.552 -0.4730  0.4018 -0.6771
  967MOL0     H27579   6.662   4.483   9.162  0.3124 -1.9713 -0.3657
  967MOL0     H27580   6.484   4.476   8.971 -1.3352  2.4932 -0.3324
  967MOL0     H27581   6.067   4.424   9.087 -1.4152  0.1225 -1.1477
  967MOL0     H27582   6.067   4.424   8.917  2.8401 -0.6369 -0.0058
  967MOL0     H27583   6.083   4.694   8.947 -1.2632  1.3068 -0.0770
  967MOL0     H27584   6.019   4.659   9.107  1.1039  3.9303 -1.3219
  967MOL0     H27585   5.825   4.555   9.025 -0.2760  1.2044  1.3554
  967MOL0     H27586   5.875   4.552   8.860  0.8419 -0.5634 -0.2814
  967MOL0     H27587   5.763   4.764   9.037 -0.1966  0.8443 -0.5015
  967MOL0     H27588   5.887   4.822   8.916 -1.0689 -0.6664 -3.9394
  967MOL0     H27589   5.739   4.734   8.728 -2.7696 -2.6558 -1.3220
  967MOL0     H27590   5.684   4.874   8.818 -1.3817 -1.4377 -0.7003
  967MOL0     H27591   5.536   4.698   8.950  0.6450  3.0758 -0.3613
  967MOL0     H27592   5.616   4.577   8.849  1.7526  1.0052  0.4209
  967MOL0     H27593   5.479   4.794   8.698 -0.3844 -1.9095 -3.2700
  967MOL0     H27594   5.499   4.621   8.657 -1.2135  0.0083 -0.0363
  967MOL0     H27595   5.268   4.728   8.716  3.8911  5.6785  0.1127
  967MOL0     H27596   5.316   4.730   8.885 -2.0905 -3.7820  1.6347
  967MOL0     H27597   5.178   4.529   8.998  1.5314 -1.1473  0.5227
  967MOL0     H27598   5.069   4.321   9.047  2.8645  0.4940 -0.5961
  967MOL0     H27599   5.111   4.178   8.961  1.5719 -0.4865 -1.5515
  967MOL0     H27600   4.946   4.227   8.788 -2.3040 -0.8391  0.5853
  967MOL0     H27601   4.911   4.392   8.865 -0.3496 -0.1831 -0.8763
  967MOL0     H27602   4.864   4.113   8.967  0.5751  1.5877  0.7963
  967MOL0     H27603   4.800   4.264   9.052  3.8771  4.1597 -0.1999
  967MOL0     H27604   4.734   4.138   8.777  1.2555  2.3238 -0.8139
  967MOL0     H27605   4.687   4.305   8.821  0.5533 -0.0975  0.7040
  967MOL0     H27606   4.558   4.229   8.675 -1.4865  1.0525 -1.3343
  967MOL0     H27607   4.389   4.146   8.526 -1.0434 -2.3614 -1.2726
  967MOL0     H27608   3.923   3.773   8.536  0.7998  0.2489  1.1239
  967MOL0     H27609   3.829   3.603   8.371 -0.5462 -0.0857 -0.4293
  967MOL0     H27610   4.119   3.358   8.125  0.6438 -1.5605 -1.4293
  967MOL0     H27611   4.059   3.495   8.041 -1.3733 -0.9561 -1.2158
  967MOL0     H27612   3.908   3.233   8.063 -0.5193  0.8360  2.8749
  967MOL0     H27613   3.997   3.291   7.915  3.4894  1.3210  0.9827
  967MOL0     H27614   3.852   3.486   7.888 -0.4295 -1.1035 -2.0233
  967MOL0     H27615   3.766   3.458   8.039 -4.5411 -0.0682 -2.4840
  967MOL0     H27616   3.751   3.309   7.785  0.6764  0.2140  0.2610
  967MOL0     H27617   3.722   3.222   7.931 -0.7647 -2.1371 -3.3163
  967MOL0     H27618   3.573   3.478   7.837 -0.5817  0.1245  1.3953
  967MOL0     H27619   3.546   3.389   8.000  0.1694 -0.9323  1.5916
  967MOL0     H27620   3.372   3.340   7.847 -0.1561 -1.7330  3.0318
  967MOL0     H27621   3.472   3.197   7.870  0.7219 -0.6323 -0.5513
  967MOL0     H27622   3.507   3.374   7.634  1.5003  0.8300  2.6857
  967MOL0     H27623   3.567   3.217   7.662  2.2388  2.0588  0.0612
  967MOL0     H27624   3.358   3.201   7.520  0.9775 -0.3056  0.5754
  967MOL0     H27625   3.270   3.325   7.604 -1.1741 -0.6977 -1.3274
  967MOL0     H27626   4.222   3.496   8.259 -0.9751 -2.2252  1.4097
  967MOL0     H27627   4.304   3.661   8.434  0.2007 -2.8587  0.9880
  967MOL0     H27628   4.255   3.858   8.824 -3.5517  3.3425  1.3688
  967MOL0     H27629   4.426   3.936   8.977  1.5407 -3.8534 -1.6321
  967MOL0     H27630   6.191   4.591   9.272 -0.1229 -0.0205 -0.9706
  967MOL0     H27631   6.381   4.609   9.442 -0.5009 -3.0610  0.9764
  967MOL0     H27632   6.810   4.848   9.584  1.3881  0.2770  0.1147
  967MOL0     H27633   6.988   4.831   9.735 -2.2020  1.6531 -0.6026
  967MOL0     H27634   7.098   4.422   9.848 -0.8718  1.3733 -3.5194
  967MOL0     H27635   7.200   4.523   9.953 -0.9527  0.1995  0.8614
  967MOL0     H27636   7.284   4.344   9.775  1.3102 -0.0133 -1.9393
  967MOL0     H27637   7.291   4.471   9.663  3.2585 -1.9346 -0.7404
  967MOL0     H27638   7.446   4.504   9.919  1.5412  1.8307 -0.2866
  967MOL0     H27639   7.426   4.612   9.781 -0.5602 -0.6922  1.5985
  967MOL0     H27640   7.558   4.331   9.773 -0.7363 -0.0422  0.7114
  967MOL0     H27641   7.533   4.438   9.634  1.2336  0.5055  0.3605
  967MOL0     H27642   7.829   4.660   9.819 -0.9624  0.9506  0.6103
  967MOL0     H27643   7.012   4.413   9.660  1.6159  0.4939  2.2062
  967MOL0     H27644   6.820   4.420   9.514  0.5410 -0.2505  0.0654
  968MOL0     O27645  10.532   5.648   9.486 -0.0087 -0.9171 -0.2251
  968MOL0     C27646  10.591   5.732   9.555 -0.6939 -1.1383 -1.0672
  968MOL0     O27647  10.536   5.824   9.632 -0.0683  0.6343 -0.1581
  968MOL0     C27648  10.396   5.843   9.651 -0.6439 -0.2164  0.2453
  968MOL0     C27649  10.347   5.969   9.618 -0.3198  1.5027  0.9530
  968MOL0     C27650  10.212   6.003   9.626 -0.7918  0.3730 -0.5677
  968MOL0     C27651  10.131   5.900   9.677  0.3151  1.0116  0.8830
  968MOL0     O27652   9.999   5.917   9.687  0.5331 -0.1876 -0.3874
  968MOL0     C27653   9.939   6.040   9.648 -0.7090 -0.1332 -0.0730
  968MOL0     C27654   9.789   6.026   9.671  0.0726 -0.7212 -0.5861
  968MOL0     C27655   9.728   5.921   9.582  0.1969  0.3275  0.5699
  968MOL0     C27656   9.577   5.885   9.607  0.7688  0.5933 -0.1908
  968MOL0     C27657   9.526   5.755   9.535  0.5883  0.0701 -0.5933
  968MOL0     C27658   9.554   5.624   9.615 -0.7333 -0.5301  0.8355
  968MOL0     C27659   9.502   5.505   9.547 -0.3144 -0.5086  0.1539
  968MOL0     C27660   9.536   5.383   9.633 -1.1263  0.3262 -1.0732
  968MOL0     N27661   9.479   5.263   9.568 -0.5539  0.2231  0.6443
  968MOL0     C27662   9.367   5.190   9.599 -0.9137  0.0458 -0.0788
  968MOL0     C27663   9.366   5.088   9.516  0.1052 -0.2720  0.5570
  968MOL0     C27664   9.262   4.980   9.519 -0.0163 -0.2057  0.4195
  968MOL0     C27665   9.161   4.994   9.409  0.9506 -0.9622  0.5154
  968MOL0     C27666   9.101   4.862   9.358 -0.2218  0.0832 -0.6015
  968MOL0     C27667   9.030   4.787   9.466 -0.3750  0.3891 -1.7231
  968MOL0     O27668   9.002   4.655   9.424  0.0236 -0.3107  0.2131
  968MOL0     C27669   8.868   4.613   9.422  0.7369  0.4518  0.4553
  968MOL0     C27670   8.818   4.503   9.495  0.4082  1.0942 -0.5432
  968MOL0     C27671   8.693   4.453   9.474  0.1224  0.0125  0.6011
  968MOL0     C27672   8.605   4.507   9.378 -0.0584 -1.3893  0.0754
  968MOL0     C27673   8.468   4.453   9.349  0.5043  0.4424 -0.9329
  968MOL0     O27674   8.424   4.355   9.443  0.1180 -0.4343  0.2951
  968MOL0     C27675   8.300   4.321   9.423  0.4278  0.3364  0.0143
  968MOL0     C27676   8.264   4.215   9.331 -0.5716 -0.2343 -0.1969
  968MOL0     C27677   8.132   4.187   9.304 -0.3507 -0.6259  0.6102
  968MOL0     C27678   8.035   4.249   9.379 -0.0272  0.1444  0.3123
  968MOL0     O27679   7.897   4.245   9.345  1.0165  0.2988 -0.2706
  968MOL0     C27680   7.837   4.116   9.309 -0.5023 -0.3879  0.9669
  968MOL0     C27681   7.723   4.086   9.409 -0.3969  0.0277 -0.7484
  968MOL0     C27682   7.596   4.169   9.379  0.2680 -0.2500 -1.5655
  968MOL0     C27683   7.508   4.151   9.504  0.0452  0.4059 -0.3924
  968MOL0     C27684   7.372   4.219   9.476  0.2758 -0.1004  0.5739
  968MOL0     C27685   7.263   4.116   9.437  0.4343  1.1154  0.0111
  968MOL0     C27686   7.129   4.177   9.405 -0.3134  0.8792 -0.0428
  968MOL0     C27687   7.024   4.071   9.368  1.5630  0.8020 -0.0320
  968MOL0    Cl27688   6.860   4.158   9.347 -0.0627 -0.1394  0.6356
  968MOL0     C27689   8.068   4.347   9.473  0.0876  0.7234 -0.3625
  968MOL0     C27690   8.198   4.387   9.486 -0.9856  0.1366 -0.0211
  968MOL0     O27691   8.405   4.497   9.258  0.2229  0.2748  0.8155
  968MOL0     C27692   8.644   4.621   9.314  0.4171 -0.4663  0.4722
  968MOL0     C27693   8.775   4.673   9.329 -0.0872  0.0749  0.4230
  968MOL0     N27694   9.481   5.095   9.428  0.5239 -0.4796 -0.6906
  968MOL0     N27695   9.546   5.200   9.468 -0.0847 -0.0698  0.3569
  968MOL0     C27696  10.176   5.777   9.708 -0.5158  0.0679 -0.0828
  968MOL0     C27697  10.308   5.742   9.693  0.0666 -0.1229  0.3438
  968MOL0     C27698  10.736   5.727   9.545  0.2708 -0.3573 -0.8261
  968MOL0     C27699  10.801   5.605   9.506  0.9014  0.6337  0.5785
  968MOL0     C27700  10.944   5.605   9.491  0.1254 -0.0878 -0.6273
  968MOL0     C27701  11.022   5.722   9.507  0.9406  0.8050  0.6185
  968MOL0     O27702  11.154   5.733   9.496 -0.1570  0.2707  0.3655
  968MOL0     C27703  11.233   5.619   9.445  0.6573 -0.4002 -0.0321
  968MOL0     C27704  11.376   5.640   9.474 -0.8483  0.7783 -0.2917
  968MOL0     C27705  11.428   5.769   9.413 -1.4336  1.1879 -0.0231
  968MOL0     C27706  11.579   5.768   9.436  0.5701  0.4040  0.6511
  968MOL0     C27707  11.650   5.895   9.383  0.5078  0.1751  0.0872
  968MOL0     C27708  11.709   5.983   9.341 -0.3851  0.6841  0.3666
  968MOL0     C27709  10.951   5.837   9.549 -0.5108  0.6271 -0.0052
  968MOL0     C27710  10.816   5.836   9.568 -0.4193  0.2682  0.6114
  968MOL0     H27711  10.428   6.028   9.575  0.5319  0.2861  0.8360
  968MOL0     H27712  10.182   6.105   9.605 -0.2276  0.9806  1.3947
  968MOL0     H27713   9.953   6.064   9.542  0.9354  5.0919  1.0167
  968MOL0     H27714   9.973   6.127   9.706 -1.9574  0.5903 -0.3792
  968MOL0     H27715   9.736   6.116   9.641  0.0681 -1.6114 -3.4754
  968MOL0     H27716   9.763   6.008   9.776  0.3821  2.2606  0.0971
  968MOL0     H27717   9.773   5.824   9.602 -2.0276 -1.3625 -1.7944
  968MOL0     H27718   9.754   5.944   9.478  1.3770  2.2574  1.2239
  968MOL0     H27719   9.573   5.879   9.716 -0.0481  1.7021 -0.1412
  968MOL0     H27720   9.507   5.960   9.569  0.8651 -1.4399 -5.1763
  968MOL0     H27721   9.545   5.748   9.428  0.6938 -4.3611 -0.4630
  968MOL0     H27722   9.417   5.765   9.542  0.7266  0.9300  0.8891
  968MOL0     H27723   9.516   5.644   9.716  3.9778  0.2756  2.7165
  968MOL0     H27724   9.662   5.611   9.628 -0.7681 -0.3791  1.3006
  968MOL0     H27725   9.395   5.516   9.532 -0.4233 -0.2725  1.0389
  968MOL0     H27726   9.548   5.497   9.448 -0.6984  4.8067 -0.7567
  968MOL0     H27727   9.500   5.398   9.736 -0.8923 -0.3184 -0.8907
  968MOL0     H27728   9.644   5.365   9.638 -1.2438 -0.1538  2.8599
  968MOL0     H27729   9.306   5.209   9.687  4.3747  3.8343  3.3426
  968MOL0     H27730   9.213   4.965   9.615 -1.4631 -2.2914 -0.5629
  968MOL0     H27731   9.313   4.886   9.496  0.6421 -0.0481  1.1871
  968MOL0     H27732   9.198   5.044   9.318 -0.4004 -0.7428  0.0674
  968MOL0     H27733   9.084   5.054   9.458  2.0270  0.2703  0.7742
  968MOL0     H27734   9.016   4.887   9.293  0.5595 -0.1516 -1.7448
  968MOL0     H27735   9.179   4.807   9.304  0.9070  2.7962 -1.9130
  968MOL0     H27736   8.932   4.833   9.481 -0.2388 -0.3307  2.4543
  968MOL0     H27737   9.082   4.769   9.560  2.3392 -1.7532 -3.4698
  968MOL0     H27738   8.874   4.453   9.574 -0.0527  1.6586  0.1464
  968MOL0     H27739   8.666   4.361   9.522  0.3812  1.1422  3.0464
  968MOL0     H27740   8.341   4.162   9.276 -1.0847  0.0210 -1.1806
  968MOL0     H27741   8.112   4.118   9.222  0.3566 -1.2935  0.9909
  968MOL0     H27742   7.911   4.036   9.312 -0.7480 -0.6569  0.1334
  968MOL0     H27743   7.796   4.118   9.208 -0.0138 -2.4495  0.6908
  968MOL0     H27744   7.764   4.110   9.508  0.8447  0.6396 -1.3913
  968MOL0     H27745   7.701   3.979   9.403  1.4077 -0.4782  0.7267
  968MOL0     H27746   7.545   4.124   9.293  0.7000  1.7677 -2.9485
  968MOL0     H27747   7.623   4.275   9.371 -0.5067  0.1856  0.7945
  968MOL0     H27748   7.487   4.044   9.512 -0.2667  0.5656  1.1505
  968MOL0     H27749   7.565   4.188   9.589  3.5652 -0.9857 -1.9424
  968MOL0     H27750   7.377   4.294   9.397  1.4072  0.6914  1.3758
  968MOL0     H27751   7.334   4.271   9.564 -0.2053  0.4280  0.0650
  968MOL0     H27752   7.254   4.049   9.524  0.1875  3.7594  2.1621
  968MOL0     H27753   7.303   4.063   9.351  0.9780  0.2183  0.7917
  968MOL0     H27754   7.092   4.246   9.481  1.0538 -1.5833  3.0791
  968MOL0     H27755   7.144   4.237   9.314  0.2458 -1.5230 -1.6385
  968MOL0     H27756   7.015   3.996   9.447  3.1924  2.5498  1.9523
  968MOL0     H27757   7.055   4.014   9.281 -2.9944 -4.6855  1.3287
  968MOL0     H27758   7.984   4.407   9.507  1.2508  2.9109 -1.1780
  968MOL0     H27759   8.221   4.476   9.544 -4.2442  2.2976 -1.7695
  968MOL0     H27760   8.591   4.671   9.234 -1.0269 -0.6099  1.3137
  968MOL0     H27761   8.809   4.756   9.268  2.0721 -2.2409 -1.7650
  968MOL0     H27762  10.106   5.700   9.736 -0.1277 -0.1854  0.1964
  968MOL0     H27763  10.348   5.643   9.710  1.0228  0.4840  1.7719
  968MOL0     H27764  10.739   5.521   9.477 -0.7397  1.8304  0.5440
  968MOL0     H27765  10.993   5.512   9.464  1.5080  0.9203 -1.6849
  968MOL0     H27766  11.217   5.595   9.340  1.1475 -0.6438 -0.0539
  968MOL0     H27767  11.197   5.524   9.486  2.1172 -0.6628  0.7069
  968MOL0     H27768  11.404   5.640   9.580 -0.7479  1.1766 -0.3187
  968MOL0     H27769  11.418   5.556   9.418 -1.5280 -0.9368  1.6329
  968MOL0     H27770  11.385   5.855   9.464  1.0181  2.6192 -0.1766
  968MOL0     H27771  11.407   5.757   9.306  2.4603 -4.4034 -0.5814
  968MOL0     H27772  11.596   5.771   9.544  1.7221  3.9733  0.5260
  968MOL0     H27773  11.624   5.687   9.378 -2.3908  1.1723 -3.1114
  968MOL0     H27774  11.757   6.067   9.295 -0.6597  0.6816  0.0700
  968MOL0     H27775  10.999   5.934   9.554 -0.7188  0.7854 -0.9439
  968MOL0     H27776  10.764   5.931   9.566  2.3892  1.9631 -3.1956
  969MOL0     O27777   3.093   0.444   7.506 -0.4081  0.2576  0.2706
  969MOL0     C27778   3.092   0.561   7.545  0.9970 -0.2693  0.1395
  969MOL0     O27779   2.986   0.616   7.607  0.1809  0.4142 -0.2785
  969MOL0     C27780   2.867   0.550   7.612 -0.4255 -0.1986  0.1808
  969MOL0     C27781   2.829   0.489   7.732  0.3146  0.6646  0.3471
  969MOL0     C27782   2.712   0.418   7.734  0.3704  0.8385  0.9084
  969MOL0     C27783   2.632   0.400   7.614 -0.1877 -0.1626 -0.5668
  969MOL0     O27784   2.515   0.342   7.599 -0.4496 -0.2087 -0.3756
  969MOL0     C27785   2.465   0.270   7.715  0.1069 -0.2363  0.2441
  969MOL0     C27786   2.334   0.199   7.686  0.3600 -0.6507  0.3060
  969MOL0     C27787   2.345   0.101   7.571 -0.8254  0.0752 -0.0032
  969MOL0     C27788   2.212   0.009   7.557 -0.3410  0.3408  0.0129
  969MOL0     C27789   2.231  -0.108   7.452  0.3610  0.0691  0.1805
  969MOL0     C27790   2.087  -0.165   7.421 -0.0665 -0.4136 -0.3404
  969MOL0     C27791   2.073  -0.262   7.303  0.9242 -0.2337 -0.6282
  969MOL0     C27792   2.121  -0.398   7.340 -0.0530  0.3525 -0.1879
  969MOL0     N27793   2.157  -0.477   7.220 -0.2370  0.6294 -0.4490
  969MOL0     C27794   2.076  -0.567   7.149  0.1128 -0.3776 -0.1648
  969MOL0     C27795   2.160  -0.655   7.102  0.0135 -0.1122 -0.6578
  969MOL0     C27796   2.116  -0.764   7.009 -0.0438  0.5652 -1.0274
  969MOL0     C27797   2.019  -0.865   7.061  0.3881  0.3785 -0.1474
  969MOL0     C27798   2.058  -0.927   7.196  0.4629 -0.9568 -0.2634
  969MOL0     C27799   1.940  -1.012   7.246 -0.2476  0.3774 -1.0041
  969MOL0     O27800   1.845  -0.919   7.286  0.0916  0.2162 -0.4977
  969MOL0     C27801   1.724  -0.964   7.323 -0.2981 -1.2472  0.7087
  969MOL0     C27802   1.665  -1.081   7.281  0.9707  0.4444 -0.3810
  969MOL0     C27803   1.532  -1.118   7.313 -0.6907  0.6402  0.0511
  969MOL0     C27804   1.451  -1.028   7.391 -0.5709  1.0722  0.7839
  969MOL0     C27805   1.306  -1.049   7.421 -0.6289  0.2906 -0.0385
  969MOL0     O27806   1.256  -0.949   7.505  0.2807  0.5782 -0.7976
  969MOL0     C27807   1.123  -0.922   7.519  0.2575  0.4733  0.3532
  969MOL0     C27808   1.094  -0.887   7.652  0.3352 -0.2324  0.6689
  969MOL0     C27809   0.970  -0.833   7.685 -0.0335 -0.1377 -0.3047
  969MOL0     C27810   0.876  -0.811   7.588  0.9036 -0.6080 -0.4388
  969MOL0     O27811   0.760  -0.751   7.634 -0.0340 -0.0193  0.6281
  969MOL0     C27812   0.661  -0.715   7.539  0.1077 -0.3588 -0.0844
  969MOL0     C27813   0.524  -0.687   7.607  0.0918 -0.5336 -0.6466
  969MOL0     C27814   0.552  -0.553   7.673  0.9676  0.0082  0.1494
  969MOL0     C27815   0.423  -0.497   7.723 -0.1849 -0.0997 -0.7006
  969MOL0     C27816   0.440  -0.351   7.768  1.1287  0.5709 -0.9059
  969MOL0     C27817   0.546  -0.315   7.876  0.0800  0.4742  0.6684
  969MOL0     C27818   0.538  -0.171   7.918 -0.4295  0.5824 -0.7930
  969MOL0     C27819   0.621  -0.146   8.041  0.9216  0.1536 -0.4486
  969MOL0    Cl27820   0.669   0.020   8.072  0.2712 -0.1069 -0.4520
  969MOL0     C27821   0.900  -0.856   7.463  0.2839  0.2561 -0.0249
  969MOL0     C27822   1.024  -0.902   7.425  0.9019  0.5233  0.3401
  969MOL0     O27823   1.239  -1.128   7.353 -0.3040 -0.0739  0.2380
  969MOL0     C27824   1.511  -0.916   7.448  0.9311  0.6570  0.0797
  969MOL0     C27825   1.644  -0.886   7.410 -1.0418  0.3700 -0.6519
  969MOL0     N27826   2.283  -0.609   7.132 -0.4398  0.7324 -0.4030
  969MOL0     N27827   2.285  -0.510   7.209  0.1619  0.3245  0.1352
  969MOL0     C27828   2.675   0.461   7.494  0.7584  0.4679  0.6371
  969MOL0     C27829   2.796   0.530   7.489 -0.7513  0.2344 -0.3335
  969MOL0     C27830   3.216   0.642   7.514  0.5393  0.1726  0.3462
  969MOL0     C27831   3.331   0.581   7.459 -0.0507  0.3442  0.3817
  969MOL0     C27832   3.449   0.655   7.436  0.1638  0.1881 -0.2924
  969MOL0     C27833   3.445   0.791   7.437 -0.4097 -0.0027  0.8277
  969MOL0     O27834   3.554   0.875   7.408  0.1665  0.3102  0.0665
  969MOL0     C27835   3.681   0.828   7.358 -0.1229  0.2187  0.1643
  969MOL0     C27836   3.777   0.948   7.349  0.5673  0.0297  0.3655
  969MOL0     C27837   3.746   1.031   7.227  0.6801  0.2929  0.2326
  969MOL0     C27838   3.807   1.170   7.227  0.2230 -0.5180  0.7404
  969MOL0     C27839   3.747   1.280   7.313 -0.1735  0.1304  0.4123
  969MOL0     C27840   3.692   1.375   7.357  0.3606 -0.3473  0.3884
  969MOL0     C27841   3.316   0.847   7.467  0.5036 -0.8689  0.3443
  969MOL0     C27842   3.207   0.780   7.506  0.5753  0.0494 -0.8883
  969MOL0     H27843   2.885   0.504   7.823 -1.4699  1.4730  1.3766
  969MOL0     H27844   2.684   0.388   7.835 -0.4715  0.0945  0.4609
  969MOL0     H27845   2.463   0.328   7.807 -1.8699 -0.6698  0.5246
  969MOL0     H27846   2.533   0.190   7.746  1.5740  1.1512  0.6876
  969MOL0     H27847   2.264   0.274   7.647 -0.0830 -0.8555  0.6952
  969MOL0     H27848   2.302   0.151   7.779  4.1998 -0.9972  1.6143
  969MOL0     H27849   2.427   0.030   7.583 -1.6348 -1.1707 -1.4873
  969MOL0     H27850   2.375   0.154   7.481  1.1647  3.0487  2.2151
  969MOL0     H27851   2.175  -0.027   7.653  2.4695  2.5322  2.1196
  969MOL0     H27852   2.134   0.078   7.522  0.1353 -0.6510 -3.3830
  969MOL0     H27853   2.296  -0.183   7.498 -0.9001 -0.2490  1.5331
  969MOL0     H27854   2.282  -0.071   7.363  2.2263 -1.5471  0.4931
  969MOL0     H27855   2.020  -0.082   7.399  0.3832 -0.1851 -0.8800
  969MOL0     H27856   2.063  -0.215   7.516  1.7870 -4.1567 -1.6224
  969MOL0     H27857   1.966  -0.263   7.281  0.1476  1.2775  2.5289
  969MOL0     H27858   2.129  -0.220   7.218 -3.7916  4.5875 -1.9133
  969MOL0     H27859   2.059  -0.452   7.412  0.7368  2.4193  2.1410
  969MOL0     H27860   2.216  -0.382   7.390  0.9013 -2.1816 -0.9973
  969MOL0     H27861   1.969  -0.550   7.139  0.3846  0.4678 -2.3397
  969MOL0     H27862   2.200  -0.827   6.977  1.8139  2.2328  0.3376
  969MOL0     H27863   2.077  -0.722   6.916  0.2214  0.3148 -1.2558
  969MOL0     H27864   2.010  -0.944   6.986  2.8430  1.2622 -1.4873
  969MOL0     H27865   1.925  -0.810   7.067 -1.1590 -2.1869  4.4624
  969MOL0     H27866   2.138  -1.001   7.185  0.8463 -0.5321 -0.3727
  969MOL0     H27867   2.093  -0.853   7.269 -0.2770 -0.8080 -0.0551
  969MOL0     H27868   1.971  -1.062   7.339  0.2382 -0.1667 -1.4547
  969MOL0     H27869   1.908  -1.084   7.170  1.4870 -0.5970 -0.8646
  969MOL0     H27870   1.716  -1.167   7.238  0.2526  0.0017 -0.3742
  969MOL0     H27871   1.485  -1.211   7.282  2.7388 -1.4082  0.5779
  969MOL0     H27872   1.172  -0.898   7.727 -0.6656 -1.9765  1.5104
  969MOL0     H27873   0.949  -0.809   7.788 -0.9710  1.8245 -0.9087
  969MOL0     H27874   0.658  -0.801   7.471  0.8058 -2.1907  2.0666
  969MOL0     H27875   0.698  -0.628   7.484 -1.5656  0.8705  0.6557
  969MOL0     H27876   0.495  -0.768   7.676 -0.9968 -0.9747 -1.5859
  969MOL0     H27877   0.448  -0.677   7.530 -4.4111 -1.3470  3.2215
  969MOL0     H27878   0.575  -0.479   7.596 -2.3739 -0.7195 -1.7428
  969MOL0     H27879   0.616  -0.561   7.761 -1.7199 -4.4674  2.0572
  969MOL0     H27880   0.344  -0.500   7.647 -1.0894  1.2572  0.1438
  969MOL0     H27881   0.389  -0.554   7.810 -0.0216  2.8873  1.5134
  969MOL0     H27882   0.344  -0.314   7.804  0.6834 -0.5574 -0.8929
  969MOL0     H27883   0.453  -0.296   7.674  2.1406 -0.6587 -1.5213
  969MOL0     H27884   0.643  -0.332   7.828  0.3865 -2.0904  1.9875
  969MOL0     H27885   0.533  -0.393   7.952 -0.3798 -0.2117 -0.1060
  969MOL0     H27886   0.579  -0.112   7.835  1.7808 -1.7396 -1.4828
  969MOL0     H27887   0.432  -0.146   7.927  0.0716  1.8993  3.3768
  969MOL0     H27888   0.713  -0.206   8.043  1.1709  0.4356  3.8525
  969MOL0     H27889   0.558  -0.184   8.121  3.4080 -1.3465  0.9236
  969MOL0     H27890   0.823  -0.858   7.387  0.1612  1.8286  0.0205
  969MOL0     H27891   1.045  -0.926   7.321 -1.1930 -1.0777  0.2164
  969MOL0     H27892   1.459  -0.850   7.518 -1.3514 -0.2745 -0.6413
  969MOL0     H27893   1.683  -0.793   7.452 -2.4039  1.5953 -2.0206
  969MOL0     H27894   2.627   0.446   7.397  2.4650 -3.7108  0.2472
  969MOL0     H27895   2.839   0.559   7.394 -2.8913 -0.1020 -1.4515
  969MOL0     H27896   3.331   0.472   7.458 -2.3890  0.3087 -0.2156
  969MOL0     H27897   3.540   0.601   7.411 -1.1617 -2.1297 -0.4668
  969MOL0     H27898   3.668   0.771   7.265  2.5269 -2.9607  1.5203
  969MOL0     H27899   3.717   0.747   7.423  1.5257 -1.2314 -2.3857
  969MOL0     H27900   3.774   1.002   7.444  1.1674 -5.6577  4.0757
  969MOL0     H27901   3.878   0.906   7.340  0.7505 -0.0448  2.3849
  969MOL0     H27902   3.639   1.048   7.219  0.3216  0.1175  3.2683
  969MOL0     H27903   3.772   0.985   7.131  3.1904  1.2331  0.3830
  969MOL0     H27904   3.907   1.149   7.267  1.8019  2.3633 -1.3022
  969MOL0     H27905   3.833   1.212   7.129  2.5851 -0.2677  1.4125
  969MOL0     H27906   3.641   1.463   7.391  2.0040  1.3109 -1.1558
  969MOL0     H27907   3.305   0.954   7.459  1.9383 -0.7504 -0.3087
  969MOL0     H27908   3.110   0.823   7.530  0.5276 -0.8050  0.5260
  970MOL0     O27909  11.000   9.239  10.221 -0.4215  0.2654 -0.4455
  970MOL0     C27910  11.084   9.254  10.127  0.4703  0.4513 -0.4176
  970MOL0     O27911  11.045   9.299  10.001 -0.1935 -0.2504  0.2197
  970MOL0     C27912  10.935   9.373   9.959  0.3899  0.6105 -0.1664
  970MOL0     C27913  10.947   9.454   9.852 -0.7053  0.0463 -0.9076
  970MOL0     C27914  10.843   9.536   9.808  0.8762 -0.0699  0.6262
  970MOL0     C27915  10.712   9.525   9.867 -0.1488  0.0340  0.4264
  970MOL0     O27916  10.597   9.599   9.840 -0.0406  0.0652 -0.4958
  970MOL0     C27917  10.602   9.736   9.803 -0.6183  0.7961  0.5455
  970MOL0     C27918  10.462   9.793   9.833 -0.3676 -0.1356  0.0685
  970MOL0     C27919  10.348   9.724   9.749 -1.4804 -0.0457 -1.1497
  970MOL0     C27920  10.203   9.773   9.772  0.1496 -0.0071  0.1969
  970MOL0     C27921  10.124   9.799   9.642 -0.3468 -0.1831  0.4918
  970MOL0     C27922  10.183   9.903   9.554  0.5918  1.0809  0.2577
  970MOL0     C27923  10.099  10.038   9.566  0.1737  0.0637 -0.0661
  970MOL0     C27924  10.129  10.128   9.687  0.0135 -0.4228 -0.2453
  970MOL0     N27925  10.012  10.188   9.750  0.3042  0.0452  0.1702
  970MOL0     C27926   9.903  10.119   9.805  0.8832 -1.4979  0.5185
  970MOL0     C27927   9.809  10.218   9.838 -0.4102 -0.1648 -0.4297
  970MOL0     C27928   9.684  10.205   9.927  0.4630  0.1750 -0.4632
  970MOL0     C27929   9.576  10.124   9.868  1.2313  0.3785  0.4233
  970MOL0     C27930   9.487  10.067   9.983 -0.5087  0.8438 -0.0924
  970MOL0     C27931   9.341  10.030   9.945  0.1139 -0.6532  0.7764
  970MOL0     O27932   9.347   9.941   9.839 -0.1980  0.0989 -0.6720
  970MOL0     C27933   9.260   9.834   9.828 -1.1284  0.3188 -0.2034
  970MOL0     C27934   9.142   9.826   9.896  0.0714  0.1458  0.4571
  970MOL0     C27935   9.056   9.714   9.898 -0.1506  0.5313 -0.7104
  970MOL0     C27936   9.086   9.602   9.815 -0.3476  0.4277 -0.0708
  970MOL0     C27937   9.012   9.476   9.807 -0.6419 -0.1324 -0.6788
  970MOL0     O27938   8.902   9.459   9.880  0.3457 -0.7688 -0.2088
  970MOL0     C27939   8.816   9.361   9.849 -0.2790  0.2613  0.0848
  970MOL0     C27940   8.761   9.331   9.720  0.5549  0.9645  0.0578
  970MOL0     C27941   8.653   9.236   9.702  0.2562  0.0895 -0.3705
  970MOL0     C27942   8.610   9.165   9.813  0.3344 -0.9262 -0.3465
  970MOL0     O27943   8.515   9.075   9.778 -1.0020 -0.4683  0.2209
  970MOL0     C27944   8.508   8.961   9.863  0.8746 -0.4891  0.6081
  970MOL0     C27945   8.377   8.973   9.942 -0.5776  0.1774  0.8687
  970MOL0     C27946   8.250   8.967   9.853  0.0189 -0.3002 -0.0874
  970MOL0     C27947   8.132   9.033   9.915 -0.2890  0.7436  0.7641
  970MOL0     C27948   7.994   8.977   9.881 -0.8072  0.1033  0.4953
  970MOL0     C27949   7.962   8.995   9.727  0.1777 -0.0133  0.0438
  970MOL0     C27950   7.834   8.918   9.689 -0.1947  0.2619 -0.3158
  970MOL0     C27951   7.719   8.988   9.771 -0.1212  0.1645  0.4916
  970MOL0    Cl27952   7.703   9.167   9.734 -0.1338 -0.1423 -0.3456
  970MOL0     C27953   8.661   9.196   9.943  0.6645  0.3735  0.7150
  970MOL0     C27954   8.772   9.284   9.961 -0.2971 -0.2917  0.0867
  970MOL0     O27955   9.067   9.386   9.742 -1.0322  0.1348  0.4198
  970MOL0     C27956   9.207   9.616   9.733  0.1607  0.4508  0.1015
  970MOL0     C27957   9.290   9.724   9.746 -0.0840 -0.6849  0.1278
  970MOL0     N27958   9.867  10.351   9.814 -0.2524 -0.1194 -0.2538
  970MOL0     N27959   9.988  10.321   9.768 -0.2275  0.0477  0.0978
  970MOL0     C27960  10.703   9.439   9.977  0.3171 -0.1237 -0.6590
  970MOL0     C27961  10.815   9.367  10.027  0.1194 -0.0164 -0.2268
  970MOL0     C27962  11.217   9.195  10.149 -0.1763  0.1752  1.1456
  970MOL0     C27963  11.306   9.190  10.041  0.3018 -0.6193  0.4384
  970MOL0     C27964  11.434   9.139  10.056  0.0333  0.3873 -0.5192
  970MOL0     C27965  11.475   9.086  10.186  0.6909 -0.1035 -0.3225
  970MOL0     O27966  11.594   9.025  10.201  0.9807 -0.1286  0.0434
  970MOL0     C27967  11.703   9.067  10.120 -0.0563  0.0815  1.1446
  970MOL0     C27968  11.731   8.950  10.028  0.3613  0.0472  0.6331
  970MOL0     C27969  11.864   8.974   9.947  0.0765  0.1369  0.0954
  970MOL0     C27970  11.832   8.943   9.801 -0.4110 -0.2700  0.0541
  970MOL0     C27971  11.955   8.987   9.714 -0.3375 -0.6019  0.1350
  970MOL0     C27972  12.038   9.030   9.640  0.2471  0.0334  0.2165
  970MOL0     C27973  11.386   9.103  10.295  0.2716  0.8662  0.2005
  970MOL0     C27974  11.258   9.162  10.275 -0.5404  0.4419  0.2198
  970MOL0     H27975  11.047   9.453   9.810  1.8259 -0.5622  4.3787
  970MOL0     H27976  10.852   9.604   9.724  0.6578 -1.0868 -0.2357
  970MOL0     H27977  10.630   9.756   9.699  0.3758 -0.3892  0.5709
  970MOL0     H27978  10.672   9.795   9.863 -1.8768  2.0437  0.8450
  970MOL0     H27979  10.456   9.901   9.815 -0.4972 -0.3053 -0.9717
  970MOL0     H27980  10.445   9.772   9.939  1.5055  0.7695  0.5783
  970MOL0     H27981  10.351   9.622   9.786  2.4402  0.6459  0.9549
  970MOL0     H27982  10.372   9.704   9.644 -1.7006 -0.9740 -1.0293
  970MOL0     H27983  10.143   9.695   9.820 -0.6960  1.3564  1.4300
  970MOL0     H27984  10.208   9.862   9.836 -0.1586  0.5075 -0.4825
  970MOL0     H27985  10.019   9.826   9.660  0.2913  1.5414  1.9450
  970MOL0     H27986  10.118   9.707   9.584 -3.1757 -0.6357  1.3194
  970MOL0     H27987  10.188   9.873   9.449  1.8930  1.4166  0.2093
  970MOL0     H27988  10.285   9.920   9.589  1.4008 -1.3651 -0.7007
  970MOL0     H27989  10.123  10.088   9.472  0.4412 -2.3518 -1.3741
  970MOL0     H27990   9.996  10.002   9.557  0.6622 -1.7061  0.8437
  970MOL0     H27991  10.197  10.205   9.649  0.0378 -1.1052 -1.6916
  970MOL0     H27992  10.179  10.079   9.771  0.2249 -0.2718 -0.2829
  970MOL0     H27993   9.896  10.015   9.835  2.3372 -0.9229  3.1399
  970MOL0     H27994   9.657  10.303   9.967 -0.3447 -0.3891  0.4009
  970MOL0     H27995   9.717  10.142  10.010  0.4948 -1.5859 -1.7459
  970MOL0     H27996   9.617  10.036   9.817  1.0208 -0.7164  2.0767
  970MOL0     H27997   9.520  10.184   9.796 -0.1411 -1.0932  0.2315
  970MOL0     H27998   9.539   9.983  10.031 -0.7848  2.0565  2.4876
  970MOL0     H27999   9.479  10.141  10.063 -2.4669  1.4040 -0.7462
  970MOL0     H28000   9.282  10.117   9.913 -1.3075 -1.8930 -0.0894
  970MOL0     H28001   9.288   9.999  10.035  0.6911 -0.8611  1.0488
  970MOL0     H28002   9.098   9.914   9.943 -1.0720  0.6669 -1.4730
  970MOL0     H28003   8.976   9.703   9.970  1.7586  1.1523  1.6533
  970MOL0     H28004   8.804   9.385   9.636  3.9988 -2.4825 -0.6931
  970MOL0     H28005   8.602   9.209   9.609 -1.2113  0.2783  0.3533
  970MOL0     H28006   8.587   8.949   9.937  0.7304 -0.8916  0.7022
  970MOL0     H28007   8.509   8.871   9.800 -3.6278  0.2252 -0.8573
  970MOL0     H28008   8.376   9.070   9.993 -0.3623 -0.8006  2.8478
  970MOL0     H28009   8.368   8.895  10.019  2.6671 -0.8936  0.3055
  970MOL0     H28010   8.231   8.860   9.841  0.8233 -0.3314 -1.3157
  970MOL0     H28011   8.265   9.016   9.756 -2.9231 -1.6152 -1.3166
  970MOL0     H28012   8.137   8.994  10.017  2.5378  1.9677  1.1816
  970MOL0     H28013   8.147   9.141   9.920  1.2055  0.4879  3.7693
  970MOL0     H28014   7.930   9.037   9.947  1.9355  1.1575  2.3726
  970MOL0     H28015   7.985   8.869   9.891 -3.0896 -0.1164 -2.3868
  970MOL0     H28016   8.039   8.953   9.661 -1.6189  0.8346 -2.7757
  970MOL0     H28017   7.952   9.098   9.692 -1.0821 -0.4195 -0.8512
  970MOL0     H28018   7.818   8.934   9.582 -1.0395 -4.2138 -1.0321
  970MOL0     H28019   7.833   8.812   9.715 -5.4749 -0.3132 -1.7199
  970MOL0     H28020   7.735   8.969   9.877  1.0691  0.4264  0.3723
  970MOL0     H28021   7.627   8.932   9.751  0.6569 -1.0991  0.3172
  970MOL0     H28022   8.619   9.145  10.029  2.2498  2.7129  3.0129
  970MOL0     H28023   8.820   9.298  10.057 -2.2334  0.9543  0.9381
  970MOL0     H28024   9.238   9.547   9.655 -0.2846  0.0975  0.2300
  970MOL0     H28025   9.377   9.736   9.683  0.6592  0.7368  1.3640
  970MOL0     H28026  10.608   9.440  10.029 -0.3198 -4.2924 -1.3796
  970MOL0     H28027  10.808   9.299  10.112 -1.2133  0.4523  0.0632
  970MOL0     H28028  11.270   9.226   9.946 -1.1627  0.5965  1.4112
  970MOL0     H28029  11.501   9.123   9.972  0.2239 -2.0947  0.0211
  970MOL0     H28030  11.791   9.076  10.184 -0.1082  1.5898  1.0388
  970MOL0     H28031  11.688   9.162  10.069  1.6038  0.2046  0.8300
  970MOL0     H28032  11.742   8.855  10.081 -1.8380  0.0419  1.1540
  970MOL0     H28033  11.650   8.921   9.960  1.0414  0.0059 -0.1934
  970MOL0     H28034  11.950   8.913   9.973  0.4203  0.1517 -0.9499
  970MOL0     H28035  11.899   9.078   9.951  0.1441  0.0993  0.4960
  970MOL0     H28036  11.811   8.836   9.789 -1.3844  0.0668 -1.4448
  970MOL0     H28037  11.747   9.008   9.780 -0.8278 -0.4852  1.0012
  970MOL0     H28038  12.119   9.057   9.575  2.0263  0.7424  2.5813
  970MOL0     H28039  11.431   9.066  10.387  1.8721 -0.3504 -1.0157
  970MOL0     H28040  11.194   9.173  10.362 -0.3076 -4.2954  1.2085
  971MOL0     O28041   2.865   9.183  10.824  0.1057 -0.3011  0.6989
  971MOL0     C28042   2.931   9.267  10.889 -0.4855 -0.1668  0.3016
  971MOL0     O28043   2.875   9.368  10.960  0.5668  0.3636 -0.2158
  971MOL0     C28044   2.746   9.382  10.946 -0.0476 -0.7688  0.2345
  971MOL0     C28045   2.694   9.494  10.872  0.6819 -0.3661 -0.5567
  971MOL0     C28046   2.550   9.511  10.843 -0.4088  0.5967  0.9910
  971MOL0     C28047   2.473   9.416  10.897  0.0374  0.1696 -0.4804
  971MOL0     O28048   2.331   9.425  10.884 -0.1099 -1.2637  0.1182
  971MOL0     C28049   2.277   9.370  10.758  0.1357  0.3187 -0.5115
  971MOL0     C28050   2.123   9.401  10.757  0.3224 -0.3393 -0.2596
  971MOL0     C28051   2.058   9.340  10.637  0.5132 -0.0794 -0.6806
  971MOL0     C28052   2.116   9.399  10.500  0.2480  0.1416 -1.4935
  971MOL0     C28053   2.017   9.414  10.373 -0.1591  0.3867 -0.2344
  971MOL0     C28054   1.902   9.504  10.411 -0.2883 -0.4793 -1.0925
  971MOL0     C28055   1.817   9.533  10.288  0.2454 -1.3720 -0.4110
  971MOL0     C28056   1.716   9.645  10.295  0.0777  0.8086  0.0543
  971MOL0     N28057   1.774   9.768  10.338  0.1431  1.2647  0.0990
  971MOL0     C28058   1.851   9.853  10.267 -0.1172 -0.4928  0.2633
  971MOL0     C28059   1.861   9.967  10.342  0.3852 -0.1168  0.0227
  971MOL0     C28060   1.932  10.091  10.280  1.2773  0.6593 -1.6246
  971MOL0     C28061   1.947  10.205  10.377 -0.1178 -0.3821 -0.0706
  971MOL0     C28062   1.971  10.337  10.313  0.2890 -0.0113  0.5087
  971MOL0     C28063   2.104  10.363  10.241  0.0700 -0.9964 -0.4968
  971MOL0     O28064   2.193  10.356  10.343  0.1263 -0.0159 -0.8959
  971MOL0     C28065   2.325  10.326  10.317 -0.4789  0.2153  0.7006
  971MOL0     C28066   2.402  10.283  10.427 -0.0568 -0.1385  1.4173
  971MOL0     C28067   2.532  10.246  10.401  0.5709  0.6593 -0.4348
  971MOL0     C28068   2.590  10.238  10.272 -0.4736  0.3499  0.6715
  971MOL0     C28069   2.720  10.173  10.239 -0.7820 -0.1019 -0.2202
  971MOL0     O28070   2.771  10.095  10.338  0.3271 -0.7836 -0.2273
  971MOL0     C28071   2.892  10.034  10.314 -0.5533  0.0360  0.2287
  971MOL0     C28072   3.015  10.104  10.335  0.1981 -0.5834 -0.2777
  971MOL0     C28073   3.140  10.047  10.292  0.1720 -0.4261  0.3732
  971MOL0     C28074   3.144   9.920  10.230  1.3679  0.2596  0.0049
  971MOL0     O28075   3.270   9.854  10.204  0.1285 -0.0995  0.1326
  971MOL0     C28076   3.274   9.726  10.126  0.4789 -0.1137 -0.5059
  971MOL0     C28077   3.416   9.672  10.091 -0.3426 -0.4263  0.2663
  971MOL0     C28078   3.526   9.780  10.080  0.1956 -0.2080  0.4606
  971MOL0     C28079   3.664   9.714  10.053  0.0206 -0.3757 -0.2905
  971MOL0     C28080   3.741   9.816   9.967  0.9641  0.2989 -0.6124
  971MOL0     C28081   3.878   9.794   9.929  0.5524 -0.4646 -0.1882
  971MOL0     C28082   3.938   9.900   9.840  0.1227  0.4363  0.6668
  971MOL0     C28083   3.958  10.046   9.891  0.5994  0.8487 -0.3171
  971MOL0    Cl28084   4.068  10.143   9.787  0.6933 -0.3746  0.0955
  971MOL0     C28085   3.012   9.851  10.214  0.0276  0.2350 -0.1998
  971MOL0     C28086   2.891   9.908  10.252  0.2103 -0.0333  0.0063
  971MOL0     O28087   2.769  10.197  10.132  0.3208  0.8454 -0.0262
  971MOL0     C28088   2.515  10.297  10.173  0.7178  0.4009  0.5034
  971MOL0     C28089   2.386  10.337  10.192  1.1809  0.0613 -0.1163
  971MOL0     N28090   1.809   9.949  10.464  0.3408  1.4644 -0.3003
  971MOL0     N28091   1.751   9.829  10.462 -1.0267 -0.4851 -0.1019
  971MOL0     C28092   2.519   9.309  10.985 -0.0630 -0.0706  0.0121
  971MOL0     C28093   2.653   9.293  11.004  0.9382  0.1191  0.4539
  971MOL0     C28094   3.078   9.260  10.884  0.3303 -0.1601 -0.2940
  971MOL0     C28095   3.156   9.336  10.974 -0.5531 -0.4073 -0.4716
  971MOL0     C28096   3.292   9.321  10.977  0.1645  0.7213  0.0008
  971MOL0     C28097   3.353   9.224  10.895  0.2140 -0.1080  0.4650
  971MOL0     O28098   3.483   9.188  10.909  0.5274 -0.2382  1.1449
  971MOL0     C28099   3.578   9.279  10.960 -0.2047 -0.1936 -0.3636
  971MOL0     C28100   3.707   9.211  10.940 -0.0713 -0.6127 -0.0549
  971MOL0     C28101   3.736   9.159  10.803  0.3716 -1.6546  0.4893
  971MOL0     C28102   3.878   9.124  10.778 -0.9722 -0.1280  0.8002
  971MOL0     C28103   3.907   9.057  10.653 -1.0477 -0.4830 -0.1196
  971MOL0     C28104   3.940   9.004  10.548  1.3621  0.1328 -0.1799
  971MOL0     C28105   3.278   9.148  10.809  0.5776  0.1312  0.3132
  971MOL0     C28106   3.137   9.164  10.805 -0.8619 -0.8870 -0.3022
  971MOL0     H28107   2.761   9.568  10.829  0.5553  0.1619  0.1411
  971MOL0     H28108   2.514   9.589  10.777  2.4172  1.8417  0.7867
  971MOL0     H28109   2.305   9.265  10.753  1.6244  0.6822 -0.1831
  971MOL0     H28110   2.327   9.417  10.673  2.3515  3.6214  2.2953
  971MOL0     H28111   2.099   9.508  10.754 -0.9033 -0.5883  0.0522
  971MOL0     H28112   2.078   9.365  10.850  0.7062 -1.1269 -0.3694
  971MOL0     H28113   1.949   9.347  10.647  0.5930  1.3584 -0.5756
  971MOL0     H28114   2.076   9.232  10.640 -3.1024 -0.8057  2.1397
  971MOL0     H28115   2.155   9.500  10.517  0.5300  0.1280 -2.0313
  971MOL0     H28116   2.197   9.331  10.474  1.5987  0.0317  2.4103
  971MOL0     H28117   1.974   9.316  10.349  0.3902  0.0122  0.2844
  971MOL0     H28118   2.061   9.446  10.278 -2.9302  2.5589 -0.9236
  971MOL0     H28119   1.950   9.590  10.459  2.1015 -1.8213 -0.9477
  971MOL0     H28120   1.843   9.456  10.489  1.5607 -2.0583 -0.6146
  971MOL0     H28121   1.889   9.569  10.214 -2.0243  1.3785 -1.4416
  971MOL0     H28122   1.767   9.440  10.259 -3.2497 -0.2263  1.3253
  971MOL0     H28123   1.622   9.622  10.346 -0.2520 -0.2696 -1.0123
  971MOL0     H28124   1.690   9.680  10.195 -0.4406  0.9610  0.2389
  971MOL0     H28125   1.889   9.829  10.169 -1.0370  1.9587 -0.7765
  971MOL0     H28126   1.868  10.123  10.197 -3.3573 -0.8612  0.9693
  971MOL0     H28127   2.034  10.064  10.251  2.4213  0.5772  2.0028
  971MOL0     H28128   2.009  10.177  10.462  1.5352  0.8896 -0.8049
  971MOL0     H28129   1.850  10.219  10.425 -1.9030 -2.2581 -2.8003
  971MOL0     H28130   1.895  10.350  10.235  1.2273  1.0059 -0.2581
  971MOL0     H28131   1.946  10.407  10.394 -0.6978 -1.8602  1.9040
  971MOL0     H28132   2.102  10.465  10.202 -0.2207 -1.4975 -1.8293
  971MOL0     H28133   2.123  10.294  10.159 -0.0832  0.4465 -1.7840
  971MOL0     H28134   2.385  10.293  10.534 -3.3293  0.0071  0.9867
  971MOL0     H28135   2.596  10.224  10.486 -1.8506  1.7396  1.8481
  971MOL0     H28136   3.000  10.207  10.363 -0.5007  0.0693 -2.7443
  971MOL0     H28137   3.231  10.101  10.316 -0.4700  1.4249 -1.1365
  971MOL0     H28138   3.213   9.733  10.036 -1.7984 -0.0301  0.9522
  971MOL0     H28139   3.228   9.654  10.195 -1.5542  1.8209  0.2994
  971MOL0     H28140   3.405   9.625   9.993 -0.8990 -1.2171  0.6939
  971MOL0     H28141   3.435   9.602  10.173  1.3622 -0.5735 -0.2218
  971MOL0     H28142   3.545   9.852  10.160 -1.2421 -0.0774  0.7086
  971MOL0     H28143   3.491   9.841   9.996  5.9820  0.7374 -1.7350
  971MOL0     H28144   3.703   9.699  10.154  1.0399 -3.3562 -1.0261
  971MOL0     H28145   3.661   9.615  10.007  1.9727 -0.6457  0.0630
  971MOL0     H28146   3.738   9.906  10.030 -1.3435 -1.0476  1.3820
  971MOL0     H28147   3.678   9.822   9.877 -2.2892 -1.0864  1.3795
  971MOL0     H28148   3.892   9.704   9.869  4.1890 -1.1769  1.4280
  971MOL0     H28149   3.935   9.781  10.022 -1.2886 -1.5918  0.8391
  971MOL0     H28150   4.039   9.866   9.815 -0.1854  0.4092 -0.6343
  971MOL0     H28151   3.882   9.907   9.746  4.4871  0.6163 -2.1871
  971MOL0     H28152   4.003  10.023   9.988 -2.2500 -2.8854  0.3462
  971MOL0     H28153   3.870  10.109   9.902 -0.4135 -0.5450 -0.1181
  971MOL0     H28154   3.006   9.743  10.200 -0.8210 -0.2085  2.8487
  971MOL0     H28155   2.800   9.849  10.258 -0.8149  1.1245 -2.6551
  971MOL0     H28156   2.562  10.307  10.076 -1.2229  2.3492 -0.3246
  971MOL0     H28157   2.328  10.364  10.104 -0.5221  0.1228  0.9669
  971MOL0     H28158   2.447   9.234  11.016 -0.8391 -0.4546 -2.4580
  971MOL0     H28159   2.700   9.212  11.058  0.4963  0.0710  0.7799
  971MOL0     H28160   3.093   9.405  11.028  0.1804  0.6487 -0.9189
  971MOL0     H28161   3.342   9.381  11.054  0.8117 -2.9020  2.6732
  971MOL0     H28162   3.572   9.307  11.065 -0.3807 -2.9311  0.4276
  971MOL0     H28163   3.566   9.367  10.896  0.4219 -0.2218 -0.5285
  971MOL0     H28164   3.784   9.286  10.962  0.0945 -1.3569  2.2239
  971MOL0     H28165   3.717   9.124  11.006  1.6688 -2.3325 -2.4120
  971MOL0     H28166   3.718   9.240  10.731  1.8544 -1.8067 -0.0953
  971MOL0     H28167   3.665   9.078  10.784 -1.2063 -0.4813  1.1454
  971MOL0     H28168   3.942   9.212  10.774  1.6963 -1.9800 -0.2542
  971MOL0     H28169   3.916   9.064  10.862  1.8659 -1.7018 -1.4199
  971MOL0     H28170   3.989   8.955  10.467  1.4545 -0.7239  0.3850
  971MOL0     H28171   3.321   9.062  10.759  0.9283  0.4299  0.0993
  971MOL0     H28172   3.084   9.082  10.758  1.0366 -1.7670 -1.0255
  972MOL0     O28173   1.326  10.229   9.881  0.1442 -0.2861  0.5069
  972MOL0     C28174   1.223  10.263   9.944 -0.7032 -0.9743  1.4207
  972MOL0     O28175   1.233  10.325  10.059 -0.1036  0.0005 -0.3050
  972MOL0     C28176   1.345  10.410  10.073 -0.7413 -0.0783 -0.2735
  972MOL0     C28177   1.480  10.378  10.065  0.1547 -0.4762  0.0467
  972MOL0     C28178   1.573  10.484  10.067 -0.1112 -0.1993 -0.7038
  972MOL0     C28179   1.532  10.621  10.090  0.7569  0.3061  0.2465
  972MOL0     O28180   1.627  10.716  10.095  0.0268 -0.4527 -0.1803
  972MOL0     C28181   1.683  10.757   9.969  0.5341 -0.0782 -0.2199
  972MOL0     C28182   1.766  10.880   9.998  0.0388  0.8404 -1.1222
  972MOL0     C28183   1.834  10.944   9.874  0.2824  0.5930  0.6576
  972MOL0     C28184   1.908  11.083   9.920  0.2950  0.4450 -0.1012
  972MOL0     C28185   1.850  11.206   9.849 -0.1957  0.1005  0.7122
  972MOL0     C28186   1.898  11.198   9.699 -0.5335 -0.2906 -1.0234
  972MOL0     C28187   1.817  11.315   9.637  0.2041  0.1624 -0.1083
  972MOL0     C28188   1.848  11.329   9.484 -0.8369  0.2984  0.6236
  972MOL0     N28189   1.977  11.403   9.443 -0.1089  1.2200  0.6757
  972MOL0     C28190   2.097  11.419   9.511 -0.1042  0.0933  0.5185
  972MOL0     C28191   2.181  11.489   9.435  0.1038  0.0372 -0.0113
  972MOL0     C28192   2.315  11.531   9.491 -0.3913 -0.4235  0.5097
  972MOL0     C28193   2.417  11.433   9.458 -1.6082 -0.1708  0.5323
  972MOL0     C28194   2.390  11.297   9.528  0.4365 -0.2380  0.4080
  972MOL0     C28195   2.518  11.219   9.561  0.0714 -0.0756  0.0519
  972MOL0     O28196   2.572  11.271   9.689  0.0272  0.4089  0.6919
  972MOL0     C28197   2.698  11.255   9.726 -0.1212 -1.3167  0.3563
  972MOL0     C28198   2.762  11.371   9.769 -0.5339  0.2457 -0.0512
  972MOL0     C28199   2.901  11.365   9.791  0.4872 -0.0776 -0.6506
  972MOL0     C28200   2.967  11.242   9.784  0.5690  0.5976  0.7891
  972MOL0     C28201   3.116  11.243   9.793 -0.6252  0.1117 -1.2764
  972MOL0     O28202   3.179  11.359   9.790  1.0501 -0.2641  0.0626
  972MOL0     C28203   3.310  11.374   9.825  1.4994 -0.4668  0.2663
  972MOL0     C28204   3.397  11.432   9.731 -0.3044  0.0686 -0.0534
  972MOL0     C28205   3.531  11.461   9.768 -0.1271 -0.8749  0.2717
  972MOL0     C28206   3.580  11.443   9.895  0.6116 -0.1830  0.1699
  972MOL0     O28207   3.713  11.472   9.918 -0.0299 -0.0030 -0.4551
  972MOL0     C28208   3.770  11.441  10.048  0.0251  0.2359 -0.4887
  972MOL0     C28209   3.916  11.485  10.069 -0.2871 -0.7830  0.0293
  972MOL0     C28210   4.011  11.392  10.002 -0.5066 -0.5800  0.2426
  972MOL0     C28211   4.159  11.415  10.027 -1.1219  0.4812  0.3987
  972MOL0     C28212   4.190  11.375  10.170  0.2755  0.0070  0.0816
  972MOL0     C28213   4.350  11.369  10.201 -0.2488  0.1477 -0.3053
  972MOL0     C28214   4.389  11.291  10.324  1.2786 -0.6021  0.7131
  972MOL0     C28215   4.481  11.382  10.395  0.3329  0.5226  0.0211
  972MOL0    Cl28216   4.403  11.526  10.462 -0.0365  0.3488  0.1683
  972MOL0     C28217   3.487  11.410   9.992  0.1720 -0.2141  0.0178
  972MOL0     C28218   3.352  11.371   9.956 -0.0588  0.0697 -1.2573
  972MOL0     O28219   3.171  11.135   9.821 -0.0924  0.2036 -0.5622
  972MOL0     C28220   2.907  11.121   9.751  0.8396 -0.2780  0.9717
  972MOL0     C28221   2.771  11.133   9.715 -0.2758 -0.0117 -1.3269
  972MOL0     N28222   2.107  11.516   9.315  0.2468 -0.1500 -0.3100
  972MOL0     N28223   1.995  11.456   9.323  0.5041  0.2611  1.6602
  972MOL0     C28224   1.394  10.645  10.098 -0.8393  0.3371 -0.7302
  972MOL0     C28225   1.301  10.537  10.090 -0.1446  0.3205 -0.0004
  972MOL0     C28226   1.099  10.217   9.903 -0.5155 -0.4436  0.5876
  972MOL0     C28227   1.090  10.138   9.779  0.3909  0.0532  0.0717
  972MOL0     C28228   0.962  10.117   9.721 -0.4737  0.0390 -0.0310
  972MOL0     C28229   0.844  10.149   9.785  0.8447 -0.3639 -0.4510
  972MOL0     O28230   0.714  10.106   9.753 -0.0165  0.5089 -0.4740
  972MOL0     C28231   0.691   9.988   9.672  0.3413  0.7400 -0.8442
  972MOL0     C28232   0.665  10.006   9.523  0.0495 -0.1036 -0.7955
  972MOL0     C28233   0.564  10.130   9.503 -0.3100  0.3341  0.0866
  972MOL0     C28234   0.491  10.120   9.370  0.3324 -1.1544 -0.0386
  972MOL0     C28235   0.395  10.013   9.370  0.9087 -0.8541 -0.5525
  972MOL0     C28236   0.295   9.943   9.384  0.3868  0.0289 -0.2852
  972MOL0     C28237   0.853  10.210   9.911  0.2821  0.0481  0.1255
  972MOL0     C28238   0.976  10.252   9.963 -1.1705  0.8772 -0.7700
  972MOL0     H28239   1.520  10.278  10.061  0.9966 -0.1086 -1.1895
  972MOL0     H28240   1.677  10.458  10.053  0.1092  0.5278 -0.4399
  972MOL0     H28241   1.601  10.767   9.897 -2.8033 -0.0907  3.2681
  972MOL0     H28242   1.745  10.677   9.927 -0.7812 -1.2747  0.0476
  972MOL0     H28243   1.836  10.846  10.075 -1.4148  0.9348  0.2805
  972MOL0     H28244   1.705  10.960  10.042  0.2444  1.4074 -1.8425
  972MOL0     H28245   1.750  10.940   9.803 -2.9218 -0.6246  4.1398
  972MOL0     H28246   1.894  10.865   9.829  0.8883  0.9473  0.8226
  972MOL0     H28247   1.885  11.101  10.025  2.2028 -0.8902  0.5853
  972MOL0     H28248   2.017  11.079   9.920  0.3872 -0.7647  3.6208
  972MOL0     H28249   1.889  11.291   9.906 -1.0623  1.4438 -0.6371
  972MOL0     H28250   1.741  11.204   9.858 -0.2848  1.2226  0.0870
  972MOL0     H28251   1.876  11.102   9.651 -1.0926 -0.6929  0.0041
  972MOL0     H28252   2.005  11.217   9.687 -0.4868  0.3315  0.2366
  972MOL0     H28253   1.709  11.297   9.643  0.0787 -0.1114 -2.2960
  972MOL0     H28254   1.830  11.412   9.685 -1.5437  0.8306 -0.9135
  972MOL0     H28255   1.771  11.393   9.441 -0.1960  0.7171  0.0743
  972MOL0     H28256   1.838  11.229   9.440 -0.5436 -0.4996  2.2737
  972MOL0     H28257   2.117  11.386   9.613 -0.2817 -1.2335  0.1472
  972MOL0     H28258   2.302  11.537   9.599  0.5765  1.0858  0.5604
  972MOL0     H28259   2.346  11.630   9.459 -2.8388  0.8897  1.9083
  972MOL0     H28260   2.519  11.472   9.470 -1.4851 -0.2321 -0.2433
  972MOL0     H28261   2.420  11.405   9.352  0.9168 -0.5498  0.6346
  972MOL0     H28262   2.332  11.311   9.621  1.2543 -0.6850  0.9991
  972MOL0     H28263   2.321  11.240   9.465 -0.3988  1.0612  0.1131
  972MOL0     H28264   2.586  11.228   9.476 -0.6313 -0.3969 -0.5535
  972MOL0     H28265   2.499  11.113   9.577  1.6385 -0.7481 -1.9716
  972MOL0     H28266   2.710  11.467   9.766 -1.0978 -0.0734 -0.6892
  972MOL0     H28267   2.946  11.460   9.817 -1.3660  1.1125 -1.5381
  972MOL0     H28268   3.358  11.449   9.631  1.0324 -1.4404 -0.8860
  972MOL0     H28269   3.588  11.507   9.688 -1.5409 -0.7324 -0.6909
  972MOL0     H28270   3.764  11.332  10.056 -1.5377  0.4426  2.0897
  972MOL0     H28271   3.709  11.492  10.123 -2.2427 -1.4044 -1.1212
  972MOL0     H28272   3.951  11.498  10.171  0.7493 -4.4680  0.2670
  972MOL0     H28273   3.927  11.576  10.008 -3.4795 -2.3646 -3.2965
  972MOL0     H28274   3.986  11.411   9.897 -0.2028 -0.1385  0.2464
  972MOL0     H28275   3.983  11.289  10.022  1.3181 -1.5442 -1.7304
  972MOL0     H28276   4.220  11.353   9.960  0.7618  0.6141  1.9043
  972MOL0     H28277   4.177  11.520  10.003 -1.4079  0.1099 -1.6460
  972MOL0     H28278   4.140  11.279  10.184 -3.1778  1.5207 -0.8099
  972MOL0     H28279   4.141  11.447  10.237  0.5942  2.7839 -2.4644
  972MOL0     H28280   4.388  11.472  10.200  1.6975 -0.4221  2.7156
  972MOL0     H28281   4.399  11.317  10.118  1.2445 -1.0911  1.2692
  972MOL0     H28282   4.293  11.282  10.375  0.5305  5.7911  1.2051
  972MOL0     H28283   4.424  11.190  10.300  2.5322 -1.0815  4.0332
  972MOL0     H28284   4.548  11.421  10.318 -0.1347 -1.3731 -1.4048
  972MOL0     H28285   4.548  11.331  10.466  1.2854 -0.6438 -1.6446
  972MOL0     H28286   3.519  11.412  10.096 -1.7597  0.9629  0.6484
  972MOL0     H28287   3.276  11.334  10.023 -1.2086  4.0244 -0.0642
  972MOL0     H28288   2.962  11.029   9.738 -0.3989 -0.6585 -2.7365
  972MOL0     H28289   2.727  11.041   9.680 -1.5552 -0.1325  0.4525
  972MOL0     H28290   1.366  10.748  10.115 -3.8916 -0.7182  1.3130
  972MOL0     H28291   1.193  10.550  10.096 -0.5051 -0.8029 -2.5698
  972MOL0     H28292   1.187  10.110   9.738  0.6841  4.6755 -3.2234
  972MOL0     H28293   0.954  10.060   9.629  0.7492 -0.4566  0.1524
  972MOL0     H28294   0.600   9.938   9.706  0.9176  0.7128  0.7449
  972MOL0     H28295   0.776   9.920   9.683  0.3474  0.7540 -0.8030
  972MOL0     H28296   0.760  10.038   9.480  0.9866  0.7645  1.7811
  972MOL0     H28297   0.630   9.915   9.473  2.4118 -2.2065  1.1633
  972MOL0     H28298   0.623  10.222   9.497  1.6832 -0.8675  0.3204
  972MOL0     H28299   0.491  10.144   9.583 -1.6417 -1.3172 -0.7685
  972MOL0     H28300   0.450  10.217   9.337 -0.3010 -1.6059 -0.6003
  972MOL0     H28301   0.555  10.098   9.284 -2.3907 -2.6169 -1.8413
  972MOL0     H28302   0.204   9.888   9.398  0.3357  0.3538  0.7945
  972MOL0     H28303   0.763  10.208   9.971 -0.5682  2.5783 -0.9362
  972MOL0     H28304   0.973  10.307  10.057 -0.3290 -1.4386  0.6940
  973MOL0     O28305   1.980   0.219   3.807  0.7347 -0.1254  0.2669
  973MOL0     C28306   2.018   0.322   3.856  0.4706  0.1680 -0.2357
  973MOL0     O28307   1.976   0.446   3.825  0.1186  0.0722 -0.4131
  973MOL0     C28308   1.887   0.455   3.725 -0.2556 -0.4386  0.1573
  973MOL0     C28309   1.915   0.418   3.596 -0.3101 -0.6452 -0.6336
  973MOL0     C28310   1.817   0.423   3.495 -0.0588 -0.6336 -0.2596
  973MOL0     C28311   1.686   0.458   3.527  0.7266 -0.1219  0.0112
  973MOL0     O28312   1.587   0.427   3.443 -0.8568 -0.3041 -0.1822
  973MOL0     C28313   1.565   0.286   3.419 -0.3131  0.1926 -0.3745
  973MOL0     C28314   1.421   0.281   3.367  0.4787 -0.8020  0.6129
  973MOL0     C28315   1.360   0.142   3.347  0.5805 -0.9789 -0.5138
  973MOL0     C28316   1.307   0.081   3.487  0.5295 -0.3117 -0.0506
  973MOL0     C28317   1.237  -0.047   3.472  0.3260 -0.0003  0.2084
  973MOL0     C28318   1.097  -0.030   3.404  0.2502 -0.0421 -0.7026
  973MOL0     C28319   0.988   0.057   3.479  0.5643  0.5574 -0.1272
  973MOL0     C28320   0.949   0.019   3.618 -0.0666 -0.7962  0.1983
  973MOL0     N28321   0.850   0.116   3.661 -0.1129  0.9567  0.6157
  973MOL0     C28322   0.743   0.079   3.734  1.0029  0.8073 -0.3587
  973MOL0     C28323   0.681   0.192   3.774  1.0859  0.1916  0.4496
  973MOL0     C28324   0.557   0.213   3.864  0.5028  0.9082 -0.0990
  973MOL0     C28325   0.428   0.179   3.781 -0.5874  0.4050 -0.5020
  973MOL0     C28326   0.394   0.269   3.662 -0.0699  1.2576 -0.6200
  973MOL0     C28327   0.404   0.417   3.692 -0.3648  0.7662 -0.3372
  973MOL0     O28328   0.365   0.488   3.573  0.0526  0.6802  0.1676
  973MOL0     C28329   0.458   0.498   3.467 -0.2465 -0.0955 -0.0075
  973MOL0     C28330   0.594   0.472   3.474 -0.0411  0.5239 -0.6772
  973MOL0     C28331   0.685   0.470   3.361  0.6430 -0.0126  0.2756
  973MOL0     C28332   0.627   0.497   3.232  0.3919  0.0792 -0.4699
  973MOL0     C28333   0.715   0.484   3.120 -1.0022 -0.6952 -0.6458
  973MOL0     O28334   0.859   0.477   3.138  0.1045 -0.1881  0.0901
  973MOL0     C28335   0.945   0.476   3.033 -0.6079 -0.3472  0.7533
  973MOL0     C28336   1.053   0.383   3.035  0.4493 -0.0359 -0.5160
  973MOL0     C28337   1.137   0.376   2.937  0.7572 -0.5334 -0.2509
  973MOL0     C28338   1.130   0.461   2.819  0.6112  0.0547  0.0538
  973MOL0     O28339   1.218   0.465   2.709  0.5722 -0.0326 -1.3016
  973MOL0     C28340   1.333   0.382   2.712 -0.3814 -0.3292  0.5082
  973MOL0     C28341   1.409   0.373   2.576 -0.1148 -0.4836  0.6637
  973MOL0     C28342   1.520   0.482   2.572  0.1957 -0.0145 -0.4460
  973MOL0     C28343   1.595   0.487   2.435  1.0195  0.4127  0.1677
  973MOL0     C28344   1.719   0.580   2.457  0.9438 -0.4733  0.2013
  973MOL0     C28345   1.848   0.492   2.462 -0.3995 -0.0879  0.2170
  973MOL0     C28346   1.967   0.556   2.537 -0.8012 -0.5465 -0.2139
  973MOL0     C28347   2.115   0.509   2.493 -0.1371 -0.3589 -0.2986
  973MOL0    Cl28348   2.147   0.545   2.319  0.0520  0.1276 -0.0831
  973MOL0     C28349   1.021   0.548   2.813 -0.5965 -0.9183 -1.1250
  973MOL0     C28350   0.931   0.561   2.918  0.6382  0.6117 -0.0684
  973MOL0     O28351   0.659   0.478   3.014 -0.8072  0.6656 -0.3573
  973MOL0     C28352   0.484   0.523   3.225  0.1039 -0.6739  0.5879
  973MOL0     C28353   0.408   0.532   3.341  0.4383 -0.4195 -0.5082
  973MOL0     N28354   0.767   0.295   3.734  0.3379 -0.3057 -0.2860
  973MOL0     N28355   0.867   0.253   3.663  0.3466  0.6392 -0.0079
  973MOL0     C28356   1.656   0.488   3.660  0.1463 -0.9834  0.5993
  973MOL0     C28357   1.760   0.503   3.753  0.9607 -0.1853  0.4540
  973MOL0     C28358   2.119   0.320   3.962  0.1431 -0.6676 -0.2269
  973MOL0     C28359   2.200   0.430   3.990  0.2717 -0.8399  0.4537
  973MOL0     C28360   2.300   0.427   4.081 -0.6320  0.0843 -0.2242
  973MOL0     C28361   2.325   0.313   4.161  0.5256  0.0974  0.6426
  973MOL0     O28362   2.426   0.294   4.252  0.4747  0.0144 -0.4638
  973MOL0     C28363   2.552   0.329   4.199 -0.1338  0.3423 -0.4161
  973MOL0     C28364   2.659   0.250   4.282 -0.6330  0.1806 -0.4137
  973MOL0     C28365   2.797   0.265   4.220  0.2977 -0.1441 -0.3515
  973MOL0     C28366   2.887   0.382   4.270  0.7378 -0.3918  0.9808
  973MOL0     C28367   2.846   0.523   4.238 -0.0988  0.4539 -0.6831
  973MOL0     C28368   2.807   0.636   4.215 -0.2546  0.5257 -0.2973
  973MOL0     C28369   2.244   0.202   4.133  0.1899 -0.0036 -0.8317
  973MOL0     C28370   2.144   0.209   4.036 -0.4735  0.7196 -0.1888
  973MOL0     H28371   2.015   0.384   3.569 -0.2456 -1.1572  0.2140
  973MOL0     H28372   1.850   0.391   3.397  3.6634  2.1776 -0.1500
  973MOL0     H28373   1.577   0.232   3.514 -0.7393  1.0134  0.1560
  973MOL0     H28374   1.634   0.242   3.347 -0.0863  0.4184 -0.2967
  973MOL0     H28375   1.410   0.331   3.270  2.7039 -0.4652  0.4800
  973MOL0     H28376   1.346   0.330   3.429 -1.9711  0.4371 -2.9954
  973MOL0     H28377   1.447   0.081   3.322  1.5059  0.4251 -0.8620
  973MOL0     H28378   1.289   0.143   3.264 -0.7751  1.9662  0.5327
  973MOL0     H28379   1.397   0.069   3.547  1.2241  0.1262 -0.9844
  973MOL0     H28380   1.234   0.148   3.534  1.3181  1.9099 -1.8303
  973MOL0     H28381   1.241  -0.102   3.567  3.8948 -1.9690 -0.8806
  973MOL0     H28382   1.290  -0.106   3.397 -0.8783  1.7546 -2.1526
  973MOL0     H28383   1.051  -0.126   3.378 -0.1576 -1.0090  3.0049
  973MOL0     H28384   1.107   0.028   3.312 -1.8408  1.9089  0.1993
  973MOL0     H28385   1.024   0.161   3.472  0.4077  0.5917 -0.4410
  973MOL0     H28386   0.908   0.038   3.407  0.2691 -0.3375  0.4196
  973MOL0     H28387   1.032   0.013   3.690  0.1980  1.3290  0.1349
  973MOL0     H28388   0.909  -0.083   3.617  2.1910 -1.7356 -1.1985
  973MOL0     H28389   0.710  -0.024   3.734  2.0227  0.4618 -0.7322
  973MOL0     H28390   0.557   0.319   3.890 -3.0666  0.5579  2.0263
  973MOL0     H28391   0.564   0.158   3.958 -2.0931  0.6718  0.0471
  973MOL0     H28392   0.344   0.199   3.848  0.2266  2.5113 -0.0359
  973MOL0     H28393   0.432   0.074   3.749  1.7805  0.5771 -0.8888
  973MOL0     H28394   0.474   0.253   3.589  1.5900 -0.1358  1.3792
  973MOL0     H28395   0.296   0.242   3.623  1.4170 -2.8819 -2.1045
  973MOL0     H28396   0.505   0.441   3.726 -0.7010  0.6996  0.7565
  973MOL0     H28397   0.335   0.449   3.771 -3.3579 -1.5781 -1.7757
  973MOL0     H28398   0.651   0.444   3.562  1.4857 -1.2226 -2.1390
  973MOL0     H28399   0.790   0.452   3.382  0.8683  1.7739  0.8448
  973MOL0     H28400   1.061   0.321   3.124  1.1865 -0.5436 -0.9204
  973MOL0     H28401   1.218   0.304   2.937  1.5223  0.2644 -2.1002
  973MOL0     H28402   1.313   0.279   2.743  1.6783 -1.4611 -1.5963
  973MOL0     H28403   1.398   0.426   2.788 -1.9225  0.7913  1.2330
  973MOL0     H28404   1.338   0.378   2.493  1.3875 -2.1612 -0.8193
  973MOL0     H28405   1.458   0.275   2.568  0.3603 -0.0797 -3.3036
  973MOL0     H28406   1.587   0.450   2.652 -1.2060  1.2339  1.3212
  973MOL0     H28407   1.491   0.585   2.595 -0.8905 -0.8611  2.4180
  973MOL0     H28408   1.625   0.384   2.415 -4.4927 -1.8681  1.7437
  973MOL0     H28409   1.528   0.520   2.356  0.0939 -2.1729 -0.1940
  973MOL0     H28410   1.697   0.635   2.549 -2.5379 -1.0924 -0.1194
  973MOL0     H28411   1.724   0.660   2.383 -0.9643 -1.2249 -0.8256
  973MOL0     H28412   1.863   0.466   2.357 -0.0589  1.5354 -0.1649
  973MOL0     H28413   1.829   0.393   2.505  3.3449 -0.7790  0.6461
  973MOL0     H28414   1.966   0.663   2.515  1.0123 -1.0192 -3.1630
  973MOL0     H28415   1.953   0.534   2.643  1.2792  2.3413  0.7862
  973MOL0     H28416   2.119   0.400   2.504 -2.9477 -0.7851 -2.3586
  973MOL0     H28417   2.196   0.557   2.548 -0.6692  1.6027 -1.1310
  973MOL0     H28418   0.996   0.613   2.729 -2.1185 -1.6009 -1.2307
  973MOL0     H28419   0.837   0.610   2.896 -0.4056 -1.4154 -0.4236
  973MOL0     H28420   0.451   0.541   3.123  2.0634 -0.9141 -0.1261
  973MOL0     H28421   0.308   0.570   3.321  0.7987  1.8302  1.5455
  973MOL0     H28422   1.554   0.510   3.689 -0.1099  0.4958 -1.2081
  973MOL0     H28423   1.723   0.533   3.851  0.4135  2.9595 -0.6023
  973MOL0     H28424   2.179   0.528   3.948  1.0596 -1.1537 -0.7374
  973MOL0     H28425   2.354   0.517   4.106 -0.6633  0.0025  0.1414
  973MOL0     H28426   2.576   0.436   4.203 -1.4762  0.6402  0.7301
  973MOL0     H28427   2.567   0.300   4.095 -0.5401  2.7818 -1.2260
  973MOL0     H28428   2.666   0.288   4.385 -1.4139  2.3048 -1.0949
  973MOL0     H28429   2.636   0.144   4.270  0.3820 -0.0299 -0.5812
  973MOL0     H28430   2.781   0.274   4.112  0.4834  1.1887 -0.2835
  973MOL0     H28431   2.841   0.165   4.227 -0.0513 -0.2998 -0.3566
  973MOL0     H28432   2.885   0.380   4.380  1.5878 -0.8358  1.0007
  973MOL0     H28433   2.985   0.356   4.229 -0.7696 -2.3170 -1.7280
  973MOL0     H28434   2.763   0.733   4.208  1.3115  1.6914  3.4078
  973MOL0     H28435   2.266   0.115   4.194  5.1593  2.0493  0.8004
  973MOL0     H28436   2.087   0.120   4.010  3.6441 -1.8800 -1.3429
  974MOL0     O28437   4.135   4.133   5.939 -0.2627 -0.1460 -0.4575
  974MOL0     C28438   4.146   4.241   5.882 -0.5432  0.4022  0.2674
  974MOL0     O28439   4.264   4.301   5.843 -0.2687  0.5486  0.8320
  974MOL0     C28440   4.386   4.286   5.901  0.5006 -1.0895  0.2077
  974MOL0     C28441   4.488   4.329   5.825 -0.9236  0.1348  0.0682
  974MOL0     C28442   4.618   4.323   5.875  0.4178 -0.7296  0.0193
  974MOL0     C28443   4.638   4.294   6.009  0.2695 -0.1774  0.5210
  974MOL0     O28444   4.754   4.289   6.082 -0.1418 -0.0408 -0.3186
  974MOL0     C28445   4.871   4.343   6.028 -0.2164 -0.3019  0.3796
  974MOL0     C28446   4.977   4.356   6.130 -1.0622 -0.7080 -0.6048
  974MOL0     C28447   5.086   4.446   6.074 -0.7129  0.0251  0.2221
  974MOL0     C28448   5.198   4.464   6.178 -0.0465  0.8115 -0.4492
  974MOL0     C28449   5.257   4.602   6.161  0.8066 -0.4511 -0.2372
  974MOL0     C28450   5.373   4.613   6.259 -1.1130 -0.6807 -1.0359
  974MOL0     C28451   5.457   4.739   6.223  0.3112 -0.8686 -0.3842
  974MOL0     C28452   5.373   4.874   6.226 -0.3606 -0.1881  0.2289
  974MOL0     N28453   5.473   4.985   6.229  0.3060 -0.2691  0.0735
  974MOL0     C28454   5.538   5.031   6.346 -0.0781  0.1887  0.6332
  974MOL0     C28455   5.617   5.136   6.297 -0.5828 -0.0819  0.2455
  974MOL0     C28456   5.715   5.204   6.396  0.9143 -0.4453 -0.5218
  974MOL0     C28457   5.635   5.313   6.478 -0.1290  0.4533 -0.4759
  974MOL0     C28458   5.559   5.247   6.585  1.1017 -0.7060  1.1582
  974MOL0     C28459   5.525   5.344   6.700 -0.6048 -0.3100  0.2121
  974MOL0     O28460   5.422   5.433   6.667 -0.2941  0.5091 -0.2814
  974MOL0     C28461   5.294   5.416   6.707 -0.2719 -0.2182 -0.2049
  974MOL0     C28462   5.232   5.317   6.785  0.7158  0.3785  0.1915
  974MOL0     C28463   5.089   5.327   6.797  0.2243  0.1057 -0.4566
  974MOL0     C28464   5.018   5.427   6.727  0.0790 -0.5924  0.3494
  974MOL0     C28465   4.865   5.430   6.721  0.3889 -0.4521  0.1372
  974MOL0     O28466   4.800   5.391   6.824  0.5628  0.6584  0.3922
  974MOL0     C28467   4.662   5.409   6.843  0.2406  0.0264 -0.0039
  974MOL0     C28468   4.594   5.533   6.821  0.6358 -0.1509  0.7131
  974MOL0     C28469   4.473   5.556   6.875  0.7576  0.4184  0.8518
  974MOL0     C28470   4.404   5.456   6.947  0.5391  0.2403 -0.3721
  974MOL0     O28471   4.277   5.467   6.996  0.2914  0.3759  0.9764
  974MOL0     C28472   4.198   5.588   6.983 -0.6028  0.3636 -0.3537
  974MOL0     C28473   4.054   5.556   7.017  0.9075 -0.9581 -0.1109
  974MOL0     C28474   3.991   5.449   6.935 -0.0416 -0.3778  0.2471
  974MOL0     C28475   3.850   5.414   6.989  0.1314  0.2664 -0.5459
  974MOL0     C28476   3.770   5.314   6.905  0.9500  0.5338  0.5248
  974MOL0     C28477   3.655   5.239   6.971 -0.5665 -0.0987 -0.7776
  974MOL0     C28478   3.589   5.148   6.867  0.3040 -0.1352  0.1647
  974MOL0     C28479   3.457   5.098   6.919 -0.2657 -0.4878  0.2713
  974MOL0    Cl28480   3.388   4.994   6.789  0.3472  0.0654 -0.1345
  974MOL0     C28481   4.450   5.327   6.957  0.0366 -0.2326  0.5178
  974MOL0     C28482   4.580   5.304   6.903  0.5040 -0.0151 -0.0731
  974MOL0     O28483   4.815   5.493   6.624 -0.0094 -0.1270 -0.7548
  974MOL0     C28484   5.089   5.528   6.658 -0.6261  1.1368 -0.0160
  974MOL0     C28485   5.224   5.513   6.645  0.6567 -0.4635  0.2176
  974MOL0     N28486   5.611   5.143   6.160 -0.1137 -0.7809  0.2945
  974MOL0     N28487   5.518   5.055   6.120  0.2040  0.8078  0.1459
  974MOL0     C28488   4.531   4.262   6.095  0.4231 -0.8244 -0.4666
  974MOL0     C28489   4.400   4.257   6.037  0.6345 -0.1635  0.4231
  974MOL0     C28490   4.020   4.288   5.817  0.0868 -1.1744 -0.6809
  974MOL0     C28491   4.025   4.417   5.753  0.0356 -0.8441  1.4043
  974MOL0     C28492   3.914   4.479   5.702  0.1552 -0.0477 -0.1157
  974MOL0     C28493   3.793   4.406   5.707 -0.2693  0.9373 -0.1715
  974MOL0     O28494   3.681   4.460   5.654  0.2444  0.1415  0.2308
  974MOL0     C28495   3.672   4.598   5.637 -0.3184 -0.8633  0.6156
  974MOL0     C28496   3.523   4.623   5.606  0.0000  0.2769 -0.7900
  974MOL0     C28497   3.424   4.557   5.708 -0.5520 -0.1750 -0.3546
  974MOL0     C28498   3.279   4.575   5.673 -0.7766 -0.6544  0.1292
  974MOL0     C28499   3.202   4.498   5.762 -0.1211  0.1422  0.1630
  974MOL0     C28500   3.133   4.446   5.846  0.2290  1.0946  0.0066
  974MOL0     C28501   3.788   4.276   5.759 -0.2798  0.1842  0.0521
  974MOL0     C28502   3.904   4.215   5.815  0.3884 -0.5869  0.6482
  974MOL0     H28503   4.472   4.353   5.720 -3.7232  0.5117  0.4879
  974MOL0     H28504   4.695   4.348   5.804  0.9040  1.8542  1.3302
  974MOL0     H28505   4.852   4.442   5.985  4.1172 -0.9642 -3.9473
  974MOL0     H28506   4.901   4.275   5.947  5.7534 -0.3718  2.1773
  974MOL0     H28507   5.027   4.261   6.147  4.3214  1.2175 -3.4058
  974MOL0     H28508   4.937   4.401   6.221 -0.9072  1.6331 -1.6150
  974MOL0     H28509   5.048   4.549   6.065  2.3507  1.2094 -0.3323
  974MOL0     H28510   5.119   4.423   5.972 -1.0760  2.6804 -0.5704
  974MOL0     H28511   5.153   4.450   6.276 -1.4263 -0.1192 -1.1836
  974MOL0     H28512   5.266   4.379   6.168 -0.0166  0.9684 -1.9526
  974MOL0     H28513   5.174   4.672   6.176 -0.3749 -1.7509 -0.4817
  974MOL0     H28514   5.293   4.608   6.058 -0.4484  2.1941 -0.6100
  974MOL0     H28515   5.445   4.531   6.257 -0.1116 -0.0152  1.9476
  974MOL0     H28516   5.342   4.614   6.364 -1.1756 -3.1611 -0.9807
  974MOL0     H28517   5.534   4.760   6.298 -0.5361  0.6468  0.0983
  974MOL0     H28518   5.514   4.728   6.130  0.9467 -0.1457 -0.0943
  974MOL0     H28519   5.302   4.879   6.309 -0.0511 -3.1995  0.8063
  974MOL0     H28520   5.324   4.881   6.128 -0.0101  1.1775  0.1309
  974MOL0     H28521   5.524   4.982   6.442 -2.6829 -1.1950 -0.3259
  974MOL0     H28522   5.800   5.248   6.345  1.7923 -4.4702 -2.9082
  974MOL0     H28523   5.756   5.124   6.459 -0.3383 -0.6504  0.0772
  974MOL0     H28524   5.567   5.367   6.412 -2.8390  0.3503  2.0471
  974MOL0     H28525   5.712   5.383   6.513  2.1882 -0.9345 -2.4776
  974MOL0     H28526   5.473   5.198   6.539  0.4565  2.3598 -1.2499
  974MOL0     H28527   5.618   5.166   6.628  2.5261 -0.0465  0.5133
  974MOL0     H28528   5.615   5.403   6.717  0.1326 -0.3337 -2.9904
  974MOL0     H28529   5.503   5.285   6.789  1.9434  0.7795  1.6721
  974MOL0     H28530   5.275   5.229   6.830  3.0014  1.4939  0.3134
  974MOL0     H28531   5.044   5.248   6.857 -0.6752  3.2829  3.4902
  974MOL0     H28532   4.642   5.608   6.759  2.6494  0.7005  3.1281
  974MOL0     H28533   4.425   5.651   6.854 -0.2070 -0.4317 -0.9897
  974MOL0     H28534   4.203   5.634   6.883  3.1896  1.9611  0.3638
  974MOL0     H28535   4.225   5.671   7.049  1.5521 -0.3390 -0.2715
  974MOL0     H28536   3.997   5.649   7.004  2.3975  0.0549  0.3084
  974MOL0     H28537   4.050   5.523   7.121 -0.7269 -2.7485 -0.6972
  974MOL0     H28538   4.053   5.360   6.948  0.6849  0.1257  0.2726
  974MOL0     H28539   3.981   5.477   6.830  1.5377  0.7814  0.3684
  974MOL0     H28540   3.875   5.364   7.084  2.3877  0.1419 -1.1454
  974MOL0     H28541   3.793   5.506   7.006  1.7686  0.8068  2.8432
  974MOL0     H28542   3.843   5.240   6.869  0.6723  0.0772  0.9025
  974MOL0     H28543   3.729   5.362   6.816  0.8730 -0.7195 -0.1318
  974MOL0     H28544   3.591   5.319   7.010 -1.7272 -0.6514 -1.4658
  974MOL0     H28545   3.693   5.184   7.057  0.9748  0.3969 -1.1228
  974MOL0     H28546   3.558   5.204   6.778  0.9804 -0.9717 -0.6209
  974MOL0     H28547   3.655   5.064   6.843 -0.5796 -1.7259  2.9308
  974MOL0     H28548   3.388   5.181   6.935  0.5381  0.3398 -0.4306
  974MOL0     H28549   3.465   5.036   7.009  0.5507 -1.3492 -0.3654
  974MOL0     H28550   4.385   5.254   7.005  0.0177 -1.1281 -0.8291
  974MOL0     H28551   4.623   5.208   6.928 -0.8433  0.0397  2.9179
  974MOL0     H28552   5.043   5.612   6.607 -2.1287 -0.6892 -1.8208
  974MOL0     H28553   5.287   5.582   6.590  0.9298 -2.0034 -1.5076
  974MOL0     H28554   4.555   4.234   6.197  1.7138 -2.7823 -1.2466
  974MOL0     H28555   4.318   4.230   6.103 -0.1042  3.1626  1.0338
  974MOL0     H28556   4.115   4.476   5.767 -0.0097 -0.3634 -0.2181
  974MOL0     H28557   3.933   4.577   5.660 -1.6190  0.2622 -0.3118
  974MOL0     H28558   3.731   4.637   5.553  0.2007 -5.3355 -1.4003
  974MOL0     H28559   3.691   4.669   5.718 -4.2190  3.0301 -1.4306
  974MOL0     H28560   3.496   4.729   5.596 -0.5023  0.2193 -0.1227
  974MOL0     H28561   3.509   4.580   5.507 -2.1878  0.3798 -0.5740
  974MOL0     H28562   3.454   4.598   5.805 -0.0579  1.7922 -1.2791
  974MOL0     H28563   3.442   4.449   5.714 -1.2419 -0.2792 -0.1641
  974MOL0     H28564   3.261   4.682   5.678 -0.8384 -0.4058 -3.1202
  974MOL0     H28565   3.257   4.541   5.571 -1.3808 -1.7053  0.5918
  974MOL0     H28566   3.094   4.408   5.938  0.1409 -0.3436 -0.6093
  974MOL0     H28567   3.694   4.222   5.767 -1.5055  2.2620  0.1812
  974MOL0     H28568   3.893   4.120   5.865 -1.3723 -1.0539 -0.5138
  975MOL0     O28569   1.583   2.307   7.662 -0.2006  0.0187  0.2839
  975MOL0     C28570   1.616   2.206   7.719  0.4693  0.1460 -0.3432
  975MOL0     O28571   1.542   2.138   7.804 -0.1725  0.6077 -0.0703
  975MOL0     C28572   1.408   2.143   7.824 -0.7274 -0.9468  0.3951
  975MOL0     C28573   1.341   2.022   7.837 -0.2070  0.1856 -0.5602
  975MOL0     C28574   1.209   2.022   7.873  0.6406 -0.2965 -0.0808
  975MOL0     C28575   1.131   2.141   7.881 -0.3494  0.2587 -0.0800
  975MOL0     O28576   0.998   2.133   7.892 -0.2188  0.4653 -0.0962
  975MOL0     C28577   0.913   2.242   7.935  0.3228 -0.0262 -1.2399
  975MOL0     C28578   0.762   2.213   7.961  0.1188 -0.3945  0.7368
  975MOL0     C28579   0.732   2.095   8.061 -0.6682  0.0188 -0.0528
  975MOL0     C28580   0.581   2.073   8.081 -0.1882 -0.9392  0.6648
  975MOL0     C28581   0.577   1.947   8.168  0.2641 -0.1919 -0.2361
  975MOL0     C28582   0.445   1.890   8.202  0.0500  0.4649 -0.0358
  975MOL0     C28583   0.361   1.975   8.295 -0.0407 -0.2410 -0.6479
  975MOL0     C28584   0.245   2.049   8.239 -0.0795  0.0003 -1.0457
  975MOL0     N28585   0.148   1.959   8.177 -0.1330  0.1480  0.4840
  975MOL0     C28586   0.077   1.866   8.239  0.9623  0.3170  0.0628
  975MOL0     C28587  -0.006   1.821   8.145  0.0931  0.0723 -0.2438
  975MOL0     C28588  -0.130   1.736   8.166  0.0051  0.0661 -1.2848
  975MOL0     C28589  -0.258   1.800   8.180  0.5187 -0.4019  0.8554
  975MOL0     C28590  -0.286   1.853   8.327  0.1734  0.5705  1.0880
  975MOL0     C28591  -0.435   1.871   8.360 -0.3358  0.1712  0.4653
  975MOL0     O28592  -0.499   1.742   8.335 -0.6124  0.0097  0.6155
  975MOL0     C28593  -0.634   1.744   8.373 -0.4360 -0.1350 -0.2203
  975MOL0     C28594  -0.691   1.806   8.492 -0.9935  0.3313 -0.2334
  975MOL0     C28595  -0.828   1.791   8.517  0.0287  0.5199 -0.0925
  975MOL0     C28596  -0.918   1.719   8.431 -0.2052  0.2553 -0.1326
  975MOL0     C28597  -1.065   1.706   8.450 -0.4275  0.2746  0.0966
  975MOL0     O28598  -1.121   1.773   8.552 -0.1708 -0.2390 -0.2722
  975MOL0     C28599  -1.253   1.773   8.585  0.0546 -0.5329 -0.2939
  975MOL0     C28600  -1.314   1.881   8.643  0.5539 -0.2269 -0.6180
  975MOL0     C28601  -1.450   1.877   8.692 -0.1992  0.7756 -0.2528
  975MOL0     C28602  -1.522   1.761   8.665 -1.0462 -0.5371  0.0544
  975MOL0     O28603  -1.660   1.767   8.675 -0.3319  0.7941  0.4463
  975MOL0     C28604  -1.738   1.647   8.665 -0.5305 -0.9626  0.0088
  975MOL0     C28605  -1.886   1.686   8.670  0.5009  0.4234 -0.3831
  975MOL0     C28606  -1.928   1.716   8.816  0.6800  0.1598 -0.0150
  975MOL0     C28607  -1.902   1.607   8.922  0.4917 -1.3129 -0.0481
  975MOL0     C28608  -1.988   1.642   9.041 -0.4356  0.0581 -0.4283
  975MOL0     C28609  -2.005   1.515   9.122 -0.7379  0.2036  0.8482
  975MOL0     C28610  -2.115   1.420   9.054  0.0817 -0.3807 -0.5670
  975MOL0     C28611  -2.183   1.339   9.170 -0.0648 -0.0363 -0.8370
  975MOL0    Cl28612  -2.213   1.169   9.141 -0.1225 -0.5264 -0.2902
  975MOL0     C28613  -1.452   1.640   8.626 -0.6897 -0.8551  0.5070
  975MOL0     C28614  -1.321   1.650   8.584 -0.4760  1.0580  0.3996
  975MOL0     O28615  -1.121   1.640   8.371  0.3810  0.4820  0.6489
  975MOL0     C28616  -0.857   1.669   8.312 -0.1179  0.1081 -0.5303
  975MOL0     C28617  -0.720   1.678   8.288 -0.7905 -0.4717  0.5551
  975MOL0     N28618   0.034   1.870   8.026  0.5147  0.5655  0.8435
  975MOL0     N28619   0.119   1.958   8.048  0.8902  0.1888 -0.0174
  975MOL0     C28620   1.195   2.261   7.883  0.4820 -0.8513 -0.3514
  975MOL0     C28621   1.334   2.268   7.841  0.5397 -0.1976  0.4440
  975MOL0     C28622   1.758   2.169   7.690  0.2624 -0.8483 -0.5203
  975MOL0     C28623   1.847   2.259   7.617  0.6095  0.1642 -0.6349
  975MOL0     C28624   1.982   2.226   7.595  0.0540 -0.6844 -0.7244
  975MOL0     C28625   2.033   2.116   7.653  0.0011  0.1435 -0.5050
  975MOL0     O28626   2.160   2.074   7.642 -0.2638 -0.1746  0.0074
  975MOL0     C28627   2.266   2.153   7.700 -0.5046 -0.4586  0.3673
  975MOL0     C28628   2.286   2.118   7.838  0.0096 -0.8945 -0.0910
  975MOL0     C28629   2.359   2.244   7.900 -0.5852 -0.4827  0.2508
  975MOL0     C28630   2.484   2.203   7.982 -0.3710 -0.5327  1.1409
  975MOL0     C28631   2.576   2.138   7.892  0.1843 -0.1848 -1.1480
  975MOL0     C28632   2.652   2.093   7.806 -0.0544 -0.2383  0.8764
  975MOL0     C28633   1.949   2.039   7.735 -0.0141  0.7538 -0.6903
  975MOL0     C28634   1.815   2.058   7.752 -0.9098 -0.0367  0.5911
  975MOL0     H28635   1.390   1.927   7.820  0.4050  0.5272 -0.7458
  975MOL0     H28636   1.165   1.925   7.892  2.1627 -0.5532  2.6646
  975MOL0     H28637   0.914   2.318   7.857  0.9953 -0.6956 -1.9010
  975MOL0     H28638   0.949   2.285   8.029  0.8363 -0.3359 -1.2906
  975MOL0     H28639   0.714   2.163   7.876 -1.7424  0.4054  1.2583
  975MOL0     H28640   0.713   2.308   7.984  0.5153 -0.3633  1.4987
  975MOL0     H28641   0.779   2.124   8.156  3.3600 -0.1911 -1.7686
  975MOL0     H28642   0.782   2.003   8.033  0.5278  0.5704  0.2054
  975MOL0     H28643   0.540   2.161   8.131 -0.5363 -1.5602  1.4861
  975MOL0     H28644   0.531   2.065   7.984 -0.2158 -0.7025  0.6569
  975MOL0     H28645   0.638   1.961   8.258 -2.2105 -0.6022  1.5925
  975MOL0     H28646   0.633   1.873   8.111  1.7787 -0.3647  1.4007
  975MOL0     H28647   0.459   1.796   8.255 -2.6476  0.1397  0.2395
  975MOL0     H28648   0.385   1.861   8.115  1.1221  1.4735 -1.1449
  975MOL0     H28649   0.325   1.914   8.378  2.7794  1.4905  2.0818
  975MOL0     H28650   0.420   2.041   8.358 -2.0233  0.2109  0.8001
  975MOL0     H28651   0.269   2.125   8.164 -2.9652  0.9357 -1.1631
  975MOL0     H28652   0.194   2.091   8.326  0.5901 -0.0919 -0.6009
  975MOL0     H28653   0.054   1.850   8.344 -2.3201 -1.3756 -0.7480
  975MOL0     H28654  -0.118   1.678   8.258 -2.0102 -0.7940 -1.5093
  975MOL0     H28655  -0.130   1.670   8.078 -1.2717  0.4132 -1.5592
  975MOL0     H28656  -0.329   1.727   8.140  0.7786 -0.6437  0.8369
  975MOL0     H28657  -0.254   1.887   8.113  2.4234 -0.8642  0.3210
  975MOL0     H28658  -0.241   1.788   8.402 -0.8894 -0.0044  1.2375
  975MOL0     H28659  -0.226   1.944   8.341  1.8939 -0.2754 -0.3824
  975MOL0     H28660  -0.481   1.950   8.300 -1.4198  0.1332  1.2125
  975MOL0     H28661  -0.440   1.896   8.467  2.2800 -1.9074  1.1669
  975MOL0     H28662  -0.619   1.858   8.554  3.5766 -1.8024 -3.1660
  975MOL0     H28663  -0.868   1.852   8.597  1.7069  0.5889  0.7374
  975MOL0     H28664  -1.261   1.976   8.648  1.6177 -0.7851 -0.9665
  975MOL0     H28665  -1.502   1.968   8.718 -2.7405 -0.9568  1.2252
  975MOL0     H28666  -1.722   1.592   8.758  0.1196 -1.6866 -0.5142
  975MOL0     H28667  -1.701   1.594   8.577  1.8806  4.5331 -2.7696
  975MOL0     H28668  -1.943   1.601   8.631  1.8261 -1.0832  0.8158
  975MOL0     H28669  -1.903   1.772   8.604  1.2630  1.1066  0.2900
  975MOL0     H28670  -2.037   1.720   8.809  0.7541  1.3860 -0.7766
  975MOL0     H28671  -1.887   1.812   8.849  0.8633  0.4511 -1.0356
  975MOL0     H28672  -1.929   1.514   8.870 -0.0437  1.5251 -5.6623
  975MOL0     H28673  -1.794   1.610   8.941  0.4253 -0.8710  0.2743
  975MOL0     H28674  -2.088   1.668   9.006 -0.3581 -1.5726 -2.0849
  975MOL0     H28675  -1.942   1.722   9.099 -2.1750  2.2903 -1.9763
  975MOL0     H28676  -2.039   1.560   9.215 -1.8473 -0.0511  0.5754
  975MOL0     H28677  -1.914   1.454   9.135 -1.8449 -1.9610 -0.8769
  975MOL0     H28678  -2.204   1.472   9.018 -0.5637 -2.1083 -1.5966
  975MOL0     H28679  -2.073   1.362   8.972  0.6679  0.8859 -1.1784
  975MOL0     H28680  -2.278   1.392   9.181 -0.4233 -1.0237  1.5975
  975MOL0     H28681  -2.133   1.360   9.265  2.4422  3.7265 -2.7069
  975MOL0     H28682  -1.509   1.548   8.615  1.0456 -2.3962  3.2718
  975MOL0     H28683  -1.272   1.563   8.540  1.9947  1.9432  1.2209
  975MOL0     H28684  -0.914   1.617   8.235  3.2981 -3.5592 -0.9055
  975MOL0     H28685  -0.685   1.629   8.198 -0.3605 -2.3278  1.6608
  975MOL0     H28686   1.136   2.348   7.908  1.9482 -0.5667  2.5304
  975MOL0     H28687   1.376   2.368   7.827 -0.2981  0.3133  1.4247
  975MOL0     H28688   1.800   2.343   7.566  1.8302  1.3329  0.1020
  975MOL0     H28689   2.053   2.278   7.531 -0.2416  1.1690  0.3926
  975MOL0     H28690   2.244   2.258   7.680  0.3240 -0.0192  1.7302
  975MOL0     H28691   2.355   2.126   7.643 -1.4399 -2.1614 -0.4053
  975MOL0     H28692   2.190   2.100   7.886  0.0930  1.2792  1.0122
  975MOL0     H28693   2.341   2.024   7.850  3.8307  1.3778  2.6190
  975MOL0     H28694   2.294   2.296   7.972 -1.4360 -0.2862 -0.6361
  975MOL0     H28695   2.404   2.308   7.823  2.1422 -2.3086  0.1877
  975MOL0     H28696   2.539   2.289   8.020  0.5984 -1.2116  1.3190
  975MOL0     H28697   2.469   2.133   8.065 -0.2467 -0.2655  1.3884
  975MOL0     H28698   2.722   2.047   7.740 -1.1067 -0.6408  0.0193
  975MOL0     H28699   2.002   1.963   7.793 -0.1313  1.8808  0.9611
  975MOL0     H28700   1.753   1.984   7.801 -0.4906  0.5362  2.0369
  976MOL0     O28701   3.710  10.272   8.495  0.1197  0.8318 -0.6570
  976MOL0     C28702   3.797  10.247   8.574  0.2860  0.4545  0.0466
  976MOL0     O28703   3.793  10.249   8.708 -0.1300 -0.3504 -0.1824
  976MOL0     C28704   3.677  10.315   8.768 -0.2191  0.6001 -0.2001
  976MOL0     C28705   3.616  10.258   8.873 -0.0762  0.1628  0.3325
  976MOL0     C28706   3.494  10.297   8.934  0.6595 -0.2412  1.0896
  976MOL0     C28707   3.435  10.404   8.874 -0.3539 -0.2299  0.6805
  976MOL0     O28708   3.310  10.426   8.901 -0.6282  0.3756 -0.0727
  976MOL0     C28709   3.212  10.370   8.809  0.7763 -0.1026  0.0073
  976MOL0     C28710   3.109  10.472   8.771  0.0111 -0.3422  0.0482
  976MOL0     C28711   3.002  10.436   8.669 -0.8974 -0.3542 -0.0721
  976MOL0     C28712   2.908  10.325   8.722 -0.3310  0.0736 -0.4872
  976MOL0     C28713   2.763  10.339   8.682 -0.3148  0.4661 -0.8228
  976MOL0     C28714   2.735  10.314   8.538 -0.0668  0.3901  0.2803
  976MOL0     C28715   2.604  10.353   8.486  0.0335 -0.2977  0.4232
  976MOL0     C28716   2.498  10.273   8.563 -0.0394  0.2898 -0.2645
  976MOL0     N28717   2.379  10.245   8.471  0.0533 -0.5604  0.0200
  976MOL0     C28718   2.248  10.263   8.516  0.2473 -0.3793  0.9057
  976MOL0     C28719   2.168  10.228   8.416  0.6412 -0.3763 -0.3613
  976MOL0     C28720   2.019  10.208   8.420 -0.4515  0.9025  0.5624
  976MOL0     C28721   1.980  10.060   8.424 -0.1984  0.5158  0.0441
  976MOL0     C28722   1.832  10.027   8.395  0.6337  0.3959 -0.1946
  976MOL0     C28723   1.752  10.106   8.495  0.3408  0.1326 -0.5294
  976MOL0     O28724   1.609  10.089   8.482  0.2343  0.3890 -0.7942
  976MOL0     C28725   1.560   9.958   8.504 -0.2867  0.6520 -0.0022
  976MOL0     C28726   1.623   9.853   8.581 -0.1294  0.3675 -0.5738
  976MOL0     C28727   1.564   9.720   8.591  0.4828 -0.5360  0.2321
  976MOL0     C28728   1.436   9.694   8.541  0.4813  0.6948  0.4485
  976MOL0     C28729   1.381   9.555   8.536  1.0007  0.4307  0.1289
  976MOL0     O28730   1.248   9.552   8.515 -0.0844  0.8469  0.7176
  976MOL0     C28731   1.187   9.437   8.471 -0.0619  0.2871  0.0322
  976MOL0     C28732   1.237   9.343   8.384 -0.4762  0.3128  0.0254
  976MOL0     C28733   1.158   9.231   8.350 -0.0777  0.5822 -0.0397
  976MOL0     C28734   1.026   9.221   8.396 -0.9142  0.4759 -0.4670
  976MOL0     O28735   0.942   9.128   8.339  0.2474 -1.0736  0.3930
  976MOL0     C28736   0.873   9.177   8.228  0.4550 -0.4825  0.7302
  976MOL0     C28737   0.739   9.114   8.203  0.2727 -0.4476 -0.3015
  976MOL0     C28738   0.683   9.171   8.072 -0.5361 -0.4401  0.0011
  976MOL0     C28739   0.537   9.148   8.049  0.5866  0.0990 -0.1433
  976MOL0     C28740   0.490   9.200   7.919  0.2492 -0.4897 -0.8414
  976MOL0     C28741   0.345   9.157   7.891  0.2929 -0.4397 -0.2833
  976MOL0     C28742   0.311   9.232   7.762  0.5841 -0.7105 -0.0777
  976MOL0     C28743   0.164   9.233   7.745 -0.1572  0.5849  0.1649
  976MOL0    Cl28744   0.113   9.071   7.684 -0.4478  0.0862 -0.6032
  976MOL0     C28745   0.982   9.314   8.491  0.8499  0.2759  0.3573
  976MOL0     C28746   1.059   9.423   8.524 -1.0484  0.5924 -0.3386
  976MOL0     O28747   1.456   9.464   8.558  0.2457 -0.0082 -0.3649
  976MOL0     C28748   1.368   9.799   8.475 -0.1486  0.5943  0.5005
  976MOL0     C28749   1.427   9.926   8.455 -0.3527 -0.3193  0.0231
  976MOL0     N28750   2.250  10.206   8.304  0.1009 -0.1392 -0.3815
  976MOL0     N28751   2.379  10.204   8.343 -0.3926 -0.5836  0.0495
  976MOL0     C28752   3.491  10.480   8.774 -0.6051  0.1325 -0.1509
  976MOL0     C28753   3.622  10.439   8.721  0.6452 -0.5807  0.0262
  976MOL0     C28754   3.927  10.202   8.517  0.0876 -0.6188 -0.3663
  976MOL0     C28755   3.958  10.192   8.382 -0.0518  0.7842 -0.8038
  976MOL0     C28756   4.089  10.154   8.353  0.8751  0.6160 -0.3963
  976MOL0     C28757   4.194  10.119   8.445  0.5808 -0.0896  0.3189
  976MOL0     O28758   4.315  10.083   8.385  0.0585  0.0851  0.1466
  976MOL0     C28759   4.399   9.986   8.461  1.1176 -1.1096  0.1149
  976MOL0     C28760   4.519   9.972   8.369  0.8770  1.0164 -0.2478
  976MOL0     C28761   4.595  10.099   8.354  0.2344 -0.1946  0.6109
  976MOL0     C28762   4.738  10.077   8.318  0.6230 -0.5217  1.0146
  976MOL0     C28763   4.813  10.016   8.430 -0.6214  0.5079  0.7253
  976MOL0     C28764   4.850   9.934   8.518  0.2514 -0.2020  0.4865
  976MOL0     C28765   4.159  10.112   8.581 -0.5883 -0.0130 -0.4507
  976MOL0     C28766   4.024  10.152   8.612 -0.2942  0.2081  0.4627
  976MOL0     H28767   3.647  10.160   8.905  0.6690  0.2517 -0.0902
  976MOL0     H28768   3.444  10.241   9.012 -1.4664 -0.1572 -0.1324
  976MOL0     H28769   3.172  10.278   8.851 -0.4649  0.0925 -0.7041
  976MOL0     H28770   3.257  10.334   8.716  1.8536  0.9863  0.0845
  976MOL0     H28771   3.154  10.565   8.735 -0.1330 -1.1071 -2.3035
  976MOL0     H28772   3.067  10.491   8.870  2.0753  0.7068  0.7617
  976MOL0     H28773   3.056  10.401   8.580 -1.0325  0.7866 -0.6169
  976MOL0     H28774   2.950  10.531   8.660 -1.1817 -0.3954  1.0017
  976MOL0     H28775   2.944  10.227   8.691 -2.9647 -1.0903 -0.1241
  976MOL0     H28776   2.912  10.336   8.831 -2.0592 -0.2997 -0.3534
  976MOL0     H28777   2.731  10.441   8.704 -0.8345  0.2632 -0.6212
  976MOL0     H28778   2.705  10.274   8.748 -0.9064  2.5709  0.8423
  976MOL0     H28779   2.760  10.211   8.512 -0.6574  0.3834 -0.2740
  976MOL0     H28780   2.802  10.372   8.474 -0.7073 -0.6034 -1.3415
  976MOL0     H28781   2.589  10.461   8.498  0.5090 -0.0498 -1.0670
  976MOL0     H28782   2.598  10.344   8.377  0.6401  5.0469 -0.3194
  976MOL0     H28783   2.470  10.322   8.656 -0.6225 -3.8603  1.9781
  976MOL0     H28784   2.525  10.170   8.587  2.8243  1.0994  0.3079
  976MOL0     H28785   2.229  10.288   8.620  2.9811  1.7835  1.0242
  976MOL0     H28786   1.980  10.255   8.329 -0.4854 -2.8087 -1.5762
  976MOL0     H28787   1.980  10.267   8.502  0.0344  1.6479  0.2649
  976MOL0     H28788   1.998  10.029   8.527  0.4706  1.3926  0.2038
  976MOL0     H28789   2.042  10.002   8.355 -1.4017  2.1934 -2.5996
  976MOL0     H28790   1.802  10.053   8.293  0.3768 -2.1053 -0.8251
  976MOL0     H28791   1.810   9.920   8.406 -1.7762  0.8393 -0.0579
  976MOL0     H28792   1.762  10.212   8.473 -0.3600  0.3644  0.1914
  976MOL0     H28793   1.783  10.079   8.597 -1.9470 -1.0683 -0.0693
  976MOL0     H28794   1.715   9.872   8.635  0.7203  0.7466 -2.1088
  976MOL0     H28795   1.607   9.635   8.643  0.6697 -0.1276  0.7535
  976MOL0     H28796   1.336   9.366   8.346 -0.2276 -0.4597  0.1865
  976MOL0     H28797   1.201   9.176   8.268 -2.6605  0.0915 -1.1723
  976MOL0     H28798   0.940   9.157   8.144  0.3933 -0.1128  0.5942
  976MOL0     H28799   0.868   9.286   8.231  0.1767 -0.3799 -1.6134
  976MOL0     H28800   0.684   9.139   8.294  2.3677 -2.1675  1.5645
  976MOL0     H28801   0.741   9.005   8.196  2.6787 -0.5833  1.3701
  976MOL0     H28802   0.739   9.126   7.990 -1.4614 -2.3774  0.3652
  976MOL0     H28803   0.700   9.279   8.076  2.4635 -0.6121 -3.1205
  976MOL0     H28804   0.533   9.039   8.062 -0.4782  0.4635  3.5585
  976MOL0     H28805   0.477   9.190   8.130 -0.8588 -3.1561  0.6386
  976MOL0     H28806   0.556   9.179   7.834  0.3990 -2.5044 -0.2840
  976MOL0     H28807   0.477   9.304   7.950 -4.5390 -1.4015  1.0238
  976MOL0     H28808   0.269   9.187   7.963  2.2050  0.3679  1.5242
  976MOL0     H28809   0.330   9.050   7.876  0.0148 -0.1836 -2.1365
  976MOL0     H28810   0.348   9.334   7.756 -0.6187 -0.3135 -1.3034
  976MOL0     H28811   0.367   9.185   7.681  1.1431 -2.7825  1.4045
  976MOL0     H28812   0.133   9.303   7.667 -0.2167  2.3927  1.7335
  976MOL0     H28813   0.103   9.258   7.832 -4.4737 -0.7270 -2.1892
  976MOL0     H28814   0.880   9.314   8.528  0.2790  0.2802 -1.1477
  976MOL0     H28815   1.021   9.493   8.597 -1.5417 -2.5060  2.6281
  976MOL0     H28816   1.270   9.791   8.429  0.5593  0.0696 -0.9620
  976MOL0     H28817   1.377  10.011   8.410  0.2761 -0.8339 -1.7613
  976MOL0     H28818   3.436  10.562   8.730 -0.5960 -0.2988 -0.9818
  976MOL0     H28819   3.666  10.499   8.642  3.8211 -0.8224  1.4812
  976MOL0     H28820   3.893  10.229   8.303 -1.3413  1.0501  0.3389
  976MOL0     H28821   4.129  10.157   8.252  1.5934 -0.5464 -0.1592
  976MOL0     H28822   4.348   9.889   8.469 -1.5529  0.2514  0.7798
  976MOL0     H28823   4.421  10.018   8.563 -0.6581 -0.0290  0.2007
  976MOL0     H28824   4.583   9.895   8.414 -0.6878 -0.2262 -0.0757
  976MOL0     H28825   4.482   9.930   8.275  4.0252 -0.9767 -0.7510
  976MOL0     H28826   4.591  10.165   8.441 -2.3926  2.4997 -1.3450
  976MOL0     H28827   4.550  10.160   8.275  1.9593  1.9681  1.1998
  976MOL0     H28828   4.730  10.023   8.223  0.1913  4.1264 -1.9355
  976MOL0     H28829   4.798  10.166   8.295  2.3246 -1.3938  1.8830
  976MOL0     H28830   4.895   9.869   8.591  2.3645  2.2119  1.4992
  976MOL0     H28831   4.221  10.086   8.665  0.7029  4.6745  0.3619
  976MOL0     H28832   4.005  10.162   8.719 -1.8440  0.0789  0.2164
  977MOL0     O28833  10.568   9.471   3.045 -0.3749 -0.3196 -0.1684
  977MOL0     C28834  10.547   9.486   3.168  0.2145  1.2064  0.2944
  977MOL0     O28835  10.430   9.463   3.223  0.6031 -0.0769  0.1234
  977MOL0     C28836  10.310   9.470   3.153 -0.4141  0.2437 -1.0187
  977MOL0     C28837  10.279   9.559   3.051  0.4134 -0.9068 -0.1451
  977MOL0     C28838  10.150   9.577   3.003 -0.6366  0.1648  0.8623
  977MOL0     C28839  10.042   9.499   3.061 -0.3199 -0.2885 -0.5517
  977MOL0     O28840   9.924   9.517   3.000  0.0676  0.9689 -0.1821
  977MOL0     C28841   9.800   9.510   3.083  0.9460 -0.1721  0.5325
  977MOL0     C28842   9.693   9.473   2.975 -0.1361 -0.8216 -0.5377
  977MOL0     C28843   9.553   9.472   3.039  0.2337 -0.1320 -0.0023
  977MOL0     C28844   9.461   9.383   2.948 -1.3283  0.8587  0.1423
  977MOL0     C28845   9.325   9.361   3.014 -1.0211  0.5002  0.3078
  977MOL0     C28846   9.211   9.381   2.915  0.4225  0.5345 -0.2224
  977MOL0     C28847   9.072   9.351   2.982  0.0129 -0.1317 -0.5010
  977MOL0     C28848   8.958   9.372   2.888 -0.7157 -0.3416 -0.3246
  977MOL0     N28849   8.835   9.314   2.945 -0.3879 -0.2797  0.8780
  977MOL0     C28850   8.737   9.262   2.871 -0.0050  0.6495 -0.6039
  977MOL0     C28851   8.636   9.236   2.950  0.3986  0.2317  0.3203
  977MOL0     C28852   8.496   9.197   2.914 -0.4191  0.1701 -0.7433
  977MOL0     C28853   8.387   9.267   2.999 -0.0586  0.3756 -0.5067
  977MOL0     C28854   8.241   9.236   2.956  0.7327 -0.1696  0.4154
  977MOL0     C28855   8.134   9.280   3.049 -0.6925 -0.4383 -0.4900
  977MOL0     O28856   8.007   9.235   3.002  0.4102 -0.1563  0.1889
  977MOL0     C28857   7.899   9.265   3.078  0.0762 -0.1226  0.1525
  977MOL0     C28858   7.787   9.186   3.043  0.1409  0.0928 -0.6915
  977MOL0     C28859   7.660   9.206   3.096 -0.0448  0.0339  0.0818
  977MOL0     C28860   7.640   9.319   3.187 -0.2228  0.8851  0.3235
  977MOL0     C28861   7.498   9.349   3.231 -0.3363  1.3473  0.3355
  977MOL0     O28862   7.421   9.232   3.247 -0.2552 -0.4775  0.2535
  977MOL0     C28863   7.290   9.233   3.265  0.2209 -0.3298 -1.0449
  977MOL0     C28864   7.204   9.341   3.263 -0.3474  0.5512 -0.6632
  977MOL0     C28865   7.067   9.330   3.282  0.5684  0.1251 -0.1764
  977MOL0     C28866   7.008   9.200   3.297  0.0532  0.7594  0.1414
  977MOL0     O28867   6.866   9.180   3.305 -1.3345 -0.0484  0.5334
  977MOL0     C28868   6.801   9.055   3.264 -0.4119 -0.1625  0.5924
  977MOL0     C28869   6.810   9.041   3.106 -0.6576  0.4750 -0.1853
  977MOL0     C28870   6.800   9.173   3.020 -0.4060 -0.3369 -0.6907
  977MOL0     C28871   6.838   9.145   2.871  0.4355 -0.4559 -0.0096
  977MOL0     C28872   6.961   9.066   2.842  0.2994  0.2092  0.0385
  977MOL0     C28873   7.088   9.129   2.900 -0.5948  0.0736  0.0856
  977MOL0     C28874   7.216   9.067   2.839 -0.0442 -0.9389  0.1782
  977MOL0     C28875   7.336   9.099   2.935 -0.3275  0.4277  0.0294
  977MOL0    Cl28876   7.481   9.024   2.854 -0.0712  0.5898 -0.1244
  977MOL0     C28877   7.099   9.096   3.306  0.9278 -0.0068  0.1519
  977MOL0     C28878   7.231   9.110   3.286  0.2489 -0.8008 -0.2477
  977MOL0     O28879   7.472   9.469   3.238  0.0210  0.3183  0.3955
  977MOL0     C28880   7.748   9.400   3.218  0.0337 -0.0768  0.6104
  977MOL0     C28881   7.871   9.383   3.151 -0.1518  0.8770 -0.2097
  977MOL0     N28882   8.671   9.266   3.083 -0.7682 -0.2355  0.3867
  977MOL0     N28883   8.794   9.316   3.076  0.4426 -0.7813  0.4455
  977MOL0     C28884  10.074   9.399   3.152 -1.5287  1.0569  0.2943
  977MOL0     C28885  10.214   9.387   3.196 -0.1191 -0.2079 -0.0573
  977MOL0     C28886  10.656   9.523   3.252 -0.4925  0.6157  0.4701
  977MOL0     C28887  10.792   9.509   3.207 -0.3448 -0.0111 -0.2176
  977MOL0     C28888  10.899   9.561   3.280 -0.1835  0.0691 -0.5418
  977MOL0     C28889  10.867   9.627   3.399  0.2071  0.9567 -0.2132
  977MOL0     O28890  10.969   9.683   3.470  0.2173  0.0214  0.8779
  977MOL0     C28891  11.113   9.663   3.427  0.5509 -1.1496 -0.2231
  977MOL0     C28892  11.169   9.779   3.329 -0.7629  0.1166 -0.5720
  977MOL0     C28893  11.295   9.736   3.251 -0.0233  0.5879  0.2280
  977MOL0     C28894  11.427   9.706   3.338  1.0914  0.2379 -0.4858
  977MOL0     C28895  11.553   9.709   3.253  0.9071  1.0079 -0.0009
  977MOL0     C28896  11.653   9.709   3.188  0.6905  0.0497  0.1115
  977MOL0     C28897  10.738   9.635   3.451  0.4479  0.5093 -1.2228
  977MOL0     C28898  10.631   9.590   3.371 -0.2775 -0.6856 -0.8974
  977MOL0     H28899  10.360   9.628   3.031  0.5695 -0.9478  0.3177
  977MOL0     H28900  10.155   9.640   2.915  1.0847 -0.2125  0.6539
  977MOL0     H28901   9.769   9.602   3.134  0.0444  0.6051 -1.3103
  977MOL0     H28902   9.798   9.426   3.153 -2.4852 -1.4903 -0.9248
  977MOL0     H28903   9.714   9.378   2.924 -1.9638 -1.0640 -0.9218
  977MOL0     H28904   9.696   9.552   2.900 -3.0804 -1.4962 -1.4790
  977MOL0     H28905   9.519   9.577   3.041  0.8300  0.0852 -0.8874
  977MOL0     H28906   9.550   9.437   3.143  2.5126  0.7521  0.4208
  977MOL0     H28907   9.448   9.419   2.845 -1.3265  0.6951  0.0841
  977MOL0     H28908   9.513   9.288   2.935 -0.2472  1.5623 -0.8893
  977MOL0     H28909   9.316   9.425   3.103 -1.2071 -0.0011  0.6608
  977MOL0     H28910   9.328   9.258   3.051  3.1872  0.1577 -0.5166
  977MOL0     H28911   9.227   9.339   2.815 -2.9503  1.3288 -1.2315
  977MOL0     H28912   9.213   9.487   2.891  0.6172  0.9181  1.3545
  977MOL0     H28913   9.077   9.245   3.011  2.6455 -1.9087 -6.0136
  977MOL0     H28914   9.067   9.422   3.065  4.4420  1.0265 -1.0041
  977MOL0     H28915   8.988   9.328   2.793 -1.2385 -0.4624 -0.4380
  977MOL0     H28916   8.947   9.480   2.881 -1.8496 -0.3292  1.0776
  977MOL0     H28917   8.755   9.251   2.764 -0.2747  2.5885 -0.8964
  977MOL0     H28918   8.482   9.092   2.941 -0.6194  0.8302  1.9641
  977MOL0     H28919   8.480   9.203   2.805 -0.4438 -0.2198 -0.7615
  977MOL0     H28920   8.406   9.375   2.998 -3.8198  1.3414  3.0383
  977MOL0     H28921   8.399   9.223   3.099  0.7280  0.7536 -0.4230
  977MOL0     H28922   8.217   9.295   2.868  1.9688  1.2797  1.0144
  977MOL0     H28923   8.221   9.130   2.936 -1.5075  0.4959 -1.2091
  977MOL0     H28924   8.135   9.386   3.074 -2.4168 -0.5541  0.2115
  977MOL0     H28925   8.149   9.233   3.147  1.7703 -0.9310 -1.0296
  977MOL0     H28926   7.819   9.100   2.984  0.4889 -0.6074  0.4858
  977MOL0     H28927   7.582   9.146   3.049  0.2440 -0.8708  0.7354
  977MOL0     H28928   7.241   9.443   3.258  1.6097 -0.0147  0.8506
  977MOL0     H28929   7.004   9.418   3.282 -0.5911 -0.6754  0.9411
  977MOL0     H28930   6.696   9.052   3.294 -0.4801 -1.4579  0.2806
  977MOL0     H28931   6.844   8.967   3.312 -2.5925 -0.7037  1.6527
  977MOL0     H28932   6.745   8.967   3.060  0.5903 -0.8737  0.1736
  977MOL0     H28933   6.910   8.997   3.105 -1.3687 -1.3221  1.1794
  977MOL0     H28934   6.861   9.258   3.055  1.9526 -1.2119 -2.3981
  977MOL0     H28935   6.697   9.208   3.025 -0.1825  0.1465  2.3159
  977MOL0     H28936   6.751   9.105   2.818  0.5605 -0.0074 -0.5621
  977MOL0     H28937   6.856   9.241   2.824  1.7709  0.5075  2.2820
  977MOL0     H28938   6.956   9.058   2.733 -0.5431 -1.6567  0.1799
  977MOL0     H28939   6.948   8.967   2.886 -2.5880 -0.3824 -1.8611
  977MOL0     H28940   7.087   9.103   3.006 -1.2389 -3.3001 -0.6319
  977MOL0     H28941   7.097   9.237   2.890 -1.6084  0.2655  1.0694
  977MOL0     H28942   7.202   8.959   2.839 -0.2715 -0.9097 -0.1124
  977MOL0     H28943   7.242   9.095   2.736 -2.7106 -1.5375 -0.7225
  977MOL0     H28944   7.311   9.047   3.028 -0.5116 -1.9357 -1.2655
  977MOL0     H28945   7.347   9.204   2.963 -1.6534  0.4263  0.6362
  977MOL0     H28946   7.067   8.993   3.317 -2.1950  0.8698  0.4109
  977MOL0     H28947   7.302   9.028   3.290  2.3734  0.8488 -1.4166
  977MOL0     H28948   7.734   9.491   3.276  0.7468  0.4929 -0.0924
  977MOL0     H28949   7.948   9.460   3.157  1.4214 -0.6118 -0.4951
  977MOL0     H28950   9.998   9.325   3.174 -1.3841  1.3659  2.0127
  977MOL0     H28951  10.226   9.303   3.263 -3.7337  0.2235  1.3357
  977MOL0     H28952  10.813   9.474   3.106  0.9242  0.7777 -0.2463
  977MOL0     H28953  11.000   9.561   3.241  0.1568  1.6109  0.2469
  977MOL0     H28954  11.138   9.566   3.385  0.3682 -0.2065 -2.7293
  977MOL0     H28955  11.170   9.667   3.520 -0.1482  1.6025  0.1857
  977MOL0     H28956  11.103   9.800   3.245  0.3948 -1.3019 -1.8943
  977MOL0     H28957  11.196   9.864   3.393 -0.1712  0.7027 -1.5803
  977MOL0     H28958  11.316   9.821   3.184  0.0752  1.0978  0.8902
  977MOL0     H28959  11.264   9.656   3.184  1.0270  1.6469 -1.6347
  977MOL0     H28960  11.440   9.781   3.417  0.3367  2.2774 -2.1889
  977MOL0     H28961  11.424   9.609   3.389 -0.2696 -0.1649 -1.2490
  977MOL0     H28962  11.737   9.708   3.122  0.3268 -1.9127 -0.4097
  977MOL0     H28963  10.736   9.688   3.545 -1.0315 -2.8570  0.8104
  977MOL0     H28964  10.526   9.614   3.380 -0.0413 -0.0876  0.5413
  978MOL0     O28965   6.526   9.506  11.143 -0.3891  0.1294  0.1969
  978MOL0     C28966   6.507   9.617  11.208 -0.9631  0.0293 -0.1965
  978MOL0     O28967   6.388   9.682  11.231  0.1369  0.6222 -0.0130
  978MOL0     C28968   6.271   9.592  11.229 -0.6585 -0.3066 -0.2887
  978MOL0     C28969   6.267   9.457  11.263 -0.0180 -0.5313 -0.3496
  978MOL0     C28970   6.145   9.383  11.269 -0.1868 -1.2197 -0.5550
  978MOL0     C28971   6.025   9.449  11.235  0.8352 -0.1624  1.5629
  978MOL0     O28972   5.912   9.377  11.223  0.1400  0.2649  0.4909
  978MOL0     C28973   5.785   9.444  11.259  1.1438  0.8783 -0.1610
  978MOL0     C28974   5.659   9.368  11.212 -0.2506 -0.3202 -0.7791
  978MOL0     C28975   5.531   9.438  11.263 -0.3717 -0.1180 -0.1634
  978MOL0     C28976   5.411   9.361  11.207 -0.5281 -0.2955 -0.4344
  978MOL0     C28977   5.326   9.463  11.138 -0.0974  0.0924 -0.1086
  978MOL0     C28978   5.242   9.542  11.238  0.0071  0.3144 -0.0015
  978MOL0     C28979   5.099   9.560  11.191 -0.3608 -0.3876 -0.3459
  978MOL0     C28980   5.079   9.698  11.117  0.2843 -0.0781 -0.0135
  978MOL0     N28981   4.932   9.721  11.099 -0.7749  0.2735  0.1261
  978MOL0     C28982   4.839   9.692  11.187  0.0479  0.0224  0.2851
  978MOL0     C28983   4.723   9.685  11.122  0.1097  0.7405  0.1699
  978MOL0     C28984   4.591   9.661  11.188 -0.1044  1.4422 -0.5528
  978MOL0     C28985   4.568   9.754  11.302  0.3332 -0.0198  0.0484
  978MOL0     C28986   4.450   9.712  11.398 -0.9537  0.3317 -0.7942
  978MOL0     C28987   4.325   9.682  11.307  0.4045  0.7209 -1.0624
  978MOL0     O28988   4.219   9.665  11.403  0.7318 -0.1553  0.0971
  978MOL0     C28989   4.095   9.648  11.351  0.0742 -0.9976  0.0827
  978MOL0     C28990   4.063   9.624  11.221 -0.0977 -0.7155  0.9842
  978MOL0     C28991   3.932   9.626  11.171  0.2456 -0.5639 -0.0989
  978MOL0     C28992   3.826   9.626  11.266  0.0178 -0.1071  0.5521
  978MOL0     C28993   3.685   9.608  11.221 -0.5497 -0.1458  0.7911
  978MOL0     O28994   3.594   9.605  11.318  0.0068 -0.1496 -1.0889
  978MOL0     C28995   3.459   9.617  11.295 -0.3292  0.4303 -0.3359
  978MOL0     C28996   3.375   9.575  11.397 -0.0813 -0.7163 -0.9419
  978MOL0     C28997   3.236   9.589  11.388  0.3305  1.1584  0.0862
  978MOL0     C28998   3.173   9.653  11.279 -0.5998 -0.0672  0.3788
  978MOL0     O28999   3.042   9.686  11.280 -0.0670 -0.2151 -0.3727
  978MOL0     C29000   2.980   9.727  11.155 -0.6139  1.5080 -0.8853
  978MOL0     C29001   2.834   9.705  11.148 -1.4872  0.4029 -0.7223
  978MOL0     C29002   2.770   9.810  11.232  0.8937  0.5643  0.4344
  978MOL0     C29003   2.614   9.790  11.262 -0.7047 -0.3071 -0.0061
  978MOL0     C29004   2.569   9.688  11.374  0.1600  0.0336 -0.3310
  978MOL0     C29005   2.433   9.739  11.431  0.9126  0.1579  0.7044
  978MOL0     C29006   2.371   9.639  11.530  0.6567 -0.5660 -0.6951
  978MOL0     C29007   2.240   9.709  11.566 -0.1444 -0.5531  0.2986
  978MOL0    Cl29008   2.279   9.826  11.698 -0.1039 -0.4351 -0.1303
  978MOL0     C29009   3.261   9.697  11.182 -0.6482 -0.3878 -0.3776
  978MOL0     C29010   3.400   9.684  11.187  0.7722 -0.6255  0.4035
  978MOL0     O29011   3.661   9.581  11.109  0.4798  0.1276  0.1771
  978MOL0     C29012   3.858   9.647  11.397 -0.1668  0.2568 -0.2106
  978MOL0     C29013   3.992   9.666  11.439 -0.1557  0.8372 -0.1155
  978MOL0     N29014   4.744   9.721  10.988  0.4546  0.1957 -1.0811
  978MOL0     N29015   4.875   9.730  10.978 -0.0051  0.2261  0.4842
  978MOL0     C29016   6.032   9.587  11.197 -0.2413 -0.1346  0.1916
  978MOL0     C29017   6.152   9.655  11.197 -0.2422 -0.0531  0.3235
  978MOL0     C29018   6.633   9.682  11.239  0.2379  0.0352 -0.4883
  978MOL0     C29019   6.760   9.628  11.194 -0.5011 -0.3294  0.1949
  978MOL0     C29020   6.877   9.665  11.255 -0.0448 -0.5064  0.1615
  978MOL0     C29021   6.879   9.770  11.350 -0.7522  0.5797 -1.2939
  978MOL0     O29022   6.986   9.809  11.432  0.2645 -0.7426 -0.1748
  978MOL0     C29023   7.122   9.779  11.402 -0.0400 -0.6864 -0.3666
  978MOL0     C29024   7.190   9.869  11.306 -0.2660 -0.8369 -0.0433
  978MOL0     C29025   7.322   9.818  11.256  0.1390 -1.1430 -0.4009
  978MOL0     C29026   7.398   9.746  11.360 -0.7077 -0.0392 -0.3757
  978MOL0     C29027   7.533   9.725  11.321 -0.4064  0.7172 -0.0937
  978MOL0     C29028   7.639   9.698  11.273  0.7353 -0.4162  0.9280
  978MOL0     C29029   6.766   9.840  11.380 -0.8640  0.0413  0.9640
  978MOL0     C29030   6.642   9.799  11.323 -0.2817 -0.4517 -0.1635
  978MOL0     H29031   6.354   9.412  11.309  0.2416  1.7225  1.5401
  978MOL0     H29032   6.128   9.283  11.308 -6.2156 -0.5427 -0.5311
  978MOL0     H29033   5.772   9.543  11.215 -2.8941  0.7192  0.3110
  978MOL0     H29034   5.775   9.462  11.367 -1.0681  1.7233 -0.4649
  978MOL0     H29035   5.657   9.271  11.263  2.3277 -0.0410  0.0341
  978MOL0     H29036   5.666   9.356  11.104  0.0605 -0.6171 -0.7302
  978MOL0     H29037   5.526   9.546  11.247 -1.5300 -0.3027 -1.1824
  978MOL0     H29038   5.523   9.436  11.372 -2.5870  0.5075 -0.2644
  978MOL0     H29039   5.444   9.287  11.133  0.9176  1.2819 -1.4218
  978MOL0     H29040   5.357   9.319  11.292 -0.8304 -2.1709 -1.4795
  978MOL0     H29041   5.263   9.409  11.066 -0.3501 -2.0556  1.6390
  978MOL0     H29042   5.390   9.530  11.078  0.3767  0.1931  0.5020
  978MOL0     H29043   5.287   9.642  11.242  0.6867  0.0899 -1.3589
  978MOL0     H29044   5.232   9.489  11.332  1.2442  2.4439  1.4322
  978MOL0     H29045   5.055   9.479  11.133 -0.7942 -0.4781  0.1039
  978MOL0     H29046   5.029   9.558  11.275 -0.6211 -1.4063 -0.5763
  978MOL0     H29047   5.118   9.695  11.015  2.3939  2.9517  0.5633
  978MOL0     H29048   5.132   9.774  11.176  1.3471 -1.2920  0.6516
  978MOL0     H29049   4.855   9.678  11.293  4.6208 -0.1774 -0.2627
  978MOL0     H29050   4.595   9.557  11.220  1.2733  1.5368 -0.3378
  978MOL0     H29051   4.519   9.681  11.108  0.9898 -0.4846 -2.1138
  978MOL0     H29052   4.533   9.847  11.258  0.5152  1.5648  3.0316
  978MOL0     H29053   4.654   9.784  11.363  0.3505 -0.7907  0.4200
  978MOL0     H29054   4.468   9.617  11.449 -2.6697  0.1188 -0.5431
  978MOL0     H29055   4.442   9.795  11.467  0.0697  1.0495 -1.4995
  978MOL0     H29056   4.336   9.591  11.247 -1.1617  1.9132 -3.3131
  978MOL0     H29057   4.303   9.765  11.239  2.4046  1.5876 -0.7073
  978MOL0     H29058   4.147   9.620  11.152 -1.0431  3.4367 -0.6979
  978MOL0     H29059   3.921   9.625  11.063  1.5930  0.7356 -0.2789
  978MOL0     H29060   3.431   9.533  11.479 -1.7591  3.4985  2.7630
  978MOL0     H29061   3.171   9.551  11.466 -0.8056  0.9129 -0.9459
  978MOL0     H29062   3.026   9.650  11.091  4.6029  0.2253  3.5537
  978MOL0     H29063   3.013   9.815  11.100  3.4226  0.3912 -0.6175
  978MOL0     H29064   2.809   9.610  11.196  0.0106  0.8570  1.1030
  978MOL0     H29065   2.794   9.706  11.046 -1.3874 -0.0104 -0.7688
  978MOL0     H29066   2.799   9.902  11.180  2.0872 -1.1527 -2.1608
  978MOL0     H29067   2.827   9.814  11.325  0.7684 -4.6072  1.0192
  978MOL0     H29068   2.585   9.891  11.294 -1.8213  0.4517 -3.0046
  978MOL0     H29069   2.566   9.762  11.168  2.2937 -0.4232 -1.6190
  978MOL0     H29070   2.645   9.681  11.452  0.3527  1.1031 -0.4161
  978MOL0     H29071   2.566   9.591  11.323 -1.9527  0.0904 -0.3763
  978MOL0     H29072   2.371   9.744  11.342  3.2332 -0.0930 -1.0254
  978MOL0     H29073   2.450   9.838  11.475  0.8670  1.3231 -1.7468
  978MOL0     H29074   2.347   9.543  11.483 -1.5523 -0.1420 -0.5643
  978MOL0     H29075   2.440   9.615  11.611  0.0500 -3.1603 -0.8485
  978MOL0     H29076   2.158   9.646  11.603 -0.8934  0.5586  0.6188
  978MOL0     H29077   2.191   9.760  11.482  0.8254 -1.6241 -0.9379
  978MOL0     H29078   3.228   9.764  11.103 -0.6734  0.0523 -0.0005
  978MOL0     H29079   3.470   9.712  11.109 -0.6227 -2.3031 -1.5671
  978MOL0     H29080   3.789   9.662  11.480  2.5598  1.2427  2.0194
  978MOL0     H29081   4.028   9.685  11.539 -2.7931 -2.6010  1.7173
  978MOL0     H29082   5.942   9.634  11.158 -1.7889 -2.4182  0.8371
  978MOL0     H29083   6.162   9.758  11.166  2.3805 -0.6783 -1.2230
  978MOL0     H29084   6.767   9.540  11.131  1.7809 -1.5723  2.0584
  978MOL0     H29085   6.971   9.625  11.216 -0.6549 -2.9768  1.0051
  978MOL0     H29086   7.132   9.672  11.385  0.2907 -1.2054  2.5409
  978MOL0     H29087   7.184   9.797  11.491  2.8769  2.5779 -2.8024
  978MOL0     H29088   7.137   9.897  11.215 -0.4376 -2.7214 -0.5639
  978MOL0     H29089   7.200   9.958  11.368  1.1825 -2.1165  1.6531
  978MOL0     H29090   7.383   9.901  11.220 -0.1854 -0.4545  0.5947
  978MOL0     H29091   7.312   9.748  11.172 -4.4470 -1.7072  0.3517
  978MOL0     H29092   7.397   9.801  11.455  2.0888 -1.0993  0.3792
  978MOL0     H29093   7.352   9.651  11.386 -0.0460  0.2268  2.0879
  978MOL0     H29094   7.730   9.681  11.219 -0.8463 -0.3531 -1.9233
  978MOL0     H29095   6.775   9.916  11.458  1.4078  0.1979  0.6161
  978MOL0     H29096   6.552   9.853  11.347 -0.3219 -0.6666  0.1835
  979MOL0     O29097   5.745   5.490   5.840 -0.3194  0.3239  0.1117
  979MOL0     C29098   5.825   5.441   5.764  1.0837  1.4172  0.1457
  979MOL0     O29099   5.884   5.502   5.662 -0.4269  0.2192  0.8687
  979MOL0     C29100   5.837   5.623   5.616 -0.0633 -0.4497 -0.1423
  979MOL0     C29101   5.929   5.726   5.584 -0.6482 -0.2445 -0.8056
  979MOL0     C29102   5.895   5.851   5.536 -0.5797  0.0720 -0.7546
  979MOL0     C29103   5.756   5.870   5.495  0.3707 -0.7371  0.5597
  979MOL0     O29104   5.733   5.989   5.434 -0.0381  0.3898  0.0247
  979MOL0     C29105   5.595   6.027   5.419 -0.5392  0.8340 -0.2849
  979MOL0     C29106   5.594   6.167   5.350 -0.4240  0.3054  0.3533
  979MOL0     C29107   5.464   6.208   5.278  0.5061  0.6363 -0.3658
  979MOL0     C29108   5.356   6.259   5.381 -1.0503  0.4995 -0.2977
  979MOL0     C29109   5.243   6.323   5.314  0.1199  0.6577  0.6041
  979MOL0     C29110   5.174   6.408   5.428 -1.1850 -0.8253 -0.4606
  979MOL0     C29111   5.042   6.461   5.366  0.9307 -0.5654 -0.2693
  979MOL0     C29112   4.998   6.591   5.444 -0.2230 -0.6551  0.0994
  979MOL0     N29113   5.059   6.713   5.394 -0.3048  0.1093  0.6448
  979MOL0     C29114   5.148   6.786   5.466 -0.1139 -0.2029  1.1274
  979MOL0     C29115   5.169   6.898   5.395  0.1022  0.0885 -0.0508
  979MOL0     C29116   5.258   7.015   5.433  0.4038 -0.1043 -0.4763
  979MOL0     C29117   5.189   7.117   5.524 -0.5840 -0.4532 -0.6913
  979MOL0     C29118   5.291   7.233   5.562  0.5282 -0.9031 -0.5744
  979MOL0     C29119   5.230   7.360   5.513  0.3432 -0.8462  0.0389
  979MOL0     O29120   5.238   7.368   5.367  0.3185  0.4377  0.4032
  979MOL0     C29121   5.138   7.422   5.300  0.4727  0.1153 -0.8465
  979MOL0     C29122   5.100   7.356   5.188  0.3543 -1.5811  0.2748
  979MOL0     C29123   4.996   7.402   5.107 -1.3641 -0.2541 -0.2735
  979MOL0     C29124   4.932   7.526   5.135 -0.2976 -0.9501 -0.0662
  979MOL0     C29125   4.840   7.595   5.048  0.8681  0.5083 -0.8773
  979MOL0     O29126   4.774   7.512   4.960  0.2053  0.1454  0.1120
  979MOL0     C29127   4.640   7.530   4.936  0.4021  0.2901  0.4390
  979MOL0     C29128   4.586   7.483   4.808  0.9400 -0.6723 -0.3827
  979MOL0     C29129   4.449   7.504   4.783  0.4936  0.4718 -0.6188
  979MOL0     C29130   4.362   7.550   4.879  0.2199 -0.5675 -0.3430
  979MOL0     O29131   4.232   7.554   4.837 -0.2360  0.5636 -0.4203
  979MOL0     C29132   4.131   7.609   4.921 -0.2214  0.1042  0.2108
  979MOL0     C29133   4.000   7.565   4.850  0.4374  0.8632  0.2016
  979MOL0     C29134   3.892   7.574   4.954 -0.0034  0.0464  0.1537
  979MOL0     C29135   3.757   7.598   4.893 -0.0848 -0.0293  1.0020
  979MOL0     C29136   3.710   7.469   4.824  0.4054  1.1921 -0.4816
  979MOL0     C29137   3.563   7.479   4.775  0.4958  1.4139  0.7393
  979MOL0     C29138   3.512   7.345   4.705 -0.4580 -0.5602  0.6141
  979MOL0     C29139   3.378   7.294   4.760  0.6596 -0.6544  0.5422
  979MOL0    Cl29140   3.396   7.242   4.922  0.1508  0.2665 -0.2303
  979MOL0     C29141   4.404   7.576   5.013 -0.2228  0.2442 -0.6374
  979MOL0     C29142   4.541   7.560   5.040 -0.6291 -0.2680 -0.6755
  979MOL0     O29143   4.826   7.719   5.056  0.2075 -0.5885 -0.5593
  979MOL0     C29144   4.969   7.593   5.251 -0.0286  0.1872 -0.1220
  979MOL0     C29145   5.066   7.537   5.332 -0.0652  0.0067  0.5363
  979MOL0     N29146   5.082   6.903   5.285 -0.1106 -0.8948 -1.0990
  979MOL0     N29147   5.015   6.785   5.287 -0.2442 -0.8502 -0.0500
  979MOL0     C29148   5.664   5.770   5.520 -0.4722 -0.3429 -0.7737
  979MOL0     C29149   5.705   5.648   5.582  0.7139 -0.6564 -0.4972
  979MOL0     C29150   5.865   5.290   5.774 -0.3238  0.5620 -0.4793
  979MOL0     C29151   5.952   5.228   5.689  0.3609 -1.1902  0.5239
  979MOL0     C29152   5.976   5.096   5.687  0.1317  0.3326 -0.5882
  979MOL0     C29153   5.893   5.005   5.770 -0.5059  0.5872  0.1115
  979MOL0     O29154   5.917   4.870   5.747 -0.5150  0.4338 -0.0652
  979MOL0     C29155   5.836   4.780   5.827 -1.0674 -0.1968  0.2082
  979MOL0     C29156   5.878   4.773   5.976 -0.3381 -0.0867  0.3399
  979MOL0     C29157   6.001   4.682   6.005 -1.1653 -0.6292  0.0327
  979MOL0     C29158   5.953   4.537   6.013 -0.3307 -0.1393 -0.1755
  979MOL0     C29159   6.065   4.434   6.026 -0.0948  0.3061  0.3121
  979MOL0     C29160   6.143   4.338   6.027 -0.8112 -0.3629 -0.1837
  979MOL0     C29161   5.803   5.064   5.860 -0.3952 -0.3791  0.3896
  979MOL0     C29162   5.795   5.205   5.869 -0.0809 -0.7702  0.9634
  979MOL0     H29163   6.037   5.711   5.587 -0.7885 -1.3028 -0.4480
  979MOL0     H29164   5.972   5.925   5.512  1.2223 -1.4997 -0.0832
  979MOL0     H29165   5.540   6.021   5.513  0.5541 -0.3764  0.3217
  979MOL0     H29166   5.540   5.957   5.356 -0.2257 -0.0137  0.3482
  979MOL0     H29167   5.669   6.172   5.270  0.8413 -3.5845  1.1030
  979MOL0     H29168   5.626   6.227   5.436  1.0016 -2.2356  1.7351
  979MOL0     H29169   5.436   6.117   5.224  1.0134  0.6948 -0.7383
  979MOL0     H29170   5.484   6.282   5.200  3.5269  1.8257  1.3769
  979MOL0     H29171   5.319   6.171   5.434  1.8111  0.2422  1.4522
  979MOL0     H29172   5.399   6.327   5.456  2.4773 -0.2699 -1.4639
  979MOL0     H29173   5.188   6.243   5.263 -1.0021  2.4938 -1.2285
  979MOL0     H29174   5.280   6.394   5.239  0.2417 -0.6490 -0.6128
  979MOL0     H29175   5.241   6.493   5.447 -0.4902 -1.5052  0.2071
  979MOL0     H29176   5.169   6.346   5.518 -2.0297  0.5376  0.4756
  979MOL0     H29177   5.052   6.487   5.260 -0.9321  2.1609  0.1121
  979MOL0     H29178   4.983   6.372   5.388  0.1403 -0.7061 -2.7419
  979MOL0     H29179   5.021   6.581   5.550 -3.4166  1.4728  1.1494
  979MOL0     H29180   4.889   6.593   5.444 -0.2521  0.6504  2.4766
  979MOL0     H29181   5.209   6.762   5.552  0.3836  0.6854  1.0349
  979MOL0     H29182   5.277   7.065   5.338 -4.3106  1.1905 -0.9914
  979MOL0     H29183   5.346   6.984   5.490 -0.3219  1.7336  1.8295
  979MOL0     H29184   5.153   7.065   5.613 -1.7099  0.4854 -0.5636
  979MOL0     H29185   5.094   7.149   5.480 -0.3374 -0.6764 -1.4043
  979MOL0     H29186   5.295   7.247   5.671  2.3216  0.4714 -0.7766
  979MOL0     H29187   5.392   7.212   5.528  0.2766 -0.8062 -1.4014
  979MOL0     H29188   5.276   7.449   5.556 -1.0639  1.5188 -3.0482
  979MOL0     H29189   5.124   7.354   5.540 -0.3895 -3.7444 -2.8579
  979MOL0     H29190   5.157   7.267   5.163  0.9855 -0.4007 -2.9978
  979MOL0     H29191   4.960   7.359   5.014  1.8743  0.8238 -2.1893
  979MOL0     H29192   4.659   7.453   4.734  0.0446 -1.2761 -1.0306
  979MOL0     H29193   4.407   7.473   4.688 -2.8680 -0.2433  0.9340
  979MOL0     H29194   4.144   7.717   4.932 -0.5564  0.1832 -0.1408
  979MOL0     H29195   4.129   7.561   5.020 -3.8144  1.1539  0.8116
  979MOL0     H29196   4.003   7.468   4.800 -1.7197  0.5321  0.5999
  979MOL0     H29197   3.974   7.632   4.768  1.8420  0.7606 -0.3474
  979MOL0     H29198   3.906   7.667   5.010 -0.8417 -0.3162  0.9989
  979MOL0     H29199   3.914   7.486   5.016  0.2160  0.6780  0.9986
  979MOL0     H29200   3.689   7.628   4.973 -0.7348 -0.6782  0.7017
  979MOL0     H29201   3.762   7.680   4.821 -3.2790 -0.1559  0.4850
  979MOL0     H29202   3.718   7.383   4.891 -0.0519  2.4203  1.2166
  979MOL0     H29203   3.776   7.445   4.740  0.8906 -0.5120  0.3484
  979MOL0     H29204   3.569   7.565   4.708  4.9100  2.0649  1.6591
  979MOL0     H29205   3.493   7.505   4.855 -0.5979 -2.2098  1.1543
  979MOL0     H29206   3.500   7.375   4.601 -1.0037  1.6172  1.2464
  979MOL0     H29207   3.583   7.263   4.719  0.4352  0.0760 -0.1273
  979MOL0     H29208   3.334   7.213   4.701 -0.5461  0.4337 -0.1021
  979MOL0     H29209   3.303   7.374   4.761  0.3271 -0.8374 -2.4142
  979MOL0     H29210   4.331   7.585   5.093 -0.1406  3.3596 -0.8155
  979MOL0     H29211   4.576   7.572   5.142  1.6640  4.2066 -1.7203
  979MOL0     H29212   4.929   7.687   5.285  1.7865  0.9320  0.0438
  979MOL0     H29213   5.092   7.588   5.424  2.8355 -2.5298  1.2960
  979MOL0     H29214   5.563   5.788   5.485 -0.5594  1.1347  0.1386
  979MOL0     H29215   5.631   5.568   5.585  0.4278 -0.4611 -1.7783
  979MOL0     H29216   6.010   5.296   5.627 -0.3800 -2.1331 -1.2798
  979MOL0     H29217   6.043   5.061   5.608  1.4219  1.1860  0.0842
  979MOL0     H29218   5.838   4.683   5.777  1.5249  0.9082 -2.0569
  979MOL0     H29219   5.732   4.816   5.820 -1.2150 -0.9167 -3.6378
  979MOL0     H29220   5.902   4.874   6.008  0.4257  0.7922 -2.6622
  979MOL0     H29221   5.787   4.733   6.021 -3.6464 -0.5646 -5.6708
  979MOL0     H29222   6.059   4.724   6.088 -2.4646  0.6469  0.3360
  979MOL0     H29223   6.071   4.690   5.921  2.2201 -1.2826  2.5437
  979MOL0     H29224   5.878   4.530   6.093 -4.2869  2.2338 -3.2278
  979MOL0     H29225   5.894   4.507   5.925 -2.8291 -2.2047  2.0363
  979MOL0     H29226   6.207   4.252   6.036 -0.2844  0.1499  1.2033
  979MOL0     H29227   5.732   5.020   5.929  0.4134  0.5480  1.8680
  979MOL0     H29228   5.716   5.255   5.923 -0.7116 -0.3312 -0.3350
  980MOL0     O29229   2.555   3.765   4.042  1.2773  0.2470 -0.2981
  980MOL0     C29230   2.512   3.816   4.152 -0.3694  0.4480  1.1533
  980MOL0     O29231   2.516   3.949   4.180  0.3008  1.2118 -0.1064
  980MOL0     C29232   2.587   4.028   4.093 -0.1839  0.6925 -0.4835
  980MOL0     C29233   2.716   4.044   4.136  0.1709 -0.0218  0.2862
  980MOL0     C29234   2.806   4.111   4.047  1.2626 -0.3647 -0.8542
  980MOL0     C29235   2.751   4.175   3.935  0.5833  0.0765  0.2170
  980MOL0     O29236   2.825   4.266   3.861 -0.1836 -0.6304  0.0030
  980MOL0     C29237   2.970   4.252   3.841  0.8332  0.6672 -0.3059
  980MOL0     C29238   3.022   4.371   3.927 -0.6487  0.3568  0.3572
  980MOL0     C29239   3.172   4.404   3.893  0.9578 -0.3430 -0.2974
  980MOL0     C29240   3.207   4.539   3.967 -0.0430 -0.0475  1.3429
  980MOL0     C29241   3.347   4.595   3.949 -0.0250 -1.4782  0.3009
  980MOL0     C29242   3.343   4.731   4.025 -0.3275  0.0454 -0.5883
  980MOL0     C29243   3.483   4.797   4.021 -0.4402  0.5842 -0.0537
  980MOL0     C29244   3.493   4.944   4.065 -0.3474  0.2738 -0.5073
  980MOL0     N29245   3.481   5.040   3.966  0.3439 -0.3226 -0.9996
  980MOL0     C29246   3.524   5.165   3.975 -0.2001  0.1269 -0.5867
  980MOL0     C29247   3.470   5.227   3.864  0.7032  0.3424 -0.1776
  980MOL0     C29248   3.504   5.367   3.848  0.2929 -0.5563  0.6943
  980MOL0     C29249   3.389   5.464   3.889 -0.6379  0.4060 -0.0490
  980MOL0     C29250   3.342   5.455   4.037  0.2601  0.2524  0.5349
  980MOL0     C29251   3.459   5.470   4.134  0.1965 -0.7411 -0.0915
  980MOL0     O29252   3.540   5.586   4.112  0.3697  0.0805  0.2558
  980MOL0     C29253   3.493   5.714   4.118  0.7080 -0.9033  0.0925
  980MOL0     C29254   3.564   5.814   4.058  0.2164 -0.1138 -0.7745
  980MOL0     C29255   3.527   5.950   4.080  0.1776 -0.0848  0.5732
  980MOL0     C29256   3.409   5.986   4.153  0.5969 -0.4635  0.2106
  980MOL0     C29257   3.363   6.127   4.163  0.0704 -0.7046  0.0173
  980MOL0     O29258   3.225   6.134   4.172 -0.0382 -0.1489 -0.1228
  980MOL0     C29259   3.178   6.262   4.170  0.6613 -0.4839  0.2428
  980MOL0     C29260   3.099   6.303   4.272 -0.6176 -0.8604  0.0655
  980MOL0     C29261   3.015   6.413   4.260 -0.2470 -0.1632  1.0185
  980MOL0     C29262   3.015   6.493   4.149  0.1800  0.4183  0.3691
  980MOL0     O29263   2.947   6.609   4.146 -0.1895  0.3337  0.3385
  980MOL0     C29264   2.998   6.732   4.082 -0.5311  0.9901 -0.7959
  980MOL0     C29265   2.897   6.852   4.078  0.5560  0.6133 -0.4871
  980MOL0     C29266   2.846   6.891   4.219  0.1281 -0.6969 -0.7178
  980MOL0     C29267   2.758   7.016   4.217  0.5534  1.0917 -0.3195
  980MOL0     C29268   2.735   7.052   4.369 -0.3450 -0.3672 -0.3357
  980MOL0     C29269   2.614   7.149   4.375  0.5343  0.7834  0.5181
  980MOL0     C29270   2.606   7.229   4.503  0.4513  0.4841 -0.6308
  980MOL0     C29271   2.485   7.320   4.513 -0.4340  0.0442  1.0148
  980MOL0    Cl29272   2.492   7.430   4.370 -0.3581  0.1514 -0.1070
  980MOL0     C29273   3.101   6.453   4.041 -0.0842  0.3008  0.5532
  980MOL0     C29274   3.177   6.333   4.046 -0.4692 -0.3062  0.8275
  980MOL0     O29275   3.445   6.218   4.152  0.1342 -0.1843  0.2926
  980MOL0     C29276   3.339   5.881   4.202  0.9355 -0.1021  0.5275
  980MOL0     C29277   3.380   5.750   4.182 -0.4227 -0.6142  0.1393
  980MOL0     N29278   3.383   5.150   3.797  0.3754  1.0184 -0.0062
  980MOL0     N29279   3.392   5.038   3.861 -0.3431 -0.5240 -0.9404
  980MOL0     C29280   2.621   4.162   3.891  0.7541  0.2374  0.5013
  980MOL0     C29281   2.530   4.092   3.976  0.3338  1.3002  0.1389
  980MOL0     C29282   2.435   3.739   4.253  0.3331  0.0174 -0.0154
  980MOL0     C29283   2.336   3.809   4.332  0.3133  0.3163  0.8276
  980MOL0     C29284   2.263   3.743   4.427  0.0639  0.0245 -0.4883
  980MOL0     C29285   2.270   3.608   4.450  0.1350 -0.7434 -0.4574
  980MOL0     O29286   2.192   3.549   4.544  0.8880 -0.4721 -0.0583
  980MOL0     C29287   2.119   3.427   4.504 -0.7018 -1.5980  0.1256
  980MOL0     C29288   1.977   3.408   4.563 -0.7858 -0.1979  0.5485
  980MOL0     C29289   1.978   3.388   4.716 -0.0266  0.5615  0.5840
  980MOL0     C29290   2.005   3.242   4.755 -1.0098 -0.2694  0.7606
  980MOL0     C29291   1.898   3.153   4.739 -0.7043 -0.4059 -0.6940
  980MOL0     C29292   1.808   3.076   4.743 -0.0829  1.2402 -0.4484
  980MOL0     C29293   2.353   3.535   4.362 -0.0202 -0.2161  0.8736
  980MOL0     C29294   2.428   3.600   4.261 -0.0308 -0.4796 -0.2866
  980MOL0     H29295   2.754   3.991   4.223 -1.0803 -2.7179 -0.6788
  980MOL0     H29296   2.906   4.144   4.075  2.0323 -3.0949 -0.1199
  980MOL0     H29297   2.981   4.253   3.732 -1.1810  0.5043 -0.5620
  980MOL0     H29298   3.004   4.153   3.872 -2.0308 -0.7418 -1.2858
  980MOL0     H29299   3.015   4.352   4.034 -1.4780 -3.3883 -0.2302
  980MOL0     H29300   2.959   4.459   3.907 -3.5315 -1.8255 -0.9240
  980MOL0     H29301   3.195   4.419   3.787  1.0014 -2.6016 -0.6607
  980MOL0     H29302   3.239   4.322   3.919  1.7742  0.2212 -0.5660
  980MOL0     H29303   3.132   4.610   3.931  0.4766  0.3395  1.0139
  980MOL0     H29304   3.202   4.518   4.074  1.3800  0.4120  1.5182
  980MOL0     H29305   3.359   4.623   3.844 -0.5168 -0.7473  0.4348
  980MOL0     H29306   3.423   4.527   3.989 -0.2627 -0.0597  3.5103
  980MOL0     H29307   3.322   4.712   4.131  3.3593 -0.7856  0.1352
  980MOL0     H29308   3.264   4.792   3.982 -0.9520 -0.9728 -0.9042
  980MOL0     H29309   3.555   4.745   4.084  1.7048  1.4028 -1.7100
  980MOL0     H29310   3.512   4.794   3.916 -0.9919 -3.2178 -0.2197
  980MOL0     H29311   3.586   4.956   4.122 -0.2689  1.7265 -0.9151
  980MOL0     H29312   3.407   4.969   4.127 -0.8223  0.8487 -1.3686
  980MOL0     H29313   3.610   5.196   4.035 -1.1011 -2.5844  2.3726
  980MOL0     H29314   3.526   5.382   3.742 -1.5877 -0.1720  0.3238
  980MOL0     H29315   3.597   5.383   3.905  1.4917  0.2198 -1.3675
  980MOL0     H29316   3.305   5.445   3.823 -2.3890  3.9302  0.8805
  980MOL0     H29317   3.409   5.572   3.881 -2.2084  0.7291 -0.0246
  980MOL0     H29318   3.276   5.541   4.055 -0.3676 -0.0284 -0.3511
  980MOL0     H29319   3.286   5.363   4.055 -1.0410  0.9485  0.2006
  980MOL0     H29320   3.536   5.393   4.118  2.6427  1.5390 -0.0346
  980MOL0     H29321   3.437   5.481   4.241  0.5274  0.1338 -0.1070
  980MOL0     H29322   3.641   5.788   3.986  1.5517 -0.0535  0.5901
  980MOL0     H29323   3.585   6.028   4.032  1.6493 -1.2880  0.3236
  980MOL0     H29324   3.117   6.252   4.366  1.0037 -0.5185 -0.0324
  980MOL0     H29325   2.961   6.442   4.350 -0.0382 -1.6484  1.6489
  980MOL0     H29326   3.017   6.703   3.978 -1.1223 -1.3215 -0.3118
  980MOL0     H29327   3.095   6.760   4.125 -0.7299  2.6653 -1.3644
  980MOL0     H29328   2.805   6.835   4.021 -0.3566  1.1303  0.7833
  980MOL0     H29329   2.957   6.928   4.027 -0.4330  0.2783 -2.2242
  980MOL0     H29330   2.918   6.904   4.301 -0.3848 -1.0693 -0.1970
  980MOL0     H29331   2.783   6.810   4.258 -4.0228  2.0659 -1.1479
  980MOL0     H29332   2.815   7.089   4.158  1.9910 -1.1943 -1.9438
  980MOL0     H29333   2.665   6.982   4.171  0.9840 -1.0943  0.3183
  980MOL0     H29334   2.820   7.104   4.414  0.1424 -1.3951 -0.0534
  980MOL0     H29335   2.709   6.963   4.427  0.9611 -0.6205 -0.1239
  980MOL0     H29336   2.522   7.089   4.372  0.4452  0.9300 -1.8060
  980MOL0     H29337   2.604   7.219   4.291 -3.8258  1.5060  1.3579
  980MOL0     H29338   2.608   7.159   4.588  0.6263  1.6489  0.3591
  980MOL0     H29339   2.688   7.300   4.517 -0.4147  1.1947  1.2863
  980MOL0     H29340   2.486   7.380   4.604  0.1437 -1.6436  2.1800
  980MOL0     H29341   2.391   7.264   4.520 -1.0500  0.8463 -0.4738
  980MOL0     H29342   3.105   6.519   3.955 -0.9644  2.3543  1.9936
  980MOL0     H29343   3.239   6.306   3.961 -2.6735  0.2849 -1.0895
  980MOL0     H29344   3.245   5.905   4.250  2.5511  2.3315  2.7370
  980MOL0     H29345   3.306   5.690   4.234  0.1624 -0.3135  1.3559
  980MOL0     H29346   2.585   4.206   3.798  1.3845 -1.1720 -0.4416
  980MOL0     H29347   2.422   4.090   3.966  0.2121 -1.6172  0.9894
  980MOL0     H29348   2.321   3.917   4.334 -2.3110  0.0435  0.1429
  980MOL0     H29349   2.190   3.803   4.481  1.1840  0.7851  0.2306
  980MOL0     H29350   2.184   3.348   4.541  1.8176 -0.1960 -1.0826
  980MOL0     H29351   2.124   3.406   4.396 -1.9790 -1.7486  0.0794
  980MOL0     H29352   1.919   3.496   4.536  1.2417  0.7603 -1.0246
  980MOL0     H29353   1.931   3.325   4.509  0.2325  0.1576 -0.9332
  980MOL0     H29354   1.890   3.431   4.765  0.0512  0.2032  1.0319
  980MOL0     H29355   2.054   3.448   4.766 -0.1064  0.6702  0.5758
  980MOL0     H29356   2.082   3.199   4.691 -2.1266  2.7180 -2.9672
  980MOL0     H29357   2.032   3.245   4.861 -0.3148  1.5824  0.5748
  980MOL0     H29358   1.733   3.000   4.753 -0.1419  1.5655  2.4556
  980MOL0     H29359   2.367   3.429   4.375  1.6549  0.1862  2.7793
  980MOL0     H29360   2.490   3.559   4.182 -0.8273  2.6398 -2.7131
  981MOL0     O29361   9.062   6.134   2.658 -0.3036  0.2218 -0.1442
  981MOL0     C29362   9.058   6.073   2.552 -0.1749  1.2210 -0.2084
  981MOL0     O29363   8.946   6.032   2.493 -0.6349 -0.3442 -0.2241
  981MOL0     C29364   8.822   6.030   2.554  0.0244 -0.4395 -1.2199
  981MOL0     C29365   8.734   5.936   2.513  0.6404 -0.0017 -0.3599
  981MOL0     C29366   8.599   5.932   2.564 -0.6275  0.5590  0.3992
  981MOL0     C29367   8.555   6.029   2.659  0.0226 -0.0311 -0.2734
  981MOL0     O29368   8.428   6.039   2.724  0.1841  0.4349 -0.0419
  981MOL0     C29369   8.347   5.921   2.719 -0.7025 -0.2094  1.0527
  981MOL0     C29370   8.213   5.957   2.776 -0.4684  0.5432 -0.1305
  981MOL0     C29371   8.145   5.834   2.844 -0.6982 -0.0224 -0.2043
  981MOL0     C29372   7.996   5.854   2.885  0.8444  0.3060  0.6595
  981MOL0     C29373   7.917   5.734   2.825  0.4394  0.0570  0.1458
  981MOL0     C29374   7.771   5.740   2.834  0.4637  0.1848  0.2688
  981MOL0     C29375   7.703   5.860   2.774  0.8258  0.4040 -0.1138
  981MOL0     C29376   7.552   5.857   2.808 -0.1334 -0.4390 -0.2622
  981MOL0     N29377   7.480   5.777   2.715  0.2687  0.0232  0.0331
  981MOL0     C29378   7.450   5.816   2.593  0.1747 -0.7213 -0.1768
  981MOL0     C29379   7.370   5.726   2.541 -0.2179 -0.5390  0.9529
  981MOL0     C29380   7.301   5.717   2.402  0.2561 -0.0468 -0.3022
  981MOL0     C29381   7.153   5.681   2.385  0.2880  0.1195 -0.4438
  981MOL0     C29382   7.056   5.797   2.413  0.5843  0.1131 -0.2324
  981MOL0     C29383   6.919   5.772   2.372  0.9046 -0.3965 -0.5029
  981MOL0     O29384   6.859   5.898   2.372 -0.1174 -0.2710  0.7232
  981MOL0     C29385   6.722   5.894   2.359  0.3714  0.3724  0.0034
  981MOL0     C29386   6.663   6.024   2.355 -0.1150  0.5261  0.4115
  981MOL0     C29387   6.522   6.036   2.331  0.1074 -0.5638  0.3462
  981MOL0     C29388   6.448   5.926   2.302  1.5421  0.2013  1.4418
  981MOL0     C29389   6.307   5.938   2.263 -0.9177 -0.3905 -0.1799
  981MOL0     O29390   6.272   6.073   2.234 -0.0004 -0.0479 -0.4298
  981MOL0     C29391   6.157   6.110   2.191 -0.0231  0.5380  0.2839
  981MOL0     C29392   6.039   6.086   2.256  0.9939  0.3064 -0.5675
  981MOL0     C29393   5.912   6.111   2.207 -0.1055  0.3482 -0.3498
  981MOL0     C29394   5.906   6.187   2.089  0.7246  0.8697  0.3722
  981MOL0     O29395   5.789   6.233   2.035 -1.0478  0.2679  0.4989
  981MOL0     C29396   5.709   6.302   2.131  0.7756  0.6955  0.9593
  981MOL0     C29397   5.587   6.372   2.068  0.8394  0.1955  0.5623
  981MOL0     C29398   5.504   6.275   1.980 -0.7049  0.1120  0.3305
  981MOL0     C29399   5.407   6.356   1.889  1.8174  0.8931 -0.1232
  981MOL0     C29400   5.311   6.272   1.796 -1.1165  0.7786  0.6239
  981MOL0     C29401   5.240   6.370   1.702 -0.1024 -0.2649 -0.4299
  981MOL0     C29402   5.165   6.297   1.589  0.1430 -0.0836  0.0863
  981MOL0     C29403   5.104   6.375   1.479 -0.3643  0.0505  0.5958
  981MOL0    Cl29404   5.224   6.486   1.412  0.3395  0.5978 -0.2103
  981MOL0     C29405   6.023   6.221   2.024 -1.1289  0.0988  0.4881
  981MOL0     C29406   6.145   6.181   2.076  0.2808 -0.0880  0.4174
  981MOL0     O29407   6.233   5.839   2.269 -0.0852 -0.2248  0.0115
  981MOL0     C29408   6.508   5.799   2.306 -0.6072  0.6310  0.6494
  981MOL0     C29409   6.641   5.783   2.335 -0.4262  0.1388 -0.4227
  981MOL0     N29410   7.351   5.627   2.634  0.6349  0.0848 -1.0792
  981MOL0     N29411   7.415   5.664   2.741  0.2334 -0.4667  0.5245
  981MOL0     C29412   8.645   6.132   2.688  0.1735  0.6354 -1.1589
  981MOL0     C29413   8.780   6.138   2.632  0.9064  1.1849  0.4195
  981MOL0     C29414   9.179   6.055   2.471  0.2978  1.3726 -0.4000
  981MOL0     C29415   9.178   5.999   2.345  1.2901  0.3811 -0.6094
  981MOL0     C29416   9.290   5.964   2.274 -0.3947  0.3824  0.3048
  981MOL0     C29417   9.412   5.986   2.330 -1.2031  0.7542 -0.5278
  981MOL0     O29418   9.525   5.939   2.252 -0.3595 -0.0184  0.3658
  981MOL0     C29419   9.667   5.934   2.287  0.7482  0.5279  0.9754
  981MOL0     C29420   9.757   6.012   2.198 -0.6255  0.3523  0.3669
  981MOL0     C29421   9.739   5.978   2.047  0.5994 -0.5613 -0.3276
  981MOL0     C29422   9.854   5.898   1.982 -1.5811  1.0860 -0.0617
  981MOL0     C29423   9.868   5.766   2.044  0.2486  0.3408  0.1717
  981MOL0     C29424   9.900   5.664   2.109 -0.6411 -0.6995  1.0675
  981MOL0     C29425   9.422   6.047   2.456 -0.8366 -0.0497  0.0043
  981MOL0     C29426   9.308   6.081   2.530 -0.2731  1.2465  0.1598
  981MOL0     H29427   8.753   5.848   2.453 -0.4210 -1.1647  0.9454
  981MOL0     H29428   8.532   5.850   2.542 -2.4805  1.3457  2.7486
  981MOL0     H29429   8.396   5.841   2.776  1.9257  1.2308  0.9634
  981MOL0     H29430   8.329   5.886   2.617 -4.5014  2.0879  0.7679
  981MOL0     H29431   8.150   5.979   2.690  1.2909  0.0032 -1.6331
  981MOL0     H29432   8.215   6.035   2.852  0.8948 -0.9053  1.4131
  981MOL0     H29433   8.208   5.813   2.932 -0.5855  2.8048  0.4972
  981MOL0     H29434   8.157   5.753   2.772 -1.9476 -1.1597  0.8267
  981MOL0     H29435   7.976   5.864   2.992  0.6264  0.8902  0.5668
  981MOL0     H29436   7.961   5.942   2.830  1.5760 -0.4395 -1.0671
  981MOL0     H29437   7.935   5.640   2.878  1.2786  0.8565  1.3259
  981MOL0     H29438   7.940   5.718   2.719 -1.5633 -1.9328 -0.0604
  981MOL0     H29439   7.742   5.742   2.940  1.6410 -0.6492  0.6348
  981MOL0     H29440   7.726   5.652   2.788 -0.8460  1.1865 -0.4384
  981MOL0     H29441   7.744   5.947   2.827  0.5187  0.4779  0.0050
  981MOL0     H29442   7.735   5.856   2.670  2.1376  1.5666  0.1972
  981MOL0     H29443   7.508   5.957   2.805  1.6312  0.5018  1.9129
  981MOL0     H29444   7.543   5.819   2.911 -0.9899  0.0442 -0.1480
  981MOL0     H29445   7.481   5.907   2.543  0.3779 -1.0506 -0.6555
  981MOL0     H29446   7.345   5.638   2.340 -2.4546 -2.3525  0.4981
  981MOL0     H29447   7.315   5.819   2.365  4.8479  0.0373  1.0669
  981MOL0     H29448   7.143   5.603   2.460  0.0290 -1.8590 -2.4231
  981MOL0     H29449   7.134   5.634   2.288  1.0291 -1.0642 -0.0324
  981MOL0     H29450   7.066   5.796   2.522 -0.7395 -0.0464 -0.0987
  981MOL0     H29451   7.099   5.885   2.363 -1.5862  1.7153  0.5878
  981MOL0     H29452   6.872   5.703   2.442 -1.9398 -1.0785 -2.8839
  981MOL0     H29453   6.916   5.721   2.275  2.4990 -1.6697  0.0660
  981MOL0     H29454   6.738   6.102   2.349  0.4520 -0.0834 -3.3204
  981MOL0     H29455   6.475   6.134   2.323 -1.0074 -1.1670 -0.8574
  981MOL0     H29456   6.045   6.026   2.346 -0.6304  0.9282  0.0141
  981MOL0     H29457   5.823   6.081   2.262  1.0718 -0.4196  1.2495
  981MOL0     H29458   5.764   6.380   2.184 -2.0072  4.1538 -0.8499
  981MOL0     H29459   5.673   6.226   2.201 -0.8792  0.0174 -0.5466
  981MOL0     H29460   5.604   6.452   1.995  0.1202 -0.8019 -0.7540
  981MOL0     H29461   5.520   6.419   2.140 -0.6857  0.0004 -0.6531
  981MOL0     H29462   5.436   6.214   2.041 -1.2444 -0.7650 -1.0850
  981MOL0     H29463   5.567   6.212   1.915  0.4892  1.6595 -0.0574
  981MOL0     H29464   5.347   6.424   1.950 -0.4323 -1.0057 -0.0900
  981MOL0     H29465   5.464   6.411   1.814 -1.4146  1.1787 -2.5465
  981MOL0     H29466   5.231   6.227   1.856 -0.3925 -3.0050 -0.9726
  981MOL0     H29467   5.356   6.187   1.744 -1.0955  1.3432 -0.3166
  981MOL0     H29468   5.313   6.437   1.657  1.9629 -0.9517  1.7017
  981MOL0     H29469   5.182   6.436   1.768  3.0139  2.5072 -0.2204
  981MOL0     H29470   5.235   6.236   1.532 -1.3012  2.1470 -4.5954
  981MOL0     H29471   5.082   6.241   1.634  1.1791 -1.2475  0.5907
  981MOL0     H29472   5.020   6.429   1.522 -1.6055  0.0304 -1.6802
  981MOL0     H29473   5.065   6.318   1.395 -1.9641  1.2293  0.4903
  981MOL0     H29474   6.007   6.278   1.934 -2.1132 -2.5464 -1.1175
  981MOL0     H29475   6.222   6.210   2.004  0.0813  0.7611  0.5342
  981MOL0     H29476   6.451   5.711   2.277 -0.9732  1.1334 -0.1649
  981MOL0     H29477   6.677   5.681   2.345  0.1809  0.5476  2.0420
  981MOL0     H29478   8.608   6.210   2.754 -0.2317  0.4988 -1.2205
  981MOL0     H29479   8.847   6.221   2.654  3.0557  0.0668 -1.5377
  981MOL0     H29480   9.077   5.967   2.322 -0.3250  1.8303  3.5265
  981MOL0     H29481   9.289   5.920   2.175  1.8257 -0.0675  0.4413
  981MOL0     H29482   9.695   5.830   2.303 -0.8982 -0.0916  0.1274
  981MOL0     H29483   9.683   5.977   2.386 -2.5682 -0.6392  2.1562
  981MOL0     H29484   9.743   6.119   2.216  1.3140  1.2373 -2.5394
  981MOL0     H29485   9.863   5.996   2.221 -0.7958  2.0080  2.5841
  981MOL0     H29486   9.738   6.076   2.000  1.6843 -0.9800 -1.2593
  981MOL0     H29487   9.644   5.926   2.026  1.3054 -1.3748 -1.6571
  981MOL0     H29488   9.820   5.873   1.881 -2.1609 -0.1818  0.4270
  981MOL0     H29489   9.951   5.947   1.993 -0.4347 -0.9060 -0.8041
  981MOL0     H29490   9.917   5.563   2.141 -2.6702 -0.8625  1.7970
  981MOL0     H29491   9.524   6.067   2.489 -2.0271 -0.1322  4.3563
  981MOL0     H29492   9.312   6.116   2.633 -0.8951  2.2754 -0.1489
  982MOL0     O29493   9.204   8.066   2.010 -1.1933  1.2567 -0.1369
  982MOL0     C29494   9.303   8.022   2.069 -0.5067  0.1833 -0.2417
  982MOL0     O29495   9.301   7.918   2.152 -0.2956  0.1367 -0.4192
  982MOL0     C29496   9.186   7.858   2.199  0.7182 -0.5284  0.1025
  982MOL0     C29497   9.207   7.787   2.316  0.0240  0.6817  0.1348
  982MOL0     C29498   9.102   7.719   2.378  0.4162 -0.1361 -0.0921
  982MOL0     C29499   8.982   7.706   2.314  1.0410 -0.4442 -0.2632
  982MOL0     O29500   8.875   7.634   2.359  0.3921  0.1226  0.9658
  982MOL0     C29501   8.862   7.559   2.478  0.8145 -0.8314 -0.6813
  982MOL0     C29502   8.718   7.516   2.482  0.0789 -0.3843  0.6639
  982MOL0     C29503   8.694   7.413   2.364 -0.4670  0.1711  0.5001
  982MOL0     C29504   8.548   7.365   2.377  0.3889 -0.2904 -0.4060
  982MOL0     C29505   8.521   7.275   2.261 -0.0745 -0.5579  1.1707
  982MOL0     C29506   8.389   7.210   2.274  0.3663  0.0122 -1.8399
  982MOL0     C29507   8.337   7.141   2.152  0.7185  0.2524 -0.0407
  982MOL0     C29508   8.216   7.051   2.196 -0.9266 -0.9379 -0.2468
  982MOL0     N29509   8.249   6.934   2.266  0.1620  0.4276  0.7920
  982MOL0     C29510   8.277   6.812   2.211  0.1151 -0.2850 -0.2487
  982MOL0     C29511   8.300   6.731   2.315  0.5132 -0.8581  0.1239
  982MOL0     C29512   8.324   6.592   2.294  0.5657  0.3407 -0.1449
  982MOL0     C29513   8.372   6.511   2.418 -0.9620  0.1509  0.4464
  982MOL0     C29514   8.402   6.356   2.387 -0.0485 -0.5196 -0.7482
  982MOL0     C29515   8.271   6.279   2.351 -0.4619 -0.0433 -0.6733
  982MOL0     O29516   8.307   6.139   2.364 -0.0850  0.1658  0.2146
  982MOL0     C29517   8.221   6.033   2.368 -0.6784  0.0940 -0.6545
  982MOL0     C29518   8.078   6.044   2.381  0.0344  0.2159 -0.2186
  982MOL0     C29519   7.997   5.929   2.377  0.7521 -0.3340  0.5592
  982MOL0     C29520   8.062   5.801   2.372  0.5985  0.5444  0.2156
  982MOL0     C29521   7.990   5.671   2.375  0.5429 -0.8250  0.2240
  982MOL0     O29522   7.863   5.671   2.339 -0.5656 -0.2977  0.2466
  982MOL0     C29523   7.792   5.552   2.339  0.8028 -0.1501  0.2706
  982MOL0     C29524   7.819   5.445   2.247  0.2030  0.8997 -0.3438
  982MOL0     C29525   7.730   5.345   2.238  0.2287 -0.3086  1.1071
  982MOL0     C29526   7.604   5.356   2.304 -1.0389 -0.3420 -0.1458
  982MOL0     O29527   7.498   5.277   2.286  0.7601  0.5473  0.4336
  982MOL0     C29528   7.491   5.228   2.153 -0.0324  0.0401  0.4411
  982MOL0     C29529   7.374   5.129   2.151 -0.0745  0.2859  0.0128
  982MOL0     C29530   7.368   5.066   2.008  0.5091 -0.4466 -0.1585
  982MOL0     C29531   7.228   5.022   1.965 -0.8006  0.4979 -0.7794
  982MOL0     C29532   7.213   5.006   1.817 -0.7361 -0.5651  0.7301
  982MOL0     C29533   7.188   5.139   1.741 -0.9130 -0.1400  0.6077
  982MOL0     C29534   7.217   5.128   1.588 -0.3111  0.1763  0.4378
  982MOL0     C29535   7.204   5.258   1.508  1.2184  0.4131 -0.0185
  982MOL0    Cl29536   7.231   5.226   1.336 -0.2184 -0.5757  0.4176
  982MOL0     C29537   7.575   5.459   2.394 -0.3272 -0.6305 -0.6426
  982MOL0     C29538   7.676   5.553   2.415  0.0364  0.4302 -0.1624
  982MOL0     O29539   8.060   5.572   2.400  0.7361 -0.2817  0.0700
  982MOL0     C29540   8.197   5.789   2.356 -0.1825  0.2736  0.5042
  982MOL0     C29541   8.279   5.902   2.352 -0.8298 -1.0502 -1.2076
  982MOL0     N29542   8.285   6.797   2.432 -0.2869  0.4878 -0.3198
  982MOL0     N29543   8.267   6.922   2.401  0.0139  0.4605  0.7617
  982MOL0     C29544   8.964   7.774   2.193  0.0550 -0.4690 -0.0279
  982MOL0     C29545   9.067   7.848   2.130 -0.1458 -0.0030 -0.0653
  982MOL0     C29546   9.421   8.103   2.048 -0.6715  0.5630 -0.6874
  982MOL0     C29547   9.527   8.103   2.142  0.4504 -0.4712  0.7736
  982MOL0     C29548   9.647   8.171   2.114  0.0140  1.0716  1.0428
  982MOL0     C29549   9.675   8.223   1.988  0.0095  0.5495  0.3857
  982MOL0     O29550   9.794   8.292   1.953  0.5826 -0.7572  0.6389
  982MOL0     C29551   9.882   8.342   2.049 -0.1685  0.0076  0.0536
  982MOL0     C29552  10.003   8.409   1.977  0.5524  0.6948 -0.7865
  982MOL0     C29553  10.118   8.426   2.081  0.4461  0.5775  0.0994
  982MOL0     C29554  10.221   8.521   2.020  0.7296  0.5985 -0.2457
  982MOL0     C29555  10.321   8.471   1.927  0.4293 -0.0328 -0.4717
  982MOL0     C29556  10.394   8.422   1.842  0.7331 -0.5581 -0.4216
  982MOL0     C29557   9.569   8.218   1.893 -0.2989 -0.0877 -0.2471
  982MOL0     C29558   9.444   8.163   1.923 -0.1942  0.3848 -0.3328
  982MOL0     H29559   9.304   7.787   2.365  0.7442 -0.8887 -1.1857
  982MOL0     H29560   9.111   7.663   2.470  0.3315 -0.0992 -0.0610
  982MOL0     H29561   8.894   7.621   2.563  0.5368 -0.2386 -1.0062
  982MOL0     H29562   8.911   7.461   2.477 -2.9701 -2.9693 -2.5826
  982MOL0     H29563   8.661   7.606   2.457  1.5636  0.5017  0.3375
  982MOL0     H29564   8.684   7.489   2.582 -0.0671  1.8109  1.2406
  982MOL0     H29565   8.761   7.326   2.367  1.5848  1.6321 -0.3197
  982MOL0     H29566   8.717   7.458   2.267  1.5493 -0.3612  0.6884
  982MOL0     H29567   8.529   7.305   2.467 -0.1081 -1.8449 -1.5015
  982MOL0     H29568   8.474   7.445   2.371 -1.5497 -1.9005  0.6036
  982MOL0     H29569   8.590   7.192   2.246  1.3125  1.0791 -2.6629
  982MOL0     H29570   8.519   7.334   2.169  2.7264  1.3458  2.1890
  982MOL0     H29571   8.315   7.287   2.299 -0.7887 -0.7490 -2.7996
  982MOL0     H29572   8.403   7.146   2.361  0.6049  1.0942 -1.0565
  982MOL0     H29573   8.297   7.208   2.076 -0.0720 -0.0236  0.1269
  982MOL0     H29574   8.408   7.076   2.100 -2.0698 -0.6851 -3.0073
  982MOL0     H29575   8.171   7.024   2.101  1.3759 -0.4451 -1.5645
  982MOL0     H29576   8.136   7.108   2.243  1.9691 -0.8183  5.4249
  982MOL0     H29577   8.261   6.781   2.108  2.1092  0.1702 -0.7265
  982MOL0     H29578   8.386   6.570   2.207  2.6191 -0.8252  1.5088
  982MOL0     H29579   8.226   6.554   2.266  0.7543 -1.2721  1.2224
  982MOL0     H29580   8.303   6.522   2.502 -0.1731  0.4036  1.0696
  982MOL0     H29581   8.462   6.564   2.449 -1.3504  2.4003 -1.8797
  982MOL0     H29582   8.465   6.337   2.300  0.0649  0.0228 -0.7865
  982MOL0     H29583   8.444   6.312   2.478  0.9557  0.4749 -0.7211
  982MOL0     H29584   8.233   6.302   2.251  0.2949 -1.6990 -1.3723
  982MOL0     H29585   8.200   6.299   2.432  0.8402 -0.6133  0.6666
  982MOL0     H29586   8.019   6.135   2.387 -0.6884  0.0177 -2.8278
  982MOL0     H29587   7.888   5.926   2.383  0.4644 -3.4841 -2.9930
  982MOL0     H29588   7.907   5.440   2.183 -2.0552  0.8795 -3.7420
  982MOL0     H29589   7.750   5.263   2.169 -1.5144  0.3235 -0.2258
  982MOL0     H29590   7.584   5.184   2.115 -1.3404 -2.2183 -0.3079
  982MOL0     H29591   7.458   5.309   2.087 -0.5896  0.3680  1.1139
  982MOL0     H29592   7.282   5.180   2.177 -2.2833 -3.0965 -0.5852
  982MOL0     H29593   7.389   5.050   2.225 -2.6349  0.1530  0.4565
  982MOL0     H29594   7.433   4.981   1.986  1.0469  0.4159 -2.2007
  982MOL0     H29595   7.385   5.152   1.943 -2.2027  1.2496  1.2053
  982MOL0     H29596   7.208   4.933   2.025  1.2532  0.2053 -0.4349
  982MOL0     H29597   7.157   5.093   2.009  0.9658  1.5977  0.4699
  982MOL0     H29598   7.143   4.924   1.793  1.3128 -1.6721 -2.0605
  982MOL0     H29599   7.313   4.967   1.793  0.1729  0.5061  2.5906
  982MOL0     H29600   7.253   5.216   1.784 -1.8639  0.2112  1.4564
  982MOL0     H29601   7.087   5.175   1.763 -0.9670 -0.0245  0.1853
  982MOL0     H29602   7.319   5.089   1.575 -1.4199 -3.5053  1.4384
  982MOL0     H29603   7.159   5.045   1.547  1.4872 -0.3668 -1.1332
  982MOL0     H29604   7.276   5.328   1.550  0.2470  2.9873 -2.3312
  982MOL0     H29605   7.102   5.287   1.533  0.4277 -1.0575 -1.3395
  982MOL0     H29606   7.482   5.480   2.445  1.6693  2.9652  2.0812
  982MOL0     H29607   7.651   5.646   2.464 -0.4081  0.5353 -0.5832
  982MOL0     H29608   8.250   5.694   2.351  1.7659  1.2850  1.1834
  982MOL0     H29609   8.383   5.876   2.335 -0.4951  0.5694 -1.7734
  982MOL0     H29610   8.865   7.755   2.152  0.5430 -1.6262 -0.7370
  982MOL0     H29611   9.044   7.889   2.032  1.1990 -0.5436 -0.6292
  982MOL0     H29612   9.522   8.049   2.236 -0.0354  1.1995  1.7522
  982MOL0     H29613   9.717   8.180   2.196  1.7238 -5.3851  0.7948
  982MOL0     H29614   9.933   8.263   2.107 -1.3933 -0.2515  0.8077
  982MOL0     H29615   9.838   8.414   2.118 -2.6454 -1.3208 -0.0485
  982MOL0     H29616  10.036   8.347   1.893 -1.9825  1.5555 -2.5540
  982MOL0     H29617   9.952   8.491   1.925 -0.7314  0.4450  0.0064
  982MOL0     H29618  10.169   8.331   2.100  2.9002  1.2912 -2.2782
  982MOL0     H29619  10.091   8.464   2.180 -0.5732  1.2812 -0.4379
  982MOL0     H29620  10.155   8.598   1.981 -0.6577 -0.1900  0.4651
  982MOL0     H29621  10.287   8.574   2.090  2.8351 -1.3845 -0.6233
  982MOL0     H29622  10.463   8.382   1.770 -0.9479  1.5263 -3.4347
  982MOL0     H29623   9.590   8.257   1.794 -0.8169  0.7600 -0.0295
  982MOL0     H29624   9.354   8.156   1.863 -2.1073  0.6260  2.2898
  983MOL0     O29625   8.498   7.337   7.004 -0.0821  1.0218  1.1105
  983MOL0     C29626   8.576   7.362   7.092 -0.4090 -0.1855 -0.0195
  983MOL0     O29627   8.556   7.476   7.179 -0.2793 -0.1153 -0.4420
  983MOL0     C29628   8.445   7.549   7.165  0.5091  0.5436 -0.0230
  983MOL0     C29629   8.463   7.683   7.145  0.0676  0.1582 -0.1982
  983MOL0     C29630   8.361   7.775   7.144  0.7396 -0.1130 -0.8051
  983MOL0     C29631   8.226   7.726   7.142  0.7652 -0.1784  0.6811
  983MOL0     O29632   8.127   7.822   7.134  0.3495 -0.3658 -0.7941
  983MOL0     C29633   7.994   7.797   7.192 -0.4760  0.4010  0.3056
  983MOL0     C29634   7.973   7.854   7.338 -0.7271  0.8926 -0.2714
  983MOL0     C29635   7.824   7.842   7.378 -0.3453 -0.3962  0.4993
  983MOL0     C29636   7.791   7.851   7.523  0.2516 -0.4684  0.8370
  983MOL0     C29637   7.643   7.874   7.533 -0.2307  0.0164  0.2596
  983MOL0     C29638   7.581   7.918   7.670  0.5356 -0.2672 -0.6918
  983MOL0     C29639   7.588   8.069   7.700  1.2739 -0.1494  0.8769
  983MOL0     C29640   7.518   8.103   7.837  0.2853 -0.1614  0.2899
  983MOL0     N29641   7.365   8.098   7.818 -0.3291 -0.4449 -0.0108
  983MOL0     C29642   7.284   7.999   7.855  0.0557  0.2108 -0.5138
  983MOL0     C29643   7.161   8.033   7.813  0.9049 -0.2464 -0.1858
  983MOL0     C29644   7.031   7.955   7.840  0.3598  1.3002  1.4550
  983MOL0     C29645   6.941   7.975   7.716  0.4475 -0.1568 -0.0825
  983MOL0     C29646   6.992   7.937   7.576  0.1429  0.2647 -0.2758
  983MOL0     C29647   6.876   7.944   7.469  0.2664 -0.7598 -0.2636
  983MOL0     O29648   6.824   8.078   7.470 -0.3218 -0.1125 -0.4387
  983MOL0     C29649   6.697   8.095   7.417  0.3795  0.1221  0.5894
  983MOL0     C29650   6.644   8.040   7.302 -0.6855  0.0979  1.0032
  983MOL0     C29651   6.521   8.074   7.243 -0.3477 -0.0877  0.3541
  983MOL0     C29652   6.450   8.177   7.314 -0.5027  0.9945  0.2834
  983MOL0     C29653   6.314   8.204   7.273  0.1185  0.0456  0.7707
  983MOL0     O29654   6.251   8.115   7.196  0.4446 -0.0048  0.7370
  983MOL0     C29655   6.126   8.132   7.152  0.3525  1.3157 -0.3531
  983MOL0     C29656   6.070   8.259   7.120  0.3433  1.2678 -0.2861
  983MOL0     C29657   5.932   8.283   7.088 -0.5275  0.0531  0.1557
  983MOL0     C29658   5.859   8.169   7.067 -0.6192  0.5393  0.4217
  983MOL0     O29659   5.735   8.201   7.029  0.3037 -0.7484 -0.7658
  983MOL0     C29660   5.661   8.095   6.966 -0.5249 -0.0344 -0.7398
  983MOL0     C29661   5.519   8.150   6.973 -0.6366 -0.7478  0.4220
  983MOL0     C29662   5.456   8.196   6.841 -0.1339  0.9021  0.4476
  983MOL0     C29663   5.305   8.170   6.836 -0.6514 -0.3796 -0.2555
  983MOL0     C29664   5.244   8.224   6.704 -0.0805 -0.0317  0.0714
  983MOL0     C29665   5.089   8.239   6.712 -0.4564 -0.2205  0.3143
  983MOL0     C29666   5.028   8.293   6.575 -0.7392 -0.1771  0.6388
  983MOL0     C29667   4.893   8.230   6.534 -0.5477  0.6451  0.6610
  983MOL0    Cl29668   4.823   8.326   6.399  0.2260  0.6616  0.3378
  983MOL0     C29669   5.914   8.038   7.076  0.2415 -0.3113 -0.1209
  983MOL0     C29670   6.044   8.017   7.123 -0.0945  0.6499 -0.0847
  983MOL0     O29671   6.272   8.316   7.301 -0.2981 -0.1206 -0.0198
  983MOL0     C29672   6.507   8.245   7.424  0.0759 -0.9280 -1.2178
  983MOL0     C29673   6.620   8.197   7.470 -0.2218 -1.4522 -0.3545
  983MOL0     N29674   7.170   8.161   7.751  0.4743  0.4680 -0.7344
  983MOL0     N29675   7.295   8.194   7.759  1.0617  0.2852 -0.2696
  983MOL0     C29676   8.208   7.584   7.148 -0.3103  0.3981 -0.2521
  983MOL0     C29677   8.312   7.499   7.173  0.2000  0.4177  0.0497
  983MOL0     C29678   8.705   7.300   7.105 -0.7558  0.9768 -0.7109
  983MOL0     C29679   8.736   7.186   7.032  0.2735 -0.2652 -0.1730
  983MOL0     C29680   8.867   7.143   7.020 -0.8602  0.9062 -0.1786
  983MOL0     C29681   8.980   7.194   7.095  0.1821 -0.6854  0.0713
  983MOL0     O29682   9.109   7.158   7.083 -0.4269 -0.3023 -0.6380
  983MOL0     C29683   9.154   7.071   6.977 -0.4801  0.0231  0.5742
  983MOL0     C29684   9.284   7.016   7.015 -0.1839  0.0537  0.0308
  983MOL0     C29685   9.386   7.133   7.048  0.4385 -0.1700  0.0172
  983MOL0     C29686   9.528   7.078   7.056 -0.3106  0.2789  0.6076
  983MOL0     C29687   9.567   7.017   6.930  0.8063  0.0583 -0.2040
  983MOL0     C29688   9.582   6.972   6.820 -0.1701  0.0648  0.3546
  983MOL0     C29689   8.938   7.296   7.183  0.5083  0.8896 -0.0985
  983MOL0     C29690   8.803   7.346   7.192 -0.2165 -1.3731 -0.0908
  983MOL0     H29691   8.565   7.714   7.125  0.1285 -1.7879 -3.5647
  983MOL0     H29692   8.392   7.879   7.134 -0.4150  0.5352  1.6030
  983MOL0     H29693   7.972   7.691   7.184 -0.9348  0.5943 -1.3481
  983MOL0     H29694   7.925   7.850   7.126 -0.3478 -1.4120 -1.3729
  983MOL0     H29695   8.008   7.958   7.339  0.9886  0.3376  0.9115
  983MOL0     H29696   8.046   7.809   7.405  0.5712  0.7873 -1.7045
  983MOL0     H29697   7.777   7.755   7.332 -0.0662  0.2016 -0.9754
  983MOL0     H29698   7.776   7.930   7.333 -0.3060 -0.6891 -0.1170
  983MOL0     H29699   7.813   7.754   7.567  1.7555 -1.4330 -1.8036
  983MOL0     H29700   7.844   7.930   7.577  1.3126 -2.1201  2.3382
  983MOL0     H29701   7.591   7.782   7.502  0.7725 -0.0863 -1.2196
  983MOL0     H29702   7.618   7.948   7.457 -0.0939 -2.2000 -2.1030
  983MOL0     H29703   7.630   7.874   7.758 -0.1666  0.6299  0.1780
  983MOL0     H29704   7.475   7.890   7.671  0.9020 -1.6928  0.2450
  983MOL0     H29705   7.696   8.082   7.698  1.2733 -0.1924  0.0463
  983MOL0     H29706   7.536   8.129   7.625 -1.0387 -3.1007 -0.0651
  983MOL0     H29707   7.555   8.203   7.860  3.0137 -1.2448  1.0548
  983MOL0     H29708   7.547   8.027   7.910 -1.8469 -0.8342  0.5070
  983MOL0     H29709   7.320   7.910   7.905 -0.1177  1.2113  1.4887
  983MOL0     H29710   6.979   7.985   7.931 -2.3852  1.2976 -0.0173
  983MOL0     H29711   7.062   7.850   7.837 -2.2717  0.4366 -1.8344
  983MOL0     H29712   6.914   8.081   7.715  1.8445  0.2726  1.5910
  983MOL0     H29713   6.853   7.912   7.732 -0.2181  0.4878 -1.0687
  983MOL0     H29714   7.058   8.014   7.536  0.2566  0.7770  0.8549
  983MOL0     H29715   7.051   7.846   7.562  2.2110  1.7363 -1.7063
  983MOL0     H29716   6.804   7.862   7.483  0.6684 -0.9712  0.6400
  983MOL0     H29717   6.928   7.931   7.373  0.6702  0.6499 -0.2543
  983MOL0     H29718   6.706   7.961   7.261  0.3532 -0.5032  3.5900
  983MOL0     H29719   6.468   8.019   7.166 -0.3134  0.6914 -0.2314
  983MOL0     H29720   6.120   8.355   7.122  1.5743  0.6392  1.3943
  983MOL0     H29721   5.888   8.381   7.068 -0.7368  0.4003  2.1203
  983MOL0     H29722   5.666   8.008   7.031 -1.4147  0.2539 -0.2749
  983MOL0     H29723   5.694   8.082   6.862 -2.2469 -1.5454 -1.1250
  983MOL0     H29724   5.509   8.235   7.041  1.1276 -1.1452  1.2196
  983MOL0     H29725   5.452   8.078   7.022 -3.4248  1.9150  0.8262
  983MOL0     H29726   5.503   8.143   6.757 -5.8730 -1.5922 -1.7388
  983MOL0     H29727   5.480   8.302   6.834  2.2113  0.2973 -3.1138
  983MOL0     H29728   5.283   8.063   6.844 -1.1092 -0.4155 -1.7060
  983MOL0     H29729   5.253   8.225   6.914 -0.3512  0.7077 -0.8070
  983MOL0     H29730   5.275   8.156   6.624  3.8234  1.8196 -0.2180
  983MOL0     H29731   5.295   8.321   6.696 -1.2881  0.8247  1.9812
  983MOL0     H29732   5.073   8.317   6.788 -1.6278 -1.1167  1.0200
  983MOL0     H29733   5.039   8.146   6.740 -1.4648 -0.1581 -1.1890
  983MOL0     H29734   5.017   8.401   6.587 -0.2591 -0.0362 -0.1209
  983MOL0     H29735   5.099   8.281   6.493  0.2192 -0.2910  1.4671
  983MOL0     H29736   4.823   8.233   6.618 -1.0349 -0.1003  0.2859
  983MOL0     H29737   4.892   8.127   6.499  0.5735  1.2596 -1.3628
  983MOL0     H29738   5.871   7.942   7.046  2.4541 -1.5937  0.5481
  983MOL0     H29739   6.088   7.919   7.140  0.2021  0.3834 -2.1538
  983MOL0     H29740   6.464   8.332   7.473  0.9977 -1.0505 -0.1529
  983MOL0     H29741   6.675   8.244   7.551  2.2791 -1.8412 -1.7125
  983MOL0     H29742   8.108   7.545   7.139  0.5158 -1.7771 -0.5643
  983MOL0     H29743   8.288   7.395   7.190 -3.0765  1.2804  1.5780
  983MOL0     H29744   8.655   7.154   6.967 -1.2174 -1.4014  2.1240
  983MOL0     H29745   8.889   7.068   6.945  0.4065  0.2473  0.8263
  983MOL0     H29746   9.171   7.138   6.893  1.4687 -0.7947  0.2620
  983MOL0     H29747   9.091   6.985   6.953  0.7772 -0.7475 -0.0922
  983MOL0     H29748   9.268   6.974   7.115 -1.5395  0.9361  0.2131
  983MOL0     H29749   9.310   6.950   6.932 -2.3743 -1.6566  0.6049
  983MOL0     H29750   9.352   7.190   7.134 -2.0745  3.7822 -3.2306
  983MOL0     H29751   9.377   7.206   6.967 -0.2809  0.3965  0.6018
  983MOL0     H29752   9.601   7.150   7.095  0.0112  0.4738 -0.3301
  983MOL0     H29753   9.542   7.003   7.134 -0.9881  0.5836  1.0419
  983MOL0     H29754   9.607   6.918   6.731 -3.2128 -1.9781  0.5874
  983MOL0     H29755   9.002   7.340   7.258  0.9224 -2.0081  1.3649
  983MOL0     H29756   8.774   7.418   7.269 -0.4324 -0.9942 -0.5190
  984MOL0     O29757  11.110   4.715   6.849 -0.9062  0.7865  0.2347
  984MOL0     C29758  11.080   4.643   6.758 -0.2787  0.3775 -0.1008
  984MOL0     O29759  10.960   4.626   6.705 -0.2722  0.4047  0.1692
  984MOL0     C29760  10.856   4.658   6.782 -0.7377  0.8334  0.0151
  984MOL0     C29761  10.778   4.757   6.725 -1.0776 -0.5222  0.1548
  984MOL0     C29762  10.655   4.784   6.776  0.2060  0.2317 -0.1546
  984MOL0     C29763  10.613   4.738   6.901  0.1303 -0.0730 -0.0205
  984MOL0     O29764  10.490   4.771   6.958 -0.3923 -0.2519  0.2682
  984MOL0     C29765  10.395   4.812   6.870  0.6243 -0.1750  0.2535
  984MOL0     C29766  10.271   4.851   6.948  0.2270  0.4029  0.0941
  984MOL0     C29767  10.178   4.726   6.960 -0.1776  0.0832  0.5609
  984MOL0     C29768  10.064   4.752   7.052 -1.1906  0.1059  0.0509
  984MOL0     C29769   9.938   4.674   7.044  0.7495  0.4545 -1.2404
  984MOL0     C29770   9.943   4.540   7.111 -0.8336  0.5250  0.0818
  984MOL0     C29771   9.800   4.477   7.119 -0.1752 -1.2123  0.0819
  984MOL0     C29772   9.793   4.339   7.181 -0.3934  0.2765 -1.3556
  984MOL0     N29773   9.659   4.289   7.176 -0.6098 -0.4193  0.0948
  984MOL0     C29774   9.594   4.242   7.063 -0.0391  0.0003 -0.0470
  984MOL0     C29775   9.482   4.191   7.110 -0.2116  0.3167  0.8024
  984MOL0     C29776   9.362   4.152   7.020  0.1954 -0.6457  0.5666
  984MOL0     C29777   9.261   4.068   7.086 -0.3132  0.3850 -0.1047
  984MOL0     C29778   9.126   4.074   7.006  0.3940  0.0939 -0.1591
  984MOL0     C29779   9.038   3.958   7.061 -1.2772  0.2832 -0.3003
  984MOL0     O29780   8.914   3.945   6.986  0.2201  0.0944  0.2371
  984MOL0     C29781   8.815   3.854   7.028  0.0055 -0.0353  1.0193
  984MOL0     C29782   8.696   3.859   6.949  0.8227 -0.2561 -0.6952
  984MOL0     C29783   8.596   3.765   6.978  0.0526  0.0923  0.0404
  984MOL0     C29784   8.595   3.685   7.092 -0.4059  1.2980  0.1184
  984MOL0     C29785   8.476   3.616   7.132  0.2871  0.0181 -0.3504
  984MOL0     O29786   8.357   3.635   7.063 -0.6791 -0.2105 -0.5938
  984MOL0     C29787   8.254   3.546   7.082 -0.8641  0.6707  0.7889
  984MOL0     C29788   8.133   3.589   7.144 -1.0127  0.1413 -0.2797
  984MOL0     C29789   8.024   3.501   7.159  0.5588  0.4810 -0.2259
  984MOL0     C29790   8.032   3.372   7.096  0.2160 -0.0760  0.1418
  984MOL0     O29791   7.925   3.282   7.096  0.3219 -0.3880 -0.1557
  984MOL0     C29792   7.795   3.328   7.148 -0.4292  0.2327  0.0893
  984MOL0     C29793   7.700   3.208   7.123  0.5051  0.0459 -0.6526
  984MOL0     C29794   7.605   3.190   7.240  0.7635  0.7611 -0.0393
  984MOL0     C29795   7.477   3.099   7.201  0.1425 -0.2789  0.1873
  984MOL0     C29796   7.384   3.089   7.325 -1.0418  0.2246 -0.0152
  984MOL0     C29797   7.255   3.014   7.287 -0.3457 -0.2742 -0.1047
  984MOL0     C29798   7.158   3.011   7.405 -0.2437 -0.1356 -0.0385
  984MOL0     C29799   7.023   2.942   7.385 -0.2692  0.3009  0.2650
  984MOL0    Cl29800   6.937   2.954   7.233 -0.5557 -0.0348 -0.1269
  984MOL0     C29801   8.145   3.334   7.042 -0.7615  0.3742  0.5207
  984MOL0     C29802   8.258   3.412   7.038  0.5316 -0.7063 -0.1481
  984MOL0     O29803   8.489   3.549   7.238 -0.5906  0.5765  0.3510
  984MOL0     C29804   8.716   3.684   7.164  0.9913  0.3591  0.8517
  984MOL0     C29805   8.824   3.762   7.131 -0.1607  0.0135  0.4673
  984MOL0     N29806   9.478   4.204   7.245 -0.1246 -0.1267  0.0253
  984MOL0     N29807   9.587   4.256   7.290  0.3444  0.7423  0.4282
  984MOL0     C29808  10.705   4.648   6.967 -0.2381  0.1660  0.0571
  984MOL0     C29809  10.821   4.606   6.911 -0.2846 -0.0814 -0.1471
  984MOL0     C29810  11.194   4.574   6.681  0.0835  0.5119 -0.7485
  984MOL0     C29811  11.164   4.467   6.595 -0.2254 -0.0580  0.6695
  984MOL0     C29812  11.269   4.396   6.530  0.4743 -0.4860 -0.1285
  984MOL0     C29813  11.405   4.418   6.564  0.2230 -0.4008  0.4417
  984MOL0     O29814  11.503   4.356   6.494 -0.2551  0.0982  0.4745
  984MOL0     C29815  11.489   4.225   6.433  0.4026 -0.2321 -1.1695
  984MOL0     C29816  11.628   4.168   6.397 -0.3383 -1.5813  0.0620
  984MOL0     C29817  11.695   4.242   6.274  0.1657 -0.1869  0.0866
  984MOL0     C29818  11.829   4.177   6.234  0.2484 -0.3145  0.3593
  984MOL0     C29819  11.933   4.193   6.329 -0.0866  0.2408 -0.4625
  984MOL0     C29820  12.008   4.214   6.427 -0.0173  0.5034 -0.0168
  984MOL0     C29821  11.434   4.513   6.655  1.4115 -0.1053 -0.6241
  984MOL0     C29822  11.333   4.594   6.716  0.2795  0.3637 -0.6225
  984MOL0     H29823  10.823   4.812   6.643 -0.0807  0.7700  1.4960
  984MOL0     H29824  10.589   4.836   6.708  0.8202  0.0830 -0.8882
  984MOL0     H29825  10.367   4.734   6.798 -0.3719 -1.7125  2.2220
  984MOL0     H29826  10.432   4.902   6.819 -1.1743  0.8656  0.6871
  984MOL0     H29827  10.216   4.933   6.899  0.4697  0.5358  0.0430
  984MOL0     H29828  10.296   4.891   7.047 -1.0477  3.1018 -0.5632
  984MOL0     H29829  10.244   4.645   6.994 -0.0583  0.4085  1.1252
  984MOL0     H29830  10.144   4.703   6.859  0.2239  2.5956 -0.2085
  984MOL0     H29831  10.110   4.738   7.151  1.7661  0.1111 -1.2176
  984MOL0     H29832  10.049   4.860   7.046  0.6252  0.3299 -1.2535
  984MOL0     H29833   9.910   4.653   6.941 -1.1612  0.4260 -0.7611
  984MOL0     H29834   9.864   4.732   7.100  2.0554  0.3306  0.7330
  984MOL0     H29835   9.989   4.544   7.210 -1.9033  1.6515  0.5525
  984MOL0     H29836  10.005   4.473   7.051  0.0260  0.0318  1.4877
  984MOL0     H29837   9.727   4.550   7.154  0.6758 -0.0842 -0.4520
  984MOL0     H29838   9.758   4.467   7.019 -0.7887  3.6450 -0.3850
  984MOL0     H29839   9.828   4.319   7.283 -5.1166 -2.9811 -0.0621
  984MOL0     H29840   9.861   4.274   7.124  1.4924 -0.9621  2.0241
  984MOL0     H29841   9.621   4.241   6.958 -2.1442 -0.9098 -0.6288
  984MOL0     H29842   9.399   4.106   6.929  2.8683  0.6353  0.9289
  984MOL0     H29843   9.323   4.250   6.991 -0.0070 -0.9130 -0.0896
  984MOL0     H29844   9.248   4.115   7.183  0.3524  1.4616 -0.5173
  984MOL0     H29845   9.312   3.971   7.088  1.0471  1.0459 -0.8652
  984MOL0     H29846   9.074   4.168   7.027  1.2373  0.2242  1.5695
  984MOL0     H29847   9.151   4.068   6.900  1.8998  2.6587 -0.0247
  984MOL0     H29848   9.023   3.970   7.169 -4.5692 -2.1165 -0.3568
  984MOL0     H29849   9.096   3.868   7.038 -0.0119  1.4807 -2.1596
  984MOL0     H29850   8.687   3.943   6.880  0.4745  2.1392  2.0860
  984MOL0     H29851   8.514   3.777   6.907 -0.3863  2.4673  0.8700
  984MOL0     H29852   8.140   3.688   7.187  0.6461 -0.9528  2.2086
  984MOL0     H29853   7.929   3.531   7.202 -0.4647 -1.9946 -0.5795
  984MOL0     H29854   7.766   3.425   7.106 -0.7102 -0.1244 -0.5528
  984MOL0     H29855   7.803   3.355   7.254 -2.0812 -0.3238  0.3870
  984MOL0     H29856   7.761   3.118   7.114  0.2524 -0.1538 -0.3881
  984MOL0     H29857   7.651   3.218   7.025 -1.0144 -3.0138 -0.3193
  984MOL0     H29858   7.575   3.291   7.271  0.3241 -0.0874  2.5450
  984MOL0     H29859   7.641   3.134   7.326 -5.3749 -4.3869 -0.1460
  984MOL0     H29860   7.423   3.139   7.115 -0.3090  2.0383  1.4453
  984MOL0     H29861   7.509   2.996   7.183 -2.3293 -1.3190  1.1600
  984MOL0     H29862   7.354   3.186   7.366  0.7616 -0.6503  3.7587
  984MOL0     H29863   7.443   3.031   7.396  0.8208 -1.7839 -2.9715
  984MOL0     H29864   7.274   2.916   7.244 -1.1346  0.1063 -1.3609
  984MOL0     H29865   7.211   3.067   7.202  0.1918 -0.9235 -0.7974
  984MOL0     H29866   7.210   2.985   7.497 -1.2563  3.5413  1.7525
  984MOL0     H29867   7.138   3.117   7.426  2.8189  0.9990 -2.0480
  984MOL0     H29868   6.957   2.966   7.468 -0.5512 -1.7797  0.6937
  984MOL0     H29869   7.047   2.835   7.397  1.7188  0.3853 -2.0482
  984MOL0     H29870   8.153   3.231   7.008  0.8168  1.1180 -1.5968
  984MOL0     H29871   8.351   3.376   6.994  1.6232  1.1254  0.5319
  984MOL0     H29872   8.733   3.617   7.248  1.7428 -3.2433 -1.9697
  984MOL0     H29873   8.915   3.747   7.188  0.3581  1.1280 -0.0454
  984MOL0     H29874  10.690   4.612   7.068 -2.9898  2.1744  0.4968
  984MOL0     H29875  10.889   4.537   6.961 -0.3232 -0.4170 -0.5582
  984MOL0     H29876  11.060   4.439   6.578  0.2257 -2.0936  1.0512
  984MOL0     H29877  11.226   4.326   6.459 -2.2031 -0.8637  1.7189
  984MOL0     H29878  11.429   4.229   6.342 -1.5257  0.8435  0.0725
  984MOL0     H29879  11.435   4.156   6.499  0.0486 -1.5141 -2.7346
  984MOL0     H29880  11.693   4.177   6.484  0.1154  1.7036 -0.4563
  984MOL0     H29881  11.623   4.060   6.380  3.8236 -2.5400  3.3277
  984MOL0     H29882  11.710   4.347   6.300  0.1072 -0.1460 -0.0473
  984MOL0     H29883  11.632   4.236   6.185 -1.5666  3.5065  0.8878
  984MOL0     H29884  11.807   4.070   6.233 -1.4436 -0.0607 -2.9175
  984MOL0     H29885  11.868   4.207   6.136 -2.4148 -4.2658 -2.2220
  984MOL0     H29886  12.065   4.252   6.509  1.6611  1.4773 -1.5539
  984MOL0     H29887  11.536   4.531   6.688  2.0492 -3.0152 -0.7535
  984MOL0     H29888  11.359   4.657   6.800 -1.0890  1.0585 -0.6876
  985MOL0     O29889   0.587   0.662  11.139 -0.0219 -0.0936 -0.4101
  985MOL0     C29890   0.619   0.777  11.111 -0.1620  0.1864  0.8834
  985MOL0     O29891   0.547   0.861  11.022 -0.1296  0.4159 -0.4509
  985MOL0     C29892   0.421   0.817  10.987 -0.2442  1.0359  1.0188
  985MOL0     C29893   0.329   0.752  11.068 -0.2982  1.0959 -0.4291
  985MOL0     C29894   0.194   0.729  11.019 -0.2115  1.3092  0.5645
  985MOL0     C29895   0.163   0.775  10.890  0.7473 -0.4586  0.1162
  985MOL0     O29896   0.037   0.745  10.849 -0.1140  0.4895 -0.3152
  985MOL0     C29897  -0.062   0.830  10.908 -0.6708 -0.2206  0.6294
  985MOL0     C29898  -0.191   0.752  10.892  0.1143  0.3110 -0.1935
  985MOL0     C29899  -0.312   0.837  10.931  0.3326 -0.2367  0.7827
  985MOL0     C29900  -0.439   0.763  10.886 -0.9462  0.9867  0.2848
  985MOL0     C29901  -0.575   0.820  10.921  0.4340  1.2484  0.7844
  985MOL0     C29902  -0.685   0.698  10.911 -0.6786 -0.5074 -0.1358
  985MOL0     C29903  -0.823   0.757  10.898  0.6403  0.4404  0.5812
  985MOL0     C29904  -0.928   0.653  10.895  0.0686  0.2850  0.9520
  985MOL0     N29905  -0.943   0.583  10.760 -0.1307  0.5194  0.0416
  985MOL0     C29906  -0.999   0.632  10.648 -0.1944  0.2158  0.8041
  985MOL0     C29907  -1.003   0.530  10.561  0.0564  0.4783  0.0636
  985MOL0     C29908  -1.082   0.528  10.435 -1.2557 -0.5895 -0.4614
  985MOL0     C29909  -1.229   0.498  10.463  0.2602 -0.0762  0.7850
  985MOL0     C29910  -1.304   0.610  10.547  0.4640  0.3363  0.1506
  985MOL0     C29911  -1.313   0.755  10.505 -0.3688 -0.2320 -0.1187
  985MOL0     O29912  -1.336   0.826  10.630  0.6664 -0.4217  1.0495
  985MOL0     C29913  -1.459   0.831  10.684 -0.5702 -0.7349 -0.0987
  985MOL0     C29914  -1.580   0.827  10.613 -0.4529  0.4232  0.4397
  985MOL0     C29915  -1.698   0.845  10.675  0.0458  0.4347 -0.1939
  985MOL0     C29916  -1.710   0.851  10.812  0.6249  0.5613 -0.1389
  985MOL0     C29917  -1.836   0.865  10.890 -0.1627  0.3867 -1.0033
  985MOL0     O29918  -1.831   0.793  11.011  0.6760  0.6497  0.6289
  985MOL0     C29919  -1.956   0.788  11.068 -0.2520 -0.5229 -0.1812
  985MOL0     C29920  -2.010   0.663  11.078  0.3810 -0.2349  0.3749
  985MOL0     C29921  -2.128   0.645  11.161  0.0046  0.0333 -0.2382
  985MOL0     C29922  -2.198   0.750  11.221 -0.7667  1.1931 -0.0657
  985MOL0     O29923  -2.322   0.716  11.284 -0.5539 -0.7768 -0.3069
  985MOL0     C29924  -2.425   0.817  11.303  0.0135  0.5101  0.4359
  985MOL0     C29925  -2.507   0.856  11.177 -1.3773  0.1062  0.2586
  985MOL0     C29926  -2.595   0.976  11.200  0.1093  0.0590 -0.3906
  985MOL0     C29927  -2.720   0.947  11.282  0.4782 -1.0383  0.4760
  985MOL0     C29928  -2.827   1.071  11.293 -1.6174 -0.7871  0.5973
  985MOL0     C29929  -2.768   1.204  11.344  0.8931  0.8097  0.4132
  985MOL0     C29930  -2.841   1.334  11.320  0.1097  0.0121  0.6920
  985MOL0     C29931  -2.859   1.359  11.169  0.3342  0.3719 -1.2209
  985MOL0    Cl29932  -2.878   1.534  11.148 -0.3297  0.1138  0.7052
  985MOL0     C29933  -2.146   0.873  11.202  0.3844 -0.0289 -0.9728
  985MOL0     C29934  -2.023   0.895  11.132  0.3470 -0.4526 -0.9868
  985MOL0     O29935  -1.932   0.917  10.837  0.5307  0.0279  1.1500
  985MOL0     C29936  -1.590   0.844  10.886  0.3394 -0.7096  0.6307
  985MOL0     C29937  -1.464   0.842  10.826  0.7854 -0.8602  0.2054
  985MOL0     N29938  -0.938   0.423  10.618 -0.3924 -0.1567 -0.3726
  985MOL0     N29939  -0.903   0.457  10.740  0.3516 -0.3657 -0.8029
  985MOL0     C29940   0.254   0.854  10.818  1.0125  0.2134 -1.0883
  985MOL0     C29941   0.385   0.873  10.860  0.5983  0.5568 -0.8579
  985MOL0     C29942   0.764   0.814  11.143  0.2969 -0.2309  0.0639
  985MOL0     C29943   0.823   0.747  11.250  0.0220  0.8331 -0.2541
  985MOL0     C29944   0.968   0.768  11.279 -0.5963  0.3997  0.4604
  985MOL0     C29945   1.039   0.864  11.213 -0.5595 -0.1799  0.3646
  985MOL0     O29946   1.175   0.889  11.242 -0.6438 -0.1764 -0.1473
  985MOL0     C29947   1.242   0.822  11.352 -0.2938 -0.1074  0.3553
  985MOL0     C29948   1.388   0.857  11.355 -0.0669  0.3827  0.3658
  985MOL0     C29949   1.460   0.812  11.227  0.2398  0.2099  0.0828
  985MOL0     C29950   1.601   0.855  11.212 -0.2662  0.4328  0.1009
  985MOL0     C29951   1.618   0.999  11.220 -0.1879  0.5190  0.1432
  985MOL0     C29952   1.634   1.117  11.237 -0.5094  0.5539  0.8273
  985MOL0     C29953   0.969   0.928  11.106  1.0735 -0.0014  0.5314
  985MOL0     C29954   0.830   0.910  11.068  0.3703 -0.2453  0.7060
  985MOL0     H29955   0.350   0.731  11.172 -0.9396  0.2842 -0.4562
  985MOL0     H29956   0.120   0.676  11.077 -1.7501 -0.3781 -2.6816
  985MOL0     H29957  -0.071   0.934  10.874  0.4815  0.8960  3.3999
  985MOL0     H29958  -0.043   0.833  11.016  4.4209 -1.3866  0.0246
  985MOL0     H29959  -0.190   0.655  10.943  1.4784 -0.6441 -1.9136
  985MOL0     H29960  -0.203   0.724  10.787  2.5842 -2.9937  0.2269
  985MOL0     H29961  -0.316   0.938  10.887 -0.8931  0.7650  3.0244
  985MOL0     H29962  -0.317   0.848  11.040 -0.0524  0.3042  0.7177
  985MOL0     H29963  -0.423   0.744  10.779 -3.4382  1.3796 -0.2352
  985MOL0     H29964  -0.420   0.676  10.948  5.0040  1.7344  0.0723
  985MOL0     H29965  -0.601   0.910  10.865 -1.1098  0.2082 -0.2811
  985MOL0     H29966  -0.577   0.852  11.025 -0.7738  0.3569  1.0566
  985MOL0     H29967  -0.677   0.627  10.994  1.3739  0.8307  0.9015
  985MOL0     H29968  -0.651   0.645  10.821  0.1855  1.6354 -1.1521
  985MOL0     H29969  -0.839   0.820  10.986 -1.8008  1.3743 -0.4581
  985MOL0     H29970  -0.822   0.824  10.812 -0.0645 -1.4413 -0.9837
  985MOL0     H29971  -1.021   0.707  10.917  0.2076  0.5162  0.9790
  985MOL0     H29972  -0.917   0.583  10.978 -2.2115  0.6540  1.6466
  985MOL0     H29973  -1.050   0.724  10.620 -2.0838 -0.9437  0.3147
  985MOL0     H29974  -1.033   0.448  10.379  3.6427  1.9929 -0.4415
  985MOL0     H29975  -1.073   0.624  10.383 -1.5622  0.2456  0.9773
  985MOL0     H29976  -1.245   0.397  10.503  1.0581 -0.9945 -1.0982
  985MOL0     H29977  -1.274   0.498  10.364 -2.6005  0.1768  1.9834
  985MOL0     H29978  -1.411   0.590  10.553 -0.5001  4.6888  0.2194
  985MOL0     H29979  -1.273   0.603  10.652 -1.3885  1.2946  0.7976
  985MOL0     H29980  -1.390   0.771  10.428 -2.6270 -0.0220  2.0421
  985MOL0     H29981  -1.220   0.785  10.456  0.0834  0.3836  1.0746
  985MOL0     H29982  -1.571   0.823  10.505 -1.4097  0.6021  0.3493
  985MOL0     H29983  -1.786   0.834  10.612  0.2793 -1.1329 -0.2702
  985MOL0     H29984  -1.976   0.570  11.035  0.9169 -1.0431  2.4407
  985MOL0     H29985  -2.158   0.542  11.174 -4.6094  1.1418 -0.5239
  985MOL0     H29986  -2.380   0.899  11.360 -1.8377  2.5258 -0.8256
  985MOL0     H29987  -2.494   0.773  11.376  0.3147 -2.6004 -0.9667
  985MOL0     H29988  -2.566   0.769  11.146 -2.9405  0.6367  1.5779
  985MOL0     H29989  -2.442   0.876  11.091 -1.2134 -3.0762 -0.4756
  985MOL0     H29990  -2.635   1.019  11.107  1.0681  1.0152 -0.3881
  985MOL0     H29991  -2.531   1.058  11.233 -1.3121  2.7229 -3.6760
  985MOL0     H29992  -2.773   0.873  11.220 -0.6689  0.1300  0.0001
  985MOL0     H29993  -2.684   0.902  11.374  1.9361 -1.7534 -0.4102
  985MOL0     H29994  -2.920   1.050  11.347 -2.3590  2.8631  0.9562
  985MOL0     H29995  -2.863   1.093  11.192 -1.8673 -0.6579  0.7134
  985MOL0     H29996  -2.675   1.217  11.287  0.8420 -1.1709 -0.2014
  985MOL0     H29997  -2.742   1.190  11.449 -1.1291  0.4256  0.8930
  985MOL0     H29998  -2.931   1.348  11.380  0.0795  2.8178  0.1073
  985MOL0     H29999  -2.774   1.416  11.347  1.9584 -1.2300  0.0753
  985MOL0     H30000  -2.951   1.304  11.149 -0.7821  0.6336  2.3855
  985MOL0     H30001  -2.775   1.312  11.118  0.5159  1.9064 -2.4082
  985MOL0     H30002  -2.193   0.958  11.250  2.5687  0.6324  0.1449
  985MOL0     H30003  -1.982   0.995  11.125 -0.0168 -0.2571 -0.3859
  985MOL0     H30004  -1.593   0.859  10.993 -2.0858  3.3820  0.1856
  985MOL0     H30005  -1.374   0.856  10.884  0.3181  1.7738  0.4297
  985MOL0     H30006   0.238   0.902  10.722  2.2193 -0.6493 -1.7585
  985MOL0     H30007   0.459   0.926  10.802  0.0453  3.4353  0.8802
  985MOL0     H30008   0.783   0.668  11.313  2.4683  0.6568  1.2127
  985MOL0     H30009   1.017   0.707  11.355 -0.5463  0.6544  0.6321
  985MOL0     H30010   1.237   0.713  11.338 -1.6241 -0.1788  1.2806
  985MOL0     H30011   1.214   0.844  11.455  2.8427 -1.2967  1.6088
  985MOL0     H30012   1.398   0.966  11.361  0.8296  0.7349 -3.8862
  985MOL0     H30013   1.437   0.809  11.440 -0.1288  2.2007  1.4781
  985MOL0     H30014   1.406   0.840  11.136 -0.1215 -4.3012 -1.3144
  985MOL0     H30015   1.467   0.703  11.236 -1.5310 -0.0945 -1.7085
  985MOL0     H30016   1.669   0.818  11.289 -2.0174 -0.0912  1.4531
  985MOL0     H30017   1.632   0.824  11.112  0.1494  0.7394  0.1288
  985MOL0     H30018   1.645   1.223  11.227  0.9715  0.2560 -1.2169
  985MOL0     H30019   1.023   0.997  11.042  0.4404 -2.1886 -2.5933
  985MOL0     H30020   0.780   0.962  10.987  0.0760 -0.7479  0.5602
  986MOL0     O30021   6.205   1.906   3.166  0.4877 -0.3609  0.2790
  986MOL0     C30022   6.225   1.974   3.059 -0.4424  0.6925  0.1860
  986MOL0     O30023   6.133   2.000   2.965 -0.6574  0.6941 -0.1128
  986MOL0     C30024   6.010   1.938   2.962  0.4690  0.6022  0.0148
  986MOL0     C30025   5.954   1.905   2.844  0.6870 -0.1064  0.1812
  986MOL0     C30026   5.822   1.866   2.843 -0.8688 -1.0410  1.0469
  986MOL0     C30027   5.743   1.854   2.958 -0.3365  0.4280 -0.2531
  986MOL0     O30028   5.617   1.808   2.937 -0.6607  0.1999 -0.3654
  986MOL0     C30029   5.542   1.758   3.049  0.2662 -0.1862 -0.8021
  986MOL0     C30030   5.396   1.726   3.015  0.6049 -0.5947 -0.2551
  986MOL0     C30031   5.362   1.618   2.915  0.3134  0.0808  0.0017
  986MOL0     C30032   5.222   1.563   2.928  0.1739 -1.4271 -0.3803
  986MOL0     C30033   5.206   1.413   2.898  0.1896 -0.4676  0.3622
  986MOL0     C30034   5.073   1.358   2.955  0.6142 -0.5149 -0.0505
  986MOL0     C30035   4.945   1.442   2.921 -0.4184 -1.0763  0.6292
  986MOL0     C30036   4.822   1.391   3.002 -0.1440  0.1267 -0.4822
  986MOL0     N30037   4.698   1.457   2.956 -0.4822  0.0940 -0.0386
  986MOL0     C30038   4.638   1.446   2.834 -0.7143 -0.2921 -0.3573
  986MOL0     C30039   4.526   1.529   2.839  0.5235  0.8646 -1.0144
  986MOL0     C30040   4.416   1.538   2.733 -0.5870  1.6717  0.0132
  986MOL0     C30041   4.335   1.412   2.743  0.7150 -0.4591  1.2482
  986MOL0     C30042   4.248   1.409   2.611  0.5893  1.4658  1.0249
  986MOL0     C30043   4.125   1.326   2.649  0.4839 -0.1644  1.0698
  986MOL0     O30044   4.031   1.420   2.705 -0.1077 -0.5838 -0.0754
  986MOL0     C30045   3.913   1.375   2.766  0.3115  0.4290  0.5359
  986MOL0     C30046   3.873   1.244   2.782  0.4801 -0.7158 -0.1602
  986MOL0     C30047   3.742   1.207   2.795  0.9571  1.1584  0.3456
  986MOL0     C30048   3.646   1.307   2.807  0.1474  0.3882  0.1225
  986MOL0     C30049   3.502   1.279   2.820 -0.4721 -0.1342 -0.5513
  986MOL0     O30050   3.425   1.376   2.863  0.3365  0.3750 -0.8828
  986MOL0     C30051   3.291   1.359   2.858 -0.5204 -0.2681  0.6420
  986MOL0     C30052   3.214   1.427   2.753 -0.7189  0.3927 -0.0969
  986MOL0     C30053   3.079   1.414   2.746 -0.1400  0.2565  0.1185
  986MOL0     C30054   3.000   1.342   2.841 -0.2364  0.9213  0.9025
  986MOL0     O30055   2.862   1.332   2.837 -0.5253 -0.7553 -0.3337
  986MOL0     C30056   2.799   1.436   2.762 -0.4103  0.9696 -0.4071
  986MOL0     C30057   2.645   1.439   2.792  1.0815  0.5202 -0.7087
  986MOL0     C30058   2.602   1.545   2.891 -1.2799  0.4540 -0.7467
  986MOL0     C30059   2.460   1.542   2.942 -0.1908 -0.2970  0.2023
  986MOL0     C30060   2.425   1.650   3.042  0.0470  0.5970 -0.2640
  986MOL0     C30061   2.456   1.802   3.008  0.1851 -0.0389  0.3299
  986MOL0     C30062   2.408   1.904   3.120  0.8023  0.7551 -0.1172
  986MOL0     C30063   2.279   1.972   3.071 -0.1678 -0.0545 -0.2161
  986MOL0    Cl30064   2.224   2.105   3.171 -0.1757 -0.2614 -0.2545
  986MOL0     C30065   3.068   1.265   2.935  0.1282 -0.5879 -0.4290
  986MOL0     C30066   3.215   1.277   2.940 -1.0994  0.0356  0.7214
  986MOL0     O30067   3.466   1.171   2.775  0.2235 -0.5805 -0.2290
  986MOL0     C30068   3.683   1.441   2.812 -0.8801  0.0460 -0.3580
  986MOL0     C30069   3.821   1.478   2.791  1.5992 -0.2370  0.3788
  986MOL0     N30070   4.518   1.589   2.967  1.0390 -0.0016  0.2354
  986MOL0     N30071   4.619   1.536   3.029 -0.7680 -0.0013 -0.0182
  986MOL0     C30072   5.797   1.892   3.081  1.1334 -0.2451 -0.4299
  986MOL0     C30073   5.933   1.927   3.084 -0.2578 -0.1672  0.7241
  986MOL0     C30074   6.352   2.045   3.051  0.4236  0.2329 -0.3129
  986MOL0     C30075   6.425   2.078   2.935 -0.1505 -0.2655  0.2875
  986MOL0     C30076   6.539   2.160   2.940  0.2898 -0.3120  0.0298
  986MOL0     C30077   6.579   2.211   3.064 -0.2884 -0.7485 -0.0631
  986MOL0     O30078   6.693   2.286   3.077 -0.3335  0.0066  0.3343
  986MOL0     C30079   6.803   2.275   2.982 -1.1865 -0.0400 -0.1632
  986MOL0     C30080   6.926   2.358   3.032  0.8181 -0.2430  0.4184
  986MOL0     C30081   6.991   2.302   3.154 -0.5076  0.4501 -0.4151
  986MOL0     C30082   7.094   2.401   3.211 -0.0849 -0.5102 -0.6165
  986MOL0     C30083   7.196   2.431   3.115 -0.0329  0.5874 -0.1545
  986MOL0     C30084   7.294   2.449   3.039 -0.6841 -0.1668 -0.4447
  986MOL0     C30085   6.501   2.189   3.177  0.0406  0.4939  0.3473
  986MOL0     C30086   6.387   2.103   3.170 -0.1515 -0.6668 -0.1072
  986MOL0     H30087   6.000   1.920   2.747 -0.4536  0.3858 -0.3008
  986MOL0     H30088   5.768   1.843   2.752  2.1045  0.1381 -1.1820
  986MOL0     H30089   5.538   1.828   3.133 -0.5937 -0.3003 -0.7362
  986MOL0     H30090   5.591   1.667   3.085  0.2465 -0.6656 -1.9437
  986MOL0     H30091   5.354   1.822   2.984  0.5990  0.4822  2.7648
  986MOL0     H30092   5.356   1.708   3.115  0.4520 -1.1675 -0.4089
  986MOL0     H30093   5.429   1.534   2.938  2.9509  2.8313  3.6176
  986MOL0     H30094   5.384   1.653   2.814  1.1986 -3.3171 -1.1263
  986MOL0     H30095   5.209   1.584   3.035  0.7326  1.4021 -0.7856
  986MOL0     H30096   5.155   1.621   2.864 -0.5152 -1.9907 -0.1880
  986MOL0     H30097   5.282   1.363   2.959  1.3166  2.2472  1.3222
  986MOL0     H30098   5.219   1.397   2.791  1.2477  4.6460 -0.5360
  986MOL0     H30099   5.081   1.369   3.064 -2.5746 -0.4863  0.2798
  986MOL0     H30100   5.066   1.253   2.928 -0.6097 -1.1397  2.3768
  986MOL0     H30101   4.957   1.546   2.952  1.4690 -1.8199  2.7134
  986MOL0     H30102   4.936   1.451   2.813  3.0889  2.3661  0.3910
  986MOL0     H30103   4.824   1.395   3.112 -1.2428 -2.5109 -0.2703
  986MOL0     H30104   4.815   1.285   2.974  3.2228  0.1428 -1.8811
  986MOL0     H30105   4.668   1.390   2.746  2.3781 -0.4772  0.6905
  986MOL0     H30106   4.463   1.542   2.635  0.5735  1.0248  0.5196
  986MOL0     H30107   4.356   1.627   2.754 -0.0924  2.6099 -2.3547
  986MOL0     H30108   4.269   1.415   2.831 -1.2385 -0.7324 -0.1457
  986MOL0     H30109   4.402   1.326   2.751 -2.1033 -2.7775  1.8881
  986MOL0     H30110   4.223   1.511   2.579 -1.4204  0.1224 -2.2554
  986MOL0     H30111   4.287   1.353   2.525 -0.3959  1.1948  0.7369
  986MOL0     H30112   4.144   1.240   2.714  2.0015 -0.2285  0.5775
  986MOL0     H30113   4.071   1.285   2.563 -0.7779 -0.1024  1.8091
  986MOL0     H30114   3.944   1.164   2.770 -1.2842 -2.6408  1.5326
  986MOL0     H30115   3.716   1.102   2.803  3.0109  0.6764  1.4035
  986MOL0     H30116   3.260   1.489   2.676 -1.5639  0.0139 -0.9265
  986MOL0     H30117   3.026   1.461   2.663  3.3690  3.6704 -0.4398
  986MOL0     H30118   2.813   1.408   2.657 -1.3698 -1.1655 -0.0222
  986MOL0     H30119   2.829   1.537   2.791 -2.9516  1.6154  0.3010
  986MOL0     H30120   2.630   1.335   2.823  4.0214  0.8292  2.3469
  986MOL0     H30121   2.590   1.448   2.698 -0.1281 -5.0814 -0.9273
  986MOL0     H30122   2.617   1.643   2.845 -2.0765  1.4330  0.9608
  986MOL0     H30123   2.666   1.540   2.980  1.0950  2.4570 -2.2072
  986MOL0     H30124   2.394   1.546   2.855 -4.4574  2.6831  3.1211
  986MOL0     H30125   2.438   1.442   2.982  0.0953 -0.3779  0.1566
  986MOL0     H30126   2.470   1.626   3.139  0.5141  2.8916  0.1344
  986MOL0     H30127   2.317   1.638   3.057  0.7399 -1.0877  6.3245
  986MOL0     H30128   2.413   1.834   2.913 -0.4992  1.0364  0.9839
  986MOL0     H30129   2.565   1.810   2.996  0.3875 -1.1825  1.2305
  986MOL0     H30130   2.414   1.857   3.219  1.5133 -0.6093 -0.7772
  986MOL0     H30131   2.490   1.976   3.115  1.5103 -0.1318 -3.1057
  986MOL0     H30132   2.202   1.896   3.055 -1.5548  1.6037 -1.9182
  986MOL0     H30133   2.294   2.004   2.967  2.9353 -2.6221 -0.7181
  986MOL0     H30134   3.025   1.203   3.013  1.6774 -2.2846 -0.8406
  986MOL0     H30135   3.271   1.217   3.011 -1.3984 -2.3182 -0.8923
  986MOL0     H30136   3.612   1.522   2.822  1.2113  2.1567 -1.6637
  986MOL0     H30137   3.844   1.583   2.782  0.4856 -0.0676 -0.7693
  986MOL0     H30138   5.750   1.892   3.179 -1.7105 -0.4924 -1.6940
  986MOL0     H30139   5.962   1.960   3.183 -2.6870  2.2993  0.7400
  986MOL0     H30140   6.411   2.025   2.841  2.7209  0.9134 -0.9418
  986MOL0     H30141   6.589   2.181   2.846 -0.4854 -1.8892 -0.7759
  986MOL0     H30142   6.773   2.326   2.891  1.0416  1.8729  0.0692
  986MOL0     H30143   6.850   2.177   2.967 -0.3157  0.1952  0.8706
  986MOL0     H30144   6.994   2.379   2.949 -0.2391  1.7630  0.0088
  986MOL0     H30145   6.892   2.458   3.060 -0.6075 -0.0736 -1.6802
  986MOL0     H30146   7.040   2.207   3.130 -0.0784  1.2906 -3.2176
  986MOL0     H30147   6.916   2.293   3.233 -0.8720  4.2562 -0.1122
  986MOL0     H30148   7.040   2.493   3.237 -1.8843 -1.4459 -0.9320
  986MOL0     H30149   7.138   2.362   3.303 -0.8547 -0.8657 -0.3908
  986MOL0     H30150   7.384   2.470   2.985  1.3279  1.4701  3.1814
  986MOL0     H30151   6.542   2.202   3.276 -1.1171 -0.6263  0.9999
  986MOL0     H30152   6.329   2.097   3.262 -0.1641  0.8308  0.0207
  987MOL0     O30153   3.692   6.601   8.792 -1.1184  0.1751 -0.3486
  987MOL0     C30154   3.659   6.692   8.878 -0.4546  0.8176  0.4127
  987MOL0     O30155   3.540   6.761   8.883  0.1369  1.3844 -0.7544
  987MOL0     C30156   3.442   6.777   8.783  0.1717 -0.7138  0.4720
  987MOL0     C30157   3.441   6.707   8.663  0.5718  0.9452  0.0627
  987MOL0     C30158   3.336   6.727   8.578  0.9629 -0.7083  0.6558
  987MOL0     C30159   3.230   6.817   8.594  0.8469 -0.0636  0.7750
  987MOL0     O30160   3.135   6.840   8.494 -0.2961  0.8592  0.4127
  987MOL0     C30161   3.051   6.960   8.502 -0.4355 -0.0626  0.3954
  987MOL0     C30162   2.957   6.963   8.384 -0.6146 -0.8470  0.7767
  987MOL0     C30163   2.842   7.073   8.392 -0.5260 -0.2773 -0.0384
  987MOL0     C30164   2.758   7.068   8.261  0.0560  0.0243 -0.3919
  987MOL0     C30165   2.628   7.158   8.271  0.4893 -0.2247  0.5293
  987MOL0     C30166   2.572   7.210   8.128  0.9740  0.3565  0.1791
  987MOL0     C30167   2.428   7.274   8.132 -0.2896  0.2913 -1.0084
  987MOL0     C30168   2.324   7.177   8.084 -0.6436  0.6203 -0.2161
  987MOL0     N30169   2.191   7.230   8.116 -0.7358 -0.2438 -0.9816
  987MOL0     C30170   2.155   7.360   8.105  0.1424  0.5771  0.4115
  987MOL0     C30171   2.056   7.373   8.190  0.2517  0.2476 -0.2930
  987MOL0     C30172   1.969   7.497   8.214 -0.1622  0.0606  0.9368
  987MOL0     C30173   1.952   7.582   8.096 -0.5790 -0.7025 -0.2605
  987MOL0     C30174   1.840   7.681   8.101  0.2182 -0.0744  0.5628
  987MOL0     C30175   1.875   7.777   8.229  0.6269  0.0109  0.4862
  987MOL0     O30176   1.773   7.877   8.236 -0.3417  0.3755 -0.2202
  987MOL0     C30177   1.653   7.848   8.303  0.7464 -0.1814  0.5646
  987MOL0     C30178   1.618   7.731   8.365 -0.2447  0.0423  0.6328
  987MOL0     C30179   1.500   7.724   8.446 -0.6363  0.3394  0.3985
  987MOL0     C30180   1.422   7.842   8.457 -0.0702 -0.3155  0.8207
  987MOL0     C30181   1.294   7.847   8.529 -1.0035 -1.1172  0.0935
  987MOL0     O30182   1.246   7.720   8.575 -0.3455 -0.2834  0.4694
  987MOL0     C30183   1.134   7.731   8.648 -1.1349  0.0244  0.3219
  987MOL0     C30184   1.136   7.770   8.784  0.2796 -0.2612  0.7019
  987MOL0     C30185   1.009   7.798   8.853 -0.8552 -0.2096  0.4159
  987MOL0     C30186   0.883   7.782   8.782 -0.6994 -0.0217  0.9372
  987MOL0     O30187   0.759   7.818   8.833 -0.3881  0.1302  0.1746
  987MOL0     C30188   0.733   7.854   8.967  0.4678  0.7337  0.9725
  987MOL0     C30189   0.585   7.858   9.000  0.1780 -0.1081 -0.8984
  987MOL0     C30190   0.568   7.819   9.152 -0.1122 -0.1954 -0.4343
  987MOL0     C30191   0.424   7.836   9.202 -0.4851 -0.1612  0.6194
  987MOL0     C30192   0.398   7.972   9.266  0.6094  0.2793 -0.0061
  987MOL0     C30193   0.477   8.006   9.394 -0.3747  0.3142 -0.2071
  987MOL0     C30194   0.438   8.139   9.460  0.3486  0.5182 -0.2608
  987MOL0     C30195   0.308   8.150   9.540  0.1616  0.7261  0.2345
  987MOL0    Cl30196   0.296   8.024   9.667  0.3260  0.4096  0.1139
  987MOL0     C30197   0.889   7.738   8.647 -0.7780  0.1518 -0.2159
  987MOL0     C30198   1.008   7.696   8.594  0.0967 -0.4467  0.0650
  987MOL0     O30199   1.254   7.955   8.569 -0.4212  0.7407 -1.1533
  987MOL0     C30200   1.456   7.956   8.390  0.0276 -0.4649  0.0230
  987MOL0     C30201   1.569   7.957   8.310  0.9639 -0.1721 -0.2880
  987MOL0     N30202   2.028   7.252   8.252  0.4551  0.9755 -0.9718
  987MOL0     N30203   2.115   7.167   8.213  0.3831 -0.3870  0.8032
  987MOL0     C30204   3.234   6.883   8.714 -0.3822 -0.6203 -0.2988
  987MOL0     C30205   3.336   6.861   8.807  0.1865  0.0144  0.3278
  987MOL0     C30206   3.756   6.714   8.984 -0.0415  0.2705 -0.8004
  987MOL0     C30207   3.851   6.621   9.032  0.0511  1.0319 -0.6557
  987MOL0     C30208   3.941   6.648   9.136  0.7840  0.7172 -1.1213
  987MOL0     C30209   3.939   6.771   9.197  0.3993 -0.3389 -0.3421
  987MOL0     O30210   4.010   6.794   9.314  0.1516  0.7658 -0.2140
  987MOL0     C30211   4.100   6.683   9.367  0.3725  0.3667 -0.5926
  987MOL0     C30212   4.153   6.748   9.497 -0.2279  0.2706  0.1570
  987MOL0     C30213   4.260   6.668   9.579 -0.5229  0.1590  0.1103
  987MOL0     C30214   4.356   6.772   9.643 -0.2038  0.4310 -0.1884
  987MOL0     C30215   4.316   6.825   9.774 -0.4825 -0.2390 -0.1863
  987MOL0     C30216   4.279   6.875   9.876  0.2341  0.3670 -0.3566
  987MOL0     C30217   3.843   6.859   9.154  0.4599 -0.3826 -0.1386
  987MOL0     C30218   3.746   6.831   9.061 -0.4060  0.3439 -0.0448
  987MOL0     H30219   3.517   6.636   8.631  0.2847 -0.1087  1.5964
  987MOL0     H30220   3.340   6.671   8.485 -2.6460  0.5898 -0.4470
  987MOL0     H30221   3.108   7.054   8.504 -0.2922  0.1367 -3.5433
  987MOL0     H30222   2.981   6.944   8.583 -2.5037 -2.8037 -1.7244
  987MOL0     H30223   2.910   6.868   8.359  0.6760 -0.5320 -3.7033
  987MOL0     H30224   3.016   6.978   8.294 -0.5421  1.5509  1.1592
  987MOL0     H30225   2.889   7.171   8.406 -0.6564 -0.5002  2.3689
  987MOL0     H30226   2.786   7.068   8.485  1.8185  0.3535  1.5012
  987MOL0     H30227   2.813   7.106   8.174 -1.2156 -0.8382 -1.6278
  987MOL0     H30228   2.727   6.964   8.249  1.1488 -0.7250  2.5926
  987MOL0     H30229   2.652   7.254   8.317  0.9836 -0.4955  0.8391
  987MOL0     H30230   2.549   7.104   8.325 -2.3895 -0.1932 -3.2415
  987MOL0     H30231   2.583   7.130   8.054  1.0104  0.8275 -0.3331
  987MOL0     H30232   2.631   7.293   8.086 -1.7045  1.5434 -1.4772
  987MOL0     H30233   2.398   7.292   8.236  0.7348 -0.6280 -0.5265
  987MOL0     H30234   2.430   7.367   8.074  0.3428  1.4301  0.7518
  987MOL0     H30235   2.340   7.077   8.126 -0.2447  1.1151  0.8706
  987MOL0     H30236   2.347   7.177   7.977  2.3746  1.8478  0.3209
  987MOL0     H30237   2.204   7.428   8.035 -1.2912  0.2713 -0.9465
  987MOL0     H30238   2.016   7.554   8.295 -1.2515  0.6349  1.2001
  987MOL0     H30239   1.872   7.460   8.248 -0.7244  1.3082  0.7496
  987MOL0     H30240   1.949   7.520   8.006 -0.3794 -2.5927  0.9697
  987MOL0     H30241   2.049   7.631   8.092  0.8029 -3.3085 -0.3781
  987MOL0     H30242   1.828   7.742   8.011 -1.5301 -0.7287  0.3252
  987MOL0     H30243   1.743   7.632   8.106 -0.0837  0.5178  0.5420
  987MOL0     H30244   1.965   7.836   8.207  2.4055 -2.4416  0.7144
  987MOL0     H30245   1.896   7.719   8.319 -0.1836 -0.9814  0.0514
  987MOL0     H30246   1.670   7.636   8.358 -0.7676 -0.1981 -0.1338
  987MOL0     H30247   1.475   7.624   8.479  3.6185 -1.6170 -1.5439
  987MOL0     H30248   1.235   7.793   8.824  0.1356  1.3381  0.2289
  987MOL0     H30249   1.021   7.842   8.951 -1.3049  2.9973 -0.8549
  987MOL0     H30250   0.765   7.957   8.984 -1.6257  1.8522 -1.2288
  987MOL0     H30251   0.783   7.785   9.035  0.3056 -2.7741 -2.1629
  987MOL0     H30252   0.526   7.786   8.942 -2.3046  1.3146 -0.2869
  987MOL0     H30253   0.544   7.957   8.976  0.4271 -0.1827 -1.6667
  987MOL0     H30254   0.634   7.888   9.205 -0.6657  1.1472 -1.4362
  987MOL0     H30255   0.607   7.720   9.178  0.4533 -0.0893 -0.8629
  987MOL0     H30256   0.347   7.793   9.137 -2.6473  0.9369  2.3364
  987MOL0     H30257   0.416   7.761   9.281  1.5111 -1.8488 -0.6823
  987MOL0     H30258   0.293   7.956   9.293  1.1427 -2.8941  0.5918
  987MOL0     H30259   0.408   8.057   9.198 -0.6619 -2.6119 -4.2482
  987MOL0     H30260   0.584   8.018   9.375 -0.2702  0.8304  0.6602
  987MOL0     H30261   0.456   7.928   9.468  0.3483  1.5205  1.3085
  987MOL0     H30262   0.515   8.159   9.534 -0.6707 -0.2326  1.0445
  987MOL0     H30263   0.438   8.226   9.393 -4.1825  0.8513 -0.1876
  987MOL0     H30264   0.227   8.128   9.470  0.3645 -3.2890  1.0366
  987MOL0     H30265   0.299   8.255   9.572 -1.8005  1.6658 -2.8974
  987MOL0     H30266   0.793   7.720   8.600 -0.4878  0.0851 -0.7898
  987MOL0     H30267   1.010   7.647   8.497  1.1051 -3.6930  1.6017
  987MOL0     H30268   1.401   8.050   8.389  2.4599  1.3528 -5.7814
  987MOL0     H30269   1.601   8.045   8.256 -0.0123  1.3653  1.5534
  987MOL0     H30270   3.165   6.966   8.728 -1.6489 -1.4508 -1.3829
  987MOL0     H30271   3.333   6.918   8.899  2.7637  0.9873 -0.0935
  987MOL0     H30272   3.864   6.534   8.968  2.5840  2.3919 -2.1698
  987MOL0     H30273   4.005   6.568   9.173  3.4413  2.8280 -0.8342
  987MOL0     H30274   4.173   6.648   9.294  0.2586 -0.8403 -0.1559
  987MOL0     H30275   4.047   6.591   9.393  0.7114  0.3552  0.0978
  987MOL0     H30276   4.186   6.846   9.462 -0.6460  1.3746  2.6046
  987MOL0     H30277   4.080   6.777   9.573 -0.5137  1.0179 -0.3797
  987MOL0     H30278   4.318   6.601   9.515  1.5242  1.5523  0.3955
  987MOL0     H30279   4.221   6.601   9.655  0.7103  0.9125  1.4770
  987MOL0     H30280   4.458   6.732   9.652 -0.1419  0.8783  1.5045
  987MOL0     H30281   4.361   6.862   9.580 -2.0265  1.5373  1.1618
  987MOL0     H30282   4.270   6.915   9.975 -0.9938 -2.0972  0.6390
  987MOL0     H30283   3.839   6.949   9.214  2.4407 -0.7428  0.5987
  987MOL0     H30284   3.660   6.896   9.047  1.0359  1.9566 -1.9010
  988MOL0     O30285   3.201   0.855   3.139  0.3174 -0.5393 -0.0105
  988MOL0     C30286   3.237   0.767   3.062 -0.7453  0.3738 -0.4672
  988MOL0     O30287   3.357   0.701   3.069 -0.0927 -0.0818 -0.4279
  988MOL0     C30288   3.457   0.737   3.152 -0.0372 -0.5331 -0.3637
  988MOL0     C30289   3.516   0.865   3.154 -0.0154  0.5434 -0.2466
  988MOL0     C30290   3.634   0.884   3.221  0.4238 -1.0155 -0.5418
  988MOL0     C30291   3.707   0.784   3.286 -0.5949 -0.4394  0.4016
  988MOL0     O30292   3.822   0.832   3.344 -0.4028 -0.3900  0.5193
  988MOL0     C30293   3.879   0.737   3.428 -0.3438 -0.1303 -0.0388
  988MOL0     C30294   3.979   0.662   3.336 -0.3271 -0.0378 -0.5460
  988MOL0     C30295   4.131   0.702   3.354  1.2383 -0.5653  0.3355
  988MOL0     C30296   4.226   0.629   3.260  0.0929 -0.7549  0.1799
  988MOL0     C30297   4.366   0.634   3.319  0.2339 -0.1753 -0.2308
  988MOL0     C30298   4.408   0.513   3.412 -0.1645  0.3490  0.6887
  988MOL0     C30299   4.559   0.533   3.447  0.7940  0.6134 -0.3587
  988MOL0     C30300   4.642   0.452   3.358 -0.0205  0.2013  0.6535
  988MOL0     N30301   4.785   0.471   3.373  0.1950 -0.5465  0.1777
  988MOL0     C30302   4.870   0.531   3.276 -0.1678 -0.2480 -0.0288
  988MOL0     C30303   4.985   0.556   3.334  0.4785  0.4472 -0.0031
  988MOL0     C30304   5.104   0.618   3.266  0.5692 -0.2035  0.5099
  988MOL0     C30305   5.061   0.752   3.203 -0.3562  0.2906 -0.1621
  988MOL0     C30306   4.996   0.847   3.296 -0.3171  0.5463  0.7239
  988MOL0     C30307   4.935   0.971   3.234  0.1457  0.1975 -0.3970
  988MOL0     O30308   4.828   0.923   3.153 -0.2998 -0.4423  0.5239
  988MOL0     C30309   4.711   0.996   3.147 -0.9610  0.8232 -0.0398
  988MOL0     C30310   4.598   0.934   3.097 -0.3594 -0.1278 -0.2843
  988MOL0     C30311   4.477   1.003   3.105 -1.0368 -0.6808  0.2618
  988MOL0     C30312   4.472   1.137   3.162 -0.1390  0.2718  0.3580
  988MOL0     C30313   4.336   1.197   3.172 -0.5657 -0.5622 -0.0731
  988MOL0     O30314   4.231   1.133   3.123  0.1852 -0.2202 -0.9651
  988MOL0     C30315   4.110   1.189   3.143 -0.0779 -0.2245 -0.7285
  988MOL0     C30316   4.015   1.118   3.211  0.2425  0.9750 -0.4878
  988MOL0     C30317   3.892   1.166   3.234 -0.2600  0.3339  0.3205
  988MOL0     C30318   3.847   1.284   3.177  0.0374 -0.4792  0.4844
  988MOL0     O30319   3.716   1.321   3.200  0.3841  0.2050 -0.3512
  988MOL0     C30320   3.686   1.370   3.325  0.1259 -0.0339 -0.5222
  988MOL0     C30321   3.533   1.329   3.357 -0.6010  0.0704 -0.3197
  988MOL0     C30322   3.436   1.407   3.272 -0.0141 -0.7565 -0.0946
  988MOL0     C30323   3.298   1.369   3.316  1.0148  0.7086  0.3922
  988MOL0     C30324   3.185   1.458   3.249 -0.9763  0.0985 -0.7232
  988MOL0     C30325   3.044   1.426   3.301  0.1242 -0.2355  0.5698
  988MOL0     C30326   2.940   1.475   3.208  0.3195 -0.4114 -0.5179
  988MOL0     C30327   2.940   1.633   3.206 -0.6272  0.7642 -0.9114
  988MOL0    Cl30328   2.778   1.700   3.157 -0.4525  0.1237 -0.2222
  988MOL0     C30329   3.935   1.360   3.099 -0.4646  0.3452  0.2568
  988MOL0     C30330   4.067   1.310   3.081  1.0459 -0.0188  0.2299
  988MOL0     O30331   4.329   1.301   3.234 -0.0787  0.2513 -0.0737
  988MOL0     C30332   4.595   1.204   3.189  0.6972  0.7131  0.6824
  988MOL0     C30333   4.714   1.132   3.184  0.5832 -0.7096 -1.0587
  988MOL0     N30334   4.989   0.488   3.455 -1.0275  0.7018  0.0324
  988MOL0     N30335   4.868   0.440   3.475 -0.0996 -0.0307  0.6803
  988MOL0     C30336   3.660   0.652   3.267  0.3109  0.3117 -0.0572
  988MOL0     C30337   3.528   0.633   3.213 -0.5207 -0.0601 -0.2918
  988MOL0     C30338   3.139   0.718   2.965  0.2538  0.0907 -0.5441
  988MOL0     C30339   3.036   0.802   2.934 -0.2055  0.5554  1.4988
  988MOL0     C30340   2.939   0.770   2.837 -0.1069  0.5454 -0.6734
  988MOL0     C30341   2.950   0.649   2.762  0.8337  0.1057 -0.2069
  988MOL0     O30342   2.849   0.631   2.666 -0.0747  0.0460 -1.6942
  988MOL0     C30343   2.890   0.554   2.551 -0.0143  0.6888 -0.1234
  988MOL0     C30344   2.789   0.600   2.434 -0.6372 -0.8179  1.3993
  988MOL0     C30345   2.648   0.581   2.463  0.0400  0.4723 -0.3877
  988MOL0     C30346   2.559   0.655   2.363 -0.3900 -0.2870  0.7444
  988MOL0     C30347   2.557   0.585   2.233 -0.2556  0.2304  0.5581
  988MOL0     C30348   2.536   0.513   2.134 -0.7357 -0.7012  0.2241
  988MOL0     C30349   3.051   0.554   2.800  0.1974  0.4882 -0.5791
  988MOL0     C30350   3.142   0.589   2.904 -0.3033 -0.3116  0.3972
  988MOL0     H30351   3.469   0.945   3.097 -2.3123  0.7050  1.7259
  988MOL0     H30352   3.674   0.984   3.234  1.6474 -1.5068 -0.3704
  988MOL0     H30353   3.804   0.672   3.472 -3.2786  2.5900 -0.6852
  988MOL0     H30354   3.939   0.784   3.507  0.9285  1.5452 -1.8826
  988MOL0     H30355   3.955   0.681   3.231  1.1062 -0.8473 -1.0499
  988MOL0     H30356   3.979   0.556   3.364 -0.9148 -0.6540 -2.6929
  988MOL0     H30357   4.154   0.695   3.461  1.0528 -0.4942  0.3805
  988MOL0     H30358   4.139   0.808   3.327  1.5557 -1.1683 -2.2139
  988MOL0     H30359   4.198   0.523   3.255 -2.1760 -0.1587 -2.3882
  988MOL0     H30360   4.225   0.678   3.162 -1.3236  1.0569  1.0534
  988MOL0     H30361   4.384   0.731   3.368  0.5207  0.9653 -2.4352
  988MOL0     H30362   4.432   0.622   3.232 -0.0784 -0.6342 -0.4007
  988MOL0     H30363   4.390   0.418   3.362  0.8255 -1.0647  2.8974
  988MOL0     H30364   4.346   0.534   3.499 -0.6700 -2.4034  1.0697
  988MOL0     H30365   4.593   0.637   3.436 -0.8634  1.0658 -1.7468
  988MOL0     H30366   4.572   0.512   3.553 -0.5543  1.4598  0.0049
  988MOL0     H30367   4.621   0.490   3.258 -1.0654  0.3953  0.9405
  988MOL0     H30368   4.601   0.350   3.353  0.1136  0.0471  2.2144
  988MOL0     H30369   4.833   0.557   3.177  0.8011 -2.9905 -1.2199
  988MOL0     H30370   5.135   0.556   3.182 -1.6913 -2.6825  1.3722
  988MOL0     H30371   5.184   0.620   3.340 -0.0136  0.7770  1.1351
  988MOL0     H30372   4.989   0.720   3.127  1.6761 -2.2812 -1.1518
  988MOL0     H30373   5.144   0.804   3.154 -0.7645  0.9514 -0.1580
  988MOL0     H30374   4.914   0.794   3.345  0.2544 -0.9487  0.1017
  988MOL0     H30375   5.074   0.865   3.371 -1.1866 -3.0385  2.7418
  988MOL0     H30376   5.001   1.036   3.176 -0.4577 -0.8943 -2.4326
  988MOL0     H30377   4.890   1.019   3.322  2.2312 -1.3938  1.6507
  988MOL0     H30378   4.594   0.831   3.062  0.4360 -1.1391  2.3811
  988MOL0     H30379   4.387   0.953   3.071 -0.1187 -0.7283 -2.3025
  988MOL0     H30380   4.040   1.025   3.261  1.3424  1.6886  0.3253
  988MOL0     H30381   3.832   1.111   3.305 -2.9816  0.5621 -1.6028
  988MOL0     H30382   3.700   1.478   3.324  0.6343 -0.0888 -1.7140
  988MOL0     H30383   3.746   1.329   3.406  1.1007 -2.1959 -2.2059
  988MOL0     H30384   3.504   1.351   3.461 -1.2153 -1.5389 -0.1264
  988MOL0     H30385   3.528   1.221   3.343  2.0708 -0.4958  2.0418
  988MOL0     H30386   3.455   1.388   3.166 -0.5053  0.5493 -0.4426
  988MOL0     H30387   3.453   1.515   3.287 -5.1794 -0.0778  3.5348
  988MOL0     H30388   3.283   1.266   3.283  0.4520  1.1756 -0.8942
  988MOL0     H30389   3.278   1.372   3.424 -2.8365  0.4054 -0.1876
  988MOL0     H30390   3.201   1.449   3.141 -0.0078  3.1965 -0.9268
  988MOL0     H30391   3.211   1.560   3.281  2.1341 -1.5134  2.5839
  988MOL0     H30392   3.033   1.474   3.399 -0.5069 -0.9424  0.8646
  988MOL0     H30393   3.023   1.319   3.315 -4.4765  0.3062 -0.4920
  988MOL0     H30394   2.967   1.438   3.109  1.4273 -0.8267 -0.0709
  988MOL0     H30395   2.840   1.436   3.230  0.6491 -1.3358 -0.5916
  988MOL0     H30396   3.022   1.663   3.140 -1.0467 -0.2337 -1.9156
  988MOL0     H30397   2.955   1.675   3.306 -1.1009  0.7408 -0.8304
  988MOL0     H30398   3.903   1.458   3.067 -1.7752 -0.6346 -1.6496
  988MOL0     H30399   4.129   1.366   3.012 -0.9205  2.9470  0.7122
  988MOL0     H30400   4.598   1.305   3.229 -1.5725  0.1134  2.5822
  988MOL0     H30401   4.811   1.180   3.200  1.0390 -1.2563 -2.1383
  988MOL0     H30402   3.723   0.569   3.296  0.0486 -0.4832 -1.6136
  988MOL0     H30403   3.506   0.530   3.189 -2.2296  0.4672 -1.1478
  988MOL0     H30404   3.021   0.901   2.975 -1.3673  1.1881 -0.3013
  988MOL0     H30405   2.857   0.839   2.815 -2.9471 -2.2821  0.2268
  988MOL0     H30406   2.889   0.447   2.570  4.3842  0.3222 -1.0018
  988MOL0     H30407   2.989   0.583   2.516 -1.3548  2.4184 -2.9525
  988MOL0     H30408   2.809   0.707   2.420 -2.5928 -0.6850 -1.0562
  988MOL0     H30409   2.818   0.557   2.338  0.2970  2.6506 -0.0450
  988MOL0     H30410   2.608   0.612   2.560 -2.8352 -1.6627 -0.7614
  988MOL0     H30411   2.621   0.475   2.467  0.0259  0.4804 -0.2605
  988MOL0     H30412   2.456   0.659   2.400 -1.8632  3.1404 -2.9365
  988MOL0     H30413   2.600   0.757   2.354  2.4538 -1.4697 -1.1551
  988MOL0     H30414   2.519   0.453   2.047  1.4317 -1.9845  0.6131
  988MOL0     H30415   3.047   0.451   2.764 -0.4353  0.6327 -0.9296
  988MOL0     H30416   3.223   0.518   2.898 -0.2845 -0.2464 -0.1275
  989MOL0     O30417   4.951   5.585  10.153 -0.3192 -0.3162 -1.1596
  989MOL0     C30418   4.981   5.548  10.268 -0.1092  0.1733  0.6247
  989MOL0     O30419   4.891   5.484  10.347 -0.5203 -0.2640 -0.6475
  989MOL0     C30420   4.763   5.465  10.310  1.2054 -0.0205  0.7096
  989MOL0     C30421   4.731   5.385  10.201  0.1359 -1.0955  0.2335
  989MOL0     C30422   4.595   5.361  10.171 -0.1255  0.3850 -1.0329
  989MOL0     C30423   4.492   5.424  10.250  0.0398 -0.1694  0.2131
  989MOL0     O30424   4.366   5.408  10.207 -0.3570 -0.1633 -0.8361
  989MOL0     C30425   4.263   5.495  10.256  0.2899  0.0242 -0.1584
  989MOL0     C30426   4.131   5.449  10.209  0.6106 -0.1155 -0.3348
  989MOL0     C30427   4.020   5.546  10.255  0.6786  0.5817  0.0848
  989MOL0     C30428   3.884   5.524  10.189  0.1964  0.7585 -0.5469
  989MOL0     C30429   3.785   5.647  10.211  0.6488 -0.9749  0.0608
  989MOL0     C30430   3.640   5.607  10.190  0.4088  0.3807 -0.0019
  989MOL0     C30431   3.557   5.735  10.206 -0.5168  0.2067  0.1014
  989MOL0     C30432   3.408   5.700  10.185  0.8923 -0.4805 -0.3364
  989MOL0     N30433   3.306   5.814  10.196 -0.5804  0.6080 -1.3061
  989MOL0     C30434   3.174   5.796  10.185  1.0901 -0.1458  0.1586
  989MOL0     C30435   3.122   5.923  10.194 -0.1326  0.1062 -0.0609
  989MOL0     C30436   2.978   5.956  10.214  0.5418 -0.2039 -0.3257
  989MOL0     C30437   2.868   5.877  10.134 -0.3423  0.5801 -0.4404
  989MOL0     C30438   2.878   5.919   9.986 -0.6030  0.3481  0.0293
  989MOL0     C30439   2.748   5.850   9.928 -0.5099 -0.2365 -0.2270
  989MOL0     O30440   2.717   5.902   9.797  1.1486 -0.3882 -0.0750
  989MOL0     C30441   2.594   5.866   9.752  0.4818 -0.5024  0.8437
  989MOL0     C30442   2.537   5.950   9.651 -0.9258  1.5748  0.0518
  989MOL0     C30443   2.402   5.934   9.604 -0.2850 -0.5021 -0.3498
  989MOL0     C30444   2.319   5.845   9.660  0.7642  0.4054 -0.8058
  989MOL0     C30445   2.177   5.835   9.618  0.1642  0.6828 -0.4268
  989MOL0     O30446   2.131   5.708   9.633  0.3069  0.2205  0.5378
  989MOL0     C30447   2.005   5.667   9.608  0.0544 -0.8500  0.3423
  989MOL0     C30448   1.891   5.744   9.567 -0.6415  0.5113  0.2611
  989MOL0     C30449   1.766   5.688   9.554  0.0106  0.2006  0.3078
  989MOL0     C30450   1.739   5.547   9.562 -1.1549  0.0336  0.0034
  989MOL0     O30451   1.620   5.500   9.528 -0.2442  0.8703 -0.0831
  989MOL0     C30452   1.543   5.441   9.629 -0.6628 -0.0595  0.5598
  989MOL0     C30453   1.413   5.535   9.626 -0.0852 -0.3772  0.9877
  989MOL0     C30454   1.324   5.511   9.505  0.3157 -0.2800  0.6575
  989MOL0     C30455   1.195   5.591   9.526  0.1061  0.5447  0.3042
  989MOL0     C30456   1.117   5.634   9.398  0.3296 -0.1908 -0.4588
  989MOL0     C30457   0.995   5.709   9.431  0.2547 -0.1520 -0.2605
  989MOL0     C30458   0.890   5.629   9.507  0.2461  0.4373 -0.1175
  989MOL0     C30459   0.744   5.674   9.492  0.9211  0.5894  0.3136
  989MOL0    Cl30460   0.644   5.582   9.605 -0.1200  0.1388 -0.3008
  989MOL0     C30461   1.860   5.470   9.592  0.0302  0.0420  0.5854
  989MOL0     C30462   1.983   5.534   9.612  0.2563  0.5016 -0.0703
  989MOL0     O30463   2.124   5.937   9.565  0.2561  0.1986  0.1831
  989MOL0     C30464   2.378   5.747   9.748  0.0029 -0.3717 -0.4716
  989MOL0     C30465   2.507   5.765   9.802  0.4809 -0.8533  0.3494
  989MOL0     N30466   3.224   6.018  10.195 -0.1992 -0.2946  0.1088
  989MOL0     N30467   3.340   5.950  10.203 -0.2679 -0.3585 -0.5134
  989MOL0     C30468   4.519   5.512  10.353  0.2696  0.1365  0.4722
  989MOL0     C30469   4.654   5.526  10.386 -0.2463 -0.2677 -0.4104
  989MOL0     C30470   5.108   5.587  10.314  0.6259 -0.5241 -0.1938
  989MOL0     C30471   5.165   5.495  10.406 -0.2367  0.1011 -0.3963
  989MOL0     C30472   5.285   5.523  10.456  0.9182 -0.0700 -0.4265
  989MOL0     C30473   5.356   5.637  10.426 -0.6376 -0.2661 -0.7325
  989MOL0     O30474   5.462   5.677  10.494  0.2540 -0.7006 -0.5582
  989MOL0     C30475   5.589   5.627  10.441  0.4240 -0.5936  0.1809
  989MOL0     C30476   5.701   5.715  10.505  0.3679 -0.9131 -0.2504
  989MOL0     C30477   5.836   5.665  10.472 -0.7020 -0.3718  0.1808
  989MOL0     C30478   5.943   5.750  10.541  0.5371 -0.2440  0.3971
  989MOL0     C30479   6.074   5.692  10.522 -0.9249 -0.9147 -0.2421
  989MOL0     C30480   6.175   5.631  10.524  0.6462  0.1448  0.4937
  989MOL0     C30481   5.308   5.724  10.334  0.2445 -1.0649  1.4229
  989MOL0     C30482   5.181   5.706  10.272  0.2295 -0.4894  0.5382
  989MOL0     H30483   4.802   5.336  10.136 -0.4359 -1.6629  0.0297
  989MOL0     H30484   4.572   5.289  10.093 -1.6030 -2.0625  1.4860
  989MOL0     H30485   4.285   5.594  10.214 -0.8845 -0.1657 -1.2860
  989MOL0     H30486   4.251   5.492  10.365 -0.7405 -0.0375 -0.2628
  989MOL0     H30487   4.109   5.345  10.237 -1.6450 -0.2673 -2.3919
  989MOL0     H30488   4.134   5.461  10.101 -0.8139  2.3884 -0.1443
  989MOL0     H30489   4.040   5.648  10.221 -1.5214  1.2882  0.7671
  989MOL0     H30490   4.010   5.546  10.364  1.2824 -0.5711  0.1618
  989MOL0     H30491   3.894   5.518  10.080 -4.1683  2.2930 -1.2428
  989MOL0     H30492   3.832   5.439  10.235 -3.6777  3.6989  1.0695
  989MOL0     H30493   3.809   5.733  10.149 -0.2066  0.1471  1.2333
  989MOL0     H30494   3.794   5.674  10.317  0.7697 -3.0331  0.6179
  989MOL0     H30495   3.610   5.524  10.254  0.0320  1.2598  0.9987
  989MOL0     H30496   3.630   5.577  10.086  2.0437 -1.7352  0.3907
  989MOL0     H30497   3.571   5.769  10.309 -0.9242 -2.0705  0.9672
  989MOL0     H30498   3.588   5.813  10.137 -2.2174  2.1209  1.3872
  989MOL0     H30499   3.376   5.627  10.260 -1.4673  0.9276  0.1472
  989MOL0     H30500   3.394   5.653  10.088  0.2343  2.0148 -1.5409
  989MOL0     H30501   3.116   5.704  10.188 -2.1819  1.7124 -1.1249
  989MOL0     H30502   2.961   6.061  10.189  0.1592 -0.0832  0.4145
  989MOL0     H30503   2.970   5.950  10.323  2.4270  1.3587 -0.0486
  989MOL0     H30504   2.771   5.899  10.180 -0.5278 -0.4337 -0.3225
  989MOL0     H30505   2.891   5.771  10.150  0.2956  0.8351  0.4448
  989MOL0     H30506   2.884   6.025   9.961  4.6496  0.8517  2.1431
  989MOL0     H30507   2.976   5.888   9.949  1.3064  2.2690  3.0904
  989MOL0     H30508   2.662   5.860   9.994  0.6219 -0.5997  1.3803
  989MOL0     H30509   2.761   5.741   9.923  1.4282 -0.0437 -0.3938
  989MOL0     H30510   2.599   6.031   9.614  2.7000 -1.6953 -1.7538
  989MOL0     H30511   2.356   5.993   9.524  0.0752 -0.3335 -0.4355
  989MOL0     H30512   1.895   5.852   9.554  1.4919  0.3313 -0.8806
  989MOL0     H30513   1.685   5.752   9.522  0.6240  1.7096  1.6438
  989MOL0     H30514   1.592   5.437   9.727  2.9136 -0.1345 -1.0732
  989MOL0     H30515   1.515   5.339   9.601  0.5432 -0.5907  1.1797
  989MOL0     H30516   1.454   5.636   9.632 -0.1552 -0.1999 -0.8024
  989MOL0     H30517   1.354   5.512   9.715 -0.6753  0.2807  0.7736
  989MOL0     H30518   1.299   5.405   9.503 -0.9659  0.0073  0.1965
  989MOL0     H30519   1.374   5.544   9.413 -2.5453  1.8496 -0.3130
  989MOL0     H30520   1.121   5.548   9.594  0.5066 -2.0076 -0.7216
  989MOL0     H30521   1.233   5.681   9.574  0.5073  0.2794  0.4956
  989MOL0     H30522   1.091   5.543   9.343 -2.4598  1.2872 -1.8061
  989MOL0     H30523   1.178   5.690   9.327  2.0600 -3.1111 -1.4785
  989MOL0     H30524   0.944   5.735   9.338  2.3527  3.5839 -0.5665
  989MOL0     H30525   1.008   5.803   9.485  1.9563 -0.3354 -0.2990
  989MOL0     H30526   0.907   5.524   9.484 -0.7955  0.2674 -0.1676
  989MOL0     H30527   0.908   5.634   9.614  0.7557  2.0825 -0.2508
  989MOL0     H30528   0.714   5.656   9.388  1.1213 -1.1667  0.5291
  989MOL0     H30529   0.726   5.781   9.496  0.9067  0.7529 -2.3268
  989MOL0     H30530   1.869   5.362   9.594  0.3756  0.0415 -0.2931
  989MOL0     H30531   2.066   5.466   9.627 -0.5679 -0.8167 -1.1912
  989MOL0     H30532   2.321   5.663   9.787  1.5560 -0.7209  1.1921
  989MOL0     H30533   2.546   5.699   9.879  0.1004  1.1586  2.3984
  989MOL0     H30534   4.440   5.568  10.401 -1.3915 -0.2230 -1.6877
  989MOL0     H30535   4.684   5.596  10.462  2.2368 -2.7022  1.0300
  989MOL0     H30536   5.116   5.407  10.446 -0.8470  1.5893  2.3328
  989MOL0     H30537   5.321   5.464  10.540  1.6483 -1.0097 -1.3818
  989MOL0     H30538   5.590   5.635  10.332 -1.4099 -0.6479  0.1356
  989MOL0     H30539   5.600   5.526  10.483  1.3859 -1.2477 -1.5412
  989MOL0     H30540   5.698   5.818  10.470  0.9290 -1.6847 -2.7374
  989MOL0     H30541   5.679   5.712  10.612 -3.7613  2.0397 -0.7778
  989MOL0     H30542   5.861   5.674  10.366 -2.2293 -2.3437 -0.4134
  989MOL0     H30543   5.851   5.561  10.503  2.0515  0.2123  1.0837
  989MOL0     H30544   5.945   5.851  10.498 -2.4132 -0.0526  0.5012
  989MOL0     H30545   5.919   5.758  10.648 -1.1627  3.4263 -0.0830
  989MOL0     H30546   6.266   5.575  10.519  1.2600  0.7186  3.3010
  989MOL0     H30547   5.359   5.819  10.321 -1.3096 -0.4925 -1.4096
  989MOL0     H30548   5.133   5.783  10.212 -0.2466 -0.2821  1.1629
  990MOL0     O30549   6.137  10.448   2.363 -0.4154  0.0126  0.2736
  990MOL0     C30550   6.159  10.382   2.462 -0.4806 -0.1673 -0.4093
  990MOL0     O30551   6.068  10.320   2.538  0.3879 -0.6506 -0.7186
  990MOL0     C30552   5.938  10.286   2.491 -0.3254 -0.8200  0.8100
  990MOL0     C30553   5.882  10.157   2.516 -0.7514  0.6019 -0.6008
  990MOL0     C30554   5.761  10.128   2.462 -0.8930 -0.5911  0.5436
  990MOL0     C30555   5.690  10.214   2.373 -0.2876  0.0603  0.1557
  990MOL0     O30556   5.571  10.194   2.312  0.2253  0.7038  0.2197
  990MOL0     C30557   5.544  10.062   2.273 -0.0019  0.1869  0.3153
  990MOL0     C30558   5.398  10.068   2.216 -0.3044 -0.1565 -0.0352
  990MOL0     C30559   5.291  10.069   2.326 -1.0951  0.7264 -0.8290
  990MOL0     C30560   5.160  10.107   2.266  0.5117 -0.5352  0.3038
  990MOL0     C30561   5.036  10.079   2.366  0.6968 -0.0568 -0.3195
  990MOL0     C30562   4.903  10.120   2.298 -0.2821  1.6512 -0.3319
  990MOL0     C30563   4.788  10.060   2.385  0.5033  0.8087 -0.2007
  990MOL0     C30564   4.653  10.098   2.329 -0.0244 -0.5933 -0.0640
  990MOL0     N30565   4.551  10.104   2.429  0.5240  0.3377 -0.6994
  990MOL0     C30566   4.492  10.218   2.477  0.5287  0.3868 -0.1742
  990MOL0     C30567   4.390  10.178   2.561  0.3099  0.1992 -0.0404
  990MOL0     C30568   4.296  10.262   2.640 -0.7305 -0.3555 -0.4161
  990MOL0     C30569   4.212  10.358   2.557  0.1406  0.2850  0.0303
  990MOL0     C30570   4.091  10.274   2.504  0.2339 -0.3659 -0.7165
  990MOL0     C30571   3.983  10.367   2.442 -0.3009  0.5957 -0.5804
  990MOL0     O30572   3.863  10.340   2.517 -0.2302 -0.0289  0.6474
  990MOL0     C30573   3.750  10.401   2.469 -0.1988  0.2654  0.4029
  990MOL0     C30574   3.714  10.442   2.338 -0.5761 -0.8506 -0.5101
  990MOL0     C30575   3.591  10.494   2.313 -0.4483  0.1306  0.1616
  990MOL0     C30576   3.496  10.517   2.416  0.0806  0.4097  0.8202
  990MOL0     C30577   3.350  10.560   2.391  1.0421  1.0492 -0.1324
  990MOL0     O30578   3.262  10.555   2.496  0.4010  0.1101  0.0706
  990MOL0     C30579   3.135  10.618   2.490 -0.2631 -0.3247  0.7834
  990MOL0     C30580   3.081  10.672   2.606  0.8324 -0.0799 -0.2522
  990MOL0     C30581   2.953  10.731   2.597  0.2379  0.2503 -0.6469
  990MOL0     C30582   2.891  10.760   2.482  0.1835  0.2407 -1.0570
  990MOL0     O30583   2.787  10.847   2.469  0.3653  0.4896 -0.0111
  990MOL0     C30584   2.675  10.824   2.558  0.4383  0.3171 -0.0404
  990MOL0     C30585   2.546  10.896   2.516 -0.2799  0.4730 -0.0236
  990MOL0     C30586   2.558  11.047   2.519  0.2352 -0.1623 -1.1309
  990MOL0     C30587   2.456  11.117   2.438 -0.2628 -0.1631  0.6145
  990MOL0     C30588   2.317  11.103   2.510  0.5125 -0.4121  1.1292
  990MOL0     C30589   2.281  11.166   2.653 -0.3425  0.2841  0.4609
  990MOL0     C30590   2.319  11.314   2.671  0.8680 -0.1122  0.6610
  990MOL0     C30591   2.204  11.407   2.676  0.2088 -0.4662  0.7335
  990MOL0    Cl30592   2.103  11.368   2.820  0.1714 -0.1082 -0.0549
  990MOL0     C30593   2.933  10.702   2.369 -0.5098  0.0764  0.5712
  990MOL0     C30594   3.054  10.634   2.368 -0.8779  0.2855  1.2823
  990MOL0     O30595   3.331  10.614   2.278 -0.8318 -0.3389  0.6617
  990MOL0     C30596   3.525  10.464   2.536 -0.6992  0.3847  0.8011
  990MOL0     C30597   3.647  10.397   2.558 -0.2691  0.2893 -0.0619
  990MOL0     N30598   4.402  10.037   2.564  0.9198  0.4569 -0.4011
  990MOL0     N30599   4.488   9.993   2.481  0.0707  0.2092  0.1478
  990MOL0     C30600   5.746  10.343   2.353 -0.0003 -0.1815  0.2980
  990MOL0     C30601   5.865  10.381   2.408  0.1800 -0.1265 -0.6414
  990MOL0     C30602   6.300  10.361   2.507  0.0396 -0.2565 -0.1012
  990MOL0     C30603   6.399  10.442   2.449  0.1813 -1.2013 -0.6241
  990MOL0     C30604   6.537  10.419   2.476 -1.1077  0.3358  0.3992
  990MOL0     C30605   6.572  10.328   2.573 -0.1476 -0.0400 -0.6198
  990MOL0     O30606   6.691  10.312   2.641 -0.1128 -0.5105  0.0342
  990MOL0     C30607   6.808  10.382   2.585  0.4547  0.5472 -1.0974
  990MOL0     C30608   6.920  10.299   2.634 -0.3934 -0.5730 -0.0993
  990MOL0     C30609   6.936  10.304   2.784 -0.2572 -0.6106  0.4195
  990MOL0     C30610   6.910  10.169   2.849  0.4329  0.6706 -0.1808
  990MOL0     C30611   6.972  10.172   2.984 -0.0405 -1.0135 -0.3744
  990MOL0     C30612   7.007  10.179   3.098  0.7820 -0.0822  0.0339
  990MOL0     C30613   6.470  10.241   2.618 -1.3752  0.0144 -0.0724
  990MOL0     C30614   6.341  10.260   2.595  0.7363 -0.5759  0.4887
  990MOL0     H30615   5.933  10.088   2.582 -0.5582  0.0958 -1.2662
  990MOL0     H30616   5.728  10.030   2.495  1.6884 -2.1873 -1.2182
  990MOL0     H30617   5.542   9.997   2.361 -0.5024  1.8445  1.5764
  990MOL0     H30618   5.604  10.028   2.189 -0.9475 -3.5737  0.9516
  990MOL0     H30619   5.384   9.984   2.148 -1.0246  0.1179 -0.2297
  990MOL0     H30620   5.392  10.156   2.151 -1.3066 -0.0421  0.2011
  990MOL0     H30621   5.321  10.143   2.402  0.0524 -1.0683  0.5556
  990MOL0     H30622   5.297   9.969   2.370  1.5112  0.6531 -1.2047
  990MOL0     H30623   5.155  10.217   2.260 -1.0854 -0.2153  4.1721
  990MOL0     H30624   5.146  10.048   2.175 -0.4986 -2.9630  1.9469
  990MOL0     H30625   5.057  10.139   2.455 -1.0440 -1.5721  1.1751
  990MOL0     H30626   5.043   9.975   2.398 -0.2166 -0.1086 -0.2769
  990MOL0     H30627   4.896  10.069   2.201 -1.7646 -0.5492  0.8424
  990MOL0     H30628   4.896  10.228   2.279  0.1569  1.3109 -2.7885
  990MOL0     H30629   4.797   9.951   2.387 -1.8166  0.5967  1.0704
  990MOL0     H30630   4.781  10.092   2.489  0.4273  0.5878 -0.1377
  990MOL0     H30631   4.622  10.022   2.257 -0.7926  0.4100 -0.8268
  990MOL0     H30632   4.650  10.196   2.280  1.3571  2.7417  5.5345
  990MOL0     H30633   4.507  10.319   2.440 -1.8986  1.2663  1.0631
  990MOL0     H30634   4.362  10.316   2.709 -0.8118 -2.3048  1.2860
  990MOL0     H30635   4.219  10.207   2.695 -2.4172  0.2095 -2.1045
  990MOL0     H30636   4.276  10.400   2.479  2.8893 -1.2859  1.3272
  990MOL0     H30637   4.188  10.444   2.619  4.4069  0.9218  1.0918
  990MOL0     H30638   4.117  10.209   2.420  1.0668 -0.5601 -0.3232
  990MOL0     H30639   4.038  10.214   2.577 -1.6693  2.1874  0.1519
  990MOL0     H30640   3.970  10.357   2.334  0.6791  3.3822 -1.0497
  990MOL0     H30641   4.018  10.470   2.452  0.6966  0.5092 -2.6204
  990MOL0     H30642   3.785  10.435   2.256 -2.3296 -1.2710 -2.0624
  990MOL0     H30643   3.562  10.518   2.211  0.2719 -2.0313 -0.6219
  990MOL0     H30644   3.135  10.668   2.700  0.7135 -1.2198 -0.2170
  990MOL0     H30645   2.912  10.767   2.691  1.4026 -2.3482  0.9524
  990MOL0     H30646   2.693  10.861   2.659 -0.0409 -2.4319  1.1558
  990MOL0     H30647   2.642  10.720   2.563 -0.0159  0.3534 -1.6103
  990MOL0     H30648   2.463  10.846   2.567  1.5683 -2.8860 -0.0013
  990MOL0     H30649   2.526  10.871   2.412 -1.6676  2.4681 -0.3057
  990MOL0     H30650   2.655  11.091   2.494 -0.9730  4.8542  1.5529
  990MOL0     H30651   2.546  11.085   2.621 -3.2604 -2.2235 -0.6291
  990MOL0     H30652   2.484  11.219   2.410 -1.0501 -0.7154 -2.6507
  990MOL0     H30653   2.448  11.074   2.337 -2.1668  0.4986  0.4529
  990MOL0     H30654   2.305  10.994   2.508  0.6979 -0.4256 -0.1640
  990MOL0     H30655   2.242  11.144   2.443 -1.3703 -0.7867  2.9159
  990MOL0     H30656   2.347  11.124   2.729  1.5240  1.8645 -0.2150
  990MOL0     H30657   2.177  11.139   2.673 -0.2231 -0.8775 -0.3967
  990MOL0     H30658   2.360  11.324   2.772 -0.3198  1.7466  1.0152
  990MOL0     H30659   2.386  11.338   2.588  1.8832 -2.3051  0.7603
  990MOL0     H30660   2.147  11.411   2.582  3.0333  3.9959 -1.1756
  990MOL0     H30661   2.242  11.510   2.682  6.0443 -2.0997 -1.7598
  990MOL0     H30662   2.861  10.713   2.288 -0.1456  1.9943  0.4784
  990MOL0     H30663   3.089  10.615   2.267  0.0917  2.1739  1.2136
  990MOL0     H30664   3.446  10.458   2.610 -0.8599 -2.0865  0.5218
  990MOL0     H30665   3.672  10.342   2.648 -1.1825 -1.1700 -0.6769
  990MOL0     H30666   5.699  10.410   2.281  1.6879  2.8373  1.8394
  990MOL0     H30667   5.907  10.472   2.366 -0.4883 -1.0279 -3.5162
  990MOL0     H30668   6.383  10.531   2.388  2.4119  1.3442  2.1977
  990MOL0     H30669   6.616  10.481   2.434 -0.0097 -0.8673  0.6203
  990MOL0     H30670   6.829  10.485   2.617  0.6844 -0.1933  1.3680
  990MOL0     H30671   6.802  10.378   2.476  0.8005  1.3784 -1.1576
  990MOL0     H30672   6.915  10.194   2.604  2.5513 -1.9675  3.5818
  990MOL0     H30673   7.016  10.331   2.593 -1.8985  2.8649 -1.3502
  990MOL0     H30674   6.876  10.389   2.818 -1.0725 -0.6540 -0.8310
  990MOL0     H30675   7.040  10.334   2.797 -0.1567 -0.7194 -0.1242
  990MOL0     H30676   6.801  10.163   2.849  0.4891 -1.3771  1.3737
  990MOL0     H30677   6.942  10.086   2.785  1.2048  1.7996 -1.3065
  990MOL0     H30678   7.039  10.174   3.200 -1.9326  0.9015  1.0453
  990MOL0     H30679   6.504  10.156   2.676  2.3799 -0.3839 -2.4824
  990MOL0     H30680   6.278  10.178   2.631  1.5160 -2.7631 -2.6794
  991MOL0     O30681   0.040  10.531   9.958 -0.2936  0.7857  0.1963
  991MOL0     C30682  -0.052  10.589  10.018  0.7934 -0.0224 -0.1221
  991MOL0     O30683  -0.081  10.587  10.158  0.1117  0.3682  0.3533
  991MOL0     C30684   0.025  10.578  10.240  0.1127  0.3011  0.5705
  991MOL0     C30685   0.055  10.693  10.321 -0.5930  0.5944  0.7476
  991MOL0     C30686   0.152  10.682  10.417 -0.6121 -0.1430 -0.0994
  991MOL0     C30687   0.224  10.567  10.447 -0.4272  0.8205  0.4665
  991MOL0     O30688   0.308  10.566  10.558 -0.5815  0.3340  0.2389
  991MOL0     C30689   0.380  10.452  10.602  0.6221 -0.1366 -0.3127
  991MOL0     C30690   0.489  10.482  10.707 -0.7497  0.0794 -0.9995
  991MOL0     C30691   0.611  10.554  10.649 -0.3903  0.4437 -0.1520
  991MOL0     C30692   0.574  10.702  10.607  0.2730  0.2677  0.0475
  991MOL0     C30693   0.695  10.787  10.570 -1.0356  0.8631 -0.3512
  991MOL0     C30694   0.669  10.924  10.498  0.0940 -1.0052 -0.2518
  991MOL0     C30695   0.555  10.924  10.393 -0.4304 -0.0326  0.2713
  991MOL0     C30696   0.599  10.827  10.281 -0.2385  0.0297 -0.5860
  991MOL0     N30697   0.527  10.851  10.163 -0.1176 -0.3838  0.2714
  991MOL0     C30698   0.393  10.826  10.152  0.2085  0.2027  0.6801
  991MOL0     C30699   0.359  10.886  10.036 -0.2064  0.4639  0.1562
  991MOL0     C30700   0.218  10.880   9.988  0.4363 -0.5172  0.2852
  991MOL0     C30701   0.142  11.010  10.049 -1.5660  0.2847 -0.2934
  991MOL0     C30702  -0.008  10.986  10.033 -0.2799  0.1701  0.5479
  991MOL0     C30703  -0.089  11.114  10.071  0.3534  0.1759  0.5610
  991MOL0     O30704  -0.227  11.084  10.040  0.3703  0.0295  1.2746
  991MOL0     C30705  -0.312  11.082  10.140  0.2015  0.0307  0.0828
  991MOL0     C30706  -0.453  11.089  10.113 -1.2083 -0.9306 -0.2312
  991MOL0     C30707  -0.557  11.083  10.208 -0.2986  0.5424  0.8985
  991MOL0     C30708  -0.537  11.032  10.328 -0.7019  0.4588 -0.6629
  991MOL0     C30709  -0.647  11.016  10.432  0.4541 -0.1173  0.5156
  991MOL0     O30710  -0.622  10.941  10.547  0.2431  0.1321  0.9790
  991MOL0     C30711  -0.731  10.935  10.628  0.0407 -0.7800 -0.1913
  991MOL0     C30712  -0.835  10.841  10.613  0.4247  0.2842  0.1237
  991MOL0     C30713  -0.945  10.830  10.705 -0.9104 -0.5569 -0.0144
  991MOL0     C30714  -0.946  10.910  10.824  0.2269  0.0171  0.1277
  991MOL0     O30715  -1.048  10.910  10.921 -0.2529 -0.0288  0.9135
  991MOL0     C30716  -1.100  10.784  10.946 -0.0127 -0.1567 -0.1986
  991MOL0     C30717  -1.147  10.800  11.095  0.6156 -0.2530  0.3090
  991MOL0     C30718  -1.270  10.711  11.126  1.0882  0.9193 -1.6371
  991MOL0     C30719  -1.231  10.560  11.117 -0.1148 -0.4123  0.5453
  991MOL0     C30720  -1.355  10.483  11.158  0.5456 -0.2387  0.1604
  991MOL0     C30721  -1.331  10.330  11.165  0.2898 -0.0382 -0.9435
  991MOL0     C30722  -1.456  10.246  11.220  0.1889 -0.8965 -0.5628
  991MOL0     C30723  -1.443  10.098  11.191  0.5353 -0.2668  0.6224
  991MOL0    Cl30724  -1.302  10.022  11.261 -0.0310  0.1774 -0.4550
  991MOL0     C30725  -0.841  11.011  10.840  1.3860 -0.7170  0.9253
  991MOL0     C30726  -0.738  11.019  10.741 -0.1954 -0.4461  0.7611
  991MOL0     O30727  -0.759  11.070  10.398  0.2044 -0.5787  1.1408
  991MOL0     C30728  -0.398  11.021  10.358  0.1923  0.3229 -0.5393
  991MOL0     C30729  -0.291  11.049  10.275 -0.4872 -0.9908 -0.0768
  991MOL0     N30730   0.464  10.955   9.990  0.3440  0.0540 -0.1554
  991MOL0     N30731   0.560  10.948  10.077  0.0441  0.2472  0.1177
  991MOL0     C30732   0.195  10.461  10.367  0.7429  0.5852  0.1946
  991MOL0     C30733   0.103  10.463  10.260  0.3046  0.1727 -0.3572
  991MOL0     C30734  -0.150  10.664   9.932 -0.6319 -0.2476 -0.4090
  991MOL0     C30735  -0.145  10.648   9.791 -0.0845 -0.6097 -0.8373
  991MOL0     C30736  -0.229  10.730   9.711  1.0024 -0.2846 -1.0229
  991MOL0     C30737  -0.318  10.816   9.777 -0.0226 -0.1276 -0.3889
  991MOL0     O30738  -0.390  10.899   9.698 -0.0265 -0.5067  0.0185
  991MOL0     C30739  -0.528  10.863   9.686 -0.1221 -0.2380 -0.2229
  991MOL0     C30740  -0.579  10.915   9.552  0.2653  0.6914 -1.1725
  991MOL0     C30741  -0.721  10.960   9.554  0.4823  0.3097 -0.2155
  991MOL0     C30742  -0.765  10.992   9.407  0.4621  0.1615 -0.8264
  991MOL0     C30743  -0.912  10.997   9.394  0.6265  0.0543 -0.1148
  991MOL0     C30744  -1.031  11.020   9.399 -0.2157  0.0937 -0.5022
  991MOL0     C30745  -0.331  10.814   9.915 -0.0190 -0.3593  0.3180
  991MOL0     C30746  -0.249  10.741   9.996 -0.1842  1.1842  0.0947
  991MOL0     H30747  -0.008  10.780  10.307 -1.3852 -0.1366 -0.3828
  991MOL0     H30748   0.158  10.768  10.482 -0.0403 -1.4584  1.6826
  991MOL0     H30749   0.431  10.405  10.517  3.8293  0.8613  0.9114
  991MOL0     H30750   0.300  10.387  10.641 -0.7777  1.8816  0.3073
  991MOL0     H30751   0.513  10.385  10.751  1.5246  0.7277 -0.6877
  991MOL0     H30752   0.446  10.531  10.795  2.3451 -4.2520  3.4715
  991MOL0     H30753   0.645  10.496  10.563  1.1290  0.7029  0.2392
  991MOL0     H30754   0.689  10.541  10.724 -0.8755  0.0515  0.2885
  991MOL0     H30755   0.501  10.688  10.528 -1.4145  0.6992  1.4798
  991MOL0     H30756   0.516  10.748  10.687  1.4773 -0.9572  1.7132
  991MOL0     H30757   0.747  10.721  10.500 -0.5934  0.3008  0.4946
  991MOL0     H30758   0.759  10.793  10.658  0.7997 -1.8147 -1.3812
  991MOL0     H30759   0.759  10.950  10.441 -0.4252  0.0584 -0.6188
  991MOL0     H30760   0.654  10.998  10.577 -0.3686  0.4215 -1.6255
  991MOL0     H30761   0.465  10.902  10.451 -0.4392 -1.7042 -0.3305
  991MOL0     H30762   0.552  11.023  10.347  3.0660 -0.3690 -1.0223
  991MOL0     H30763   0.591  10.720  10.305  0.8035  0.6474  3.1017
  991MOL0     H30764   0.703  10.849  10.254  0.0308  0.7971  0.9484
  991MOL0     H30765   0.326  10.777  10.222 -0.3116  0.9711  0.7340
  991MOL0     H30766   0.160  10.792  10.018 -0.4098 -0.6845 -1.6571
  991MOL0     H30767   0.220  10.882   9.878  0.3706 -4.0479  0.1016
  991MOL0     H30768   0.187  11.093   9.993  1.5332 -1.0428 -0.0053
  991MOL0     H30769   0.160  11.020  10.156 -0.3630 -3.4589 -0.0077
  991MOL0     H30770  -0.039  10.948   9.935 -0.3704 -2.3573  1.4718
  991MOL0     H30771  -0.032  10.910  10.109 -1.4693  1.7345  1.7927
  991MOL0     H30772  -0.061  11.195  10.004  2.1644  0.7387  1.9148
  991MOL0     H30773  -0.072  11.147  10.174  2.6735 -0.8510  0.5655
  991MOL0     H30774  -0.467  11.130  10.013 -1.1859  1.5167  0.7008
  991MOL0     H30775  -0.661  11.106  10.185  0.0214  0.1111 -1.1762
  991MOL0     H30776  -0.836  10.767  10.534  1.9776  0.4030 -0.0506
  991MOL0     H30777  -1.030  10.765  10.687  0.0789 -2.5616  1.9821
  991MOL0     H30778  -1.037  10.695  10.937  0.6125 -0.0549  2.3899
  991MOL0     H30779  -1.189  10.766  10.886 -1.0301  0.5650  1.0341
  991MOL0     H30780  -1.168  10.904  11.121 -1.0162 -0.7489  1.1783
  991MOL0     H30781  -1.057  10.776  11.152  0.9547  0.1285 -0.0597
  991MOL0     H30782  -1.340  10.732  11.045 -0.4364 -2.1483 -1.2891
  991MOL0     H30783  -1.312  10.730  11.226  3.0056 -0.1291 -0.5761
  991MOL0     H30784  -1.204  10.524  11.017 -1.8510 -3.5050  1.0505
  991MOL0     H30785  -1.151  10.538  11.187  0.1795  0.6986  0.5676
  991MOL0     H30786  -1.425  10.500  11.076 -0.8128  1.8130  1.6353
  991MOL0     H30787  -1.411  10.525  11.242 -1.1723 -1.7097 -0.1881
  991MOL0     H30788  -1.241  10.316  11.226 -0.1717  0.4911 -0.1207
  991MOL0     H30789  -1.305  10.289  11.067 -1.8052  0.2214 -1.6708
  991MOL0     H30790  -1.461  10.256  11.328 -0.1103 -1.0400 -0.5644
  991MOL0     H30791  -1.542  10.289  11.168  2.7512  1.2410 -3.4606
  991MOL0     H30792  -1.448  10.088  11.082  2.4609  0.2381  0.4424
  991MOL0     H30793  -1.537  10.052  11.221  1.2651 -0.3267  3.0432
  991MOL0     H30794  -0.849  11.061  10.936 -0.6606 -1.8162  1.3811
  991MOL0     H30795  -0.663  11.097  10.747  2.0990 -2.4889  0.1793
  991MOL0     H30796  -0.378  10.973  10.454  1.6754  0.4101 -0.7775
  991MOL0     H30797  -0.190  11.027  10.307  0.6834  1.3317 -1.7952
  991MOL0     H30798   0.244  10.367  10.386  0.1383  0.0194 -0.8914
  991MOL0     H30799   0.082  10.374  10.203 -2.5175 -0.9030  2.0844
  991MOL0     H30800  -0.084  10.565   9.759 -0.2984 -1.6676  1.3054
  991MOL0     H30801  -0.226  10.730   9.602 -0.6845  1.0413 -1.1114
  991MOL0     H30802  -0.592  10.896   9.768 -2.1788 -1.8303 -1.0783
  991MOL0     H30803  -0.543  10.754   9.688 -1.0094 -0.1130  1.7176
  991MOL0     H30804  -0.532  11.011   9.531 -0.4523  1.0003 -1.4309
  991MOL0     H30805  -0.557  10.840   9.475  0.5070  1.6247 -2.0258
  991MOL0     H30806  -0.737  11.045   9.621 -1.6306 -0.5541  0.4514
  991MOL0     H30807  -0.790  10.882   9.587 -0.4519  0.0487 -2.5696
  991MOL0     H30808  -0.729  11.093   9.384 -2.9590  1.2949 -1.8173
  991MOL0     H30809  -0.713  10.926   9.337 -0.0322 -1.2281  0.0772
  991MOL0     H30810  -1.136  11.040   9.387 -0.7107 -1.5561  0.7638
  991MOL0     H30811  -0.407  10.873   9.966  0.2452 -2.0776  2.8319
  991MOL0     H30812  -0.250  10.743  10.104  0.3428 -0.5274  0.1512
  992MOL0     O30813   0.872  10.335   5.290  0.5816  0.2453  0.6871
  992MOL0     C30814   0.862  10.457   5.309 -0.1619 -0.3131  0.4861
  992MOL0     O30815   0.749  10.539   5.293 -0.0117  0.9397  0.8444
  992MOL0     C30816   0.638  10.479   5.247  0.5251  0.3982 -0.0865
  992MOL0     C30817   0.586  10.529   5.124 -0.1053 -0.1652 -0.0271
  992MOL0     C30818   0.472  10.482   5.069 -0.4831  0.1035  0.4577
  992MOL0     C30819   0.408  10.367   5.130  0.6668 -0.3597 -0.5796
  992MOL0     O30820   0.288  10.327   5.072 -0.0206 -0.8608 -0.0170
  992MOL0     C30821   0.176  10.273   5.138  0.3249 -0.0931  0.4746
  992MOL0     C30822   0.135  10.361   5.262  0.1931 -0.0702 -0.1748
  992MOL0     C30823  -0.012  10.350   5.308  0.4899  0.9254 -0.5485
  992MOL0     C30824  -0.045  10.211   5.353 -0.3442 -0.0624  0.7593
  992MOL0     C30825  -0.189  10.196   5.420 -0.0887 -0.3621  0.4806
  992MOL0     C30826  -0.248  10.051   5.428  0.0657 -0.2983  0.1667
  992MOL0     C30827  -0.142   9.955   5.473  0.0011 -0.0948 -0.0142
  992MOL0     C30828  -0.187   9.811   5.474  0.1113  0.5725 -0.2655
  992MOL0     N30829  -0.318   9.782   5.415 -0.2735 -0.0259 -0.0878
  992MOL0     C30830  -0.340   9.749   5.281 -0.2393 -0.2808 -0.2225
  992MOL0     C30831  -0.468   9.717   5.266  0.9948  0.2991  0.2189
  992MOL0     C30832  -0.529   9.677   5.136 -0.3681 -0.1739  0.2591
  992MOL0     C30833  -0.495   9.532   5.087 -1.1446  0.1750  0.0263
  992MOL0     C30834  -0.549   9.509   4.943 -0.8487 -0.0515 -0.1202
  992MOL0     C30835  -0.687   9.430   4.935 -0.0299 -0.3979  0.3327
  992MOL0     O30836  -0.720   9.397   4.798 -0.5210  0.0908  0.0155
  992MOL0     C30837  -0.820   9.304   4.780 -0.9439  0.9032  0.2948
  992MOL0     C30838  -0.955   9.351   4.771 -0.1715  0.0361 -0.2748
  992MOL0     C30839  -1.056   9.256   4.757 -0.3092 -1.0040  1.3081
  992MOL0     C30840  -1.034   9.119   4.741 -0.3138  0.5590  0.3027
  992MOL0     C30841  -1.144   9.023   4.718 -0.2074 -0.5247  0.0565
  992MOL0     O30842  -1.124   8.892   4.749  0.2246 -0.6820  0.1383
  992MOL0     C30843  -1.227   8.810   4.749 -0.1636  0.1259  0.8875
  992MOL0     C30844  -1.312   8.817   4.858 -0.3706 -0.3760 -0.2569
  992MOL0     C30845  -1.418   8.728   4.876  0.1374  0.7548  0.6088
  992MOL0     C30846  -1.420   8.610   4.803 -0.8136  0.1574  0.8841
  992MOL0     O30847  -1.512   8.506   4.805  0.0293  0.2147 -0.4698
  992MOL0     C30848  -1.628   8.523   4.881 -0.4605 -0.6841 -0.4026
  992MOL0     C30849  -1.717   8.401   4.866  0.2453  0.2363  0.2045
  992MOL0     C30850  -1.845   8.414   4.956  0.9165 -0.2166 -0.3676
  992MOL0     C30851  -1.918   8.292   4.978  0.5413  0.4315 -0.8226
  992MOL0     C30852  -2.017   8.332   5.093  0.3967 -0.7337  0.7435
  992MOL0     C30853  -2.119   8.225   5.123 -0.4811  0.0356  0.5122
  992MOL0     C30854  -2.210   8.249   5.246  0.0573 -0.8352 -0.2627
  992MOL0     C30855  -2.365   8.268   5.211 -1.6692 -0.3770  0.4015
  992MOL0    Cl30856  -2.425   8.106   5.152  0.7792 -0.2492  0.2386
  992MOL0     C30857  -1.326   8.596   4.701  0.5972  0.7894 -0.4070
  992MOL0     C30858  -1.237   8.700   4.667  0.6002 -0.6064 -0.5273
  992MOL0     O30859  -1.253   9.062   4.671  0.2104 -0.3264 -0.1790
  992MOL0     C30860  -0.904   9.076   4.759  0.9140  0.2829 -0.3862
  992MOL0     C30861  -0.799   9.163   4.769 -0.8854  1.6459  0.1681
  992MOL0     N30862  -0.531   9.737   5.394 -0.6244  0.7154  0.3027
  992MOL0     N30863  -0.439   9.749   5.481  0.1282 -0.7627 -0.1655
  992MOL0     C30864   0.455  10.322   5.258  0.2345 -0.0837  0.5034
  992MOL0     C30865   0.564  10.383   5.318  0.2629  0.0188  0.6639
  992MOL0     C30866   0.991  10.502   5.375  0.2299  0.7468  0.3427
  992MOL0     C30867   1.112  10.431   5.378  0.1288  0.2740  0.1176
  992MOL0     C30868   1.231  10.491   5.420  0.2169 -0.2107 -0.9209
  992MOL0     C30869   1.233  10.621   5.477  0.1069  0.5554  0.2591
  992MOL0     O30870   1.360  10.671   5.517  0.2757 -0.2096  0.1990
  992MOL0     C30871   1.365  10.817   5.523  0.1451 -0.1028 -0.6261
  992MOL0     C30872   1.512  10.864   5.523  0.3608  0.5064  0.0279
  992MOL0     C30873   1.587  10.815   5.398 -0.5433  0.7332 -0.5759
  992MOL0     C30874   1.734  10.858   5.414  0.1233 -0.3822 -1.0215
  992MOL0     C30875   1.821  10.811   5.311  0.1053  1.3078 -0.0856
  992MOL0     C30876   1.895  10.785   5.220 -0.2459 -0.5123 -0.4067
  992MOL0     C30877   1.116  10.693   5.477 -0.6705 -0.0446  0.2867
  992MOL0     C30878   1.000  10.634   5.423 -0.3554 -0.1025  0.1533
  992MOL0     H30879   0.643  10.609   5.078 -0.1323  0.6763  1.3530
  992MOL0     H30880   0.429  10.509   4.973 -2.2074 -1.0944  0.8360
  992MOL0     H30881   0.200  10.171   5.169 -2.9723 -1.3447 -0.5755
  992MOL0     H30882   0.097  10.253   5.065  0.3915 -0.7662  0.5833
  992MOL0     H30883   0.153  10.468   5.244  0.4380 -0.2007 -0.7428
  992MOL0     H30884   0.197  10.330   5.347 -2.9102 -1.7493  1.6502
  992MOL0     H30885  -0.081  10.378   5.228  1.7118 -0.4222 -2.1310
  992MOL0     H30886  -0.029  10.423   5.388 -1.0107  0.9460 -0.8586
  992MOL0     H30887  -0.052  10.151   5.262  2.6123  0.9570 -0.2779
  992MOL0     H30888   0.039  10.177   5.414 -0.4129 -1.4240  0.1421
  992MOL0     H30889  -0.264  10.256   5.367  0.1219 -0.5305 -0.0218
  992MOL0     H30890  -0.191  10.227   5.525 -2.6691  0.0994  0.3583
  992MOL0     H30891  -0.281  10.026   5.326 -2.6412  1.1143  0.5936
  992MOL0     H30892  -0.339  10.043   5.488 -1.0440  2.4692 -0.9893
  992MOL0     H30893  -0.054   9.950   5.407 -0.0327 -0.8596 -0.0189
  992MOL0     H30894  -0.120   9.979   5.578 -0.7901  1.8992 -0.2692
  992MOL0     H30895  -0.190   9.773   5.576  1.2248  0.2210 -0.3478
  992MOL0     H30896  -0.110   9.749   5.426 -0.3705 -0.5731  0.4135
  992MOL0     H30897  -0.267   9.758   5.201  0.9114  1.0461  0.9037
  992MOL0     H30898  -0.496   9.755   5.067  0.8077 -0.6897  0.2218
  992MOL0     H30899  -0.639   9.682   5.133 -0.6100 -3.5699 -1.2905
  992MOL0     H30900  -0.536   9.456   5.154 -1.1727  0.6969  0.6116
  992MOL0     H30901  -0.386   9.524   5.081 -0.9994  1.9307 -0.4799
  992MOL0     H30902  -0.555   9.609   4.899 -0.3087  0.0124 -0.0517
  992MOL0     H30903  -0.474   9.457   4.883  0.3590  2.1636 -0.6209
  992MOL0     H30904  -0.765   9.489   4.983  1.7827  1.6241  0.9326
  992MOL0     H30905  -0.687   9.336   4.991  1.6692 -2.0438 -2.2473
  992MOL0     H30906  -0.966   9.459   4.771 -1.5179  0.0647  3.6459
  992MOL0     H30907  -1.156   9.297   4.746  1.0696  2.7209  1.2014
  992MOL0     H30908  -1.295   8.897   4.930 -0.0795  0.9557 -1.7370
  992MOL0     H30909  -1.489   8.750   4.955 -0.1637 -0.0568  0.5790
  992MOL0     H30910  -1.684   8.608   4.841 -1.8006 -1.9044 -1.2352
  992MOL0     H30911  -1.597   8.543   4.984 -1.1396 -0.1324 -0.3016
  992MOL0     H30912  -1.666   8.306   4.884  1.6582  0.6332 -1.4951
  992MOL0     H30913  -1.748   8.405   4.761 -0.2285 -1.5372  0.2460
  992MOL0     H30914  -1.918   8.489   4.922 -1.2074 -1.4438  1.2333
  992MOL0     H30915  -1.809   8.448   5.054  0.8940 -0.2499 -0.3477
  992MOL0     H30916  -1.964   8.266   4.882  1.1696 -1.3423 -0.6770
  992MOL0     H30917  -1.861   8.204   5.008 -1.9640 -0.8465  0.4759
  992MOL0     H30918  -2.071   8.426   5.084  2.0329  0.3409  1.6595
  992MOL0     H30919  -1.960   8.345   5.186 -0.1990  1.4054  0.8620
  992MOL0     H30920  -2.057   8.138   5.149  0.5149  0.2627 -0.9549
  992MOL0     H30921  -2.187   8.206   5.039  1.9852 -0.9469 -1.4091
  992MOL0     H30922  -2.198   8.164   5.315  0.7096 -1.1979 -0.8186
  992MOL0     H30923  -2.175   8.334   5.305 -1.4147 -0.2047 -0.2625
  992MOL0     H30924  -2.376   8.339   5.128  0.4937  1.4828  1.5898
  992MOL0     H30925  -2.426   8.306   5.294  0.4742  0.0974  1.8390
  992MOL0     H30926  -1.343   8.505   4.644  1.0110  1.1751 -1.1598
  992MOL0     H30927  -1.155   8.682   4.598  2.4871  2.8311  0.5660
  992MOL0     H30928  -0.888   8.972   4.734 -0.3376  0.2841 -1.3484
  992MOL0     H30929  -0.699   9.121   4.767 -1.3019 -0.0354  4.2899
  992MOL0     H30930   0.402  10.249   5.318 -1.9997  1.4309  0.4863
  992MOL0     H30931   0.586  10.358   5.422 -1.0395  0.8125  1.1670
  992MOL0     H30932   1.112  10.324   5.355  3.1965  0.2995 -0.3954
  992MOL0     H30933   1.325  10.439   5.408 -0.0720 -0.9922  0.0262
  992MOL0     H30934   1.321  10.847   5.618  2.4756  1.0988  0.1304
  992MOL0     H30935   1.306  10.862   5.443 -1.4330 -2.4662 -0.9209
  992MOL0     H30936   1.520  10.973   5.524  0.7602  0.5036  2.3152
  992MOL0     H30937   1.564  10.835   5.615 -0.7083  0.6527  0.7048
  992MOL0     H30938   1.544  10.853   5.305 -0.1864  0.2311 -0.9506
  992MOL0     H30939   1.583  10.706   5.395  1.3144  0.6196 -0.4233
  992MOL0     H30940   1.734  10.967   5.419  0.6180 -0.3940 -0.6949
  992MOL0     H30941   1.770  10.825   5.512  2.3059 -0.8428 -1.9187
  992MOL0     H30942   1.964  10.774   5.139  0.7236 -1.5681  0.5303
  992MOL0     H30943   1.098  10.783   5.535 -0.8475 -0.2846  0.6083
  992MOL0     H30944   0.910  10.694   5.412 -0.0836  0.0231 -1.7136
  993MOL0     O30945  10.217   0.709   6.379  0.5056  0.0292  0.2641
  993MOL0     C30946  10.166   0.652   6.281 -0.0398 -0.4925 -1.2730
  993MOL0     O30947  10.138   0.520   6.275 -0.1353  0.7652 -0.0656
  993MOL0     C30948  10.233   0.424   6.299  0.8063 -0.3834  0.2023
  993MOL0     C30949  10.366   0.443   6.331  0.5100  0.2218 -1.5683
  993MOL0     C30950  10.441   0.331   6.368 -0.5420  0.2241 -0.0191
  993MOL0     C30951  10.398   0.204   6.337 -0.1743  0.0076 -0.0099
  993MOL0     O30952  10.469   0.089   6.351 -0.6432 -0.1212 -0.3790
  993MOL0     C30953  10.606   0.097   6.401  0.9065 -0.4399  0.6118
  993MOL0     C30954  10.672  -0.030   6.382  0.2794 -0.5366 -0.4797
  993MOL0     C30955  10.809  -0.048   6.439 -0.7338  0.5822 -1.0134
  993MOL0     C30956  10.868  -0.187   6.436  0.3260  0.5321 -0.3654
  993MOL0     C30957  11.000  -0.207   6.513 -0.0275 -0.0927 -0.1115
  993MOL0     C30958  10.982  -0.209   6.666 -0.7867 -0.1657 -0.1832
  993MOL0     C30959  11.114  -0.215   6.737 -0.1647 -0.2945 -0.4704
  993MOL0     C30960  11.176  -0.073   6.748  0.3758  0.0040 -0.7658
  993MOL0     N30961  11.305  -0.091   6.826 -0.6238 -0.0246 -0.1400
  993MOL0     C30962  11.419  -0.158   6.796 -0.1439 -0.7449  1.0219
  993MOL0     C30963  11.507  -0.145   6.899  0.8009 -0.7583 -0.7156
  993MOL0     C30964  11.648  -0.200   6.918  0.5905  1.1508  1.6669
  993MOL0     C30965  11.743  -0.138   7.016  0.2032  0.2027 -0.2716
  993MOL0     C30966  11.801  -0.002   6.979 -1.0273  0.1885  0.7461
  993MOL0     C30967  11.844  -0.005   6.831  0.7404 -0.2941 -0.1371
  993MOL0     O30968  11.950  -0.102   6.793  0.2198 -0.0259 -0.4905
  993MOL0     C30969  12.074  -0.098   6.853  0.0743 -0.1549 -0.0667
  993MOL0     C30970  12.141  -0.218   6.853  0.7777 -0.3242 -0.5597
  993MOL0     C30971  12.278  -0.216   6.868  0.0135  0.5623 -0.4123
  993MOL0     C30972  12.344  -0.094   6.914  0.0506  0.6734 -0.5951
  993MOL0     C30973  12.489  -0.100   6.947  0.3252 -0.5938 -0.4267
  993MOL0     O30974  12.542   0.020   6.996 -0.3235  0.4828 -0.3193
  993MOL0     C30975  12.679   0.018   7.029  0.0591  0.4396  0.8984
  993MOL0     C30976  12.749   0.137   6.993 -0.2899  0.4067 -0.0467
  993MOL0     C30977  12.883   0.153   7.044 -1.0118  0.5265  1.2507
  993MOL0     C30978  12.953   0.034   7.082 -0.1128  0.4025 -0.5421
  993MOL0     O30979  13.099   0.021   7.090 -0.1233  0.4678 -0.3198
  993MOL0     C30980  13.180   0.105   7.007  0.1675  0.5786 -0.3434
  993MOL0     C30981  13.297   0.150   7.099 -0.1889  0.7102 -0.5107
  993MOL0     C30982  13.391   0.243   7.033  0.0742 -0.1064  0.5092
  993MOL0     C30983  13.503   0.302   7.132  0.7310 -0.0767 -0.6678
  993MOL0     C30984  13.591   0.212   7.212  0.3245 -0.5021 -0.5280
  993MOL0     C30985  13.661   0.103   7.130 -0.8219  0.4483 -0.5914
  993MOL0     C30986  13.745   0.174   7.026  0.6993  0.3417  0.0955
  993MOL0     C30987  13.856   0.079   6.972  1.0913 -0.2826  0.9281
  993MOL0    Cl30988  13.964   0.186   6.865  0.2829  0.0223  0.4342
  993MOL0     C30989  12.889  -0.086   7.105  0.1595  1.3242  0.2457
  993MOL0     C30990  12.749  -0.090   7.090  0.4737  0.7415 -0.0352
  993MOL0     O30991  12.550  -0.205   6.932  0.4367  1.0277  0.2117
  993MOL0     C30992  12.276   0.023   6.921  0.2700  0.1830 -0.0445
  993MOL0     C30993  12.137   0.024   6.888  0.2490 -0.2720  0.9431
  993MOL0     N30994  11.446  -0.071   6.991 -1.0924 -0.5893  0.6115
  993MOL0     N30995  11.332  -0.036   6.946  0.9728 -0.7453  0.4663
  993MOL0     C30996  10.270   0.194   6.287 -0.2627 -0.2104  0.2325
  993MOL0     C30997  10.185   0.301   6.289 -0.1079 -0.5504 -0.0519
  993MOL0     C30998  10.097   0.740   6.186  0.4302 -0.2079  0.9839
  993MOL0     C30999  10.130   0.876   6.169  0.2612 -0.9561  0.2650
  993MOL0     C31000  10.078   0.955   6.071  0.6250  0.5970 -1.1372
  993MOL0     C31001   9.974   0.898   5.986 -0.3039 -0.9268 -1.5391
  993MOL0     O31002   9.932   0.980   5.884 -1.1733 -0.1786 -0.6973
  993MOL0     C31003   9.796   0.952   5.834  0.3426 -0.2773  0.4984
  993MOL0     C31004   9.741   1.055   5.741  0.1458 -0.0204  0.6886
  993MOL0     C31005   9.838   1.068   5.615  0.3896  0.4249 -0.1158
  993MOL0     C31006   9.784   1.180   5.524 -0.1191 -0.3092 -0.4499
  993MOL0     C31007   9.660   1.147   5.450  0.6460 -0.0781 -1.0372
  993MOL0     C31008   9.550   1.135   5.394 -0.7152  0.5925  0.3952
  993MOL0     C31009   9.925   0.767   6.014 -0.3442  0.0692 -0.0476
  993MOL0     C31010   9.993   0.686   6.104  0.3413 -0.2454  1.5274
  993MOL0     H31011  10.397   0.546   6.350 -1.3628  0.1575  3.6139
  993MOL0     H31012  10.543   0.343   6.404  0.1104  1.2516 -2.0896
  993MOL0     H31013  10.606   0.133   6.504 -2.8813  1.9253 -0.0459
  993MOL0     H31014  10.668   0.164   6.341  1.5031 -2.6549 -1.4442
  993MOL0     H31015  10.683  -0.049   6.275 -0.3535  0.0889 -0.6559
  993MOL0     H31016  10.608  -0.109   6.422 -1.1923  0.6267 -0.4598
  993MOL0     H31017  10.811  -0.026   6.546 -1.6611 -4.6616  0.3927
  993MOL0     H31018  10.878   0.014   6.382 -2.1579  1.5521 -1.7654
  993MOL0     H31019  10.795  -0.265   6.457  0.9960 -0.2315 -0.7931
  993MOL0     H31020  10.885  -0.208   6.330  3.7723  0.1120  0.1391
  993MOL0     H31021  11.074  -0.131   6.486  0.6244 -0.5197  0.4252
  993MOL0     H31022  11.035  -0.307   6.484 -4.2576 -2.8992  3.1042
  993MOL0     H31023  10.923  -0.300   6.682 -2.1118  0.7282  0.2188
  993MOL0     H31024  10.907  -0.141   6.706 -3.8418 -1.8329 -2.6011
  993MOL0     H31025  11.082  -0.245   6.838  1.1339 -0.0212  0.0407
  993MOL0     H31026  11.197  -0.275   6.699 -0.0145 -0.5629  0.2488
  993MOL0     H31027  11.115  -0.001   6.802 -1.2096 -1.5887 -0.3382
  993MOL0     H31028  11.203  -0.041   6.647 -0.4818  0.5378 -0.8337
  993MOL0     H31029  11.441  -0.222   6.711  1.6291  2.1124 -0.8094
  993MOL0     H31030  11.690  -0.211   6.817 -0.4892 -0.1423  1.3199
  993MOL0     H31031  11.632  -0.298   6.964 -1.2076  0.1165 -0.9059
  993MOL0     H31032  11.831  -0.198   7.042  1.6527  2.6512  0.9210
  993MOL0     H31033  11.681  -0.119   7.104 -0.1534 -0.0124 -0.4782
  993MOL0     H31034  11.723   0.072   6.998 -0.7795  0.6714 -0.0828
  993MOL0     H31035  11.891   0.040   7.025  1.5876 -0.8088 -2.9503
  993MOL0     H31036  11.891   0.092   6.807  3.8636 -0.9151  2.6664
  993MOL0     H31037  11.754  -0.017   6.770 -0.9747 -1.8442  2.5135
  993MOL0     H31038  12.093  -0.314   6.836  0.1545 -0.0696 -0.2773
  993MOL0     H31039  12.329  -0.310   6.853 -2.4430 -0.8472 -0.5121
  993MOL0     H31040  12.690   0.208   6.935  1.3502 -0.5115 -3.0623
  993MOL0     H31041  12.928   0.251   7.034  3.2063 -0.9907  3.2179
  993MOL0     H31042  13.119   0.185   6.964 -0.6031 -0.5705 -1.4687
  993MOL0     H31043  13.227   0.046   6.928  2.5479 -0.4215  1.7015
  993MOL0     H31044  13.343   0.052   7.114 -3.0216 -0.5308  0.8863
  993MOL0     H31045  13.268   0.186   7.199  2.8773 -0.3951  0.8945
  993MOL0     H31046  13.343   0.325   6.979  0.3081 -1.2940 -1.6115
  993MOL0     H31047  13.440   0.196   6.947  0.0160  0.8940 -0.0986
  993MOL0     H31048  13.567   0.375   7.081  4.0981 -1.8030  0.7374
  993MOL0     H31049  13.449   0.359   7.208 -1.5080 -2.8223 -0.0143
  993MOL0     H31050  13.524   0.147   7.268  1.9774  0.3348  2.6469
  993MOL0     H31051  13.654   0.260   7.288  0.8312 -3.1563  0.8734
  993MOL0     H31052  13.588   0.030   7.091 -0.0926 -0.3574 -0.4780
  993MOL0     H31053  13.735   0.042   7.183  0.3992 -1.7221 -4.3846
  993MOL0     H31054  13.679   0.214   6.948 -1.6841 -1.8578  0.8711
  993MOL0     H31055  13.808   0.251   7.072  0.6615  0.6807 -0.4000
  993MOL0     H31056  13.802   0.018   6.899 -1.2349  1.9796  0.6275
  993MOL0     H31057  13.907   0.019   7.049  1.5865  1.4936  2.0304
  993MOL0     H31058  12.936  -0.174   7.147 -2.9524  0.4487  2.1759
  993MOL0     H31059  12.682  -0.170   7.120  0.1497  0.8553 -0.4501
  993MOL0     H31060  12.327   0.116   6.944 -0.3809  0.2373  1.3221
  993MOL0     H31061  12.082   0.117   6.896  3.0915  1.5157  1.2919
  993MOL0     H31062  10.217   0.100   6.275 -2.3622  0.9712 -0.3744
  993MOL0     H31063  10.079   0.307   6.265 -0.7651 -0.5267  2.5739
  993MOL0     H31064  10.204   0.927   6.229  1.8516  1.4530 -3.3823
  993MOL0     H31065  10.114   1.056   6.053  0.2624  1.2568  1.4165
  993MOL0     H31066   9.736   0.944   5.926  2.7389  1.0884  2.2789
  993MOL0     H31067   9.791   0.857   5.780  0.0509  0.6325 -1.1188
  993MOL0     H31068   9.636   1.042   5.714 -0.3618  1.1532  1.9635
  993MOL0     H31069   9.735   1.139   5.811 -1.8119  0.7682 -0.3382
  993MOL0     H31070   9.844   0.970   5.566  2.1276  1.8913 -3.1127
  993MOL0     H31071   9.933   1.101   5.656  0.7328 -0.0380 -0.5356
  993MOL0     H31072   9.774   1.274   5.579  0.8193 -0.1660 -0.5085
  993MOL0     H31073   9.864   1.201   5.453 -0.5534 -0.0107 -0.8636
  993MOL0     H31074   9.469   1.097   5.336 -0.0105  0.0510 -0.2597
  993MOL0     H31075   9.845   0.716   5.961 -0.3872 -1.3997  1.3727
  993MOL0     H31076   9.957   0.584   6.111  2.7944 -1.4219 -0.9562
  994MOL0     O31077   8.341   8.541   6.015  0.3444  0.5488 -0.2783
  994MOL0     C31078   8.392   8.650   5.988  0.3231  0.1213 -0.0981
  994MOL0     O31079   8.326   8.757   5.948  0.1745 -0.1784 -0.2284
  994MOL0     C31080   8.184   8.761   5.933 -0.3432  0.9591  0.7191
  994MOL0     C31081   8.104   8.668   5.860  0.1794  0.4996  0.9118
  994MOL0     C31082   7.963   8.683   5.865 -0.9272  1.0421  0.2648
  994MOL0     C31083   7.896   8.775   5.949 -1.2046  0.2643 -0.2915
  994MOL0     O31084   7.767   8.782   5.953  0.5925 -0.2809 -0.2818
  994MOL0     C31085   7.718   8.767   6.087  0.4460  0.2158  0.0028
  994MOL0     C31086   7.569   8.828   6.092  0.0603 -0.3802  0.0936
  994MOL0     C31087   7.460   8.778   5.992 -0.5187 -0.3975  0.2594
  994MOL0     C31088   7.410   8.645   6.038 -0.6092  0.4790 -0.0658
  994MOL0     C31089   7.303   8.578   5.944 -0.6541 -0.2777  0.1658
  994MOL0     C31090   7.162   8.637   5.965 -0.6124  0.2196 -0.2645
  994MOL0     C31091   7.061   8.548   5.896  0.6250 -0.4953 -0.0756
  994MOL0     C31092   6.925   8.622   5.921  0.1854  0.8576 -0.3579
  994MOL0     N31093   6.894   8.694   5.802 -0.6858  0.4030  0.2071
  994MOL0     C31094   6.789   8.660   5.715  0.1509  0.1876  0.3256
  994MOL0     C31095   6.810   8.742   5.609 -0.3848 -0.2161  0.6807
  994MOL0     C31096   6.724   8.738   5.484  0.1019 -0.7660  0.2874
  994MOL0     C31097   6.632   8.867   5.474  0.2620 -0.0700 -0.6288
  994MOL0     C31098   6.500   8.851   5.547  0.3063  0.4677  0.3610
  994MOL0     C31099   6.418   8.984   5.537  0.1943  0.0971  0.2540
  994MOL0     O31100   6.310   8.983   5.623  0.3393 -0.7694 -1.0255
  994MOL0     C31101   6.253   9.105   5.623 -0.5992 -0.2326 -0.5906
  994MOL0     C31102   6.320   9.206   5.700  0.7650  0.1478  0.1177
  994MOL0     C31103   6.278   9.331   5.700 -0.2083 -0.0987 -0.1720
  994MOL0     C31104   6.157   9.366   5.637  0.8260 -0.4996 -0.0501
  994MOL0     C31105   6.101   9.500   5.645  0.6397  0.0357 -0.2681
  994MOL0     O31106   6.181   9.604   5.672 -0.8451  0.1628  0.8037
  994MOL0     C31107   6.133   9.739   5.664 -0.0391 -0.2526  0.8637
  994MOL0     C31108   6.005   9.783   5.644  0.2735 -0.1540 -0.0893
  994MOL0     C31109   5.975   9.923   5.620 -0.0833 -0.3369  0.3359
  994MOL0     C31110   6.072  10.023   5.645  0.0822  0.0761  1.2884
  994MOL0     O31111   6.029  10.148   5.624 -0.4509 -0.4400 -0.2630
  994MOL0     C31112   6.091  10.257   5.686  0.3561 -0.2353 -0.8351
  994MOL0     C31113   5.995  10.373   5.679 -0.7286 -0.3742 -0.0053
  994MOL0     C31114   6.016  10.469   5.793 -0.3323  0.2436  0.2473
  994MOL0     C31115   5.962  10.615   5.761 -0.2731  0.0200 -0.4652
  994MOL0     C31116   5.808  10.627   5.725 -0.4891  0.0029 -0.1224
  994MOL0     C31117   5.765  10.769   5.745  0.2151 -0.9959 -0.3400
  994MOL0     C31118   5.621  10.773   5.687  0.1880  0.1868 -0.8394
  994MOL0     C31119   5.578  10.921   5.669 -0.6022 -0.0606  0.7059
  994MOL0    Cl31120   5.692  11.029   5.569  0.2029  0.3925 -0.3091
  994MOL0     C31121   6.199   9.977   5.683  0.4412  0.1251  0.6555
  994MOL0     C31122   6.225   9.838   5.688  0.2252  0.6375  0.4228
  994MOL0     O31123   5.980   9.508   5.612 -0.3527 -0.5734  1.2051
  994MOL0     C31124   6.080   9.262   5.562 -0.1966  0.4613 -0.3942
  994MOL0     C31125   6.127   9.129   5.563 -0.1385 -0.3382 -1.0489
  994MOL0     N31126   6.908   8.843   5.639 -0.4237 -0.0352  0.4942
  994MOL0     N31127   6.959   8.801   5.752 -0.1510 -0.5985  0.3207
  994MOL0     C31128   7.981   8.872   6.013  0.4517  0.3116 -0.3170
  994MOL0     C31129   8.123   8.856   6.004  1.2887 -0.4752 -0.3824
  994MOL0     C31130   8.532   8.665   6.000 -1.3484 -0.2428 -0.8665
  994MOL0     C31131   8.609   8.557   6.030  0.1816 -0.8905 -0.0527
  994MOL0     C31132   8.743   8.575   6.042  0.0914 -0.1801 -0.8803
  994MOL0     C31133   8.813   8.700   6.022 -0.3589 -0.5828  0.1227
  994MOL0     O31134   8.949   8.712   6.041 -0.0720 -0.3955  0.5120
  994MOL0     C31135   9.031   8.595   6.073  0.2505  0.7300  0.5584
  994MOL0     C31136   9.178   8.622   6.070 -0.1129 -0.1961  0.1636
  994MOL0     C31137   9.241   8.645   5.934  0.3922 -0.3627 -1.0346
  994MOL0     C31138   9.364   8.719   5.953  0.7835 -1.0457  0.2901
  994MOL0     C31139   9.439   8.763   5.825 -0.3054 -0.3102 -0.7261
  994MOL0     C31140   9.512   8.795   5.736 -0.0056  0.0870 -0.8220
  994MOL0     C31141   8.737   8.807   5.979  0.6702  0.7803 -0.1740
  994MOL0     C31142   8.591   8.792   5.975 -0.5924 -0.7639 -0.6976
  994MOL0     H31143   8.144   8.590   5.796  0.0422  1.0953  0.0740
  994MOL0     H31144   7.900   8.628   5.796  0.9846 -0.5223 -0.3345
  994MOL0     H31145   7.778   8.819   6.163 -0.7722 -1.3768  2.1685
  994MOL0     H31146   7.713   8.660   6.107  1.3470  0.1227 -0.2394
  994MOL0     H31147   7.582   8.935   6.074 -0.9743 -0.0487  1.1707
  994MOL0     H31148   7.507   8.831   6.182 -1.9806  1.8369 -1.2750
  994MOL0     H31149   7.505   8.777   5.892  1.3275 -0.3561  1.0516
  994MOL0     H31150   7.376   8.849   5.987  0.1881  0.3618 -1.7454
  994MOL0     H31151   7.494   8.575   6.037 -1.9350 -1.1739  0.5554
  994MOL0     H31152   7.371   8.659   6.140  0.1634  3.3274 -0.0628
  994MOL0     H31153   7.288   8.475   5.978  1.3167 -0.1522  1.6536
  994MOL0     H31154   7.337   8.572   5.840  0.5764 -0.0811  0.5434
  994MOL0     H31155   7.162   8.740   5.928 -0.3870 -0.6151 -2.7834
  994MOL0     H31156   7.131   8.649   6.069  0.9858 -1.2432  0.4489
  994MOL0     H31157   7.083   8.541   5.789  1.7880  1.7654 -0.0589
  994MOL0     H31158   7.044   8.454   5.948 -1.7772 -0.7844 -1.2586
  994MOL0     H31159   6.934   8.693   6.004 -1.5784 -1.1025  1.6447
  994MOL0     H31160   6.851   8.552   5.960 -2.0316  1.7493 -2.6728
  994MOL0     H31161   6.725   8.574   5.735  0.5823  0.5584  4.1586
  994MOL0     H31162   6.664   8.646   5.486 -1.4738  0.1526 -1.5155
  994MOL0     H31163   6.779   8.739   5.389 -0.2265 -0.1939  0.0988
  994MOL0     H31164   6.617   8.885   5.367 -0.5574  0.5321 -0.4216
  994MOL0     H31165   6.680   8.960   5.504  0.4779  0.4048 -2.3769
  994MOL0     H31166   6.444   8.767   5.503 -0.6995  1.5998 -0.5787
  994MOL0     H31167   6.533   8.825   5.648  0.7795  3.5671  1.0960
  994MOL0     H31168   6.383   8.996   5.434 -0.2745 -0.6449  0.3242
  994MOL0     H31169   6.478   9.073   5.558  0.5092  0.1102 -0.6424
  994MOL0     H31170   6.417   9.185   5.744  1.1653  1.5675 -0.0656
  994MOL0     H31171   6.333   9.402   5.761 -1.8740  0.7692  0.3869
  994MOL0     H31172   5.912   9.727   5.635 -0.5460  1.1293 -0.0108
  994MOL0     H31173   5.873   9.943   5.590 -0.6893  2.1122  3.5760
  994MOL0     H31174   6.187  10.301   5.658 -0.0432  1.4985  0.3198
  994MOL0     H31175   6.109  10.238   5.792  0.8838  2.4148 -0.3832
  994MOL0     H31176   5.890  10.344   5.682 -0.4809 -1.5423  5.0195
  994MOL0     H31177   6.022  10.416   5.581  0.3393 -1.2227 -0.1072
  994MOL0     H31178   6.121  10.477   5.819  0.0817 -0.6351 -1.0278
  994MOL0     H31179   5.968  10.433   5.884 -0.6877  1.6484  0.6520
  994MOL0     H31180   5.974  10.685   5.844 -0.8380  0.4230 -0.7203
  994MOL0     H31181   6.026  10.643   5.677  1.0483 -0.3395  0.3768
  994MOL0     H31182   5.743  10.557   5.778 -0.5620  1.1498  1.3751
  994MOL0     H31183   5.793  10.593   5.622 -1.6740 -1.4686  0.4960
  994MOL0     H31184   5.844  10.821   5.689  1.8692 -1.5942  1.3403
  994MOL0     H31185   5.767  10.798   5.850 -0.4129  1.4416 -0.9432
  994MOL0     H31186   5.615  10.727   5.588  0.2171 -1.7631  0.0244
  994MOL0     H31187   5.553  10.714   5.749 -0.3001 -0.7671 -2.2110
  994MOL0     H31188   5.566  10.972   5.765  2.4196 -2.0341  2.2908
  994MOL0     H31189   5.484  10.941   5.617  0.4854  1.3555 -0.8069
  994MOL0     H31190   6.277  10.051   5.703 -1.4789  2.4809 -0.0596
  994MOL0     H31191   6.324   9.802   5.713  1.7159  1.6265 -3.4042
  994MOL0     H31192   5.985   9.273   5.511 -2.3856 -4.5713  1.9675
  994MOL0     H31193   6.061   9.053   5.524 -2.6855  1.3457 -0.3060
  994MOL0     H31194   7.929   8.949   6.069  1.6455  1.6488 -0.9803
  994MOL0     H31195   8.175   8.923   6.073 -1.2097  0.8079  0.3937
  994MOL0     H31196   8.559   8.467   6.065 -1.0279 -0.4286 -0.5642
  994MOL0     H31197   8.794   8.487   6.081  0.6426  0.5243  0.0189
  994MOL0     H31198   9.026   8.512   6.001  3.5969  0.0398  0.9345
  994MOL0     H31199   8.984   8.550   6.161 -0.3571  0.7195  0.2288
  994MOL0     H31200   9.179   8.706   6.140 -4.1503 -1.7213  2.3762
  994MOL0     H31201   9.218   8.535   6.122 -1.2615 -1.1023 -0.4338
  994MOL0     H31202   9.167   8.702   5.876  0.3814 -0.5929 -1.2508
  994MOL0     H31203   9.258   8.553   5.877  0.5464 -0.6321 -0.5594
  994MOL0     H31204   9.356   8.804   6.022  1.0135 -0.7857  0.0040
  994MOL0     H31205   9.434   8.655   6.007 -1.5274 -3.5426  0.5252
  994MOL0     H31206   9.593   8.818   5.671 -1.5427 -1.7245 -3.5768
  994MOL0     H31207   8.788   8.901   5.966  1.8517  0.4511  1.5887
  994MOL0     H31208   8.534   8.881   5.950  1.3622  0.7791  0.1086
  995MOL0     O31209   1.112   5.886   7.647  0.5132 -0.8120  0.2761
  995MOL0     C31210   1.147   5.854   7.534  0.3447  1.2367 -0.9857
  995MOL0     O31211   1.057   5.825   7.430  0.9464 -0.2533  0.5874
  995MOL0     C31212   0.929   5.881   7.431 -0.5346 -0.2250 -0.7367
  995MOL0     C31213   0.913   6.017   7.451  0.1568 -1.3026  0.5903
  995MOL0     C31214   0.788   6.080   7.427 -0.2569 -0.8280  0.2060
  995MOL0     C31215   0.683   5.998   7.389 -0.4066  0.0669 -0.1046
  995MOL0     O31216   0.571   6.059   7.346 -0.3547  0.0200  0.2652
  995MOL0     C31217   0.442   6.005   7.392 -1.0979  0.2965  0.9038
  995MOL0     C31218   0.336   6.118   7.434  0.3660 -1.0349 -0.1126
  995MOL0     C31219   0.194   6.074   7.465 -0.8020 -0.2110 -1.0048
  995MOL0     C31220   0.125   6.168   7.574 -0.2799  0.6913 -0.1548
  995MOL0     C31221   0.020   6.092   7.658 -0.1459 -0.1394  0.0128
  995MOL0     C31222  -0.093   6.026   7.577  0.9216  0.3961  0.5130
  995MOL0     C31223  -0.187   5.942   7.660  0.3367  0.5752  0.2050
  995MOL0     C31224  -0.297   6.027   7.731  0.1288  0.5947  0.7376
  995MOL0     N31225  -0.400   6.075   7.625  0.1720  1.0318  0.0178
  995MOL0     C31226  -0.521   6.015   7.605 -0.4314 -0.2521  0.0748
  995MOL0     C31227  -0.590   6.098   7.525  1.2386  0.3249 -0.0202
  995MOL0     C31228  -0.732   6.089   7.477  0.7008  0.1753  0.1045
  995MOL0     C31229  -0.829   6.138   7.583 -0.4937 -0.5856  0.2819
  995MOL0     C31230  -0.968   6.163   7.536  0.4994 -0.2365  0.2669
  995MOL0     C31231  -1.061   6.218   7.635 -0.0333 -0.1402  0.1354
  995MOL0     O31232  -1.077   6.125   7.748 -0.2543  0.7548  0.3493
  995MOL0     C31233  -1.184   6.039   7.756  1.5655  0.0964 -0.1452
  995MOL0     C31234  -1.241   6.020   7.879  0.1382 -0.8298  0.3818
  995MOL0     C31235  -1.358   5.959   7.896  0.1576  0.1257  0.0114
  995MOL0     C31236  -1.427   5.897   7.786 -0.0780 -0.7262  0.5121
  995MOL0     C31237  -1.559   5.828   7.819 -1.0418 -0.2115 -0.1308
  995MOL0     O31238  -1.610   5.853   7.942  0.0435 -0.0521 -0.4350
  995MOL0     C31239  -1.736   5.816   7.962 -0.2010  0.0069 -0.6658
  995MOL0     C31240  -1.759   5.698   8.049  0.1673 -0.6408  0.6608
  995MOL0     C31241  -1.896   5.662   8.068 -0.3164 -0.1633 -0.1433
  995MOL0     C31242  -2.002   5.721   8.002 -0.3899 -0.7696 -0.4895
  995MOL0     O31243  -2.122   5.669   8.000  0.6103 -0.3555  0.5020
  995MOL0     C31244  -2.191   5.668   8.128 -0.5062  0.5787  0.2656
  995MOL0     C31245  -2.336   5.688   8.102  0.3774 -0.3314  0.0277
  995MOL0     C31246  -2.427   5.666   8.222  0.0201  0.6962  0.5307
  995MOL0     C31247  -2.576   5.671   8.175  0.3113 -0.1816 -0.1657
  995MOL0     C31248  -2.692   5.664   8.275 -0.2494 -0.5581 -0.5412
  995MOL0     C31249  -2.664   5.570   8.400 -0.0207 -0.4320 -0.9735
  995MOL0     C31250  -2.764   5.572   8.524  0.0806  0.1688 -0.4172
  995MOL0     C31251  -2.792   5.431   8.586  1.2414  0.8390 -0.5966
  995MOL0    Cl31252  -2.665   5.367   8.696 -0.2292 -0.0559 -0.0181
  995MOL0     C31253  -1.964   5.837   7.927  0.4141  0.3451 -0.3619
  995MOL0     C31254  -1.837   5.890   7.916 -0.1842 -0.0835 -1.0742
  995MOL0     O31255  -1.594   5.737   7.739 -0.2612 -0.4044 -0.3655
  995MOL0     C31256  -1.368   5.926   7.655 -0.1854  0.1230  0.2642
  995MOL0     C31257  -1.252   5.990   7.641  0.3293  0.7726  1.2656
  995MOL0     N31258  -0.507   6.200   7.490 -0.4652 -0.0941 -0.3271
  995MOL0     N31259  -0.409   6.198   7.569  0.3195 -0.2315 -0.6330
  995MOL0     C31260   0.695   5.858   7.370  0.3314 -0.0150 -0.7915
  995MOL0     C31261   0.822   5.804   7.384  0.1604 -0.5176  0.6053
  995MOL0     C31262   1.288   5.842   7.512  0.9655  0.6250  0.6648
  995MOL0     C31263   1.371   5.832   7.621  0.4428 -0.2890  0.3659
  995MOL0     C31264   1.511   5.837   7.596 -0.4852 -0.4574  0.1295
  995MOL0     C31265   1.571   5.845   7.478 -0.1675  0.6481 -0.0066
  995MOL0     O31266   1.706   5.857   7.477 -0.9947  0.4535  0.7484
  995MOL0     C31267   1.779   5.825   7.359 -0.0972 -0.5959  0.1772
  995MOL0     C31268   1.923   5.781   7.389 -0.1949 -0.6569 -0.2927
  995MOL0     C31269   2.020   5.800   7.276 -0.4189  0.8632  0.0077
  995MOL0     C31270   2.160   5.751   7.315 -0.4747 -0.0902  0.1956
  995MOL0     C31271   2.171   5.610   7.279 -0.6930  0.1728  0.3745
  995MOL0     C31272   2.162   5.494   7.238  0.0550 -0.0277 -0.2249
  995MOL0     C31273   1.487   5.869   7.364 -0.4359 -0.1065 -0.1204
  995MOL0     C31274   1.348   5.855   7.380  0.0153 -0.1278  0.1203
  995MOL0     H31275   0.989   6.085   7.490  1.3066  0.1758 -3.7300
  995MOL0     H31276   0.776   6.187   7.440  2.1049 -0.7183  2.3931
  995MOL0     H31277   0.464   5.930   7.468  0.4446 -1.5887 -1.2749
  995MOL0     H31278   0.398   5.951   7.308 -1.0558  0.9877  0.4200
  995MOL0     H31279   0.328   6.179   7.344  0.2452 -1.8680 -0.6810
  995MOL0     H31280   0.375   6.173   7.519  0.0359  2.0746 -1.8398
  995MOL0     H31281   0.186   5.972   7.504 -1.5652 -0.4268 -1.6937
  995MOL0     H31282   0.127   6.069   7.378 -2.0347 -2.7691 -0.0100
  995MOL0     H31283   0.198   6.207   7.645 -1.3312  1.6841  0.4152
  995MOL0     H31284   0.078   6.257   7.531 -2.9842 -0.1965  0.7329
  995MOL0     H31285  -0.027   6.165   7.725  0.0018  1.3975 -1.4871
  995MOL0     H31286   0.074   6.013   7.710 -2.9158 -2.3857 -0.2360
  995MOL0     H31287  -0.049   5.960   7.501 -0.9075 -1.4185  0.9370
  995MOL0     H31288  -0.140   6.096   7.507  0.0376 -1.7725 -1.1990
  995MOL0     H31289  -0.237   5.865   7.600 -1.7160  2.9524 -1.3546
  995MOL0     H31290  -0.135   5.878   7.733 -1.8668 -2.3608 -0.5903
  995MOL0     H31291  -0.251   6.112   7.781 -0.1325  0.0477  1.9323
  995MOL0     H31292  -0.341   5.957   7.802 -0.6890 -2.9473 -2.8542
  995MOL0     H31293  -0.554   5.916   7.636  2.4659 -2.0684 -2.1187
  995MOL0     H31294  -0.744   5.981   7.459  1.5027 -0.3236  2.2462
  995MOL0     H31295  -0.735   6.153   7.388  2.2185  1.0158  0.6337
  995MOL0     H31296  -0.788   6.236   7.608 -2.5860  0.4328 -0.0144
  995MOL0     H31297  -0.822   6.065   7.665 -0.5220  0.1287  0.9329
  995MOL0     H31298  -0.964   6.234   7.453  5.9139 -0.0628  0.3043
  995MOL0     H31299  -1.009   6.071   7.493  0.8633  1.1900 -3.4965
  995MOL0     H31300  -1.157   6.232   7.583  0.1354  1.8622  0.3037
  995MOL0     H31301  -1.024   6.316   7.663  2.6146 -0.9766 -0.1994
  995MOL0     H31302  -1.186   6.067   7.960  3.1386  0.8653 -2.3705
  995MOL0     H31303  -1.397   5.949   7.997  2.2637 -1.6057  0.7458
  995MOL0     H31304  -1.682   5.647   8.105  0.7369  0.2487  0.6953
  995MOL0     H31305  -1.926   5.577   8.128  0.7481 -0.3123  0.2036
  995MOL0     H31306  -2.156   5.729   8.212  2.1595 -2.2886  1.4421
  995MOL0     H31307  -2.179   5.571   8.177  1.2982 -1.3232 -3.4678
  995MOL0     H31308  -2.368   5.618   8.024 -3.7001  1.7619 -0.4233
  995MOL0     H31309  -2.357   5.789   8.065 -1.7353 -0.8339 -0.2788
  995MOL0     H31310  -2.402   5.740   8.299  0.3440  0.6426  0.4796
  995MOL0     H31311  -2.397   5.564   8.246 -2.8012  0.0567  1.6654
  995MOL0     H31312  -2.591   5.769   8.128  1.6130 -0.0375 -0.3231
  995MOL0     H31313  -2.583   5.587   8.105  1.4085  0.1911 -0.7440
  995MOL0     H31314  -2.781   5.628   8.223 -3.4739  1.6527  2.9460
  995MOL0     H31315  -2.710   5.766   8.310 -0.0221 -0.5136 -0.5524
  995MOL0     H31316  -2.572   5.597   8.453 -0.7202 -0.6398  0.3995
  995MOL0     H31317  -2.656   5.471   8.355  0.9900  0.2756 -2.4397
  995MOL0     H31318  -2.723   5.641   8.598 -0.2352  1.5638 -1.4904
  995MOL0     H31319  -2.862   5.608   8.491 -0.2989 -0.8610 -0.4424
  995MOL0     H31320  -2.820   5.351   8.517  1.4804  1.1080 -1.0066
  995MOL0     H31321  -2.879   5.444   8.652  1.5992  0.0250  0.0402
  995MOL0     H31322  -2.052   5.886   7.885 -0.3379  2.9848  3.6763
  995MOL0     H31323  -1.820   5.987   7.871 -3.2932  1.1275  0.0628
  995MOL0     H31324  -1.434   5.897   7.574 -0.7854 -0.8009  1.0572
  995MOL0     H31325  -1.226   6.012   7.538 -0.5406 -0.2359  0.8213
  995MOL0     H31326   0.606   5.798   7.350  0.6675 -0.0736 -2.2196
  995MOL0     H31327   0.827   5.695   7.378 -3.2043 -0.7163 -1.1823
  995MOL0     H31328   1.331   5.844   7.721  1.0252  2.9628  0.3415
  995MOL0     H31329   1.575   5.845   7.683  0.6190  1.2371 -0.7904
  995MOL0     H31330   1.783   5.912   7.294 -0.6082  0.1787  1.1651
  995MOL0     H31331   1.733   5.739   7.308 -0.9774  0.4688 -0.8696
  995MOL0     H31332   1.953   5.837   7.478  0.1348  1.5307 -1.7057
  995MOL0     H31333   1.918   5.675   7.415 -1.5927  0.1007  3.0796
  995MOL0     H31334   2.009   5.903   7.243 -0.7001  0.8757  0.1335
  995MOL0     H31335   1.985   5.739   7.192 -3.5844  1.8672  0.4641
  995MOL0     H31336   2.239   5.797   7.255  1.7099 -0.1149  2.8137
  995MOL0     H31337   2.191   5.759   7.420  0.2429 -1.4953  0.1170
  995MOL0     H31338   2.151   5.393   7.204  0.9369  0.0371 -0.7178
  995MOL0     H31339   1.533   5.896   7.270  0.3754  1.8211  0.7717
  995MOL0     H31340   1.285   5.860   7.291 -0.0384  0.2786  0.1813
  996MOL0     O31341   4.286   0.773   5.631  0.4812 -0.7639 -0.0532
  996MOL0     C31342   4.276   0.763   5.751 -0.3490  0.7080  0.0800
  996MOL0     O31343   4.180   0.688   5.819  0.5425 -0.7991 -0.0176
  996MOL0     C31344   4.055   0.670   5.766  0.0928  0.0413  0.2586
  996MOL0     C31345   3.958   0.613   5.854  0.0341 -0.1939  1.8667
  996MOL0     C31346   3.822   0.600   5.816 -0.1615 -0.0543 -0.7900
  996MOL0     C31347   3.773   0.627   5.693  0.8395  0.3616  0.2361
  996MOL0     O31348   3.645   0.604   5.652 -0.6219  0.0261 -0.2336
  996MOL0     C31349   3.532   0.657   5.731 -0.1670  0.3075  0.8481
  996MOL0     C31350   3.489   0.782   5.660  0.4601  0.2361  0.3584
  996MOL0     C31351   3.437   0.753   5.515 -0.2764  0.0838  0.6187
  996MOL0     C31352   3.362   0.869   5.455  0.5710 -1.2474  0.5785
  996MOL0     C31353   3.336   0.846   5.306 -0.3972  1.0421 -0.4978
  996MOL0     C31354   3.309   0.966   5.221  0.8625 -0.0301 -0.6938
  996MOL0     C31355   3.202   1.058   5.284  0.6037 -0.3905  0.5419
  996MOL0     C31356   3.067   0.994   5.306  0.0887  0.7406  0.6023
  996MOL0     N31357   2.963   1.073   5.370 -0.8661 -0.5857  0.1905
  996MOL0     C31358   2.838   1.089   5.320 -0.0923 -0.2860 -0.2224
  996MOL0     C31359   2.773   1.173   5.404 -0.8388 -0.2778 -0.2617
  996MOL0     C31360   2.630   1.223   5.398  0.4646  0.6658  0.6435
  996MOL0     C31361   2.533   1.108   5.420  0.8665  0.0521  0.0858
  996MOL0     C31362   2.506   1.073   5.570 -0.0335  0.4448  0.3466
  996MOL0     C31363   2.371   1.009   5.589 -0.4065  0.4760  0.2857
  996MOL0     O31364   2.264   1.081   5.524 -0.6828 -0.2873  1.2067
  996MOL0     C31365   2.142   1.020   5.506 -0.1618 -1.0893 -0.3193
  996MOL0     C31366   2.037   1.091   5.442 -0.3105  0.3424  0.3180
  996MOL0     C31367   1.913   1.024   5.420  0.7609  0.9171 -0.7063
  996MOL0     C31368   1.891   0.899   5.468 -0.1720  0.5706  0.1802
  996MOL0     C31369   1.759   0.837   5.460  0.5616 -0.2066  0.2382
  996MOL0     O31370   1.654   0.922   5.422 -0.0266  0.4452  0.1195
  996MOL0     C31371   1.527   0.867   5.413  0.0877  0.1757  0.4622
  996MOL0     C31372   1.483   0.820   5.280  0.0047 -1.3629 -0.0529
  996MOL0     C31373   1.354   0.770   5.266 -0.1786  0.1618  0.2419
  996MOL0     C31374   1.260   0.781   5.367 -0.6291 -0.2645 -0.5291
  996MOL0     O31375   1.132   0.742   5.358 -0.1521 -0.0062 -0.1781
  996MOL0     C31376   1.033   0.843   5.358  0.1417  0.5784  0.9678
  996MOL0     C31377   0.905   0.788   5.292  0.0673 -0.7466 -0.1006
  996MOL0     C31378   0.788   0.884   5.264  0.3590 -0.4096 -0.5430
  996MOL0     C31379   0.648   0.825   5.298 -0.7680 -0.0300 -0.1548
  996MOL0     C31380   0.542   0.929   5.253  0.5808  0.1479 -0.5667
  996MOL0     C31381   0.396   0.882   5.286 -0.1746 -0.4393  0.0968
  996MOL0     C31382   0.363   0.743   5.232  0.0075 -0.5680 -0.5146
  996MOL0     C31383   0.217   0.710   5.264  0.3182  0.0175 -0.3388
  996MOL0    Cl31384   0.156   0.576   5.157  0.5967 -0.0574  0.3451
  996MOL0     C31385   1.306   0.834   5.491 -0.5427 -1.0333  0.4220
  996MOL0     C31386   1.438   0.873   5.510  0.1971  0.1193 -0.1256
  996MOL0     O31387   1.752   0.721   5.488 -0.0549 -0.0224 -0.6841
  996MOL0     C31388   1.997   0.828   5.534 -0.9072 -0.3406 -0.1849
  996MOL0     C31389   2.119   0.891   5.562 -0.1161 -0.7476 -0.2759
  996MOL0     N31390   2.853   1.196   5.511 -0.0937 -0.5765  0.6571
  996MOL0     N31391   2.968   1.138   5.489  0.2434  0.1162 -0.2326
  996MOL0     C31392   3.869   0.692   5.611  0.2031 -0.3626 -0.3997
  996MOL0     C31393   4.005   0.708   5.639  0.5788  0.4263  0.4078
  996MOL0     C31394   4.398   0.794   5.829 -0.3571  0.7719  0.6424
  996MOL0     C31395   4.397   0.776   5.968 -1.8894  0.9154 -0.4337
  996MOL0     C31396   4.519   0.795   6.049  0.3642 -0.6526  0.0518
  996MOL0     C31397   4.637   0.853   5.981 -0.7531 -0.8007  0.1559
  996MOL0     O31398   4.763   0.860   6.022  0.7163  0.4450 -0.5789
  996MOL0     C31399   4.792   0.937   6.137  0.4025 -0.1579 -0.2844
  996MOL0     C31400   4.892   1.044   6.098 -0.6977 -0.3455 -0.3319
  996MOL0     C31401   5.033   0.981   6.094 -0.3257 -0.3101 -0.1209
  996MOL0     C31402   5.137   1.075   6.030 -1.5571  0.7815  0.6575
  996MOL0     C31403   5.086   1.133   5.909  0.0695 -0.1181 -0.0254
  996MOL0     C31404   5.038   1.186   5.811  0.0822 -0.2281 -0.2966
  996MOL0     C31405   4.625   0.901   5.851  0.0502  0.2389  0.7680
  996MOL0     C31406   4.507   0.869   5.770 -0.0277 -0.2201 -0.1081
  996MOL0     H31407   4.000   0.580   5.949 -1.5582  1.4707  3.2302
  996MOL0     H31408   3.750   0.553   5.883 -0.2623 -2.0708 -2.2414
  996MOL0     H31409   3.563   0.672   5.834 -0.9342 -0.9388  1.2841
  996MOL0     H31410   3.453   0.581   5.729 -1.3151  1.3574 -2.9593
  996MOL0     H31411   3.573   0.852   5.668  1.8998 -1.3644 -0.3064
  996MOL0     H31412   3.399   0.818   5.712  0.2952  0.2041  0.0935
  996MOL0     H31413   3.369   0.668   5.505 -1.4327  1.1813 -1.7672
  996MOL0     H31414   3.524   0.742   5.450  0.5567  0.8978  1.5613
  996MOL0     H31415   3.275   0.895   5.516 -0.2549  0.1221 -1.1171
  996MOL0     H31416   3.422   0.960   5.462 -0.4171 -0.5474  0.0522
  996MOL0     H31417   3.255   0.773   5.299  1.3915 -1.0096 -0.8848
  996MOL0     H31418   3.428   0.802   5.265 -1.4722 -3.4784  1.3432
  996MOL0     H31419   3.273   0.943   5.120 -1.1625  1.6280 -0.4052
  996MOL0     H31420   3.398   1.029   5.212  2.3048 -1.5064  1.9017
  996MOL0     H31421   3.241   1.095   5.380  0.9212 -1.6285  0.9094
  996MOL0     H31422   3.189   1.145   5.219  3.1995  0.9480  1.6349
  996MOL0     H31423   3.081   0.901   5.363 -1.7925  0.8207  1.2565
  996MOL0     H31424   3.032   0.970   5.206 -0.1104  2.2108  0.3050
  996MOL0     H31425   2.786   1.049   5.234  1.3779  3.1325 -2.9573
  996MOL0     H31426   2.624   1.259   5.295  1.7308 -2.2491 -0.5534
  996MOL0     H31427   2.613   1.300   5.474  1.1186  0.0459  1.4398
  996MOL0     H31428   2.554   1.024   5.353 -1.0670  1.1231 -1.9598
  996MOL0     H31429   2.442   1.152   5.379  1.8316  1.1750 -0.9125
  996MOL0     H31430   2.579   0.999   5.605 -1.5595 -1.5155 -0.3643
  996MOL0     H31431   2.510   1.164   5.630 -1.5388  0.3449  0.6495
  996MOL0     H31432   2.347   1.009   5.696 -1.7443  1.7384  0.0097
  996MOL0     H31433   2.380   0.907   5.551  2.2398  0.3492  1.0418
  996MOL0     H31434   2.054   1.189   5.400  2.8805  0.2397  1.1294
  996MOL0     H31435   1.826   1.074   5.377 -2.0216 -1.5071  1.6516
  996MOL0     H31436   1.554   0.818   5.198  0.8313 -1.9675  0.6727
  996MOL0     H31437   1.333   0.730   5.167  0.9304  0.5924 -0.1924
  996MOL0     H31438   1.074   0.924   5.297  3.1507 -1.2620  0.3280
  996MOL0     H31439   1.010   0.897   5.450 -0.8407  4.3320 -1.2783
  996MOL0     H31440   0.877   0.713   5.366 -2.8336  1.9787  1.8165
  996MOL0     H31441   0.937   0.751   5.194 -0.7555  2.9315 -1.9179
  996MOL0     H31442   0.784   0.907   5.157  0.8073 -0.1469 -0.5065
  996MOL0     H31443   0.798   0.971   5.329 -0.8386  0.2832 -1.2537
  996MOL0     H31444   0.628   0.732   5.244 -1.5252  0.0363  0.0133
  996MOL0     H31445   0.636   0.808   5.405  0.5706  2.3102  0.4546
  996MOL0     H31446   0.553   0.938   5.145  2.2822 -0.3941 -0.4698
  996MOL0     H31447   0.564   1.024   5.304  2.2282 -0.5230  0.0273
  996MOL0     H31448   0.328   0.961   5.252 -0.4444 -1.0755 -0.8871
  996MOL0     H31449   0.409   0.891   5.394  1.2377 -1.7072  0.0621
  996MOL0     H31450   0.368   0.741   5.122 -1.5566 -2.5641 -0.6031
  996MOL0     H31451   0.429   0.673   5.283  0.4031  2.0007  2.8027
  996MOL0     H31452   0.148   0.795   5.269  0.2091 -0.1260  0.9792
  996MOL0     H31453   0.221   0.687   5.370  3.1947  0.6062 -0.2361
  996MOL0     H31454   1.240   0.840   5.577 -1.5590 -0.8129 -0.3595
  996MOL0     H31455   1.447   0.906   5.613 -1.5003  0.0745  0.0709
  996MOL0     H31456   1.997   0.723   5.560  2.0206 -0.5135 -0.5440
  996MOL0     H31457   2.196   0.838   5.616  0.5093 -0.2290 -0.6500
  996MOL0     H31458   3.822   0.736   5.524 -0.7472  2.6983  1.4924
  996MOL0     H31459   4.064   0.754   5.560  0.0762  0.5633  0.1058
  996MOL0     H31460   4.308   0.739   6.018  1.2213 -2.3912  3.3487
  996MOL0     H31461   4.525   0.769   6.154  0.5815 -0.4511  0.0890
  996MOL0     H31462   4.830   0.874   6.218  0.3233  2.0347  1.5591
  996MOL0     H31463   4.699   0.984   6.171  0.8429  0.2432  0.3755
  996MOL0     H31464   4.861   1.077   5.998  0.1649 -3.5157 -1.7745
  996MOL0     H31465   4.870   1.129   6.163 -5.1861 -0.9862 -0.7527
  996MOL0     H31466   5.021   0.882   6.047 -1.2616 -1.2030  1.8785
  996MOL0     H31467   5.068   0.957   6.195 -0.0288 -3.3123 -0.8379
  996MOL0     H31468   5.176   1.150   6.099  0.4347  0.9672 -0.5935
  996MOL0     H31469   5.227   1.017   6.010 -1.5504  0.8515  0.4816
  996MOL0     H31470   4.998   1.237   5.726 -2.2085  0.3558  1.0381
  996MOL0     H31471   4.717   0.950   5.821  0.5358 -1.0442  0.0702
  996MOL0     H31472   4.502   0.893   5.664 -1.5140 -1.7956 -0.4426
  997MOL0     O31473   3.976   3.600   2.587 -0.7578 -0.3783  0.1553
  997MOL0     C31474   4.010   3.488   2.545 -0.6793 -0.9921  0.2875
  997MOL0     O31475   4.140   3.439   2.539  0.2383 -0.1102 -0.3766
  997MOL0     C31476   4.234   3.531   2.581 -0.6779  0.5370  0.6436
  997MOL0     C31477   4.305   3.605   2.480 -0.5318  0.2105 -0.5651
  997MOL0     C31478   4.421   3.677   2.521 -0.9805  0.5629 -0.3102
  997MOL0     C31479   4.445   3.698   2.654 -0.6430 -0.7662  0.3498
  997MOL0     O31480   4.531   3.792   2.706 -0.4114 -0.0806 -0.9214
  997MOL0     C31481   4.571   3.906   2.632  0.0778  0.4403  0.3537
  997MOL0     C31482   4.651   3.990   2.745  0.0515  0.3438  0.9388
  997MOL0     C31483   4.612   4.142   2.741 -0.3334 -0.5081 -0.6034
  997MOL0     C31484   4.714   4.226   2.817 -0.0094 -0.2071  0.0713
  997MOL0     C31485   4.706   4.378   2.785 -0.3037 -0.3053  1.3999
  997MOL0     C31486   4.769   4.401   2.646  0.4675  0.3034 -0.1404
  997MOL0     C31487   4.789   4.545   2.610 -0.4513 -0.5547 -0.7733
  997MOL0     C31488   4.666   4.634   2.599  0.6815 -0.0242  0.2704
  997MOL0     N31489   4.692   4.772   2.545 -0.2208 -0.3625 -0.7272
  997MOL0     C31490   4.718   4.796   2.415  0.1389 -0.0854 -0.1277
  997MOL0     C31491   4.709   4.926   2.396 -0.0203 -0.0482 -0.2521
  997MOL0     C31492   4.728   5.003   2.262 -0.0241  0.9671 -1.2667
  997MOL0     C31493   4.602   5.054   2.199  0.0380  0.3130 -0.5338
  997MOL0     C31494   4.507   5.128   2.285 -0.2536  0.2132  0.3310
  997MOL0     C31495   4.383   5.182   2.213 -0.8038  0.5591 -0.4985
  997MOL0     O31496   4.326   5.062   2.147  0.0043 -0.5803  0.1870
  997MOL0     C31497   4.201   5.032   2.194  0.0445  0.2886 -0.1588
  997MOL0     C31498   4.172   4.896   2.202  0.4568 -0.2427  0.6863
  997MOL0     C31499   4.046   4.846   2.260  0.4698 -0.3848  0.3812
  997MOL0     C31500   3.950   4.944   2.298  0.2661  0.3646  0.3528
  997MOL0     C31501   3.813   4.902   2.336  0.4294 -1.5688 -0.6684
  997MOL0     O31502   3.790   4.761   2.346 -1.1516 -0.3690 -0.1880
  997MOL0     C31503   3.686   4.712   2.421  0.4843  0.0224 -1.4884
  997MOL0     C31504   3.643   4.588   2.388 -1.2881 -0.1652  0.1853
  997MOL0     C31505   3.533   4.531   2.456  0.2319 -0.3131 -0.3212
  997MOL0     C31506   3.453   4.604   2.540 -0.6792 -0.0239  0.3896
  997MOL0     O31507   3.335   4.550   2.591 -0.1801  0.9591  0.3943
  997MOL0     C31508   3.286   4.426   2.532  0.6982 -0.0559  0.1966
  997MOL0     C31509   3.151   4.391   2.591 -0.5125  0.1051 -0.3268
  997MOL0     C31510   3.049   4.495   2.544 -0.3206  0.2090 -0.3247
  997MOL0     C31511   2.894   4.460   2.567 -0.4153 -0.0972 -0.5724
  997MOL0     C31512   2.800   4.571   2.528 -0.4660 -0.4174 -0.2822
  997MOL0     C31513   2.679   4.510   2.455 -0.3308  0.1194  0.1928
  997MOL0     C31514   2.545   4.586   2.436 -1.1581  0.2557  0.2540
  997MOL0     C31515   2.449   4.507   2.341  1.2120 -0.2968  0.1763
  997MOL0    Cl31516   2.316   4.465   2.442  0.6900  0.3222 -0.3350
  997MOL0     C31517   3.495   4.729   2.586  0.3444 -0.7736  0.1399
  997MOL0     C31518   3.609   4.786   2.521  0.0667 -0.2356 -0.8052
  997MOL0     O31519   3.732   4.991   2.360 -0.5857  0.8741 -0.4413
  997MOL0     C31520   3.981   5.082   2.277 -0.2902  0.4576 -0.9772
  997MOL0     C31521   4.099   5.123   2.223 -0.5609  0.4151 -0.2233
  997MOL0     N31522   4.668   4.982   2.515  0.4277  0.6943 -0.1503
  997MOL0     N31523   4.660   4.892   2.610  0.5271  1.1572  0.5861
  997MOL0     C31524   4.379   3.625   2.751  0.0351  0.0487 -0.7979
  997MOL0     C31525   4.277   3.536   2.714 -0.7560  0.2582  0.4667
  997MOL0     C31526   3.905   3.386   2.511 -0.4148  0.6884 -0.0550
  997MOL0     C31527   3.788   3.440   2.476 -0.2739 -0.8614  0.6027
  997MOL0     C31528   3.682   3.360   2.455  0.0489  0.2767 -0.3320
  997MOL0     C31529   3.699   3.220   2.462 -0.5357  0.7535 -0.0027
  997MOL0     O31530   3.583   3.146   2.461 -0.4131  0.4892  0.4911
  997MOL0     C31531   3.585   3.002   2.463 -0.6418 -0.3230 -0.0012
  997MOL0     C31532   3.447   2.932   2.442  0.2619  0.1549  0.0596
  997MOL0     C31533   3.346   2.967   2.559 -0.5207 -0.1370  0.8554
  997MOL0     C31534   3.255   3.084   2.524 -0.3735 -0.6033  0.2062
  997MOL0     C31535   3.146   3.037   2.448  0.1132 -0.3448  0.7431
  997MOL0     C31536   3.046   3.001   2.388 -1.0195 -0.6702  1.1461
  997MOL0     C31537   3.824   3.161   2.490 -0.6300  0.8345  0.1741
  997MOL0     C31538   3.929   3.249   2.517 -0.2158  0.2282 -0.0772
  997MOL0     H31539   4.289   3.593   2.373  0.3381  0.3402 -0.7149
  997MOL0     H31540   4.479   3.726   2.444  0.5338  1.2950  1.2380
  997MOL0     H31541   4.480   3.957   2.598  0.1259 -0.1013 -0.6109
  997MOL0     H31542   4.627   3.880   2.542  1.4464 -1.6507  1.7075
  997MOL0     H31543   4.756   3.979   2.716 -0.2233 -0.2369  0.0920
  997MOL0     H31544   4.632   3.953   2.846 -0.5769 -0.0275  0.6944
  997MOL0     H31545   4.516   4.150   2.794 -1.1831  0.2578 -2.1949
  997MOL0     H31546   4.585   4.181   2.643 -0.2412 -1.1188 -0.8809
  997MOL0     H31547   4.704   4.207   2.924 -0.2922  0.4466  0.1713
  997MOL0     H31548   4.818   4.194   2.808 -0.5673 -2.1751  0.2808
  997MOL0     H31549   4.750   4.433   2.869 -0.2228 -1.3927  2.0890
  997MOL0     H31550   4.603   4.415   2.793  0.9340  4.1952 -0.4081
  997MOL0     H31551   4.701   4.351   2.576  1.3657 -0.5731 -0.4168
  997MOL0     H31552   4.868   4.355   2.635  0.5685 -0.2268  2.4901
  997MOL0     H31553   4.859   4.572   2.689 -0.2308 -0.1331 -1.1121
  997MOL0     H31554   4.822   4.538   2.506  1.3819 -1.1142 -0.1895
  997MOL0     H31555   4.608   4.642   2.691 -0.6320  0.9011 -0.6092
  997MOL0     H31556   4.591   4.590   2.532  2.1176  0.7911 -1.9728
  997MOL0     H31557   4.747   4.722   2.341  1.3101 -1.0711  1.2554
  997MOL0     H31558   4.787   4.940   2.194 -2.4408 -2.2896 -0.5793
  997MOL0     H31559   4.779   5.095   2.292 -0.5667  0.4220  1.5630
  997MOL0     H31560   4.551   4.966   2.158 -0.8665  0.5258  0.1204
  997MOL0     H31561   4.620   5.124   2.117 -1.0485  1.4092  0.1529
  997MOL0     H31562   4.468   5.055   2.357 -3.8749  1.5553 -0.0343
  997MOL0     H31563   4.552   5.211   2.340 -1.7519  1.8836 -0.8469
  997MOL0     H31564   4.405   5.264   2.145  1.3398  0.4467 -0.0104
  997MOL0     H31565   4.316   5.218   2.292 -3.5267 -0.6032 -2.1415
  997MOL0     H31566   4.251   4.825   2.178  2.8787  2.4083  0.3774
  997MOL0     H31567   4.038   4.738   2.264 -1.4958 -0.2992 -0.3620
  997MOL0     H31568   3.682   4.526   2.307 -2.2482  1.0808 -1.2897
  997MOL0     H31569   3.506   4.433   2.418  2.2201 -0.4740 -1.4239
  997MOL0     H31570   3.354   4.343   2.550  0.0914 -2.2158 -5.4268
  997MOL0     H31571   3.271   4.440   2.424 -2.3835  1.2243  0.6629
  997MOL0     H31572   3.156   4.369   2.698  2.2553 -2.9533 -0.9332
  997MOL0     H31573   3.138   4.287   2.560 -0.2972 -0.1880  0.5298
  997MOL0     H31574   3.066   4.520   2.439 -0.6562  2.7968  0.1601
  997MOL0     H31575   3.075   4.585   2.600  0.7627 -0.1169 -0.2791
  997MOL0     H31576   2.868   4.369   2.513  1.2125 -0.0824 -1.4546
  997MOL0     H31577   2.874   4.434   2.671 -3.0342 -0.0798 -0.9899
  997MOL0     H31578   2.846   4.647   2.464 -1.6356 -1.5452 -2.5985
  997MOL0     H31579   2.775   4.617   2.624 -2.9084 -1.1054 -0.5122
  997MOL0     H31580   2.645   4.424   2.515  1.2137 -0.8613 -0.2802
  997MOL0     H31581   2.731   4.471   2.367  1.0087  1.2661  0.4390
  997MOL0     H31582   2.506   4.617   2.533  1.2716  1.5960  0.9066
  997MOL0     H31583   2.578   4.685   2.400  1.9709 -0.2717  1.3255
  997MOL0     H31584   2.491   4.419   2.290 -1.2318 -1.6083  0.2902
  997MOL0     H31585   2.409   4.578   2.268  0.8711  1.7009  2.2108
  997MOL0     H31586   3.445   4.795   2.656 -0.5602  2.3380 -3.1056
  997MOL0     H31587   3.646   4.880   2.560  1.0880 -0.4367 -1.2343
  997MOL0     H31588   3.901   5.153   2.296 -0.9765 -0.9410  1.8480
  997MOL0     H31589   4.116   5.228   2.203  1.1695  0.3873  0.8837
  997MOL0     H31590   4.412   3.616   2.854  1.1422 -0.9488 -1.2061
  997MOL0     H31591   4.228   3.460   2.774 -0.9648  0.1340  0.1442
  997MOL0     H31592   3.779   3.548   2.483  0.0206 -0.6552 -1.3879
  997MOL0     H31593   3.581   3.399   2.445  0.5420  2.8853  3.0944
  997MOL0     H31594   3.630   2.972   2.559  1.5340 -1.7882 -1.3919
  997MOL0     H31595   3.654   2.964   2.387  3.4622  0.2019  3.0897
  997MOL0     H31596   3.408   2.971   2.347  0.2278  0.9638  0.3986
  997MOL0     H31597   3.462   2.825   2.426 -0.1966  0.1749 -0.5248
  997MOL0     H31598   3.397   3.008   2.647 -0.3626  2.5789 -0.3932
  997MOL0     H31599   3.298   2.875   2.594 -2.0400  0.2869 -0.0419
  997MOL0     H31600   3.206   3.123   2.613 -0.4559 -3.9491  1.7534
  997MOL0     H31601   3.303   3.168   2.473 -0.3342 -2.1601 -2.5235
  997MOL0     H31602   2.958   2.991   2.328 -0.3103  0.6278 -0.1802
  997MOL0     H31603   3.835   3.053   2.490 -1.2984  0.7628  0.1686
  997MOL0     H31604   4.032   3.217   2.534  0.6273  1.3899 -2.4326
  998MOL0     O31605   6.754   9.760   3.980 -1.0629 -0.2086  0.1647
  998MOL0     C31606   6.752   9.786   3.861 -1.2599 -0.8137  0.8378
  998MOL0     O31607   6.653   9.858   3.804  0.2108  0.2116 -0.6487
  998MOL0     C31608   6.535   9.855   3.869  0.1956 -0.1155  0.4060
  998MOL0     C31609   6.496   9.990   3.908  0.0741 -0.1929  0.0486
  998MOL0     C31610   6.370  10.000   3.957 -0.7224  0.4021  0.0136
  998MOL0     C31611   6.292   9.888   3.984  0.5977 -0.0201  0.2685
  998MOL0     O31612   6.167   9.915   4.029 -0.6898  0.5239 -0.5506
  998MOL0     C31613   6.132   9.809   4.120 -0.0733 -0.3836  0.3164
  998MOL0     C31614   6.013   9.865   4.205 -0.0800  0.1544  0.3206
  998MOL0     C31615   6.060   9.973   4.289  0.3586  0.5860 -0.6445
  998MOL0     C31616   5.955  10.027   4.384  0.6553 -0.3271 -0.9050
  998MOL0     C31617   6.001  10.160   4.451 -0.0558 -0.5066 -0.7648
  998MOL0     C31618   5.970  10.180   4.596 -0.1910  0.7309 -0.2616
  998MOL0     C31619   5.821  10.227   4.605  0.2810  0.0924  0.1313
  998MOL0     C31620   5.747  10.136   4.699 -0.2884  0.2141 -0.3761
  998MOL0     N31621   5.793  10.136   4.845  0.4893 -0.5964  0.3683
  998MOL0     C31622   5.800  10.251   4.923 -0.6946  0.6953  0.6324
  998MOL0     C31623   5.787  10.211   5.053  0.0063 -0.1768 -0.8070
  998MOL0     C31624   5.774  10.296   5.177 -0.6788 -0.2161 -0.3347
  998MOL0     C31625   5.678  10.410   5.160 -0.7022 -0.8355 -0.1862
  998MOL0     C31626   5.682  10.511   5.278 -1.0347 -0.4815 -0.1923
  998MOL0     C31627   5.553  10.587   5.301  0.5432 -0.7242  0.1398
  998MOL0     O31628   5.510  10.649   5.177 -0.1596  0.1640 -0.2412
  998MOL0     C31629   5.582  10.762   5.148 -0.9609  0.0673 -0.8880
  998MOL0     C31630   5.672  10.764   5.035  0.8250 -0.0639 -0.2654
  998MOL0     C31631   5.734  10.880   4.997 -0.8935 -0.9750  0.1466
  998MOL0     C31632   5.734  10.992   5.081 -0.3829  0.6004  1.0165
  998MOL0     C31633   5.797  11.121   5.063 -0.7241  0.1565  0.0523
  998MOL0     O31634   5.866  11.156   4.949  0.4277  0.0667 -0.0195
  998MOL0     C31635   5.962  11.254   4.952  0.5518 -0.1078 -1.3599
  998MOL0     C31636   6.043  11.288   5.062 -0.4046 -0.0742 -0.3520
  998MOL0     C31637   6.146  11.383   5.056 -0.7049  0.3829  0.8332
  998MOL0     C31638   6.161  11.461   4.933 -0.6250  0.2593 -0.0113
  998MOL0     O31639   6.248  11.567   4.910  1.1927  0.1838  0.4226
  998MOL0     C31640   6.333  11.616   5.014  0.3054  0.2776 -0.0763
  998MOL0     C31641   6.441  11.516   5.054  0.1464  0.2618 -0.6069
  998MOL0     C31642   6.495  11.551   5.197 -0.1459 -0.1274 -0.3394
  998MOL0     C31643   6.537  11.700   5.213  0.2345 -0.3840  0.1623
  998MOL0     C31644   6.625  11.734   5.331  0.1492 -0.2029 -0.7950
  998MOL0     C31645   6.652  11.886   5.325  0.1856 -0.5584 -0.3551
  998MOL0     C31646   6.710  11.950   5.457  1.0541  0.5042  1.2990
  998MOL0     C31647   6.847  11.904   5.479  0.4495 -0.0521 -0.7503
  998MOL0    Cl31648   6.903  11.964   5.632 -0.0024  0.1431  0.0588
  998MOL0     C31649   6.082  11.428   4.829 -0.2087 -0.3588 -0.5927
  998MOL0     C31650   5.987  11.333   4.835 -0.7557  1.5419 -0.0954
  998MOL0     O31651   5.787  11.200   5.161 -0.1041  0.9712  0.3176
  998MOL0     C31652   5.637  10.988   5.185 -0.4336 -0.2390  1.1703
  998MOL0     C31653   5.566  10.883   5.220  1.6012  0.4247  0.2127
  998MOL0     N31654   5.781  10.079   5.054 -0.1011 -0.4768 -0.5538
  998MOL0     N31655   5.796  10.033   4.936  0.7768  0.2636 -0.8990
  998MOL0     C31656   6.332   9.758   3.945  0.4852  0.6951 -0.9577
  998MOL0     C31657   6.453   9.746   3.881 -0.3407 -0.3011 -0.3211
  998MOL0     C31658   6.876   9.757   3.779  1.2441  0.6076  1.0038
  998MOL0     C31659   6.875   9.776   3.639  0.4911  0.3316 -0.1842
  998MOL0     C31660   6.990   9.741   3.570 -0.6651  0.5212 -0.3474
  998MOL0     C31661   7.103   9.698   3.633  1.1558  0.5518  1.0765
  998MOL0     O31662   7.224   9.681   3.568  0.1037 -0.5570  0.1024
  998MOL0     C31663   7.356   9.659   3.631  0.6222  0.2861 -0.0963
  998MOL0     C31664   7.472   9.677   3.528 -0.2588  0.1547 -0.7696
  998MOL0     C31665   7.584   9.577   3.552  0.0476  0.6631  0.1347
  998MOL0     C31666   7.645   9.584   3.685  0.5011 -0.2826  0.5251
  998MOL0     C31667   7.758   9.681   3.691  0.3499 -0.8763 -0.1785
  998MOL0     C31668   7.858   9.748   3.714  0.2341  0.2948  0.7458
  998MOL0     C31669   7.105   9.684   3.769  0.0423  0.1253 -0.8733
  998MOL0     C31670   6.988   9.712   3.833 -0.9861  0.9221 -0.7184
  998MOL0     H31671   6.577  10.063   3.906  0.4399 -0.5997 -0.3581
  998MOL0     H31672   6.340  10.092   4.007 -0.4555  2.0616 -2.6883
  998MOL0     H31673   6.210   9.778   4.190  2.2168 -1.2538 -2.4328
  998MOL0     H31674   6.098   9.717   4.071 -1.7775 -0.6236  1.8612
  998MOL0     H31675   5.965   9.784   4.261 -0.9569  0.2074 -0.3306
  998MOL0     H31676   5.935   9.908   4.142 -1.5535  0.8978  2.5253
  998MOL0     H31677   6.098  10.050   4.222  1.7860 -0.0919 -0.6386
  998MOL0     H31678   6.144   9.925   4.339 -0.2872  0.5767  0.4633
  998MOL0     H31679   5.865  10.033   4.322  0.5870  0.2067 -0.7575
  998MOL0     H31680   5.936   9.960   4.468 -1.3160  1.4029  0.1079
  998MOL0     H31681   5.953  10.247   4.406 -0.3482 -0.8059 -1.0326
  998MOL0     H31682   6.110  10.168   4.442 -0.0672 -0.2550 -0.6740
  998MOL0     H31683   6.035  10.255   4.643 -1.2053  0.8045  1.0722
  998MOL0     H31684   5.989  10.097   4.665  1.2903  1.7379  0.6157
  998MOL0     H31685   5.821  10.325   4.654 -1.9817 -0.7227  1.9452
  998MOL0     H31686   5.771  10.227   4.508 -0.5678 -3.4734  0.4464
  998MOL0     H31687   5.745  10.032   4.663  0.2098 -0.3926  1.2390
  998MOL0     H31688   5.644  10.172   4.700 -0.2561  0.5196  3.1830
  998MOL0     H31689   5.817  10.344   4.869  1.3097 -0.0731 -0.1573
  998MOL0     H31690   5.875  10.336   5.192  0.9578 -3.7371 -0.9676
  998MOL0     H31691   5.751  10.231   5.263 -0.9608  0.8403  0.4137
  998MOL0     H31692   5.575  10.376   5.147 -1.1773  1.3028 -3.0823
  998MOL0     H31693   5.703  10.458   5.065 -1.9425 -1.2791 -0.7583
  998MOL0     H31694   5.712  10.466   5.373 -2.3181  2.2805  1.6761
  998MOL0     H31695   5.759  10.586   5.259 -1.1288 -0.9473 -2.6588
  998MOL0     H31696   5.560  10.668   5.374 -0.3751 -0.9570  0.5087
  998MOL0     H31697   5.473  10.519   5.333 -1.1079  0.5939 -1.0467
  998MOL0     H31698   5.669  10.677   4.969 -2.5848 -1.1425  1.0400
  998MOL0     H31699   5.799  10.869   4.910  1.7767 -0.5854  1.9700
  998MOL0     H31700   6.035  11.223   5.149 -1.0079  0.5375  0.0572
  998MOL0     H31701   6.204  11.395   5.147 -0.5657  2.9496  0.5005
  998MOL0     H31702   6.264  11.651   5.092 -1.3974 -0.9426 -0.9724
  998MOL0     H31703   6.389  11.703   4.978  1.1525 -0.3402 -0.2582
  998MOL0     H31704   6.515  11.508   4.974  0.3739 -2.3766 -0.2357
  998MOL0     H31705   6.411  11.412   5.070  1.8595  0.0309  1.5631
  998MOL0     H31706   6.576  11.482   5.220 -0.0266  0.6152  1.6319
  998MOL0     H31707   6.406  11.534   5.259 -1.4770 -0.9906 -2.3891
  998MOL0     H31708   6.592  11.712   5.119 -0.8717  0.9113 -0.3470
  998MOL0     H31709   6.450  11.766   5.214 -0.4375 -0.8421 -4.4204
  998MOL0     H31710   6.716  11.673   5.331  1.1173  1.1743 -0.2706
  998MOL0     H31711   6.581  11.712   5.428 -1.4060 -1.7340 -1.7973
  998MOL0     H31712   6.578  11.951   5.280 -1.8762 -2.4813  0.0914
  998MOL0     H31713   6.730  11.895   5.248 -0.4626 -2.4048 -1.2768
  998MOL0     H31714   6.713  12.058   5.440  2.4304  0.0554 -2.1851
  998MOL0     H31715   6.646  11.916   5.539 -0.7497  0.4104 -0.0825
  998MOL0     H31716   6.911  11.939   5.397  0.1686 -0.1350 -1.0074
  998MOL0     H31717   6.847  11.795   5.475  0.1375 -0.0257 -1.9584
  998MOL0     H31718   6.107  11.467   4.731  0.7538  1.5067  0.3363
  998MOL0     H31719   5.926  11.301   4.751 -4.0873  0.8742  2.3698
  998MOL0     H31720   5.617  11.076   5.245  0.7390  1.2617 -0.5080
  998MOL0     H31721   5.498  10.888   5.304  1.2914  2.1218 -0.1185
  998MOL0     H31722   6.265   9.673   3.950 -1.5489  2.2727 -0.1904
  998MOL0     H31723   6.484   9.655   3.830  0.2395  0.2060 -0.8841
  998MOL0     H31724   6.787   9.822   3.595  2.1074  0.5289 -3.4993
  998MOL0     H31725   6.997   9.752   3.462 -0.0962  1.5331 -0.2193
  998MOL0     H31726   7.362   9.558   3.673  1.3947  1.4460  2.8153
  998MOL0     H31727   7.362   9.730   3.715 -0.4179 -0.2695  0.4706
  998MOL0     H31728   7.426   9.662   3.429 -1.4723  0.0416 -0.2107
  998MOL0     H31729   7.511   9.776   3.549 -0.3554 -0.0156  0.2436
  998MOL0     H31730   7.658   9.587   3.471  1.5272 -0.4465  1.2848
  998MOL0     H31731   7.541   9.477   3.539 -0.6989  1.1236 -1.0944
  998MOL0     H31732   7.565   9.611   3.755  0.3487 -0.2011  0.3189
  998MOL0     H31733   7.695   9.491   3.713  2.6387  1.1094  1.6241
  998MOL0     H31734   7.940   9.812   3.737  0.2680  0.2528  0.7408
  998MOL0     H31735   7.184   9.636   3.826  1.3471 -0.1228 -2.8168
  998MOL0     H31736   6.986   9.702   3.941 -0.3932 -1.5073 -0.8834
  999MOL0     O31737   8.568   1.574  10.630 -0.8480  0.2113  0.0619
  999MOL0     C31738   8.591   1.480  10.548  0.1488 -0.3285  0.8710
  999MOL0     O31739   8.503   1.378  10.512 -0.1354  0.1315 -0.0338
  999MOL0     C31740   8.381   1.347  10.571 -0.4325  0.0966  0.1406
  999MOL0     C31741   8.305   1.245  10.512 -0.6145 -0.1417  0.4766
  999MOL0     C31742   8.185   1.196  10.564 -1.0545 -0.1448 -0.1697
  999MOL0     C31743   8.145   1.245  10.688 -0.9666  1.4541 -0.7149
  999MOL0     O31744   8.025   1.203  10.743  0.5819 -0.6711 -0.6025
  999MOL0     C31745   7.899   1.200  10.673 -0.2805  0.3808  1.0706
  999MOL0     C31746   7.803   1.242  10.773 -0.5992  0.5654  0.3377
  999MOL0     C31747   7.659   1.256  10.723 -0.0260 -0.0476 -0.4667
  999MOL0     C31748   7.578   1.359  10.818  0.6588  0.2969 -1.1690
  999MOL0     C31749   7.461   1.302  10.909  0.2627  0.1379 -0.5650
  999MOL0     C31750   7.337   1.247  10.831 -0.3312 -0.3399 -0.3298
  999MOL0     C31751   7.265   1.148  10.925  0.2913  0.7668 -0.2970
  999MOL0     C31752   7.205   1.217  11.053 -0.4628 -0.1236  0.5158
  999MOL0     N31753   7.135   1.116  11.137  0.5309  0.7403 -0.6342
  999MOL0     C31754   7.180   0.987  11.165  0.0381  0.8996 -0.6356
  999MOL0     C31755   7.082   0.924  11.229 -0.5616 -0.5263 -0.5428
  999MOL0     C31756   7.090   0.776  11.271  0.2820  0.3519 -0.9027
  999MOL0     C31757   7.090   0.673  11.156 -1.0746  0.2040 -0.3424
  999MOL0     C31758   6.987   0.695  11.052 -0.2894  0.2596  0.3764
  999MOL0     C31759   6.845   0.718  11.112  1.3433  0.4130  0.7296
  999MOL0     O31760   6.754   0.709  11.002 -0.1128  0.6142 -0.6231
  999MOL0     C31761   6.614   0.725  11.027 -1.2485  0.3861 -0.0266
  999MOL0     C31762   6.524   0.744  10.926 -0.7042  0.3935  0.6530
  999MOL0     C31763   6.387   0.762  10.950 -0.4917  0.3668  0.5121
  999MOL0     C31764   6.336   0.756  11.082  0.0564 -0.3984 -0.3981
  999MOL0     C31765   6.188   0.760  11.112 -0.4655 -0.5851 -0.1523
  999MOL0     O31766   6.108   0.807  11.011  0.1556 -0.0310 -0.5386
  999MOL0     C31767   5.986   0.851  11.024  0.1342 -0.3074 -0.0721
  999MOL0     C31768   5.910   0.840  10.907 -0.3301  0.0738  0.4373
  999MOL0     C31769   5.778   0.897  10.900  0.2670 -0.5941 -0.1286
  999MOL0     C31770   5.746   0.985  11.007 -1.0509  0.4370  0.7039
  999MOL0     O31771   5.622   1.038  10.997  0.6111 -0.6125 -0.0767
  999MOL0     C31772   5.565   1.119  11.113 -0.4154  0.4916  0.0562
  999MOL0     C31773   5.420   1.170  11.093 -0.5758 -0.8872 -0.2482
  999MOL0     C31774   5.304   1.078  11.082 -0.9259  0.3854 -0.1465
  999MOL0     C31775   5.173   1.140  11.029 -0.8844  0.2337  0.3235
  999MOL0     C31776   5.048   1.063  11.068  0.6451  0.3612  0.3093
  999MOL0     C31777   4.919   1.116  10.994  0.3061  0.1176 -0.4431
  999MOL0     C31778   4.792   1.028  10.980 -0.1707 -0.2277 -0.3640
  999MOL0     C31779   4.747   0.998  11.118 -0.0022 -0.8312 -0.0832
  999MOL0    Cl31780   4.596   0.906  11.100 -0.3806 -0.5199 -0.5213
  999MOL0     C31781   5.829   1.012  11.118 -0.6658 -0.6543 -0.1756
  999MOL0     C31782   5.949   0.937  11.129 -0.2188  0.2830 -0.2971
  999MOL0     O31783   6.149   0.732  11.221 -0.7178  0.5115 -0.1382
  999MOL0     C31784   6.428   0.728  11.190  0.3580  0.3555 -0.1838
  999MOL0     C31785   6.562   0.712  11.157  0.0600  0.1935  0.7533
  999MOL0     N31786   6.977   1.019  11.232 -0.3131  0.6490 -0.0200
  999MOL0     N31787   7.011   1.134  11.182  0.5151  0.2788  0.1142
  999MOL0     C31788   8.215   1.350  10.747 -0.9842  0.4515 -0.3178
  999MOL0     C31789   8.329   1.393  10.694  0.2145 -0.6963  0.8877
  999MOL0     C31790   8.720   1.464  10.491 -0.2758  0.3762 -0.2182
  999MOL0     C31791   8.750   1.363  10.398 -0.4912  0.0414  0.3616
  999MOL0     C31792   8.874   1.351  10.344  0.4505 -0.8058  0.8158
  999MOL0     C31793   8.982   1.437  10.380  0.1117  0.4069  1.3075
  999MOL0     O31794   9.101   1.437  10.308 -0.4601  0.0155  0.4554
  999MOL0     C31795   9.221   1.502  10.368  0.4311  0.2685 -0.0116
  999MOL0     C31796   9.355   1.435  10.321  0.1944 -0.7662 -0.4974
  999MOL0     C31797   9.368   1.420  10.167  0.4521  0.4360 -1.4727
  999MOL0     C31798   9.503   1.457  10.100  0.0653  0.8489 -0.5809
  999MOL0     C31799   9.606   1.376  10.158 -0.1148 -0.1327  0.4605
  999MOL0     C31800   9.701   1.318  10.216 -0.6491 -0.3073 -0.3482
  999MOL0     C31801   8.951   1.530  10.477 -0.3335 -0.6162 -0.2776
  999MOL0     C31802   8.823   1.548  10.533  0.4952  0.0743 -0.8152
  999MOL0     H31803   8.345   1.198  10.423  2.6737  0.1689  1.6350
  999MOL0     H31804   8.137   1.118  10.507  1.0442  0.2094 -2.6034
  999MOL0     H31805   7.883   1.104  10.623 -1.3427  2.1985 -2.3951
  999MOL0     H31806   7.893   1.263  10.584 -1.1625 -1.9545 -0.6536
  999MOL0     H31807   7.835   1.340  10.809  4.7073 -1.9868  3.9356
  999MOL0     H31808   7.813   1.183  10.865 -0.4023  1.1745  0.7068
  999MOL0     H31809   7.607   1.160  10.722  3.7887 -2.2889 -0.0893
  999MOL0     H31810   7.659   1.297  10.621 -1.1490 -0.0581 -0.4801
  999MOL0     H31811   7.652   1.404  10.886  1.2019 -3.3598  0.9551
  999MOL0     H31812   7.531   1.439  10.761 -2.3336 -0.2924  0.2598
  999MOL0     H31813   7.426   1.378  10.980  2.2683 -0.1431  0.8028
  999MOL0     H31814   7.504   1.225  10.973 -3.4130 -1.0933  0.6548
  999MOL0     H31815   7.378   1.194  10.744  1.2459  1.4181 -0.7354
  999MOL0     H31816   7.268   1.321  10.790 -0.8696 -1.3709 -1.3308
  999MOL0     H31817   7.180   1.101  10.874  0.3364 -1.1054  1.2223
  999MOL0     H31818   7.339   1.072  10.952 -0.5671  0.0428  0.0675
  999MOL0     H31819   7.133   1.298  11.038  1.8327  1.9385  0.2011
  999MOL0     H31820   7.284   1.273  11.102  2.5609  0.7164 -4.5868
  999MOL0     H31821   7.277   0.938  11.158 -1.0657 -2.3124  2.7205
  999MOL0     H31822   7.006   0.757  11.339  0.8550  0.5498 -0.1181
  999MOL0     H31823   7.182   0.777  11.329  1.9196  4.1899 -3.1770
  999MOL0     H31824   7.090   0.570  11.192 -0.8568  0.3151 -0.0229
  999MOL0     H31825   7.185   0.687  11.105 -1.1090 -2.6082 -1.3342
  999MOL0     H31826   7.002   0.783  10.989  1.9100 -1.1047 -1.1733
  999MOL0     H31827   6.994   0.609  10.986  1.5153  1.6344 -1.3534
  999MOL0     H31828   6.831   0.817  11.157  1.6127  1.4375 -1.3110
  999MOL0     H31829   6.826   0.643  11.189 -0.5717  1.1301  1.0092
  999MOL0     H31830   6.556   0.744  10.823 -0.8287  1.0479  0.6110
  999MOL0     H31831   6.313   0.770  10.871 -1.2301 -0.9625  1.0414
  999MOL0     H31832   5.959   0.792  10.823  1.1949 -2.0581  2.4193
  999MOL0     H31833   5.710   0.885  10.817  1.3891 -0.1850 -1.1465
  999MOL0     H31834   5.627   1.206  11.134 -0.2369  0.6978 -1.2120
  999MOL0     H31835   5.560   1.047  11.195  3.2949 -3.1570 -2.5271
  999MOL0     H31836   5.424   1.233  11.004 -0.6474 -1.0537 -0.3695
  999MOL0     H31837   5.401   1.239  11.176 -0.4532 -1.2876  0.1177
  999MOL0     H31838   5.292   1.025  11.178  0.8255 -1.8060 -1.0472
  999MOL0     H31839   5.335   0.995  11.018  0.8380 -0.2627  1.4470
  999MOL0     H31840   5.164   1.241  11.068  2.0797  1.7573 -2.4608
  999MOL0     H31841   5.185   1.151  10.921  0.1820  1.7951  0.5682
  999MOL0     H31842   5.035   1.062  11.176 -0.2497 -2.2047  0.2449
  999MOL0     H31843   5.068   0.956  11.056  2.3784  0.3990  2.2262
  999MOL0     H31844   4.938   1.140  10.889 -2.7035  1.5179 -0.7683
  999MOL0     H31845   4.885   1.209  11.039  4.2663  1.2513  0.5889
  999MOL0     H31846   4.708   1.086  10.941 -0.4942 -0.5628 -0.1756
  999MOL0     H31847   4.805   0.939  10.918  0.6542  0.7905 -1.6973
  999MOL0     H31848   4.728   1.097  11.162 -0.0872 -0.3446 -1.1776
  999MOL0     H31849   4.820   0.948  11.182 -0.3407 -0.3692  0.6770
  999MOL0     H31850   5.803   1.080  11.198  1.1155  0.7607 -0.7216
  999MOL0     H31851   6.012   0.949  11.216 -0.2607 -1.8414  0.0731
  999MOL0     H31852   6.398   0.705  11.292  1.8333  1.4268  0.5228
  999MOL0     H31853   6.635   0.680  11.230 -1.1907  2.2754  3.0631
  999MOL0     H31854   8.176   1.404  10.833 -1.2111  0.3584 -0.3622
  999MOL0     H31855   8.389   1.463  10.752  0.5124 -0.4777  0.3276
  999MOL0     H31856   8.672   1.306  10.350 -2.0242  3.2566 -1.2848
  999MOL0     H31857   8.881   1.295  10.252 -0.0799  1.0351 -0.3949
  999MOL0     H31858   9.217   1.501  10.477 -3.9912  0.7071  0.0447
  999MOL0     H31859   9.207   1.609  10.349 -0.0093  0.2151 -0.0006
  999MOL0     H31860   9.437   1.495  10.361  0.2645 -0.0051 -1.7155
  999MOL0     H31861   9.357   1.337  10.369  1.0281 -1.6879 -2.2955
  999MOL0     H31862   9.298   1.489  10.119  1.1547  3.7444  1.7739
  999MOL0     H31863   9.345   1.314  10.158  1.0063  0.2126 -0.3667
  999MOL0     H31864   9.498   1.429   9.994  1.8207 -0.8118 -0.2898
  999MOL0     H31865   9.537   1.559  10.115 -0.6689  0.8767  1.1181
  999MOL0     H31866   9.791   1.288  10.266 -1.3073 -1.5225  0.1373
  999MOL0     H31867   9.026   1.601  10.511 -1.6967  1.1127 -0.7302
  999MOL0     H31868   8.814   1.637  10.594  1.9975  1.5809 -2.6686
 1000MOL0     O31869   7.327   5.764   2.090  0.3653 -0.0335  0.3257
 1000MOL0     C31870   7.359   5.793   1.975 -0.4080  0.2384 -0.7999
 1000MOL0     O31871   7.272   5.830   1.878  0.6647 -0.2528  0.0941
 1000MOL0     C31872   7.133   5.856   1.903 -0.9840 -0.0246  0.5101
 1000MOL0     C31873   7.054   5.854   1.783  0.1765  0.6483  0.0145
 1000MOL0     C31874   6.924   5.889   1.788  0.7368  0.7008  0.6663
 1000MOL0     C31875   6.865   5.918   1.918  0.2961 -0.4641  0.7720
 1000MOL0     O31876   6.736   5.962   1.907 -0.8306 -0.6891 -0.5895
 1000MOL0     C31877   6.697   6.050   2.013  0.3871 -0.1129 -0.5196
 1000MOL0     C31878   6.563   6.120   1.972  0.1360  0.1753  0.4956
 1000MOL0     C31879   6.576   6.194   1.848 -0.2506 -0.3114 -0.5134
 1000MOL0     C31880   6.427   6.237   1.815 -0.2497  0.9723  1.0796
 1000MOL0     C31881   6.443   6.320   1.689 -0.1519 -0.1970 -0.4190
 1000MOL0     C31882   6.321   6.401   1.647 -0.3369  0.2173 -0.3594
 1000MOL0     C31883   6.200   6.322   1.613 -0.8004 -0.1672 -0.3804
 1000MOL0     C31884   6.203   6.239   1.484  0.5081 -0.0176 -0.6414
 1000MOL0     N31885   6.141   6.315   1.371 -1.2435  0.4964  0.0092
 1000MOL0     C31886   6.140   6.271   1.239 -0.2844  0.3137 -0.3810
 1000MOL0     C31887   6.063   6.365   1.176  0.0112 -0.6236  0.4036
 1000MOL0     C31888   6.041   6.383   1.031 -0.1550 -0.3420  0.6221
 1000MOL0     C31889   6.101   6.523   0.984 -0.5849  0.4678  0.4180
 1000MOL0     C31890   6.099   6.555   0.836  1.0401 -0.4442 -0.8505
 1000MOL0     C31891   6.164   6.683   0.795 -0.3909 -0.0300  0.2049
 1000MOL0     O31892   6.128   6.707   0.660 -0.1727  0.8157 -0.2761
 1000MOL0     C31893   6.202   6.654   0.556 -0.4639 -0.4277  0.4678
 1000MOL0     C31894   6.183   6.723   0.432 -0.5144 -0.2389 -0.0092
 1000MOL0     C31895   6.243   6.675   0.317  0.1602  0.2906  0.4939
 1000MOL0     C31896   6.322   6.558   0.322  0.0062  0.0969  0.2264
 1000MOL0     C31897   6.368   6.506   0.184  0.1691  0.2352 -0.1699
 1000MOL0     O31898   6.460   6.405   0.207  0.4395 -0.9356  0.0124
 1000MOL0     C31899   6.533   6.361   0.101 -0.5137 -0.0697  0.1485
 1000MOL0     C31900   6.568   6.226   0.090  0.5502  0.7263  0.2551
 1000MOL0     C31901   6.661   6.174   0.007 -0.5191 -0.4121 -0.3013
 1000MOL0     C31902   6.726   6.265  -0.086 -0.6199  0.4211 -0.3439
 1000MOL0     O31903   6.837   6.226  -0.155  0.0226  0.7740 -0.1398
 1000MOL0     C31904   6.821   6.096  -0.225  0.8555  0.5681  0.0414
 1000MOL0     C31905   6.950   6.074  -0.300  0.5367  0.1671 -0.4888
 1000MOL0     C31906   7.061   6.069  -0.200  0.1954 -0.4773  0.3238
 1000MOL0     C31907   7.193   6.014  -0.254 -0.7617  0.3729  0.5543
 1000MOL0     C31908   7.252   6.110  -0.355  0.0408  0.5562  0.4253
 1000MOL0     C31909   7.380   6.044  -0.411 -0.3874 -0.3083 -0.1609
 1000MOL0     C31910   7.452   6.130  -0.523  0.3493 -0.9163  0.1524
 1000MOL0     C31911   7.556   6.052  -0.591 -0.1044  0.1506  0.7849
 1000MOL0    Cl31912   7.712   6.101  -0.510 -0.1606 -0.2263  0.1357
 1000MOL0     C31913   6.699   6.399  -0.081  0.7783  0.2584 -1.0270
 1000MOL0     C31914   6.604   6.446   0.010  0.2741  1.9567  0.5365
 1000MOL0     O31915   6.312   6.528   0.074 -0.0802  0.2603 -0.4241
 1000MOL0     C31916   6.357   6.492   0.441 -0.2989 -0.2694 -0.5928
 1000MOL0     C31917   6.296   6.548   0.558  0.0105 -0.6912 -0.8703
 1000MOL0     N31918   6.029   6.460   1.265  0.0086  0.8661  0.0145
 1000MOL0     N31919   6.067   6.427   1.382 -0.4300 -0.3584 -0.5287
 1000MOL0     C31920   6.928   5.923   2.037 -0.5260  0.2095 -0.2723
 1000MOL0     C31921   7.071   5.892   2.026  0.8746  0.6108  0.3214
 1000MOL0     C31922   7.501   5.783   1.943 -0.1036 -0.0586  0.0766
 1000MOL0     C31923   7.607   5.759   2.038 -0.8397 -0.4203  0.0190
 1000MOL0     C31924   7.745   5.752   2.003 -0.1481 -0.5329 -0.6978
 1000MOL0     C31925   7.778   5.791   1.878 -0.6361  0.1062 -0.0247
 1000MOL0     O31926   7.906   5.794   1.828  0.0904 -0.4450 -0.3797
 1000MOL0     C31927   8.022   5.740   1.890 -0.0138  0.4497 -0.0755
 1000MOL0     C31928   8.077   5.828   2.003 -0.4958 -0.7316  0.8433
 1000MOL0     C31929   8.159   5.950   1.956  0.3870  0.3978 -0.1707
 1000MOL0     C31930   8.306   5.928   1.967 -0.6659 -0.3346 -0.2766
 1000MOL0     C31931   8.346   5.817   1.887  0.1391  0.2641 -0.0182
 1000MOL0     C31932   8.380   5.719   1.825  0.2619  0.2263  0.6099
 1000MOL0     C31933   7.679   5.810   1.786  0.2562  0.0306  0.0083
 1000MOL0     C31934   7.537   5.818   1.814 -1.0160  0.0562  0.5890
 1000MOL0     H31935   7.104   5.813   1.697 -1.2818  1.6056 -1.3404
 1000MOL0     H31936   6.852   5.900   1.708  0.5410 -0.3856  0.6791
 1000MOL0     H31937   6.772   6.124   2.038  2.2008 -1.8089 -0.6665
 1000MOL0     H31938   6.684   5.990   2.104  1.7330 -1.4930 -1.1955
 1000MOL0     H31939   6.529   6.199   2.039 -0.2951 -2.2018  3.2751
 1000MOL0     H31940   6.491   6.039   1.958 -2.4598  2.6159 -1.4131
 1000MOL0     H31941   6.630   6.150   1.763  2.3938 -3.0031  2.3131
 1000MOL0     H31942   6.633   6.282   1.876 -0.2383 -0.3622 -0.3774
 1000MOL0     H31943   6.363   6.151   1.794  0.2972  0.9253 -0.4914
 1000MOL0     H31944   6.382   6.296   1.896 -0.2959  3.6678 -0.7698
 1000MOL0     H31945   6.469   6.250   1.609  0.5558 -0.2324 -0.1674
 1000MOL0     H31946   6.531   6.383   1.705  2.7359 -4.3691  2.2755
 1000MOL0     H31947   6.347   6.461   1.559 -5.2428  0.7687 -1.7255
 1000MOL0     H31948   6.306   6.472   1.729 -0.3222 -2.5671  2.2319
 1000MOL0     H31949   6.175   6.258   1.698  0.6480  1.0786  1.0421
 1000MOL0     H31950   6.128   6.404   1.611  1.0808  2.0666  5.1449
 1000MOL0     H31951   6.135   6.154   1.495 -0.1035  0.2341 -2.2244
 1000MOL0     H31952   6.304   6.214   1.451  0.8155 -0.9997  0.9464
 1000MOL0     H31953   6.199   6.190   1.197  0.3076 -0.2489  1.4358
 1000MOL0     H31954   5.933   6.379   1.012 -0.2527 -1.9956  1.2861
 1000MOL0     H31955   6.069   6.299   0.967 -0.0367 -1.1000  1.6399
 1000MOL0     H31956   6.207   6.523   1.010 -0.6197  0.2505  0.5650
 1000MOL0     H31957   6.042   6.605   1.028 -0.9978 -0.2021  1.1573
 1000MOL0     H31958   6.136   6.469   0.779 -2.7383 -0.1933 -4.1580
 1000MOL0     H31959   5.993   6.559   0.810  1.2040  0.5688 -1.4003
 1000MOL0     H31960   6.272   6.683   0.813 -0.2453  5.0470  0.9191
 1000MOL0     H31961   6.137   6.761   0.867  2.2872  0.4443  0.8075
 1000MOL0     H31962   6.114   6.807   0.432 -0.0385  0.2449 -2.6594
 1000MOL0     H31963   6.222   6.716   0.219 -2.0151  1.0951  1.2376
 1000MOL0     H31964   6.509   6.160   0.153 -0.6617  0.0157 -1.5451
 1000MOL0     H31965   6.681   6.067   0.008  0.0622 -0.3868 -2.5540
 1000MOL0     H31966   6.737   6.116  -0.291  2.0022  1.6029 -1.1489
 1000MOL0     H31967   6.796   6.008  -0.165 -0.1041  0.4722 -0.4721
 1000MOL0     H31968   6.944   6.154  -0.375 -2.1670  0.9381  0.4369
 1000MOL0     H31969   6.953   5.980  -0.356  1.5943  0.5088 -1.0340
 1000MOL0     H31970   7.038   6.004  -0.115  3.6566 -3.9422 -1.0299
 1000MOL0     H31971   7.077   6.169  -0.161 -0.8517 -0.1290 -0.0960
 1000MOL0     H31972   7.267   5.995  -0.175  0.5742 -0.1926 -0.7892
 1000MOL0     H31973   7.170   5.917  -0.298  3.6827 -1.7786  2.3081
 1000MOL0     H31974   7.286   6.199  -0.302 -1.9947  1.7219 -0.1030
 1000MOL0     H31975   7.185   6.142  -0.435 -1.6151  0.9007  1.8873
 1000MOL0     H31976   7.355   5.944  -0.447  2.3189 -1.0777 -0.0863
 1000MOL0     H31977   7.459   6.032  -0.336 -0.8740  2.6675  0.9542
 1000MOL0     H31978   7.376   6.164  -0.593  0.3814  1.7212  1.2556
 1000MOL0     H31979   7.493   6.219  -0.474  0.0962  0.6298 -2.3005
 1000MOL0     H31980   7.572   6.080  -0.696  0.7567 -1.4699  0.4566
 1000MOL0     H31981   7.537   5.945  -0.596 -4.9662  0.6882  2.6074
 1000MOL0     H31982   6.756   6.472  -0.137  0.3084  1.3549 -0.1214
 1000MOL0     H31983   6.590   6.554   0.010 -1.9690  1.7660 -1.7155
 1000MOL0     H31984   6.427   6.410   0.444  1.5517  1.1369 -2.8068
 1000MOL0     H31985   6.320   6.507   0.656  0.6686 -0.3208 -0.8742
 1000MOL0     H31986   6.902   5.951   2.138  0.6562  1.1981 -0.2263
 1000MOL0     H31987   7.133   5.904   2.115  0.8941  2.3323  0.1092
 1000MOL0     H31988   7.589   5.741   2.144  3.8722 -1.0307  0.9254
 1000MOL0     H31989   7.829   5.731   2.068 -0.7683  0.7920  0.6031
 1000MOL0     H31990   8.105   5.729   1.819  0.6119 -0.8636  0.8145
 1000MOL0     H31991   8.001   5.637   1.921  0.0208 -0.5013 -2.9452
 1000MOL0     H31992   7.991   5.866   2.060 -1.7685  1.7525 -2.4332
 1000MOL0     H31993   8.142   5.764   2.064  2.4045  0.9790 -0.2867
 1000MOL0     H31994   8.150   6.032   2.028  1.9938  2.6863 -2.3714
 1000MOL0     H31995   8.134   5.984   1.855  0.1788 -1.0628 -0.6264
 1000MOL0     H31996   8.360   6.019   1.938 -0.3194 -0.8887 -1.4662
 1000MOL0     H31997   8.339   5.915   2.070  3.0332 -1.9577 -1.4853
 1000MOL0     H31998   8.386   5.620   1.785 -0.4641  0.0003  1.0283
 1000MOL0     H31999   7.710   5.837   1.686 -0.3307  1.2595  0.1466
 1000MOL0     H32000   7.468   5.849   1.737  0.0357  1.2093  0.0776
 1001MOL0     O32001   4.117   6.164   0.682 -0.2223 -0.6867  0.4024
 1001MOL0     C32002   4.185   6.212   0.767 -0.0178 -0.9285 -0.1710
 1001MOL0     O32003   4.133   6.275   0.879 -0.5478 -0.0110  0.2017
 1001MOL0     C32004   4.000   6.292   0.902 -0.1373  0.2310 -0.0059
 1001MOL0     C32005   3.933   6.195   0.980 -0.3014  0.5494 -0.3052
 1001MOL0     C32006   3.794   6.208   0.998  0.5482 -0.3739 -0.0261
 1001MOL0     C32007   3.723   6.309   0.931  0.5251 -0.7139  0.3562
 1001MOL0     O32008   3.593   6.317   0.953  0.6852 -0.7138  0.1989
 1001MOL0     C32009   3.504   6.371   0.864  0.1149 -0.4173 -0.6511
 1001MOL0     C32010   3.356   6.340   0.897  0.0645 -0.7966  0.1940
 1001MOL0     C32011   3.257   6.385   0.779  0.2309  0.1490  0.3939
 1001MOL0     C32012   3.117   6.320   0.791  0.5534 -0.4417  0.1360
 1001MOL0     C32013   3.042   6.368   0.926 -0.4412  0.4573 -0.1043
 1001MOL0     C32014   3.046   6.521   0.947  1.0235 -0.0801  0.0108
 1001MOL0     C32015   2.954   6.566   1.065  0.4925  0.2809 -0.2627
 1001MOL0     C32016   2.946   6.719   1.081  0.5301 -0.3113 -0.0925
 1001MOL0     N32017   2.833   6.769   1.167  0.9849  1.0169 -0.8335
 1001MOL0     C32018   2.805   6.746   1.305  0.3859  0.7497 -0.5343
 1001MOL0     C32019   2.669   6.775   1.321 -0.1719 -0.0252 -0.0596
 1001MOL0     C32020   2.576   6.762   1.435  0.2184 -0.5037  0.7797
 1001MOL0     C32021   2.573   6.907   1.489  0.4085 -0.6467  0.0022
 1001MOL0     C32022   2.517   6.916   1.629  0.1103  0.3297  0.1941
 1001MOL0     C32023   2.495   7.063   1.658 -0.6655 -0.7244 -0.0813
 1001MOL0     O32024   2.463   7.078   1.805  0.2192  0.0095  0.0418
 1001MOL0     C32025   2.331   7.106   1.825  0.1086 -0.4569 -0.1129
 1001MOL0     C32026   2.292   7.242   1.823 -0.5171  0.1276  1.0279
 1001MOL0     C32027   2.152   7.274   1.821  0.1910  0.2795 -0.5675
 1001MOL0     C32028   2.056   7.181   1.836  0.4942 -1.1875 -0.0851
 1001MOL0     C32029   1.909   7.211   1.843  0.0722  0.1911 -1.1700
 1001MOL0     O32030   1.823   7.110   1.839  0.2507  0.1898 -0.4703
 1001MOL0     C32031   1.689   7.140   1.836  0.7234 -0.1056 -0.2466
 1001MOL0     C32032   1.606   7.088   1.733  0.2840 -0.5765  0.0317
 1001MOL0     C32033   1.469   7.070   1.745 -0.0636 -0.7329  0.4566
 1001MOL0     C32034   1.405   7.121   1.858 -0.7002 -0.1098 -0.1787
 1001MOL0     O32035   1.263   7.121   1.876  0.6409  0.7268 -0.0233
 1001MOL0     C32036   1.183   7.030   1.790  0.6150  0.4290 -0.6306
 1001MOL0     C32037   1.030   7.035   1.830 -0.6955  0.5561  0.2465
 1001MOL0     C32038   0.932   6.996   1.728 -0.4562  0.1397  1.0042
 1001MOL0     C32039   0.952   6.855   1.683  1.1501  0.7496  0.1383
 1001MOL0     C32040   0.899   6.828   1.547 -0.6490  0.6845 -0.2550
 1001MOL0     C32041   0.758   6.866   1.524  0.1864  0.0053 -0.1468
 1001MOL0     C32042   0.652   6.775   1.601 -0.0063  0.7909 -0.6076
 1001MOL0     C32043   0.513   6.798   1.552  0.7715  0.2936  0.2459
 1001MOL0    Cl32044   0.499   6.778   1.364  0.0963 -0.2906 -0.2944
 1001MOL0     C32045   1.479   7.179   1.963  0.3946  0.1237  0.8389
 1001MOL0     C32046   1.620   7.191   1.948  0.0577 -0.1846  1.3172
 1001MOL0     O32047   1.884   7.330   1.872  0.6925  0.8563 -0.5771
 1001MOL0     C32048   2.089   7.043   1.837  0.8979 -0.0123  0.5673
 1001MOL0     C32049   2.228   7.007   1.833  0.2190 -0.5933  0.2078
 1001MOL0     N32050   2.625   6.825   1.197 -0.3399  0.3590  0.7968
 1001MOL0     N32051   2.721   6.829   1.113 -1.1515  0.0162 -0.1082
 1001MOL0     C32052   3.787   6.402   0.852 -0.4792  0.2496 -0.2006
 1001MOL0     C32053   3.923   6.391   0.839  0.0617  0.3480 -0.1289
 1001MOL0     C32054   4.328   6.212   0.754 -0.1133 -0.8371  0.4048
 1001MOL0     C32055   4.405   6.224   0.876  0.8085  0.6731  0.1239
 1001MOL0     C32056   4.549   6.233   0.861  0.4905 -0.0917  0.1773
 1001MOL0     C32057   4.619   6.211   0.744  0.3754  0.0885 -0.2782
 1001MOL0     O32058   4.757   6.213   0.759  0.0623 -0.7183  0.7100
 1001MOL0     C32059   4.838   6.137   0.670 -0.3356  1.5429  0.0060
 1001MOL0     C32060   4.897   6.220   0.555 -1.2065  0.5114  0.9702
 1001MOL0     C32061   4.991   6.334   0.603 -1.4954 -0.3459 -0.7526
 1001MOL0     C32062   5.138   6.320   0.557  0.1900  0.0543 -1.4384
 1001MOL0     C32063   5.190   6.202   0.631  0.2597  0.2789  0.1910
 1001MOL0     C32064   5.225   6.112   0.699  0.2648 -0.6273 -0.2937
 1001MOL0     C32065   4.542   6.198   0.628  0.8411 -0.9257 -0.7331
 1001MOL0     C32066   4.400   6.192   0.625  0.7167 -0.7044 -0.3579
 1001MOL0     H32067   3.996   6.114   1.015  1.8401  0.9158 -2.9570
 1001MOL0     H32068   3.749   6.135   1.064  0.3195  0.7497  1.1069
 1001MOL0     H32069   3.533   6.320   0.772 -2.5782 -4.4751  0.4995
 1001MOL0     H32070   3.504   6.480   0.861  1.6471 -0.3940 -3.7170
 1001MOL0     H32071   3.324   6.396   0.985 -0.9585  1.1420 -1.3336
 1001MOL0     H32072   3.355   6.232   0.915  1.1937 -1.1328 -1.5288
 1001MOL0     H32073   3.290   6.351   0.681 -0.3751 -1.4150  0.7020
 1001MOL0     H32074   3.239   6.493   0.783 -0.5756  0.0224  4.0116
 1001MOL0     H32075   3.055   6.371   0.717  4.1345  1.4690 -1.8236
 1001MOL0     H32076   3.125   6.211   0.796  0.8065 -0.5556 -1.8960
 1001MOL0     H32077   3.089   6.330   1.017 -1.7073 -1.4356 -0.1872
 1001MOL0     H32078   2.939   6.331   0.932  0.3379 -2.0891 -1.1713
 1001MOL0     H32079   3.015   6.573   0.856  1.0484  0.0133  0.0552
 1001MOL0     H32080   3.140   6.570   0.973 -0.6515  2.2219  2.3425
 1001MOL0     H32081   2.853   6.531   1.040 -0.6499  2.8850  0.3918
 1001MOL0     H32082   2.995   6.523   1.157 -1.2694  1.9043  1.3648
 1001MOL0     H32083   2.931   6.770   0.985  3.3132 -0.7669 -0.8518
 1001MOL0     H32084   3.035   6.761   1.127  1.2778 -1.9339 -0.0041
 1001MOL0     H32085   2.875   6.727   1.385 -1.2572  0.7951  0.9709
 1001MOL0     H32086   2.613   6.692   1.511 -1.5091 -1.7291  0.5494
 1001MOL0     H32087   2.478   6.734   1.394 -0.5761  2.9626  0.0401
 1001MOL0     H32088   2.501   6.963   1.428 -0.4785 -1.6055  0.1229
 1001MOL0     H32089   2.668   6.960   1.481 -0.2797  0.5368 -0.5831
 1001MOL0     H32090   2.424   6.859   1.635  0.7550 -1.1297 -2.3308
 1001MOL0     H32091   2.577   6.861   1.702  0.5515  1.4208  0.6894
 1001MOL0     H32092   2.413   7.104   1.598 -1.1720  1.4370  1.9210
 1001MOL0     H32093   2.583   7.125   1.641  0.3090 -2.3631 -1.2880
 1001MOL0     H32094   2.351   7.332   1.827  0.1777 -0.3520  1.8209
 1001MOL0     H32095   2.115   7.376   1.825  1.2320  0.6437  0.3440
 1001MOL0     H32096   1.655   7.041   1.649 -2.3587 -1.1089 -1.3092
 1001MOL0     H32097   1.416   7.024   1.662  0.5479  1.0711 -0.9999
 1001MOL0     H32098   1.220   6.928   1.805  2.8077  1.3387  0.6887
 1001MOL0     H32099   1.193   7.054   1.683  1.1798 -0.9817 -0.9194
 1001MOL0     H32100   1.009   7.140   1.854 -0.9663  1.7000 -4.1770
 1001MOL0     H32101   1.008   6.970   1.915  0.1215 -0.6263 -0.4281
 1001MOL0     H32102   0.922   7.070   1.648 -3.9626 -1.3015 -0.0594
 1001MOL0     H32103   0.831   7.004   1.769 -1.8988 -0.0082 -2.2052
 1001MOL0     H32104   1.056   6.820   1.686  0.9088 -0.1229 -0.9154
 1001MOL0     H32105   0.885   6.790   1.741  1.1535  0.8735  0.2820
 1001MOL0     H32106   0.905   6.720   1.529 -2.2668  0.0936  2.2868
 1001MOL0     H32107   0.963   6.878   1.474  1.3728  0.0278  1.0193
 1001MOL0     H32108   0.740   6.863   1.416 -0.5646 -0.4021 -0.0196
 1001MOL0     H32109   0.735   6.972   1.541  0.0441  0.1275 -1.0584
 1001MOL0     H32110   0.678   6.669   1.600 -0.8112  0.5819 -2.1897
 1001MOL0     H32111   0.654   6.801   1.708  1.6250 -1.2486 -0.0919
 1001MOL0     H32112   0.496   6.903   1.574  1.0834 -0.1237  2.8238
 1001MOL0     H32113   0.433   6.738   1.597  0.1976  1.4220  0.7724
 1001MOL0     H32114   1.428   7.204   2.055 -0.5371  0.6680  0.1921
 1001MOL0     H32115   1.685   7.230   2.026  2.4116  0.3241 -0.7713
 1001MOL0     H32116   2.016   6.963   1.833  2.4235 -1.6689  3.1666
 1001MOL0     H32117   2.247   6.901   1.844 -1.5484 -0.9231  0.3086
 1001MOL0     H32118   3.730   6.476   0.797 -0.3864 -0.4755 -1.2988
 1001MOL0     H32119   3.973   6.456   0.769  0.2755 -1.2045 -1.4744
 1001MOL0     H32120   4.362   6.216   0.975  1.7926 -2.4713  0.4229
 1001MOL0     H32121   4.601   6.254   0.954 -1.0242 -0.6985  1.2021
 1001MOL0     H32122   4.778   6.054   0.632  2.1947 -0.1669 -0.5020
 1001MOL0     H32123   4.924   6.094   0.723 -1.0569 -0.6658 -0.5144
 1001MOL0     H32124   4.944   6.151   0.484 -0.9133  1.8995 -0.2344
 1001MOL0     H32125   4.814   6.268   0.501 -1.0139  2.0941  2.0041
 1001MOL0     H32126   4.988   6.355   0.710 -0.4198 -0.7857 -0.6211
 1001MOL0     H32127   4.971   6.430   0.554  0.1932  0.4235 -0.0393
 1001MOL0     H32128   5.140   6.307   0.448 -1.4294  0.9826 -1.6099
 1001MOL0     H32129   5.185   6.417   0.574  0.4956 -0.4296  0.6500
 1001MOL0     H32130   5.277   6.050   0.770  0.9215 -0.0379 -0.2568
 1001MOL0     H32131   4.609   6.189   0.544  1.1107  0.3610 -0.6871
 1001MOL0     H32132   4.347   6.157   0.537  0.3813 -2.1704  0.3922
 1002MOL0     O32133   3.595   7.870   2.291 -0.4480  0.7402  1.0001
 1002MOL0     C32134   3.552   7.791   2.377  0.2734 -0.5056 -0.3068
 1002MOL0     O32135   3.618   7.693   2.441  0.3886 -0.0378  0.3018
 1002MOL0     C32136   3.756   7.698   2.418  0.4192  0.1570 -0.2066
 1002MOL0     C32137   3.809   7.578   2.358  0.5675 -0.4802 -0.3525
 1002MOL0     C32138   3.946   7.572   2.329  0.6288  0.4788  0.0218
 1002MOL0     C32139   4.040   7.678   2.356  1.0016 -1.3819  0.1244
 1002MOL0     O32140   4.175   7.657   2.329  0.1494  0.4393 -0.4279
 1002MOL0     C32141   4.262   7.718   2.426 -0.2512 -0.1853  0.0980
 1002MOL0     C32142   4.394   7.646   2.400  0.1268  0.2545 -0.1460
 1002MOL0     C32143   4.482   7.675   2.524  0.5737  0.6544  0.0188
 1002MOL0     C32144   4.600   7.581   2.519 -0.8324 -0.1160  0.0138
 1002MOL0     C32145   4.707   7.632   2.623 -0.1157  0.3367  0.0089
 1002MOL0     C32146   4.825   7.530   2.621 -0.1431  0.5600 -0.2545
 1002MOL0     C32147   4.921   7.593   2.724 -0.0029 -0.0893 -0.1687
 1002MOL0     C32148   5.040   7.498   2.745 -0.3278 -0.1602 -0.0708
 1002MOL0     N32149   5.170   7.573   2.750  0.4452 -0.7091  0.0032
 1002MOL0     C32150   5.233   7.658   2.660 -0.4830  1.1017  0.3626
 1002MOL0     C32151   5.352   7.697   2.712 -0.0807  0.4563 -0.8428
 1002MOL0     C32152   5.452   7.788   2.645  0.7348 -0.5385 -0.1171
 1002MOL0     C32153   5.552   7.863   2.749  0.8838 -0.3303 -0.3181
 1002MOL0     C32154   5.503   7.995   2.789 -0.2201  0.1878  0.0972
 1002MOL0     C32155   5.368   7.994   2.863  0.4421 -0.6288 -0.7196
 1002MOL0     O32156   5.266   7.993   2.761 -0.4211  0.1129  0.7378
 1002MOL0     C32157   5.132   7.969   2.791  0.4700  0.4891  0.2689
 1002MOL0     C32158   5.029   7.983   2.697  0.1320  0.6747  0.4813
 1002MOL0     C32159   4.894   7.952   2.738  0.2870  0.7669  0.1480
 1002MOL0     C32160   4.847   7.911   2.865 -0.0988  0.3477 -0.1107
 1002MOL0     C32161   4.705   7.879   2.890 -0.6337 -0.0547  0.6341
 1002MOL0     O32162   4.616   7.900   2.789  0.1654  0.2324 -0.1102
 1002MOL0     C32163   4.478   7.892   2.814  0.0704 -0.9481  0.1027
 1002MOL0     C32164   4.409   8.015   2.789 -0.0694 -0.9433  1.1622
 1002MOL0     C32165   4.265   8.014   2.802 -0.2705 -1.0404 -0.4271
 1002MOL0     C32166   4.199   7.904   2.860  0.1234  0.0149  0.4334
 1002MOL0     O32167   4.063   7.918   2.876  0.6901 -0.4952  0.3498
 1002MOL0     C32168   4.014   7.879   3.008 -0.3433 -0.0117 -0.1110
 1002MOL0     C32169   3.998   8.005   3.101 -0.9684 -0.6460  0.2843
 1002MOL0     C32170   4.128   8.059   3.167  0.3021  0.7468  0.8007
 1002MOL0     C32171   4.194   8.186   3.103 -0.4498  0.1326  0.1122
 1002MOL0     C32172   4.277   8.259   3.204  0.2223  0.2367  0.5448
 1002MOL0     C32173   4.398   8.173   3.251 -0.2694 -0.1837 -0.2805
 1002MOL0     C32174   4.475   8.250   3.358  0.0957  0.2294 -0.3019
 1002MOL0     C32175   4.631   8.220   3.349  0.9517  0.3241  0.5276
 1002MOL0    Cl32176   4.693   8.316   3.486  0.1019  0.1960 -0.3133
 1002MOL0     C32177   4.274   7.780   2.864 -0.6835 -0.4310 -0.2571
 1002MOL0     C32178   4.410   7.777   2.841  0.0717 -0.0729  0.1186
 1002MOL0     O32179   4.684   7.832   3.007  0.8749 -0.3052  0.4124
 1002MOL0     C32180   4.958   7.898   2.959 -0.8983  0.0847 -0.1276
 1002MOL0     C32181   5.098   7.925   2.917  0.7327 -0.4025 -0.1791
 1002MOL0     N32182   5.367   7.629   2.835  1.1693 -0.3308  0.0774
 1002MOL0     N32183   5.257   7.572   2.866  0.0610 -0.1918  1.1417
 1002MOL0     C32184   3.982   7.792   2.421 -0.0050 -0.5451  0.9982
 1002MOL0     C32185   3.841   7.804   2.447  0.4238  0.2935  0.0480
 1002MOL0     C32186   3.419   7.816   2.434  0.1988 -0.0838 -0.0157
 1002MOL0     C32187   3.360   7.939   2.410  0.5929 -0.1696  0.3448
 1002MOL0     C32188   3.229   7.960   2.445  0.4135 -0.0188  0.7935
 1002MOL0     C32189   3.151   7.863   2.517 -0.2754 -0.2840 -0.6203
 1002MOL0     O32190   3.026   7.900   2.560 -0.1735  0.4126  0.8998
 1002MOL0     C32191   2.932   7.806   2.505 -0.2888 -0.0274  0.3243
 1002MOL0     C32192   2.817   7.898   2.508 -0.0956 -0.5760 -1.0266
 1002MOL0     C32193   2.677   7.836   2.476 -0.3286 -0.4558 -0.4324
 1002MOL0     C32194   2.626   7.736   2.575 -0.2776  0.0320  0.5626
 1002MOL0     C32195   2.478   7.752   2.597 -0.6432  0.2700 -0.1497
 1002MOL0     C32196   2.357   7.773   2.604 -0.6298 -0.1810 -0.8536
 1002MOL0     C32197   3.214   7.739   2.537  0.0256 -0.4435  0.0356
 1002MOL0     C32198   3.342   7.715   2.499 -0.1648 -0.0249 -0.6585
 1002MOL0     H32199   3.737   7.497   2.344 -0.1249 -0.1420  1.0369
 1002MOL0     H32200   3.983   7.480   2.286 -1.7599 -0.4095 -0.2931
 1002MOL0     H32201   4.240   7.696   2.531  1.2707 -1.4316  0.1942
 1002MOL0     H32202   4.266   7.827   2.415 -2.3752 -0.0660 -0.1114
 1002MOL0     H32203   4.427   7.686   2.304 -0.9119  0.6153 -0.3686
 1002MOL0     H32204   4.383   7.538   2.396 -0.7088  0.2295  1.7931
 1002MOL0     H32205   4.422   7.662   2.615  1.9730 -0.6942  0.7994
 1002MOL0     H32206   4.525   7.775   2.517  1.7240  0.2187  0.5470
 1002MOL0     H32207   4.570   7.477   2.539  0.3372 -0.7190 -1.2002
 1002MOL0     H32208   4.646   7.583   2.421 -1.0553 -1.6693 -0.1492
 1002MOL0     H32209   4.648   7.634   2.715 -2.3391 -2.3267 -1.2100
 1002MOL0     H32210   4.736   7.734   2.598 -1.7400  0.5247 -1.2408
 1002MOL0     H32211   4.874   7.529   2.524 -0.8290  2.3644 -0.6698
 1002MOL0     H32212   4.797   7.431   2.657 -1.1760  0.7491 -0.5224
 1002MOL0     H32213   4.972   7.684   2.693 -0.8092  0.8742  1.2295
 1002MOL0     H32214   4.867   7.604   2.818 -1.7745 -2.0935 -0.8791
 1002MOL0     H32215   5.049   7.424   2.664 -0.5584 -0.2136 -0.0488
 1002MOL0     H32216   5.028   7.452   2.843  5.6586 -1.7853  0.3050
 1002MOL0     H32217   5.205   7.678   2.557  0.7113  2.5911  0.2868
 1002MOL0     H32218   5.402   7.865   2.585 -1.4398  1.7130  4.1488
 1002MOL0     H32219   5.517   7.719   2.590  0.9668 -2.0797  1.9465
 1002MOL0     H32220   5.644   7.881   2.692 -0.4329  1.0299 -2.1638
 1002MOL0     H32221   5.584   7.793   2.827  1.4651  2.4365  2.1231
 1002MOL0     H32222   5.579   8.035   2.856  2.9495 -0.8634 -2.5954
 1002MOL0     H32223   5.480   8.052   2.698 -5.0439 -0.5478  0.5956
 1002MOL0     H32224   5.347   8.087   2.915  0.2256 -2.3917  2.6319
 1002MOL0     H32225   5.381   7.912   2.935 -0.8403 -0.2577 -0.0254
 1002MOL0     H32226   5.057   8.019   2.599 -0.2881  1.5367  0.6738
 1002MOL0     H32227   4.826   7.960   2.654  2.1183 -1.4781 -1.7072
 1002MOL0     H32228   4.462   8.103   2.751 -0.6509 -1.3306 -0.6596
 1002MOL0     H32229   4.211   8.105   2.779 -1.6209 -1.4044  1.1755
 1002MOL0     H32230   4.080   7.803   3.050  0.3851 -0.3414 -1.7991
 1002MOL0     H32231   3.912   7.841   2.999 -0.4624 -0.3462  1.9892
 1002MOL0     H32232   3.932   7.977   3.184  0.0207  0.3617  1.4547
 1002MOL0     H32233   3.959   8.079   3.030  4.2059  1.4627 -0.7846
 1002MOL0     H32234   4.194   7.973   3.155 -1.4374 -0.3384 -2.1919
 1002MOL0     H32235   4.109   8.077   3.273 -0.3727  1.0337  0.6361
 1002MOL0     H32236   4.260   8.160   3.020 -1.2740  0.0855 -0.5455
 1002MOL0     H32237   4.121   8.254   3.059  2.3435  1.8813 -2.1052
 1002MOL0     H32238   4.215   8.286   3.290 -3.1003  2.5631 -2.3036
 1002MOL0     H32239   4.308   8.353   3.157  1.3114  1.1924  3.0183
 1002MOL0     H32240   4.459   8.140   3.167  0.5064  2.4605 -0.8696
 1002MOL0     H32241   4.364   8.077   3.290  1.2713 -1.5992 -2.2582
 1002MOL0     H32242   4.460   8.358   3.348  0.6973  0.3235 -0.2438
 1002MOL0     H32243   4.434   8.219   3.455  1.2414 -2.5614 -0.6089
 1002MOL0     H32244   4.662   8.258   3.251  0.4165  0.1454  0.2839
 1002MOL0     H32245   4.661   8.115   3.343  2.9888  0.9377 -3.6716
 1002MOL0     H32246   4.212   7.698   2.898 -2.3953  2.6008  5.2456
 1002MOL0     H32247   4.463   7.683   2.836 -1.0363 -0.7228  0.1782
 1002MOL0     H32248   4.953   7.847   3.055  0.2515  2.7874  1.4775
 1002MOL0     H32249   5.172   7.891   2.989  1.5431 -0.3165 -0.9500
 1002MOL0     H32250   4.036   7.879   2.456  2.0442 -1.1917 -0.4097
 1002MOL0     H32251   3.803   7.890   2.502  0.1620  0.9501 -1.1207
 1002MOL0     H32252   3.413   8.022   2.365 -2.4429  2.9358  2.0799
 1002MOL0     H32253   3.178   8.055   2.438  0.7344  0.2357  1.7112
 1002MOL0     H32254   2.920   7.722   2.574  1.9869 -0.7377 -0.0650
 1002MOL0     H32255   2.956   7.772   2.403 -0.4288  2.2695 -0.5349
 1002MOL0     H32256   2.799   7.942   2.607 -0.6775  0.1840 -1.4592
 1002MOL0     H32257   2.835   7.981   2.439  1.7990  0.1126  0.2163
 1002MOL0     H32258   2.681   7.790   2.377 -2.8554 -0.2330 -0.7120
 1002MOL0     H32259   2.614   7.926   2.470  0.9100  0.3221 -3.6454
 1002MOL0     H32260   2.664   7.636   2.554 -0.0795  0.1330  0.4326
 1002MOL0     H32261   2.676   7.760   2.669  3.4483  0.2552 -1.2601
 1002MOL0     H32262   2.251   7.778   2.621 -0.1070  0.7561  2.8700
 1002MOL0     H32263   3.159   7.663   2.591  0.2937 -2.6831 -2.6668
 1002MOL0     H32264   3.377   7.615   2.524  0.8289  0.7776  1.3535
 1003MOL0     O32265   1.043   8.913   0.970  0.7151 -0.5340  0.1757
 1003MOL0     C32266   0.990   9.002   1.044  0.5081 -0.0064 -0.5646
 1003MOL0     O32267   1.055   9.072   1.137  0.1712  0.0507 -0.0889
 1003MOL0     C32268   1.185   9.040   1.144 -0.7813 -0.2893  0.8769
 1003MOL0     C32269   1.228   8.942   1.235 -0.4141 -0.1935  0.6485
 1003MOL0     C32270   1.366   8.903   1.247 -0.2193  0.3953 -0.2807
 1003MOL0     C32271   1.467   8.965   1.172 -0.4126  0.2231  0.1769
 1003MOL0     O32272   1.588   8.911   1.188 -0.0479  0.0326 -0.3933
 1003MOL0     C32273   1.679   8.966   1.103 -0.5427 -0.1630  0.3066
 1003MOL0     C32274   1.814   8.910   1.125  0.6576 -0.1498 -0.0961
 1003MOL0     C32275   1.850   8.787   1.043 -0.5139  0.5926  0.1816
 1003MOL0     C32276   1.838   8.653   1.112  0.1237  0.1538  1.2548
 1003MOL0     C32277   1.913   8.550   1.034 -0.7578  0.3026  0.3597
 1003MOL0     C32278   1.894   8.408   1.085  0.4765 -0.7602 -0.2224
 1003MOL0     C32279   1.745   8.364   1.092  0.6211 -0.7498  0.8387
 1003MOL0     C32280   1.725   8.205   1.101 -0.7089 -0.3825 -0.2444
 1003MOL0     N32281   1.597   8.152   1.051  0.4354  0.5345 -0.1493
 1003MOL0     C32282   1.554   8.170   0.920  0.3337  0.8755  0.0968
 1003MOL0     C32283   1.423   8.145   0.917  0.3079  0.7759  0.3178
 1003MOL0     C32284   1.345   8.116   0.797  0.0400 -0.6327  0.6192
 1003MOL0     C32285   1.323   8.252   0.724  0.6496 -0.3935 -0.8579
 1003MOL0     C32286   1.217   8.239   0.609 -0.9106 -0.3850  0.1820
 1003MOL0     C32287   1.280   8.161   0.490  0.1980 -0.0017 -0.2648
 1003MOL0     O32288   1.237   8.221   0.363  0.1051  0.3228 -1.0942
 1003MOL0     C32289   1.110   8.228   0.341 -0.1138 -0.6294  0.1870
 1003MOL0     C32290   1.079   8.313   0.237 -0.2641 -0.0994  0.3859
 1003MOL0     C32291   0.948   8.339   0.200 -0.1736 -0.5694  0.0973
 1003MOL0     C32292   0.845   8.277   0.266 -0.3987  0.3522  0.4543
 1003MOL0     C32293   0.708   8.301   0.218  0.1735 -0.3522 -0.0861
 1003MOL0     O32294   0.683   8.400   0.115 -0.2717  0.3748  0.4425
 1003MOL0     C32295   0.562   8.467   0.103 -0.7310 -0.1200  0.8602
 1003MOL0     C32296   0.543   8.543  -0.013 -1.1856  0.3044  0.7818
 1003MOL0     C32297   0.427   8.609  -0.041  0.3541  0.6994  0.5290
 1003MOL0     C32298   0.318   8.594   0.037  0.2741  0.2677 -1.0798
 1003MOL0     O32299   0.211   8.674   0.003 -0.1868  0.5073  0.3644
 1003MOL0     C32300   0.099   8.679   0.096 -1.1781  0.5503  0.7262
 1003MOL0     C32301  -0.022   8.751   0.042 -0.0495  0.1487 -0.2966
 1003MOL0     C32302  -0.130   8.793   0.150 -0.2059  0.5648 -0.4494
 1003MOL0     C32303  -0.209   8.675   0.211 -0.4341  0.2101  0.0852
 1003MOL0     C32304  -0.321   8.736   0.300 -0.2256  0.7033  0.0463
 1003MOL0     C32305  -0.390   8.629   0.388 -0.7938 -0.5800 -0.8216
 1003MOL0     C32306  -0.458   8.520   0.311  0.4441 -0.1405  0.5420
 1003MOL0     C32307  -0.561   8.443   0.393 -0.2415  0.2641 -0.2143
 1003MOL0    Cl32308  -0.682   8.354   0.308 -0.2682  0.0519 -0.5839
 1003MOL0     C32309   0.332   8.517   0.158  0.4937  0.4265  0.2717
 1003MOL0     C32310   0.455   8.462   0.196  1.3261 -0.1422  0.8745
 1003MOL0     O32311   0.616   8.238   0.269 -0.3533 -0.5973  0.0788
 1003MOL0     C32312   0.869   8.179   0.369  0.7945 -0.7788  0.5403
 1003MOL0     C32313   1.009   8.156   0.405  0.2068  0.3909 -0.0666
 1003MOL0     N32314   1.381   8.123   1.043 -0.2812 -0.8754  0.1576
 1003MOL0     N32315   1.482   8.133   1.120  1.2747 -0.3699 -0.3883
 1003MOL0     C32316   1.419   9.059   1.072 -1.3349  0.0988 -0.2379
 1003MOL0     C32317   1.287   9.094   1.059  0.2693 -0.0764 -0.1363
 1003MOL0     C32318   0.847   9.043   1.023 -0.7055  0.0007 -0.0873
 1003MOL0     C32319   0.767   8.978   0.935 -0.7346  0.0597 -0.6782
 1003MOL0     C32320   0.635   9.018   0.908 -0.1851  0.3831 -0.0049
 1003MOL0     C32321   0.573   9.109   0.988 -0.0292 -0.4913 -0.3695
 1003MOL0     O32322   0.437   9.145   0.999  0.7256  0.0108  0.1038
 1003MOL0     C32323   0.347   9.079   0.914  0.2369  0.2008  0.9809
 1003MOL0     C32324   0.344   9.149   0.776 -0.0244  0.0140  0.4984
 1003MOL0     C32325   0.243   9.264   0.758  0.5164  0.8444  0.4032
 1003MOL0     C32326   0.105   9.199   0.762 -0.7592  1.3582 -0.1213
 1003MOL0     C32327   0.013   9.302   0.767 -0.6048  0.4303 -0.3998
 1003MOL0     C32328  -0.051   9.401   0.776  0.3643  0.8383 -0.1729
 1003MOL0     C32329   0.651   9.183   1.075 -0.1566  0.2586  0.1113
 1003MOL0     C32330   0.789   9.155   1.094  0.3632  0.1885 -0.4334
 1003MOL0     H32331   1.153   8.895   1.298 -2.5014 -0.5889 -1.9630
 1003MOL0     H32332   1.401   8.831   1.321  0.6500 -2.0905 -2.9024
 1003MOL0     H32333   1.681   9.073   1.126 -0.7810 -0.2195  0.5885
 1003MOL0     H32334   1.655   8.962   0.996  0.9436  2.3254 -0.2243
 1003MOL0     H32335   1.817   8.889   1.232 -2.2125  2.3689  0.6149
 1003MOL0     H32336   1.892   8.985   1.110  2.1582 -0.1531  5.4850
 1003MOL0     H32337   1.959   8.795   1.040 -0.5239  0.7781  0.2619
 1003MOL0     H32338   1.806   8.797   0.944 -0.9212  0.3849  0.3408
 1003MOL0     H32339   1.875   8.666   1.214  0.2662  0.4792  1.1621
 1003MOL0     H32340   1.732   8.626   1.117 -0.5026  2.0952 -0.3407
 1003MOL0     H32341   2.019   8.577   1.033 -0.1967 -1.6762 -1.5398
 1003MOL0     H32342   1.879   8.554   0.930 -1.9356  0.2772  0.7265
 1003MOL0     H32343   1.967   8.412   1.166 -1.2233  0.6656  1.3466
 1003MOL0     H32344   1.933   8.341   1.008 -0.2693 -1.3117 -0.1329
 1003MOL0     H32345   1.695   8.417   1.173 -1.5803 -1.5374  0.0662
 1003MOL0     H32346   1.692   8.395   1.002 -1.8293 -1.6813  1.8603
 1003MOL0     H32347   1.750   8.181   1.205  3.4144  0.4066 -0.9171
 1003MOL0     H32348   1.810   8.157   1.052 -0.0664  0.0633  0.4043
 1003MOL0     H32349   1.617   8.189   0.833  1.4793 -1.6251  0.3041
 1003MOL0     H32350   1.250   8.064   0.813 -0.9843  0.6232 -1.0320
 1003MOL0     H32351   1.411   8.074   0.720  1.6441  1.1546  0.9301
 1003MOL0     H32352   1.410   8.308   0.687  1.2860 -0.2975  0.7216
 1003MOL0     H32353   1.286   8.315   0.805 -0.3279 -0.6363 -1.1120
 1003MOL0     H32354   1.121   8.204   0.649 -1.7016  1.7322  0.2672
 1003MOL0     H32355   1.205   8.347   0.598 -0.5532 -0.3127  0.4839
 1003MOL0     H32356   1.248   8.057   0.499 -3.0599  0.9367  0.3791
 1003MOL0     H32357   1.389   8.170   0.497  0.2184  1.4991 -1.7899
 1003MOL0     H32358   1.155   8.355   0.172 -0.4660  0.5320  0.5566
 1003MOL0     H32359   0.926   8.399   0.112  1.0769 -1.9758 -1.2216
 1003MOL0     H32360   0.618   8.553  -0.091 -2.3182 -0.2387 -0.4186
 1003MOL0     H32361   0.416   8.674  -0.128 -0.5281 -1.0396 -0.7173
 1003MOL0     H32362   0.144   8.722   0.186 -0.6232 -0.8570  1.1481
 1003MOL0     H32363   0.056   8.580   0.113 -1.0856  0.8368  2.9807
 1003MOL0     H32364  -0.073   8.704  -0.042 -2.3318  0.5778  0.7740
 1003MOL0     H32365   0.007   8.851   0.009  1.6837 -0.3604 -0.4090
 1003MOL0     H32366  -0.207   8.857   0.105 -1.7770  1.0753  2.7139
 1003MOL0     H32367  -0.077   8.857   0.220 -0.1861  1.6223 -1.4020
 1003MOL0     H32368  -0.252   8.616   0.129  1.6002 -1.8427  0.4018
 1003MOL0     H32369  -0.143   8.604   0.261  0.0797 -0.3280 -1.2894
 1003MOL0     H32370  -0.402   8.791   0.251  0.7344  2.2222  0.0957
 1003MOL0     H32371  -0.279   8.814   0.365  0.3527 -1.0134  1.8389
 1003MOL0     H32372  -0.471   8.682   0.439 -1.3371  0.5248 -2.7113
 1003MOL0     H32373  -0.318   8.579   0.454 -2.3177 -4.0950 -1.5797
 1003MOL0     H32374  -0.513   8.578   0.237  1.0952  2.3684  1.9038
 1003MOL0     H32375  -0.401   8.451   0.249 -2.0351 -1.1612 -0.7544
 1003MOL0     H32376  -0.611   8.510   0.464 -3.5003  0.1397 -2.2266
 1003MOL0     H32377  -0.503   8.367   0.446 -1.3897 -0.5686 -0.1030
 1003MOL0     H32378   0.249   8.491   0.222 -1.8468 -2.9716 -3.6605
 1003MOL0     H32379   0.459   8.416   0.294 -2.2526 -1.1755  0.7134
 1003MOL0     H32380   0.786   8.127   0.415 -0.4306  0.6097 -0.0464
 1003MOL0     H32381   1.027   8.086   0.486 -0.9134  1.0142  0.7465
 1003MOL0     H32382   1.490   9.114   1.010 -0.2669 -0.2268  0.6587
 1003MOL0     H32383   1.253   9.164   0.984  2.4765  0.4384 -0.7465
 1003MOL0     H32384   0.806   8.895   0.877 -1.0225 -0.3418 -0.3062
 1003MOL0     H32385   0.585   8.968   0.826  0.3697  1.7770 -1.2401
 1003MOL0     H32386   0.250   9.071   0.964 -1.3090  2.4697 -1.4264
 1003MOL0     H32387   0.381   8.976   0.898 -0.7454  0.0866 -0.5421
 1003MOL0     H32388   0.445   9.188   0.757  0.5183 -1.0357  1.1364
 1003MOL0     H32389   0.331   9.068   0.704 -0.1846  0.0356  0.5030
 1003MOL0     H32390   0.269   9.338   0.682  0.4956  2.5361  1.9597
 1003MOL0     H32391   0.233   9.313   0.856 -1.0171  0.1785  0.6130
 1003MOL0     H32392   0.093   9.122   0.686  1.1783 -2.5819  3.1245
 1003MOL0     H32393   0.088   9.137   0.851  0.3031  0.0979 -0.7666
 1003MOL0     H32394  -0.103   9.495   0.767  2.0335  1.7230 -1.0047
 1003MOL0     H32395   0.606   9.258   1.139  0.6563 -2.1236  3.8163
 1003MOL0     H32396   0.845   9.222   1.158  1.3122 -1.6288  0.7332
 1004MOL0     O32397   3.160  10.134   0.045 -0.2518  0.0952  0.2181
 1004MOL0     C32398   3.099  10.116  -0.061 -0.2256  0.2666  0.0348
 1004MOL0     O32399   3.148  10.072  -0.182 -0.4098  0.1115 -0.6268
 1004MOL0     C32400   3.283  10.055  -0.200 -1.8936  0.0065  0.1058
 1004MOL0     C32401   3.322  10.044  -0.335  0.0107  0.3308  0.5892
 1004MOL0     C32402   3.451  10.014  -0.375  0.4409  0.9767  0.3966
 1004MOL0     C32403   3.556   9.996  -0.279 -0.6794 -1.3362 -0.5455
 1004MOL0     O32404   3.679   9.959  -0.320  0.0054  0.3858 -0.5950
 1004MOL0     C32405   3.792   9.996  -0.236  0.0273  0.3263  0.4763
 1004MOL0     C32406   3.920   9.962  -0.319  0.2513 -0.7169 -0.2594
 1004MOL0     C32407   4.048   9.996  -0.267 -1.0788 -0.0105  0.0454
 1004MOL0     C32408   4.157   9.944  -0.353  0.0943 -0.1843 -0.4630
 1004MOL0     C32409   4.290   9.987  -0.297 -0.6054  0.5157 -0.2594
 1004MOL0     C32410   4.385   9.971  -0.416 -0.1879  1.0000  1.0075
 1004MOL0     C32411   4.522   9.997  -0.372 -0.2304 -0.0857  0.6025
 1004MOL0     C32412   4.620  10.003  -0.486  0.4848 -0.1449  0.6792
 1004MOL0     N32413   4.624  10.150  -0.534  0.2981 -0.0481  0.2933
 1004MOL0     C32414   4.567  10.217  -0.642  0.6723  0.5735 -1.0777
 1004MOL0     C32415   4.597  10.348  -0.623 -0.4401 -0.5019 -0.5859
 1004MOL0     C32416   4.555  10.457  -0.707  0.2022 -0.6567 -0.0737
 1004MOL0     C32417   4.525  10.424  -0.857 -0.1307  0.5864 -0.3982
 1004MOL0     C32418   4.445  10.529  -0.931 -0.3353 -0.0213  0.0182
 1004MOL0     C32419   4.299  10.484  -0.950 -0.1243  0.7502 -0.1160
 1004MOL0     O32420   4.218  10.439  -0.832  0.1397  0.1273  0.3462
 1004MOL0     C32421   4.091  10.495  -0.824  1.0601 -0.2272  0.3267
 1004MOL0     C32422   4.070  10.631  -0.801  0.9758 -0.9178 -1.3645
 1004MOL0     C32423   3.946  10.680  -0.752  0.3736  0.1683  0.0532
 1004MOL0     C32424   3.830  10.594  -0.753 -0.2106  1.0087 -0.2311
 1004MOL0     C32425   3.696  10.655  -0.733  0.3486  1.0436 -0.4211
 1004MOL0     O32426   3.592  10.577  -0.767 -0.4443  0.3705 -0.1219
 1004MOL0     C32427   3.470  10.639  -0.797 -0.0501 -0.0487 -0.2393
 1004MOL0     C32428   3.366  10.646  -0.706 -0.2786 -0.5993  0.0486
 1004MOL0     C32429   3.240  10.720  -0.724  0.1487  0.3257  0.0960
 1004MOL0     C32430   3.232  10.784  -0.854 -0.0032 -0.4633 -0.9607
 1004MOL0     O32431   3.112  10.844  -0.864  0.2486 -0.2084 -0.1808
 1004MOL0     C32432   3.074  10.915  -0.982  0.7989  0.1301 -0.5048
 1004MOL0     C32433   2.930  10.892  -1.020  0.6696 -0.2409 -0.7804
 1004MOL0     C32434   2.887  10.947  -1.160  0.3626 -0.4071  0.7049
 1004MOL0     C32435   2.741  10.914  -1.199 -0.4478 -0.0545 -0.3202
 1004MOL0     C32436   2.638  10.936  -1.088  0.0308 -0.6555  0.6766
 1004MOL0     C32437   2.500  10.872  -1.128 -0.5653  0.1338  0.3412
 1004MOL0     C32438   2.406  10.879  -1.007  0.2984 -0.5150 -0.0336
 1004MOL0     C32439   2.291  10.780  -1.002  0.3508 -0.2690 -0.0697
 1004MOL0    Cl32440   2.130  10.822  -1.074  0.7701  0.0739 -0.3306
 1004MOL0     C32441   3.323  10.763  -0.950 -0.2612  0.7130  0.0997
 1004MOL0     C32442   3.448  10.693  -0.918 -0.3894 -0.8806 -0.3373
 1004MOL0     O32443   3.691  10.773  -0.719  0.6709  0.5956  0.3325
 1004MOL0     C32444   3.855  10.457  -0.786  0.9580  0.2214 -1.2340
 1004MOL0     C32445   3.978  10.404  -0.821  0.2052  0.5019 -0.2108
 1004MOL0     N32446   4.694  10.352  -0.521  0.5245  0.3562  0.2471
 1004MOL0     N32447   4.711  10.231  -0.467  0.7829 -0.5538 -0.0261
 1004MOL0     C32448   3.524  10.009  -0.146 -0.7082 -1.3113 -0.2793
 1004MOL0     C32449   3.394  10.042  -0.105  0.1230  0.6517  0.4665
 1004MOL0     C32450   2.957  10.158  -0.056  0.4131 -0.4038  0.1548
 1004MOL0     C32451   2.882  10.183   0.058  0.2231 -0.2670 -0.7134
 1004MOL0     C32452   2.751  10.217   0.040  0.3502 -0.4374 -0.1453
 1004MOL0     C32453   2.684  10.229  -0.092  0.8383  0.5339  0.0036
 1004MOL0     O32454   2.552  10.269  -0.091  0.1107 -0.0293 -0.0458
 1004MOL0     C32455   2.477  10.230  -0.197  1.1511  0.0026 -0.0452
 1004MOL0     C32456   2.330  10.238  -0.165  0.4066 -0.6124 -0.0676
 1004MOL0     C32457   2.247  10.253  -0.296  0.0791  0.0642  0.2280
 1004MOL0     C32458   2.098  10.269  -0.270 -1.3631  0.9252 -0.6896
 1004MOL0     C32459   2.017  10.283  -0.395  0.0659 -0.6602 -0.3099
 1004MOL0     C32460   1.965  10.264  -0.505 -0.1332 -0.8017  0.0432
 1004MOL0     C32461   2.763  10.220  -0.197  0.1432  0.3715  0.9300
 1004MOL0     C32462   2.899  10.187  -0.180  0.3780  0.3571 -0.8268
 1004MOL0     H32463   3.245  10.033  -0.410  1.7358  0.6711 -1.3076
 1004MOL0     H32464   3.474   9.989  -0.478 -1.1809  0.2194  0.2002
 1004MOL0     H32465   3.801   9.943  -0.141 -1.1176 -1.4355 -0.3367
 1004MOL0     H32466   3.784  10.104  -0.220 -3.8176  0.1445  0.8172
 1004MOL0     H32467   3.910  10.004  -0.419 -0.1140 -1.3807 -0.5118
 1004MOL0     H32468   3.915   9.853  -0.334 -1.4099 -0.5867 -0.8806
 1004MOL0     H32469   4.057   9.956  -0.166 -4.2284  0.3118  0.5447
 1004MOL0     H32470   4.045  10.105  -0.273 -1.4519 -0.0237 -0.0622
 1004MOL0     H32471   4.164   9.835  -0.366 -0.2425 -0.1582 -0.8997
 1004MOL0     H32472   4.144   9.989  -0.452 -2.1227 -1.6502 -0.9036
 1004MOL0     H32473   4.335   9.922  -0.221  1.7746  1.9187 -0.3801
 1004MOL0     H32474   4.292  10.090  -0.262 -2.0044 -0.6837  3.9394
 1004MOL0     H32475   4.360  10.050  -0.487  5.0440  0.6106 -1.7114
 1004MOL0     H32476   4.377   9.880  -0.476 -1.2522  0.5070  1.8589
 1004MOL0     H32477   4.522  10.093  -0.320  1.2165 -0.0225  0.5294
 1004MOL0     H32478   4.558   9.928  -0.295  2.0775  0.9507  0.5262
 1004MOL0     H32479   4.596   9.941  -0.573  2.4008  1.5637 -1.1427
 1004MOL0     H32480   4.720   9.979  -0.448  1.0776  0.2103 -0.6213
 1004MOL0     H32481   4.492  10.174  -0.707  0.8653 -1.0231 -0.2960
 1004MOL0     H32482   4.605  10.552  -0.691  0.3000 -0.3961 -1.7530
 1004MOL0     H32483   4.454  10.476  -0.669  0.3612  1.6474 -0.6793
 1004MOL0     H32484   4.466  10.332  -0.853  1.3160 -0.3533  1.6537
 1004MOL0     H32485   4.617  10.408  -0.914 -1.7220  0.0935 -3.0048
 1004MOL0     H32486   4.460  10.624  -0.878 -2.6064  0.7819 -0.6381
 1004MOL0     H32487   4.489  10.543  -1.029  0.2760  1.3476  0.4701
 1004MOL0     H32488   4.299  10.412  -1.033 -0.7189  2.3733 -1.5739
 1004MOL0     H32489   4.252  10.577  -0.983 -0.5346  0.4527 -0.3772
 1004MOL0     H32490   4.148  10.706  -0.810  1.5524 -1.2062  0.6579
 1004MOL0     H32491   3.934  10.786  -0.732 -0.5135  0.2621 -0.8995
 1004MOL0     H32492   3.381  10.602  -0.608 -2.3808 -1.6751 -0.0458
 1004MOL0     H32493   3.149  10.716  -0.664 -1.4255  1.5465 -2.0512
 1004MOL0     H32494   3.135  10.883  -1.067  1.0580 -0.7137 -0.0126
 1004MOL0     H32495   3.081  11.023  -0.968 -0.1773  0.2897 -1.2242
 1004MOL0     H32496   2.862  10.932  -0.944 -2.5289 -3.0283 -1.9409
 1004MOL0     H32497   2.906  10.786  -1.006  2.1686 -0.5252 -0.0736
 1004MOL0     H32498   2.954  10.901  -1.233  0.4096  1.9189 -0.8104
 1004MOL0     H32499   2.903  11.055  -1.161  0.7233 -0.4471  1.2055
 1004MOL0     H32500   2.717  10.981  -1.283 -1.4448  1.7336  1.3276
 1004MOL0     H32501   2.738  10.810  -1.234 -1.3258  0.4553 -1.8846
 1004MOL0     H32502   2.638  11.042  -1.061 -1.9961 -0.7956  1.3444
 1004MOL0     H32503   2.671  10.872  -1.005 -0.0795  0.6468  1.7445
 1004MOL0     H32504   2.504  10.769  -1.164 -0.8494  0.0705  0.4857
 1004MOL0     H32505   2.459  10.924  -1.215  0.6091 -1.9663 -1.5648
 1004MOL0     H32506   2.461  10.879  -0.912 -4.5226  1.1676  3.1215
 1004MOL0     H32507   2.362  10.979  -1.009  0.7274 -0.3317 -0.8223
 1004MOL0     H32508   2.267  10.760  -0.898  0.5808 -0.0640  0.0221
 1004MOL0     H32509   2.309  10.682  -1.047 -2.9828 -0.9119 -0.2638
 1004MOL0     H32510   3.316  10.809  -1.048  1.0151  1.9773  0.5655
 1004MOL0     H32511   3.519  10.701  -1.000  0.5080  0.9767  0.5680
 1004MOL0     H32512   3.770  10.391  -0.768  2.5676 -1.6216  0.1084
 1004MOL0     H32513   3.982  10.297  -0.842  1.5191  0.9143 -2.4469
 1004MOL0     H32514   3.603   9.993  -0.072 -0.1765  1.3979 -0.1516
 1004MOL0     H32515   3.382  10.029   0.002  0.4674 -2.5054  0.2175
 1004MOL0     H32516   2.922  10.165   0.157  0.6627 -0.4048 -0.9162
 1004MOL0     H32517   2.689  10.234   0.127  2.0829 -0.4773  1.1495
 1004MOL0     H32518   2.504  10.125  -0.212 -2.1975 -0.7861 -1.2995
 1004MOL0     H32519   2.500  10.290  -0.286  2.4341  1.5218  1.2283
 1004MOL0     H32520   2.299  10.147  -0.113 -1.0780 -0.5356 -0.7639
 1004MOL0     H32521   2.305  10.326  -0.105  2.9626  1.2735 -1.5830
 1004MOL0     H32522   2.261  10.169  -0.364 -3.2447 -1.2276  0.9171
 1004MOL0     H32523   2.278  10.342  -0.350 -0.0576  0.2448  0.4465
 1004MOL0     H32524   2.046  10.195  -0.208  0.7382  1.0459  1.3494
 1004MOL0     H32525   2.073  10.360  -0.215 -3.5606  0.9717 -1.6675
 1004MOL0     H32526   1.934  10.251  -0.606 -0.7357 -3.5167  0.5066
 1004MOL0     H32527   2.736  10.241  -0.299  1.6916  1.4761  0.6987
 1004MOL0     H32528   2.960  10.187  -0.270  2.3361 -0.3224  0.4257
 1005MOL0     O32529   4.147   3.033   0.083  0.3342 -0.1632  0.2904
 1005MOL0     C32530   4.143   3.111   0.175  0.9699  0.5200 -0.6831
 1005MOL0     O32531   4.097   3.243   0.167  0.9318 -0.0555 -0.2131
 1005MOL0     C32532   4.040   3.275   0.048 -0.1728 -0.3513 -0.0429
 1005MOL0     C32533   3.924   3.213  -0.011  0.6008 -0.1979 -0.6252
 1005MOL0     C32534   3.869   3.257  -0.138  0.1149 -0.6937 -0.9033
 1005MOL0     C32535   3.926   3.367  -0.198 -1.1220 -0.7352  0.0119
 1005MOL0     O32536   3.867   3.405  -0.315 -0.5367 -0.9352  0.3792
 1005MOL0     C32537   3.925   3.491  -0.408 -0.1962 -0.4371 -0.6173
 1005MOL0     C32538   3.892   3.638  -0.375 -0.7142  0.1734  0.2054
 1005MOL0     C32539   3.747   3.668  -0.386  0.3880 -0.0473  0.6827
 1005MOL0     C32540   3.705   3.787  -0.299 -1.4602  0.1143  0.4065
 1005MOL0     C32541   3.558   3.827  -0.294 -0.4362  0.2220  0.9045
 1005MOL0     C32542   3.502   3.897  -0.425 -0.8638 -0.4966 -1.2568
 1005MOL0     C32543   3.345   3.881  -0.409 -0.2666  0.1784 -0.2678
 1005MOL0     C32544   3.271   3.939  -0.527 -0.3440 -0.3816 -0.3320
 1005MOL0     N32545   3.296   4.086  -0.527 -0.2829  0.3559  0.2218
 1005MOL0     C32546   3.214   4.174  -0.467  1.0979 -1.1763  0.7086
 1005MOL0     C32547   3.270   4.297  -0.492 -0.1024 -0.2470 -0.7751
 1005MOL0     C32548   3.230   4.434  -0.432 -0.7474 -0.0714 -0.1206
 1005MOL0     C32549   3.100   4.487  -0.479  0.0484 -0.3660  0.2269
 1005MOL0     C32550   3.100   4.509  -0.639  0.4346  0.1432  0.6801
 1005MOL0     C32551   2.962   4.572  -0.681  0.2785  0.1660  0.4473
 1005MOL0     O32552   2.857   4.481  -0.638 -0.0561 -0.1395  0.0810
 1005MOL0     C32553   2.731   4.521  -0.656 -0.2590  0.3128 -0.4670
 1005MOL0     C32554   2.624   4.467  -0.567  0.5448  0.0540  0.2185
 1005MOL0     C32555   2.491   4.465  -0.607 -0.1411  0.2737  0.6129
 1005MOL0     C32556   2.457   4.537  -0.721 -0.0385  0.6507 -0.3178
 1005MOL0     C32557   2.313   4.530  -0.755  0.0665 -1.2913 -0.6515
 1005MOL0     O32558   2.276   4.618  -0.860 -0.9466  0.2061  0.0883
 1005MOL0     C32559   2.148   4.625  -0.903 -0.4184 -0.2403 -0.7057
 1005MOL0     C32560   2.132   4.718  -1.013  0.2601 -0.2599 -1.4336
 1005MOL0     C32561   2.014   4.727  -1.087 -0.4709 -1.3012  0.7267
 1005MOL0     C32562   1.909   4.648  -1.051  0.2575  0.3355 -0.7266
 1005MOL0     O32563   1.789   4.658  -1.118  0.2494 -0.3445  0.3633
 1005MOL0     C32564   1.723   4.545  -1.184  0.3725  0.0860 -0.5348
 1005MOL0     C32565   1.567   4.584  -1.204  0.4649  1.0410  0.3803
 1005MOL0     C32566   1.467   4.464  -1.198  0.7223 -0.3847  0.5029
 1005MOL0     C32567   1.313   4.506  -1.238 -0.7369  0.6405 -0.6699
 1005MOL0     C32568   1.226   4.384  -1.203 -0.1223 -1.0748  0.0491
 1005MOL0     C32569   1.084   4.414  -1.258 -0.1665 -0.2424  1.2566
 1005MOL0     C32570   1.005   4.285  -1.243  0.6142 -0.2266 -0.3780
 1005MOL0     C32571   0.876   4.291  -1.314  0.1941  0.2252 -0.6378
 1005MOL0    Cl32572   0.914   4.293  -1.481 -0.2782  0.2654  0.1038
 1005MOL0     C32573   1.919   4.560  -0.938  0.3040 -0.1794  0.1780
 1005MOL0     C32574   2.030   4.558  -0.857  0.7192  0.1938 -0.2222
 1005MOL0     O32575   2.237   4.471  -0.677 -0.4311  0.8520 -0.6513
 1005MOL0     C32576   2.558   4.592  -0.810 -0.2605  0.6376 -0.1599
 1005MOL0     C32577   2.694   4.590  -0.773 -0.2654 -0.0487  0.7123
 1005MOL0     N32578   3.385   4.281  -0.566 -0.5623 -0.4002 -0.4184
 1005MOL0     N32579   3.394   4.155  -0.585 -0.8683  0.0266 -0.0334
 1005MOL0     C32580   4.025   3.435  -0.146  0.3199 -0.7318  0.1207
 1005MOL0     C32581   4.068   3.400  -0.013 -0.6568  0.4269 -1.0208
 1005MOL0     C32582   4.201   3.066   0.303  1.1276  0.5194  0.5750
 1005MOL0     C32583   4.259   2.943   0.310 -0.8206  0.5751 -1.0723
 1005MOL0     C32584   4.323   2.906   0.427  0.7939 -0.4442 -0.5691
 1005MOL0     C32585   4.342   3.003   0.533 -1.1423  1.3301 -0.3500
 1005MOL0     O32586   4.408   2.947   0.645 -0.2109  0.0150 -0.2421
 1005MOL0     C32587   4.482   3.042   0.723 -0.1096  0.3336  0.4721
 1005MOL0     C32588   4.592   2.972   0.798  0.7332 -1.0343  0.0747
 1005MOL0     C32589   4.709   2.912   0.728  0.3387 -0.4468  0.3416
 1005MOL0     C32590   4.819   2.865   0.827 -0.7015  0.3926  1.3009
 1005MOL0     C32591   4.773   2.745   0.891  0.4794  0.0467  0.3609
 1005MOL0     C32592   4.728   2.649   0.948 -0.5301  0.6605 -1.2291
 1005MOL0     C32593   4.300   3.131   0.519  0.6216  0.5216 -0.3629
 1005MOL0     C32594   4.210   3.160   0.413  0.2921 -0.0234  0.0591
 1005MOL0     H32595   3.884   3.123   0.033  0.5369  0.0120 -0.2439
 1005MOL0     H32596   3.792   3.194  -0.181 -0.1310 -0.2998 -1.0468
 1005MOL0     H32597   3.891   3.472  -0.511 -6.3525  3.9469  0.0240
 1005MOL0     H32598   4.034   3.486  -0.403 -0.2819 -3.7841  0.6114
 1005MOL0     H32599   3.942   3.703  -0.448  0.9541 -1.5725 -0.2713
 1005MOL0     H32600   3.948   3.665  -0.285  3.1736  3.3232 -2.7578
 1005MOL0     H32601   3.688   3.582  -0.352 -0.4857  1.7464  4.1644
 1005MOL0     H32602   3.731   3.696  -0.490 -0.1687  1.9994  1.2781
 1005MOL0     H32603   3.727   3.768  -0.194 -0.6208  1.6604  0.5410
 1005MOL0     H32604   3.771   3.870  -0.328  0.2173 -0.7258  1.6849
 1005MOL0     H32605   3.539   3.902  -0.217 -0.2173  1.0781  0.1360
 1005MOL0     H32606   3.506   3.734  -0.269 -0.8828 -0.0278 -0.8616
 1005MOL0     H32607   3.540   3.843  -0.512  3.2883 -0.3402  0.2224
 1005MOL0     H32608   3.542   3.999  -0.425  1.0124 -1.1779 -0.0639
 1005MOL0     H32609   3.310   3.777  -0.399 -1.1153  0.3214 -1.4856
 1005MOL0     H32610   3.321   3.929  -0.314  1.6425 -1.2090  0.9952
 1005MOL0     H32611   3.165   3.920  -0.505  0.4675 -2.2462  2.4909
 1005MOL0     H32612   3.306   3.902  -0.624  0.7527 -0.2149 -0.0131
 1005MOL0     H32613   3.121   4.146  -0.420 -0.8462 -0.4021 -2.3852
 1005MOL0     H32614   3.306   4.507  -0.462 -1.7097  0.0081 -2.6063
 1005MOL0     H32615   3.221   4.426  -0.323 -0.2872  2.0742  0.1043
 1005MOL0     H32616   3.089   4.583  -0.427  0.8120 -1.3945  2.4262
 1005MOL0     H32617   3.017   4.423  -0.448 -1.1100  1.6983  1.6228
 1005MOL0     H32618   3.191   4.557  -0.675 -0.7878  2.2302  0.2324
 1005MOL0     H32619   3.103   4.408  -0.682  2.1012 -0.0857  1.2491
 1005MOL0     H32620   2.958   4.559  -0.790  0.4588 -1.4259  0.5974
 1005MOL0     H32621   2.953   4.674  -0.642 -0.2519 -0.6337  2.5224
 1005MOL0     H32622   2.648   4.439  -0.465 -1.0979  1.8787  1.1621
 1005MOL0     H32623   2.414   4.420  -0.545 -1.0866  0.8376 -0.1006
 1005MOL0     H32624   2.216   4.776  -1.048 -0.0978  2.0371  1.1513
 1005MOL0     H32625   2.006   4.800  -1.167 -0.8113 -1.9911  0.1186
 1005MOL0     H32626   1.741   4.454  -1.126  1.8595  0.4087 -0.4520
 1005MOL0     H32627   1.770   4.532  -1.282  3.4826  1.1072  0.7172
 1005MOL0     H32628   1.556   4.636  -1.300  0.2854  0.6124  0.1664
 1005MOL0     H32629   1.541   4.664  -1.134  0.9392  2.2723 -0.8069
 1005MOL0     H32630   1.465   4.406  -1.106 -2.3533 -2.2411 -0.5706
 1005MOL0     H32631   1.495   4.391  -1.275 -1.5065 -0.2532 -0.5304
 1005MOL0     H32632   1.282   4.601  -1.194 -0.2395  0.0961  0.9592
 1005MOL0     H32633   1.304   4.510  -1.347  0.3039  0.8577 -0.7553
 1005MOL0     H32634   1.221   4.371  -1.094 -2.7550  2.7131  0.5709
 1005MOL0     H32635   1.268   4.296  -1.252  0.6586 -0.2408 -0.8236
 1005MOL0     H32636   1.093   4.447  -1.362 -0.8215 -1.0027  0.9504
 1005MOL0     H32637   1.034   4.498  -1.209  0.1183  2.0668 -2.0546
 1005MOL0     H32638   1.072   4.209  -1.284 -0.9844 -1.0508 -1.5861
 1005MOL0     H32639   0.986   4.270  -1.136  1.5238 -2.2050 -0.4491
 1005MOL0     H32640   0.817   4.379  -1.289 -0.7967 -0.7221  0.4467
 1005MOL0     H32641   0.830   4.197  -1.282  1.8372 -0.0922  0.9634
 1005MOL0     H32642   1.847   4.482  -0.917  0.5799 -0.7893 -1.0716
 1005MOL0     H32643   2.024   4.485  -0.777 -1.8878 -0.0128 -0.5248
 1005MOL0     H32644   2.530   4.642  -0.902 -0.3943  0.6712 -0.1007
 1005MOL0     H32645   2.768   4.634  -0.839 -0.9536 -1.2492 -0.9053
 1005MOL0     H32646   4.066   3.523  -0.195 -2.2718 -1.0006 -2.8496
 1005MOL0     H32647   4.141   3.459   0.041 -1.1755 -0.8652  1.2154
 1005MOL0     H32648   4.250   2.867   0.233 -2.6017 -0.5103  0.1304
 1005MOL0     H32649   4.351   2.802   0.442 -2.2370 -1.0904  1.8340
 1005MOL0     H32650   4.419   3.093   0.797 -1.1428  0.8620 -0.7319
 1005MOL0     H32651   4.525   3.126   0.666 -2.9694  1.7124  0.1959
 1005MOL0     H32652   4.625   3.053   0.864 -0.5699 -0.0808 -0.4058
 1005MOL0     H32653   4.533   2.900   0.855 -1.7771 -1.4046 -2.7484
 1005MOL0     H32654   4.746   2.996   0.669 -2.4894  1.8267  1.5410
 1005MOL0     H32655   4.680   2.848   0.644 -0.8801  2.0390 -1.2673
 1005MOL0     H32656   4.917   2.850   0.781 -1.3273 -0.4629  0.1705
 1005MOL0     H32657   4.836   2.951   0.892 -1.2790  2.0375 -0.6213
 1005MOL0     H32658   4.697   2.562   1.003  3.4076 -1.4528 -1.9342
 1005MOL0     H32659   4.320   3.208   0.593 -0.2479 -0.7795  1.2910
 1005MOL0     H32660   4.163   3.258   0.411 -0.1910 -0.2568 -1.1061
 1006MOL0     O32661   3.204   6.938   5.687  0.2393 -0.2870  0.2286
 1006MOL0     C32662   3.276   6.842   5.667  0.2751  0.5850 -0.2166
 1006MOL0     O32663   3.232   6.713   5.633 -0.1390  1.1833  0.6550
 1006MOL0     C32664   3.097   6.703   5.587 -0.9287 -0.2722 -0.0860
 1006MOL0     C32665   3.036   6.579   5.603  0.6398  0.6490  0.7844
 1006MOL0     C32666   2.911   6.559   5.542 -0.1481  0.0456  0.8190
 1006MOL0     C32667   2.840   6.654   5.465  0.6788  0.2391  0.2781
 1006MOL0     O32668   2.708   6.619   5.421 -0.4265 -0.1327 -0.0931
 1006MOL0     C32669   2.641   6.711   5.329  0.2711 -0.3461  0.6321
 1006MOL0     C32670   2.510   6.649   5.301  0.7968  0.8563 -0.0139
 1006MOL0     C32671   2.403   6.760   5.279 -0.4141 -0.4374  0.2455
 1006MOL0     C32672   2.436   6.852   5.157 -0.0205  0.2303  0.8404
 1006MOL0     C32673   2.311   6.910   5.096 -0.5512  0.3337 -0.2533
 1006MOL0     C32674   2.208   6.963   5.198  0.2352 -0.2538  0.0567
 1006MOL0     C32675   2.090   7.033   5.118 -0.5501 -0.0349  0.2041
 1006MOL0     C32676   1.998   7.118   5.209 -0.1196 -1.0397  0.1890
 1006MOL0     N32677   1.876   7.168   5.146 -0.3651 -1.1874  0.3431
 1006MOL0     C32678   1.866   7.232   5.028 -0.8205 -0.1382 -0.3848
 1006MOL0     C32679   1.731   7.249   5.004 -0.4674 -1.0034  0.5741
 1006MOL0     C32680   1.675   7.316   4.881 -0.4797 -0.5028  0.0952
 1006MOL0     C32681   1.544   7.394   4.905 -0.4832 -0.2225 -0.2606
 1006MOL0     C32682   1.428   7.303   4.916  1.1682  0.1629  0.7963
 1006MOL0     C32683   1.308   7.393   4.939  0.6117 -0.5374 -0.4758
 1006MOL0     O32684   1.299   7.426   5.078 -0.4027 -0.0352 -0.4218
 1006MOL0     C32685   1.173   7.439   5.130 -0.0592 -0.3380  0.1158
 1006MOL0     C32686   1.157   7.401   5.265 -0.1778  0.4253 -0.5152
 1006MOL0     C32687   1.036   7.407   5.324 -0.8862  0.3606 -0.6738
 1006MOL0     C32688   0.918   7.448   5.255  0.1654 -1.2046 -0.5606
 1006MOL0     C32689   0.796   7.469   5.339  0.2630  1.3146 -0.6094
 1006MOL0     O32690   0.775   7.384   5.446 -0.1033  0.8721  0.2185
 1006MOL0     C32691   0.671   7.405   5.536 -0.2948  0.6007  0.9888
 1006MOL0     C32692   0.661   7.522   5.618 -0.1801  0.0112 -1.2688
 1006MOL0     C32693   0.555   7.561   5.687  0.7411 -0.7648 -0.5473
 1006MOL0     C32694   0.439   7.481   5.686  0.3104  0.4080 -0.4257
 1006MOL0     O32695   0.319   7.516   5.743  0.2832 -0.7544 -0.1735
 1006MOL0     C32696   0.273   7.441   5.857 -0.5825  0.0812 -0.3702
 1006MOL0     C32697   0.131   7.393   5.830 -1.4030 -0.6137 -0.2674
 1006MOL0     C32698   0.078   7.306   5.946 -0.7123 -1.0621  0.6119
 1006MOL0     C32699   0.002   7.390   6.047 -0.0185 -0.4457 -0.9676
 1006MOL0     C32700  -0.045   7.295   6.158  0.1613  0.6983 -0.2371
 1006MOL0     C32701  -0.160   7.349   6.235 -1.1209 -0.2477 -0.6138
 1006MOL0     C32702  -0.231   7.242   6.319 -0.7303  0.9963 -0.0848
 1006MOL0     C32703  -0.342   7.296   6.413 -0.5678  0.0618  1.2206
 1006MOL0    Cl32704  -0.473   7.385   6.322 -0.0167  0.2965 -0.5299
 1006MOL0     C32705   0.441   7.350   5.611 -0.3147 -0.6473 -0.6538
 1006MOL0     C32706   0.559   7.317   5.544 -0.2480  0.2329  0.6136
 1006MOL0     O32707   0.730   7.578   5.324 -0.3659  0.4522 -0.0396
 1006MOL0     C32708   0.934   7.497   5.123  0.0776 -0.6807  0.1304
 1006MOL0     C32709   1.063   7.491   5.060 -0.2448  0.3701 -0.7380
 1006MOL0     N32710   1.666   7.195   5.108 -0.1716  0.4439  0.6064
 1006MOL0     N32711   1.751   7.145   5.190 -0.4109 -0.0319  0.6992
 1006MOL0     C32712   2.907   6.770   5.434  0.4120 -0.6323 -0.2603
 1006MOL0     C32713   3.031   6.793   5.487  0.2110  0.6463 -0.7720
 1006MOL0     C32714   3.420   6.855   5.706  0.7175  0.2528 -0.8655
 1006MOL0     C32715   3.474   6.975   5.719  0.3343 -0.0942  0.2376
 1006MOL0     C32716   3.589   7.006   5.779 -0.1256  0.3313  0.2511
 1006MOL0     C32717   3.661   6.902   5.829 -0.4085  0.0843  0.4906
 1006MOL0     O32718   3.784   6.906   5.900 -0.2321  0.0424 -0.4360
 1006MOL0     C32719   3.844   7.031   5.918  0.2821  0.8449 -0.2223
 1006MOL0     C32720   3.969   6.999   6.001  0.0375  0.2603  0.1057
 1006MOL0     C32721   4.056   7.126   6.018  0.1690  0.1495  0.3080
 1006MOL0     C32722   4.178   7.094   6.104  0.1948  0.0828 -0.1317
 1006MOL0     C32723   4.200   7.171   6.222 -0.0332 -0.5750 -0.1100
 1006MOL0     C32724   4.221   7.241   6.315  0.8692  0.4089 -0.1149
 1006MOL0     C32725   3.611   6.772   5.817 -0.3820  0.2654 -1.1262
 1006MOL0     C32726   3.493   6.743   5.753  0.2664  0.0895  0.6130
 1006MOL0     H32727   3.083   6.503   5.663 -1.4686 -0.9932  0.4772
 1006MOL0     H32728   2.874   6.460   5.567 -2.7632  1.5612  3.7245
 1006MOL0     H32729   2.697   6.709   5.235  0.1011  0.4495  0.5044
 1006MOL0     H32730   2.624   6.812   5.369 -0.0237  0.9326 -2.4478
 1006MOL0     H32731   2.475   6.598   5.391  1.1829 -1.4146 -1.0730
 1006MOL0     H32732   2.513   6.582   5.215  1.3951  4.3211 -2.9565
 1006MOL0     H32733   2.379   6.822   5.365 -2.4059  1.4969 -1.5541
 1006MOL0     H32734   2.313   6.703   5.253 -1.2532 -0.0733  2.2080
 1006MOL0     H32735   2.510   6.926   5.189  0.5728 -1.6005  4.1898
 1006MOL0     H32736   2.486   6.794   5.078 -0.5681  1.2513 -0.2853
 1006MOL0     H32737   2.271   6.836   5.025  0.7603  0.0033 -0.6708
 1006MOL0     H32738   2.338   6.991   5.028 -4.0429  1.9226 -0.0016
 1006MOL0     H32739   2.263   7.038   5.256  0.1092  0.0032 -0.1546
 1006MOL0     H32740   2.160   6.891   5.265 -2.6288  2.5525  1.2996
 1006MOL0     H32741   2.134   7.114   5.059 -0.6304 -0.3557 -0.2985
 1006MOL0     H32742   2.034   6.971   5.048 -2.7917  0.0226  1.8252
 1006MOL0     H32743   2.060   7.198   5.252 -1.1455  1.1540 -2.1900
 1006MOL0     H32744   1.961   7.046   5.282 -0.0623  0.3455  1.6323
 1006MOL0     H32745   1.952   7.262   4.968 -2.7975  1.6915 -2.5386
 1006MOL0     H32746   1.647   7.239   4.808  0.7165 -0.9350  0.0704
 1006MOL0     H32747   1.741   7.388   4.832 -1.7179 -1.5800 -3.4425
 1006MOL0     H32748   1.522   7.460   4.821 -0.2926 -1.6144 -1.4447
 1006MOL0     H32749   1.548   7.468   4.985  0.7642  0.3250 -0.8214
 1006MOL0     H32750   1.415   7.250   4.821 -0.0198  0.8840  0.5333
 1006MOL0     H32751   1.423   7.229   4.996 -1.1251  0.0372  0.6034
 1006MOL0     H32752   1.229   7.321   4.918  1.5692 -1.7748  0.0663
 1006MOL0     H32753   1.301   7.486   4.880 -1.5288  1.9213  3.2529
 1006MOL0     H32754   1.246   7.374   5.321  1.4719  2.0744 -2.1760
 1006MOL0     H32755   1.027   7.374   5.427  0.3902  0.4930 -0.5047
 1006MOL0     H32756   0.736   7.600   5.609 -2.7215  2.6959 -1.0422
 1006MOL0     H32757   0.546   7.654   5.743  4.3605  0.3064 -1.4731
 1006MOL0     H32758   0.259   7.513   5.938 -1.6759  2.7267 -2.7443
 1006MOL0     H32759   0.355   7.370   5.876  0.6455  1.3777 -0.6060
 1006MOL0     H32760   0.131   7.340   5.735 -3.1908  0.3099 -0.8193
 1006MOL0     H32761   0.063   7.477   5.813 -0.8447 -0.3176 -1.1084
 1006MOL0     H32762   0.163   7.273   6.006 -0.4155 -0.3089  0.6118
 1006MOL0     H32763   0.030   7.217   5.904 -1.5743 -0.0767 -0.5624
 1006MOL0     H32764   0.067   7.455   6.106 -3.0142 -0.9463  3.3345
 1006MOL0     H32765  -0.085   7.443   6.006 -0.9775  1.0678  2.6469
 1006MOL0     H32766   0.034   7.269   6.229  0.0262 -0.3146 -0.4450
 1006MOL0     H32767  -0.079   7.199   6.119  1.1883  0.2043  0.0310
 1006MOL0     H32768  -0.232   7.376   6.157  3.0346 -1.5503 -5.3701
 1006MOL0     H32769  -0.122   7.439   6.284  1.8492 -1.9659  0.5204
 1006MOL0     H32770  -0.286   7.171   6.257  0.3678 -2.1943  2.2792
 1006MOL0     H32771  -0.167   7.175   6.377 -0.7469  0.1376 -1.0303
 1006MOL0     H32772  -0.314   7.356   6.500  4.4496 -0.4120  0.2672
 1006MOL0     H32773  -0.398   7.216   6.461 -2.9260  0.3930 -0.7633
 1006MOL0     H32774   0.351   7.290   5.617  0.0436 -1.0783  2.8880
 1006MOL0     H32775   0.564   7.226   5.485 -0.4851  0.7183 -0.1645
 1006MOL0     H32776   0.846   7.524   5.065  0.2810 -4.2951 -2.2250
 1006MOL0     H32777   1.064   7.533   4.960  1.5137  0.7248 -0.5996
 1006MOL0     H32778   2.857   6.841   5.369  1.8451  0.9211  0.2598
 1006MOL0     H32779   3.071   6.892   5.471 -0.8140  1.4011  0.9771
 1006MOL0     H32780   3.408   7.050   5.677  2.4898  1.6535 -0.1966
 1006MOL0     H32781   3.630   7.106   5.764  3.8966 -1.2249 -0.4779
 1006MOL0     H32782   3.778   7.093   5.979  4.6188  3.7506  2.0186
 1006MOL0     H32783   3.869   7.084   5.826 -2.3550  0.5663 -1.1770
 1006MOL0     H32784   3.950   6.960   6.102  1.5412 -3.3450 -0.8372
 1006MOL0     H32785   4.017   6.912   5.955  2.9671  1.3859  0.7888
 1006MOL0     H32786   3.987   7.201   6.059 -1.0735 -1.4258  1.2186
 1006MOL0     H32787   4.090   7.161   5.921  1.7584 -0.8631  0.4654
 1006MOL0     H32788   4.174   6.992   6.144  0.9734  0.5345  1.1677
 1006MOL0     H32789   4.263   7.107   6.036 -0.4434 -0.6959 -1.1142
 1006MOL0     H32790   4.233   7.321   6.386  3.0821  0.6681 -0.7031
 1006MOL0     H32791   3.661   6.695   5.876 -2.4684 -0.1900  0.1481
 1006MOL0     H32792   3.469   6.637   5.744  1.3078 -0.2437  1.5416
 1007MOL0     O32793   5.753   9.377   1.790  0.5422 -0.0467  0.3535
 1007MOL0     C32794   5.787   9.389   1.908 -0.0143 -0.3536  1.4314
 1007MOL0     O32795   5.712   9.355   2.016  0.0035 -0.5118  1.0057
 1007MOL0     C32796   5.577   9.326   2.016  1.2025  0.0205  0.2878
 1007MOL0     C32797   5.477   9.372   1.925 -0.2207 -1.1858 -0.1129
 1007MOL0     C32798   5.340   9.343   1.929  1.7770  0.5948  0.6767
 1007MOL0     C32799   5.293   9.276   2.047  1.6241 -0.6048  0.4685
 1007MOL0     O32800   5.158   9.248   2.082  0.3343 -0.1528 -0.7092
 1007MOL0     C32801   5.069   9.193   1.989  0.7360 -1.4480 -0.0104
 1007MOL0     C32802   4.927   9.177   2.047 -0.5003 -0.1918 -0.0859
 1007MOL0     C32803   4.820   9.130   1.940 -0.2821  0.4942  0.1216
 1007MOL0     C32804   4.684   9.134   2.007  0.2441 -0.0624 -0.6002
 1007MOL0     C32805   4.594   9.059   1.907  0.0997 -0.0629 -0.5056
 1007MOL0     C32806   4.455   9.038   1.968  0.6614 -0.2113  0.4629
 1007MOL0     C32807   4.376   9.164   2.002 -0.2747  0.0201 -0.5274
 1007MOL0     C32808   4.232   9.123   2.000  0.1899 -0.2201  0.4695
 1007MOL0     N32809   4.142   9.239   2.034  0.0381  0.3339  0.3129
 1007MOL0     C32810   4.094   9.267   2.162  0.6160 -0.4490 -0.1656
 1007MOL0     C32811   4.007   9.366   2.136 -0.0439 -0.8359  0.4895
 1007MOL0     C32812   3.930   9.442   2.243 -0.8412  0.0339 -0.2126
 1007MOL0     C32813   3.785   9.382   2.247 -0.2044 -0.9735 -0.0518
 1007MOL0     C32814   3.682   9.438   2.139  0.1052  0.1904 -0.3827
 1007MOL0     C32815   3.543   9.375   2.160  0.4603 -0.1411 -0.6823
 1007MOL0     O32816   3.467   9.445   2.271  0.2106  0.8561  0.6048
 1007MOL0     C32817   3.330   9.427   2.240 -0.1841  0.3417 -0.2660
 1007MOL0     C32818   3.278   9.507   2.143 -0.2830 -0.3647 -0.2586
 1007MOL0     C32819   3.141   9.520   2.114 -0.5821 -0.2108  0.1670
 1007MOL0     C32820   3.049   9.436   2.188 -0.7464 -0.3154 -0.1013
 1007MOL0     C32821   2.902   9.437   2.161 -0.0257 -0.2195  0.4517
 1007MOL0     O32822   2.810   9.413   2.264 -0.0040 -0.1409 -0.6805
 1007MOL0     C32823   2.671   9.395   2.263  0.0343 -0.5477  0.5631
 1007MOL0     C32824   2.625   9.324   2.373 -0.2813  0.2516  0.5840
 1007MOL0     C32825   2.490   9.308   2.409  0.3403 -0.5628 -0.0939
 1007MOL0     C32826   2.395   9.362   2.318 -0.4977 -0.3168 -0.9282
 1007MOL0     O32827   2.261   9.339   2.307 -0.2922 -0.4279  0.0815
 1007MOL0     C32828   2.197   9.268   2.418 -0.2329 -0.2015 -0.8610
 1007MOL0     C32829   2.046   9.260   2.406 -0.2185  0.4176 -0.0186
 1007MOL0     C32830   2.002   9.195   2.279 -0.4906  0.7323  0.4740
 1007MOL0     C32831   1.854   9.192   2.250  0.4959 -0.1190 -0.5781
 1007MOL0     C32832   1.807   9.136   2.112 -0.0862 -1.1040 -0.9792
 1007MOL0     C32833   1.720   9.238   2.041  0.2078 -0.6138  0.7684
 1007MOL0     C32834   1.657   9.174   1.917 -0.3734 -0.1819  0.6165
 1007MOL0     C32835   1.577   9.043   1.937  0.0108 -0.2691  0.0008
 1007MOL0    Cl32836   1.458   9.064   2.062 -0.3054 -0.0663 -0.1009
 1007MOL0     C32837   2.448   9.428   2.206  0.4424  0.2115  0.1309
 1007MOL0     C32838   2.579   9.447   2.173  0.0535  0.6963  0.5140
 1007MOL0     O32839   2.878   9.462   2.049  0.5481  0.2819  0.3183
 1007MOL0     C32840   3.105   9.345   2.290 -0.0970 -0.1635  0.8838
 1007MOL0     C32841   3.245   9.350   2.321 -0.2152 -0.4773  1.1799
 1007MOL0     N32842   4.004   9.396   2.000 -0.2080  0.7463  0.1971
 1007MOL0     N32843   4.073   9.306   1.942  0.6890 -0.5786  0.0442
 1007MOL0     C32844   5.387   9.247   2.145  0.2921 -0.0195 -0.2324
 1007MOL0     C32845   5.534   9.261   2.127  0.6302  0.1768 -0.3127
 1007MOL0     C32846   5.927   9.416   1.943 -0.0223 -0.0466 -0.7893
 1007MOL0     C32847   5.970   9.402   2.081 -0.2651  0.1320  0.6901
 1007MOL0     C32848   6.107   9.422   2.117 -0.6203 -0.5047  0.4252
 1007MOL0     C32849   6.203   9.458   2.026  0.2907  0.1033 -0.2349
 1007MOL0     O32850   6.329   9.478   2.085 -0.5087 -0.4682  0.1131
 1007MOL0     C32851   6.432   9.472   1.991 -0.3627  0.0896  0.1030
 1007MOL0     C32852   6.454   9.327   1.935  0.2613  0.4444  0.7441
 1007MOL0     C32853   6.559   9.318   1.827 -0.1431 -0.4508 -0.1019
 1007MOL0     C32854   6.495   9.348   1.690 -0.4369  0.0760  0.1366
 1007MOL0     C32855   6.610   9.403   1.602 -0.4784  1.0218  0.0776
 1007MOL0     C32856   6.702   9.435   1.535 -0.1951  0.4138  0.3567
 1007MOL0     C32857   6.153   9.486   1.890 -0.5065 -0.1140  0.3115
 1007MOL0     C32858   6.019   9.457   1.850  0.2884 -1.3625  0.4459
 1007MOL0     H32859   5.523   9.426   1.843  0.7830 -2.8511 -0.7073
 1007MOL0     H32860   5.269   9.373   1.852  0.4619 -4.4945 -0.4667
 1007MOL0     H32861   5.108   9.091   1.984  1.6344 -1.1806  1.0162
 1007MOL0     H32862   5.068   9.254   1.899 -1.1733  1.0748  1.5916
 1007MOL0     H32863   4.904   9.271   2.098  1.8793  0.6917 -0.4971
 1007MOL0     H32864   4.935   9.103   2.127  2.4068 -0.5875 -0.6199
 1007MOL0     H32865   4.847   9.034   1.894  0.6154  2.0671 -2.9102
 1007MOL0     H32866   4.811   9.205   1.860  4.2045 -0.5509 -1.6673
 1007MOL0     H32867   4.682   9.088   2.106  2.6392  3.1992  1.1294
 1007MOL0     H32868   4.646   9.234   2.029 -2.8651 -0.8446 -1.8452
 1007MOL0     H32869   4.625   8.962   1.867  0.2153 -0.6507  0.9435
 1007MOL0     H32870   4.591   9.122   1.818  0.7758  0.8093  0.0784
 1007MOL0     H32871   4.454   8.976   2.058 -0.2616  0.0347  0.6265
 1007MOL0     H32872   4.395   8.974   1.903 -0.3538  1.1286  0.0493
 1007MOL0     H32873   4.402   9.209   2.099 -1.3400 -0.5802  0.0564
 1007MOL0     H32874   4.403   9.246   1.935 -1.1865  0.2917 -0.5662
 1007MOL0     H32875   4.209   9.039   2.066 -3.9097 -0.0696 -0.4578
 1007MOL0     H32876   4.195   9.097   1.900 -0.7119  0.8053  0.5126
 1007MOL0     H32877   4.108   9.211   2.254  1.0059 -1.1786 -0.6647
 1007MOL0     H32878   3.928   9.549   2.225 -2.0968  0.1467  0.5533
 1007MOL0     H32879   3.980   9.433   2.340 -0.8865  3.6662  0.2748
 1007MOL0     H32880   3.743   9.415   2.343  0.5491  2.0961 -0.6636
 1007MOL0     H32881   3.786   9.273   2.252 -0.6319 -1.1036 -2.0642
 1007MOL0     H32882   3.674   9.545   2.162  1.9953  0.0702  1.1202
 1007MOL0     H32883   3.718   9.429   2.036 -1.7261 -0.6513 -1.0021
 1007MOL0     H32884   3.549   9.270   2.189 -1.5088  0.5056  2.6724
 1007MOL0     H32885   3.485   9.374   2.068  1.1432 -1.5189 -1.1202
 1007MOL0     H32886   3.350   9.579   2.109 -2.6165  3.4452  2.0783
 1007MOL0     H32887   3.105   9.594   2.043  2.4804 -1.0344 -2.4259
 1007MOL0     H32888   2.694   9.255   2.421  0.8921 -0.1286 -1.5623
 1007MOL0     H32889   2.450   9.242   2.486  2.6647  2.7162  4.4183
 1007MOL0     H32890   2.221   9.304   2.518 -2.0254  0.2111 -0.5405
 1007MOL0     H32891   2.237   9.166   2.428  0.3580 -0.1353 -2.3200
 1007MOL0     H32892   2.006   9.360   2.428 -2.6422 -0.7787  1.4322
 1007MOL0     H32893   2.010   9.192   2.484 -0.5781  1.8056  1.0669
 1007MOL0     H32894   2.042   9.094   2.277 -1.0496  0.5272 -0.7551
 1007MOL0     H32895   2.047   9.252   2.197  0.6798 -1.0144 -0.1384
 1007MOL0     H32896   1.814   9.127   2.329 -1.5240  1.9496  0.2256
 1007MOL0     H32897   1.814   9.293   2.263 -0.2367 -0.4353 -0.3033
 1007MOL0     H32898   1.757   9.045   2.144 -0.2515 -0.7614 -0.2455
 1007MOL0     H32899   1.901   9.115   2.059  0.9299  3.6064 -1.4968
 1007MOL0     H32900   1.785   9.324   2.016  0.5469 -0.5851  1.7151
 1007MOL0     H32901   1.639   9.275   2.104  1.0220 -0.7557  1.9365
 1007MOL0     H32902   1.597   9.250   1.866  1.4932 -0.1872 -1.7528
 1007MOL0     H32903   1.730   9.152   1.839 -0.0408 -0.3610  0.9723
 1007MOL0     H32904   1.630   8.950   1.962 -0.0996 -0.7486 -1.4385
 1007MOL0     H32905   1.514   9.010   1.854 -1.3108  0.7013  0.5903
 1007MOL0     H32906   2.372   9.459   2.135  1.7588  0.1290 -1.3803
 1007MOL0     H32907   2.612   9.507   2.089 -2.0094  2.2205  0.7247
 1007MOL0     H32908   3.045   9.274   2.346  1.4216 -0.9365  1.5910
 1007MOL0     H32909   3.285   9.296   2.407  0.7946  1.9494  2.3397
 1007MOL0     H32910   5.356   9.213   2.243 -0.9844  1.5832 -0.0324
 1007MOL0     H32911   5.601   9.223   2.203  0.6227 -3.1680 -1.7974
 1007MOL0     H32912   5.901   9.362   2.155  0.8715  0.2158  1.8178
 1007MOL0     H32913   6.134   9.407   2.221 -0.9674 -4.6722  0.0999
 1007MOL0     H32914   6.527   9.521   2.015  0.0032 -1.4316  2.0258
 1007MOL0     H32915   6.411   9.530   1.901  2.4414 -0.9563 -1.3599
 1007MOL0     H32916   6.483   9.251   2.007 -0.3903 -0.9462 -0.4252
 1007MOL0     H32917   6.356   9.299   1.895  0.4507  1.9799 -0.9324
 1007MOL0     H32918   6.591   9.213   1.831  0.3820 -0.2606  0.7549
 1007MOL0     H32919   6.647   9.379   1.847  1.1280 -1.7054 -1.5812
 1007MOL0     H32920   6.460   9.263   1.631  2.4764 -0.7074 -0.6452
 1007MOL0     H32921   6.408   9.414   1.694 -1.9606 -1.8044 -0.2734
 1007MOL0     H32922   6.791   9.444   1.477 -0.1453 -4.3653 -0.7483
 1007MOL0     H32923   6.218   9.518   1.809 -0.2876 -0.9783  0.1370
 1007MOL0     H32924   6.005   9.472   1.743 -0.7411  0.6269  0.8179
 1008MOL0     O32925   5.690   1.437   7.932  0.5500 -0.1997 -0.0822
 1008MOL0     C32926   5.710   1.426   8.052  0.6332  0.1450 -0.4396
 1008MOL0     O32927   5.609   1.413   8.149  0.2141  0.6110 -0.3093
 1008MOL0     C32928   5.482   1.402   8.103 -0.4516  0.3010 -0.1952
 1008MOL0     C32929   5.396   1.505   8.128 -0.1861  0.9522  0.4248
 1008MOL0     C32930   5.260   1.494   8.084  1.0252  0.1560  0.3255
 1008MOL0     C32931   5.206   1.382   8.014 -0.2328 -0.6597  0.8445
 1008MOL0     O32932   5.073   1.370   7.974 -0.1332  0.1653 -0.0800
 1008MOL0     C32933   4.989   1.472   8.011  1.0153  0.2113  0.3892
 1008MOL0     C32934   4.848   1.424   7.968  1.3223  1.3640  0.4397
 1008MOL0     C32935   4.815   1.284   8.041  0.0932  0.3629  0.1186
 1008MOL0     C32936   4.688   1.274   8.119  1.2192  0.0780  0.3144
 1008MOL0     C32937   4.555   1.292   8.039  0.6740  0.5514  0.5653
 1008MOL0     C32938   4.509   1.179   7.958  0.2926 -0.5552  0.4335
 1008MOL0     C32939   4.366   1.221   7.897  0.1351  0.8177  0.6407
 1008MOL0     C32940   4.302   1.102   7.830 -0.3028  0.1972  0.4607
 1008MOL0     N32941   4.305   0.981   7.925  0.1568  0.2173 -0.2775
 1008MOL0     C32942   4.230   0.953   8.041  0.3322  0.3297  0.5974
 1008MOL0     C32943   4.260   0.828   8.089 -0.9614  0.3907  0.4953
 1008MOL0     C32944   4.188   0.758   8.199  0.0545 -0.0437 -0.0891
 1008MOL0     C32945   4.063   0.693   8.142  0.3183 -0.2133  0.3424
 1008MOL0     C32946   4.097   0.581   8.041 -0.2546 -0.6529  0.4898
 1008MOL0     C32947   3.976   0.507   7.991  0.4388 -0.1813  0.0564
 1008MOL0     O32948   3.919   0.449   8.100  0.8402 -0.4036  1.1421
 1008MOL0     C32949   3.808   0.374   8.080  2.0239  0.7646  0.5253
 1008MOL0     C32950   3.755   0.325   7.964  0.3114  0.2062 -0.2457
 1008MOL0     C32951   3.648   0.228   7.969 -0.3658 -0.6890 -0.1959
 1008MOL0     C32952   3.588   0.194   8.090  0.1666  1.2190  0.6203
 1008MOL0     C32953   3.480   0.080   8.103  0.2521  0.7814 -0.3730
 1008MOL0     O32954   3.428   0.064   8.223  0.3142  0.1852 -0.8715
 1008MOL0     C32955   3.337  -0.033   8.252  0.5246  0.0525 -0.9817
 1008MOL0     C32956   3.317  -0.162   8.193 -0.0323 -0.0595 -1.0336
 1008MOL0     C32957   3.197  -0.224   8.220 -0.5010 -0.2130  0.2913
 1008MOL0     C32958   3.109  -0.183   8.311  0.1649 -0.4315  0.1955
 1008MOL0     O32959   2.993  -0.242   8.337 -0.6813 -0.2571 -0.2353
 1008MOL0     C32960   2.894  -0.188   8.242 -0.9327  0.9114 -0.1551
 1008MOL0     C32961   2.789  -0.106   8.307  0.6022  0.4413 -0.2610
 1008MOL0     C32962   2.680  -0.197   8.375  0.3018 -0.1393 -0.1955
 1008MOL0     C32963   2.596  -0.101   8.464 -0.0624 -0.5485 -0.4830
 1008MOL0     C32964   2.469  -0.171   8.518 -0.6464 -0.1924 -0.0528
 1008MOL0     C32965   2.375  -0.227   8.412 -0.3827 -0.0411 -0.7793
 1008MOL0     C32966   2.249  -0.298   8.472 -0.6107  0.2392  0.7156
 1008MOL0     C32967   2.154  -0.197   8.529 -0.9575  0.3534  0.6991
 1008MOL0    Cl32968   2.097  -0.095   8.395  0.1347 -0.0933  0.1245
 1008MOL0     C32969   3.142  -0.073   8.392  0.6181  0.0207  0.0196
 1008MOL0     C32970   3.252  -0.004   8.353 -0.1089 -0.6933 -0.1153
 1008MOL0     O32971   3.447   0.012   8.003  0.3793 -0.4309 -0.2921
 1008MOL0     C32972   3.645   0.247   8.208 -0.7896 -0.4977  0.1051
 1008MOL0     C32973   3.756   0.333   8.197  0.2446  0.3379  0.4393
 1008MOL0     N32974   4.359   0.783   8.005  0.0832 -0.2353 -0.6276
 1008MOL0     N32975   4.390   0.876   7.915 -0.1571  0.3880  0.3321
 1008MOL0     C32976   5.294   1.283   8.007 -1.3296  0.9661  1.1321
 1008MOL0     C32977   5.427   1.280   8.045 -0.7478 -0.0039  0.7810
 1008MOL0     C32978   5.852   1.439   8.095  0.4951 -0.2017 -0.5693
 1008MOL0     C32979   5.880   1.473   8.227 -0.0579 -0.6168  0.3553
 1008MOL0     C32980   6.007   1.483   8.279 -0.3018 -0.1249 -0.1183
 1008MOL0     C32981   6.122   1.460   8.190 -0.2055  0.3653 -0.0616
 1008MOL0     O32982   6.252   1.483   8.226  0.0443 -0.1938  0.1130
 1008MOL0     C32983   6.278   1.461   8.363 -0.2982 -0.8041  0.3283
 1008MOL0     C32984   6.423   1.412   8.375 -0.2869 -0.3817  0.1174
 1008MOL0     C32985   6.520   1.515   8.320  0.6486 -0.1798  0.3156
 1008MOL0     C32986   6.660   1.468   8.336  0.0575 -0.3085  0.9928
 1008MOL0     C32987   6.748   1.576   8.284 -0.0641 -0.2762 -0.5403
 1008MOL0     C32988   6.836   1.640   8.239  0.0456  0.2794  0.4761
 1008MOL0     C32989   6.099   1.421   8.061  0.1078  0.7791  1.1027
 1008MOL0     C32990   5.962   1.412   8.006  0.0436  0.3373  0.0611
 1008MOL0     H32991   5.435   1.583   8.192 -0.8527  1.4975  0.1730
 1008MOL0     H32992   5.208   1.588   8.102  1.3743 -0.1958  3.8585
 1008MOL0     H32993   5.018   1.558   7.950 -1.8118  0.5168 -0.6688
 1008MOL0     H32994   4.987   1.497   8.117  0.3593  1.5174  0.0917
 1008MOL0     H32995   4.844   1.414   7.859  1.5276  1.1603  0.4492
 1008MOL0     H32996   4.764   1.494   7.970 -0.2975 -0.3847 -1.1887
 1008MOL0     H32997   4.891   1.259   8.115  0.5386 -0.5777 -0.6355
 1008MOL0     H32998   4.816   1.195   7.978 -0.6351  0.5262 -0.1356
 1008MOL0     H32999   4.682   1.181   8.177  0.5788  0.6546  1.2118
 1008MOL0     H33000   4.708   1.337   8.206  3.8487  0.4145 -0.4595
 1008MOL0     H33001   4.556   1.388   7.987 -0.1750  1.1001  1.5007
 1008MOL0     H33002   4.468   1.297   8.106  0.6359  0.8316  0.4963
 1008MOL0     H33003   4.516   1.085   8.013 -2.0895 -0.9812  0.1460
 1008MOL0     H33004   4.568   1.169   7.867 -0.8177  1.1243 -0.5374
 1008MOL0     H33005   4.294   1.263   7.969 -2.4365 -0.1781 -1.1732
 1008MOL0     H33006   4.381   1.297   7.820 -1.6186  0.6753  0.1025
 1008MOL0     H33007   4.372   1.074   7.751  1.8343  1.8021  1.6744
 1008MOL0     H33008   4.208   1.120   7.777  1.0753  1.1786 -1.8245
 1008MOL0     H33009   4.159   1.017   8.092  0.0859  1.2132 -0.8069
 1008MOL0     H33010   4.165   0.832   8.276  0.5730 -0.3101  0.3325
 1008MOL0     H33011   4.255   0.683   8.244 -1.7748 -1.4455  0.4136
 1008MOL0     H33012   4.000   0.768   8.094  0.5325  1.3705  2.4022
 1008MOL0     H33013   4.002   0.647   8.221  2.5855 -0.8272  1.8210
 1008MOL0     H33014   4.148   0.620   7.953  0.3068 -0.4041  0.9258
 1008MOL0     H33015   4.165   0.514   8.095  0.4616 -1.0691 -0.8693
 1008MOL0     H33016   4.013   0.439   7.914  2.1206  0.9055 -0.1504
 1008MOL0     H33017   3.912   0.576   7.935  0.6205 -0.5064 -0.5545
 1008MOL0     H33018   3.801   0.351   7.870 -0.4945 -1.4688 -1.1527
 1008MOL0     H33019   3.596   0.199   7.879 -3.2998  2.0421  0.4322
 1008MOL0     H33020   3.385  -0.208   8.121 -0.6443 -0.6923 -1.2231
 1008MOL0     H33021   3.167  -0.318   8.176 -0.0263  0.1992 -0.9412
 1008MOL0     H33022   2.839  -0.263   8.185 -2.2392  2.3426 -0.8782
 1008MOL0     H33023   2.935  -0.127   8.161 -3.5209 -0.0625 -2.3374
 1008MOL0     H33024   2.743  -0.037   8.236  1.7349  0.8166 -0.6491
 1008MOL0     H33025   2.845  -0.050   8.383  0.2128 -0.1664  0.4975
 1008MOL0     H33026   2.727  -0.281   8.428  1.9807 -0.0181 -1.4221
 1008MOL0     H33027   2.612  -0.240   8.301  0.4696  0.9226 -0.9775
 1008MOL0     H33028   2.658  -0.081   8.552 -3.1233  0.2322  1.6777
 1008MOL0     H33029   2.571  -0.011   8.407  3.8343  1.4743  0.6627
 1008MOL0     H33030   2.401  -0.097   8.562 -2.2435 -0.5714 -1.7851
 1008MOL0     H33031   2.509  -0.244   8.589 -1.4111 -0.8792 -0.3218
 1008MOL0     H33032   2.431  -0.308   8.364  0.5937  1.3259 -2.0639
 1008MOL0     H33033   2.353  -0.153   8.333 -1.7479 -1.5922 -1.9283
 1008MOL0     H33034   2.194  -0.347   8.391  1.5308  3.5500 -3.1021
 1008MOL0     H33035   2.277  -0.378   8.542  0.2720 -0.3306 -0.2558
 1008MOL0     H33036   2.184  -0.132   8.611 -0.1745 -0.2385  0.8944
 1008MOL0     H33037   2.075  -0.265   8.562 -2.7193  1.8151 -0.3266
 1008MOL0     H33038   3.086  -0.045   8.480  2.9917  0.6492  1.4316
 1008MOL0     H33039   3.271   0.081   8.419 -2.1347 -1.8661  2.1614
 1008MOL0     H33040   3.617   0.216   8.308 -1.2502 -3.1584 -0.7552
 1008MOL0     H33041   3.804   0.380   8.283 -0.0979 -0.6537  1.2030
 1008MOL0     H33042   5.256   1.191   7.963  1.3851  0.5598 -0.5527
 1008MOL0     H33043   5.480   1.187   8.031 -1.9112 -0.3711 -1.7054
 1008MOL0     H33044   5.801   1.486   8.300  0.9868 -4.4041  2.4331
 1008MOL0     H33045   6.015   1.513   8.382 -1.4305 -2.1451  0.6222
 1008MOL0     H33046   6.209   1.392   8.412  1.0819 -1.5668  1.2527
 1008MOL0     H33047   6.278   1.558   8.414  2.5573  0.2340 -1.3878
 1008MOL0     H33048   6.442   1.402   8.483 -1.3036  0.6397  0.4114
 1008MOL0     H33049   6.441   1.314   8.330  0.5931 -1.3481  2.4245
 1008MOL0     H33050   6.506   1.609   8.375 -0.4474 -0.4543  0.5281
 1008MOL0     H33051   6.502   1.532   8.213 -0.9122  0.1534  0.6086
 1008MOL0     H33052   6.688   1.453   8.441  2.4850 -4.4177  0.0150
 1008MOL0     H33053   6.682   1.376   8.281  1.0481  0.3707  0.1953
 1008MOL0     H33054   6.915   1.694   8.191  0.4983  0.0436  0.9402
 1008MOL0     H33055   6.181   1.406   7.991  0.6071  0.4368  1.7542
 1008MOL0     H33056   5.941   1.381   7.904  0.0750  1.1947 -0.2208
 1009MOL0     O33057  11.296   3.279   3.791  0.7090  0.2723 -0.0476
 1009MOL0     C33058  11.387   3.205   3.824  0.3319 -1.2136  0.1967
 1009MOL0     O33059  11.386   3.069   3.811 -0.2183  0.8422 -0.7727
 1009MOL0     C33060  11.264   3.000   3.822  0.3187 -0.2589  0.0159
 1009MOL0     C33061  11.264   2.873   3.875 -1.0664  0.1144 -0.9653
 1009MOL0     C33062  11.155   2.792   3.899 -0.1966  0.3415 -0.3925
 1009MOL0     C33063  11.033   2.835   3.859 -0.1471 -1.3105  0.3953
 1009MOL0     O33064  10.924   2.756   3.885  0.8445 -0.0811  0.0418
 1009MOL0     C33065  10.825   2.738   3.782  0.4280 -0.4870 -0.6194
 1009MOL0     C33066  10.829   2.597   3.729  0.3894  1.3599  0.7886
 1009MOL0     C33067  10.700   2.563   3.642 -0.1363  0.3105 -0.7898
 1009MOL0     C33068  10.666   2.662   3.521 -0.4150 -0.9901  0.1695
 1009MOL0     C33069  10.552   2.618   3.433  0.9238 -0.1329  0.1696
 1009MOL0     C33070  10.417   2.619   3.515  0.5742  0.0480 -0.7525
 1009MOL0     C33071  10.288   2.591   3.450 -0.9584 -0.7880  0.0544
 1009MOL0     C33072  10.283   2.448   3.405 -0.7528 -0.0304 -0.5851
 1009MOL0     N33073  10.160   2.373   3.439 -0.8183  0.1618 -0.0763
 1009MOL0     C33074  10.101   2.371   3.566 -0.2372 -0.2777 -0.2758
 1009MOL0     C33075  10.002   2.275   3.540 -0.5547 -0.3529 -0.7539
 1009MOL0     C33076   9.933   2.211   3.654 -0.0491 -0.6128  0.8022
 1009MOL0     C33077   9.791   2.169   3.611 -0.3232  0.2118  0.2641
 1009MOL0     C33078   9.705   2.167   3.739 -1.1248  0.3785  0.7155
 1009MOL0     C33079   9.560   2.141   3.719 -0.1200  0.1387 -0.0123
 1009MOL0     O33080   9.503   2.160   3.850  0.2551 -0.2254  0.0945
 1009MOL0     C33081   9.373   2.118   3.867 -1.2839 -0.4144 -0.5248
 1009MOL0     C33082   9.273   2.164   3.787  0.5717 -0.4488 -1.3165
 1009MOL0     C33083   9.142   2.115   3.816 -0.9077  0.0496  0.5937
 1009MOL0     C33084   9.113   2.028   3.919 -0.3738  0.7305 -0.6690
 1009MOL0     C33085   8.972   1.987   3.949  0.2883 -0.7599 -0.3302
 1009MOL0     O33086   8.973   1.883   4.033  1.0576  0.2649 -0.1290
 1009MOL0     C33087   8.852   1.856   4.106  0.3959 -0.3312 -0.1799
 1009MOL0     C33088   8.856   1.851   4.246  0.3592  0.2743  0.3324
 1009MOL0     C33089   8.738   1.815   4.317 -0.8299 -1.1165  0.0034
 1009MOL0     C33090   8.620   1.788   4.251  0.2941  0.3521  0.6449
 1009MOL0     O33091   8.516   1.757   4.326  0.7034  0.2507  0.0486
 1009MOL0     C33092   8.388   1.736   4.261 -1.2217 -0.1789  0.6444
 1009MOL0     C33093   8.268   1.705   4.361  0.0365  0.3938 -0.4098
 1009MOL0     C33094   8.267   1.572   4.439 -0.6716  0.0743 -0.1892
 1009MOL0     C33095   8.143   1.547   4.512 -0.5856  0.3763 -0.4623
 1009MOL0     C33096   8.096   1.653   4.614 -0.1907 -0.1585 -0.3418
 1009MOL0     C33097   8.002   1.598   4.712 -0.1288 -0.3199  0.1011
 1009MOL0     C33098   7.984   1.679   4.837 -0.1220  0.3251 -0.1896
 1009MOL0     C33099   7.865   1.642   4.924 -0.4256 -0.1317  0.3485
 1009MOL0    Cl33100   7.718   1.704   4.848 -0.0227 -0.4480 -0.0407
 1009MOL0     C33101   8.622   1.777   4.111 -0.0028  0.2274  0.0459
 1009MOL0     C33102   8.738   1.813   4.040 -0.3512  0.0316  1.1987
 1009MOL0     O33103   8.872   2.043   3.905 -0.2836  0.2159 -0.0421
 1009MOL0     C33104   9.226   1.978   3.998 -0.2066 -0.1167 -0.7293
 1009MOL0     C33105   9.350   2.029   3.972  0.9802  0.0916  0.8703
 1009MOL0     N33106   9.998   2.236   3.412 -0.3904 -0.2668  1.4197
 1009MOL0     N33107  10.089   2.299   3.350 -0.7621 -0.4970 -0.3150
 1009MOL0     C33108  11.024   2.963   3.796  0.3870  0.3283 -0.2286
 1009MOL0     C33109  11.141   3.044   3.772 -0.0805  0.7109 -1.4986
 1009MOL0     C33110  11.508   3.273   3.872  0.2103 -0.4959 -0.1403
 1009MOL0     C33111  11.524   3.404   3.830  1.3980 -0.3070  0.5202
 1009MOL0     C33112  11.636   3.480   3.858 -0.5982 -0.5296 -0.3718
 1009MOL0     C33113  11.738   3.418   3.933  0.2056  0.4581  0.8611
 1009MOL0     O33114  11.850   3.495   3.968  0.8416  0.2755  0.3688
 1009MOL0     C33115  11.956   3.445   4.050  0.8133  0.2813 -0.3921
 1009MOL0     C33116  12.016   3.572   4.115  0.4605 -0.3830 -0.2695
 1009MOL0     C33117  12.138   3.537   4.207 -0.4228  0.3784 -0.0582
 1009MOL0     C33118  12.121   3.528   4.358 -0.0299  1.3635  0.0158
 1009MOL0     C33119  12.086   3.648   4.438  0.8638 -0.0423  0.8223
 1009MOL0     C33120  12.074   3.752   4.496 -0.2080 -0.9521 -0.3472
 1009MOL0     C33121  11.724   3.287   3.979 -0.3592  0.1010  0.5012
 1009MOL0     C33122  11.606   3.218   3.947  0.1236  1.0008 -0.0858
 1009MOL0     H33123  11.362   2.843   3.909 -1.0420 -0.3329 -1.4127
 1009MOL0     H33124  11.157   2.707   3.967  0.9181 -0.3742 -1.2840
 1009MOL0     H33125  10.825   2.813   3.703 -4.1642 -0.1659 -0.5567
 1009MOL0     H33126  10.724   2.736   3.824  0.1568 -0.3268 -1.2529
 1009MOL0     H33127  10.835   2.527   3.813  0.0873  1.8658  1.2361
 1009MOL0     H33128  10.918   2.578   3.668 -1.6147  0.6163 -2.0297
 1009MOL0     H33129  10.608   2.551   3.699  0.7577 -1.9029  0.3367
 1009MOL0     H33130  10.720   2.460   3.611 -0.5598 -0.0661  0.1388
 1009MOL0     H33131  10.650   2.767   3.549 -2.5364 -0.4260 -2.6877
 1009MOL0     H33132  10.754   2.663   3.456  0.9498 -2.1789  1.8908
 1009MOL0     H33133  10.568   2.518   3.393  1.7750 -1.2115  2.9467
 1009MOL0     H33134  10.550   2.681   3.344  1.3568  1.3106  1.1516
 1009MOL0     H33135  10.404   2.722   3.549 -0.2456 -0.7130  1.4927
 1009MOL0     H33136  10.407   2.551   3.601 -4.0206 -1.7531 -2.3911
 1009MOL0     H33137  10.208   2.609   3.523 -0.2455 -0.8071  0.8519
 1009MOL0     H33138  10.273   2.661   3.367  1.5682 -1.4945 -1.1049
 1009MOL0     H33139  10.370   2.397   3.448 -0.1866 -1.1307 -2.8522
 1009MOL0     H33140  10.281   2.448   3.295 -2.0364 -0.7096 -0.5784
 1009MOL0     H33141  10.135   2.417   3.658 -0.5279 -2.5775  1.0620
 1009MOL0     H33142   9.933   2.293   3.727  0.6944  0.1175  0.0102
 1009MOL0     H33143   9.984   2.126   3.701 -1.9251 -1.8558  0.7008
 1009MOL0     H33144   9.797   2.069   3.569 -0.9751  0.9335 -1.6546
 1009MOL0     H33145   9.754   2.237   3.534 -1.7022 -2.0654 -1.1893
 1009MOL0     H33146   9.737   2.086   3.805 -0.0239 -0.8913 -1.2757
 1009MOL0     H33147   9.720   2.265   3.784 -1.0110  0.7025 -0.0208
 1009MOL0     H33148   9.527   2.048   3.672 -2.9042  0.7842  0.4995
 1009MOL0     H33149   9.518   2.221   3.657 -2.5175 -0.3962  0.8394
 1009MOL0     H33150   9.279   2.231   3.702 -0.1847  2.3120  0.6694
 1009MOL0     H33151   9.063   2.163   3.760 -0.4947 -0.5167 -0.5095
 1009MOL0     H33152   8.952   1.862   4.296  1.4283 -0.5592 -1.4396
 1009MOL0     H33153   8.739   1.825   4.425  2.3235  2.0001 -0.1086
 1009MOL0     H33154   8.398   1.653   4.192  3.4482  0.0817  0.7074
 1009MOL0     H33155   8.361   1.823   4.199  0.7423  0.6611  0.8955
 1009MOL0     H33156   8.174   1.712   4.306  0.7529  0.3533 -1.6795
 1009MOL0     H33157   8.267   1.779   4.442  0.2231  0.8728 -0.8314
 1009MOL0     H33158   8.349   1.570   4.511  1.4034  0.9156 -2.4082
 1009MOL0     H33159   8.290   1.488   4.372  1.6833  1.0578 -0.7114
 1009MOL0     H33160   8.063   1.542   4.438  1.3310 -2.1551 -2.5371
 1009MOL0     H33161   8.161   1.448   4.556  0.6984  0.6069 -0.4337
 1009MOL0     H33162   8.065   1.748   4.571  0.4898  0.9444  1.5222
 1009MOL0     H33163   8.178   1.685   4.678 -0.5392  0.1701 -0.0591
 1009MOL0     H33164   8.027   1.494   4.734  0.2840 -0.1652  0.3760
 1009MOL0     H33165   7.902   1.604   4.669  0.2676 -0.1379 -0.8195
 1009MOL0     H33166   8.074   1.651   4.894  0.0704 -0.3736 -0.8251
 1009MOL0     H33167   7.976   1.786   4.813  0.6576  0.2151 -1.0110
 1009MOL0     H33168   7.879   1.681   5.025  2.0940 -2.5248  1.0513
 1009MOL0     H33169   7.861   1.533   4.931  3.1769 -0.4046  0.2217
 1009MOL0     H33170   8.536   1.749   4.050  1.6620  0.3077 -2.4680
 1009MOL0     H33171   8.745   1.817   3.932 -0.5169  0.1105  1.1898
 1009MOL0     H33172   9.219   1.906   4.078  4.0832  0.0347 -0.0076
 1009MOL0     H33173   9.432   1.988   4.030 -1.2683 -2.2955  2.5373
 1009MOL0     H33174  10.927   3.002   3.766  0.6299 -0.0379 -1.5433
 1009MOL0     H33175  11.126   3.134   3.713 -1.9972  2.4077  1.2978
 1009MOL0     H33176  11.453   3.445   3.759  1.7872  0.5076  0.5957
 1009MOL0     H33177  11.644   3.584   3.829 -0.3120 -0.1123  1.1339
 1009MOL0     H33178  12.025   3.385   3.991 -0.7717 -1.8954 -0.1641
 1009MOL0     H33179  11.906   3.400   4.137 -0.3044  0.3295 -0.9815
 1009MOL0     H33180  12.047   3.646   4.040  0.2333 -1.9905 -2.0300
 1009MOL0     H33181  11.935   3.624   4.168 -1.3808 -2.3055 -1.0276
 1009MOL0     H33182  12.216   3.613   4.196 -0.1514  0.1274  0.1173
 1009MOL0     H33183  12.171   3.437   4.177  2.8341  1.7653 -1.6035
 1009MOL0     H33184  12.049   3.453   4.391  1.0052 -0.0107 -0.7503
 1009MOL0     H33185  12.221   3.501   4.393 -1.2999  0.4118  3.2040
 1009MOL0     H33186  12.084   3.849   4.540 -1.3567  0.2037 -2.4901
 1009MOL0     H33187  11.798   3.239   4.042  2.0376  2.6746 -0.1531
 1009MOL0     H33188  11.594   3.116   3.982  0.7900  1.0442  0.2689
 1010MOL0     O33189   9.054   3.425   5.973 -0.4059 -0.2839  0.2282
 1010MOL0     C33190   9.060   3.509   6.064  0.6168 -0.0286 -0.4692
 1010MOL0     O33191   8.949   3.581   6.108  0.1293  0.2278 -0.0553
 1010MOL0     C33192   8.828   3.528   6.066 -0.2700  0.2369 -0.9084
 1010MOL0     C33193   8.733   3.606   6.010 -0.0779  0.1133 -0.1735
 1010MOL0     C33194   8.620   3.548   5.946 -0.6271 -0.0725  0.6319
 1010MOL0     C33195   8.590   3.411   5.965  0.0406 -0.2469  0.1806
 1010MOL0     O33196   8.488   3.358   5.890 -0.3470  0.5598 -0.2066
 1010MOL0     C33197   8.360   3.426   5.880 -0.0774  0.3094  0.0486
 1010MOL0     C33198   8.254   3.362   5.792 -0.2790 -0.4247 -0.5409
 1010MOL0     C33199   8.125   3.441   5.786  0.8769  1.1182 -0.0154
 1010MOL0     C33200   8.008   3.364   5.716 -0.8502  0.0562 -1.1353
 1010MOL0     C33201   7.872   3.431   5.732 -0.6259  0.5781 -0.3404
 1010MOL0     C33202   7.749   3.363   5.664  0.0495  0.0907  0.0134
 1010MOL0     C33203   7.631   3.461   5.651 -0.0709 -0.7705  0.0519
 1010MOL0     C33204   7.512   3.396   5.596 -0.0612  0.1002  0.0750
 1010MOL0     N33205   7.408   3.481   5.538  0.6787  0.3498 -1.1167
 1010MOL0     C33206   7.316   3.555   5.603  0.5441 -0.3983  0.3026
 1010MOL0     C33207   7.234   3.606   5.507 -0.8249 -0.0220  0.2556
 1010MOL0     C33208   7.125   3.706   5.525  0.5951  0.0049  0.1949
 1010MOL0     C33209   6.989   3.643   5.482  0.5454  0.2510  0.1867
 1010MOL0     C33210   6.877   3.738   5.482  0.6822  0.2516 -0.7077
 1010MOL0     C33211   6.755   3.673   5.428  0.0501 -0.1732  0.5694
 1010MOL0     O33212   6.661   3.775   5.413  0.2006  0.3292  0.6750
 1010MOL0     C33213   6.537   3.727   5.382 -0.4404  0.5941 -0.3840
 1010MOL0     C33214   6.435   3.810   5.417  0.5022  0.4346  0.2826
 1010MOL0     C33215   6.296   3.773   5.388 -0.7900  0.1166  0.0998
 1010MOL0     C33216   6.258   3.664   5.315  0.2945  0.2440  0.5460
 1010MOL0     C33217   6.123   3.635   5.269 -0.2700  0.0551  1.0785
 1010MOL0     O33218   6.022   3.719   5.319  0.6713  0.2865  0.5037
 1010MOL0     C33219   5.889   3.691   5.310  0.9115 -0.2448  0.2245
 1010MOL0     C33220   5.834   3.560   5.286  0.1442 -0.2178  0.5261
 1010MOL0     C33221   5.693   3.554   5.249 -0.6259 -0.1106  0.4465
 1010MOL0     C33222   5.614   3.675   5.259 -0.4420 -0.0177  0.3359
 1010MOL0     O33223   5.481   3.703   5.227  0.1001  0.0208  0.4627
 1010MOL0     C33224   5.437   3.630   5.115 -0.1728 -0.4907  0.7865
 1010MOL0     C33225   5.296   3.663   5.070 -0.0122 -0.4617 -0.2267
 1010MOL0     C33226   5.180   3.636   5.164 -0.4287  0.5342  0.6401
 1010MOL0     C33227   5.036   3.689   5.112  0.2100 -0.0172 -0.5470
 1010MOL0     C33228   4.914   3.634   5.203  0.4061  0.6235  0.0372
 1010MOL0     C33229   4.782   3.629   5.141 -0.8578  0.1238 -0.3602
 1010MOL0     C33230   4.750   3.764   5.079 -0.5383 -0.8808 -0.0186
 1010MOL0     C33231   4.612   3.750   5.017  1.1378 -0.0154 -0.3088
 1010MOL0    Cl33232   4.495   3.734   5.159  0.1556  0.6734  0.3598
 1010MOL0     C33233   5.676   3.794   5.301 -0.5070 -0.7715  0.1714
 1010MOL0     C33234   5.817   3.802   5.332  0.5503  1.4092  0.3744
 1010MOL0     O33235   6.107   3.539   5.193 -0.2929 -0.1526  0.1839
 1010MOL0     C33236   6.364   3.571   5.285 -0.6652  0.4630 -1.1733
 1010MOL0     C33237   6.500   3.599   5.329 -0.4025  0.1911  0.5096
 1010MOL0     N33238   7.267   3.551   5.387 -0.0129  0.0592  0.4329
 1010MOL0     N33239   7.376   3.479   5.404 -0.6910  0.5132  0.0748
 1010MOL0     C33240   8.670   3.324   6.033 -0.9617 -1.4849 -0.4229
 1010MOL0     C33241   8.793   3.386   6.087 -0.0368 -0.7069  0.6074
 1010MOL0     C33242   9.193   3.547   6.119 -0.0532  0.4990 -0.2677
 1010MOL0     C33243   9.306   3.509   6.044  0.0545  0.5307 -0.2219
 1010MOL0     C33244   9.428   3.548   6.094  0.8002  0.0515  1.2210
 1010MOL0     C33245   9.441   3.627   6.215  0.3711 -0.4861  0.4990
 1010MOL0     O33246   9.560   3.686   6.263 -0.0701 -0.0790  0.0239
 1010MOL0     C33247   9.692   3.621   6.229  1.0995  0.7628 -0.4799
 1010MOL0     C33248   9.776   3.729   6.164  0.2416 -0.6590 -0.0189
 1010MOL0     C33249   9.922   3.684   6.145  0.1348  0.0178 -0.2439
 1010MOL0     C33250   9.992   3.714   6.281  0.3502  0.2023 -0.1095
 1010MOL0     C33251  10.135   3.691   6.259 -1.1133  0.8737  0.8378
 1010MOL0     C33252  10.258   3.684   6.246  0.1338  0.3155  0.6492
 1010MOL0     C33253   9.328   3.666   6.287 -0.0132  0.6638  0.4630
 1010MOL0     C33254   9.207   3.613   6.241  0.2598  0.2306 -0.4654
 1010MOL0     H33255   8.753   3.713   6.016  1.5999 -0.2275  1.5078
 1010MOL0     H33256   8.551   3.615   5.896  0.7512  1.3037  0.5174
 1010MOL0     H33257   8.375   3.519   5.825  1.3242 -0.3501 -0.7278
 1010MOL0     H33258   8.326   3.429   5.984  2.1486 -0.5079  0.8574
 1010MOL0     H33259   8.233   3.266   5.839  0.4293  0.0911  0.8808
 1010MOL0     H33260   8.287   3.353   5.688 -0.2758  0.4827 -0.6266
 1010MOL0     H33261   8.148   3.530   5.727  1.5693  1.6287  1.0083
 1010MOL0     H33262   8.085   3.482   5.880 -0.8198  0.8556 -0.5870
 1010MOL0     H33263   8.031   3.349   5.610 -0.5315 -1.7400 -0.8377
 1010MOL0     H33264   7.996   3.265   5.760 -1.1422  0.4029 -0.4163
 1010MOL0     H33265   7.889   3.525   5.678  0.2967  0.1816 -0.7486
 1010MOL0     H33266   7.856   3.451   5.838  2.3429  1.5504  0.0049
 1010MOL0     H33267   7.716   3.275   5.719 -0.4369  0.6381  0.6172
 1010MOL0     H33268   7.783   3.324   5.568 -0.4222 -3.3585  1.1312
 1010MOL0     H33269   7.609   3.489   5.754  3.2569 -2.3885  1.3499
 1010MOL0     H33270   7.661   3.540   5.582 -1.4894 -0.5965 -0.4117
 1010MOL0     H33271   7.465   3.333   5.672 -0.3950 -0.0376 -0.2417
 1010MOL0     H33272   7.553   3.325   5.524 -0.6706 -1.9839  1.6913
 1010MOL0     H33273   7.314   3.576   5.709  0.4863  0.3937  0.1494
 1010MOL0     H33274   7.141   3.800   5.471 -1.4977 -0.2196 -0.9141
 1010MOL0     H33275   7.124   3.729   5.631  0.9558  1.4905 -0.1072
 1010MOL0     H33276   6.966   3.554   5.540 -0.2485 -1.5543 -2.6703
 1010MOL0     H33277   7.006   3.599   5.383 -0.6993 -0.5578  0.3172
 1010MOL0     H33278   6.856   3.774   5.582 -0.9060  0.8796 -1.2387
 1010MOL0     H33279   6.888   3.822   5.414 -0.3097 -0.9483 -2.4519
 1010MOL0     H33280   6.718   3.589   5.487 -1.2382  0.5277  0.7818
 1010MOL0     H33281   6.783   3.630   5.331 -0.9326  1.4198 -0.4626
 1010MOL0     H33282   6.443   3.906   5.468  0.8826  0.0151  1.0183
 1010MOL0     H33283   6.220   3.843   5.421 -2.7389 -1.7361 -0.2762
 1010MOL0     H33284   5.893   3.469   5.280  0.1249 -0.3518  2.0900
 1010MOL0     H33285   5.653   3.458   5.217  2.2424 -1.0170 -0.7653
 1010MOL0     H33286   5.431   3.522   5.133  0.2865 -0.1050  3.7135
 1010MOL0     H33287   5.505   3.654   5.032  0.1160  0.9786  1.4129
 1010MOL0     H33288   5.272   3.605   4.980 -0.2903 -2.6552  1.1918
 1010MOL0     H33289   5.298   3.771   5.049 -1.3717 -0.2456  0.5730
 1010MOL0     H33290   5.202   3.672   5.266 -1.1122  0.0191  0.9762
 1010MOL0     H33291   5.171   3.528   5.177  3.0658  0.3639  3.2180
 1010MOL0     H33292   5.031   3.798   5.119 -1.5753 -0.0789 -0.4280
 1010MOL0     H33293   5.007   3.656   5.012 -3.9878  0.1863  0.3994
 1010MOL0     H33294   4.917   3.709   5.282 -0.4181  0.0038  0.6673
 1010MOL0     H33295   4.942   3.532   5.231 -0.2907 -0.6106 -3.2690
 1010MOL0     H33296   4.698   3.611   5.208 -1.7900  2.2499 -0.8715
 1010MOL0     H33297   4.781   3.552   5.063 -2.4028  3.6739 -4.2450
 1010MOL0     H33298   4.756   3.843   5.154  1.5787 -2.1266  1.2393
 1010MOL0     H33299   4.821   3.784   4.998 -1.8894 -0.7415 -1.2082
 1010MOL0     H33300   4.605   3.654   4.966 -2.6113 -1.2615  2.1639
 1010MOL0     H33301   4.596   3.828   4.941  2.1747  0.6593  0.1396
 1010MOL0     H33302   5.621   3.886   5.321  0.1281 -0.7850  2.2630
 1010MOL0     H33303   5.852   3.900   5.363  0.1889  1.0006  2.1356
 1010MOL0     H33304   6.355   3.479   5.228  2.8720  0.4147 -1.8438
 1010MOL0     H33305   6.580   3.531   5.302 -1.7380 -2.1366  2.0455
 1010MOL0     H33306   8.644   3.219   6.034 -1.2579 -1.4429  1.6516
 1010MOL0     H33307   8.870   3.325   6.134  0.3217 -2.4979 -2.0526
 1010MOL0     H33308   9.296   3.467   5.945  0.0143  1.4781 -0.6304
 1010MOL0     H33309   9.518   3.515   6.043  0.6046  0.0864  0.8457
 1010MOL0     H33310   9.682   3.536   6.160 -3.1822  1.9852 -1.6276
 1010MOL0     H33311   9.741   3.587   6.321 -0.8974 -3.7951 -0.8177
 1010MOL0     H33312   9.744   3.757   6.063 -1.5534 -1.8432  0.1758
 1010MOL0     H33313   9.763   3.819   6.224 -0.3563  1.0764 -2.5800
 1010MOL0     H33314   9.964   3.742   6.063  1.4809  0.9123  1.0160
 1010MOL0     H33315   9.926   3.577   6.125 -0.4304  0.1755 -1.2882
 1010MOL0     H33316   9.968   3.812   6.324 -0.7385  0.9589 -2.3118
 1010MOL0     H33317   9.976   3.636   6.356  0.0515 -0.1127 -0.4961
 1010MOL0     H33318  10.366   3.681   6.248  0.1331 -0.0819  0.2160
 1010MOL0     H33319   9.345   3.718   6.382  1.5516 -0.3086  0.7499
 1010MOL0     H33320   9.125   3.629   6.311  0.0827 -3.5594  0.4443
 1011MOL0     O33321   9.036  11.192   2.382  0.1215 -0.1774 -0.7258
 1011MOL0     C33322   9.035  11.074   2.413  0.5599 -0.1360 -0.3845
 1011MOL0     O33323   8.918  11.006   2.437 -0.2286  0.2433  0.7484
 1011MOL0     C33324   8.797  11.061   2.418  0.2585 -0.0666  0.1256
 1011MOL0     C33325   8.718  11.081   2.529 -0.5577 -0.2998  0.2549
 1011MOL0     C33326   8.598  11.156   2.527  0.4069 -0.3771 -0.8468
 1011MOL0     C33327   8.544  11.191   2.399 -0.2096 -0.1778 -0.2375
 1011MOL0     O33328   8.423  11.254   2.402  0.6968 -0.8194  0.1379
 1011MOL0     C33329   8.363  11.301   2.277  0.0521 -0.0633 -0.3588
 1011MOL0     C33330   8.244  11.393   2.306 -0.8644 -0.8596 -0.7760
 1011MOL0     C33331   8.108  11.332   2.308 -0.6846  0.8717 -0.4727
 1011MOL0     C33332   8.002  11.436   2.349  0.4446 -0.3242 -0.2252
 1011MOL0     C33333   7.865  11.380   2.361  0.4538  0.0072 -0.6445
 1011MOL0     C33334   7.763  11.481   2.395  0.1467  0.2326 -0.1066
 1011MOL0     C33335   7.623  11.459   2.337  0.7776  0.6687  0.1579
 1011MOL0     C33336   7.508  11.548   2.395  0.0962  0.0765 -0.2937
 1011MOL0     N33337   7.387  11.514   2.329 -0.5738 -0.3640  0.0355
 1011MOL0     C33338   7.326  11.393   2.348 -0.5254 -0.3062  0.0375
 1011MOL0     C33339   7.219  11.405   2.268 -0.3185  0.0908  0.4991
 1011MOL0     C33340   7.108  11.310   2.270 -0.0470  0.4464  0.4928
 1011MOL0     C33341   7.029  11.292   2.135  0.2382 -0.6698  0.2133
 1011MOL0     C33342   6.914  11.193   2.143 -0.4827 -0.2504 -0.3006
 1011MOL0     C33343   6.809  11.215   2.046  0.5574 -0.3517  0.6230
 1011MOL0     O33344   6.707  11.305   2.096 -0.2391  0.0786  0.2174
 1011MOL0     C33345   6.604  11.262   2.177 -0.7818  0.2131  0.5384
 1011MOL0     C33346   6.606  11.144   2.257 -1.1161 -0.4764 -0.2853
 1011MOL0     C33347   6.498  11.114   2.329 -0.7605  1.1618 -0.2510
 1011MOL0     C33348   6.383  11.186   2.334  0.5116  0.1203 -1.3611
 1011MOL0     C33349   6.261  11.139   2.421 -1.2185  0.8672  0.6265
 1011MOL0     O33350   6.267  11.017   2.487 -1.0282 -0.8924 -0.4039
 1011MOL0     C33351   6.150  10.957   2.530 -0.5191  0.3225 -0.1874
 1011MOL0     C33352   6.072  11.017   2.628 -0.2076  0.2096  1.4463
 1011MOL0     C33353   5.951  10.956   2.674  0.2560  0.1785  0.4077
 1011MOL0     C33354   5.912  10.834   2.622  0.0202  0.5809  0.1876
 1011MOL0     O33355   5.794  10.789   2.667  0.4024  0.5691 -0.0756
 1011MOL0     C33356   5.719  10.695   2.584 -0.7006 -1.1096 -0.4001
 1011MOL0     C33357   5.577  10.682   2.633 -0.1595 -0.0575 -0.1558
 1011MOL0     C33358   5.511  10.576   2.538 -0.2986  0.3285  0.5437
 1011MOL0     C33359   5.473  10.620   2.396 -0.3114  1.0146 -0.0666
 1011MOL0     C33360   5.362  10.528   2.343  0.1577 -0.8289  0.1933
 1011MOL0     C33361   5.324  10.582   2.200  0.2099 -0.0564 -0.7411
 1011MOL0     C33362   5.198  10.519   2.137 -0.0433  0.2544 -0.3848
 1011MOL0     C33363   5.082  10.512   2.233 -0.6551 -0.4292 -0.3788
 1011MOL0    Cl33364   4.947  10.444   2.143 -0.1582 -0.6503 -0.0314
 1011MOL0     C33365   5.992  10.765   2.533  0.2143  0.1264 -0.2671
 1011MOL0     C33366   6.110  10.830   2.476 -0.3264 -0.0457 -0.5207
 1011MOL0     O33367   6.161  11.206   2.401  0.1870 -0.2843  0.2961
 1011MOL0     C33368   6.380  11.301   2.265  0.4590  0.2901  0.0060
 1011MOL0     C33369   6.493  11.344   2.190  0.9313  0.8426  0.5663
 1011MOL0     N33370   7.213  11.524   2.208 -0.6914 -0.9320 -0.8800
 1011MOL0     N33371   7.310  11.597   2.257 -0.4576 -0.1311 -0.3743
 1011MOL0     C33372   8.611  11.163   2.282 -1.2033 -0.5986  0.0429
 1011MOL0     C33373   8.740  11.098   2.298  0.5526 -0.1311 -0.3984
 1011MOL0     C33374   9.167  11.008   2.428  0.3521 -0.7241 -0.4535
 1011MOL0     C33375   9.292  11.083   2.427  0.6709 -0.2407  0.5391
 1011MOL0     C33376   9.408  11.018   2.452  0.1602 -0.1424 -0.4428
 1011MOL0     C33377   9.410  10.878   2.471 -0.3689  0.5160  1.1685
 1011MOL0     O33378   9.536  10.825   2.482 -0.0712 -0.0017 -0.6272
 1011MOL0     C33379   9.556  10.684   2.507 -0.1926  0.0719 -0.4514
 1011MOL0     C33380   9.707  10.644   2.536  0.2442 -0.2184  0.2569
 1011MOL0     C33381   9.775  10.730   2.649 -0.2619  0.2172 -1.0205
 1011MOL0     C33382   9.924  10.691   2.683  0.1381  0.1471  0.4699
 1011MOL0     C33383   9.989  10.784   2.777  0.2925  0.0233 -0.1953
 1011MOL0     C33384  10.057  10.852   2.847  1.2454 -0.8483 -1.1161
 1011MOL0     C33385   9.288  10.806   2.461  0.2245  0.5934  0.3222
 1011MOL0     C33386   9.168  10.870   2.447 -0.9245 -1.2323  0.2459
 1011MOL0     H33387   8.763  11.060   2.625  1.2595  2.2889  0.0604
 1011MOL0     H33388   8.539  11.200   2.607  1.7070  1.6006 -0.8996
 1011MOL0     H33389   8.325  11.217   2.217 -0.5536  0.7458 -1.1192
 1011MOL0     H33390   8.431  11.349   2.206  2.0838  0.4785  1.8369
 1011MOL0     H33391   8.252  11.470   2.229  0.0827  2.6369  2.5392
 1011MOL0     H33392   8.254  11.445   2.401  0.4325 -2.2175 -0.1290
 1011MOL0     H33393   8.112  11.254   2.385 -1.0181  1.3573  0.0533
 1011MOL0     H33394   8.065  11.277   2.224 -1.9339 -2.4247  2.1105
 1011MOL0     H33395   8.031  11.486   2.441 -0.5778  2.6590 -1.3894
 1011MOL0     H33396   8.000  11.522   2.281  0.7850 -1.9520 -2.3990
 1011MOL0     H33397   7.860  11.295   2.430  1.3414  0.5444  0.0992
 1011MOL0     H33398   7.835  11.335   2.266 -2.0585 -1.2612  0.6522
 1011MOL0     H33399   7.799  11.578   2.360  0.8625 -0.2309 -0.6948
 1011MOL0     H33400   7.770  11.473   2.504  1.6862 -0.1351 -0.2003
 1011MOL0     H33401   7.631  11.473   2.229 -2.7715  1.1087 -0.1902
 1011MOL0     H33402   7.588  11.355   2.336 -2.2289  1.5815 -1.9606
 1011MOL0     H33403   7.527  11.656   2.386 -0.4038  0.2385  0.5278
 1011MOL0     H33404   7.495  11.520   2.500 -4.2689  2.0719 -0.0667
 1011MOL0     H33405   7.364  11.316   2.415  1.3857 -0.7418 -1.4631
 1011MOL0     H33406   7.042  11.336   2.353 -0.8163  2.4992 -0.6674
 1011MOL0     H33407   7.133  11.208   2.300 -0.4939  1.0501  3.0993
 1011MOL0     H33408   7.094  11.258   2.054 -0.2817 -1.2008  0.0082
 1011MOL0     H33409   6.990  11.388   2.098  1.2252 -0.6842 -0.9524
 1011MOL0     H33410   6.953  11.092   2.128 -0.9009 -0.1103 -2.8119
 1011MOL0     H33411   6.884  11.209   2.246  1.0148  3.7386 -0.2874
 1011MOL0     H33412   6.758  11.122   2.018 -0.0756  0.4413 -1.0413
 1011MOL0     H33413   6.854  11.257   1.955  0.7579  0.2505  0.9951
 1011MOL0     H33414   6.689  11.074   2.245 -0.5424  0.1039  0.1757
 1011MOL0     H33415   6.494  11.021   2.385 -0.1204  0.4524 -1.3575
 1011MOL0     H33416   6.091  11.120   2.655 -1.7002  0.9560 -0.1366
 1011MOL0     H33417   5.893  11.004   2.752  1.0015  1.2045  0.3600
 1011MOL0     H33418   5.774  10.601   2.596 -0.0580 -0.5856  1.0553
 1011MOL0     H33419   5.713  10.733   2.482 -4.2981  0.4326  0.2413
 1011MOL0     H33420   5.522  10.777   2.637 -0.1044 -0.0135 -0.3872
 1011MOL0     H33421   5.573  10.626   2.727 -1.1292 -0.1561 -0.2465
 1011MOL0     H33422   5.418  10.557   2.592 -0.8570  2.4788  0.4231
 1011MOL0     H33423   5.561  10.479   2.535 -1.3988 -0.2296 -0.7988
 1011MOL0     H33424   5.448  10.727   2.399  2.7720  1.9052 -1.5965
 1011MOL0     H33425   5.565  10.610   2.336  0.4960  0.5261  1.2123
 1011MOL0     H33426   5.279  10.543   2.412  2.0456  1.0059  2.2667
 1011MOL0     H33427   5.387  10.423   2.359  0.1648 -0.6677  1.3756
 1011MOL0     H33428   5.412  10.559   2.139  1.4699 -1.6453  1.4928
 1011MOL0     H33429   5.306  10.690   2.204 -2.0839 -0.4177  0.6696
 1011MOL0     H33430   5.171  10.582   2.052 -2.5882 -0.1258  0.0533
 1011MOL0     H33431   5.222  10.423   2.089  3.5281  0.6251  0.3950
 1011MOL0     H33432   5.057  10.614   2.264 -3.1732 -1.2315  0.4485
 1011MOL0     H33433   5.109  10.440   2.311  1.8272  1.0227  0.2157
 1011MOL0     H33434   5.962  10.665   2.504  1.5773 -0.7206  1.0539
 1011MOL0     H33435   6.181  10.777   2.413 -1.2710  0.2410 -1.8553
 1011MOL0     H33436   6.291  11.363   2.257 -0.0419 -0.1311  1.8363
 1011MOL0     H33437   6.478  11.433   2.130 -0.2782  0.6150  0.5059
 1011MOL0     H33438   8.577  11.204   2.188 -0.4045 -0.6315 -0.2641
 1011MOL0     H33439   8.805  11.077   2.214  0.0582  1.2480 -1.1515
 1011MOL0     H33440   9.291  11.191   2.411  0.9935 -0.4374 -1.0017
 1011MOL0     H33441   9.496  11.082   2.449  1.3272 -1.5463  1.2067
 1011MOL0     H33442   9.515  10.625   2.425 -0.0940 -1.7383  0.7537
 1011MOL0     H33443   9.501  10.653   2.596  1.4882 -0.5695  0.4101
 1011MOL0     H33444   9.710  10.540   2.568 -1.8339 -0.7190 -0.9580
 1011MOL0     H33445   9.765  10.642   2.444  1.4681 -0.2012  1.0037
 1011MOL0     H33446   9.714  10.743   2.739  0.7942 -0.0302 -0.2457
 1011MOL0     H33447   9.784  10.835   2.619 -2.5862  0.8922  0.3569
 1011MOL0     H33448   9.930  10.585   2.707 -2.3035  0.3156  2.0821
 1011MOL0     H33449   9.976  10.689   2.586  1.5729 -1.9050  1.2211
 1011MOL0     H33450  10.115  10.920   2.906 -3.6177  2.3898  0.6039
 1011MOL0     H33451   9.286  10.701   2.486 -2.5015  0.8241  1.3531
 1011MOL0     H33452   9.071  10.820   2.453 -1.8806  0.7220  2.5983
 1012MOL0     O33453  10.492   5.014   8.712 -0.1124  0.4170  0.1667
 1012MOL0     C33454  10.519   4.892   8.737  0.4615 -0.5621  0.0150
 1012MOL0     O33455  10.454   4.809   8.827 -0.0620 -0.3014  0.4698
 1012MOL0     C33456  10.327   4.839   8.876  0.3183  0.4768  0.3755
 1012MOL0     C33457  10.218   4.788   8.807  0.0621  0.0415  0.0787
 1012MOL0     C33458  10.091   4.831   8.849 -0.4822  0.3810 -0.9430
 1012MOL0     C33459  10.070   4.910   8.959  0.0035  0.2549 -0.2013
 1012MOL0     O33460   9.935   4.937   8.978 -0.4338  0.1920  0.0417
 1012MOL0     C33461   9.897   5.021   9.095  0.8031  0.3316 -0.0714
 1012MOL0     C33462   9.932   5.172   9.071  0.7626 -0.4999  0.7335
 1012MOL0     C33463   9.806   5.243   9.132 -0.5812  0.1271 -0.5224
 1012MOL0     C33464   9.805   5.390   9.094 -0.5388 -0.1936 -0.6454
 1012MOL0     C33465   9.899   5.473   9.184 -0.1637 -0.1983 -0.1096
 1012MOL0     C33466   9.835   5.524   9.323  0.1734 -0.0537  0.3793
 1012MOL0     C33467   9.930   5.619   9.388 -0.4200  1.1301 -0.3237
 1012MOL0     C33468  10.051   5.538   9.461  0.3510  0.7891  0.2823
 1012MOL0     N33469  10.005   5.431   9.552  0.5843  0.2409  0.5511
 1012MOL0     C33470   9.974   5.303   9.505 -0.2972  1.3840 -0.1847
 1012MOL0     C33471   9.909   5.249   9.607  0.5777  0.2752 -0.2717
 1012MOL0     C33472   9.845   5.113   9.610  0.1412  0.3438 -0.3573
 1012MOL0     C33473   9.952   5.002   9.614 -0.4169 -0.5930 -0.3165
 1012MOL0     C33474  10.052   5.014   9.734  0.7884  0.1054  0.2502
 1012MOL0     C33475  10.147   4.895   9.742 -0.0739 -0.7203 -0.0577
 1012MOL0     O33476  10.235   4.914   9.622 -0.9961  0.0326  0.9369
 1012MOL0     C33477  10.369   4.887   9.629  0.1061 -0.8174  0.7555
 1012MOL0     C33478  10.420   4.798   9.714 -0.7406  0.1777 -0.5963
 1012MOL0     C33479  10.553   4.762   9.730 -0.1345  0.4189 -0.0404
 1012MOL0     C33480  10.644   4.829   9.635 -0.5929  0.5721 -0.3435
 1012MOL0     C33481  10.785   4.793   9.620 -0.8868 -0.3770 -0.5623
 1012MOL0     O33482  10.865   4.858   9.535  0.0986  0.0509 -0.3024
 1012MOL0     C33483  10.996   4.848   9.564 -0.1348  0.7583 -0.8412
 1012MOL0     C33484  11.046   4.930   9.662  0.7993 -0.5986 -0.6025
 1012MOL0     C33485  11.174   4.905   9.706 -1.2289  0.4444 -0.6271
 1012MOL0     C33486  11.253   4.819   9.633 -0.3807  0.5684  0.5396
 1012MOL0     O33487  11.390   4.790   9.650  0.0287 -0.3104  0.4755
 1012MOL0     C33488  11.463   4.860   9.752  1.1649  0.0621 -0.1965
 1012MOL0     C33489  11.610   4.858   9.711  0.5819  0.1229 -0.3824
 1012MOL0     C33490  11.638   4.933   9.578 -0.3329  0.4841  0.0140
 1012MOL0     C33491  11.785   4.917   9.532 -0.1973  0.0450  1.0251
 1012MOL0     C33492  11.808   5.031   9.425 -0.0778  0.0177 -0.3132
 1012MOL0     C33493  11.797   5.181   9.460  0.4658  0.0867 -0.3996
 1012MOL0     C33494  11.859   5.282   9.362  0.2118  0.4848  0.5619
 1012MOL0     C33495  12.014   5.292   9.383 -0.2841 -0.2098 -0.5744
 1012MOL0    Cl33496  12.056   5.422   9.271  0.2996  0.1021  0.3688
 1012MOL0     C33497  11.203   4.738   9.527 -0.1375  0.7330 -0.5649
 1012MOL0     C33498  11.069   4.749   9.497 -0.0757 -1.1065  0.9725
 1012MOL0     O33499  10.820   4.703   9.695  0.1077 -0.3702 -1.1293
 1012MOL0     C33500  10.590   4.929   9.551 -0.0709 -0.4110  0.2048
 1012MOL0     C33501  10.453   4.962   9.552 -0.0367  0.0314  0.4860
 1012MOL0     N33502   9.901   5.337   9.714 -0.3351 -0.6053  0.2274
 1012MOL0     N33503   9.971   5.443   9.683  0.5089  1.3210 -0.0333
 1012MOL0     C33504  10.180   4.954   9.034 -0.5517  0.7647 -0.5365
 1012MOL0     C33505  10.311   4.906   8.997 -0.5482 -0.5069  0.5653
 1012MOL0     C33506  10.648   4.844   8.675  0.4543 -0.9584 -0.2015
 1012MOL0     C33507  10.726   4.943   8.609 -0.5467 -0.1800 -0.4530
 1012MOL0     C33508  10.830   4.903   8.526 -0.2389  0.2467  0.2024
 1012MOL0     C33509  10.870   4.772   8.530  0.5886  0.2314  0.7435
 1012MOL0     O33510  10.970   4.730   8.448  0.6918 -0.3834 -1.1180
 1012MOL0     C33511  11.089   4.694   8.522  0.4856  0.1990  0.5066
 1012MOL0     C33512  11.218   4.730   8.455 -0.9834 -0.4185 -0.2084
 1012MOL0     C33513  11.224   4.656   8.317 -0.2646  0.4104 -0.1866
 1012MOL0     C33514  11.332   4.706   8.227  0.5627  0.5395  0.0865
 1012MOL0     C33515  11.469   4.652   8.266  0.0433  0.7120 -0.3757
 1012MOL0     C33516  11.576   4.603   8.286  0.6329 -0.3356  0.4280
 1012MOL0     C33517  10.808   4.678   8.607  0.7856 -0.8959  0.0550
 1012MOL0     C33518  10.696   4.715   8.681  0.6702  0.6696 -0.3260
 1012MOL0     H33519  10.224   4.730   8.715 -1.3237 -0.0762  0.0411
 1012MOL0     H33520  10.004   4.815   8.786 -0.9963  1.1797 -0.4470
 1012MOL0     H33521   9.940   4.984   9.188  1.2905 -4.2820 -1.8871
 1012MOL0     H33522   9.789   5.011   9.107  0.6238  2.8619  1.2078
 1012MOL0     H33523   9.925   5.198   8.965  0.1890  3.0989  1.5140
 1012MOL0     H33524  10.028   5.193   9.120  2.2026  2.4882 -2.8830
 1012MOL0     H33525   9.792   5.240   9.241  2.0097  2.9357  0.0353
 1012MOL0     H33526   9.715   5.196   9.094 -1.3702  0.8395  0.4241
 1012MOL0     H33527   9.845   5.396   8.992 -0.1815  0.0528 -0.4902
 1012MOL0     H33528   9.708   5.438   9.108  0.4862  1.3722  1.6743
 1012MOL0     H33529   9.923   5.569   9.138  2.1716 -0.5019  0.3645
 1012MOL0     H33530   9.997   5.430   9.205  0.5657  1.8805  1.0544
 1012MOL0     H33531   9.804   5.446   9.394  0.7935  0.4789  1.2682
 1012MOL0     H33532   9.743   5.577   9.299 -0.4323 -1.4013 -0.3533
 1012MOL0     H33533   9.967   5.690   9.314 -0.5943  0.8947 -0.6351
 1012MOL0     H33534   9.875   5.680   9.461  1.6167  1.3090  1.1577
 1012MOL0     H33535  10.125   5.606   9.505  1.4683 -1.4393  2.0404
 1012MOL0     H33536  10.111   5.488   9.385 -0.4343 -1.3425  1.0043
 1012MOL0     H33537  10.013   5.252   9.418  0.0306 -0.6740  1.0925
 1012MOL0     H33538   9.786   5.110   9.518  0.5210  2.1743 -0.7002
 1012MOL0     H33539   9.780   5.095   9.696  0.3587 -1.3511 -0.5193
 1012MOL0     H33540  10.015   5.019   9.527  0.0450 -0.5757  0.0166
 1012MOL0     H33541   9.910   4.901   9.611 -1.6733 -0.0734 -1.7526
 1012MOL0     H33542  10.120   5.098   9.716 -0.2843  1.0865  0.7157
 1012MOL0     H33543   9.993   5.037   9.822 -1.9232  0.6884 -1.6120
 1012MOL0     H33544  10.096   4.800   9.719 -0.0306 -1.0238  1.0719
 1012MOL0     H33545  10.196   4.886   9.839 -0.8594 -1.1131  0.3134
 1012MOL0     H33546  10.348   4.743   9.773 -1.3702  1.1687 -0.3997
 1012MOL0     H33547  10.575   4.686   9.804 -3.1295 -1.5217 -0.9529
 1012MOL0     H33548  10.984   5.007   9.708  1.4757 -0.0492 -0.5874
 1012MOL0     H33549  11.210   4.966   9.789 -0.7066 -3.4566  2.3178
 1012MOL0     H33550  11.437   4.822   9.851 -0.6229  1.3289 -0.1338
 1012MOL0     H33551  11.433   4.965   9.748  0.3770 -0.1867 -1.8780
 1012MOL0     H33552  11.633   4.751   9.698  0.2196  0.3163 -3.2445
 1012MOL0     H33553  11.672   4.899   9.790  2.7025  0.8738 -2.3312
 1012MOL0     H33554  11.613   5.038   9.595 -0.3171  0.8451 -1.9454
 1012MOL0     H33555  11.578   4.892   9.496  0.4247 -3.4227  1.1984
 1012MOL0     H33556  11.857   4.928   9.614  2.1561 -2.8807 -0.4750
 1012MOL0     H33557  11.802   4.819   9.487  0.3115 -0.4224  2.2109
 1012MOL0     H33558  11.734   4.998   9.351 -2.2253 -0.4826  1.8878
 1012MOL0     H33559  11.906   4.997   9.392 -0.3671 -1.5306  0.3229
 1012MOL0     H33560  11.836   5.201   9.560 -3.7533  0.8629  1.3096
 1012MOL0     H33561  11.693   5.213   9.477  1.1524  2.1558  0.2310
 1012MOL0     H33562  11.843   5.264   9.255  1.5475  2.3140 -0.0100
 1012MOL0     H33563  11.815   5.374   9.402 -0.0203 -0.0245  1.5094
 1012MOL0     H33564  12.068   5.200   9.358 -0.4431 -0.5404  0.2829
 1012MOL0     H33565  12.055   5.314   9.482  1.8616 -1.0480 -1.2115
 1012MOL0     H33566  11.267   4.668   9.476 -2.4415  0.7280 -3.8117
 1012MOL0     H33567  11.021   4.685   9.424 -2.0315 -2.4313  3.2646
 1012MOL0     H33568  10.662   4.976   9.485 -2.4167  1.7066 -0.9997
 1012MOL0     H33569  10.416   5.019   9.467  0.0111  0.8055  0.9826
 1012MOL0     H33570  10.161   5.007   9.127 -3.0600  0.4339 -0.7912
 1012MOL0     H33571  10.396   4.932   9.059 -0.4348  1.8942 -0.4702
 1012MOL0     H33572  10.706   5.049   8.613 -2.2901 -0.4923 -0.1135
 1012MOL0     H33573  10.885   4.960   8.451  1.9451 -2.4319 -0.4279
 1012MOL0     H33574  11.085   4.585   8.532  3.7157 -0.3873 -2.5663
 1012MOL0     H33575  11.089   4.740   8.621  1.8420 -2.5619  1.8944
 1012MOL0     H33576  11.222   4.838   8.439  3.6715 -0.2930  0.5064
 1012MOL0     H33577  11.300   4.707   8.524 -1.2514  1.6530  0.8637
 1012MOL0     H33578  11.130   4.682   8.267 -1.1886 -1.5862  0.4274
 1012MOL0     H33579  11.231   4.547   8.319 -0.0962  0.3739 -1.6801
 1012MOL0     H33580  11.318   4.683   8.121 -1.2022  1.3580  0.0941
 1012MOL0     H33581  11.330   4.815   8.230  2.9237  0.7485 -2.3155
 1012MOL0     H33582  11.660   4.539   8.304 -0.0822 -2.1683 -2.1634
 1012MOL0     H33583  10.836   4.573   8.611 -2.0678 -1.7155  0.7053
 1012MOL0     H33584  10.640   4.633   8.724 -0.2035  0.3781 -1.9352
 1013MOL0     O33585   2.592   0.028   4.678  0.1211 -0.3353 -0.3572
 1013MOL0     C33586   2.662  -0.024   4.594 -0.0031  0.3690  0.4726
 1013MOL0     O33587   2.619  -0.104   4.496 -0.2247  0.7839 -0.2556
 1013MOL0     C33588   2.484  -0.117   4.482  0.7104  1.1406 -0.7653
 1013MOL0     C33589   2.403  -0.013   4.445  0.3746  0.5107 -0.8693
 1013MOL0     C33590   2.266  -0.041   4.417  0.8302  0.8013 -0.4768
 1013MOL0     C33591   2.207  -0.175   4.426 -0.2742  0.4978  0.9870
 1013MOL0     O33592   2.079  -0.217   4.406  0.3679 -0.0725  0.0969
 1013MOL0     C33593   1.981  -0.113   4.433  0.9422  0.1638 -0.5536
 1013MOL0     C33594   1.835  -0.172   4.429 -0.3391  0.5051  0.6307
 1013MOL0     C33595   1.721  -0.074   4.466 -0.3389 -0.0192 -0.1216
 1013MOL0     C33596   1.727   0.059   4.382  0.5783  0.9759 -0.2098
 1013MOL0     C33597   1.592   0.131   4.383  0.0931  0.2194 -0.7937
 1013MOL0     C33598   1.491   0.048   4.294  1.6410 -1.5140  0.2705
 1013MOL0     C33599   1.359   0.128   4.265  0.9242 -0.3221 -0.4734
 1013MOL0     C33600   1.265   0.089   4.379 -0.9138 -0.1037  0.5580
 1013MOL0     N33601   1.136   0.161   4.385  0.2118 -0.1526 -0.0198
 1013MOL0     C33602   1.116   0.284   4.331 -0.3560  0.3167  0.2696
 1013MOL0     C33603   0.982   0.308   4.331  0.6491  0.0080  0.6270
 1013MOL0     C33604   0.919   0.420   4.247  0.3973  0.6341  0.2206
 1013MOL0     C33605   0.846   0.374   4.121 -0.0143  0.2105  0.0448
 1013MOL0     C33606   0.772   0.486   4.034 -0.1442  1.0040  0.0288
 1013MOL0     C33607   0.650   0.532   4.115  0.6802  0.1065 -0.7755
 1013MOL0     O33608   0.529   0.458   4.080 -0.9729 -0.1083 -0.3070
 1013MOL0     C33609   0.421   0.471   4.156  0.5298 -0.6208  0.7062
 1013MOL0     C33610   0.405   0.556   4.273 -0.4781  0.3258 -0.4921
 1013MOL0     C33611   0.295   0.543   4.357  0.9100 -0.6264  0.6341
 1013MOL0     C33612   0.195   0.455   4.323 -0.2636 -0.5329  0.1208
 1013MOL0     C33613   0.069   0.452   4.408 -0.5089 -0.1551  0.2619
 1013MOL0     O33614   0.082   0.496   4.537 -0.0157 -1.2194 -0.5357
 1013MOL0     C33615  -0.028   0.536   4.605 -0.0331  0.2113 -0.5855
 1013MOL0     C33616  -0.025   0.503   4.742 -0.7405 -1.0476 -0.5776
 1013MOL0     C33617  -0.127   0.561   4.824 -0.8096 -0.1373 -0.6165
 1013MOL0     C33618  -0.227   0.637   4.769  0.3719  0.7108 -0.6608
 1013MOL0     O33619  -0.319   0.690   4.857 -1.0551 -0.2257 -0.1664
 1013MOL0     C33620  -0.365   0.818   4.823  0.4047 -0.0729 -0.5437
 1013MOL0     C33621  -0.446   0.868   4.939  0.4254  0.0688  0.0839
 1013MOL0     C33622  -0.572   0.779   4.954  0.1656  0.1141 -0.4939
 1013MOL0     C33623  -0.645   0.817   5.088  0.4699 -1.3190 -0.4847
 1013MOL0     C33624  -0.710   0.957   5.107 -0.5218 -0.1497 -0.0791
 1013MOL0     C33625  -0.842   0.969   5.016  0.4150 -0.2253 -0.0429
 1013MOL0     C33626  -0.870   1.120   4.972 -0.7739  0.2812  0.6968
 1013MOL0     C33627  -1.002   1.133   4.887  0.3788  0.9758 -0.4060
 1013MOL0    Cl33628  -1.146   1.066   4.988 -0.7696 -0.3716  0.0286
 1013MOL0     C33629  -0.241   0.647   4.633  0.3538  0.1721 -0.7539
 1013MOL0     C33630  -0.141   0.598   4.552 -0.4250  0.0561 -0.1131
 1013MOL0     O33631  -0.026   0.398   4.353 -0.0555  0.1709 -0.3577
 1013MOL0     C33632   0.204   0.375   4.216  0.1250 -0.2018 -1.5760
 1013MOL0     C33633   0.314   0.387   4.134  0.8854  0.9397 -0.5059
 1013MOL0     N33634   0.922   0.195   4.388 -1.4347 -0.4533 -0.9421
 1013MOL0     N33635   1.016   0.110   4.426  0.4428  0.1071 -0.2341
 1013MOL0     C33636   2.303  -0.274   4.458  0.8250 -0.3819 -0.0361
 1013MOL0     C33637   2.435  -0.245   4.479 -0.4469  0.1407 -0.5387
 1013MOL0     C33638   2.809  -0.001   4.584 -0.4013 -0.4091 -0.3545
 1013MOL0     C33639   2.907  -0.060   4.496 -1.1548  0.6116  0.0229
 1013MOL0     C33640   3.046  -0.011   4.482 -0.6105 -0.2067 -0.0994
 1013MOL0     C33641   3.088   0.092   4.569  0.3223  1.0145  0.3638
 1013MOL0     O33642   3.217   0.133   4.547  0.0536  0.8378 -0.0947
 1013MOL0     C33643   3.243   0.238   4.451 -0.2638 -0.2717  1.0658
 1013MOL0     C33644   3.342   0.184   4.347 -0.6134  0.5625 -0.0723
 1013MOL0     C33645   3.464   0.101   4.408  0.6257 -0.7001  0.0650
 1013MOL0     C33646   3.585   0.093   4.311 -0.3956 -0.3775 -0.2171
 1013MOL0     C33647   3.640   0.221   4.263  0.3130  0.5956 -0.3874
 1013MOL0     C33648   3.668   0.338   4.247 -0.0748  0.6503 -0.9833
 1013MOL0     C33649   3.001   0.137   4.663  0.0792 -0.4922  0.2025
 1013MOL0     C33650   2.868   0.091   4.680  0.4768 -0.6282  0.3930
 1013MOL0     H33651   2.431   0.092   4.436 -2.0103  1.2080 -0.9593
 1013MOL0     H33652   2.203   0.039   4.379  0.6571  0.1791 -1.5252
 1013MOL0     H33653   1.998  -0.023   4.372  1.4764 -0.1073 -0.8159
 1013MOL0     H33654   1.995  -0.080   4.536 -0.2779 -0.7295 -0.0787
 1013MOL0     H33655   1.843  -0.269   4.479  3.3160  1.2998  1.9100
 1013MOL0     H33656   1.818  -0.190   4.323  0.9983 -0.4602  0.5736
 1013MOL0     H33657   1.736  -0.048   4.571 -0.8173  0.9506 -0.2889
 1013MOL0     H33658   1.628  -0.131   4.460 -1.2837  1.5110 -0.2504
 1013MOL0     H33659   1.808   0.123   4.418  1.4613  1.0087 -2.1361
 1013MOL0     H33660   1.748   0.037   4.277  0.1393 -1.9373  0.2057
 1013MOL0     H33661   1.595   0.234   4.346 -0.0789 -0.3458 -2.5035
 1013MOL0     H33662   1.554   0.138   4.485  0.1712  1.3487 -0.8290
 1013MOL0     H33663   1.462  -0.049   4.334 -2.6445  0.4247  2.5478
 1013MOL0     H33664   1.542   0.037   4.198 -2.2735  0.1807 -2.2905
 1013MOL0     H33665   1.386   0.234   4.258 -1.6641  0.6356  1.8900
 1013MOL0     H33666   1.308   0.101   4.172 -2.1462  3.2600 -0.0566
 1013MOL0     H33667   1.313   0.098   4.477 -0.4666  0.1612  0.3201
 1013MOL0     H33668   1.245  -0.018   4.377 -2.4064 -0.0109  4.0309
 1013MOL0     H33669   1.198   0.347   4.299 -0.4597  0.2943 -0.0515
 1013MOL0     H33670   0.993   0.496   4.221  2.2104 -1.5696 -1.5667
 1013MOL0     H33671   0.845   0.464   4.314  0.6345 -4.0621  4.1608
 1013MOL0     H33672   0.783   0.285   4.129 -1.5424  1.4312  2.8486
 1013MOL0     H33673   0.936   0.351   4.063 -1.0257 -2.4742 -0.6467
 1013MOL0     H33674   0.844   0.565   4.010  0.3416  0.9588  1.2433
 1013MOL0     H33675   0.732   0.439   3.944  0.2588  1.0805 -0.1931
 1013MOL0     H33676   0.611   0.634   4.104 -3.1899 -0.6494  3.2100
 1013MOL0     H33677   0.672   0.520   4.221 -1.3761 -1.1809 -0.4396
 1013MOL0     H33678   0.490   0.622   4.293  1.8884 -1.3940 -3.9113
 1013MOL0     H33679   0.285   0.605   4.445  2.2256 -0.5429  0.7447
 1013MOL0     H33680   0.051   0.442   4.790 -2.7637 -0.4664  3.7794
 1013MOL0     H33681  -0.116   0.540   4.930  3.2571 -0.4345 -0.9361
 1013MOL0     H33682  -0.428   0.823   4.734  2.5873  1.8932 -2.0782
 1013MOL0     H33683  -0.280   0.885   4.809  3.0724 -2.9903  0.6404
 1013MOL0     H33684  -0.470   0.972   4.916  0.9784  0.0719 -0.5150
 1013MOL0     H33685  -0.389   0.864   5.032 -3.6841 -0.0775  2.8664
 1013MOL0     H33686  -0.532   0.678   4.966  0.1725  0.1428 -0.2718
 1013MOL0     H33687  -0.635   0.778   4.864  1.0073  0.0047 -1.1006
 1013MOL0     H33688  -0.714   0.741   5.124  1.3770 -1.8589  0.1452
 1013MOL0     H33689  -0.569   0.820   5.166  1.4387 -2.0305 -1.3780
 1013MOL0     H33690  -0.632   1.027   5.076 -0.1775 -0.1045  0.8453
 1013MOL0     H33691  -0.733   0.983   5.211  3.4266  4.1032  0.0461
 1013MOL0     H33692  -0.932   0.920   5.054 -0.5050  0.8192 -0.8247
 1013MOL0     H33693  -0.823   0.911   4.925 -1.7242 -2.6979  0.9505
 1013MOL0     H33694  -0.878   1.171   5.068  2.3955  0.4434  0.9899
 1013MOL0     H33695  -0.785   1.173   4.928  1.2655 -2.5889  0.9290
 1013MOL0     H33696  -0.979   1.071   4.800  3.7342  2.3934 -0.7148
 1013MOL0     H33697  -1.016   1.234   4.846 -0.0035 -0.2736 -3.6173
 1013MOL0     H33698  -0.324   0.702   4.590  0.1649  1.9123  1.6493
 1013MOL0     H33699  -0.148   0.632   4.449  0.4659  1.7051  0.3285
 1013MOL0     H33700   0.126   0.307   4.183  0.1454 -1.6773  1.1796
 1013MOL0     H33701   0.314   0.325   4.045  0.2328  0.1968  0.0054
 1013MOL0     H33702   2.298  -0.382   4.468  3.5503 -0.5077  1.0119
 1013MOL0     H33703   2.504  -0.326   4.497 -0.6849  0.5067  2.5794
 1013MOL0     H33704   2.883  -0.145   4.433  0.2615  3.1418 -4.4245
 1013MOL0     H33705   3.111  -0.040   4.400 -1.2735 -0.6018 -0.4928
 1013MOL0     H33706   3.283   0.332   4.488 -1.1315  1.1519 -1.3701
 1013MOL0     H33707   3.148   0.271   4.407  0.0627  0.7552  1.1117
 1013MOL0     H33708   3.286   0.125   4.275 -0.7315  2.0881 -1.2760
 1013MOL0     H33709   3.385   0.278   4.310 -2.1728  1.2585 -0.1852
 1013MOL0     H33710   3.424   0.000   4.426 -0.7460 -0.2768 -0.4810
 1013MOL0     H33711   3.498   0.160   4.493  1.3532 -1.6121  0.4240
 1013MOL0     H33712   3.664   0.036   4.361  0.5222  1.5786  0.6892
 1013MOL0     H33713   3.545   0.042   4.223 -2.2054 -0.9957  0.9160
 1013MOL0     H33714   3.683   0.444   4.240 -0.1426  0.6431 -1.2309
 1013MOL0     H33715   3.037   0.220   4.723 -1.4720  0.6614 -0.4150
 1013MOL0     H33716   2.813   0.143   4.758 -1.3372 -1.7683 -0.0652
 1014MOL0     O33717   7.957  10.218   3.813  0.0757 -0.0030  0.2666
 1014MOL0     C33718   7.948  10.165   3.702 -0.8650  0.3768 -0.5138
 1014MOL0     O33719   7.842  10.100   3.654  0.6581 -0.3909  0.2777
 1014MOL0     C33720   7.720  10.091   3.724  0.5989  0.4987 -0.1708
 1014MOL0     C33721   7.613  10.108   3.629  0.0546  0.1077 -0.6428
 1014MOL0     C33722   7.486  10.105   3.677  0.5738  0.1940 -0.8263
 1014MOL0     C33723   7.467  10.091   3.814  1.0968  0.5181  0.0628
 1014MOL0     O33724   7.340  10.104   3.863  0.7593  0.0681 -0.4087
 1014MOL0     C33725   7.291  10.246   3.852  0.2033 -0.4133 -0.2210
 1014MOL0     C33726   7.229  10.287   3.989 -0.0163  0.0511 -1.0097
 1014MOL0     C33727   7.079  10.316   3.967  0.0991  0.5743  0.6179
 1014MOL0     C33728   7.023  10.348   4.098 -1.0102 -0.6625 -0.3871
 1014MOL0     C33729   6.872  10.383   4.095  0.0423 -0.2497 -0.1405
 1014MOL0     C33730   6.803  10.381   4.233 -0.4270 -0.1716  1.4696
 1014MOL0     C33731   6.659  10.433   4.217 -0.4243  0.4994 -0.7759
 1014MOL0     C33732   6.576  10.375   4.100 -0.5331 -0.6883  0.4350
 1014MOL0     N33733   6.438  10.404   4.116  0.5520  0.1570  0.1031
 1014MOL0     C33734   6.371  10.516   4.147 -0.4774 -1.0348 -0.7256
 1014MOL0     C33735   6.252  10.485   4.210  0.4233  0.3509 -0.1236
 1014MOL0     C33736   6.150  10.587   4.263  1.2391 -0.1508  0.0799
 1014MOL0     C33737   5.999  10.543   4.259 -0.0407 -0.3351 -0.4178
 1014MOL0     C33738   5.970  10.500   4.121  0.3684  0.0620 -0.8460
 1014MOL0     C33739   6.011  10.596   4.010 -0.0879 -0.4937  0.0693
 1014MOL0     O33740   5.961  10.725   4.026 -0.3805  0.0146  0.1280
 1014MOL0     C33741   5.827  10.742   4.055 -0.0635 -0.1323 -0.3229
 1014MOL0     C33742   5.803  10.860   4.121  0.5411 -1.2411 -0.3084
 1014MOL0     C33743   5.676  10.898   4.165 -0.1383 -0.2508  0.1037
 1014MOL0     C33744   5.567  10.825   4.121 -0.0426 -0.1354 -0.4443
 1014MOL0     C33745   5.424  10.870   4.150  0.4363  0.3289  0.9029
 1014MOL0     O33746   5.323  10.780   4.130  0.0799  0.0950  0.3528
 1014MOL0     C33747   5.189  10.819   4.146  0.2063 -0.4173 -0.7286
 1014MOL0     C33748   5.107  10.823   4.037  0.0804  0.4171 -0.0390
 1014MOL0     C33749   4.972  10.851   4.049  0.5971  0.2689  0.8208
 1014MOL0     C33750   4.913  10.867   4.173  0.0175  0.9130 -0.8728
 1014MOL0     O33751   4.779  10.865   4.199 -0.1731  0.7000  0.5003
 1014MOL0     C33752   4.704  10.772   4.121  0.0544  0.2740  0.7903
 1014MOL0     C33753   4.576  10.755   4.201 -0.9777 -0.5869  0.3506
 1014MOL0     C33754   4.478  10.866   4.213 -0.2380  0.3670  0.0457
 1014MOL0     C33755   4.355  10.799   4.263  0.1239 -0.9775 -0.5350
 1014MOL0     C33756   4.236  10.890   4.292 -0.6991  0.0924  0.5546
 1014MOL0     C33757   4.110  10.814   4.300  0.5451 -0.0726 -0.8316
 1014MOL0     C33758   4.004  10.901   4.362  0.0746  0.1193  0.7771
 1014MOL0     C33759   3.869  10.839   4.340 -0.1415  0.0024 -0.2333
 1014MOL0    Cl33760   3.742  10.929   4.421  0.7257  0.0510  0.2413
 1014MOL0     C33761   5.003  10.859   4.287  1.0619  1.1026  0.2884
 1014MOL0     C33762   5.135  10.842   4.271  0.1324 -0.1942 -0.8244
 1014MOL0     O33763   5.404  10.988   4.181  0.1343 -0.4622  0.4060
 1014MOL0     C33764   5.592  10.704   4.046 -0.1038  0.3403  0.1781
 1014MOL0     C33765   5.728  10.659   4.020  0.5625 -0.1042 -1.0062
 1014MOL0     N33766   6.243  10.347   4.222 -0.1043 -0.5214 -1.0444
 1014MOL0     N33767   6.350  10.297   4.164  0.1166 -0.1341  0.5154
 1014MOL0     C33768   7.574  10.086   3.905 -0.7414  0.4476 -0.3738
 1014MOL0     C33769   7.702  10.088   3.859  0.0933  0.2075 -0.3420
 1014MOL0     C33770   8.062  10.165   3.609  0.2245  1.1760 -0.1892
 1014MOL0     C33771   8.194  10.188   3.644 -0.4131 -0.4133  0.2594
 1014MOL0     C33772   8.297  10.197   3.548  0.8362 -0.0224  0.1275
 1014MOL0     C33773   8.267  10.181   3.406 -0.6569 -0.2093  0.1010
 1014MOL0     O33774   8.354  10.201   3.311 -0.2281  0.3893 -0.8758
 1014MOL0     C33775   8.490  10.250   3.339 -0.6009  0.9910  0.0746
 1014MOL0     C33776   8.568  10.273   3.211 -0.9927  0.1499  0.4888
 1014MOL0     C33777   8.509  10.356   3.099 -0.3815  1.1720  0.6262
 1014MOL0     C33778   8.490  10.497   3.148 -0.4226 -0.6373 -0.0513
 1014MOL0     C33779   8.616  10.560   3.154  0.3392 -0.8157  0.2425
 1014MOL0     C33780   8.713  10.635   3.168  0.3445  0.3941 -0.3880
 1014MOL0     C33781   8.132  10.160   3.367 -0.7711  0.1740  1.5365
 1014MOL0     C33782   8.040  10.152   3.470  0.2179 -0.1116  0.5054
 1014MOL0     H33783   7.617  10.119   3.521 -1.8739  0.5078 -0.7025
 1014MOL0     H33784   7.402  10.095   3.609  1.5475 -0.4727 -1.9707
 1014MOL0     H33785   7.223  10.243   3.766  1.0122 -2.8165 -0.8251
 1014MOL0     H33786   7.378  10.310   3.834  0.9695 -2.0390 -2.7482
 1014MOL0     H33787   7.268  10.378   4.035 -1.5381 -0.3682  1.3077
 1014MOL0     H33788   7.235  10.202   4.058  2.2277  0.0762 -1.1275
 1014MOL0     H33789   7.021  10.231   3.931 -0.6739  1.1672  0.4175
 1014MOL0     H33790   7.058  10.396   3.895  0.0920 -2.1548 -2.6860
 1014MOL0     H33791   7.039  10.267   4.170  1.0430  0.3381  0.3606
 1014MOL0     H33792   7.070  10.436   4.141 -2.6352  0.4897 -0.8909
 1014MOL0     H33793   6.833  10.310   4.024  1.4797 -1.5298  0.3272
 1014MOL0     H33794   6.855  10.482   4.053 -0.3078 -1.1898 -2.3319
 1014MOL0     H33795   6.866  10.446   4.295  0.1724  0.6905  0.0134
 1014MOL0     H33796   6.805  10.279   4.273 -0.9596  0.5140  3.3733
 1014MOL0     H33797   6.618  10.410   4.316  1.2413 -3.8304 -0.8782
 1014MOL0     H33798   6.653  10.542   4.214  0.5516  0.6417  0.9061
 1014MOL0     H33799   6.595  10.267   4.097 -0.6554 -0.6971 -0.3859
 1014MOL0     H33800   6.605  10.408   3.999 -1.4340 -1.8111 -0.2143
 1014MOL0     H33801   6.414  10.615   4.133 -1.6038 -0.1726  1.4255
 1014MOL0     H33802   6.156  10.688   4.220 -0.2587  1.4959  3.3551
 1014MOL0     H33803   6.157  10.607   4.370 -0.6463 -3.2503  0.9167
 1014MOL0     H33804   5.939  10.630   4.288  1.1584  0.2925  0.2602
 1014MOL0     H33805   5.977  10.464   4.331  1.7258  0.9847  1.7123
 1014MOL0     H33806   6.011  10.402   4.098 -1.1953 -0.5619 -1.0981
 1014MOL0     H33807   5.862  10.486   4.131  0.2671  0.3762 -1.4754
 1014MOL0     H33808   5.979  10.549   3.917  0.8678 -1.0226  0.0057
 1014MOL0     H33809   6.120  10.602   4.003 -0.2839  1.2110 -4.3276
 1014MOL0     H33810   5.885  10.925   4.149 -0.4965 -0.5360  1.2038
 1014MOL0     H33811   5.672  10.986   4.228 -1.1668 -0.4249  0.2997
 1014MOL0     H33812   5.161  10.803   3.945  0.1123 -2.7011  0.5443
 1014MOL0     H33813   4.911  10.852   3.960  0.1212 -0.2238  1.1385
 1014MOL0     H33814   4.751  10.674   4.127 -1.1076 -0.4507 -1.1206
 1014MOL0     H33815   4.677  10.814   4.024  2.2599  2.1903  0.8955
 1014MOL0     H33816   4.607  10.721   4.300 -0.1190 -2.4823 -0.5084
 1014MOL0     H33817   4.525  10.670   4.154 -6.4406  3.1806 -1.4024
 1014MOL0     H33818   4.447  10.898   4.113  0.1506  1.1361  0.1652
 1014MOL0     H33819   4.507  10.954   4.270 -2.2961  0.4789  1.0238
 1014MOL0     H33820   4.330  10.725   4.187 -1.4160  0.2558 -1.2918
 1014MOL0     H33821   4.365  10.752   4.361 -0.6461  0.4504  0.2667
 1014MOL0     H33822   4.244  10.955   4.204 -0.6886 -1.5133 -0.6754
 1014MOL0     H33823   4.261  10.945   4.383  1.1856  0.8883 -0.3731
 1014MOL0     H33824   4.111  10.721   4.358  2.7181  1.5966  2.1004
 1014MOL0     H33825   4.093  10.797   4.193  3.3577  1.4703 -1.6085
 1014MOL0     H33826   4.028  10.903   4.469  1.4823 -0.5261  0.4903
 1014MOL0     H33827   3.995  11.001   4.318 -2.9997  1.3613  3.7603
 1014MOL0     H33828   3.864  10.731   4.357 -0.1487 -0.0042 -0.2772
 1014MOL0     H33829   3.842  10.848   4.234 -1.5274  2.8838  0.2557
 1014MOL0     H33830   4.951  10.872   4.381  0.3076  0.7244 -0.0737
 1014MOL0     H33831   5.195  10.852   4.361  1.6874  0.9303 -1.9313
 1014MOL0     H33832   5.508  10.654   3.997 -1.6836  1.2766  1.8390
 1014MOL0     H33833   5.746  10.568   3.964  3.2763 -0.8391  0.8862
 1014MOL0     H33834   7.559  10.097   4.012 -4.6311 -0.8772 -0.6061
 1014MOL0     H33835   7.783  10.109   3.927  1.3384 -1.4485 -1.2346
 1014MOL0     H33836   8.225  10.194   3.748 -0.2818  0.9932  0.1644
 1014MOL0     H33837   8.400  10.215   3.580  1.1402  0.8776 -1.2568
 1014MOL0     H33838   8.549  10.177   3.396  0.8596  1.4872 -0.7621
 1014MOL0     H33839   8.481  10.335   3.408 -2.1980  0.3046  0.7751
 1014MOL0     H33840   8.663  10.310   3.250  1.1681 -2.7330 -1.5553
 1014MOL0     H33841   8.604  10.179   3.167  3.6361  2.6007 -1.7078
 1014MOL0     H33842   8.416  10.310   3.064  1.3250 -4.5101  2.3921
 1014MOL0     H33843   8.574  10.355   3.011 -2.1229  2.2933 -0.7405
 1014MOL0     H33844   8.429  10.557   3.080  1.0905 -0.2917 -1.1354
 1014MOL0     H33845   8.435  10.506   3.242  1.0196 -0.2632  0.7857
 1014MOL0     H33846   8.801  10.687   3.201  0.4681 -1.0887  1.8313
 1014MOL0     H33847   8.098  10.141   3.266 -1.1179 -0.4980  1.7770
 1014MOL0     H33848   7.938  10.133   3.438 -0.2659 -1.4553  2.6067
 1015MOL0     O33849   3.161   5.465   0.051  0.0294 -0.0647 -0.1266
 1015MOL0     C33850   3.198   5.530  -0.042 -0.8235  0.0313 -0.2259
 1015MOL0     O33851   3.119   5.591  -0.136 -0.0600 -0.2980 -0.0837
 1015MOL0     C33852   2.984   5.563  -0.132  0.3187 -0.9461 -0.2589
 1015MOL0     C33853   2.954   5.433  -0.168  0.0450  0.3589  0.5578
 1015MOL0     C33854   2.824   5.385  -0.170 -0.0377 -0.6611  0.3897
 1015MOL0     C33855   2.724   5.479  -0.132 -0.6491 -0.0551 -0.7202
 1015MOL0     O33856   2.593   5.448  -0.158 -0.3638  0.4966 -0.6851
 1015MOL0     C33857   2.548   5.340  -0.239 -0.1905  0.6728 -0.7457
 1015MOL0     C33858   2.394   5.356  -0.227  0.0097 -0.4265  0.1046
 1015MOL0     C33859   2.332   5.284  -0.351  0.0713  0.3287  0.6336
 1015MOL0     C33860   2.175   5.281  -0.319  0.6405 -0.3389  0.0509
 1015MOL0     C33861   2.087   5.226  -0.434 -1.1792 -0.4181  0.4392
 1015MOL0     C33862   1.938   5.230  -0.408  0.1059 -0.2657 -0.1647
 1015MOL0     C33863   1.852   5.194  -0.530  0.0845  0.3099  0.7980
 1015MOL0     C33864   1.698   5.205  -0.509 -1.0826 -0.2546 -0.7631
 1015MOL0     N33865   1.633   5.160  -0.628  0.2139 -0.9899  0.2253
 1015MOL0     C33866   1.637   5.210  -0.757 -1.1841  0.0682  0.1287
 1015MOL0     C33867   1.536   5.160  -0.831 -0.1789  0.8990  0.6289
 1015MOL0     C33868   1.499   5.166  -0.978  0.3773  0.3129  0.0587
 1015MOL0     C33869   1.544   5.043  -1.062  0.9349 -0.1801 -0.2998
 1015MOL0     C33870   1.687   5.056  -1.126  0.2588  0.5906 -0.2593
 1015MOL0     C33871   1.800   5.024  -1.030  0.2561  0.0755 -0.1124
 1015MOL0     O33872   1.864   5.143  -0.984 -0.3664  0.3472  0.0781
 1015MOL0     C33873   1.972   5.135  -0.902  0.4909 -0.7665 -0.2889
 1015MOL0     C33874   2.040   5.258  -0.876  0.4293 -0.2634 -0.7669
 1015MOL0     C33875   2.161   5.248  -0.815  0.4663  0.4264  0.4969
 1015MOL0     C33876   2.220   5.131  -0.771  0.0491 -0.4446 -0.1414
 1015MOL0     C33877   2.352   5.140  -0.722 -0.1280 -0.6497 -0.1887
 1015MOL0     O33878   2.428   5.030  -0.721 -0.9307  0.1558  0.4487
 1015MOL0     C33879   2.561   5.038  -0.701  0.1325 -0.0603  0.4191
 1015MOL0     C33880   2.641   4.950  -0.770 -0.4538 -0.0021 -0.7037
 1015MOL0     C33881   2.772   4.931  -0.738  0.0510  0.6222 -0.3151
 1015MOL0     C33882   2.834   5.015  -0.641 -0.3184  0.8131  0.0750
 1015MOL0     O33883   2.969   4.998  -0.621 -0.0254 -0.3297  0.0076
 1015MOL0     C33884   3.021   4.951  -0.497  0.1552 -0.8915 -0.4392
 1015MOL0     C33885   3.171   4.980  -0.492  0.4881  0.0548 -0.1087
 1015MOL0     C33886   3.248   4.940  -0.624 -0.9660  0.1407  0.1339
 1015MOL0     C33887   3.398   4.945  -0.614  0.1346  0.2713 -0.0487
 1015MOL0     C33888   3.468   4.857  -0.507  1.5331  0.3300  0.1264
 1015MOL0     C33889   3.617   4.885  -0.509  0.6112 -0.3447 -0.2603
 1015MOL0     C33890   3.688   4.840  -0.638 -0.2641  0.3943 -0.2924
 1015MOL0     C33891   3.837   4.821  -0.610  0.0016  0.1967  0.4455
 1015MOL0    Cl33892   3.915   4.976  -0.553  0.2514 -0.0122 -0.1546
 1015MOL0     C33893   2.750   5.106  -0.573 -0.0544  0.5046  0.7467
 1015MOL0     C33894   2.609   5.113  -0.592  0.0273  0.4058  0.7183
 1015MOL0     O33895   2.392   5.251  -0.692  0.5055  0.3271 -0.7838
 1015MOL0     C33896   2.152   5.013  -0.795  0.8467 -0.3686 -0.5022
 1015MOL0     C33897   2.020   5.013  -0.845 -0.4999  0.1614 -0.5478
 1015MOL0     N33898   1.467   5.072  -0.750 -0.8982 -0.6049  0.4660
 1015MOL0     N33899   1.523   5.082  -0.632  0.0674  0.2444  0.2332
 1015MOL0     C33900   2.751   5.609  -0.094 -0.0826 -0.2586 -0.2412
 1015MOL0     C33901   2.885   5.650  -0.096  0.6269  0.2141  0.1083
 1015MOL0     C33902   3.348   5.550  -0.059  0.1769 -0.7182  0.6609
 1015MOL0     C33903   3.395   5.664  -0.123  0.4182 -0.4663  0.3773
 1015MOL0     C33904   3.533   5.668  -0.137 -0.7377 -0.3351 -0.0235
 1015MOL0     C33905   3.619   5.580  -0.074  0.7442  0.2415  1.0946
 1015MOL0     O33906   3.751   5.604  -0.088  0.4019  0.9636 -0.0900
 1015MOL0     C33907   3.811   5.680   0.019  0.5208  0.1831  0.5283
 1015MOL0     C33908   3.900   5.786  -0.042  0.4797  0.6100 -0.0612
 1015MOL0     C33909   3.963   5.887   0.057  0.0951 -0.2465  0.2184
 1015MOL0     C33910   4.071   5.835   0.156 -0.5875  1.0062  0.7726
 1015MOL0     C33911   4.154   5.943   0.210  0.5856 -0.5448 -1.0617
 1015MOL0     C33912   4.231   6.028   0.246 -0.7240  0.3978 -0.6086
 1015MOL0     C33913   3.570   5.475   0.000 -0.1990  0.0537 -0.1048
 1015MOL0     C33914   3.436   5.464   0.006 -0.2551 -0.4983 -0.9502
 1015MOL0     H33915   3.042   5.375  -0.196 -0.5879  1.2218 -4.0027
 1015MOL0     H33916   2.792   5.283  -0.189 -3.3231  0.3129  0.0034
 1015MOL0     H33917   2.573   5.240  -0.204 -0.1090  0.9172 -0.0781
 1015MOL0     H33918   2.582   5.349  -0.342  0.5597  0.0529 -0.5575
 1015MOL0     H33919   2.361   5.459  -0.243  1.4959 -0.0911 -1.0809
 1015MOL0     H33920   2.359   5.321  -0.129  2.0888  3.7497  2.6247
 1015MOL0     H33921   2.374   5.184  -0.367 -1.8905 -0.1678 -2.0568
 1015MOL0     H33922   2.343   5.331  -0.448  0.5102  0.1008  0.5699
 1015MOL0     H33923   2.170   5.225  -0.224  0.8664 -0.3712  0.0439
 1015MOL0     H33924   2.144   5.386  -0.319  1.1950 -0.1721 -0.3394
 1015MOL0     H33925   2.117   5.126  -0.466  0.3022  0.5421 -1.3973
 1015MOL0     H33926   2.114   5.294  -0.516  0.5075 -1.0708  0.4222
 1015MOL0     H33927   1.903   5.327  -0.373 -0.9216 -1.4349  2.2384
 1015MOL0     H33928   1.921   5.160  -0.325  1.8230  0.6544  1.0196
 1015MOL0     H33929   1.875   5.256  -0.617 -1.8013  0.3736  0.2975
 1015MOL0     H33930   1.871   5.091  -0.559 -1.5172  0.0231  0.6850
 1015MOL0     H33931   1.668   5.309  -0.491  0.0092  0.3953 -2.4837
 1015MOL0     H33932   1.673   5.139  -0.425 -1.3662  4.7649  3.6183
 1015MOL0     H33933   1.709   5.283  -0.791  0.3400 -1.1130  0.7160
 1015MOL0     H33934   1.545   5.259  -1.013 -1.6684  2.1655  2.0216
 1015MOL0     H33935   1.390   5.176  -0.973  0.5517  1.7856  1.6917
 1015MOL0     H33936   1.478   5.040  -1.149 -1.5981 -1.4012  1.5249
 1015MOL0     H33937   1.526   4.947  -1.013  2.1147 -1.0129 -1.4205
 1015MOL0     H33938   1.701   4.986  -1.209  0.8233  0.4188 -0.0179
 1015MOL0     H33939   1.689   5.160  -1.160 -0.3421  1.5184  2.2954
 1015MOL0     H33940   1.879   4.963  -1.076 -0.4814 -2.1099  1.3927
 1015MOL0     H33941   1.758   4.971  -0.945 -0.1061 -1.2301 -1.0693
 1015MOL0     H33942   1.998   5.346  -0.923 -0.0859 -0.5579 -0.8635
 1015MOL0     H33943   2.204   5.347  -0.806 -4.3151  2.7622  1.0795
 1015MOL0     H33944   2.601   4.888  -0.849  1.1512  0.0614 -1.6076
 1015MOL0     H33945   2.828   4.850  -0.784  2.4563  2.4302 -0.7674
 1015MOL0     H33946   2.997   4.846  -0.477 -0.4491 -0.3254  2.1413
 1015MOL0     H33947   2.974   5.017  -0.423  1.5844  0.3544 -0.5957
 1015MOL0     H33948   3.218   4.915  -0.417  0.1961  1.1112  1.0333
 1015MOL0     H33949   3.196   5.083  -0.462 -1.0216  0.4316 -0.0749
 1015MOL0     H33950   3.216   4.999  -0.711  0.9359  1.1242  0.0392
 1015MOL0     H33951   3.222   4.836  -0.645 -1.2070  0.5036 -1.5881
 1015MOL0     H33952   3.438   4.916  -0.711 -0.7371 -0.9370 -0.0671
 1015MOL0     H33953   3.442   5.044  -0.596  1.7583 -0.5541  0.6890
 1015MOL0     H33954   3.455   4.750  -0.522 -2.1926  0.9368 -2.1400
 1015MOL0     H33955   3.430   4.886  -0.408 -1.3549 -0.7208 -0.5804
 1015MOL0     H33956   3.659   4.840  -0.419 -0.0574 -1.6352 -0.5669
 1015MOL0     H33957   3.633   4.993  -0.498  0.8646 -0.5892  2.3527
 1015MOL0     H33958   3.648   4.742  -0.667 -1.2501  0.4883  0.6874
 1015MOL0     H33959   3.677   4.910  -0.721 -0.5279  0.2163 -0.4103
 1015MOL0     H33960   3.894   4.788  -0.697 -2.5684 -3.0073 -0.2557
 1015MOL0     H33961   3.840   4.732  -0.546 -1.3409 -1.2265 -1.3211
 1015MOL0     H33962   2.783   5.156  -0.483 -0.4683  0.3953  0.9635
 1015MOL0     H33963   2.550   5.169  -0.520  0.0650  2.5548 -0.8457
 1015MOL0     H33964   2.200   4.923  -0.759  1.2601 -0.5004 -1.3752
 1015MOL0     H33965   1.973   4.917  -0.865  0.2377  0.0178 -1.7385
 1015MOL0     H33966   2.668   5.673  -0.065  0.6061 -0.1426  1.5993
 1015MOL0     H33967   2.904   5.755  -0.076  0.4881 -0.3203  3.5708
 1015MOL0     H33968   3.320   5.726  -0.171  0.5472 -0.6664 -0.0962
 1015MOL0     H33969   3.571   5.745  -0.203  2.3946 -1.9964 -0.3842
 1015MOL0     H33970   3.877   5.617   0.079 -2.4505 -2.9516  0.8136
 1015MOL0     H33971   3.741   5.729   0.087 -0.5346 -1.6487  0.8411
 1015MOL0     H33972   3.971   5.735  -0.108 -0.0931 -1.3945  0.7771
 1015MOL0     H33973   3.831   5.831  -0.113  0.0967 -2.0705 -1.5320
 1015MOL0     H33974   3.882   5.936   0.111 -0.3391 -1.0024  0.2635
 1015MOL0     H33975   4.012   5.969   0.005  2.8467 -0.1982  2.6439
 1015MOL0     H33976   4.018   5.778   0.233  0.9699 -2.2922 -0.4393
 1015MOL0     H33977   4.146   5.771   0.110 -1.0181 -0.9460  2.6319
 1015MOL0     H33978   4.308   6.094   0.280 -1.6345  0.1968  2.0433
 1015MOL0     H33979   3.648   5.407   0.033  0.2500  0.3872 -0.4514
 1015MOL0     H33980   3.412   5.373   0.061 -0.0990  0.6487  1.1033
 1016MOL0     O33981   6.493   1.183   2.647  0.2289  0.8655  0.2673
 1016MOL0     C33982   6.483   1.164   2.766 -0.4503 -0.3219  0.2708
 1016MOL0     O33983   6.397   1.082   2.831 -0.3694  0.6076  0.0054
 1016MOL0     C33984   6.328   0.993   2.757  0.8478 -0.1916 -0.2789
 1016MOL0     C33985   6.202   0.959   2.809 -0.2353 -0.2839  0.4833
 1016MOL0     C33986   6.103   0.877   2.739  0.5026  0.3930 -0.3550
 1016MOL0     C33987   6.135   0.816   2.620 -0.0520  0.3116  0.5087
 1016MOL0     O33988   6.037   0.748   2.554  0.7249 -0.3224  0.7191
 1016MOL0     C33989   6.073   0.711   2.420 -0.1983 -0.2660 -0.6124
 1016MOL0     C33990   5.959   0.660   2.335  0.8502 -0.2009 -0.1975
 1016MOL0     C33991   5.932   0.518   2.381  0.0525  0.6102 -0.1347
 1016MOL0     C33992   5.841   0.445   2.285 -0.1275  0.0974  0.3075
 1016MOL0     C33993   5.778   0.325   2.351  0.4299  0.5201  0.2329
 1016MOL0     C33994   5.872   0.228   2.428 -0.1993 -0.3182 -0.2430
 1016MOL0     C33995   5.793   0.113   2.485  0.3082 -0.3122 -0.6792
 1016MOL0     C33996   5.881   0.017   2.568  2.0965  0.2985 -0.0078
 1016MOL0     N33997   5.796  -0.044   2.672  0.1223 -0.6999 -0.5236
 1016MOL0     C33998   5.707  -0.151   2.659  0.8852  0.2826  0.0120
 1016MOL0     C33999   5.668  -0.166   2.789  1.5424  1.3498 -0.2997
 1016MOL0     C34000   5.591  -0.285   2.829 -0.3991 -0.3978 -0.2431
 1016MOL0     C34001   5.448  -0.285   2.785 -0.0291  0.1195  0.0215
 1016MOL0     C34002   5.372  -0.409   2.835 -0.8282  0.4365  0.3834
 1016MOL0     C34003   5.253  -0.431   2.746  0.0739  0.0593  0.1964
 1016MOL0     O34004   5.215  -0.569   2.727 -0.9841 -1.2300  0.0113
 1016MOL0     C34005   5.110  -0.609   2.646 -0.0038 -0.1909  0.3158
 1016MOL0     C34006   5.013  -0.524   2.581  0.3604 -0.4293 -0.7902
 1016MOL0     C34007   4.908  -0.577   2.507  0.4825 -0.1478 -0.1871
 1016MOL0     C34008   4.889  -0.718   2.505  0.3305 -0.5425 -1.2296
 1016MOL0     C34009   4.772  -0.772   2.445  0.3265  0.2772  0.1799
 1016MOL0     O34010   4.674  -0.685   2.414  0.1285  0.2459  0.4139
 1016MOL0     C34011   4.564  -0.723   2.346  1.2217  0.9506  0.4208
 1016MOL0     C34012   4.563  -0.826   2.246 -0.3875 -0.6719  0.3643
 1016MOL0     C34013   4.457  -0.837   2.157 -0.0201  0.0596  0.2093
 1016MOL0     C34014   4.340  -0.770   2.185  0.2464 -0.6988  0.6565
 1016MOL0     O34015   4.234  -0.815   2.112  0.5960 -0.4221  0.7496
 1016MOL0     C34016   4.111  -0.737   2.078 -0.0281 -1.0560  0.2217
 1016MOL0     C34017   4.061  -0.760   1.935 -0.0094 -0.3337 -0.2417
 1016MOL0     C34018   4.166  -0.780   1.835  0.1020  0.7669 -0.0146
 1016MOL0     C34019   4.277  -0.671   1.837  0.1902  0.5314 -0.7057
 1016MOL0     C34020   4.380  -0.686   1.722 -0.2321 -0.5635 -0.3362
 1016MOL0     C34021   4.501  -0.599   1.738 -0.0746 -0.2805 -0.1600
 1016MOL0     C34022   4.477  -0.444   1.722  0.6889  1.0569 -0.3081
 1016MOL0     C34023   4.603  -0.357   1.697  0.7845 -0.6171 -0.4214
 1016MOL0    Cl34024   4.720  -0.365   1.825 -0.0069 -0.0111  0.0765
 1016MOL0     C34025   4.327  -0.676   2.283 -0.0128  0.3232 -1.3712
 1016MOL0     C34026   4.445  -0.646   2.357 -0.0793 -0.2534  0.9155
 1016MOL0     O34027   4.759  -0.898   2.436 -0.1915 -0.4235 -0.1729
 1016MOL0     C34028   4.986  -0.796   2.564  0.4182  0.5142 -0.0099
 1016MOL0     C34029   5.097  -0.745   2.634 -0.2112 -0.8072 -0.5223
 1016MOL0     N34030   5.745  -0.082   2.867  0.9754  0.3987 -0.5059
 1016MOL0     N34031   5.814  -0.014   2.795  0.1033 -0.8895 -0.6202
 1016MOL0     C34032   6.273   0.838   2.575 -0.7371  0.3380 -0.0320
 1016MOL0     C34033   6.367   0.923   2.649 -0.2123 -0.8034  0.3775
 1016MOL0     C34034   6.585   1.232   2.855  0.2816 -0.4210 -0.1665
 1016MOL0     C34035   6.682   1.312   2.789 -1.6930 -0.4016 -0.0936
 1016MOL0     C34036   6.786   1.375   2.864  0.1927 -1.4044 -0.4439
 1016MOL0     C34037   6.785   1.356   3.003 -0.5462  0.2168 -0.5366
 1016MOL0     O34038   6.884   1.406   3.081  0.9218 -0.4862 -0.0856
 1016MOL0     C34039   7.007   1.440   3.020 -0.1122 -0.6464 -1.2646
 1016MOL0     C34040   7.126   1.411   3.119 -1.1015  0.2280  0.1133
 1016MOL0     C34041   7.180   1.262   3.132 -1.3300 -0.1454  0.4722
 1016MOL0     C34042   7.065   1.168   3.152 -0.2672  0.3330 -0.7594
 1016MOL0     C34043   7.001   1.170   3.285 -0.1219 -0.2099 -0.1814
 1016MOL0     C34044   6.938   1.172   3.392 -0.6468 -0.2038 -0.1277
 1016MOL0     C34045   6.688   1.275   3.064 -0.4703 -1.0108 -0.4510
 1016MOL0     C34046   6.584   1.219   2.994 -0.3837 -0.0467 -0.8165
 1016MOL0     H34047   6.182   0.996   2.909  2.9512 -0.3187  1.2504
 1016MOL0     H34048   6.004   0.871   2.783  0.6698  0.3678  0.0184
 1016MOL0     H34049   6.151   0.635   2.433 -0.4272 -0.6142 -1.2223
 1016MOL0     H34050   6.116   0.793   2.361  0.7540 -2.8284 -3.7477
 1016MOL0     H34051   5.989   0.654   2.230 -0.5725  2.1119 -0.7922
 1016MOL0     H34052   5.874   0.728   2.344  1.4922  0.4540  1.1307
 1016MOL0     H34053   5.894   0.511   2.483 -0.9672  1.4057 -0.4420
 1016MOL0     H34054   6.021   0.454   2.387  0.0201  0.7133  2.2468
 1016MOL0     H34055   5.756   0.503   2.248 -1.6634 -4.2266 -3.9941
 1016MOL0     H34056   5.888   0.427   2.188 -3.6521  0.4500 -1.6247
 1016MOL0     H34057   5.716   0.267   2.282  0.2999  2.7937 -1.6815
 1016MOL0     H34058   5.706   0.370   2.420 -2.3238 -2.4463 -0.4510
 1016MOL0     H34059   5.918   0.281   2.512  2.2865 -0.7754 -1.2139
 1016MOL0     H34060   5.952   0.182   2.368 -0.8109 -2.0764  0.2506
 1016MOL0     H34061   5.712   0.161   2.541  1.7116  0.1882  0.9729
 1016MOL0     H34062   5.751   0.048   2.407  0.4463 -1.4972  0.2101
 1016MOL0     H34063   5.960   0.079   2.610  2.4402  0.6544 -1.1369
 1016MOL0     H34064   5.925  -0.061   2.505  1.7315  0.2482 -0.1995
 1016MOL0     H34065   5.675  -0.224   2.585 -3.1156  0.4818  1.2839
 1016MOL0     H34066   5.606  -0.288   2.938 -0.1975  1.1454 -0.2101
 1016MOL0     H34067   5.640  -0.377   2.796  0.5012  0.0459 -0.1857
 1016MOL0     H34068   5.451  -0.280   2.676 -2.3628 -1.0218 -0.1609
 1016MOL0     H34069   5.400  -0.204   2.841  1.0853  0.4583  0.5126
 1016MOL0     H34070   5.433  -0.499   2.831 -1.8552 -0.4074  2.5367
 1016MOL0     H34071   5.347  -0.401   2.941 -0.7512 -0.4140  0.4664
 1016MOL0     H34072   5.261  -0.377   2.652  0.2777  0.3234  0.3633
 1016MOL0     H34073   5.182  -0.371   2.803  2.4162  2.7055  0.5652
 1016MOL0     H34074   5.020  -0.416   2.587  0.1534 -0.4764  1.5905
 1016MOL0     H34075   4.843  -0.512   2.450 -1.0789 -0.7625  0.8200
 1016MOL0     H34076   4.650  -0.883   2.217 -0.0183 -0.1146  0.3475
 1016MOL0     H34077   4.456  -0.913   2.081  0.0730  1.9991 -1.8439
 1016MOL0     H34078   4.135  -0.630   2.085 -1.9990 -0.4925 -0.9546
 1016MOL0     H34079   4.028  -0.758   2.147 -3.3539  1.8500 -2.4708
 1016MOL0     H34080   3.994  -0.683   1.895 -1.3429 -0.9875  0.6279
 1016MOL0     H34081   3.988  -0.842   1.931  0.8219 -1.0374 -2.7831
 1016MOL0     H34082   4.110  -0.773   1.742 -0.6494  0.5821  0.4205
 1016MOL0     H34083   4.221  -0.875   1.836  0.4581  0.9507 -0.9183
 1016MOL0     H34084   4.230  -0.572   1.830  0.6369  0.6828 -1.7759
 1016MOL0     H34085   4.331  -0.682   1.932 -0.8222  0.5289 -0.1168
 1016MOL0     H34086   4.335  -0.658   1.627 -2.9047 -0.7742  0.7835
 1016MOL0     H34087   4.403  -0.793   1.727  0.6747 -0.3347  2.3170
 1016MOL0     H34088   4.573  -0.625   1.660 -0.9059  0.8014 -1.3334
 1016MOL0     H34089   4.541  -0.612   1.839 -0.2049  0.9883  0.0718
 1016MOL0     H34090   4.416  -0.428   1.633  1.6444  0.0151 -1.1839
 1016MOL0     H34091   4.426  -0.409   1.812  1.2708 -0.9766  0.8705
 1016MOL0     H34092   4.568  -0.254   1.693  1.0191 -0.5661 -1.3650
 1016MOL0     H34093   4.652  -0.386   1.603  1.3840 -1.9927  0.2790
 1016MOL0     H34094   4.240  -0.615   2.308  1.1308  1.6731 -0.5761
 1016MOL0     H34095   4.435  -0.559   2.421  0.6101  0.9544 -0.5390
 1016MOL0     H34096   4.970  -0.904   2.560 -2.6805  0.8647  0.6675
 1016MOL0     H34097   5.163  -0.809   2.692 -0.4038  0.0766  0.7168
 1016MOL0     H34098   6.313   0.788   2.487 -2.4704  4.2695 -3.4042
 1016MOL0     H34099   6.474   0.935   2.631  0.2355 -0.4435  2.8823
 1016MOL0     H34100   6.691   1.320   2.681  1.6597  1.9998  0.2175
 1016MOL0     H34101   6.863   1.433   2.814  0.2713  0.3394  1.5416
 1016MOL0     H34102   7.034   1.543   2.995  2.7118 -0.6669  1.1623
 1016MOL0     H34103   7.029   1.383   2.929  1.8445  1.0419 -1.9390
 1016MOL0     H34104   7.220   1.454   3.085  1.1202 -1.5035  3.5160
 1016MOL0     H34105   7.103   1.453   3.217 -2.0735 -0.3771  0.1560
 1016MOL0     H34106   7.251   1.268   3.216 -1.2618 -1.0578  0.4808
 1016MOL0     H34107   7.235   1.234   3.042 -2.9092  2.0731 -1.2993
 1016MOL0     H34108   6.982   1.192   3.084 -1.0552  2.1162  0.7440
 1016MOL0     H34109   7.082   1.065   3.119  0.3634 -0.2037  1.1282
 1016MOL0     H34110   6.912   1.172   3.496 -0.2994 -0.2898 -0.0395
 1016MOL0     H34111   6.697   1.252   3.170 -0.2726 -0.6832 -0.3948
 1016MOL0     H34112   6.511   1.164   3.053 -1.9464  0.1712 -2.4529
 1017MOL0     O34113   2.586   8.574   7.538 -0.4341 -0.8102 -0.2867
 1017MOL0     C34114   2.562   8.528   7.645  0.4652  1.2652 -0.0329
 1017MOL0     O34115   2.448   8.478   7.687  0.1527  0.7199  0.4344
 1017MOL0     C34116   2.327   8.492   7.617 -0.3199 -1.7709 -0.1160
 1017MOL0     C34117   2.238   8.384   7.613 -0.0461 -0.3975 -0.6180
 1017MOL0     C34118   2.114   8.392   7.553 -1.0242  0.0411 -0.3962
 1017MOL0     C34119   2.082   8.514   7.493  0.8819  0.4239 -0.0657
 1017MOL0     O34120   1.950   8.538   7.449 -0.0423 -0.1528  0.0609
 1017MOL0     C34121   1.934   8.489   7.315  0.6475  0.5093 -0.6413
 1017MOL0     C34122   1.822   8.571   7.259 -0.9485 -0.1468  0.0873
 1017MOL0     C34123   1.806   8.538   7.119 -0.6490  1.2600  0.3094
 1017MOL0     C34124   1.720   8.632   7.043 -0.6390 -0.4417  0.1980
 1017MOL0     C34125   1.587   8.576   6.980 -0.3555 -0.0262 -0.2235
 1017MOL0     C34126   1.546   8.661   6.858 -0.2547  0.3433  0.4484
 1017MOL0     C34127   1.416   8.618   6.794 -0.0206  0.0732 -0.3334
 1017MOL0     C34128   1.297   8.652   6.882  0.4055  0.2093  0.8532
 1017MOL0     N34129   1.267   8.795   6.897  0.3927  0.5649 -0.4723
 1017MOL0     C34130   1.223   8.880   6.803  0.0543 -0.8666  0.2327
 1017MOL0     C34131   1.192   8.994   6.871  0.2525 -0.4111 -0.4890
 1017MOL0     C34132   1.120   9.113   6.815 -0.1533 -0.0922 -0.1603
 1017MOL0     C34133   1.224   9.224   6.799 -0.6124 -0.5033  0.2048
 1017MOL0     C34134   1.235   9.309   6.931 -0.8939  0.1397 -0.7015
 1017MOL0     C34135   1.114   9.403   6.955  0.4002  0.4106  0.0206
 1017MOL0     O34136   1.044   9.370   7.073 -0.0519  0.6863  0.3536
 1017MOL0     C34137   0.931   9.439   7.113  0.0751  1.2379  0.5201
 1017MOL0     C34138   0.931   9.549   7.193 -0.7129 -0.2252 -1.2732
 1017MOL0     C34139   0.814   9.622   7.217  0.7344 -0.6593 -0.4301
 1017MOL0     C34140   0.701   9.589   7.148  0.1360  0.9300  1.4318
 1017MOL0     C34141   0.566   9.651   7.155 -0.6412  0.0760  0.4695
 1017MOL0     O34142   0.472   9.625   7.054  0.0496  0.1427 -1.4347
 1017MOL0     C34143   0.347   9.676   7.075 -0.5768  0.3360  0.9618
 1017MOL0     C34144   0.315   9.814   7.061 -0.1645 -0.6051 -0.3676
 1017MOL0     C34145   0.173   9.852   7.069 -0.0747  0.3545 -0.8769
 1017MOL0     C34146   0.078   9.755   7.097  0.6474  0.0505  0.1863
 1017MOL0     O34147  -0.056   9.807   7.115 -0.9844 -0.3404 -0.8437
 1017MOL0     C34148  -0.155   9.715   7.084  0.4240 -0.4328 -0.2490
 1017MOL0     C34149  -0.279   9.795   7.051  0.7420  0.6985 -0.7129
 1017MOL0     C34150  -0.412   9.711   7.046  0.6614  0.1580 -0.3636
 1017MOL0     C34151  -0.538   9.796   7.016 -0.4643 -0.0663 -0.3689
 1017MOL0     C34152  -0.649   9.706   6.975 -0.1819  0.0416  0.4678
 1017MOL0     C34153  -0.635   9.664   6.832 -0.0185  0.4158  0.1011
 1017MOL0     C34154  -0.720   9.544   6.791  0.7351  0.1023  0.1065
 1017MOL0     C34155  -0.874   9.558   6.819 -0.2034  0.3948  0.7718
 1017MOL0    Cl34156  -0.968   9.682   6.728 -0.3682 -0.0951  0.1473
 1017MOL0     C34157   0.114   9.615   7.107  0.1948 -0.1984  0.5670
 1017MOL0     C34158   0.256   9.584   7.102  1.2726 -0.5137  0.3602
 1017MOL0     O34159   0.551   9.727   7.254  0.3651  0.5721  0.3235
 1017MOL0     C34160   0.704   9.489   7.056 -0.4767 -0.1591  0.2445
 1017MOL0     C34161   0.820   9.410   7.045 -0.3812  0.4290 -1.4521
 1017MOL0     N34162   1.215   8.966   7.005  0.1329  0.0912  0.3835
 1017MOL0     N34163   1.263   8.847   7.019 -0.1038 -0.0826 -0.6012
 1017MOL0     C34164   2.175   8.615   7.482  0.7449  0.3363  0.4579
 1017MOL0     C34165   2.295   8.611   7.547 -0.3428  0.0531 -0.2975
 1017MOL0     C34166   2.677   8.534   7.737  1.0149 -0.0538  1.0093
 1017MOL0     C34167   2.795   8.608   7.703 -0.0733 -0.1364  0.0592
 1017MOL0     C34168   2.897   8.610   7.813  0.5197  0.6913  0.7633
 1017MOL0     C34169   2.879   8.544   7.930 -0.1808 -0.1564  0.0040
 1017MOL0     O34170   2.971   8.552   8.029 -0.6842 -0.6850 -0.0127
 1017MOL0     C34171   2.982   8.448   8.133  0.3184  0.1303  0.0004
 1017MOL0     C34172   3.061   8.328   8.087 -1.2514 -0.2662  1.0050
 1017MOL0     C34173   3.214   8.360   8.048  0.1608  0.0660 -0.2442
 1017MOL0     C34174   3.260   8.252   7.949  0.9400  0.3829  0.0825
 1017MOL0     C34175   3.253   8.120   8.010 -0.1544  0.0138 -0.4417
 1017MOL0     C34176   3.260   8.011   8.048 -0.5258 -0.4852  1.1679
 1017MOL0     C34177   2.764   8.480   7.951  0.4656 -0.1273 -0.1986
 1017MOL0     C34178   2.663   8.466   7.862 -0.3589  0.3556  0.4883
 1017MOL0     H34179   2.271   8.294   7.665 -2.4885  0.3042  2.4438
 1017MOL0     H34180   2.038   8.316   7.565 -0.0890 -0.7638  0.8067
 1017MOL0     H34181   1.902   8.385   7.306 -2.3351  0.7385  3.9791
 1017MOL0     H34182   2.019   8.513   7.250 -2.0447  5.0907 -3.0251
 1017MOL0     H34183   1.845   8.678   7.269 -1.9005  0.1879 -1.0717
 1017MOL0     H34184   1.729   8.551   7.312  0.2296 -0.5104  2.1199
 1017MOL0     H34185   1.775   8.434   7.103  2.1928  0.7627 -3.1084
 1017MOL0     H34186   1.905   8.558   7.077 -0.0363 -1.8716 -0.0054
 1017MOL0     H34187   1.695   8.720   7.104 -0.0510 -0.9814  1.2550
 1017MOL0     H34188   1.773   8.675   6.958 -0.0088 -1.3363  0.1272
 1017MOL0     H34189   1.508   8.572   7.056 -2.0240  3.3899 -1.5687
 1017MOL0     H34190   1.612   8.481   6.933  4.0334  0.4155  0.8086
 1017MOL0     H34191   1.624   8.665   6.781 -2.1630 -2.0917 -1.8243
 1017MOL0     H34192   1.533   8.763   6.895  1.9090 -0.3504  3.4649
 1017MOL0     H34193   1.404   8.681   6.706 -0.1497  0.7612  0.1698
 1017MOL0     H34194   1.413   8.514   6.758  0.2018  0.0598 -0.3131
 1017MOL0     H34195   1.308   8.608   6.981  0.0789 -1.4082  0.1930
 1017MOL0     H34196   1.216   8.605   6.825  2.0982  2.2037 -3.6851
 1017MOL0     H34197   1.211   8.846   6.700  0.3372  1.3602 -0.5789
 1017MOL0     H34198   1.032   9.146   6.872  0.5927  2.8327 -0.5236
 1017MOL0     H34199   1.086   9.097   6.712  1.6932 -1.2058 -0.6485
 1017MOL0     H34200   1.191   9.288   6.717  0.8536 -1.7696 -1.4626
 1017MOL0     H34201   1.328   9.199   6.775 -1.0397 -1.5602 -0.6545
 1017MOL0     H34202   1.251   9.238   7.013  4.5545 -0.3327 -1.8155
 1017MOL0     H34203   1.324   9.371   6.922 -1.3083  0.7864 -0.4163
 1017MOL0     H34204   1.048   9.396   6.868 -0.1591 -2.1435  0.5421
 1017MOL0     H34205   1.138   9.508   6.974  0.1478  0.5656 -0.4924
 1017MOL0     H34206   1.026   9.573   7.239 -0.5807 -2.5715 -0.1316
 1017MOL0     H34207   0.807   9.707   7.284 -1.0376  0.4320 -1.8904
 1017MOL0     H34208   0.389   9.894   7.054  0.3436 -1.0192  0.2181
 1017MOL0     H34209   0.156   9.956   7.044 -1.0428  0.3444 -0.2984
 1017MOL0     H34210  -0.186   9.652   7.168 -1.4465 -3.2000 -2.7927
 1017MOL0     H34211  -0.131   9.652   6.998  0.3386  2.7840 -2.8174
 1017MOL0     H34212  -0.264   9.849   6.957  1.4381 -3.4171 -3.2442
 1017MOL0     H34213  -0.294   9.858   7.139 -1.2330  0.4795 -0.8603
 1017MOL0     H34214  -0.426   9.675   7.148 -1.8786  0.1303 -0.6634
 1017MOL0     H34215  -0.408   9.619   6.986  1.2997 -1.1407  1.5610
 1017MOL0     H34216  -0.567   9.850   7.107  1.1564  1.0177 -0.4557
 1017MOL0     H34217  -0.518   9.880   6.950  0.5057  0.3649  0.4387
 1017MOL0     H34218  -0.735   9.774   6.976  0.1856  0.5822 -1.2412
 1017MOL0     H34219  -0.662   9.621   7.043  0.7270 -1.5450 -1.2704
 1017MOL0     H34220  -0.533   9.629   6.817  0.4021  1.0056  1.4752
 1017MOL0     H34221  -0.653   9.742   6.757  0.0554 -0.8178 -1.2565
 1017MOL0     H34222  -0.699   9.529   6.685 -0.2041  0.3751 -0.1198
 1017MOL0     H34223  -0.687   9.461   6.854  2.7996  2.2206  2.0097
 1017MOL0     H34224  -0.904   9.583   6.921 -1.8807  2.3532 -0.1101
 1017MOL0     H34225  -0.929   9.470   6.784 -0.0412  1.7190 -3.3276
 1017MOL0     H34226   0.039   9.541   7.133 -1.1218  0.8650 -0.0430
 1017MOL0     H34227   0.275   9.478   7.111  0.8295 -0.4419  2.9484
 1017MOL0     H34228   0.620   9.463   6.993 -0.9823  2.2361 -0.1398
 1017MOL0     H34229   0.821   9.342   6.960 -1.5365 -2.1537  0.4753
 1017MOL0     H34230   2.148   8.698   7.418  1.0424 -0.8334 -1.2607
 1017MOL0     H34231   2.372   8.685   7.525 -1.1380  0.2791 -2.5155
 1017MOL0     H34232   2.809   8.663   7.610 -0.6855 -0.1027 -0.0183
 1017MOL0     H34233   2.993   8.658   7.793  1.2235 -1.2346 -0.8491
 1017MOL0     H34234   2.888   8.422   8.182  0.5916  1.3005  1.2346
 1017MOL0     H34235   3.046   8.498   8.207  3.6007  0.7987 -3.0225
 1017MOL0     H34236   3.062   8.254   8.167  0.4829  0.1430  1.3864
 1017MOL0     H34237   3.020   8.292   7.992  1.3375 -1.4066  0.2528
 1017MOL0     H34238   3.270   8.377   8.140 -1.3010  0.7719  0.5415
 1017MOL0     H34239   3.220   8.452   7.990  0.8269 -0.9004 -1.7788
 1017MOL0     H34240   3.206   8.267   7.854  0.7366 -0.0998  0.1136
 1017MOL0     H34241   3.364   8.281   7.933  0.6589  1.4315  0.0756
 1017MOL0     H34242   3.276   7.910   8.082  0.8257 -0.8299 -0.3589
 1017MOL0     H34243   2.743   8.424   8.041  0.5716  0.6930  0.3505
 1017MOL0     H34244   2.578   8.405   7.890  0.5421 -0.4314  1.6366
 1018MOL0     O34245   8.562   3.159   1.460  0.5078 -0.0369  0.4841
 1018MOL0     C34246   8.669   3.193   1.514 -0.7875 -0.2907 -0.9629
 1018MOL0     O34247   8.706   3.181   1.646  0.7899 -0.4602 -0.1155
 1018MOL0     C34248   8.605   3.125   1.724  0.0457 -0.1105  0.4985
 1018MOL0     C34249   8.563   2.994   1.690  0.6220  0.6201  0.5912
 1018MOL0     C34250   8.452   2.938   1.763 -0.2470 -0.5032 -0.2698
 1018MOL0     C34251   8.387   3.015   1.860 -0.3057  0.0951  0.5251
 1018MOL0     O34252   8.299   2.964   1.953  0.4460  0.1845 -0.9341
 1018MOL0     C34253   8.207   2.865   1.919  0.6431  0.2439  0.3424
 1018MOL0     C34254   8.102   2.909   1.827 -0.8385 -0.3051 -0.2219
 1018MOL0     C34255   8.001   2.802   1.787  0.6071 -0.6228 -1.2114
 1018MOL0     C34256   7.901   2.772   1.899  0.5831  0.7212 -0.6355
 1018MOL0     C34257   7.763   2.712   1.859  0.9171  0.9447 -0.3155
 1018MOL0     C34258   7.677   2.666   1.976  0.1277 -0.3605 -0.7211
 1018MOL0     C34259   7.533   2.699   1.941  0.8644  0.3791  1.0277
 1018MOL0     C34260   7.433   2.655   2.040  0.3204  1.0007 -0.2095
 1018MOL0     N34261   7.301   2.706   1.999  0.8240  0.4517  0.1877
 1018MOL0     C34262   7.223   2.656   1.898 -0.4113  0.3068  0.4703
 1018MOL0     C34263   7.112   2.725   1.916  0.0550 -0.5369  0.4959
 1018MOL0     C34264   6.994   2.708   1.831 -0.1082 -0.4378 -0.2401
 1018MOL0     C34265   6.890   2.611   1.889 -0.8438 -0.0326  0.2668
 1018MOL0     C34266   6.772   2.673   1.962  0.5267  0.0840  0.1372
 1018MOL0     C34267   6.668   2.576   2.003 -0.1138  0.2068 -0.0595
 1018MOL0     O34268   6.646   2.478   1.898 -0.1852  0.0844  0.3834
 1018MOL0     C34269   6.534   2.396   1.914 -1.3311 -1.2113  0.2380
 1018MOL0     C34270   6.499   2.321   1.805  0.4078 -0.4526 -0.4128
 1018MOL0     C34271   6.390   2.229   1.801  0.3943  0.4958 -0.6024
 1018MOL0     C34272   6.313   2.217   1.925 -0.1522  0.0140  0.3998
 1018MOL0     C34273   6.191   2.128   1.919  0.8397 -0.5572 -0.7386
 1018MOL0     O34274   6.125   2.103   2.044  0.5617  0.2856 -0.3761
 1018MOL0     C34275   6.033   2.002   2.036 -0.9949  0.6359  0.2799
 1018MOL0     C34276   6.058   1.878   2.100 -0.0887  0.1367 -0.6338
 1018MOL0     C34277   5.966   1.770   2.085 -0.2370 -0.1447 -0.3447
 1018MOL0     C34278   5.839   1.787   2.033  0.8170  0.4836  0.2136
 1018MOL0     O34279   5.753   1.680   2.009  0.3216  0.1482 -0.2875
 1018MOL0     C34280   5.631   1.713   1.939 -0.7999 -0.3983  0.1418
 1018MOL0     C34281   5.562   1.581   1.898  0.4829  0.4600 -0.6836
 1018MOL0     C34282   5.405   1.601   1.890  0.5523 -0.3061  0.0858
 1018MOL0     C34283   5.364   1.691   1.772  0.8970  1.1054 -0.2047
 1018MOL0     C34284   5.221   1.646   1.732 -0.6097  0.1215  0.0163
 1018MOL0     C34285   5.162   1.764   1.659 -0.1539  0.3393  0.1703
 1018MOL0     C34286   5.041   1.712   1.576 -0.5282  0.4366 -1.2881
 1018MOL0     C34287   5.007   1.790   1.450  0.3855 -0.7231 -0.9648
 1018MOL0    Cl34288   5.026   1.959   1.486  0.1962  0.3191 -0.2138
 1018MOL0     C34289   5.815   1.916   1.979 -0.0294 -0.6751  0.5979
 1018MOL0     C34290   5.906   2.020   1.986  0.3945  0.5958 -0.4563
 1018MOL0     O34291   6.149   2.094   1.810 -0.0098  0.3277  1.2216
 1018MOL0     C34292   6.347   2.302   2.032 -0.8423  0.6039  0.1987
 1018MOL0     C34293   6.451   2.392   2.025  0.2430 -0.6415  0.0913
 1018MOL0     N34294   7.111   2.801   2.036  0.1076 -0.5417 -0.6842
 1018MOL0     N34295   7.227   2.782   2.087 -0.3248  0.1476 -0.1619
 1018MOL0     C34296   8.434   3.139   1.885 -0.3193  0.3857  1.3140
 1018MOL0     C34297   8.540   3.199   1.816 -0.5990 -1.2193  0.8581
 1018MOL0     C34298   8.772   3.243   1.425  0.0525 -0.1748 -0.3906
 1018MOL0     C34299   8.733   3.269   1.297 -0.0095  0.3414  0.5362
 1018MOL0     C34300   8.825   3.327   1.211  0.7391  0.0392 -0.3865
 1018MOL0     C34301   8.951   3.379   1.252  0.2517  0.2591 -0.3332
 1018MOL0     O34302   9.035   3.444   1.167 -0.1257 -0.4381 -0.8369
 1018MOL0     C34303   9.009   3.449   1.032 -0.6399  0.1873 -0.3126
 1018MOL0     C34304   9.132   3.501   0.961 -0.1799  1.0708  0.1369
 1018MOL0     C34305   9.261   3.422   0.998  0.1975  0.0957  0.1886
 1018MOL0     C34306   9.258   3.266   1.008 -0.3446 -0.2078  1.0497
 1018MOL0     C34307   9.213   3.195   0.882  0.1611  0.0488 -0.2503
 1018MOL0     C34308   9.172   3.140   0.792 -0.7523  0.6391 -1.1315
 1018MOL0     C34309   8.987   3.345   1.380 -0.4283  0.4853  0.2073
 1018MOL0     C34310   8.899   3.284   1.461 -0.5477  0.7536  0.2094
 1018MOL0     H34311   8.617   2.939   1.613 -0.4937  2.5005 -1.6676
 1018MOL0     H34312   8.418   2.837   1.743  1.4690 -1.7626  2.5453
 1018MOL0     H34313   8.150   2.840   2.009 -0.5829 -0.2830 -0.5457
 1018MOL0     H34314   8.258   2.772   1.893 -1.0189 -0.8758  0.9358
 1018MOL0     H34315   8.140   2.935   1.728 -1.6575 -0.6502 -0.6332
 1018MOL0     H34316   8.056   3.001   1.866  2.6697  2.5823 -2.2439
 1018MOL0     H34317   8.051   2.710   1.756 -0.1760 -1.2065 -0.7798
 1018MOL0     H34318   7.944   2.836   1.700 -0.8840 -2.9430 -1.2372
 1018MOL0     H34319   7.944   2.711   1.978  0.5581 -0.1552 -1.2863
 1018MOL0     H34320   7.871   2.860   1.956 -2.8397 -1.1855  0.8057
 1018MOL0     H34321   7.776   2.624   1.796  1.8444 -0.0113  1.1707
 1018MOL0     H34322   7.706   2.785   1.800 -0.1206 -0.1625 -0.7198
 1018MOL0     H34323   7.694   2.728   2.064 -3.7407 -1.8248  1.3076
 1018MOL0     H34324   7.695   2.559   1.988  2.9593  0.2840  1.8285
 1018MOL0     H34325   7.528   2.806   1.918  0.9238 -0.2869 -2.9604
 1018MOL0     H34326   7.530   2.651   1.842  1.0618  2.9124 -0.2979
 1018MOL0     H34327   7.457   2.682   2.144 -1.1772  0.9868  0.1554
 1018MOL0     H34328   7.429   2.546   2.044  0.1931  0.8274 -3.0624
 1018MOL0     H34329   7.230   2.580   1.821  0.3541 -0.0145  0.8541
 1018MOL0     H34330   7.031   2.669   1.736  1.4870 -2.1400  0.9967
 1018MOL0     H34331   6.945   2.805   1.815 -0.3391 -0.0947  2.0534
 1018MOL0     H34332   6.941   2.531   1.945 -0.9763 -0.9087 -0.8294
 1018MOL0     H34333   6.850   2.574   1.794 -1.5263  0.4979  0.3397
 1018MOL0     H34334   6.808   2.717   2.056  1.1391 -0.5883  0.2251
 1018MOL0     H34335   6.727   2.757   1.909 -2.7630 -2.0310 -0.7410
 1018MOL0     H34336   6.569   2.620   2.021  0.1613  1.6201 -1.7225
 1018MOL0     H34337   6.684   2.523   2.097 -1.2569 -2.1043 -1.0878
 1018MOL0     H34338   6.552   2.336   1.711  0.5082 -1.0641 -0.4592
 1018MOL0     H34339   6.372   2.163   1.718  1.6794 -2.6853  1.4691
 1018MOL0     H34340   6.157   1.867   2.142 -0.0106 -0.6177 -1.0076
 1018MOL0     H34341   5.985   1.672   2.127  0.2801  0.1988  0.2521
 1018MOL0     H34342   5.659   1.764   1.847  1.9105  1.3836  1.7945
 1018MOL0     H34343   5.567   1.771   2.006 -2.4898 -2.3644  0.3218
 1018MOL0     H34344   5.587   1.513   1.979  2.0052 -2.0407 -3.0704
 1018MOL0     H34345   5.599   1.540   1.804 -2.4583 -2.7056 -0.6441
 1018MOL0     H34346   5.383   1.652   1.984 -0.4397 -0.7201  0.0981
 1018MOL0     H34347   5.359   1.502   1.898 -0.0417 -0.0248  0.2623
 1018MOL0     H34348   5.355   1.790   1.816  2.0530  0.6567  1.1222
 1018MOL0     H34349   5.433   1.697   1.687  1.4775 -1.1948  0.0244
 1018MOL0     H34350   5.158   1.600   1.809  1.6675 -1.6820  0.9414
 1018MOL0     H34351   5.239   1.566   1.659 -3.2352  0.5350 -1.1944
 1018MOL0     H34352   5.232   1.805   1.586 -1.9134 -1.0314 -2.4585
 1018MOL0     H34353   5.123   1.832   1.735 -0.5934 -1.6105  1.7825
 1018MOL0     H34354   5.061   1.607   1.549  1.3786  1.1686 -2.9619
 1018MOL0     H34355   4.960   1.712   1.649  2.3729  2.9611  2.2528
 1018MOL0     H34356   4.909   1.774   1.403 -1.0193 -2.7511  2.2832
 1018MOL0     H34357   5.082   1.764   1.375  3.0685 -1.1591  1.6406
 1018MOL0     H34358   5.731   1.948   1.918  1.7970  0.3135 -1.5594
 1018MOL0     H34359   5.872   2.117   1.951 -0.3804  0.7568  0.7039
 1018MOL0     H34360   6.289   2.305   2.124  2.5143  0.2749  2.4945
 1018MOL0     H34361   6.473   2.454   2.111 -1.1492 -2.4434  1.8569
 1018MOL0     H34362   8.380   3.207   1.950 -1.8300  0.1682  0.3414
 1018MOL0     H34363   8.567   3.303   1.828  1.3828 -1.7215  1.1467
 1018MOL0     H34364   8.631   3.251   1.264 -0.0876 -3.8932  2.4293
 1018MOL0     H34365   8.776   3.337   1.115  0.9569  2.6940 -0.2842
 1018MOL0     H34366   8.933   3.522   1.007 -1.4467  0.5193  2.7163
 1018MOL0     H34367   8.983   3.348   0.997  1.3558 -0.9002  1.1401
 1018MOL0     H34368   9.109   3.503   0.854  0.5242 -1.3480 -0.1351
 1018MOL0     H34369   9.157   3.605   0.982  2.3138  0.8706 -1.3557
 1018MOL0     H34370   9.313   3.456   1.088 -1.1839 -0.6176  1.2856
 1018MOL0     H34371   9.333   3.456   0.923 -2.3374  2.0781 -1.5168
 1018MOL0     H34372   9.363   3.241   1.021 -1.2445 -4.3504  1.6351
 1018MOL0     H34373   9.211   3.231   1.100  0.0836  1.5579  1.9770
 1018MOL0     H34374   9.110   3.085   0.724 -1.7996 -1.1742  1.1543
 1018MOL0     H34375   9.082   3.384   1.416 -0.1478 -1.3892  1.6191
 1018MOL0     H34376   8.908   3.282   1.570 -1.7163 -0.4748  0.3058
 1019MOL0     O34377   3.207   9.857   2.259 -0.0779  0.2262 -0.2053
 1019MOL0     C34378   3.202   9.867   2.383 -0.4159  0.2223  0.2883
 1019MOL0     O34379   3.090   9.883   2.462  0.0488 -0.0877 -0.3065
 1019MOL0     C34380   2.970   9.887   2.403 -0.2017 -0.3929 -0.0226
 1019MOL0     C34381   2.889   9.995   2.445 -0.5057 -0.7097 -0.2066
 1019MOL0     C34382   2.760  10.009   2.396 -0.4437  0.5503 -0.1727
 1019MOL0     C34383   2.719   9.930   2.290  0.2283  0.2738  0.5294
 1019MOL0     O34384   2.597   9.970   2.236  0.1081  1.0252 -0.5909
 1019MOL0     C34385   2.525   9.871   2.161 -0.2435 -0.4362  0.3250
 1019MOL0     C34386   2.385   9.932   2.153 -0.3723  0.1007 -0.0089
 1019MOL0     C34387   2.297   9.827   2.094  0.7086 -0.4071 -0.0122
 1019MOL0     C34388   2.155   9.886   2.079  0.0517  0.2981  0.4283
 1019MOL0     C34389   2.063   9.804   1.987 -0.5200  0.0634  0.2216
 1019MOL0     C34390   1.945   9.896   1.969 -0.4308  0.2025  0.6203
 1019MOL0     C34391   1.836   9.825   1.891  0.4642 -0.0328  0.9714
 1019MOL0     C34392   1.876   9.845   1.744  0.4799  0.3230 -0.9877
 1019MOL0     N34393   1.819   9.752   1.645 -0.5284 -0.4352 -0.3189
 1019MOL0     C34394   1.719   9.652   1.655 -0.2587 -0.0128 -0.1294
 1019MOL0     C34395   1.693   9.622   1.522 -0.4199  0.0176  0.0096
 1019MOL0     C34396   1.597   9.516   1.464 -0.4959 -1.1973  0.0681
 1019MOL0     C34397   1.485   9.574   1.374  0.7668 -0.6748  0.1252
 1019MOL0     C34398   1.368   9.645   1.451  0.5241  0.5647 -0.0692
 1019MOL0     C34399   1.256   9.673   1.343 -0.4550  0.8177 -0.7487
 1019MOL0     O34400   1.128   9.695   1.400  0.0082 -1.0500 -0.2122
 1019MOL0     C34401   1.027   9.735   1.305 -0.7840  0.2862 -0.2276
 1019MOL0     C34402   1.026   9.723   1.164  0.0821 -0.2944 -0.3613
 1019MOL0     C34403   0.913   9.756   1.083 -0.4792 -0.1275  0.1761
 1019MOL0     C34404   0.808   9.823   1.146 -0.1053 -0.4409 -0.8491
 1019MOL0     C34405   0.691   9.870   1.067  0.7436  0.1550 -0.0030
 1019MOL0     O34406   0.590   9.944   1.143  0.0036 -0.1153  0.3875
 1019MOL0     C34407   0.501  10.016   1.061  0.0674  0.4218 -0.4550
 1019MOL0     C34408   0.547  10.102   0.956 -0.1233 -0.1869 -0.1984
 1019MOL0     C34409   0.442  10.169   0.876 -1.0854  0.5420  0.2233
 1019MOL0     C34410   0.304  10.136   0.893 -0.1279  0.1635 -0.2695
 1019MOL0     O34411   0.216  10.206   0.825 -0.8973 -0.3525  0.4439
 1019MOL0     C34412   0.158  10.139   0.716  1.0298 -0.5207  0.5833
 1019MOL0     C34413   0.064  10.229   0.642 -0.2776  0.0351  0.5805
 1019MOL0     C34414  -0.074  10.252   0.702 -0.6425 -0.1265 -0.0314
 1019MOL0     C34415  -0.132  10.390   0.656  0.3957 -0.2179 -0.1892
 1019MOL0     C34416  -0.243  10.437   0.759 -0.5161 -0.6544  0.3979
 1019MOL0     C34417  -0.369  10.347   0.759  0.9282 -0.2754 -0.1447
 1019MOL0     C34418  -0.470  10.377   0.873  1.1215 -0.3440 -0.3553
 1019MOL0     C34419  -0.565  10.500   0.852 -0.5394  0.3238  0.6700
 1019MOL0    Cl34420  -0.676  10.505   0.991  0.1139 -0.2914 -0.1073
 1019MOL0     C34421   0.261  10.052   0.998 -1.2481  0.1119  0.4446
 1019MOL0     C34422   0.363  10.008   1.084  0.3769  0.4161  0.5479
 1019MOL0     O34423   0.680   9.834   0.947  0.7800  0.1581  0.9648
 1019MOL0     C34424   0.811   9.837   1.284 -0.4269  0.2468 -0.0432
 1019MOL0     C34425   0.916   9.797   1.359  1.2105  0.2181 -0.2673
 1019MOL0     N34426   1.781   9.690   1.446 -0.6420  0.6866  0.4372
 1019MOL0     N34427   1.849   9.772   1.512  0.5046  0.2735  0.4398
 1019MOL0     C34428   2.796   9.817   2.253  0.0043 -0.7152 -0.0083
 1019MOL0     C34429   2.914   9.797   2.312  0.1054 -0.5923 -0.0310
 1019MOL0     C34430   3.338   9.856   2.452  0.3156 -0.2641  0.3054
 1019MOL0     C34431   3.453   9.856   2.373  0.6263  0.0453 -0.3445
 1019MOL0     C34432   3.578   9.844   2.434  0.5087 -0.1690  1.2385
 1019MOL0     C34433   3.589   9.836   2.575  1.1126  0.2729 -0.0787
 1019MOL0     O34434   3.706   9.833   2.639  1.0798 -0.8023  1.2102
 1019MOL0     C34435   3.826   9.880   2.576 -0.5528 -0.1323  0.0174
 1019MOL0     C34436   3.926   9.765   2.530 -1.4708 -0.5884  0.6056
 1019MOL0     C34437   4.073   9.821   2.502 -0.7014  0.1168 -0.2205
 1019MOL0     C34438   4.173   9.702   2.477 -0.3883  0.2169 -0.0702
 1019MOL0     C34439   4.194   9.666   2.335 -0.5514 -0.4450 -0.0428
 1019MOL0     C34440   4.224   9.659   2.219  0.2441 -0.2714 -1.0706
 1019MOL0     C34441   3.469   9.826   2.651  0.0471 -0.6238 -0.3003
 1019MOL0     C34442   3.346   9.835   2.587 -0.2168  0.2024  0.2264
 1019MOL0     H34443   2.919  10.067   2.520  0.8650  0.8042 -2.1098
 1019MOL0     H34444   2.712  10.095   2.442  1.1221 -0.2237  3.2502
 1019MOL0     H34445   2.523   9.778   2.217 -0.1082 -0.5888  0.0779
 1019MOL0     H34446   2.569   9.877   2.061  2.1723  1.1505  1.3926
 1019MOL0     H34447   2.388  10.019   2.087 -2.2279 -0.3079 -0.6584
 1019MOL0     H34448   2.345   9.959   2.252  0.4108  1.8070 -0.1114
 1019MOL0     H34449   2.288   9.751   2.173  0.0495 -1.0195 -0.6630
 1019MOL0     H34450   2.337   9.800   1.996 -1.3693  0.6850 -1.2251
 1019MOL0     H34451   2.114   9.906   2.178  0.1024  2.6349  0.0406
 1019MOL0     H34452   2.173   9.985   2.034  0.4818  0.3787  0.7723
 1019MOL0     H34453   2.039   9.713   2.044 -0.0592  0.9685  1.9534
 1019MOL0     H34454   2.116   9.776   1.896  3.1778  3.7537  0.9443
 1019MOL0     H34455   1.976   9.994   1.932 -2.4738  0.3226 -0.9826
 1019MOL0     H34456   1.892   9.922   2.061 -2.6900  0.3073 -0.6411
 1019MOL0     H34457   1.826   9.718   1.909 -2.1946  0.2381  1.5677
 1019MOL0     H34458   1.739   9.874   1.908  1.6644  1.5240  4.1335
 1019MOL0     H34459   1.983   9.837   1.724  0.6418 -1.7268  0.3182
 1019MOL0     H34460   1.847   9.946   1.714  3.1700  1.5467  0.2614
 1019MOL0     H34461   1.684   9.618   1.752 -1.5514  2.4127  0.3230
 1019MOL0     H34462   1.550   9.466   1.549 -1.6648  0.8716  0.7153
 1019MOL0     H34463   1.654   9.452   1.396  2.0328  0.1091  0.8193
 1019MOL0     H34464   1.442   9.503   1.302 -1.6811 -0.7746  1.5741
 1019MOL0     H34465   1.540   9.648   1.316  0.5564 -0.5011  0.1445
 1019MOL0     H34466   1.332   9.585   1.535  0.6163 -0.0654 -0.4742
 1019MOL0     H34467   1.405   9.741   1.488  1.2776  0.0012  0.6887
 1019MOL0     H34468   1.253   9.588   1.274 -0.7461  0.4280 -0.2616
 1019MOL0     H34469   1.282   9.756   1.277  0.2817  0.2979 -1.1240
 1019MOL0     H34470   1.106   9.685   1.100  2.7617  2.6713  0.9591
 1019MOL0     H34471   0.922   9.732   0.978 -2.5698 -0.7995  0.1064
 1019MOL0     H34472   0.651  10.130   0.949  0.3245 -1.6932 -0.0423
 1019MOL0     H34473   0.462  10.252   0.810 -1.3016  3.5522  3.6406
 1019MOL0     H34474   0.098  10.053   0.746  0.3514  0.0257  0.8234
 1019MOL0     H34475   0.235  10.104   0.647 -0.4360 -2.0885 -0.3144
 1019MOL0     H34476   0.041  10.194   0.541  0.3032  0.7423  0.1910
 1019MOL0     H34477   0.120  10.322   0.629 -0.8679  0.3081 -0.0718
 1019MOL0     H34478  -0.070  10.248   0.812 -1.2189  0.0361 -0.0027
 1019MOL0     H34479  -0.141  10.171   0.671 -0.2518  0.1505 -1.6898
 1019MOL0     H34480  -0.051  10.463   0.665 -0.4627  0.9675 -1.7215
 1019MOL0     H34481  -0.183  10.398   0.560 -0.8567  2.1213  0.5726
 1019MOL0     H34482  -0.280  10.533   0.722 -0.2146 -1.2053 -1.4180
 1019MOL0     H34483  -0.188  10.442   0.854  0.4825  2.9542 -0.2147
 1019MOL0     H34484  -0.321  10.250   0.771  1.1516 -0.4480 -2.0966
 1019MOL0     H34485  -0.418  10.354   0.662  0.7671  0.6733 -0.0108
 1019MOL0     H34486  -0.529  10.285   0.884 -0.4522  0.6511 -0.0488
 1019MOL0     H34487  -0.419  10.396   0.968  1.5513  0.2525 -0.7020
 1019MOL0     H34488  -0.624  10.494   0.760  1.1682 -1.4211 -0.3931
 1019MOL0     H34489  -0.501  10.588   0.842  2.3113 -1.3863  2.4399
 1019MOL0     H34490   0.155  10.044   1.018 -0.9941  1.0277  2.3152
 1019MOL0     H34491   0.340   9.953   1.174  1.2130 -0.3652  0.3080
 1019MOL0     H34492   0.730   9.881   1.341  1.9530  3.3992  1.1514
 1019MOL0     H34493   0.911   9.799   1.468  2.2173 -3.9924  0.0144
 1019MOL0     H34494   2.762   9.755   2.171 -5.1292 -1.8577  2.5938
 1019MOL0     H34495   2.974   9.708   2.298  0.1633 -0.8482  1.6118
 1019MOL0     H34496   3.450   9.857   2.265  0.4553 -1.6521 -0.3737
 1019MOL0     H34497   3.663   9.852   2.367 -0.1907 -2.6387 -0.0252
 1019MOL0     H34498   3.889   9.930   2.650  1.7857 -0.8504 -1.3884
 1019MOL0     H34499   3.815   9.957   2.500  1.8913  1.8117  1.4670
 1019MOL0     H34500   3.932   9.692   2.612  2.4826  0.6183  1.6073
 1019MOL0     H34501   3.883   9.712   2.445  2.2406 -0.0570 -1.8204
 1019MOL0     H34502   4.100   9.881   2.589  2.6446 -3.2254  1.3264
 1019MOL0     H34503   4.072   9.882   2.411  2.8460 -0.9103 -1.1102
 1019MOL0     H34504   4.272   9.727   2.518 -0.0941 -0.7706 -0.1515
 1019MOL0     H34505   4.152   9.609   2.531  0.5660 -0.4117 -0.7425
 1019MOL0     H34506   4.246   9.672   2.115  1.1984  1.0182 -0.7219
 1019MOL0     H34507   3.495   9.842   2.756  4.8147  0.3939 -1.3957
 1019MOL0     H34508   3.262   9.821   2.654 -1.4958 -0.3050 -1.4177
 1020MOL0     O34509   0.676   2.216   4.620 -0.2253  0.0979  0.2792
 1020MOL0     C34510   0.703   2.272   4.723  0.4279  0.1529 -0.0462
 1020MOL0     O34511   0.615   2.291   4.824 -0.0009  0.5975  0.0254
 1020MOL0     C34512   0.485   2.297   4.792  0.0390  0.0334  0.2588
 1020MOL0     C34513   0.427   2.394   4.703  0.0280 -0.1170 -0.4064
 1020MOL0     C34514   0.286   2.386   4.685 -0.2843 -0.0450  0.4038
 1020MOL0     C34515   0.201   2.297   4.753 -0.0405  0.2159  0.3987
 1020MOL0     O34516   0.067   2.312   4.729  0.1031 -0.1527 -0.3758
 1020MOL0     C34517  -0.029   2.225   4.793  0.2145  1.0877 -0.3190
 1020MOL0     C34518  -0.181   2.276   4.785 -0.0952 -0.3462 -0.3335
 1020MOL0     C34519  -0.203   2.389   4.891 -0.4653  0.4775  0.4434
 1020MOL0     C34520  -0.350   2.429   4.883 -0.3403 -0.4104 -0.6006
 1020MOL0     C34521  -0.394   2.520   4.996 -1.3808 -0.1374  0.2366
 1020MOL0     C34522  -0.539   2.576   4.982 -0.9007  0.3640 -0.1955
 1020MOL0     C34523  -0.600   2.607   5.124  0.8140 -1.1996  0.1525
 1020MOL0     C34524  -0.653   2.484   5.193  0.7383 -0.9562  0.6418
 1020MOL0     N34525  -0.753   2.515   5.298  0.7065 -0.3465 -0.0538
 1020MOL0     C34526  -0.733   2.584   5.410 -0.2491 -0.8398 -0.4323
 1020MOL0     C34527  -0.860   2.567   5.476 -0.2431 -0.6112 -0.1042
 1020MOL0     C34528  -0.903   2.623   5.611 -0.2729 -0.2657 -0.0103
 1020MOL0     C34529  -0.852   2.770   5.632 -0.1492  0.8169  0.0319
 1020MOL0     C34530  -0.926   2.872   5.534 -0.6574  0.3113  0.6380
 1020MOL0     C34531  -1.077   2.878   5.559  0.3265 -0.1695  0.7677
 1020MOL0     O34532  -1.102   2.931   5.687 -0.2658 -0.2184  1.2370
 1020MOL0     C34533  -1.209   2.892   5.765 -0.0123  0.2796  0.7339
 1020MOL0     C34534  -1.320   2.820   5.720  0.6319  0.0175 -0.1077
 1020MOL0     C34535  -1.435   2.798   5.796  0.2534  0.3124 -1.3656
 1020MOL0     C34536  -1.443   2.843   5.928 -0.5352  0.2009  0.6582
 1020MOL0     C34537  -1.570   2.827   6.009 -0.2777  0.3831  0.2128
 1020MOL0     O34538  -1.669   2.742   5.954  0.1959 -0.0322  0.3524
 1020MOL0     C34539  -1.789   2.719   6.022 -1.0691  0.1336  0.0752
 1020MOL0     C34540  -1.916   2.743   5.978 -0.4718  0.4899  0.1723
 1020MOL0     C34541  -2.037   2.698   6.035 -0.4621 -0.5854  0.1060
 1020MOL0     C34542  -2.030   2.610   6.146  0.5850 -0.2677  0.4373
 1020MOL0     O34543  -2.150   2.553   6.196  0.3191  0.2355 -0.0750
 1020MOL0     C34544  -2.128   2.430   6.265  0.0155  0.0811  0.2725
 1020MOL0     C34545  -2.265   2.374   6.304  0.5578 -1.1679  1.0799
 1020MOL0     C34546  -2.374   2.477   6.352 -0.2115  0.8332 -0.6700
 1020MOL0     C34547  -2.492   2.425   6.420 -0.2199 -0.4254 -0.7813
 1020MOL0     C34548  -2.601   2.524   6.421  0.1594  0.1373 -0.4195
 1020MOL0     C34549  -2.712   2.481   6.518  0.0597  0.1268  1.0795
 1020MOL0     C34550  -2.827   2.576   6.505 -0.7648 -0.7971  0.6148
 1020MOL0     C34551  -2.883   2.621   6.640 -0.7609 -0.5657  0.0257
 1020MOL0    Cl34552  -2.939   2.463   6.722 -0.3370 -0.0898  0.0716
 1020MOL0     C34553  -1.899   2.580   6.199  0.8992 -0.0800 -0.0838
 1020MOL0     C34554  -1.779   2.637   6.137 -0.0945  0.4881  0.1195
 1020MOL0     O34555  -1.578   2.890   6.112  0.2314 -0.5166 -0.0482
 1020MOL0     C34556  -1.337   2.919   5.977 -0.4785 -0.2125  0.7746
 1020MOL0     C34557  -1.224   2.941   5.904  0.0604  0.1500 -0.0430
 1020MOL0     N34558  -0.948   2.500   5.390 -0.8031  0.7376 -0.1098
 1020MOL0     N34559  -0.882   2.471   5.285 -0.5832  0.2461 -1.0816
 1020MOL0     C34560   0.259   2.200   4.840  0.1707  0.3682  0.1462
 1020MOL0     C34561   0.401   2.203   4.859 -0.0812  0.3579  0.4295
 1020MOL0     C34562   0.839   2.328   4.742  0.0452  0.0809  0.2411
 1020MOL0     C34563   0.937   2.300   4.654  0.2954  1.1217 -0.1916
 1020MOL0     C34564   1.068   2.337   4.684 -0.0947  0.5619  0.0220
 1020MOL0     C34565   1.095   2.428   4.785  0.0405 -0.2353  0.6407
 1020MOL0     O34566   1.222   2.477   4.818 -0.3972  1.0817 -1.0333
 1020MOL0     C34567   1.337   2.450   4.735 -0.7699 -0.4070  0.1423
 1020MOL0     C34568   1.350   2.552   4.619  1.1072  0.5275 -0.5492
 1020MOL0     C34569   1.381   2.695   4.668 -0.6329  0.2500 -0.3224
 1020MOL0     C34570   1.418   2.790   4.554  0.2125 -0.2555 -0.1700
 1020MOL0     C34571   1.313   2.813   4.453 -0.0355 -0.2396 -0.5610
 1020MOL0     C34572   1.221   2.832   4.376 -0.4298  0.2235  0.9133
 1020MOL0     C34573   0.984   2.464   4.863 -1.2642 -0.5489 -0.9717
 1020MOL0     C34574   0.860   2.407   4.854  0.4964 -0.3859 -0.7775
 1020MOL0     H34575   0.498   2.456   4.650 -0.4110  0.6940 -0.0782
 1020MOL0     H34576   0.238   2.447   4.609 -1.0611  0.2065  1.0797
 1020MOL0     H34577   0.002   2.213   4.897  1.8052 -1.4673 -0.9922
 1020MOL0     H34578  -0.011   2.131   4.740  1.4409  2.1750 -1.9497
 1020MOL0     H34579  -0.235   2.184   4.809  0.3302 -0.9210 -1.4611
 1020MOL0     H34580  -0.197   2.305   4.680  1.4457 -1.7686 -1.0110
 1020MOL0     H34581  -0.141   2.475   4.864  2.0313 -0.8375  1.6579
 1020MOL0     H34582  -0.167   2.351   4.987 -0.0579  1.6152  0.7496
 1020MOL0     H34583  -0.367   2.483   4.789 -0.5547  0.7382  0.0795
 1020MOL0     H34584  -0.416   2.342   4.885 -3.0835  1.5593  0.7135
 1020MOL0     H34585  -0.329   2.608   4.992 -2.4144  0.6161 -0.3794
 1020MOL0     H34586  -0.387   2.472   5.094 -4.7980 -0.8203  0.2872
 1020MOL0     H34587  -0.611   2.520   4.922 -1.2702  3.1027 -2.5038
 1020MOL0     H34588  -0.524   2.663   4.917  2.7129  0.3123  0.3806
 1020MOL0     H34589  -0.525   2.663   5.180  1.1640 -0.9432 -0.5503
 1020MOL0     H34590  -0.691   2.662   5.098 -0.0590 -2.2375  0.9357
 1020MOL0     H34591  -0.568   2.437   5.242  1.6219  1.0913  1.1725
 1020MOL0     H34592  -0.703   2.415   5.124 -0.3211  0.8147 -0.4338
 1020MOL0     H34593  -0.644   2.638   5.442 -1.4561  0.0323  1.6511
 1020MOL0     H34594  -0.858   2.548   5.676  0.0998 -1.0270 -1.1187
 1020MOL0     H34595  -1.013   2.618   5.611 -0.2748 -0.3813  0.9926
 1020MOL0     H34596  -0.744   2.766   5.621 -0.1670 -3.7379 -0.5665
 1020MOL0     H34597  -0.879   2.799   5.734 -0.2896  1.4266 -0.1751
 1020MOL0     H34598  -0.880   2.970   5.551 -3.2383  1.4224  1.9180
 1020MOL0     H34599  -0.914   2.857   5.427 -0.5610  0.6256  0.6036
 1020MOL0     H34600  -1.125   2.781   5.543 -1.0559  0.4831  0.8233
 1020MOL0     H34601  -1.124   2.931   5.476  2.1158  0.1118 -0.1068
 1020MOL0     H34602  -1.322   2.784   5.618 -2.4297  0.1153 -0.1865
 1020MOL0     H34603  -1.520   2.735   5.772 -0.1818 -0.6122  2.0314
 1020MOL0     H34604  -1.926   2.793   5.882 -0.0846 -0.2762 -0.2809
 1020MOL0     H34605  -2.125   2.728   5.979 -1.2250 -1.4096  0.8365
 1020MOL0     H34606  -2.067   2.445   6.354  2.9303 -3.1624 -0.9380
 1020MOL0     H34607  -2.072   2.364   6.197  0.3848  0.3993  0.2632
 1020MOL0     H34608  -2.252   2.290   6.374  0.3741 -0.1429  2.3921
 1020MOL0     H34609  -2.308   2.326   6.216 -0.3444 -0.9708  1.4070
 1020MOL0     H34610  -2.405   2.540   6.267 -0.8431  1.7484  0.2196
 1020MOL0     H34611  -2.315   2.554   6.403  2.5489 -0.7969 -1.1886
 1020MOL0     H34612  -2.531   2.338   6.366  0.7860  0.2599 -2.6927
 1020MOL0     H34613  -2.458   2.393   6.520  3.2859  0.2264 -1.6116
 1020MOL0     H34614  -2.642   2.528   6.320 -0.8195  0.5682 -0.0231
 1020MOL0     H34615  -2.557   2.622   6.443  3.1008 -1.1853 -0.0185
 1020MOL0     H34616  -2.661   2.492   6.614  1.1809 -1.8780  0.7625
 1020MOL0     H34617  -2.743   2.377   6.503 -2.0265  0.9473 -1.0657
 1020MOL0     H34618  -2.790   2.667   6.458  0.0576 -1.0188  0.8210
 1020MOL0     H34619  -2.895   2.542   6.427  1.9702 -0.6951 -1.9665
 1020MOL0     H34620  -2.972   2.684   6.630  0.8715  1.5170 -3.6397
 1020MOL0     H34621  -2.806   2.682   6.690  0.9887 -0.2296 -2.8441
 1020MOL0     H34622  -1.895   2.513   6.285 -0.2428 -0.2840 -0.1731
 1020MOL0     H34623  -1.682   2.612   6.179  0.5457  1.6400 -0.6128
 1020MOL0     H34624  -1.355   2.964   6.074 -0.8288  0.2737  0.4938
 1020MOL0     H34625  -1.147   3.010   5.935  1.5363 -1.6662  0.4931
 1020MOL0     H34626   0.204   2.123   4.892  0.8048 -0.4047 -0.3039
 1020MOL0     H34627   0.441   2.126   4.924  1.1699 -1.3195 -2.1647
 1020MOL0     H34628   0.922   2.242   4.564  1.3701 -0.4050  0.5790
 1020MOL0     H34629   1.151   2.321   4.616  1.6530 -0.8581  2.3334
 1020MOL0     H34630   1.340   2.349   4.693 -3.1181 -1.4941  2.3303
 1020MOL0     H34631   1.425   2.465   4.799 -2.6558  1.2826  2.4822
 1020MOL0     H34632   1.438   2.516   4.565  1.4587 -0.3523  0.5555
 1020MOL0     H34633   1.257   2.545   4.561 -0.1733 -0.6625  1.5011
 1020MOL0     H34634   1.470   2.699   4.731 -0.6324 -2.6417 -0.0226
 1020MOL0     H34635   1.297   2.746   4.717 -0.9009  1.7060 -2.1649
 1020MOL0     H34636   1.438   2.886   4.603 -1.0508 -0.7007  1.3080
 1020MOL0     H34637   1.509   2.771   4.497  0.0127 -1.4203 -0.1268
 1020MOL0     H34638   1.152   2.838   4.295 -0.6268  1.5654  1.1539
 1020MOL0     H34639   1.011   2.528   4.947 -1.7010 -2.7095  0.9054
 1020MOL0     H34640   0.772   2.423   4.916 -0.5460 -6.2686 -0.1392
 1021MOL0     O34641   0.526   5.467  10.987 -0.6724  0.2262  0.1324
 1021MOL0     C34642   0.565   5.467  11.103  0.8171 -0.7270 -0.3264
 1021MOL0     O34643   0.486   5.507  11.208  0.4507  0.1007  0.1273
 1021MOL0     C34644   0.355   5.567  11.210 -0.2219  0.7515  0.4886
 1021MOL0     C34645   0.280   5.600  11.093 -0.2401  0.8636  0.8360
 1021MOL0     C34646   0.145   5.646  11.105 -0.5987  0.0335  0.4156
 1021MOL0     C34647   0.080   5.668  11.229  0.5592 -0.9752  0.4271
 1021MOL0     O34648  -0.053   5.711  11.231 -0.0796 -0.6146 -0.0978
 1021MOL0     C34649  -0.126   5.673  11.348 -0.3860  0.0311 -0.5097
 1021MOL0     C34650  -0.279   5.679  11.319  0.2419 -0.4956 -0.0266
 1021MOL0     C34651  -0.359   5.622  11.435 -0.7586  0.2688  0.1436
 1021MOL0     C34652  -0.511   5.621  11.408 -0.1240 -0.7022  0.4719
 1021MOL0     C34653  -0.594   5.592  11.536 -0.2574  0.5749 -0.6016
 1021MOL0     C34654  -0.637   5.720  11.619  0.1176 -0.0663  0.3348
 1021MOL0     C34655  -0.742   5.714  11.741 -0.4261  0.2607  0.1389
 1021MOL0     C34656  -0.854   5.609  11.731 -0.8429 -0.6572 -0.5614
 1021MOL0     N34657  -0.924   5.608  11.604  1.0527  0.4568 -1.0196
 1021MOL0     C34658  -1.000   5.713  11.551 -0.1218  0.9927 -0.5665
 1021MOL0     C34659  -1.068   5.651  11.452 -0.1954  0.1695  1.0397
 1021MOL0     C34660  -1.176   5.720  11.374  0.2919 -0.0919 -0.2914
 1021MOL0     C34661  -1.145   5.737  11.220 -0.2793  0.0467  0.7030
 1021MOL0     C34662  -1.254   5.806  11.142 -0.7586  0.3400  0.2198
 1021MOL0     C34663  -1.285   5.942  11.203  0.0482  0.5773  0.0984
 1021MOL0     O34664  -1.375   6.026  11.132 -0.1530 -0.2361  0.0531
 1021MOL0     C34665  -1.509   6.010  11.137  0.9937  1.1012 -0.9102
 1021MOL0     C34666  -1.600   6.104  11.084 -0.4777  0.3659 -0.2647
 1021MOL0     C34667  -1.733   6.112  11.129  0.4504 -0.0875 -0.0165
 1021MOL0     C34668  -1.783   6.012  11.218  0.3785  0.9297 -0.1841
 1021MOL0     C34669  -1.934   5.998  11.237 -0.2852  0.7451 -0.8503
 1021MOL0     O34670  -2.010   6.091  11.179  0.0130  0.8082  0.4355
 1021MOL0     C34671  -2.144   6.131  11.198 -0.3180 -0.0959 -0.1567
 1021MOL0     C34672  -2.232   6.082  11.291  0.3133  0.0722 -0.5541
 1021MOL0     C34673  -2.359   6.138  11.305  0.5223 -0.1500  0.3033
 1021MOL0     C34674  -2.399   6.249  11.224  0.8845  0.1469 -0.4067
 1021MOL0     O34675  -2.524   6.306  11.208 -0.6155 -0.1968 -0.8663
 1021MOL0     C34676  -2.603   6.340  11.321  0.3199  0.0131 -0.6468
 1021MOL0     C34677  -2.735   6.406  11.267 -0.5249  0.5225 -0.4188
 1021MOL0     C34678  -2.801   6.498  11.373  0.1503  0.5124 -0.3506
 1021MOL0     C34679  -2.926   6.568  11.338  0.2140 -0.0910 -0.7158
 1021MOL0     C34680  -3.016   6.601  11.454  0.1340 -0.2785 -0.0791
 1021MOL0     C34681  -3.145   6.676  11.407 -0.0923  0.3823  0.3639
 1021MOL0     C34682  -3.222   6.737  11.526  0.1815 -0.9019 -0.0125
 1021MOL0     C34683  -3.170   6.884  11.554 -0.2413  0.9006 -0.7656
 1021MOL0    Cl34684  -3.246   6.997  11.444 -0.4407 -0.3834 -0.3944
 1021MOL0     C34685  -2.305   6.304  11.135  0.2588 -0.6762 -0.9407
 1021MOL0     C34686  -2.182   6.247  11.118  0.6772 -0.7189  1.2250
 1021MOL0     O34687  -1.974   5.910  11.306 -1.2105  0.4785 -0.1504
 1021MOL0     C34688  -1.703   5.900  11.247 -0.0877  0.1004 -0.1064
 1021MOL0     C34689  -1.567   5.896  11.204 -0.4524 -0.2388  0.5749
 1021MOL0     N34690  -1.041   5.519  11.439  0.5628 -0.8486  0.4297
 1021MOL0     N34691  -0.951   5.492  11.528 -0.6292  1.0693 -0.1003
 1021MOL0     C34692   0.164   5.641  11.343  0.2014  0.0677  0.5516
 1021MOL0     C34693   0.291   5.583  11.328 -0.2310 -0.6134 -1.3298
 1021MOL0     C34694   0.704   5.428  11.136 -0.1840  0.0573 -0.0954
 1021MOL0     C34695   0.798   5.394  11.036  0.8499  0.9059  0.2769
 1021MOL0     C34696   0.930   5.372  11.077  0.5523 -0.5285 -1.2006
 1021MOL0     C34697   0.964   5.359  11.215 -0.4469  0.0400  0.3093
 1021MOL0     O34698   1.103   5.347  11.232 -0.4348  0.4482  0.3179
 1021MOL0     C34699   1.173   5.376  11.350 -0.1133 -0.4335 -0.3063
 1021MOL0     C34700   1.299   5.294  11.357  0.5960  0.3944  0.0703
 1021MOL0     C34701   1.246   5.151  11.351 -0.4018 -0.2090 -0.0509
 1021MOL0     C34702   1.367   5.058  11.377  0.1142 -0.4597 -0.2035
 1021MOL0     C34703   1.321   4.921  11.404 -0.5651 -0.2465  0.5120
 1021MOL0     C34704   1.294   4.805  11.442  0.2255 -0.3222  0.7876
 1021MOL0     C34705   0.876   5.402  11.314  0.0471  0.7485  0.4735
 1021MOL0     C34706   0.745   5.439  11.274 -0.5884  0.5252 -0.3199
 1021MOL0     H34707   0.309   5.583  10.990 -0.6675  0.0286  0.8419
 1021MOL0     H34708   0.089   5.670  11.015 -0.6643  0.5323  0.5844
 1021MOL0     H34709  -0.103   5.732  11.438 -1.5207 -2.8439  1.8152
 1021MOL0     H34710  -0.100   5.569  11.369  0.6245  0.1317 -1.1817
 1021MOL0     H34711  -0.297   5.608  11.238  1.1151 -1.9708  1.0195
 1021MOL0     H34712  -0.307   5.780  11.288  2.9754  0.4695  0.4503
 1021MOL0     H34713  -0.332   5.700  11.507  1.5991  0.3275 -0.7123
 1021MOL0     H34714  -0.314   5.527  11.464  1.5038  0.9761 -0.8824
 1021MOL0     H34715  -0.543   5.714  11.359 -1.2513 -1.6453 -0.6668
 1021MOL0     H34716  -0.528   5.535  11.343 -1.3903  0.3291 -0.6238
 1021MOL0     H34717  -0.531   5.528  11.599 -0.4620  1.2159  0.2779
 1021MOL0     H34718  -0.688   5.538  11.521  0.5476 -0.6605 -1.3422
 1021MOL0     H34719  -0.700   5.783  11.555 -2.4934 -0.0233  2.7537
 1021MOL0     H34720  -0.547   5.778  11.638 -0.7153  0.9179  1.4642
 1021MOL0     H34721  -0.689   5.684  11.832  1.9697 -1.0489 -1.5857
 1021MOL0     H34722  -0.771   5.818  11.760  1.1912  0.5174  1.4304
 1021MOL0     H34723  -0.921   5.642  11.810  2.0820  3.0424  0.6497
 1021MOL0     H34724  -0.817   5.506  11.745 -2.3727 -1.4120 -1.8135
 1021MOL0     H34725  -1.010   5.816  11.585  3.3130  1.5931 -1.0203
 1021MOL0     H34726  -1.208   5.815  11.416  0.3877  0.4361 -1.3706
 1021MOL0     H34727  -1.253   5.642  11.374 -0.4910  0.6671  0.8630
 1021MOL0     H34728  -1.132   5.636  11.179 -1.4062  0.3778 -0.5490
 1021MOL0     H34729  -1.046   5.782  11.206 -0.3464 -0.3893 -1.5693
 1021MOL0     H34730  -1.206   5.816  11.045 -2.6104  0.2509 -0.7592
 1021MOL0     H34731  -1.346   5.748  11.134  1.5727 -3.4638 -1.3955
 1021MOL0     H34732  -1.195   6.003  11.206  0.8472 -0.5720  0.3667
 1021MOL0     H34733  -1.320   5.937  11.307 -3.0551 -0.6336 -0.8835
 1021MOL0     H34734  -1.552   6.187  11.034 -0.7379  2.5380  2.8486
 1021MOL0     H34735  -1.800   6.180  11.078  3.0680 -0.1719 -3.9395
 1021MOL0     H34736  -2.222   5.988  11.344 -2.4270 -0.2755 -0.5305
 1021MOL0     H34737  -2.417   6.077  11.373  5.1255 -2.2331  2.7984
 1021MOL0     H34738  -2.552   6.412  11.386 -0.1772  0.3616 -0.6352
 1021MOL0     H34739  -2.626   6.258  11.389  2.8586 -0.6089 -0.4431
 1021MOL0     H34740  -2.806   6.332  11.229 -0.3146  0.3307 -0.4460
 1021MOL0     H34741  -2.714   6.468  11.179 -0.7794  1.5800  0.2485
 1021MOL0     H34742  -2.732   6.581  11.391  1.5912 -0.3603 -1.6790
 1021MOL0     H34743  -2.799   6.443  11.467 -1.1851  0.9405 -0.0423
 1021MOL0     H34744  -2.899   6.660  11.285  0.7953  0.0018 -0.2695
 1021MOL0     H34745  -2.990   6.515  11.267 -2.8062  1.4037  0.7283
 1021MOL0     H34746  -2.970   6.663  11.531 -0.5117 -0.5666  0.5458
 1021MOL0     H34747  -3.043   6.506  11.502  0.4210 -1.5519 -2.2906
 1021MOL0     H34748  -3.199   6.596  11.355  2.4021 -1.2144  0.0296
 1021MOL0     H34749  -3.105   6.746  11.333  0.0469 -1.4966 -1.4560
 1021MOL0     H34750  -3.331   6.746  11.519 -0.0517 -1.7538  1.8637
 1021MOL0     H34751  -3.204   6.673  11.613 -1.0742 -2.3770 -0.7901
 1021MOL0     H34752  -3.061   6.878  11.555 -0.2573  0.5839  0.1898
 1021MOL0     H34753  -3.199   6.898  11.658  0.9087 -1.6858 -0.0256
 1021MOL0     H34754  -2.350   6.385  11.080  2.2440  1.3509  0.2669
 1021MOL0     H34755  -2.117   6.284  11.039 -2.0982 -0.5079 -1.1265
 1021MOL0     H34756  -1.740   5.812  11.300 -0.5630 -0.3794 -1.2148
 1021MOL0     H34757  -1.518   5.808  11.244 -1.4851  0.1028  2.7157
 1021MOL0     H34758   0.134   5.646  11.447 -1.2215  0.6015  0.1465
 1021MOL0     H34759   0.360   5.564  11.409  1.2302  1.3299 -2.0215
 1021MOL0     H34760   0.776   5.402  10.930  0.1370 -0.0203  0.3432
 1021MOL0     H34761   1.013   5.357  11.009  2.3996  2.1311  0.2604
 1021MOL0     H34762   1.113   5.349  11.438 -2.2806 -3.2730 -2.4509
 1021MOL0     H34763   1.197   5.482  11.355  2.6557 -1.0477  1.6675
 1021MOL0     H34764   1.366   5.318  11.274  2.3430 -0.3607  1.1894
 1021MOL0     H34765   1.344   5.319  11.454  0.5274  4.8098 -0.8102
 1021MOL0     H34766   1.213   5.128  11.249 -1.2548  1.7665 -0.2832
 1021MOL0     H34767   1.166   5.141  11.424 -1.7445  1.3373 -1.2251
 1021MOL0     H34768   1.436   5.073  11.293 -0.7243  0.5855 -0.7253
 1021MOL0     H34769   1.422   5.082  11.468  1.7341 -1.4574 -0.8629
 1021MOL0     H34770   1.274   4.706  11.478 -1.5108  0.3409  1.7590
 1021MOL0     H34771   0.918   5.407  11.414  2.6444  3.7167 -0.5650
 1021MOL0     H34772   0.684   5.490  11.347 -0.0429  1.3562 -0.4341
 1022MOL0     O34773   6.165  10.122   1.419  0.1233 -0.7173  0.6122
 1022MOL0     C34774   6.262  10.144   1.341  0.0076 -0.4565 -0.6389
 1022MOL0     O34775   6.262  10.142   1.200  0.1433 -0.1617  0.8466
 1022MOL0     C34776   6.158  10.115   1.118 -0.2226  0.4081  0.4791
 1022MOL0     C34777   6.022  10.103   1.157 -0.7761  0.3288 -0.2494
 1022MOL0     C34778   5.924  10.057   1.065 -0.3433  0.7401 -0.5531
 1022MOL0     C34779   5.972   9.997   0.943  0.3810 -0.2373  0.5618
 1022MOL0     O34780   5.893   9.925   0.857 -0.4300 -0.0827 -0.3021
 1022MOL0     C34781   5.762   9.895   0.906 -0.1448  0.8887 -0.0996
 1022MOL0     C34782   5.686   9.805   0.791 -0.0410  1.2287 -0.1607
 1022MOL0     C34783   5.533   9.798   0.817  0.2733  1.2803 -0.0809
 1022MOL0     C34784   5.449   9.716   0.713 -0.3403 -0.5050 -0.3798
 1022MOL0     C34785   5.441   9.560   0.734 -0.4990  0.9256 -0.2048
 1022MOL0     C34786   5.406   9.487   0.607 -0.0024 -0.5663 -0.1281
 1022MOL0     C34787   5.398   9.334   0.598  0.6816  0.0427 -0.0432
 1022MOL0     C34788   5.277   9.278   0.681 -0.3917  0.2545 -0.9566
 1022MOL0     N34789   5.227   9.145   0.631 -0.7878 -0.8600 -0.0989
 1022MOL0     C34790   5.117   9.133   0.561 -0.0930  0.0824 -1.0045
 1022MOL0     C34791   5.081   9.005   0.571 -0.3018  0.2398 -0.6467
 1022MOL0     C34792   4.960   8.931   0.515 -0.2044 -1.0396 -0.0217
 1022MOL0     C34793   4.824   9.001   0.526  0.6516  0.4090 -0.2325
 1022MOL0     C34794   4.789   9.057   0.666 -0.1132  0.4841  0.1983
 1022MOL0     C34795   4.637   9.077   0.674  0.4926  0.1591  0.4337
 1022MOL0     O34796   4.564   8.957   0.648  0.5591 -0.0604  0.8742
 1022MOL0     C34797   4.425   8.961   0.665 -0.4111 -0.3444  0.8586
 1022MOL0     C34798   4.347   9.075   0.660  0.3985 -0.0802 -0.1886
 1022MOL0     C34799   4.207   9.062   0.676  0.3909 -0.2726  0.1054
 1022MOL0     C34800   4.147   8.941   0.691  0.0239  0.4444 -0.3321
 1022MOL0     C34801   3.999   8.943   0.685 -0.0363 -0.3037 -0.1609
 1022MOL0     O34802   3.939   8.812   0.693 -0.0935  0.4804 -0.6393
 1022MOL0     C34803   3.806   8.813   0.731  0.1995  1.1633 -0.3131
 1022MOL0     C34804   3.769   8.799   0.861 -0.1985 -0.2778 -0.1366
 1022MOL0     C34805   3.624   8.795   0.892  0.5239  0.4784 -0.5317
 1022MOL0     C34806   3.527   8.804   0.794 -0.2518  0.2434 -0.2988
 1022MOL0     O34807   3.393   8.785   0.823 -0.9208  0.1963  0.2645
 1022MOL0     C34808   3.329   8.834   0.946 -0.0031 -0.3563  0.0701
 1022MOL0     C34809   3.184   8.878   0.922 -0.3390 -0.1528 -0.1858
 1022MOL0     C34810   3.097   8.754   0.901 -0.3035  0.3876  1.0382
 1022MOL0     C34811   2.964   8.797   0.826  0.1456 -0.2946  0.3459
 1022MOL0     C34812   2.853   8.691   0.852 -0.6620 -0.4944 -0.5965
 1022MOL0     C34813   2.727   8.717   0.772 -0.1467 -0.2531  0.1251
 1022MOL0     C34814   2.642   8.599   0.756 -0.1640  0.5774 -0.2272
 1022MOL0     C34815   2.531   8.619   0.652 -0.6140  0.8628  0.1964
 1022MOL0    Cl34816   2.444   8.779   0.657 -0.5722 -0.2347 -0.1185
 1022MOL0     C34817   3.561   8.826   0.664 -0.6530  0.1384  0.2562
 1022MOL0     C34818   3.704   8.828   0.637 -0.1650 -0.9371 -0.9368
 1022MOL0     O34819   3.939   9.047   0.697 -0.0547  0.3994  0.0101
 1022MOL0     C34820   4.229   8.823   0.705 -0.4146 -0.5373  0.8343
 1022MOL0     C34821   4.366   8.837   0.675  0.1195 -0.5845 -0.1736
 1022MOL0     N34822   5.167   8.942   0.659  0.2360 -0.3451  0.0142
 1022MOL0     N34823   5.258   9.027   0.700  0.6372  0.2991  0.2776
 1022MOL0     C34824   6.110   9.994   0.911 -0.0103  0.5812  0.3732
 1022MOL0     C34825   6.201  10.061   0.997  1.1473 -0.0957  0.5809
 1022MOL0     C34826   6.392  10.182   1.404  0.4390 -0.6913  0.2764
 1022MOL0     C34827   6.451  10.110   1.516 -0.8408  0.6828  0.5537
 1022MOL0     C34828   6.580  10.161   1.562  0.7138 -0.4784 -0.5989
 1022MOL0     C34829   6.649  10.261   1.503 -0.2093  0.5699 -0.2029
 1022MOL0     O34830   6.775  10.308   1.536 -0.5798 -0.2174  0.1647
 1022MOL0     C34831   6.810  10.304   1.678  0.2454 -0.5216  0.6826
 1022MOL0     C34832   6.956  10.323   1.697 -0.0060 -0.1828  0.3250
 1022MOL0     C34833   6.998  10.472   1.643  0.1057  0.3085 -0.0766
 1022MOL0     C34834   7.148  10.511   1.647  0.4192  0.0991 -0.1505
 1022MOL0     C34835   7.227  10.421   1.569 -0.0322  0.3582  0.2486
 1022MOL0     C34836   7.299  10.366   1.484  0.4635 -0.8052  0.2657
 1022MOL0     C34837   6.602  10.318   1.390  0.4329  0.1701 -0.1371
 1022MOL0     C34838   6.471  10.291   1.349  0.1704 -0.4512 -0.5324
 1022MOL0     H34839   5.998  10.156   1.249  1.1331 -1.7179  1.5361
 1022MOL0     H34840   5.822  10.061   1.102 -0.0871 -0.3233  0.3295
 1022MOL0     H34841   5.712   9.991   0.921  1.8849  2.4613 -2.4939
 1022MOL0     H34842   5.756   9.833   0.996  2.5961  1.0430  0.2813
 1022MOL0     H34843   5.718   9.701   0.802 -1.5295  0.9106  1.5943
 1022MOL0     H34844   5.704   9.848   0.692 -2.8905  1.5981 -0.5782
 1022MOL0     H34845   5.499   9.902   0.803 -1.3717  0.5011 -2.7141
 1022MOL0     H34846   5.500   9.755   0.911 -0.0488  0.0678 -0.7286
 1022MOL0     H34847   5.352   9.766   0.714 -0.3671 -0.5562 -0.4024
 1022MOL0     H34848   5.489   9.733   0.613 -0.7221 -1.9504 -0.7957
 1022MOL0     H34849   5.369   9.541   0.814 -0.3569  2.8953  0.4461
 1022MOL0     H34850   5.544   9.545   0.768 -0.7359  0.1439  0.1898
 1022MOL0     H34851   5.491   9.510   0.541  0.3863 -0.9908  0.2146
 1022MOL0     H34852   5.321   9.536   0.559  0.4182 -0.3486 -0.6711
 1022MOL0     H34853   5.382   9.301   0.495  1.8707 -1.8212  0.3074
 1022MOL0     H34854   5.490   9.282   0.627  0.1319 -0.6294  0.5634
 1022MOL0     H34855   5.197   9.353   0.677 -1.2645 -0.5406  0.8079
 1022MOL0     H34856   5.316   9.275   0.783 -1.6290  0.9857 -0.4401
 1022MOL0     H34857   5.066   9.214   0.511 -0.1938 -0.9586 -2.6971
 1022MOL0     H34858   4.953   8.844   0.580 -0.2163 -1.2926 -0.3625
 1022MOL0     H34859   4.981   8.894   0.414  3.2854  3.4244 -1.2645
 1022MOL0     H34860   4.750   8.932   0.484 -1.1086 -0.3208  3.6447
 1022MOL0     H34861   4.830   9.093   0.467  1.3185 -0.7380 -2.0348
 1022MOL0     H34862   4.810   8.984   0.744  1.3913  0.1632 -0.4787
 1022MOL0     H34863   4.850   9.143   0.697  2.7421 -2.6215  4.2118
 1022MOL0     H34864   4.610   9.140   0.590 -2.7023 -1.5784  0.0036
 1022MOL0     H34865   4.599   9.112   0.770  1.5243 -1.1053  1.3569
 1022MOL0     H34866   4.379   9.176   0.635  2.6918 -0.6543  0.1962
 1022MOL0     H34867   4.155   9.158   0.666  0.6748 -0.1095  0.1876
 1022MOL0     H34868   3.842   8.803   0.940  0.2500 -1.1709 -0.4877
 1022MOL0     H34869   3.582   8.794   0.992  0.1659 -2.8339 -0.6153
 1022MOL0     H34870   3.376   8.927   0.978 -3.0917  1.9685 -1.6696
 1022MOL0     H34871   3.341   8.753   1.019 -0.0768 -0.1891  0.2681
 1022MOL0     H34872   3.196   8.956   0.846  0.8831 -0.8030 -0.6903
 1022MOL0     H34873   3.147   8.920   1.016 -2.8327  0.4690 -1.3672
 1022MOL0     H34874   3.065   8.706   0.994 -0.9083  0.9643  1.1341
 1022MOL0     H34875   3.145   8.679   0.838 -0.3251  0.3567  1.0583
 1022MOL0     H34876   2.931   8.893   0.866  0.6778 -0.1804  0.5184
 1022MOL0     H34877   2.974   8.784   0.717 -1.1406 -2.1441  0.3902
 1022MOL0     H34878   2.828   8.694   0.959 -1.7949  2.5995 -0.8377
 1022MOL0     H34879   2.885   8.590   0.826 -0.7998 -0.6835 -0.0513
 1022MOL0     H34880   2.754   8.751   0.672 -0.0080 -1.5189 -0.2805
 1022MOL0     H34881   2.662   8.794   0.813 -5.1723 -3.3387 -1.1914
 1022MOL0     H34882   2.688   8.502   0.736  1.4728  0.9500  1.4571
 1022MOL0     H34883   2.603   8.590   0.858  1.0659  0.5335  0.2608
 1022MOL0     H34884   2.464   8.533   0.650  1.2981 -0.7015  0.2785
 1022MOL0     H34885   2.563   8.609   0.548 -1.8662 -2.4367  0.0170
 1022MOL0     H34886   3.487   8.850   0.588 -0.3506  1.6150  0.4080
 1022MOL0     H34887   3.725   8.831   0.531 -0.4292  0.3468 -0.9686
 1022MOL0     H34888   4.171   8.733   0.723 -0.0621 -0.7547  0.8921
 1022MOL0     H34889   4.423   8.745   0.665  0.8827 -0.1539  0.1525
 1022MOL0     H34890   6.146   9.942   0.823 -2.4201 -0.3445 -0.1443
 1022MOL0     H34891   6.309  10.059   0.997  1.3181  3.2116  1.8584
 1022MOL0     H34892   6.406  10.027   1.570 -0.5651  0.8998  1.1207
 1022MOL0     H34893   6.610  10.112   1.654  0.0407 -2.2111 -1.2518
 1022MOL0     H34894   6.787  10.206   1.719 -0.8124 -0.4925  0.1998
 1022MOL0     H34895   6.761  10.388   1.728  1.6863  1.6195 -1.2944
 1022MOL0     H34896   6.969  10.314   1.805  0.6393 -1.1754  0.1687
 1022MOL0     H34897   7.000  10.236   1.648 -4.2746 -1.3731 -1.8594
 1022MOL0     H34898   6.933  10.542   1.695  0.8445  1.8976 -1.2291
 1022MOL0     H34899   6.961  10.473   1.540 -0.3770  1.3291  0.1009
 1022MOL0     H34900   7.166  10.615   1.619 -3.4505  1.0951  0.4774
 1022MOL0     H34901   7.177  10.488   1.750  0.1243 -0.1225 -0.1152
 1022MOL0     H34902   7.338  10.308   1.403 -4.4302 -3.0295 -0.8455
 1022MOL0     H34903   6.665  10.395   1.346  0.3899  2.3371  3.1837
 1022MOL0     H34904   6.426  10.346   1.267 -2.3165  0.6186  1.4140
 1023MOL0     O34905  10.266   8.294   6.687 -0.5880 -0.3333 -1.0102
 1023MOL0     C34906  10.311   8.183   6.654 -0.7129 -0.2731  0.2458
 1023MOL0     O34907  10.242   8.079   6.604 -0.5751  0.0740  0.0605
 1023MOL0     C34908  10.110   8.065   6.629  0.2377 -0.5973  0.4805
 1023MOL0     C34909  10.078   7.963   6.719  0.2114 -0.5209 -0.3318
 1023MOL0     C34910   9.944   7.938   6.744 -0.4104  0.9723  1.4725
 1023MOL0     C34911   9.836   8.017   6.681 -0.1782 -0.2204 -0.2307
 1023MOL0     O34912   9.708   7.994   6.710 -0.5192 -0.4601  0.3688
 1023MOL0     C34913   9.671   7.850   6.746 -0.2738 -0.3723 -0.2394
 1023MOL0     C34914   9.522   7.831   6.706 -0.5877  0.5796  0.2494
 1023MOL0     C34915   9.442   7.775   6.820 -1.4427 -0.5493 -0.0677
 1023MOL0     C34916   9.301   7.745   6.770  0.1362  0.9466 -0.5204
 1023MOL0     C34917   9.254   7.643   6.870  0.2020  0.2571  0.3442
 1023MOL0     C34918   9.117   7.592   6.812  0.0410  0.3237  1.0802
 1023MOL0     C34919   9.033   7.524   6.923 -0.7116  0.0744  0.6454
 1023MOL0     C34920   8.969   7.628   7.015  0.5549  0.3649 -0.0430
 1023MOL0     N34921   8.853   7.706   6.949  0.4852 -0.1160 -0.0658
 1023MOL0     C34922   8.748   7.661   6.877  0.4585 -0.6958 -0.5159
 1023MOL0     C34923   8.664   7.764   6.845 -0.1827  0.3228  0.0363
 1023MOL0     C34924   8.536   7.749   6.773 -0.1407  1.5962 -0.1293
 1023MOL0     C34925   8.516   7.869   6.669  0.5528  0.2078  0.2296
 1023MOL0     C34926   8.583   7.847   6.536  0.2075  0.0945  1.0488
 1023MOL0     C34927   8.735   7.846   6.548 -0.6384  0.1971  0.7293
 1023MOL0     O34928   8.789   7.809   6.420 -0.9249  0.0446 -0.2426
 1023MOL0     C34929   8.918   7.843   6.375  0.1114  0.3620  0.7133
 1023MOL0     C34930   9.013   7.896   6.461  0.4327  0.5965  0.1393
 1023MOL0     C34931   9.149   7.891   6.423  0.5058 -0.2419  0.1993
 1023MOL0     C34932   9.189   7.846   6.298 -0.2963  0.5112  0.6499
 1023MOL0     C34933   9.336   7.856   6.269 -0.5698 -0.1819 -0.7479
 1023MOL0     O34934   9.409   7.917   6.372 -0.3682  0.0641 -0.9432
 1023MOL0     C34935   9.544   7.927   6.354  0.5218 -0.0218  0.4989
 1023MOL0     C34936   9.608   8.043   6.302 -0.1589  0.6515  0.7493
 1023MOL0     C34937   9.745   8.052   6.280  0.3716  0.5857  0.3118
 1023MOL0     C34938   9.828   7.945   6.306  0.1508  0.6258 -0.0908
 1023MOL0     O34939   9.956   7.955   6.263 -0.4249  0.9541 -1.0040
 1023MOL0     C34940  10.050   7.853   6.303  0.6635 -0.0645 -0.4583
 1023MOL0     C34941  10.183   7.921   6.272 -0.1386 -0.3382 -0.6520
 1023MOL0     C34942  10.302   7.836   6.325  0.4319 -0.6182  0.1037
 1023MOL0     C34943  10.303   7.686   6.286  0.0803 -0.3719 -0.5557
 1023MOL0     C34944  10.443   7.639   6.332  1.0548 -0.2951  0.4884
 1023MOL0     C34945  10.461   7.485   6.327 -0.2907  0.6258 -0.4432
 1023MOL0     C34946  10.451   7.420   6.186  0.2287 -0.8168 -0.9185
 1023MOL0     C34947  10.413   7.268   6.189 -0.6169  0.1513 -0.5751
 1023MOL0    Cl34948  10.235   7.263   6.250 -0.3360  0.1836  0.2354
 1023MOL0     C34949   9.768   7.824   6.364  0.0588 -0.0458 -0.2473
 1023MOL0     C34950   9.628   7.821   6.388 -0.1968 -0.5236 -0.5703
 1023MOL0     O34951   9.382   7.798   6.169 -0.3238  0.1469 -0.2472
 1023MOL0     C34952   9.092   7.802   6.203 -0.0872  0.3285 -0.4130
 1023MOL0     C34953   8.954   7.803   6.245  0.5804 -0.2396  0.8644
 1023MOL0     N34954   8.731   7.884   6.879  0.0452 -0.5607  0.2512
 1023MOL0     N34955   8.845   7.843   6.938  0.4074  0.1608  0.5676
 1023MOL0     C34956   9.873   8.116   6.590  0.5418 -0.4841 -0.6755
 1023MOL0     C34957  10.007   8.142   6.569  0.3322  0.1913 -0.0687
 1023MOL0     C34958  10.465   8.157   6.646  0.4685  0.7992 -0.6906
 1023MOL0     C34959  10.507   8.026   6.604 -0.2617  0.7539  0.1529
 1023MOL0     C34960  10.648   7.989   6.603 -0.4632 -0.4223  0.8977
 1023MOL0     C34961  10.746   8.081   6.642 -0.5932 -0.0152  0.0839
 1023MOL0     O34962  10.880   8.062   6.648 -0.0861  0.1702  0.0054
 1023MOL0     C34963  10.931   7.929   6.652  1.1831  0.2176 -1.2068
 1023MOL0     C34964  11.000   7.896   6.524 -0.1806 -0.0837 -0.0041
 1023MOL0     C34965  11.045   7.750   6.531 -0.0501 -0.0115 -0.6213
 1023MOL0     C34966  11.149   7.708   6.420 -0.5206 -0.6877 -0.6000
 1023MOL0     C34967  11.095   7.717   6.282 -0.3992 -0.5080 -0.3535
 1023MOL0     C34968  11.045   7.735   6.172 -0.4904 -0.2286  0.4254
 1023MOL0     C34969  10.698   8.205   6.689 -0.2880  0.8221  0.6310
 1023MOL0     C34970  10.559   8.243   6.694 -0.3871  0.0520  0.4339
 1023MOL0     H34971  10.153   7.910   6.777 -0.6628  0.1171  1.4540
 1023MOL0     H34972   9.927   7.858   6.816  0.5081 -0.5927  0.0178
 1023MOL0     H34973   9.690   7.845   6.853 -1.3219  2.3122  0.1501
 1023MOL0     H34974   9.728   7.765   6.708  0.0525 -0.7495  1.0446
 1023MOL0     H34975   9.526   7.761   6.622 -0.7241 -0.2595  0.9318
 1023MOL0     H34976   9.469   7.917   6.663 -4.4268 -1.4785  0.4731
 1023MOL0     H34977   9.432   7.840   6.907 -1.6449  1.2761 -1.3899
 1023MOL0     H34978   9.487   7.680   6.850 -0.9506 -0.3061 -0.0305
 1023MOL0     H34979   9.237   7.833   6.764  0.8039  1.5757  1.0988
 1023MOL0     H34980   9.310   7.702   6.670 -1.7143  2.6307 -1.4712
 1023MOL0     H34981   9.229   7.691   6.965 -2.3460  1.1488 -0.6815
 1023MOL0     H34982   9.329   7.567   6.895 -0.2111 -1.4729 -3.0723
 1023MOL0     H34983   9.138   7.520   6.732  0.6139  0.2368  1.3065
 1023MOL0     H34984   9.060   7.677   6.773 -1.0792 -0.3388  1.2355
 1023MOL0     H34985   8.953   7.465   6.878 -0.1886 -0.1847  0.0419
 1023MOL0     H34986   9.091   7.462   6.993  1.4342 -0.2308 -1.2968
 1023MOL0     H34987   9.043   7.701   7.048  1.9062 -1.4959  1.2559
 1023MOL0     H34988   8.934   7.584   7.109 -1.2851  2.9265  0.6051
 1023MOL0     H34989   8.723   7.557   6.857  0.6060 -0.5573 -1.4861
 1023MOL0     H34990   8.462   7.748   6.854  1.0187 -0.2137  0.9766
 1023MOL0     H34991   8.532   7.648   6.732 -2.8542  1.9914 -1.0396
 1023MOL0     H34992   8.553   7.964   6.709  0.0232 -0.2727  1.9432
 1023MOL0     H34993   8.411   7.890   6.644  0.6783 -0.4294 -0.8663
 1023MOL0     H34994   8.546   7.759   6.482  1.8103 -0.2199  0.4081
 1023MOL0     H34995   8.548   7.933   6.480  2.0489  0.4362  0.3415
 1023MOL0     H34996   8.768   7.783   6.631 -0.4036  2.8961  2.8317
 1023MOL0     H34997   8.763   7.951   6.562 -0.6334  0.1998  0.6953
 1023MOL0     H34998   8.982   7.930   6.559  1.0665 -0.7811  0.8471
 1023MOL0     H34999   9.205   7.929   6.509  0.3550 -0.5418  0.4322
 1023MOL0     H35000   9.554   8.132   6.270 -0.9018 -0.9481 -2.9778
 1023MOL0     H35001   9.785   8.149   6.252  2.2183  1.6123  5.3501
 1023MOL0     H35002  10.041   7.760   6.246  3.8663 -1.6061  1.2694
 1023MOL0     H35003  10.037   7.827   6.408 -2.4545  1.1772 -0.4413
 1023MOL0     H35004  10.188   8.009   6.337 -1.3491 -0.4209 -0.4109
 1023MOL0     H35005  10.199   7.948   6.167 -1.3260 -1.5306 -1.1688
 1023MOL0     H35006  10.305   7.826   6.434  0.5573  2.8496  0.5297
 1023MOL0     H35007  10.392   7.884   6.288 -0.0237 -0.0529 -0.2783
 1023MOL0     H35008  10.226   7.636   6.345  3.7143 -1.4067  3.8285
 1023MOL0     H35009  10.286   7.666   6.180 -2.0071 -1.0821 -0.1397
 1023MOL0     H35010  10.480   7.678   6.427 -1.7202  0.8595  1.2139
 1023MOL0     H35011  10.504   7.680   6.251 -0.6615 -1.2319 -1.3754
 1023MOL0     H35012  10.389   7.444   6.399  0.0149  0.6511 -0.1179
 1023MOL0     H35013  10.563   7.472   6.364  0.1215 -0.2642 -1.8277
 1023MOL0     H35014  10.362   7.460   6.138 -1.0482 -1.5249  0.7588
 1023MOL0     H35015  10.543   7.437   6.129  0.6715  2.2286  0.4798
 1023MOL0     H35016  10.490   7.216   6.245 -0.8825 -0.1310 -0.4690
 1023MOL0     H35017  10.406   7.233   6.085  0.5735  0.4647 -0.7688
 1023MOL0     H35018   9.820   7.732   6.389 -1.4295 -0.2399  2.6290
 1023MOL0     H35019   9.579   7.731   6.426 -3.8201  1.5328  0.0885
 1023MOL0     H35020   9.107   7.752   6.107 -1.5448  0.8928 -0.9515
 1023MOL0     H35021   8.868   7.771   6.188 -0.1453 -0.5460  2.1097
 1023MOL0     H35022   9.803   8.187   6.548  1.3487  0.5079 -0.3861
 1023MOL0     H35023  10.036   8.228   6.509  1.8586  0.2243  0.6851
 1023MOL0     H35024  10.435   7.947   6.590 -1.3471  1.5785  0.8802
 1023MOL0     H35025  10.674   7.894   6.556 -2.8222 -0.8181  0.2926
 1023MOL0     H35026  10.854   7.853   6.668 -1.7218  2.7264 -2.1518
 1023MOL0     H35027  10.999   7.913   6.736  0.5741  0.2711 -0.6910
 1023MOL0     H35028  10.928   7.916   6.445 -1.0724 -1.8393  0.3052
 1023MOL0     H35029  11.082   7.968   6.520 -1.6950  1.7792  0.6768
 1023MOL0     H35030  10.956   7.687   6.528 -1.1771  1.5426 -1.5912
 1023MOL0     H35031  11.091   7.726   6.627 -2.1301  1.1466  0.7414
 1023MOL0     H35032  11.228   7.784   6.423 -0.1947 -1.0420 -0.0481
 1023MOL0     H35033  11.207   7.616   6.434 -2.2715 -1.8796 -0.7846
 1023MOL0     H35034  11.011   7.741   6.070 -0.5064  2.2036  0.5125
 1023MOL0     H35035  10.774   8.267   6.733 -0.7458  1.6840  0.2350
 1023MOL0     H35036  10.533   8.341   6.732  0.5780 -0.6376  3.1013
 1024MOL0     O35037   2.796   2.175  11.299 -0.1024 -0.0687  1.0003
 1024MOL0     C35038   2.836   2.080  11.365  0.0816 -0.3196 -0.0146
 1024MOL0     O35039   2.762   1.978  11.404 -0.0872 -0.0427  0.4148
 1024MOL0     C35040   2.631   1.950  11.358 -0.2978 -1.2645  0.3976
 1024MOL0     C35041   2.580   2.004  11.233 -0.0959 -0.4478 -0.5082
 1024MOL0     C35042   2.439   1.966  11.200 -0.5125  1.2046 -0.4029
 1024MOL0     C35043   2.364   1.885  11.286  0.0224  0.5410  0.5767
 1024MOL0     O35044   2.220   1.867  11.276 -0.3729  0.0971 -0.3892
 1024MOL0     C35045   2.177   1.732  11.282 -1.2269 -0.2114 -0.2201
 1024MOL0     C35046   2.028   1.757  11.272 -0.0179 -0.5105 -0.5492
 1024MOL0     C35047   1.982   1.858  11.170 -0.7163  0.1111 -0.1874
 1024MOL0     C35048   1.825   1.868  11.168  0.2983  0.5981 -0.2861
 1024MOL0     C35049   1.768   1.971  11.070 -0.7447 -0.2154  0.4498
 1024MOL0     C35050   1.610   1.954  11.080 -1.0659 -0.1558 -0.7515
 1024MOL0     C35051   1.519   2.067  11.022  0.5709 -0.7725 -0.0680
 1024MOL0     C35052   1.514   2.087  10.872  0.1077 -0.3108 -0.9786
 1024MOL0     N35053   1.407   2.174  10.830  0.2693  0.3685 -0.0650
 1024MOL0     C35054   1.405   2.307  10.850  0.9044  0.3296  0.2184
 1024MOL0     C35055   1.286   2.356  10.805  0.4162  0.3940  0.0713
 1024MOL0     C35056   1.241   2.496  10.832  0.2865 -0.2563  0.5970
 1024MOL0     C35057   1.096   2.493  10.864 -1.1128 -0.0697 -0.2599
 1024MOL0     C35058   1.041   2.620  10.930 -0.1616 -0.5318 -0.8095
 1024MOL0     C35059   1.032   2.746  10.838  0.5238 -0.1672 -1.3070
 1024MOL0     O35060   0.970   2.699  10.721 -0.5976  0.2070  0.1040
 1024MOL0     C35061   0.838   2.729  10.701 -0.0773 -0.3810 -0.0462
 1024MOL0     C35062   0.790   2.703  10.580  0.4499 -0.2941 -0.0623
 1024MOL0     C35063   0.658   2.723  10.551 -0.5181 -0.6991  0.3192
 1024MOL0     C35064   0.560   2.756  10.646  0.3697 -1.0758 -0.4068
 1024MOL0     C35065   0.434   2.788  10.588  0.4858 -0.3461 -0.8387
 1024MOL0     O35066   0.359   2.855  10.681  0.0612  0.6040  0.5998
 1024MOL0     C35067   0.224   2.881  10.649  0.5844  0.1908 -0.0833
 1024MOL0     C35068   0.169   3.017  10.667 -0.2479  0.1568  0.6260
 1024MOL0     C35069   0.034   3.040  10.645  0.7475  0.8922  0.2281
 1024MOL0     C35070  -0.059   2.934  10.617 -0.6340 -0.4696 -0.6482
 1024MOL0     O35071  -0.182   2.979  10.588 -0.0897  0.0506  0.2575
 1024MOL0     C35072  -0.277   2.872  10.574  0.1490 -0.9728 -0.1479
 1024MOL0     C35073  -0.410   2.952  10.577 -0.3071 -0.0834  0.4569
 1024MOL0     C35074  -0.529   2.857  10.612 -0.8271  0.6157  0.5603
 1024MOL0     C35075  -0.663   2.933  10.610 -0.0856 -0.3566  0.4309
 1024MOL0     C35076  -0.776   2.842  10.617  0.0708  0.3017 -0.2822
 1024MOL0     C35077  -0.908   2.916  10.636 -0.2982 -0.6010  0.1309
 1024MOL0     C35078  -1.012   2.828  10.701  0.3682  0.5043  0.6582
 1024MOL0     C35079  -1.042   2.688  10.634 -0.1209 -0.2727  0.6468
 1024MOL0    Cl35080  -1.198   2.630  10.696 -0.1506 -0.0670  0.7172
 1024MOL0     C35081  -0.007   2.806  10.599 -0.2855  0.0764 -0.2117
 1024MOL0     C35082   0.133   2.781  10.618  0.1137 -0.3606  0.2472
 1024MOL0     O35083   0.388   2.738  10.485  0.1428 -0.6233 -0.1703
 1024MOL0     C35084   0.601   2.773  10.776  0.1324  0.6046  0.6074
 1024MOL0     C35085   0.742   2.761  10.805  0.7569  0.4911  0.2393
 1024MOL0     N35086   1.214   2.252  10.747  0.8546 -0.0479 -0.0912
 1024MOL0     N35087   1.290   2.146  10.760 -0.5232  0.4256  1.2832
 1024MOL0     C35088   2.430   1.832  11.400  0.2269  0.3382  0.1710
 1024MOL0     C35089   2.557   1.866  11.441 -0.4175 -0.1710  0.2685
 1024MOL0     C35090   2.966   2.082  11.424 -0.0955  0.1855 -0.6445
 1024MOL0     C35091   3.047   2.190  11.414 -0.1167 -1.1489  1.1892
 1024MOL0     C35092   3.175   2.205  11.477  0.2711  0.4209 -0.1734
 1024MOL0     C35093   3.213   2.109  11.569 -0.0742  0.7563  0.7316
 1024MOL0     O35094   3.340   2.116  11.626 -0.0543  0.4271 -0.6213
 1024MOL0     C35095   3.355   2.039  11.749  0.5777 -0.2902 -0.1695
 1024MOL0     C35096   3.475   2.094  11.833 -0.0556  0.5812  0.2576
 1024MOL0     C35097   3.600   2.095  11.750  0.4291  0.4675  0.5129
 1024MOL0     C35098   3.733   2.102  11.827  0.0733  1.7951  1.0760
 1024MOL0     C35099   3.731   2.217  11.911  0.1060 -1.4418 -0.3648
 1024MOL0     C35100   3.733   2.317  11.969  0.6976 -0.2197  0.0242
 1024MOL0     C35101   3.130   1.996  11.581  0.3838  1.0594  0.0413
 1024MOL0     C35102   3.015   1.983  11.502  0.3339  0.0815 -1.9189
 1024MOL0     H35103   2.638   2.065  11.164  0.7819 -0.4430  0.2246
 1024MOL0     H35104   2.383   1.997  11.112 -1.8747 -2.7830 -1.1468
 1024MOL0     H35105   2.198   1.684  11.378  0.1917  0.6597 -0.0548
 1024MOL0     H35106   2.204   1.666  11.199 -0.9406  1.0861 -1.1928
 1024MOL0     H35107   2.007   1.807  11.368  1.4564  1.0613 -0.9774
 1024MOL0     H35108   1.980   1.660  11.260 -0.8278 -0.0379 -1.2271
 1024MOL0     H35109   2.013   1.825  11.070 -0.1609 -0.6000  0.2081
 1024MOL0     H35110   2.016   1.957  11.199  3.9279 -0.4228 -2.7440
 1024MOL0     H35111   1.779   1.776  11.133  0.3400 -0.0829  1.3589
 1024MOL0     H35112   1.781   1.875  11.268 -1.8093 -1.9851 -0.9266
 1024MOL0     H35113   1.803   1.946  10.969 -0.0441  2.4856 -0.0707
 1024MOL0     H35114   1.812   2.069  11.095  0.8954 -0.4198 -1.3615
 1024MOL0     H35115   1.592   1.946  11.187  3.3988 -1.3261  0.1341
 1024MOL0     H35116   1.572   1.859  11.040 -1.1421 -0.5187  0.1458
 1024MOL0     H35117   1.414   2.058  11.051 -0.1674 -1.2873 -2.6264
 1024MOL0     H35118   1.556   2.164  11.055  3.4942 -1.5619 -0.7140
 1024MOL0     H35119   1.508   1.991  10.819 -0.5429 -0.1265 -1.2535
 1024MOL0     H35120   1.607   2.123  10.828  1.5500 -2.3005  0.2826
 1024MOL0     H35121   1.485   2.371  10.888 -1.4144  2.5274  1.7613
 1024MOL0     H35122   1.261   2.564  10.749  5.3548  1.4834  2.8573
 1024MOL0     H35123   1.299   2.525  10.920  0.2381  1.4884  0.0877
 1024MOL0     H35124   1.072   2.418  10.940  0.5246  1.9310  2.4716
 1024MOL0     H35125   1.030   2.479  10.778 -0.8684  2.7932 -1.0319
 1024MOL0     H35126   0.938   2.589  10.951 -1.3076 -0.4019 -5.2122
 1024MOL0     H35127   1.090   2.641  11.026 -2.3514 -0.1522  0.2929
 1024MOL0     H35128   1.132   2.789  10.826  1.7388 -1.8419  1.8106
 1024MOL0     H35129   0.976   2.825  10.888  2.2740  2.2303 -2.8879
 1024MOL0     H35130   0.841   2.664  10.493 -0.8747 -0.0416 -0.9814
 1024MOL0     H35131   0.632   2.699  10.448  1.4276  0.7241 -0.5662
 1024MOL0     H35132   0.241   3.098  10.675  1.0246 -0.9241  0.3681
 1024MOL0     H35133   0.006   3.144  10.660 -3.1924  0.0963 -0.4523
 1024MOL0     H35134  -0.267   2.809  10.663 -1.5270  0.8636  1.4548
 1024MOL0     H35135  -0.256   2.811  10.486  2.0273 -1.2971  0.4912
 1024MOL0     H35136  -0.426   3.003  10.481 -1.8485 -1.2897  0.0241
 1024MOL0     H35137  -0.402   3.037  10.645 -1.0288  1.1084 -0.8855
 1024MOL0     H35138  -0.508   2.825  10.714  1.2751  2.4128  0.7685
 1024MOL0     H35139  -0.530   2.771  10.544 -1.2654 -0.3916  1.8052
 1024MOL0     H35140  -0.677   3.003  10.693 -1.7842 -0.9668  0.6859
 1024MOL0     H35141  -0.675   2.990  10.517 -0.8986 -1.4292 -0.1462
 1024MOL0     H35142  -0.769   2.774  10.703  1.9759  1.5475  0.5961
 1024MOL0     H35143  -0.776   2.784  10.524 -3.4129  3.0467 -2.2527
 1024MOL0     H35144  -0.947   2.946  10.539 -0.2150  0.4381  0.4051
 1024MOL0     H35145  -0.902   3.007  10.696 -0.5633 -0.0431 -0.6862
 1024MOL0     H35146  -0.990   2.808  10.806 -1.9714 -3.8891  0.5136
 1024MOL0     H35147  -1.104   2.886  10.705  0.1296  0.1242  4.5373
 1024MOL0     H35148  -0.960   2.623  10.665  1.7343  1.3008 -0.6368
 1024MOL0     H35149  -1.043   2.699  10.525  3.3237 -1.7954  0.3270
 1024MOL0     H35150  -0.066   2.723  10.564  2.3958 -3.0048  1.9298
 1024MOL0     H35151   0.169   2.682  10.592  3.0348  0.0622  2.1431
 1024MOL0     H35152   0.526   2.794  10.852 -2.3480  0.8818 -1.7587
 1024MOL0     H35153   0.764   2.757  10.911 -1.9327 -1.9337  0.8438
 1024MOL0     H35154   2.363   1.771  11.460 -1.7708  0.8665 -1.4276
 1024MOL0     H35155   2.607   1.836  11.533  1.8394  1.7211 -0.2384
 1024MOL0     H35156   3.034   2.274  11.347 -0.4619 -2.1905 -0.0918
 1024MOL0     H35157   3.224   2.296  11.444 -0.6118  1.0958  0.3426
 1024MOL0     H35158   3.380   1.937  11.718  1.1284  0.8081 -3.7131
 1024MOL0     H35159   3.267   2.042  11.815  2.0467  4.7648  2.0570
 1024MOL0     H35160   3.459   2.195  11.871  1.1681  1.5681 -1.6790
 1024MOL0     H35161   3.491   2.025  11.917  2.7678  0.7769  0.0009
 1024MOL0     H35162   3.592   2.179  11.681  0.2029  1.0123  1.1875
 1024MOL0     H35163   3.604   1.993  11.709  0.0011 -0.9696  3.7187
 1024MOL0     H35164   3.743   2.010  11.887 -2.8547  1.4175  1.1067
 1024MOL0     H35165   3.819   2.119  11.762 -0.1324 -2.9935 -0.8733
 1024MOL0     H35166   3.740   2.405  12.030  1.3277  0.1189 -0.5254
 1024MOL0     H35167   3.144   1.916  11.653 -1.9343  1.0248  0.5192
 1024MOL0     H35168   2.952   1.897  11.523  0.2346  0.0401 -2.3798
  11.31819  11.31819  11.31819
